<event>
 9    1  0.2054950E-002  0.2754214E+03  0.7818608E-02  0.1098216E+00
         -2   -1    0    0    0  501 -0.00000000000E+00  0.00000000000E+00  0.37516856626E+02  0.37516856626E+02  0.00000000000E+00 0.  1.
          2   -1    0    0  501    0  0.00000000000E+00 -0.00000000000E+00 -0.50548563332E+03  0.50548563332E+03  0.00000000000E+00 0.  1.
         36    2    1    2    0    0  0.71054273576E-14  0.00000000000E+00 -0.46796877669E+03  0.54300248994E+03  0.27542136469E+03 0.  0.
         25    2    3    3    0    0  0.53491666710E+02 -0.12060637343E+02 -0.32561037311E+03  0.35049910696E+03  0.11756143723E+03 0.  0.
         25    2    3    3    0    0 -0.53491666710E+02  0.12060637343E+02 -0.14235840358E+03  0.19250338298E+03  0.11740877313E+03 0.  0.
          5    1    4    4  502    0  0.46562075242E+02 -0.57598622792E+02 -0.13202912539E+03  0.15145761172E+03  0.47000000000E+01 0. -1.
         -5    1    4    4    0  502  0.69295914683E+01  0.45537985449E+02 -0.19358124773E+03  0.19904149524E+03  0.47000000000E+01 0. -1.
          5    1    5    5  503    0 -0.62456371179E+02 -0.26176165805E+02 -0.31567985883E+02  0.74863994616E+02  0.47000000000E+01 0.  1.
         -5    1    5    5    0  503  0.89647044690E+01  0.38236803148E+02 -0.11079041770E+03  0.11763938836E+03  0.47000000000E+01 0.  1.
<mgrwt>
<rscale>  0 0.27542136E+03</rscale>
<asrwt>0</asrwt>
<pdfrwt beam="1">  1        2 0.77767023E-01 0.27542136E+03</pdfrwt>
<pdfrwt beam="2">  1       -2 0.57718239E-02 0.27542136E+03</pdfrwt>
<totfact> 0.96064284E+03</totfact>
</mgrwt>
</event>
<event>
 9    1  0.2054950E-002  0.2747732E+03  0.7818608E-02  0.1098578E+00
         -2   -1    0    0    0  501 -0.00000000000E+00  0.00000000000E+00  0.21612105861E+02  0.21612105861E+02  0.00000000000E+00 0. -1.
          2   -1    0    0  501    0  0.00000000000E+00 -0.00000000000E+00 -0.87335668981E+03  0.87335668981E+03  0.00000000000E+00 0. -1.
         36    2    1    2    0    0  0.00000000000E+00  0.53290705182E-14 -0.85174458395E+03  0.89496879567E+03  0.27477319545E+03 0.  0.
         25    2    3    3    0    0 -0.46220678663E+01  0.43505064990E+01 -0.20277682302E+03  0.23422144611E+03  0.11705108049E+03 0.  0.
         25    2    3    3    0    0  0.46220678663E+01 -0.43505064990E+01 -0.64896776092E+03  0.66074734956E+03  0.12404682507E+03 0.  0.
          5    1    4    4  502    0  0.36418090333E+02 -0.29012719261E+02 -0.15793033247E+03  0.16471822940E+03  0.47000000000E+01 0.  1.
         -5    1    4    4    0  502 -0.41040158199E+02  0.33363225760E+02 -0.44846490548E+02  0.69503216707E+02  0.47000000000E+01 0.  1.
          5    1    5    5  503    0 -0.56936628599E+02 -0.50659436564E+01 -0.40724560890E+03  0.41126453704E+03  0.47000000000E+01 0.  1.
         -5    1    5    5    0  503  0.61558696465E+02  0.71543715742E+00 -0.24172215203E+03  0.24948281252E+03  0.47000000000E+01 0.  1.
<mgrwt>
<rscale>  0 0.27477320E+03</rscale>
<asrwt>0</asrwt>
<pdfrwt beam="1">  1        2 0.13436257E+00 0.27477320E+03</pdfrwt>
<pdfrwt beam="2">  1       -2 0.33249393E-02 0.27477320E+03</pdfrwt>
<totfact> 0.11448618E+04</totfact>
</mgrwt>
</event>
<event>
 9    1  0.2054950E-002  0.2780913E+03  0.7818608E-02  0.1096736E+00
          2   -1    0    0  501    0  0.00000000000E+00  0.00000000000E+00  0.96338611166E+03  0.96338611166E+03  0.00000000000E+00 0.  1.
         -2   -1    0    0    0  501 -0.00000000000E+00 -0.00000000000E+00 -0.20068481389E+02  0.20068481389E+02  0.00000000000E+00 0.  1.
         36    2    1    2    0    0  0.00000000000E+00  0.00000000000E+00  0.94331763028E+03  0.98345459305E+03  0.27809132494E+03 0.  0.
         25    2    3    3    0    0 -0.11953297006E+02  0.48487571453E+02  0.34887539017E+03  0.37402272203E+03  0.12523990114E+03 0.  0.
         25    2    3    3    0    0  0.11953297006E+02 -0.48487571453E+02  0.59444224011E+03  0.60943187102E+03  0.12470646613E+03 0.  0.
          5    1    4    4  502    0  0.88149628305E+01  0.47711165144E+02  0.34932571963E+03  0.35271037303E+03  0.47000000000E+01 0. -1.
         -5    1    4    4    0  502 -0.20768259837E+02  0.77640630880E+00 -0.45032946183E+00  0.21312349003E+02  0.47000000000E+01 0. -1.
          5    1    5    5  503    0 -0.10373978617E+02 -0.39593825801E+01  0.51757419240E+03  0.51771462292E+03  0.47000000000E+01 0.  1.
         -5    1    5    5    0  503  0.22327275624E+02 -0.44528188873E+02  0.76868047709E+02  0.91717248104E+02  0.47000000000E+01 0.  1.
<mgrwt>
<rscale>  0 0.27809132E+03</rscale>
<asrwt>0</asrwt>
<pdfrwt beam="1">  1        2 0.14821321E+00 0.27809132E+03</pdfrwt>
<pdfrwt beam="2">  1       -2 0.30874594E-02 0.27809132E+03</pdfrwt>
<totfact> 0.11203434E+04</totfact>
</mgrwt>
</event>
<event>
 9    1  0.2054950E-002  0.2760509E+03  0.7818608E-02  0.1097866E+00
         -2   -1    0    0    0  501 -0.00000000000E+00  0.00000000000E+00  0.25402168366E+02  0.25402168366E+02  0.00000000000E+00 0. -1.
          2   -1    0    0  501    0  0.00000000000E+00 -0.00000000000E+00 -0.74997651873E+03  0.74997651873E+03  0.00000000000E+00 0. -1.
         36    2    1    2    0    0  0.00000000000E+00 -0.14210854715E-13 -0.72457435036E+03  0.77537868709E+03  0.27605093587E+03 0.  0.
         25    2    3    3    0    0  0.18371019025E+02  0.49791871976E+02 -0.46693638560E+03  0.48586637395E+03  0.12336863576E+03 0.  0.
         25    2    3    3    0    0 -0.18371019025E+02 -0.49791871976E+02 -0.25763796477E+03  0.28951231314E+03  0.12092697680E+03 0.  0.
          5    1    4    4  502    0 -0.23750198895E+02  0.56258470174E+02 -0.41023011802E+03  0.41477696072E+03  0.47000000000E+01 0. -1.
         -5    1    4    4    0  502  0.42121217919E+02 -0.64665981975E+01 -0.56706267579E+02  0.71089413234E+02  0.47000000000E+01 0. -1.
          5    1    5    5  503    0 -0.44130639972E+00 -0.19541382994E+02 -0.25292545281E+03  0.25372314652E+03  0.47000000000E+01 0. -1.
         -5    1    5    5    0  503 -0.17929712625E+02 -0.30250488982E+02 -0.47125119546E+01  0.35789166621E+02  0.47000000000E+01 0. -1.
<mgrwt>
<rscale>  0 0.27605094E+03</rscale>
<asrwt>0</asrwt>
<pdfrwt beam="1">  1        2 0.11538100E+00 0.27605094E+03</pdfrwt>
<pdfrwt beam="2">  1       -2 0.39080260E-02 0.27605094E+03</pdfrwt>
<totfact> 0.10922979E+04</totfact>
</mgrwt>
</event>
<event>
 9    1  0.2054950E-002  0.2750573E+03  0.7818608E-02  0.1098420E+00
         -4   -1    0    0    0  501 -0.00000000000E+00  0.00000000000E+00  0.31866293322E+03  0.31866293322E+03  0.00000000000E+00 0. -1.
          4   -1    0    0  501    0  0.00000000000E+00 -0.00000000000E+00 -0.59354674348E+02  0.59354674348E+02  0.00000000000E+00 0. -1.
         36    2    1    2    0    0  0.00000000000E+00  0.00000000000E+00  0.25930825887E+03  0.37801760756E+03  0.27505733677E+03 0.  0.
         25    2    3    3    0    0  0.44831522934E+02 -0.41165069036E+02  0.13235710946E+03  0.19166639618E+03  0.12455189538E+03 0.  0.
         25    2    3    3    0    0 -0.44831522934E+02  0.41165069036E+02  0.12695114941E+03  0.18635121139E+03  0.12208911209E+03 0.  0.
          5    1    4    4  502    0  0.16420749819E+02  0.43422338461E+02  0.28565823222E+02  0.54710481248E+02  0.47000000000E+01 0. -1.
         -5    1    4    4    0  502  0.28410773115E+02 -0.84587407497E+02  0.10379128623E+03  0.13695591493E+03  0.47000000000E+01 0. -1.
          5    1    5    5  503    0 -0.58990513411E+02  0.76320984302E+02  0.10338279312E+03  0.14147390300E+03  0.47000000000E+01 0.  1.
         -5    1    5    5    0  503  0.14158990477E+02 -0.35155915267E+02  0.23568356293E+02  0.44877308385E+02  0.47000000000E+01 0.  1.
<mgrwt>
<rscale>  0 0.27505734E+03</rscale>
<asrwt>0</asrwt>
<pdfrwt beam="1">  1        4 0.91314886E-02 0.27505734E+03</pdfrwt>
<pdfrwt beam="2">  1       -4 0.49025066E-01 0.27505734E+03</pdfrwt>
<totfact> 0.66975524E+02</totfact>
</mgrwt>
</event>
<event>
 9    1  0.2054950E-002  0.2747789E+03  0.7818608E-02  0.1098575E+00
         -2   -1    0    0    0  501 -0.00000000000E+00  0.00000000000E+00  0.23743951065E+02  0.23743951065E+02  0.00000000000E+00 0. -1.
          2   -1    0    0  501    0  0.00000000000E+00 -0.00000000000E+00 -0.79497548052E+03  0.79497548052E+03  0.00000000000E+00 0. -1.
         36    2    1    2    0    0  0.71054273576E-14  0.00000000000E+00 -0.77123152946E+03  0.81871943159E+03  0.27477888498E+03 0.  0.
         25    2    3    3    0    0 -0.40924825438E+02 -0.29034698096E+02 -0.44732562774E+03  0.46812413804E+03  0.12853846252E+03 0.  0.
         25    2    3    3    0    0  0.40924825438E+02  0.29034698096E+02 -0.32390590171E+03  0.35059529355E+03  0.12443541161E+03 0.  0.
          5    1    4    4  502    0 -0.32227112476E+02 -0.57949472388E+02 -0.10392284911E+03  0.12336440611E+03  0.47000000000E+01 0. -1.
         -5    1    4    4    0  502 -0.86977129622E+01  0.28914774292E+02 -0.34340277864E+03  0.34475973193E+03  0.47000000000E+01 0. -1.
          5    1    5    5  503    0 -0.13407157308E-01 -0.14887924644E+02 -0.26789343748E+03  0.26834797246E+03  0.47000000000E+01 0. -1.
         -5    1    5    5    0  503  0.40938232595E+02  0.43922622740E+02 -0.56012464232E+02  0.82247321086E+02  0.47000000000E+01 0. -1.
<mgrwt>
<rscale>  0 0.27477888E+03</rscale>
<asrwt>0</asrwt>
<pdfrwt beam="1">  1        2 0.12230394E+00 0.27477888E+03</pdfrwt>
<pdfrwt beam="2">  1       -2 0.36529150E-02 0.27477888E+03</pdfrwt>
<totfact> 0.11232854E+04</totfact>
</mgrwt>
</event>
<event>
 9    1  0.2054950E-002  0.2750504E+03  0.7818608E-02  0.1098423E+00
          1   -1    0    0  501    0  0.00000000000E+00  0.00000000000E+00  0.15262011287E+04  0.15262011287E+04  0.00000000000E+00 0. -1.
         -1   -1    0    0    0  501 -0.00000000000E+00 -0.00000000000E+00 -0.12392327668E+02  0.12392327668E+02  0.00000000000E+00 0. -1.
         36    2    1    2    0    0  0.00000000000E+00 -0.71054273576E-14  0.15138088011E+04  0.15385934564E+04  0.27505042792E+03 0.  0.
         25    2    3    3    0    0 -0.30871122749E+02 -0.32128573427E+02  0.88402305927E+03  0.89384349366E+03  0.12439513817E+03 0.  0.
         25    2    3    3    0    0  0.30871122749E+02  0.32128573427E+02  0.62978574178E+03  0.64474996272E+03  0.13071787340E+03 0.  0.
          5    1    4    4  502    0 -0.51687049157E+02 -0.54258646110E+02  0.30871631682E+03  0.31771592028E+03  0.47000000000E+01 0. -1.
         -5    1    4    4    0  502  0.20815926408E+02  0.22130072683E+02  0.57530674245E+03  0.57612757338E+03  0.47000000000E+01 0. -1.
          5    1    5    5  503    0 -0.32292630757E+01  0.12887171698E+02  0.36720136683E+00  0.14097239845E+02  0.47000000000E+01 0.  1.
         -5    1    5    5    0  503  0.34100385825E+02  0.19241401729E+02  0.62941854042E+03  0.63065272288E+03  0.47000000000E+01 0.  1.
<mgrwt>
<rscale>  0 0.27505043E+03</rscale>
<asrwt>0</asrwt>
<pdfrwt beam="1">  1        1 0.23480002E+00 0.27505043E+03</pdfrwt>
<pdfrwt beam="2">  1       -1 0.19065132E-02 0.27505043E+03</pdfrwt>
<totfact> 0.50570309E+03</totfact>
</mgrwt>
</event>
<event>
 9    1  0.2054950E-002  0.2746768E+03  0.7818608E-02  0.1098632E+00
          2   -1    0    0  501    0  0.00000000000E+00  0.00000000000E+00  0.10709686031E+04  0.10709686031E+04  0.00000000000E+00 0.  1.
         -2   -1    0    0    0  501 -0.00000000000E+00 -0.00000000000E+00 -0.17611945404E+02  0.17611945404E+02  0.00000000000E+00 0.  1.
         36    2    1    2    0    0  0.00000000000E+00  0.00000000000E+00  0.10533566577E+04  0.10885805485E+04  0.27467683243E+03 0.  0.
         25    2    3    3    0    0 -0.41552962548E+02 -0.59579381060E+02  0.57073369481E+03  0.58478395838E+03  0.10468512908E+03 0.  0.
         25    2    3    3    0    0  0.41552962548E+02  0.59579381060E+02  0.48262296291E+03  0.50379659014E+03  0.12493889933E+03 0.  0.
          5    1    4    4  502    0  0.11445754253E+02 -0.71772722155E+02  0.32543380602E+03  0.33348400417E+03  0.47000000000E+01 0. -1.
         -5    1    4    4    0  502 -0.52998716802E+02  0.12193341095E+02  0.24529988878E+03  0.25129995421E+03  0.47000000000E+01 0. -1.
          5    1    5    5  503    0 -0.45894221419E+01  0.89225975789E+02  0.29653780446E+03  0.30974037036E+03  0.47000000000E+01 0.  1.
         -5    1    5    5    0  503  0.46142384690E+02 -0.29646594730E+02  0.18608515844E+03  0.19405621978E+03  0.47000000000E+01 0.  1.
<mgrwt>
<rscale>  0 0.27467683E+03</rscale>
<asrwt>0</asrwt>
<pdfrwt beam="1">  1        2 0.16476435E+00 0.27467683E+03</pdfrwt>
<pdfrwt beam="2">  1       -2 0.27095309E-02 0.27467683E+03</pdfrwt>
<totfact> 0.11696533E+04</totfact>
</mgrwt>
</event>
<event>
 9    1  0.2054950E-002  0.2745973E+03  0.7818608E-02  0.1098677E+00
         -1   -1    0    0    0  501 -0.00000000000E+00  0.00000000000E+00  0.20676049230E+02  0.20676049230E+02  0.00000000000E+00 0. -1.
          1   -1    0    0  501    0  0.00000000000E+00 -0.00000000000E+00 -0.91172719885E+03  0.91172719885E+03  0.00000000000E+00 0. -1.
         36    2    1    2    0    0  0.00000000000E+00  0.00000000000E+00 -0.89105114963E+03  0.93240324808E+03  0.27459727928E+03 0.  0.
         25    2    3    3    0    0 -0.20295338416E+02 -0.46527697516E+02 -0.52021532754E+03  0.53779914015E+03  0.12659858111E+03 0.  0.
         25    2    3    3    0    0  0.20295338416E+02  0.46527697516E+02 -0.37083582209E+03  0.39460410794E+03  0.12496586598E+03 0.  0.
          5    1    4    4  502    0  0.28342859441E+02 -0.38004577889E+02 -0.44597745141E+03  0.44851493040E+03  0.47000000000E+01 0. -1.
         -5    1    4    4    0  502 -0.48638197856E+02 -0.85231196270E+01 -0.74237876126E+02  0.89284209749E+02  0.47000000000E+01 0. -1.
          5    1    5    5  503    0  0.68711685968E+02  0.19460245737E+02 -0.14100989316E+03  0.15813246637E+03  0.47000000000E+01 0.  1.
         -5    1    5    5    0  503 -0.48416347552E+02  0.27067451779E+02 -0.22982592893E+03  0.23647164156E+03  0.47000000000E+01 0.  1.
<mgrwt>
<rscale>  0 0.27459728E+03</rscale>
<asrwt>0</asrwt>
<pdfrwt beam="1">  1        1 0.14026574E+00 0.27459728E+03</pdfrwt>
<pdfrwt beam="2">  1       -1 0.31809302E-02 0.27459728E+03</pdfrwt>
<totfact> 0.64579129E+03</totfact>
</mgrwt>
</event>
<event>
 9    1  0.2054950E-002  0.2750920E+03  0.7818608E-02  0.1098400E+00
         -1   -1    0    0    0  501 -0.00000000000E+00  0.00000000000E+00  0.59565641205E+03  0.59565641205E+03  0.00000000000E+00 0.  1.
          1   -1    0    0  501    0  0.00000000000E+00 -0.00000000000E+00 -0.31761430021E+02  0.31761430021E+02  0.00000000000E+00 0.  1.
         36    2    1    2    0    0  0.14210854715E-13  0.35527136788E-14  0.56389498203E+03  0.62741784207E+03  0.27509198060E+03 0.  0.
         25    2    3    3    0    0  0.77930089046E+02  0.24776676997E+02  0.21864975107E+03  0.25265738619E+03  0.96649152358E+02 0.  0.
         25    2    3    3    0    0 -0.77930089046E+02 -0.24776676997E+02  0.34524523096E+03  0.37476045588E+03  0.12068200898E+03 0.  0.
          5    1    4    4  502    0 -0.11523295536E+02  0.28603624891E+02  0.94516361572E+02  0.99530830910E+02  0.47000000000E+01 0.  1.
         -5    1    4    4    0  502  0.89453384583E+02 -0.38269478941E+01  0.12413338949E+03  0.15312655528E+03  0.47000000000E+01 0.  1.
          5    1    5    5  503    0  0.47229350170E+01  0.24642515821E+02  0.12683951775E+02  0.28504952794E+02  0.47000000000E+01 0. -1.
         -5    1    5    5    0  503 -0.82653024063E+02 -0.49419192817E+02  0.33256127919E+03  0.34625550309E+03  0.47000000000E+01 0. -1.
<mgrwt>
<rscale>  0 0.27509198E+03</rscale>
<asrwt>0</asrwt>
<pdfrwt beam="1">  1        1 0.48863743E-02 0.27509198E+03</pdfrwt>
<pdfrwt beam="2">  1       -1 0.91639440E-01 0.27509198E+03</pdfrwt>
<totfact> 0.20971837E+03</totfact>
</mgrwt>
</event>
<event>
 9    1  0.2054950E-002  0.2758336E+03  0.7818608E-02  0.1097987E+00
          2   -1    0    0  501    0  0.00000000000E+00  0.00000000000E+00  0.17242233033E+03  0.17242233033E+03  0.00000000000E+00 0.  1.
         -2   -1    0    0    0  501 -0.00000000000E+00 -0.00000000000E+00 -0.11031662775E+03  0.11031662775E+03  0.00000000000E+00 0.  1.
         36    2    1    2    0    0  0.00000000000E+00 -0.14210854715E-13  0.62105702582E+02  0.28273895809E+03  0.27583364575E+03 0.  0.
         25    2    3    3    0    0  0.24267262764E+02 -0.32382550003E+02 -0.16497327182E+02  0.13139985140E+03  0.12392025482E+03 0.  0.
         25    2    3    3    0    0 -0.24267262764E+02  0.32382550003E+02  0.78603029765E+02  0.15133910669E+03  0.12283142651E+03 0.  0.
          5    1    4    4  502    0 -0.35110505254E+02 -0.37408466925E+02 -0.41943299952E+02  0.66433962608E+02  0.47000000000E+01 0. -1.
         -5    1    4    4    0  502  0.59377768019E+02  0.50259169220E+01  0.25445972769E+02  0.64965888788E+02  0.47000000000E+01 0. -1.
          5    1    5    5  503    0  0.32229593056E+02  0.46527965460E+02  0.73214653518E+02  0.92661069108E+02  0.47000000000E+01 0. -1.
         -5    1    5    5    0  503 -0.56496855820E+02 -0.14145415456E+02  0.53883762460E+01  0.58678037583E+02  0.47000000000E+01 0. -1.
<mgrwt>
<rscale>  0 0.27583365E+03</rscale>
<asrwt>0</asrwt>
<pdfrwt beam="1">  1        2 0.26526512E-01 0.27583365E+03</pdfrwt>
<pdfrwt beam="2">  1       -2 0.16971789E-01 0.27583365E+03</pdfrwt>
<totfact> 0.55586261E+03</totfact>
</mgrwt>
</event>
<event>
 9    1  0.2054950E-002  0.2750854E+03  0.7818608E-02  0.1098404E+00
          2   -1    0    0  501    0  0.00000000000E+00  0.00000000000E+00  0.45266775592E+03  0.45266775592E+03  0.00000000000E+00 0. -1.
         -2   -1    0    0    0  501 -0.00000000000E+00 -0.00000000000E+00 -0.41792228737E+02  0.41792228737E+02  0.00000000000E+00 0. -1.
         36    2    1    2    0    0  0.14210854715E-13  0.00000000000E+00  0.41087552719E+03  0.49445998466E+03  0.27508540054E+03 0.  0.
         25    2    3    3    0    0 -0.20703680604E+02  0.43489333311E+02  0.18988283555E+03  0.23297009456E+03  0.12609365258E+03 0.  0.
         25    2    3    3    0    0  0.20703680604E+02 -0.43489333311E+02  0.22099269164E+03  0.26148989010E+03  0.13122205747E+03 0.  0.
          5    1    4    4  502    0 -0.73422593234E+02  0.34515823713E+02  0.11673027936E+03  0.14223314453E+03  0.47000000000E+01 0.  1.
         -5    1    4    4    0  502  0.52718912630E+02  0.89735095979E+01  0.73152556192E+02  0.90736950030E+02  0.47000000000E+01 0.  1.
          5    1    5    5  503    0  0.53380427659E+02  0.15331735568E+02  0.40765709602E+02  0.69054074839E+02  0.47000000000E+01 0. -1.
         -5    1    5    5    0  503 -0.32676747055E+02 -0.58821068879E+02  0.18022698203E+03  0.19243581526E+03  0.47000000000E+01 0. -1.
<mgrwt>
<rscale>  0 0.27508540E+03</rscale>
<asrwt>0</asrwt>
<pdfrwt beam="1">  1        2 0.69641190E-01 0.27508540E+03</pdfrwt>
<pdfrwt beam="2">  1       -2 0.64295740E-02 0.27508540E+03</pdfrwt>
<totfact> 0.92006384E+03</totfact>
</mgrwt>
</event>
<event>
 9    1  0.2054950E-002  0.2752317E+03  0.7818608E-02  0.1098322E+00
          2   -1    0    0  501    0  0.00000000000E+00  0.00000000000E+00  0.35887993459E+03  0.35887993459E+03  0.00000000000E+00 0.  1.
         -2   -1    0    0    0  501 -0.00000000000E+00 -0.00000000000E+00 -0.52770087327E+02  0.52770087327E+02  0.00000000000E+00 0.  1.
         36    2    1    2    0    0 -0.71054273576E-14  0.00000000000E+00  0.30610984727E+03  0.41165002192E+03  0.27523172410E+03 0.  0.
         25    2    3    3    0    0 -0.53473961714E+02  0.14740053705E+02  0.13877578276E+03  0.19530362312E+03  0.12573008216E+03 0.  0.
         25    2    3    3    0    0  0.53473961714E+02 -0.14740053705E+02  0.16733406451E+03  0.21634639880E+03  0.12541268422E+03 0.  0.
          5    1    4    4  502    0 -0.59436133564E+02 -0.36393292792E+02  0.32331876152E+02  0.76971202075E+02  0.47000000000E+01 0.  1.
         -5    1    4    4    0  502  0.59621718501E+01  0.51133346497E+02  0.10644390661E+03  0.11833242105E+03  0.47000000000E+01 0.  1.
          5    1    5    5  503    0  0.37638552890E+02 -0.52642156751E+02  0.16218441775E+03  0.17468180412E+03  0.47000000000E+01 0.  1.
         -5    1    5    5    0  503  0.15835408824E+02  0.37902103046E+02  0.51496467628E+01  0.41664594679E+02  0.47000000000E+01 0.  1.
<mgrwt>
<rscale>  0 0.27523172E+03</rscale>
<asrwt>0</asrwt>
<pdfrwt beam="1">  1        2 0.55212296E-01 0.27523172E+03</pdfrwt>
<pdfrwt beam="2">  1       -2 0.81184752E-02 0.27523172E+03</pdfrwt>
<totfact> 0.82495348E+03</totfact>
</mgrwt>
</event>
<event>
 9    1  0.2054950E-002  0.2748628E+03  0.7818608E-02  0.1098528E+00
         -1   -1    0    0    0  501 -0.00000000000E+00  0.00000000000E+00  0.40792563090E+02  0.40792563090E+02  0.00000000000E+00 0. -1.
          1   -1    0    0  501    0  0.00000000000E+00 -0.00000000000E+00 -0.46301072997E+03  0.46301072997E+03  0.00000000000E+00 0. -1.
         36    2    1    2    0    0  0.00000000000E+00  0.00000000000E+00 -0.42221816688E+03  0.50380329306E+03  0.27486283425E+03 0.  0.
         25    2    3    3    0    0 -0.92246248118E+01 -0.52228011183E+02 -0.18705886102E+03  0.23250232551E+03  0.12748903886E+03 0.  0.
         25    2    3    3    0    0  0.92246248118E+01  0.52228011183E+02 -0.23515930586E+03  0.27130096755E+03  0.12446468175E+03 0.  0.
          5    1    4    4  502    0  0.26122894435E+02 -0.76226876376E+02 -0.16611938635E+03  0.18469077621E+03  0.47000000000E+01 0. -1.
         -5    1    4    4    0  502 -0.35347519247E+02  0.23998865193E+02 -0.20939474668E+02  0.47811549304E+02  0.47000000000E+01 0. -1.
          5    1    5    5  503    0  0.39782466643E+02 -0.26191244446E+02 -0.11462588918E+03  0.12421678795E+03  0.47000000000E+01 0.  1.
         -5    1    5    5    0  503 -0.30557841831E+02  0.78419255629E+02 -0.12053341668E+03  0.14708417960E+03  0.47000000000E+01 0.  1.
<mgrwt>
<rscale>  0 0.27486283E+03</rscale>
<asrwt>0</asrwt>
<pdfrwt beam="1">  1        1 0.71232419E-01 0.27486283E+03</pdfrwt>
<pdfrwt beam="2">  1       -1 0.62757791E-02 0.27486283E+03</pdfrwt>
<totfact> 0.62110573E+03</totfact>
</mgrwt>
</event>
<event>
 9    1  0.2054950E-002  0.2792835E+03  0.7818608E-02  0.1096081E+00
         -1   -1    0    0    0  501 -0.00000000000E+00  0.00000000000E+00  0.64509040322E+02  0.64509040322E+02  0.00000000000E+00 0. -1.
          1   -1    0    0  501    0  0.00000000000E+00 -0.00000000000E+00 -0.30228031027E+03  0.30228031027E+03  0.00000000000E+00 0. -1.
         36    2    1    2    0    0  0.00000000000E+00  0.00000000000E+00 -0.23777126995E+03  0.36678935059E+03  0.27928345976E+03 0.  0.
         25    2    3    3    0    0 -0.22279334563E+02  0.46631319794E+02 -0.15115576834E+03  0.20634184561E+03  0.13060644016E+03 0.  0.
         25    2    3    3    0    0  0.22279334563E+02 -0.46631319794E+02 -0.86615501608E+02  0.16044750499E+03  0.12478104024E+03 0.  0.
          5    1    4    4  502    0  0.46384928588E+02  0.66647072941E+01 -0.16459626839E+02  0.49889770886E+02  0.47000000000E+01 0. -1.
         -5    1    4    4    0  502 -0.68664263150E+02  0.39966612500E+02 -0.13469614150E+03  0.15645207472E+03  0.47000000000E+01 0. -1.
          5    1    5    5  503    0  0.92122089555E+01 -0.62847124176E+02  0.73244530429E+01  0.64112116042E+02  0.47000000000E+01 0.  1.
         -5    1    5    5    0  503  0.13067125607E+02  0.16215804381E+02 -0.93939954651E+02  0.96335388945E+02  0.47000000000E+01 0.  1.
<mgrwt>
<rscale>  0 0.27928346E+03</rscale>
<asrwt>0</asrwt>
<pdfrwt beam="1">  1        1 0.46504664E-01 0.27928346E+03</pdfrwt>
<pdfrwt beam="2">  1       -1 0.99244676E-02 0.27928346E+03</pdfrwt>
<totfact> 0.53216897E+03</totfact>
</mgrwt>
</event>
<event>
 9    1  0.2054950E-002  0.2743546E+03  0.7818608E-02  0.1098813E+00
          2   -1    0    0  501    0  0.00000000000E+00  0.00000000000E+00  0.84055127777E+02  0.84055127777E+02  0.00000000000E+00 0.  1.
         -2   -1    0    0    0  501 -0.00000000000E+00 -0.00000000000E+00 -0.22387229732E+03  0.22387229732E+03  0.00000000000E+00 0.  1.
         36    2    1    2    0    0 -0.35527136788E-14  0.14210854715E-13 -0.13981716954E+03  0.30792742510E+03  0.27435462130E+03 0.  0.
         25    2    3    3    0    0  0.15649360634E+02 -0.57001972510E+02 -0.84834931090E+02  0.16381941264E+03  0.12706575883E+03 0.  0.
         25    2    3    3    0    0 -0.15649360634E+02  0.57001972510E+02 -0.54982238452E+02  0.14410801246E+03  0.11937313497E+03 0.  0.
          5    1    4    4  502    0 -0.31636711338E+02 -0.69041445002E+01 -0.88819527172E+02  0.94654884304E+02  0.47000000000E+01 0.  1.
         -5    1    4    4    0  502  0.47286071972E+02 -0.50097828009E+02  0.39845960819E+01  0.69164528334E+02  0.47000000000E+01 0.  1.
          5    1    5    5  503    0 -0.55022760667E+01 -0.32878162121E+02 -0.40037781350E+02  0.52310252549E+02  0.47000000000E+01 0. -1.
         -5    1    5    5    0  503 -0.10147084567E+02  0.89880134630E+02 -0.14944457102E+02  0.91797759910E+02  0.47000000000E+01 0. -1.
<mgrwt>
<rscale>  0 0.27435462E+03</rscale>
<asrwt>0</asrwt>
<pdfrwt beam="1">  1        2 0.12931558E-01 0.27435462E+03</pdfrwt>
<pdfrwt beam="2">  1       -2 0.34441892E-01 0.27435462E+03</pdfrwt>
<totfact> 0.36722796E+03</totfact>
</mgrwt>
</event>
<event>
 9    1  0.2054950E-002  0.2747965E+03  0.7818608E-02  0.1098565E+00
         -2   -1    0    0    0  501 -0.00000000000E+00  0.00000000000E+00  0.57194955354E+02  0.57194955354E+02  0.00000000000E+00 0.  1.
          2   -1    0    0  501    0  0.00000000000E+00 -0.00000000000E+00 -0.33006900422E+03  0.33006900422E+03  0.00000000000E+00 0.  1.
         36    2    1    2    0    0  0.00000000000E+00  0.35527136788E-14 -0.27287404887E+03  0.38726395958E+03  0.27479652080E+03 0.  0.
         25    2    3    3    0    0 -0.31751406446E+02 -0.21386429233E+02 -0.19451322112E+03  0.23501025008E+03  0.12620971945E+03 0.  0.
         25    2    3    3    0    0  0.31751406446E+02  0.21386429233E+02 -0.78360827747E+02  0.15225370950E+03  0.12480080755E+03 0.  0.
          5    1    4    4  502    0 -0.61823580315E+02  0.31780514815E+02 -0.11748145338E+03  0.13658747414E+03  0.47000000000E+01 0.  1.
         -5    1    4    4    0  502  0.30072173870E+02 -0.53166944049E+02 -0.77031767746E+02  0.98422775935E+02  0.47000000000E+01 0.  1.
          5    1    5    5  503    0 -0.98732173339E+01 -0.28337968123E+02  0.18522359379E+02  0.35576518307E+02  0.47000000000E+01 0. -1.
         -5    1    5    5    0  503  0.41624623780E+02  0.49724397356E+02 -0.96883187126E+02  0.11667719119E+03  0.47000000000E+01 0. -1.
<mgrwt>
<rscale>  0 0.27479652E+03</rscale>
<asrwt>0</asrwt>
<pdfrwt beam="1">  1        2 0.50779846E-01 0.27479652E+03</pdfrwt>
<pdfrwt beam="2">  1       -2 0.87992240E-02 0.27479652E+03</pdfrwt>
<totfact> 0.79572247E+03</totfact>
</mgrwt>
</event>
<event>
 9    1  0.2054950E-002  0.2749044E+03  0.7818608E-02  0.1098505E+00
         -1   -1    0    0    0  501 -0.00000000000E+00  0.00000000000E+00  0.97905509675E+01  0.97905509675E+01  0.00000000000E+00 0. -1.
          1   -1    0    0  501    0  0.00000000000E+00 -0.00000000000E+00 -0.19297281067E+04  0.19297281067E+04  0.00000000000E+00 0. -1.
         36    2    1    2    0    0  0.00000000000E+00 -0.71054273576E-14 -0.19199375557E+04  0.19395186576E+04  0.27490435705E+03 0.  0.
         25    2    3    3    0    0 -0.37749839447E+02 -0.43858313087E+02 -0.90999724346E+03  0.92035644754E+03  0.12494961153E+03 0.  0.
         25    2    3    3    0    0  0.37749839447E+02  0.43858313087E+02 -0.10099403122E+04  0.10191622101E+04  0.12394988581E+03 0.  0.
          5    1    4    4  502    0 -0.58209091859E+02 -0.32320844466E+02 -0.87723915143E+03  0.87977471784E+03  0.47000000000E+01 0. -1.
         -5    1    4    4    0  502  0.20459252412E+02 -0.11537468621E+02 -0.32758092028E+02  0.40581729692E+02  0.47000000000E+01 0. -1.
          5    1    5    5  503    0  0.29416258941E+02  0.53169191730E+02 -0.19926194981E+03  0.20837392803E+03  0.47000000000E+01 0.  1.
         -5    1    5    5    0  503  0.83335805062E+01 -0.93108786432E+01 -0.81067836243E+03  0.81078828207E+03  0.47000000000E+01 0.  1.
<mgrwt>
<rscale>  0 0.27490436E+03</rscale>
<asrwt>0</asrwt>
<pdfrwt beam="1">  1        1 0.29688132E+00 0.27490436E+03</pdfrwt>
<pdfrwt beam="2">  1       -1 0.15062382E-02 0.27490436E+03</pdfrwt>
<totfact> 0.38878723E+03</totfact>
</mgrwt>
</event>
<event>
 9    1  0.2054950E-002  0.2752931E+03  0.7818608E-02  0.1098288E+00
         -2   -1    0    0    0  501 -0.00000000000E+00  0.00000000000E+00  0.26520555424E+02  0.26520555424E+02  0.00000000000E+00 0.  1.
          2   -1    0    0  501    0  0.00000000000E+00 -0.00000000000E+00 -0.71441087459E+03  0.71441087459E+03  0.00000000000E+00 0.  1.
         36    2    1    2    0    0  0.00000000000E+00  0.71054273576E-14 -0.68789031917E+03  0.74093143001E+03  0.27529310340E+03 0.  0.
         25    2    3    3    0    0  0.32175628344E+02 -0.35273731046E+02 -0.39096534052E+03  0.41279494891E+03  0.12355672865E+03 0.  0.
         25    2    3    3    0    0 -0.32175628344E+02  0.35273731046E+02 -0.29692497865E+03  0.32813648111E+03  0.13126157140E+03 0.  0.
          5    1    4    4  502    0 -0.43430834311E+02 -0.36101289895E+02 -0.17183198261E+03  0.18093606812E+03  0.47000000000E+01 0.  1.
         -5    1    4    4    0  502  0.75606462655E+02  0.82755884991E+00 -0.21913335791E+03  0.23185888078E+03  0.47000000000E+01 0.  1.
          5    1    5    5  503    0 -0.17102601300E+02  0.75268456127E+02 -0.99145269684E+02  0.12573668502E+03  0.47000000000E+01 0.  1.
         -5    1    5    5    0  503 -0.15073027044E+02 -0.39994725082E+02 -0.19777970896E+03  0.20239979609E+03  0.47000000000E+01 0.  1.
<mgrwt>
<rscale>  0 0.27529310E+03</rscale>
<asrwt>0</asrwt>
<pdfrwt beam="1">  1        2 0.10990935E+00 0.27529310E+03</pdfrwt>
<pdfrwt beam="2">  1       -2 0.40800860E-02 0.27529310E+03</pdfrwt>
<totfact> 0.10867858E+04</totfact>
</mgrwt>
</event>
<event>
 9    1  0.2054950E-002  0.2758297E+03  0.7818608E-02  0.1097989E+00
          2   -1    0    0  501    0  0.00000000000E+00  0.00000000000E+00  0.91943879550E+03  0.91943879550E+03  0.00000000000E+00 0.  1.
         -2   -1    0    0    0  501 -0.00000000000E+00 -0.00000000000E+00 -0.20687084788E+02  0.20687084788E+02  0.00000000000E+00 0.  1.
         36    2    1    2    0    0  0.00000000000E+00 -0.35527136788E-14  0.89875171072E+03  0.94012588029E+03  0.27582971791E+03 0.  0.
         25    2    3    3    0    0  0.37732806946E+02 -0.12775967439E+02  0.30651954407E+03  0.33348681374E+03  0.12518879334E+03 0.  0.
         25    2    3    3    0    0 -0.37732806946E+02  0.12775967439E+02  0.59223216665E+03  0.60663906655E+03  0.12523988099E+03 0.  0.
          5    1    4    4  502    0 -0.30712375971E+02 -0.13355286359E+02  0.22230388336E+03  0.22486155800E+03  0.47000000000E+01 0. -1.
         -5    1    4    4    0  502  0.68445182917E+02  0.57931891977E+00  0.84215660710E+02  0.10862525574E+03  0.47000000000E+01 0. -1.
          5    1    5    5  503    0 -0.26903962992E+02 -0.10842725569E+02  0.24403933144E+02  0.38197249578E+02  0.47000000000E+01 0. -1.
         -5    1    5    5    0  503 -0.10828843955E+02  0.23618693008E+02  0.56782823351E+03  0.56844181698E+03  0.47000000000E+01 0. -1.
<mgrwt>
<rscale>  0 0.27582972E+03</rscale>
<asrwt>0</asrwt>
<pdfrwt beam="1">  1        2 0.14145209E+00 0.27582972E+03</pdfrwt>
<pdfrwt beam="2">  1       -2 0.31826291E-02 0.27582972E+03</pdfrwt>
<totfact> 0.11410975E+04</totfact>
</mgrwt>
</event>
<event>
 9    1  0.2054950E-002  0.2801671E+03  0.7818608E-02  0.1095598E+00
          2   -1    0    0  501    0  0.00000000000E+00  0.00000000000E+00  0.24630232270E+03  0.24630232270E+03  0.00000000000E+00 0.  1.
         -2   -1    0    0    0  501 -0.00000000000E+00 -0.00000000000E+00 -0.79672032084E+02  0.79672032084E+02  0.00000000000E+00 0.  1.
         36    2    1    2    0    0  0.00000000000E+00  0.14210854715E-13  0.16663029061E+03  0.32597435478E+03  0.28016713980E+03 0.  0.
         25    2    3    3    0    0 -0.35766316080E+02 -0.23189261043E+02  0.13568537585E+03  0.18988016983E+03  0.12580535157E+03 0.  0.
         25    2    3    3    0    0  0.35766316080E+02  0.23189261043E+02  0.30944914761E+02  0.13609418495E+03  0.12548732300E+03 0.  0.
          5    1    4    4  502    0  0.16992168718E+02 -0.54818417694E+02  0.10771992608E+03  0.12214526266E+03  0.47000000000E+01 0. -1.
         -5    1    4    4    0  502 -0.52758484798E+02  0.31629156651E+02  0.27965449772E+02  0.67734907172E+02  0.47000000000E+01 0. -1.
          5    1    5    5  503    0  0.10631741438E+02  0.72820127496E+02  0.31679136613E+02  0.80258722835E+02  0.47000000000E+01 0.  1.
         -5    1    5    5    0  503  0.25134574643E+02 -0.49630866454E+02 -0.73422185230E+00  0.55835462111E+02  0.47000000000E+01 0.  1.
<mgrwt>
<rscale>  0 0.28016714E+03</rscale>
<asrwt>0</asrwt>
<pdfrwt beam="1">  1        2 0.37892665E-01 0.28016714E+03</pdfrwt>
<pdfrwt beam="2">  1       -2 0.12257236E-01 0.28016714E+03</pdfrwt>
<totfact> 0.64326446E+03</totfact>
</mgrwt>
</event>
<event>
 9    1  0.2054950E-002  0.2747733E+03  0.7818608E-02  0.1098578E+00
         -2   -1    0    0    0  501 -0.00000000000E+00  0.00000000000E+00  0.14280533236E+02  0.14280533236E+02  0.00000000000E+00 0.  1.
          2   -1    0    0  501    0  0.00000000000E+00 -0.00000000000E+00 -0.13217354566E+04  0.13217354566E+04  0.00000000000E+00 0.  1.
         36    2    1    2    0    0 -0.71054273576E-14 -0.71054273576E-14 -0.13074549233E+04  0.13360159898E+04  0.27477326738E+03 0.  0.
         25    2    3    3    0    0 -0.11352016129E+02  0.51572573004E+02 -0.75733281314E+03  0.76891023063E+03  0.12198915665E+03 0.  0.
         25    2    3    3    0    0  0.11352016129E+02 -0.51572573004E+02 -0.55012211021E+03  0.56710575920E+03  0.12722424068E+03 0.  0.
          5    1    4    4  502    0  0.35855549139E+02  0.16362151974E+02 -0.59217115065E+03  0.59349987539E+03  0.47000000000E+01 0. -1.
         -5    1    4    4    0  502 -0.47207565268E+02  0.35210421030E+02 -0.16516166249E+03  0.17541035524E+03  0.47000000000E+01 0. -1.
          5    1    5    5  503    0 -0.36107313809E+02 -0.64081340788E+02 -0.19296826685E+03  0.20656475585E+03  0.47000000000E+01 0. -1.
         -5    1    5    5    0  503  0.47459329938E+02  0.12508767784E+02 -0.35715384336E+03  0.36054100335E+03  0.47000000000E+01 0. -1.
<mgrwt>
<rscale>  0 0.27477327E+03</rscale>
<asrwt>0</asrwt>
<pdfrwt beam="1">  1        2 0.20334394E+00 0.27477327E+03</pdfrwt>
<pdfrwt beam="2">  1       -2 0.21970049E-02 0.27477327E+03</pdfrwt>
<totfact> 0.11475669E+04</totfact>
</mgrwt>
</event>
<event>
 9    1  0.2054950E-002  0.2752365E+03  0.7818608E-02  0.1098319E+00
         -1   -1    0    0    0  501 -0.00000000000E+00  0.00000000000E+00  0.30689109097E+02  0.30689109097E+02  0.00000000000E+00 0.  1.
          1   -1    0    0  501    0  0.00000000000E+00 -0.00000000000E+00 -0.61711745945E+03  0.61711745945E+03  0.00000000000E+00 0.  1.
         36    2    1    2    0    0  0.00000000000E+00  0.17763568394E-14 -0.58642835035E+03  0.64780656855E+03  0.27523651676E+03 0.  0.
         25    2    3    3    0    0 -0.39298163063E+01 -0.20089463642E+01 -0.12085541673E+03  0.17294726590E+03  0.12363351370E+03 0.  0.
         25    2    3    3    0    0  0.39298163063E+01  0.20089463642E+01 -0.46557293363E+03  0.47485930264E+03  0.93347316308E+02 0.  0.
          5    1    4    4  502    0 -0.54526320676E+02  0.93437727860E+01 -0.19223312315E+02  0.58754161322E+02  0.47000000000E+01 0.  1.
         -5    1    4    4    0  502  0.50596504370E+02 -0.11352719150E+02 -0.10163210441E+03  0.11419310458E+03  0.47000000000E+01 0.  1.
          5    1    5    5  503    0  0.38292695932E+02 -0.11738325769E+02 -0.10693471184E+03  0.11428578849E+03  0.47000000000E+01 0. -1.
         -5    1    5    5    0  503 -0.34362879626E+02  0.13747272133E+02 -0.35863822178E+03  0.36057351416E+03  0.47000000000E+01 0. -1.
<mgrwt>
<rscale>  0 0.27523652E+03</rscale>
<asrwt>0</asrwt>
<pdfrwt beam="1">  1        1 0.94941141E-01 0.27523652E+03</pdfrwt>
<pdfrwt beam="2">  1       -1 0.47214018E-02 0.27523652E+03</pdfrwt>
<totfact> 0.64629290E+03</totfact>
</mgrwt>
</event>
<event>
 9    1  0.2054950E-002  0.2757362E+03  0.7818608E-02  0.1098041E+00
         -1   -1    0    0    0  501 -0.00000000000E+00  0.00000000000E+00  0.31277736215E+02  0.31277736215E+02  0.00000000000E+00 0. -1.
          1   -1    0    0  501    0  0.00000000000E+00 -0.00000000000E+00 -0.60770429784E+03  0.60770429784E+03  0.00000000000E+00 0. -1.
         36    2    1    2    0    0 -0.35527136788E-14  0.71054273576E-14 -0.57642656162E+03  0.63898203405E+03  0.27573621253E+03 0.  0.
         25    2    3    3    0    0 -0.19518978943E+02 -0.54135238960E+02 -0.30812370312E+03  0.33797294136E+03  0.12638780808E+03 0.  0.
         25    2    3    3    0    0  0.19518978943E+02  0.54135238960E+02 -0.26830285851E+03  0.30100909269E+03  0.12372726202E+03 0.  0.
          5    1    4    4  502    0 -0.63119762123E+02 -0.66951905593E+02 -0.22474461411E+03  0.24289687854E+03  0.47000000000E+01 0.  1.
         -5    1    4    4    0  502  0.43600783180E+02  0.12816666633E+02 -0.83379089011E+02  0.95076062823E+02  0.47000000000E+01 0.  1.
          5    1    5    5  503    0 -0.17693381416E+02 -0.16012441817E+02 -0.35683426538E+01  0.24582048494E+02  0.47000000000E+01 0. -1.
         -5    1    5    5    0  503  0.37212360359E+02  0.70147680777E+02 -0.26473451585E+03  0.27642704420E+03  0.47000000000E+01 0. -1.
<mgrwt>
<rscale>  0 0.27573621E+03</rscale>
<asrwt>0</asrwt>
<pdfrwt beam="1">  1        1 0.93492964E-01 0.27573621E+03</pdfrwt>
<pdfrwt beam="2">  1       -1 0.48119596E-02 0.27573621E+03</pdfrwt>
<totfact> 0.64185420E+03</totfact>
</mgrwt>
</event>
<event>
 9    1  0.2054950E-002  0.2754943E+03  0.7818608E-02  0.1098176E+00
          1   -1    0    0  501    0  0.00000000000E+00  0.00000000000E+00  0.13134775576E+04  0.13134775576E+04  0.00000000000E+00 0. -1.
         -1   -1    0    0    0  501 -0.00000000000E+00 -0.00000000000E+00 -0.14445831932E+02  0.14445831932E+02  0.00000000000E+00 0. -1.
         36    2    1    2    0    0  0.00000000000E+00 -0.35527136788E-14  0.12990317257E+04  0.13279233895E+04  0.27549429064E+03 0.  0.
         25    2    3    3    0    0  0.16998785359E+02  0.37732902307E+01  0.92419012651E+03  0.93250886555E+03  0.12305363855E+03 0.  0.
         25    2    3    3    0    0 -0.16998785359E+02 -0.37732902307E+01  0.37484159915E+03  0.39541452398E+03  0.12467247048E+03 0.  0.
          5    1    4    4  502    0  0.66901960853E+02  0.13250068104E+00  0.67349313446E+03  0.67682418847E+03  0.47000000000E+01 0. -1.
         -5    1    4    4    0  502 -0.49903175494E+02  0.36407895497E+01  0.25069699205E+03  0.25568467708E+03  0.47000000000E+01 0. -1.
          5    1    5    5  503    0  0.18590899623E+02  0.33844385795E+02  0.30937165873E+03  0.31180759648E+03  0.47000000000E+01 0. -1.
         -5    1    5    5    0  503 -0.35589684982E+02 -0.37617676026E+02  0.65469940421E+02  0.83606927496E+02  0.47000000000E+01 0. -1.
<mgrwt>
<rscale>  0 0.27549429E+03</rscale>
<asrwt>0</asrwt>
<pdfrwt beam="1">  1        1 0.20207338E+00 0.27549429E+03</pdfrwt>
<pdfrwt beam="2">  1       -1 0.22224367E-02 0.27549429E+03</pdfrwt>
<totfact> 0.56114115E+03</totfact>
</mgrwt>
</event>
<event>
 9    1  0.2054950E-002  0.2740666E+03  0.7818608E-02  0.1098975E+00
         -1   -1    0    0    0  501 -0.00000000000E+00  0.00000000000E+00  0.21619693980E+02  0.21619693980E+02  0.00000000000E+00 0.  1.
          1   -1    0    0  501    0  0.00000000000E+00 -0.00000000000E+00 -0.86856555448E+03  0.86856555448E+03  0.00000000000E+00 0.  1.
         36    2    1    2    0    0  0.00000000000E+00  0.71054273576E-14 -0.84694586050E+03  0.89018524846E+03  0.27406657213E+03 0.  0.
         25    2    3    3    0    0 -0.69510769221E+02  0.16535131943E+02 -0.41656481988E+03  0.44105992098E+03  0.12610490516E+03 0.  0.
         25    2    3    3    0    0  0.69510769221E+02 -0.16535131943E+02 -0.43038104062E+03  0.44912532748E+03  0.10667971707E+03 0.  0.
          5    1    4    4  502    0 -0.66788574898E+02 -0.43370053837E+02 -0.17852003613E+03  0.19553303712E+03  0.47000000000E+01 0. -1.
         -5    1    4    4    0  502 -0.27221943234E+01  0.59905185780E+02 -0.23804478376E+03  0.24552688386E+03  0.47000000000E+01 0. -1.
          5    1    5    5  503    0  0.67926056257E+02 -0.55519069461E+02 -0.26691257496E+03  0.28099951755E+03  0.47000000000E+01 0. -1.
         -5    1    5    5    0  503  0.15847129645E+01  0.38983937518E+02 -0.16346846566E+03  0.16812580993E+03  0.47000000000E+01 0. -1.
<mgrwt>
<rscale>  0 0.27406657E+03</rscale>
<asrwt>0</asrwt>
<pdfrwt beam="1">  1        1 0.13362545E+00 0.27406657E+03</pdfrwt>
<pdfrwt beam="2">  1       -1 0.33261073E-02 0.27406657E+03</pdfrwt>
<totfact> 0.65390150E+03</totfact>
</mgrwt>
</event>
<event>
 9    1  0.2054950E-002  0.2773659E+03  0.7818608E-02  0.1097136E+00
          1   -1    0    0  501    0  0.00000000000E+00  0.00000000000E+00  0.23331280531E+02  0.23331280531E+02  0.00000000000E+00 0.  1.
         -1   -1    0    0    0  501 -0.00000000000E+00 -0.00000000000E+00 -0.82434226769E+03  0.82434226769E+03  0.00000000000E+00 0.  1.
         36    2    1    2    0    0  0.00000000000E+00  0.00000000000E+00 -0.80101098716E+03  0.84767354822E+03  0.27736590058E+03 0.  0.
         25    2    3    3    0    0  0.18099688187E+02 -0.33065643768E+02 -0.30755076948E+03  0.33505538257E+03  0.12748999204E+03 0.  0.
         25    2    3    3    0    0 -0.18099688187E+02  0.33065643768E+02 -0.49346021768E+03  0.51261816565E+03  0.13361684705E+03 0.  0.
          5    1    4    4  502    0 -0.20853362901E+01 -0.25077762835E+02 -0.31145372375E+03  0.31250400774E+03  0.47000000000E+01 0. -1.
         -5    1    4    4    0  502  0.20185024477E+02 -0.79878809334E+01  0.39029542621E+01  0.22551374834E+02  0.47000000000E+01 0. -1.
          5    1    5    5  503    0 -0.74553356010E+02  0.33001070771E+02 -0.31276351652E+03  0.32324971899E+03  0.47000000000E+01 0. -1.
         -5    1    5    5    0  503  0.56453667824E+02  0.64572997056E-01 -0.18069670116E+03  0.18936844666E+03  0.47000000000E+01 0. -1.
<mgrwt>
<rscale>  0 0.27736590E+03</rscale>
<asrwt>0</asrwt>
<pdfrwt beam="1">  1        1 0.35894278E-02 0.27736590E+03</pdfrwt>
<pdfrwt beam="2">  1       -1 0.12682189E+00 0.27736590E+03</pdfrwt>
<totfact> 0.15311277E+03</totfact>
</mgrwt>
</event>
<event>
 9    1  0.2054950E-002  0.2749701E+03  0.7818608E-02  0.1098468E+00
         -2   -1    0    0    0  501 -0.00000000000E+00  0.00000000000E+00  0.24638236203E+02  0.24638236203E+02  0.00000000000E+00 0.  1.
          2   -1    0    0  501    0  0.00000000000E+00 -0.00000000000E+00 -0.76718736101E+03  0.76718736101E+03  0.00000000000E+00 0.  1.
         36    2    1    2    0    0 -0.71054273576E-14  0.71054273576E-14 -0.74254912481E+03  0.79182559722E+03  0.27497013229E+03 0.  0.
         25    2    3    3    0    0 -0.28273363817E+02  0.38058140665E+02 -0.47462408725E+03  0.49315252831E+03  0.12523412795E+03 0.  0.
         25    2    3    3    0    0  0.28273363817E+02 -0.38058140665E+02 -0.26792503756E+03  0.29867306891E+03  0.12318267398E+03 0.  0.
          5    1    4    4  502    0  0.18517826198E+02  0.63107199780E+02 -0.36906195609E+03  0.37490564944E+03  0.47000000000E+01 0.  1.
         -5    1    4    4    0  502 -0.46791190015E+02 -0.25049059115E+02 -0.10556213116E+03  0.11824687887E+03  0.47000000000E+01 0.  1.
          5    1    5    5  503    0 -0.11630540658E+02 -0.71019313186E+02 -0.20349032751E+03  0.21589213907E+03  0.47000000000E+01 0.  1.
         -5    1    5    5    0  503  0.39903904475E+02  0.32961172522E+02 -0.64434710045E+02  0.82780929839E+02  0.47000000000E+01 0.  1.
<mgrwt>
<rscale>  0 0.27497013E+03</rscale>
<asrwt>0</asrwt>
<pdfrwt beam="1">  1        2 0.11802881E+00 0.27497013E+03</pdfrwt>
<pdfrwt beam="2">  1       -2 0.37904984E-02 0.27497013E+03</pdfrwt>
<totfact> 0.11114915E+04</totfact>
</mgrwt>
</event>
<event>
 9    1  0.2054950E-002  0.2754561E+03  0.7818608E-02  0.1098197E+00
         -1   -1    0    0    0  501 -0.00000000000E+00  0.00000000000E+00  0.67614579894E+03  0.67614579894E+03  0.00000000000E+00 0. -1.
          1   -1    0    0  501    0  0.00000000000E+00 -0.00000000000E+00 -0.28054629569E+02  0.28054629569E+02  0.00000000000E+00 0. -1.
         36    2    1    2    0    0 -0.71054273576E-14 -0.71054273576E-14  0.64809116937E+03  0.70420042851E+03  0.27545613026E+03 0.  0.
         25    2    3    3    0    0  0.48451236698E+02  0.36124451795E+02  0.37221826327E+03  0.39752853292E+03  0.12581733037E+03 0.  0.
         25    2    3    3    0    0 -0.48451236698E+02 -0.36124451795E+02  0.27587290611E+03  0.30667189559E+03  0.11953783027E+03 0.  0.
          5    1    4    4  502    0  0.63665087403E+01 -0.27601160467E+02  0.15366638236E+02  0.32566548226E+02  0.47000000000E+01 0.  1.
         -5    1    4    4    0  502  0.42084727957E+02  0.63725612263E+02  0.35685162503E+03  0.36496198469E+03  0.47000000000E+01 0.  1.
          5    1    5    5  503    0 -0.78303353051E+01 -0.25861356007E+02 -0.17093946266E+00  0.27427050622E+02  0.47000000000E+01 0.  1.
         -5    1    5    5    0  503 -0.40620901393E+02 -0.10263095788E+02  0.27604384557E+03  0.27924484497E+03  0.47000000000E+01 0.  1.
<mgrwt>
<rscale>  0 0.27545613E+03</rscale>
<asrwt>0</asrwt>
<pdfrwt beam="1">  1        1 0.43160974E-02 0.27545613E+03</pdfrwt>
<pdfrwt beam="2">  1       -1 0.10402242E+00 0.27545613E+03</pdfrwt>
<totfact> 0.18832415E+03</totfact>
</mgrwt>
</event>
<event>
 9    1  0.2054950E-002  0.2750350E+03  0.7818608E-02  0.1098432E+00
          2   -1    0    0  501    0  0.00000000000E+00  0.00000000000E+00  0.80063382996E+03  0.80063382996E+03  0.00000000000E+00 0.  1.
         -2   -1    0    0    0  501 -0.00000000000E+00 -0.00000000000E+00 -0.23620107064E+02  0.23620107064E+02  0.00000000000E+00 0.  1.
         36    2    1    2    0    0  0.00000000000E+00  0.10658141036E-13  0.77701372290E+03  0.82425393702E+03  0.27503495620E+03 0.  0.
         25    2    3    3    0    0  0.50756120756E+02  0.15003262241E+02  0.46793119979E+03  0.48764828509E+03  0.12664896579E+03 0.  0.
         25    2    3    3    0    0 -0.50756120756E+02 -0.15003262241E+02  0.30908252310E+03  0.33660565194E+03  0.12235226666E+03 0.  0.
          5    1    4    4  502    0  0.37863356542E+02  0.70402748766E+02  0.26339148562E+03  0.27529501539E+03  0.47000000000E+01 0.  1.
         -5    1    4    4    0  502  0.12892764214E+02 -0.55399486526E+02  0.20453971417E+03  0.21235326969E+03  0.47000000000E+01 0.  1.
          5    1    5    5  503    0  0.15532185805E+02 -0.30707487600E+02  0.21101155210E+02  0.40639234020E+02  0.47000000000E+01 0.  1.
         -5    1    5    5    0  503 -0.66288306560E+02  0.15704225359E+02  0.28798136789E+03  0.29596641792E+03  0.47000000000E+01 0.  1.
<mgrwt>
<rscale>  0 0.27503496E+03</rscale>
<asrwt>0</asrwt>
<pdfrwt beam="1">  1        2 0.12317441E+00 0.27503496E+03</pdfrwt>
<pdfrwt beam="2">  1       -2 0.36338632E-02 0.27503496E+03</pdfrwt>
<totfact> 0.11219956E+04</totfact>
</mgrwt>
</event>
<event>
 9    1  0.2054950E-002  0.2747491E+03  0.7818608E-02  0.1098592E+00
         -2   -1    0    0    0  501 -0.00000000000E+00  0.00000000000E+00  0.66391568233E+01  0.66391568233E+01  0.00000000000E+00 0.  1.
          2   -1    0    0  501    0  0.00000000000E+00 -0.00000000000E+00 -0.28424938511E+04  0.28424938511E+04  0.00000000000E+00 0.  1.
         36    2    1    2    0    0  0.00000000000E+00  0.35527136788E-14 -0.28358546943E+04  0.28491330079E+04  0.27474906694E+03 0.  0.
         25    2    3    3    0    0  0.27742604107E+02  0.23836001309E+02 -0.14212355644E+04  0.14271914864E+04  0.12500880874E+03 0.  0.
         25    2    3    3    0    0 -0.27742604107E+02 -0.23836001309E+02 -0.14146191299E+04  0.14219415215E+04  0.13940086446E+03 0.  0.
          5    1    4    4  502    0 -0.19275220722E+02  0.26535324287E+02 -0.12205814452E+04  0.12210310447E+04  0.47000000000E+01 0. -1.
         -5    1    4    4    0  502  0.47017824829E+02 -0.26993229781E+01 -0.20065411918E+03  0.20616044175E+03  0.47000000000E+01 0. -1.
          5    1    5    5  503    0 -0.68005824881E+02  0.82981212915E+01 -0.38872302433E+03  0.39474210654E+03  0.47000000000E+01 0. -1.
         -5    1    5    5    0  503  0.40263220774E+02 -0.32134122601E+02 -0.10258961055E+04  0.10271994150E+04  0.47000000000E+01 0. -1.
<mgrwt>
<rscale>  0 0.27474907E+03</rscale>
<asrwt>0</asrwt>
<pdfrwt beam="1">  1        2 0.43730758E+00 0.27474907E+03</pdfrwt>
<pdfrwt beam="2">  1       -2 0.10214068E-02 0.27474907E+03</pdfrwt>
<totfact> 0.53249257E+03</totfact>
</mgrwt>
</event>
<event>
 9    1  0.2054950E-002  0.2751091E+03  0.7818608E-02  0.1098391E+00
         -2   -1    0    0    0  501 -0.00000000000E+00  0.00000000000E+00  0.15991945683E+03  0.15991945683E+03  0.00000000000E+00 0.  1.
          2   -1    0    0  501    0  0.00000000000E+00 -0.00000000000E+00 -0.11831743219E+03  0.11831743219E+03  0.00000000000E+00 0.  1.
         36    2    1    2    0    0  0.00000000000E+00  0.00000000000E+00  0.41602024633E+02  0.27823688902E+03  0.27510913827E+03 0.  0.
         25    2    3    3    0    0 -0.63540861057E+02  0.23541635685E+02  0.22794118373E+02  0.14524795064E+03  0.12643474877E+03 0.  0.
         25    2    3    3    0    0  0.63540861057E+02 -0.23541635685E+02  0.18807906260E+02  0.13298893839E+03  0.11287457978E+03 0.  0.
          5    1    4    4  502    0 -0.15487621592E+02 -0.50482495875E+02 -0.32461937502E+01  0.53112866484E+02  0.47000000000E+01 0.  1.
         -5    1    4    4    0  502 -0.48053239465E+02  0.74024131560E+02  0.26040312123E+02  0.92135084152E+02  0.47000000000E+01 0.  1.
          5    1    5    5  503    0  0.66594751400E+02 -0.45858767129E+02 -0.23926088744E+02  0.84453745679E+02  0.47000000000E+01 0.  1.
         -5    1    5    5    0  503 -0.30538903423E+01  0.22317131444E+02  0.42733995004E+02  0.48535192707E+02  0.47000000000E+01 0.  1.
<mgrwt>
<rscale>  0 0.27510914E+03</rscale>
<asrwt>0</asrwt>
<pdfrwt beam="1">  1        2 0.18202682E-01 0.27510914E+03</pdfrwt>
<pdfrwt beam="2">  1       -2 0.24602993E-01 0.27510914E+03</pdfrwt>
<totfact> 0.45035797E+03</totfact>
</mgrwt>
</event>
<event>
 9    1  0.2054950E-002  0.2743445E+03  0.7818608E-02  0.1098819E+00
         -2   -1    0    0    0  501 -0.00000000000E+00  0.00000000000E+00  0.12744605418E+03  0.12744605418E+03  0.00000000000E+00 0.  1.
          2   -1    0    0  501    0  0.00000000000E+00 -0.00000000000E+00 -0.14764071645E+03  0.14764071645E+03  0.00000000000E+00 0.  1.
         36    2    1    2    0    0  0.00000000000E+00  0.00000000000E+00 -0.20194662277E+02  0.27508677063E+03  0.27434450421E+03 0.  0.
         25    2    3    3    0    0  0.49156692797E+01  0.61908895023E+02 -0.27016461931E+01  0.13842412102E+03  0.12368129730E+03 0.  0.
         25    2    3    3    0    0 -0.49156692797E+01 -0.61908895023E+02 -0.17493016084E+02  0.13666264960E+03  0.12047322980E+03 0.  0.
          5    1    4    4  502    0  0.53965077550E+02  0.12097334718E+02 -0.30162240137E+02  0.63169817416E+02  0.47000000000E+01 0.  1.
         -5    1    4    4    0  502 -0.49049408270E+02  0.49811560304E+02  0.27460593944E+02  0.75254303607E+02  0.47000000000E+01 0.  1.
          5    1    5    5  503    0 -0.43736849620E+02  0.88769283659E+01  0.17995743993E+02  0.48349236537E+02  0.47000000000E+01 0. -1.
         -5    1    5    5    0  503  0.38821180340E+02 -0.70785823389E+02 -0.35488760077E+02  0.88313413067E+02  0.47000000000E+01 0. -1.
<mgrwt>
<rscale>  0 0.27434450E+03</rscale>
<asrwt>0</asrwt>
<pdfrwt beam="1">  1        2 0.22713956E-01 0.27434450E+03</pdfrwt>
<pdfrwt beam="2">  1       -2 0.19607085E-01 0.27434450E+03</pdfrwt>
<totfact> 0.51806326E+03</totfact>
</mgrwt>
</event>
<event>
 9    1  0.2054950E-002  0.2751035E+03  0.7818608E-02  0.1098394E+00
         -1   -1    0    0    0  501 -0.00000000000E+00  0.00000000000E+00  0.48464950837E+03  0.48464950837E+03  0.00000000000E+00 0.  1.
          1   -1    0    0  501    0  0.00000000000E+00 -0.00000000000E+00 -0.39039528476E+02  0.39039528476E+02  0.00000000000E+00 0.  1.
         36    2    1    2    0    0  0.17763568394E-14  0.00000000000E+00  0.44560997990E+03  0.52368903685E+03  0.27510353166E+03 0.  0.
         25    2    3    3    0    0 -0.14462124595E+02  0.43764733391E+02  0.24300289517E+03  0.27990708011E+03  0.13104602818E+03 0.  0.
         25    2    3    3    0    0  0.14462124595E+02 -0.43764733391E+02  0.20260708473E+03  0.24378195674E+03  0.12749708510E+03 0.  0.
          5    1    4    4  502    0 -0.13059213116E+02  0.52666903255E+02  0.22111970202E+02  0.58782437614E+02  0.47000000000E+01 0.  1.
         -5    1    4    4    0  502 -0.14029114798E+01 -0.89021698633E+01  0.22089092497E+03  0.22112464250E+03  0.47000000000E+01 0.  1.
          5    1    5    5  503    0 -0.30901267615E+02 -0.27148665467E+02  0.18884487065E+03  0.19332980512E+03  0.47000000000E+01 0.  1.
         -5    1    5    5    0  503  0.45363392211E+02 -0.16616067924E+02  0.13762214078E+02  0.50452151614E+02  0.47000000000E+01 0.  1.
<mgrwt>
<rscale>  0 0.27510353E+03</rscale>
<asrwt>0</asrwt>
<pdfrwt beam="1">  1        1 0.60060817E-02 0.27510353E+03</pdfrwt>
<pdfrwt beam="2">  1       -1 0.74561458E-01 0.27510353E+03</pdfrwt>
<totfact> 0.24290172E+03</totfact>
</mgrwt>
</event>
<event>
 9    1  0.2054950E-002  0.2744748E+03  0.7818608E-02  0.1098746E+00
         -2   -1    0    0    0  501 -0.00000000000E+00  0.00000000000E+00  0.74416976187E+01  0.74416976187E+01  0.00000000000E+00 0.  1.
          2   -1    0    0  501    0  0.00000000000E+00 -0.00000000000E+00 -0.25308872082E+04  0.25308872082E+04  0.00000000000E+00 0.  1.
         36    2    1    2    0    0 -0.71054273576E-14  0.00000000000E+00 -0.25234455106E+04  0.25383289059E+04  0.27447475156E+03 0.  0.
         25    2    3    3    0    0 -0.37163501466E+02 -0.20992541264E+02 -0.87888244602E+03  0.88857940247E+03  0.12376262741E+03 0.  0.
         25    2    3    3    0    0  0.37163501466E+02  0.20992541264E+02 -0.16445630646E+04  0.16497495034E+04  0.12354731015E+03 0.  0.
          5    1    4    4  502    0 -0.56463517312E+02  0.23827937678E+02 -0.71191186209E+03  0.71456034650E+03  0.47000000000E+01 0.  1.
         -5    1    4    4    0  502  0.19300015846E+02 -0.44820478942E+02 -0.16697058393E+03  0.17401905597E+03  0.47000000000E+01 0.  1.
          5    1    5    5  503    0 -0.21226781417E+02 -0.39058518093E+02 -0.72091095839E+03  0.72229553786E+03  0.47000000000E+01 0.  1.
         -5    1    5    5    0  503  0.58390282883E+02  0.60051059357E+02 -0.92365210621E+03  0.92745396553E+03  0.47000000000E+01 0.  1.
<mgrwt>
<rscale>  0 0.27447475E+03</rscale>
<asrwt>0</asrwt>
<pdfrwt beam="1">  1        2 0.38936756E+00 0.27447475E+03</pdfrwt>
<pdfrwt beam="2">  1       -2 0.11448757E-02 0.27447475E+03</pdfrwt>
<totfact> 0.67532832E+03</totfact>
</mgrwt>
</event>
<event>
 9    1  0.2054950E-002  0.2752707E+03  0.7818608E-02  0.1098300E+00
         -2   -1    0    0    0  501 -0.00000000000E+00  0.00000000000E+00  0.56510772240E+02  0.56510772240E+02  0.00000000000E+00 0.  1.
          2   -1    0    0  501    0  0.00000000000E+00 -0.00000000000E+00 -0.33521907054E+03  0.33521907054E+03  0.00000000000E+00 0.  1.
         36    2    1    2    0    0  0.71054273576E-14 -0.71054273576E-14 -0.27870829830E+03  0.39172984278E+03  0.27527069256E+03 0.  0.
         25    2    3    3    0    0 -0.54761214864E+02  0.16524086014E+02 -0.11578350927E+03  0.17802488212E+03  0.12253653154E+03 0.  0.
         25    2    3    3    0    0  0.54761214864E+02 -0.16524086014E+02 -0.16292478903E+03  0.21370496067E+03  0.12591063203E+03 0.  0.
          5    1    4    4  502    0 -0.32540115354E+02  0.65722533666E+02 -0.36658769153E+02  0.82123479557E+02  0.47000000000E+01 0. -1.
         -5    1    4    4    0  502 -0.22221099510E+02 -0.49198447651E+02 -0.79124740113E+02  0.95901402559E+02  0.47000000000E+01 0. -1.
          5    1    5    5  503    0  0.15987150755E+02  0.34805678785E+02 -0.14004937044E+03  0.14526851148E+03  0.47000000000E+01 0.  1.
         -5    1    5    5    0  503  0.38774064109E+02 -0.51329764799E+02 -0.22875418590E+02  0.68436449189E+02  0.47000000000E+01 0.  1.
<mgrwt>
<rscale>  0 0.27527069E+03</rscale>
<asrwt>0</asrwt>
<pdfrwt beam="1">  1        2 0.51572164E-01 0.27527069E+03</pdfrwt>
<pdfrwt beam="2">  1       -2 0.86939650E-02 0.27527069E+03</pdfrwt>
<totfact> 0.79756180E+03</totfact>
</mgrwt>
</event>
<event>
 9    1  0.2054950E-002  0.2757571E+03  0.7818608E-02  0.1098029E+00
         -3   -1    0    0    0  501 -0.00000000000E+00  0.00000000000E+00  0.17991062197E+03  0.17991062197E+03  0.00000000000E+00 0.  1.
          3   -1    0    0  501    0  0.00000000000E+00 -0.00000000000E+00 -0.10566631713E+03  0.10566631713E+03  0.00000000000E+00 0.  1.
         36    2    1    2    0    0  0.71054273576E-14 -0.14210854715E-13  0.74244304837E+02  0.28557693910E+03  0.27575708757E+03 0.  0.
         25    2    3    3    0    0 -0.30614641984E+02  0.41116748864E+02  0.17550655735E+02  0.13671776543E+03  0.12552242241E+03 0.  0.
         25    2    3    3    0    0  0.30614641984E+02 -0.41116748864E+02  0.56693649102E+02  0.14885917367E+03  0.12773817126E+03 0.  0.
          5    1    4    4  502    0 -0.35446526460E+02 -0.30543696211E+02 -0.24842101589E+02  0.53184524325E+02  0.47000000000E+01 0.  1.
         -5    1    4    4    0  502  0.48318844764E+01  0.71660445075E+02  0.42392757324E+02  0.83533241105E+02  0.47000000000E+01 0.  1.
          5    1    5    5  503    0 -0.37484871293E+02 -0.67316329216E+01  0.61264208811E+02  0.72289859170E+02  0.47000000000E+01 0.  1.
         -5    1    5    5    0  503  0.68099513276E+02 -0.34385115942E+02 -0.45705597094E+01  0.76569314499E+02  0.47000000000E+01 0.  1.
<mgrwt>
<rscale>  0 0.27575709E+03</rscale>
<asrwt>0</asrwt>
<pdfrwt beam="1">  1        3 0.16256356E-01 0.27575709E+03</pdfrwt>
<pdfrwt beam="2">  1       -3 0.27678557E-01 0.27575709E+03</pdfrwt>
<totfact> 0.10241557E+03</totfact>
</mgrwt>
</event>
<event>
 9    1  0.2054950E-002  0.2667752E+03  0.7818608E-02  0.1103140E+00
          2   -1    0    0  501    0  0.00000000000E+00  0.00000000000E+00  0.11930609836E+03  0.11930609836E+03  0.00000000000E+00 0.  1.
         -2   -1    0    0    0  501 -0.00000000000E+00 -0.00000000000E+00 -0.14913115823E+03  0.14913115823E+03  0.00000000000E+00 0.  1.
         36    2    1    2    0    0  0.00000000000E+00  0.17763568394E-14 -0.29825059865E+02  0.26843725659E+03  0.26677523597E+03 0.  0.
         25    2    3    3    0    0 -0.42455885299E+02 -0.84674229397E+01 -0.29640801631E+02  0.13478815632E+03  0.12415744245E+03 0.  0.
         25    2    3    3    0    0  0.42455885299E+02  0.84674229397E+01 -0.18425823386E+00  0.13364910027E+03  0.12644306467E+03 0.  0.
          5    1    4    4  502    0 -0.46250875781E+02  0.11828451634E+02  0.39711641056E+02  0.62274876266E+02  0.47000000000E+01 0.  1.
         -5    1    4    4    0  502  0.37949904824E+01 -0.20295874574E+02 -0.69352442687E+02  0.72513280053E+02  0.47000000000E+01 0.  1.
          5    1    5    5  503    0  0.14944934987E+02 -0.54249740854E+02  0.23316288333E+02  0.61091118554E+02  0.47000000000E+01 0. -1.
         -5    1    5    5    0  503  0.27510950312E+02  0.62717163794E+02 -0.23500546566E+02  0.72557981714E+02  0.47000000000E+01 0. -1.
<mgrwt>
<rscale>  0 0.26677524E+03</rscale>
<asrwt>0</asrwt>
<pdfrwt beam="1">  1        2 0.18354784E-01 0.26677524E+03</pdfrwt>
<pdfrwt beam="2">  1       -2 0.22943255E-01 0.26677524E+03</pdfrwt>
<totfact> 0.50352266E+03</totfact>
</mgrwt>
</event>
<event>
 9    1  0.2054950E-002  0.2742574E+03  0.7818608E-02  0.1098867E+00
          2   -1    0    0  501    0  0.00000000000E+00  0.00000000000E+00  0.11870698764E+04  0.11870698764E+04  0.00000000000E+00 0.  1.
         -2   -1    0    0    0  501 -0.00000000000E+00 -0.00000000000E+00 -0.15840922536E+02  0.15840922536E+02  0.00000000000E+00 0.  1.
         36    2    1    2    0    0  0.71054273576E-14  0.00000000000E+00  0.11712289538E+04  0.12029107989E+04  0.27425741162E+03 0.  0.
         25    2    3    3    0    0  0.81416505005E+01  0.37854230059E+02  0.78688209654E+03  0.79799921715E+03  0.12696490661E+03 0.  0.
         25    2    3    3    0    0 -0.81416505005E+01 -0.37854230059E+02  0.38434685728E+03  0.40491158174E+03  0.12137402161E+03 0.  0.
          5    1    4    4  502    0  0.53330324367E+02 -0.69295039459E+01  0.55115481894E+03  0.55379225885E+03  0.47000000000E+01 0.  1.
         -5    1    4    4    0  502 -0.45188673866E+02  0.44783734005E+02  0.23572727760E+03  0.24420695830E+03  0.47000000000E+01 0.  1.
          5    1    5    5  503    0  0.50774250237E+02 -0.74065437621E+01  0.24702700916E+03  0.25234364393E+03  0.47000000000E+01 0. -1.
         -5    1    5    5    0  503 -0.58915900738E+02 -0.30447686297E+02  0.13731984812E+03  0.15256793781E+03  0.47000000000E+01 0. -1.
<mgrwt>
<rscale>  0 0.27425741E+03</rscale>
<asrwt>0</asrwt>
<pdfrwt beam="1">  1        2 0.18262607E+00 0.27425741E+03</pdfrwt>
<pdfrwt beam="2">  1       -2 0.24370659E-02 0.27425741E+03</pdfrwt>
<totfact> 0.11713471E+04</totfact>
</mgrwt>
</event>
<event>
 9    1  0.2054950E-002  0.2746588E+03  0.7818608E-02  0.1098642E+00
         -2   -1    0    0    0  501 -0.00000000000E+00  0.00000000000E+00  0.37512586103E+03  0.37512586103E+03  0.00000000000E+00 0. -1.
          2   -1    0    0  501    0  0.00000000000E+00 -0.00000000000E+00 -0.50274775467E+02  0.50274775467E+02  0.00000000000E+00 0. -1.
         36    2    1    2    0    0  0.00000000000E+00  0.00000000000E+00  0.32485108557E+03  0.42540063650E+03  0.27465883154E+03 0.  0.
         25    2    3    3    0    0  0.25032382404E+02  0.39415760366E+02  0.12408289037E+03  0.18278863750E+03  0.12583679900E+03 0.  0.
         25    2    3    3    0    0 -0.25032382404E+02 -0.39415760366E+02  0.20076819520E+03  0.24261199900E+03  0.12795503711E+03 0.  0.
          5    1    4    4  502    0  0.75069353107E+01 -0.45900909783E+02  0.38070944436E+02  0.60288758545E+02  0.47000000000E+01 0. -1.
         -5    1    4    4    0  502  0.17525447093E+02  0.85316670149E+02  0.86011945931E+02  0.12249987895E+03  0.47000000000E+01 0. -1.
          5    1    5    5  503    0 -0.27009024068E+02 -0.59399145129E+02  0.21004565354E+03  0.21999775543E+03  0.47000000000E+01 0. -1.
         -5    1    5    5    0  503  0.19766416639E+01  0.19983384763E+02 -0.92774583431E+01  0.22614243568E+02  0.47000000000E+01 0. -1.
<mgrwt>
<rscale>  0 0.27465883E+03</rscale>
<asrwt>0</asrwt>
<pdfrwt beam="1">  1        2 0.77345811E-02 0.27465883E+03</pdfrwt>
<pdfrwt beam="2">  1       -2 0.57711669E-01 0.27465883E+03</pdfrwt>
<totfact> 0.25380101E+03</totfact>
</mgrwt>
</event>
<event>
 8    1  0.2054950E-002  0.3519643E+03  0.7818608E-02  0.1061812E+00
         -2   -1    0    0    0  501 -0.00000000000E+00  0.00000000000E+00  0.85873013638E+03  0.85873013638E+03  0.00000000000E+00 0.  1.
          2   -1    0    0  501    0  0.00000000000E+00 -0.00000000000E+00 -0.36064547220E+02  0.36064547220E+02  0.00000000000E+00 0.  1.
         25    2    1    2    0    0 -0.36736734897E+02 -0.11029449455E+03  0.50252611395E+03  0.53203455357E+03  0.13043698774E+03 0.  0.
         25    2    1    2    0    0  0.36736734897E+02  0.11029449455E+03  0.32013947521E+03  0.36276013003E+03  0.12486458720E+03 0.  0.
          5    1    3    3  502    0 -0.14070797538E+02 -0.13084872024E+03  0.46552083754E+03  0.48378829576E+03  0.47000000000E+01 0. -1.
         -5    1    3    3    0  502 -0.22665937359E+02  0.20554225692E+02  0.37005276413E+02  0.48246257809E+02  0.47000000000E+01 0. -1.
          5    1    4    4  503    0  0.31679960485E+02 -0.21472462669E+02  0.77622615321E+02  0.86672065619E+02  0.47000000000E+01 0. -1.
         -5    1    4    4    0  503  0.50567744122E+01  0.13176695722E+03  0.24251685989E+03  0.27608806441E+03  0.47000000000E+01 0. -1.
<mgrwt>
<rscale>  0 0.35196428E+03</rscale>
<asrwt>0</asrwt>
<pdfrwt beam="1">  1        2 0.55483925E-02 0.35196428E+03</pdfrwt>
<pdfrwt beam="2">  1       -2 0.13211231E+00 0.35196428E+03</pdfrwt>
<totfact> 0.60275209E+02</totfact>
</mgrwt>
</event>
<event>
 9    1  0.2054950E-002  0.2752054E+03  0.7818608E-02  0.1098337E+00
         -2   -1    0    0    0  501 -0.00000000000E+00  0.00000000000E+00  0.25212883307E+03  0.25212883307E+03  0.00000000000E+00 0.  1.
          2   -1    0    0  501    0  0.00000000000E+00 -0.00000000000E+00 -0.75098532322E+02  0.75098532322E+02  0.00000000000E+00 0.  1.
         36    2    1    2    0    0  0.00000000000E+00  0.00000000000E+00  0.17703030075E+03  0.32722736539E+03  0.27520541651E+03 0.  0.
         25    2    3    3    0    0 -0.38593542334E+02  0.29976958237E+02  0.95711353707E+02  0.16924047584E+03  0.13074247932E+03 0.  0.
         25    2    3    3    0    0  0.38593542334E+02 -0.29976958237E+02  0.81318947042E+02  0.15798688955E+03  0.12632896179E+03 0.  0.
          5    1    4    4  502    0 -0.33622923848E+02  0.45733642891E+02 -0.13623773993E+02  0.58564189724E+02  0.47000000000E+01 0. -1.
         -5    1    4    4    0  502 -0.49706184864E+01 -0.15756684654E+02  0.10933512770E+03  0.11067628612E+03  0.47000000000E+01 0. -1.
          5    1    5    5  503    0  0.34939584500E+02 -0.77347744725E+02  0.36519161666E+02  0.92515876194E+02  0.47000000000E+01 0.  1.
         -5    1    5    5    0  503  0.36539578347E+01  0.47370786488E+02  0.44799785377E+02  0.65471013359E+02  0.47000000000E+01 0.  1.
<mgrwt>
<rscale>  0 0.27520542E+03</rscale>
<asrwt>0</asrwt>
<pdfrwt beam="1">  1        2 0.11553620E-01 0.27520542E+03</pdfrwt>
<pdfrwt beam="2">  1       -2 0.38789051E-01 0.27520542E+03</pdfrwt>
<totfact> 0.33684788E+03</totfact>
</mgrwt>
</event>
<event>
 9    1  0.2054950E-002  0.2752921E+03  0.7818608E-02  0.1098288E+00
          2   -1    0    0  501    0  0.00000000000E+00  0.00000000000E+00  0.79983454791E+02  0.79983454791E+02  0.00000000000E+00 0.  1.
         -2   -1    0    0    0  501 -0.00000000000E+00 -0.00000000000E+00 -0.23687938649E+03  0.23687938649E+03  0.00000000000E+00 0.  1.
         36    2    1    2    0    0  0.35527136788E-14  0.00000000000E+00 -0.15689593170E+03  0.31686284128E+03  0.27529207544E+03 0.  0.
         25    2    3    3    0    0  0.16551063788E+02 -0.42142305446E+02 -0.32502315653E+02  0.13523288536E+03  0.12321372140E+03 0.  0.
         25    2    3    3    0    0 -0.16551063788E+02  0.42142305446E+02 -0.12439361605E+03  0.18162995592E+03  0.12436139897E+03 0.  0.
          5    1    4    4  502    0  0.65798670861E+02 -0.18318943929E+02 -0.40804046822E+02  0.79700119390E+02  0.47000000000E+01 0. -1.
         -5    1    4    4    0  502 -0.49247607073E+02 -0.23823361517E+02  0.83017311697E+01  0.55532765974E+02  0.47000000000E+01 0. -1.
          5    1    5    5  503    0 -0.58730294928E+01 -0.30360977318E+02  0.61225057516E+01  0.31872503758E+02  0.47000000000E+01 0. -1.
         -5    1    5    5    0  503 -0.10678034295E+02  0.72503282764E+02 -0.13051612180E+03  0.14975745216E+03  0.47000000000E+01 0. -1.
<mgrwt>
<rscale>  0 0.27529208E+03</rscale>
<asrwt>0</asrwt>
<pdfrwt beam="1">  1        2 0.12305147E-01 0.27529208E+03</pdfrwt>
<pdfrwt beam="2">  1       -2 0.36442982E-01 0.27529208E+03</pdfrwt>
<totfact> 0.35096123E+03</totfact>
</mgrwt>
</event>
<event>
 9    1  0.2054950E-002  0.2756202E+03  0.7818608E-02  0.1098105E+00
          1   -1    0    0  501    0  0.00000000000E+00  0.00000000000E+00  0.24928761538E+04  0.24928761538E+04  0.00000000000E+00 0.  1.
         -1   -1    0    0    0  501 -0.00000000000E+00 -0.00000000000E+00 -0.76183580197E+01  0.76183580197E+01  0.00000000000E+00 0.  1.
         36    2    1    2    0    0  0.00000000000E+00  0.71054273576E-14  0.24852577958E+04  0.25004945118E+04  0.27562019547E+03 0.  0.
         25    2    3    3    0    0  0.43857555052E+02  0.26745463562E+02  0.11781468464E+04  0.11863736562E+04  0.12966748032E+03 0.  0.
         25    2    3    3    0    0 -0.43857555052E+02 -0.26745463562E+02  0.13071109493E+04  0.13141208556E+04  0.12544235435E+03 0.  0.
          5    1    4    4  502    0  0.37403236562E+02  0.72050524982E+02  0.95950620454E+03  0.96294575486E+03  0.47000000000E+01 0.  1.
         -5    1    4    4    0  502  0.64543184900E+01 -0.45305061420E+02  0.21864064190E+03  0.22342790136E+03  0.47000000000E+01 0.  1.
          5    1    5    5  503    0  0.32879163585E+02 -0.20704078543E+01  0.79389427425E+03  0.79459142625E+03  0.47000000000E+01 0. -1.
         -5    1    5    5    0  503 -0.76736718637E+02 -0.24675055707E+02  0.51321667509E+03  0.51952942934E+03  0.47000000000E+01 0. -1.
<mgrwt>
<rscale>  0 0.27562020E+03</rscale>
<asrwt>0</asrwt>
<pdfrwt beam="1">  1        1 0.38351876E+00 0.27562020E+03</pdfrwt>
<pdfrwt beam="2">  1       -1 0.11720571E-02 0.27562020E+03</pdfrwt>
<totfact> 0.23953874E+03</totfact>
</mgrwt>
</event>
<event>
 9    1  0.2054950E-002  0.2750758E+03  0.7818608E-02  0.1098409E+00
         -1   -1    0    0    0  501 -0.00000000000E+00  0.00000000000E+00  0.83084780137E+01  0.83084780137E+01  0.00000000000E+00 0.  1.
          1   -1    0    0  501    0  0.00000000000E+00 -0.00000000000E+00 -0.22767912437E+04  0.22767912437E+04  0.00000000000E+00 0.  1.
         36    2    1    2    0    0  0.00000000000E+00  0.00000000000E+00 -0.22684827656E+04  0.22850997217E+04  0.27507577131E+03 0.  0.
         25    2    3    3    0    0  0.33602123741E+02 -0.38852570463E+02 -0.85973785047E+03  0.87002603957E+03  0.12311585217E+03 0.  0.
         25    2    3    3    0    0 -0.33602123741E+02  0.38852570463E+02 -0.14087449152E+04  0.14150736821E+04  0.12342068216E+03 0.  0.
          5    1    4    4  502    0  0.80754833823E+01  0.37837929231E+02 -0.12745238653E+03  0.13327836716E+03  0.47000000000E+01 0.  1.
         -5    1    4    4    0  502  0.25526640359E+02 -0.76690499694E+02 -0.73228546394E+03  0.73674767242E+03  0.47000000000E+01 0.  1.
          5    1    5    5  503    0  0.34872354530E+02  0.48197234003E+02 -0.46937278018E+03  0.47315108713E+03  0.47000000000E+01 0.  1.
         -5    1    5    5    0  503 -0.68474478271E+02 -0.93446635400E+01 -0.93937213499E+03  0.94192259497E+03  0.47000000000E+01 0.  1.
<mgrwt>
<rscale>  0 0.27507577E+03</rscale>
<asrwt>0</asrwt>
<pdfrwt beam="1">  1        1 0.35027550E+00 0.27507577E+03</pdfrwt>
<pdfrwt beam="2">  1       -1 0.12782277E-02 0.27507577E+03</pdfrwt>
<totfact> 0.29330278E+03</totfact>
</mgrwt>
</event>
<event>
 9    1  0.2054950E-002  0.2757615E+03  0.7818608E-02  0.1098027E+00
          4   -1    0    0  501    0  0.00000000000E+00  0.00000000000E+00  0.12252537536E+03  0.12252537536E+03  0.00000000000E+00 0.  1.
         -4   -1    0    0    0  501 -0.00000000000E+00 -0.00000000000E+00 -0.15516057274E+03  0.15516057274E+03  0.00000000000E+00 0.  1.
         36    2    1    2    0    0  0.35527136788E-14 -0.71054273576E-14 -0.32635197386E+02  0.27768594810E+03  0.27576154493E+03 0.  0.
         25    2    3    3    0    0  0.16384874821E+02 -0.52566695162E+02  0.82972341531E+01  0.13408891789E+03  0.12198062241E+03 0.  0.
         25    2    3    3    0    0 -0.16384874821E+02  0.52566695162E+02 -0.40932431539E+02  0.14359703021E+03  0.12614642908E+03 0.  0.
          5    1    4    4  502    0  0.35681282798E+02 -0.32369222116E+02  0.58814549363E+02  0.76171921988E+02  0.47000000000E+01 0. -1.
         -5    1    4    4    0  502 -0.19296407977E+02 -0.20197473045E+02 -0.50517315210E+02  0.57916995901E+02  0.47000000000E+01 0. -1.
          5    1    5    5  503    0  0.22565781653E+01  0.92709292549E+02 -0.31888804822E+02  0.98178872182E+02  0.47000000000E+01 0.  1.
         -5    1    5    5    0  503 -0.18641452986E+02 -0.40142597387E+02 -0.90436267179E+01  0.45418158027E+02  0.47000000000E+01 0.  1.
<mgrwt>
<rscale>  0 0.27576154E+03</rscale>
<asrwt>0</asrwt>
<pdfrwt beam="1">  1        4 0.18850058E-01 0.27576154E+03</pdfrwt>
<pdfrwt beam="2">  1       -4 0.23870857E-01 0.27576154E+03</pdfrwt>
<totfact> 0.76887754E+02</totfact>
</mgrwt>
</event>
<event>
 9    1  0.2054950E-002  0.2758041E+03  0.7818608E-02  0.1098003E+00
          1   -1    0    0  501    0  0.00000000000E+00  0.00000000000E+00  0.33074744488E+03  0.33074744488E+03  0.00000000000E+00 0.  1.
         -1   -1    0    0    0  501 -0.00000000000E+00 -0.00000000000E+00 -0.57496968100E+02  0.57496968100E+02  0.00000000000E+00 0.  1.
         36    2    1    2    0    0  0.00000000000E+00  0.35527136788E-14  0.27325047678E+03  0.38824441298E+03  0.27580409922E+03 0.  0.
         25    2    3    3    0    0 -0.27364472679E+02  0.22643464629E+02  0.20594842128E+03  0.24470030107E+03  0.12728685816E+03 0.  0.
         25    2    3    3    0    0  0.27364472679E+02 -0.22643464629E+02  0.67302055494E+02  0.14354411190E+03  0.12171197366E+03 0.  0.
          5    1    4    4  502    0  0.43527395348E+02  0.38442208543E+02  0.76067494799E+02  0.95816445918E+02  0.47000000000E+01 0.  1.
         -5    1    4    4    0  502 -0.70891868026E+02 -0.15798743914E+02  0.12988092648E+03  0.14888385515E+03  0.47000000000E+01 0.  1.
          5    1    5    5  503    0  0.43404959772E+02  0.31967117851E+02  0.67399080133E+02  0.86432708850E+02  0.47000000000E+01 0.  1.
         -5    1    5    5    0  503 -0.16040487093E+02 -0.54610582480E+02 -0.97024638157E-01  0.57111403054E+02  0.47000000000E+01 0.  1.
<mgrwt>
<rscale>  0 0.27580410E+03</rscale>
<asrwt>0</asrwt>
<pdfrwt beam="1">  1        1 0.50884221E-01 0.27580410E+03</pdfrwt>
<pdfrwt beam="2">  1       -1 0.88456876E-02 0.27580410E+03</pdfrwt>
<totfact> 0.56698569E+03</totfact>
</mgrwt>
</event>
<event>
 9    1  0.2054950E-002  0.2758349E+03  0.7818608E-02  0.1097986E+00
         -2   -1    0    0    0  501 -0.00000000000E+00  0.00000000000E+00  0.63069598223E+01  0.63069598223E+01  0.00000000000E+00 0.  1.
          2   -1    0    0  501    0  0.00000000000E+00 -0.00000000000E+00 -0.30159107585E+04  0.30159107585E+04  0.00000000000E+00 0.  1.
         36    2    1    2    0    0  0.00000000000E+00  0.00000000000E+00 -0.30096037987E+04  0.30222177183E+04  0.27583493601E+03 0.  0.
         25    2    3    3    0    0 -0.76722620544E+01  0.21760921179E+02 -0.21691857841E+04  0.21726063869E+04  0.11966263033E+03 0.  0.
         25    2    3    3    0    0  0.76722620544E+01 -0.21760921179E+02 -0.84041801456E+03  0.84961133142E+03  0.12249315892E+03 0.  0.
          5    1    4    4  502    0 -0.86889771911E+01  0.25966463017E+01 -0.21134040087E+04  0.21134286917E+04  0.47000000000E+01 0.  1.
         -5    1    4    4    0  502  0.10167151367E+01  0.19164274878E+02 -0.55781775422E+02  0.59177695211E+02  0.47000000000E+01 0.  1.
          5    1    5    5  503    0  0.15716483708E+02  0.33814722117E+02 -0.64858309971E+03  0.64967112489E+03  0.47000000000E+01 0.  1.
         -5    1    5    5    0  503 -0.80442216537E+01 -0.55575643297E+02 -0.19183491486E+03  0.19994020653E+03  0.47000000000E+01 0.  1.
<mgrwt>
<rscale>  0 0.27583494E+03</rscale>
<asrwt>0</asrwt>
<pdfrwt beam="1">  1        2 0.46398688E+00 0.27583494E+03</pdfrwt>
<pdfrwt beam="2">  1       -2 0.97030024E-03 0.27583494E+03</pdfrwt>
<totfact> 0.45412067E+03</totfact>
</mgrwt>
</event>
<event>
 9    1  0.2054950E-002  0.2749626E+03  0.7818608E-02  0.1098473E+00
         -2   -1    0    0    0  501 -0.00000000000E+00  0.00000000000E+00  0.41582600133E+02  0.41582600133E+02  0.00000000000E+00 0.  1.
          2   -1    0    0  501    0  0.00000000000E+00 -0.00000000000E+00 -0.45454352115E+03  0.45454352115E+03  0.00000000000E+00 0.  1.
         36    2    1    2    0    0 -0.10658141036E-13  0.00000000000E+00 -0.41296092102E+03  0.49612612128E+03  0.27496255369E+03 0.  0.
         25    2    3    3    0    0  0.25651223205E+02 -0.14122392709E+01 -0.12900975478E+03  0.18107485840E+03  0.12443716423E+03 0.  0.
         25    2    3    3    0    0 -0.25651223205E+02  0.14122392709E+01 -0.28395116623E+03  0.31505126289E+03  0.13404869925E+03 0.  0.
          5    1    4    4  502    0  0.47287362472E+02  0.16584965115E+02 -0.14386942508E+01  0.50351917129E+02  0.47000000000E+01 0. -1.
         -5    1    4    4    0  502 -0.21636139267E+02 -0.17997204386E+02 -0.12757106053E+03  0.13072294127E+03  0.47000000000E+01 0. -1.
          5    1    5    5  503    0 -0.76061004519E+02 -0.68111350558E+01 -0.22088490399E+03  0.23376034475E+03  0.47000000000E+01 0. -1.
         -5    1    5    5    0  503  0.50409781314E+02  0.82233743267E+01 -0.63066262244E+02  0.81290918133E+02  0.47000000000E+01 0. -1.
<mgrwt>
<rscale>  0 0.27496255E+03</rscale>
<asrwt>0</asrwt>
<pdfrwt beam="1">  1        2 0.69929769E-01 0.27496255E+03</pdfrwt>
<pdfrwt beam="2">  1       -2 0.63973234E-02 0.27496255E+03</pdfrwt>
<totfact> 0.92298547E+03</totfact>
</mgrwt>
</event>
<event>
 9    1  0.2054950E-002  0.2753180E+03  0.7818608E-02  0.1098274E+00
          1   -1    0    0  501    0  0.00000000000E+00  0.00000000000E+00  0.44829122894E+02  0.44829122894E+02  0.00000000000E+00 0.  1.
         -1   -1    0    0    0  501 -0.00000000000E+00 -0.00000000000E+00 -0.42271618134E+03  0.42271618134E+03  0.00000000000E+00 0.  1.
         36    2    1    2    0    0  0.00000000000E+00  0.00000000000E+00 -0.37788705845E+03  0.46754530423E+03  0.27531796631E+03 0.  0.
         25    2    3    3    0    0  0.20657429564E+02  0.80570585951E+01 -0.25074947943E+03  0.28782213509E+03  0.13955154755E+03 0.  0.
         25    2    3    3    0    0 -0.20657429564E+02 -0.80570585951E+01 -0.12713757901E+03  0.17972316914E+03  0.12507920666E+03 0.  0.
          5    1    4    4  502    0  0.39343375792E+02 -0.59110231833E+02 -0.11772218907E+03  0.13755916736E+03  0.47000000000E+01 0.  1.
         -5    1    4    4    0  502 -0.18685946228E+02  0.67167290428E+02 -0.13302729036E+03  0.15026296773E+03  0.47000000000E+01 0.  1.
          5    1    5    5  503    0  0.15776584890E+02 -0.55832560524E+02 -0.95022567235E+02  0.11143407795E+03  0.47000000000E+01 0. -1.
         -5    1    5    5    0  503 -0.36434014454E+02  0.47775501929E+02 -0.32115011779E+02  0.68289091189E+02  0.47000000000E+01 0. -1.
<mgrwt>
<rscale>  0 0.27531797E+03</rscale>
<asrwt>0</asrwt>
<pdfrwt beam="1">  1        1 0.68967878E-02 0.27531797E+03</pdfrwt>
<pdfrwt beam="2">  1       -1 0.65033262E-01 0.27531797E+03</pdfrwt>
<totfact> 0.26395438E+03</totfact>
</mgrwt>
</event>
<event>
 9    1  0.2054950E-002  0.2750225E+03  0.7818608E-02  0.1098439E+00
          1   -1    0    0  501    0  0.00000000000E+00  0.00000000000E+00  0.78735698306E+03  0.78735698306E+03  0.00000000000E+00 0.  1.
         -1   -1    0    0    0  501 -0.00000000000E+00 -0.00000000000E+00 -0.24016218831E+02  0.24016218831E+02  0.00000000000E+00 0.  1.
         36    2    1    2    0    0  0.00000000000E+00 -0.71054273576E-14  0.76334076423E+03  0.81137320189E+03  0.27502245438E+03 0.  0.
         25    2    3    3    0    0  0.31241610067E+02 -0.57762159255E+02  0.55736565649E+03  0.57426547330E+03  0.12170395863E+03 0.  0.
         25    2    3    3    0    0 -0.31241610067E+02  0.57762159255E+02  0.20597510774E+03  0.23710772859E+03  0.97374661533E+02 0.  0.
          5    1    4    4  502    0  0.98517161627E+01  0.30873784355E+02  0.28781485119E+03  0.28967175464E+03  0.47000000000E+01 0.  1.
         -5    1    4    4    0  502  0.21389893904E+02 -0.88635943610E+02  0.26955080530E+03  0.28459371865E+03  0.47000000000E+01 0.  1.
          5    1    5    5  503    0 -0.22219372493E+02  0.39161208821E+02  0.19266855222E+02  0.49199618906E+02  0.47000000000E+01 0.  1.
         -5    1    5    5    0  503 -0.90222375734E+01  0.18600950434E+02  0.18670825252E+03  0.18790810969E+03  0.47000000000E+01 0.  1.
<mgrwt>
<rscale>  0 0.27502245E+03</rscale>
<asrwt>0</asrwt>
<pdfrwt beam="1">  1        1 0.12113182E+00 0.27502245E+03</pdfrwt>
<pdfrwt beam="2">  1       -1 0.36948035E-02 0.27502245E+03</pdfrwt>
<totfact> 0.65246494E+03</totfact>
</mgrwt>
</event>
<event>
 9    1  0.2054950E-002  0.2742254E+03  0.7818608E-02  0.1098885E+00
          2   -1    0    0  501    0  0.00000000000E+00  0.00000000000E+00  0.34524856547E+04  0.34524856547E+04  0.00000000000E+00 0.  1.
         -2   -1    0    0    0  501 -0.00000000000E+00 -0.00000000000E+00 -0.54453198829E+01  0.54453198829E+01  0.00000000000E+00 0.  1.
         36    2    1    2    0    0  0.35527136788E-14  0.00000000000E+00  0.34470403348E+04  0.34579309746E+04  0.27422537287E+03 0.  0.
         25    2    3    3    0    0  0.39779036545E+01 -0.36341648217E+02  0.21179365499E+04  0.21218451092E+04  0.12342973325E+03 0.  0.
         25    2    3    3    0    0 -0.39779036545E+01  0.36341648217E+02  0.13291037849E+04  0.13360858654E+04  0.13142309311E+03 0.  0.
          5    1    4    4  502    0 -0.30015535594E+02 -0.27874450102E+02  0.23586297118E+03  0.23943965528E+03  0.47000000000E+01 0. -1.
         -5    1    4    4    0  502  0.33993439248E+02 -0.84671981144E+01  0.18820735787E+04  0.18824054539E+04  0.47000000000E+01 0. -1.
          5    1    5    5  503    0 -0.50503643405E+02  0.35030942727E+02  0.31911420651E+03  0.32501346394E+03  0.47000000000E+01 0. -1.
         -5    1    5    5    0  503  0.46525739751E+02  0.13107054901E+01  0.10099895784E+04  0.10110724014E+04  0.47000000000E+01 0. -1.
<mgrwt>
<rscale>  0 0.27422537E+03</rscale>
<asrwt>0</asrwt>
<pdfrwt beam="1">  1        2 0.53114989E+00 0.27422537E+03</pdfrwt>
<pdfrwt beam="2">  1       -2 0.83774428E-03 0.27422537E+03</pdfrwt>
<totfact> 0.30051212E+03</totfact>
</mgrwt>
</event>
<event>
 9    1  0.2054950E-002  0.2748032E+03  0.7818608E-02  0.1098562E+00
          2   -1    0    0  501    0  0.00000000000E+00  0.00000000000E+00  0.48419547705E+02  0.48419547705E+02  0.00000000000E+00 0. -1.
         -2   -1    0    0    0  501 -0.00000000000E+00 -0.00000000000E+00 -0.38990862318E+03  0.38990862318E+03  0.00000000000E+00 0. -1.
         36    2    1    2    0    0  0.00000000000E+00 -0.14210854715E-13 -0.34148907548E+03  0.43832817089E+03  0.27480319635E+03 0.  0.
         25    2    3    3    0    0  0.37428360472E+02 -0.48836894019E+02 -0.17437098543E+03  0.22091885214E+03  0.12088827190E+03 0.  0.
         25    2    3    3    0    0 -0.37428360472E+02  0.48836894019E+02 -0.16711809004E+03  0.21740931875E+03  0.12470938808E+03 0.  0.
          5    1    4    4  502    0  0.78610976385E+02 -0.49446884444E+02 -0.10643197650E+03  0.14133129735E+03  0.47000000000E+01 0.  1.
         -5    1    4    4    0  502 -0.41182615913E+02  0.60999042507E+00 -0.67939008929E+02  0.79587554781E+02  0.47000000000E+01 0.  1.
          5    1    5    5  503    0 -0.70722509331E+02  0.64159916226E+02 -0.14694946419E+03  0.17531230192E+03  0.47000000000E+01 0. -1.
         -5    1    5    5    0  503  0.33294148859E+02 -0.15323022206E+02 -0.20168625850E+02  0.42097016836E+02  0.47000000000E+01 0. -1.
<mgrwt>
<rscale>  0 0.27480320E+03</rscale>
<asrwt>0</asrwt>
<pdfrwt beam="1">  1        2 0.74491611E-02 0.27480320E+03</pdfrwt>
<pdfrwt beam="2">  1       -2 0.59985943E-01 0.27480320E+03</pdfrwt>
<totfact> 0.24589140E+03</totfact>
</mgrwt>
</event>
<event>
 9    1  0.2054950E-002  0.2749076E+03  0.7818608E-02  0.1098503E+00
          2   -1    0    0  501    0  0.00000000000E+00  0.00000000000E+00  0.12580173620E+04  0.12580173620E+04  0.00000000000E+00 0. -1.
         -2   -1    0    0    0  501 -0.00000000000E+00 -0.00000000000E+00 -0.15018510377E+02  0.15018510377E+02  0.00000000000E+00 0. -1.
         36    2    1    2    0    0  0.00000000000E+00 -0.17763568394E-14  0.12429988516E+04  0.12730358723E+04  0.27490759761E+03 0.  0.
         25    2    3    3    0    0  0.60538710026E+02  0.40554934638E+01  0.62829122827E+03  0.64290871052E+03  0.12206703117E+03 0.  0.
         25    2    3    3    0    0 -0.60538710026E+02 -0.40554934638E+01  0.61470762332E+03  0.63012716183E+03  0.12455278186E+03 0.  0.
          5    1    4    4  502    0  0.20326161261E+02  0.18098138259E+02  0.56943788228E+03  0.57010725940E+03  0.47000000000E+01 0. -1.
         -5    1    4    4    0  502  0.40212548764E+02 -0.14042644796E+02  0.58853345989E+02  0.72801451120E+02  0.47000000000E+01 0. -1.
          5    1    5    5  503    0  0.28822498303E+02 -0.22747207890E+02  0.86811877804E+02  0.94374594055E+02  0.47000000000E+01 0.  1.
         -5    1    5    5    0  503 -0.89361208329E+02  0.18691714426E+02  0.52789574552E+03  0.53575256777E+03  0.47000000000E+01 0.  1.
<mgrwt>
<rscale>  0 0.27490760E+03</rscale>
<asrwt>0</asrwt>
<pdfrwt beam="1">  1        2 0.19354105E+00 0.27490760E+03</pdfrwt>
<pdfrwt beam="2">  1       -2 0.23105410E-02 0.27490760E+03</pdfrwt>
<totfact> 0.11557493E+04</totfact>
</mgrwt>
</event>
<event>
 9    1  0.2054950E-002  0.2786393E+03  0.7818608E-02  0.1096434E+00
          1   -1    0    0  501    0  0.00000000000E+00  0.00000000000E+00  0.29724332106E+04  0.29724332106E+04  0.00000000000E+00 0. -1.
         -1   -1    0    0    0  501 -0.00000000000E+00 -0.00000000000E+00 -0.65299939738E+01  0.65299939738E+01  0.00000000000E+00 0. -1.
         36    2    1    2    0    0  0.00000000000E+00  0.00000000000E+00  0.29659032166E+04  0.29789632045E+04  0.27863934362E+03 0.  0.
         25    2    3    3    0    0  0.46113414759E+02  0.10700769400E+02  0.19059803273E+04  0.19109582616E+04  0.12945854904E+03 0.  0.
         25    2    3    3    0    0 -0.46113414759E+02 -0.10700769400E+02  0.10599228893E+04  0.10680049430E+04  0.12229911478E+03 0.  0.
          5    1    4    4  502    0  0.86684333180E+02  0.14850313878E+02  0.15718452954E+04  0.15743107787E+04  0.47000000000E+01 0. -1.
         -5    1    4    4    0  502 -0.40570918421E+02 -0.41495444781E+01  0.33413503191E+03  0.33664748282E+03  0.47000000000E+01 0. -1.
          5    1    5    5  503    0 -0.60241866737E+02 -0.46496814893E+02  0.41690954426E+03  0.42382389550E+03  0.47000000000E+01 0. -1.
         -5    1    5    5    0  503  0.14128451978E+02  0.35796045493E+02  0.64301334504E+03  0.64418104747E+03  0.47000000000E+01 0. -1.
<mgrwt>
<rscale>  0 0.27863934E+03</rscale>
<asrwt>0</asrwt>
<pdfrwt beam="1">  1        1 0.45729634E+00 0.27863934E+03</pdfrwt>
<pdfrwt beam="2">  1       -1 0.10046168E-02 0.27863934E+03</pdfrwt>
<totfact> 0.14131669E+03</totfact>
</mgrwt>
</event>
<event>
 9    1  0.2054950E-002  0.2720609E+03  0.7818608E-02  0.1100106E+00
          2   -1    0    0  501    0  0.00000000000E+00  0.00000000000E+00  0.78894412279E+03  0.78894412279E+03  0.00000000000E+00 0.  1.
         -2   -1    0    0    0  501 -0.00000000000E+00 -0.00000000000E+00 -0.23454492230E+02  0.23454492230E+02  0.00000000000E+00 0.  1.
         36    2    1    2    0    0 -0.14210854715E-13  0.71054273576E-14  0.76548963056E+03  0.81239861502E+03  0.27206090346E+03 0.  0.
         25    2    3    3    0    0 -0.32904600642E+02 -0.37351979280E+02  0.42332082304E+03  0.44332052593E+03  0.12187980308E+03 0.  0.
         25    2    3    3    0    0  0.32904600642E+02  0.37351979280E+02  0.34216880752E+03  0.36907808908E+03  0.12907850286E+03 0.  0.
          5    1    4    4  502    0 -0.19466432892E+01 -0.78745396079E+02  0.23032154236E+03  0.24346402136E+03  0.47000000000E+01 0.  1.
         -5    1    4    4    0  502 -0.30957957353E+02  0.41393416798E+02  0.19299928068E+03  0.19985650458E+03  0.47000000000E+01 0.  1.
          5    1    5    5  503    0 -0.18663209478E+02 -0.22904259712E+02  0.17137506782E+02  0.34477596199E+02  0.47000000000E+01 0. -1.
         -5    1    5    5    0  503  0.51567810120E+02  0.60256238992E+02  0.32503130074E+03  0.33460049288E+03  0.47000000000E+01 0. -1.
<mgrwt>
<rscale>  0 0.27206090E+03</rscale>
<asrwt>0</asrwt>
<pdfrwt beam="1">  1        2 0.12137600E+00 0.27206090E+03</pdfrwt>
<pdfrwt beam="2">  1       -2 0.36083840E-02 0.27206090E+03</pdfrwt>
<totfact> 0.11548085E+04</totfact>
</mgrwt>
</event>
<event>
 9    1  0.2054950E-002  0.2759664E+03  0.7818608E-02  0.1097913E+00
         -1   -1    0    0    0  501 -0.00000000000E+00  0.00000000000E+00  0.85884952392E+01  0.85884952392E+01  0.00000000000E+00 0. -1.
          1   -1    0    0  501    0  0.00000000000E+00 -0.00000000000E+00 -0.22168452005E+04  0.22168452005E+04  0.00000000000E+00 0. -1.
         36    2    1    2    0    0 -0.17763568394E-14 -0.17763568394E-14 -0.22082567053E+04  0.22254336958E+04  0.27596640702E+03 0.  0.
         25    2    3    3    0    0  0.15180354625E+02  0.78200213253E+01 -0.15505597789E+04  0.15557273753E+04  0.12554060146E+03 0.  0.
         25    2    3    3    0    0 -0.15180354625E+02 -0.78200213253E+01 -0.65769692642E+03  0.66970632044E+03  0.12509881177E+03 0.  0.
          5    1    4    4  502    0  0.14075426936E+02  0.32573377703E+02 -0.12709711842E+03  0.13204131963E+03  0.47000000000E+01 0. -1.
         -5    1    4    4    0  502  0.11049276885E+01 -0.24753356378E+02 -0.14234626605E+04  0.14236860557E+04  0.47000000000E+01 0. -1.
          5    1    5    5  503    0 -0.27072487557E+02  0.71483650808E+01 -0.64637080009E+03  0.64699406483E+03  0.47000000000E+01 0.  1.
         -5    1    5    5    0  503  0.11892132933E+02 -0.14968386406E+02 -0.11326126328E+02  0.22712255610E+02  0.47000000000E+01 0.  1.
<mgrwt>
<rscale>  0 0.27596641E+03</rscale>
<asrwt>0</asrwt>
<pdfrwt beam="1">  1        1 0.34105371E+00 0.27596641E+03</pdfrwt>
<pdfrwt beam="2">  1       -1 0.13213046E-02 0.27596641E+03</pdfrwt>
<totfact> 0.30593293E+03</totfact>
</mgrwt>
</event>
<event>
 9    1  0.2054950E-002  0.2734543E+03  0.7818608E-02  0.1099319E+00
          2   -1    0    0  501    0  0.00000000000E+00  0.00000000000E+00  0.85101013020E+03  0.85101013020E+03  0.00000000000E+00 0.  1.
         -2   -1    0    0    0  501 -0.00000000000E+00 -0.00000000000E+00 -0.21967203949E+02  0.21967203949E+02  0.00000000000E+00 0.  1.
         36    2    1    2    0    0  0.53290705182E-14  0.71054273576E-14  0.82904292625E+03  0.87297733415E+03  0.27345429668E+03 0.  0.
         25    2    3    3    0    0  0.10122278522E+02 -0.63038628440E+01  0.58481023343E+03  0.59824995681E+03  0.12553008596E+03 0.  0.
         25    2    3    3    0    0 -0.10122278522E+02  0.63038628440E+01  0.24423269282E+03  0.27472737735E+03  0.12523308034E+03 0.  0.
          5    1    4    4  502    0 -0.44306478974E+02 -0.40410342517E+02  0.23607656613E+03  0.24361915963E+03  0.47000000000E+01 0. -1.
         -5    1    4    4    0  502  0.54428757496E+02  0.34106479673E+02  0.34873366730E+03  0.35463079718E+03  0.47000000000E+01 0. -1.
          5    1    5    5  503    0 -0.23701965012E+02  0.47630554771E+02  0.21634888461E+03  0.22284385288E+03  0.47000000000E+01 0.  1.
         -5    1    5    5    0  503  0.13579686490E+02 -0.41326691927E+02  0.27883808210E+02  0.51883524467E+02  0.47000000000E+01 0.  1.
<mgrwt>
<rscale>  0 0.27345430E+03</rscale>
<asrwt>0</asrwt>
<pdfrwt beam="1">  1        2 0.13092461E+00 0.27345430E+03</pdfrwt>
<pdfrwt beam="2">  1       -2 0.33795705E-02 0.27345430E+03</pdfrwt>
<totfact> 0.11558128E+04</totfact>
</mgrwt>
</event>
<event>
 9    1  0.2054950E-002  0.2752553E+03  0.7818608E-02  0.1098309E+00
         -2   -1    0    0    0  501 -0.00000000000E+00  0.00000000000E+00  0.43195941053E+03  0.43195941053E+03  0.00000000000E+00 0.  1.
          2   -1    0    0  501    0  0.00000000000E+00 -0.00000000000E+00 -0.43849868948E+02  0.43849868948E+02  0.00000000000E+00 0.  1.
         36    2    1    2    0    0 -0.71054273576E-14 -0.71054273576E-14  0.38810954158E+03  0.47580927947E+03  0.27525525276E+03 0.  0.
         25    2    3    3    0    0  0.44438444839E+02 -0.39164731080E+02  0.21322605809E+03  0.25434580951E+03  0.12537060032E+03 0.  0.
         25    2    3    3    0    0 -0.44438444839E+02  0.39164731080E+02  0.17488348349E+03  0.22146346997E+03  0.12228321304E+03 0.  0.
          5    1    4    4  502    0  0.52347109006E+02 -0.76292826307E+02  0.10749709903E+03  0.14191029373E+03  0.47000000000E+01 0.  1.
         -5    1    4    4    0  502 -0.79086641678E+01  0.37128095227E+02  0.10572895906E+03  0.11243551577E+03  0.47000000000E+01 0.  1.
          5    1    5    5  503    0 -0.23797627268E+02 -0.20505248197E+02  0.15017805078E+03  0.15350025799E+03  0.47000000000E+01 0.  1.
         -5    1    5    5    0  503 -0.20640817571E+02  0.59669979277E+02  0.24705432712E+02  0.67963211978E+02  0.47000000000E+01 0.  1.
<mgrwt>
<rscale>  0 0.27525525E+03</rscale>
<asrwt>0</asrwt>
<pdfrwt beam="1">  1        2 0.67461340E-02 0.27525525E+03</pdfrwt>
<pdfrwt beam="2">  1       -2 0.66455291E-01 0.27525525E+03</pdfrwt>
<totfact> 0.22541353E+03</totfact>
</mgrwt>
</event>
<event>
 9    1  0.2054950E-002  0.2754985E+03  0.7818608E-02  0.1098173E+00
         -1   -1    0    0    0  501 -0.00000000000E+00  0.00000000000E+00  0.56655936916E+02  0.56655936916E+02  0.00000000000E+00 0.  1.
          1   -1    0    0  501    0  0.00000000000E+00 -0.00000000000E+00 -0.33491370865E+03  0.33491370865E+03  0.00000000000E+00 0.  1.
         36    2    1    2    0    0  0.35527136788E-14 -0.71054273576E-14 -0.27825777173E+03  0.39156964556E+03  0.27549845698E+03 0.  0.
         25    2    3    3    0    0  0.12960706149E+02 -0.27666711871E+02 -0.74937397349E+02  0.14923066963E+03  0.12538242456E+03 0.  0.
         25    2    3    3    0    0 -0.12960706149E+02  0.27666711871E+02 -0.20332037438E+03  0.24233897593E+03  0.12827929594E+03 0.  0.
          5    1    4    4  502    0 -0.22533646387E+02 -0.67576618568E+02 -0.60825501283E+02  0.93788038698E+02  0.47000000000E+01 0.  1.
         -5    1    4    4    0  502  0.35494352536E+02  0.39909906696E+02 -0.14111896066E+02  0.55442630935E+02  0.47000000000E+01 0.  1.
          5    1    5    5  503    0  0.17045863848E+02  0.69401975331E+02 -0.15868949757E+03  0.17410239026E+03  0.47000000000E+01 0. -1.
         -5    1    5    5    0  503 -0.30006569997E+02 -0.41735263460E+02 -0.44630876809E+02  0.68236585669E+02  0.47000000000E+01 0. -1.
<mgrwt>
<rscale>  0 0.27549846E+03</rscale>
<asrwt>0</asrwt>
<pdfrwt beam="1">  1        1 0.51525185E-01 0.27549846E+03</pdfrwt>
<pdfrwt beam="2">  1       -1 0.87162981E-02 0.27549846E+03</pdfrwt>
<totfact> 0.57082819E+03</totfact>
</mgrwt>
</event>
<event>
 9    1  0.2054950E-002  0.2747197E+03  0.7818608E-02  0.1098608E+00
         -2   -1    0    0    0  501 -0.00000000000E+00  0.00000000000E+00  0.18562173573E+02  0.18562173573E+02  0.00000000000E+00 0. -1.
          2   -1    0    0  501    0  0.00000000000E+00 -0.00000000000E+00 -0.10164615236E+04  0.10164615236E+04  0.00000000000E+00 0. -1.
         36    2    1    2    0    0  0.35527136788E-14  0.00000000000E+00 -0.99789934999E+03  0.10350236971E+04  0.27471974979E+03 0.  0.
         25    2    3    3    0    0  0.25095285698E+02 -0.29485450190E+01 -0.37291375029E+03  0.39402278219E+03  0.12470292880E+03 0.  0.
         25    2    3    3    0    0 -0.25095285698E+02  0.29485450190E+01 -0.62498559970E+03  0.64100091494E+03  0.14013103098E+03 0.  0.
          5    1    4    4  502    0  0.34818325293E+02  0.56602650727E+02 -0.18781025426E+03  0.19927608349E+03  0.47000000000E+01 0. -1.
         -5    1    4    4    0  502 -0.97230395952E+01 -0.59551195746E+02 -0.18510349603E+03  0.19474669870E+03  0.47000000000E+01 0. -1.
          5    1    5    5  503    0  0.32491156811E+02  0.52236686019E+02 -0.36394370676E+03  0.36913609730E+03  0.47000000000E+01 0.  1.
         -5    1    5    5    0  503 -0.57586442508E+02 -0.49288141000E+02 -0.26104189294E+03  0.27186481765E+03  0.47000000000E+01 0.  1.
<mgrwt>
<rscale>  0 0.27471975E+03</rscale>
<asrwt>0</asrwt>
<pdfrwt beam="1">  1        2 0.15637871E+00 0.27471975E+03</pdfrwt>
<pdfrwt beam="2">  1       -2 0.28557187E-02 0.27471975E+03</pdfrwt>
<totfact> 0.11666102E+04</totfact>
</mgrwt>
</event>
<event>
 8    1  0.2054950E-002  0.2923445E+03  0.7818608E-02  0.1089131E+00
          2   -1    0    0  501    0  0.00000000000E+00  0.00000000000E+00  0.19788891978E+04  0.19788891978E+04  0.00000000000E+00 0.  1.
         -2   -1    0    0    0  501 -0.00000000000E+00 -0.00000000000E+00 -0.10797131101E+02  0.10797131101E+02  0.00000000000E+00 0.  1.
         25    2    1    2    0    0 -0.52464386099E+02 -0.22761037287E+02  0.73275211914E+03  0.74652365638E+03  0.13077203373E+03 0.  0.
         25    2    1    2    0    0  0.52464386099E+02  0.22761037287E+02  0.12353399476E+04  0.12431626725E+04  0.12695695207E+03 0.  0.
          5    1    3    3  502    0  0.23524868781E+02 -0.48519115158E+02  0.18009591473E+03  0.18805358940E+03  0.47000000000E+01 0. -1.
         -5    1    3    3    0  502 -0.75989254880E+02  0.25758077872E+02  0.55265620441E+03  0.55847006698E+03  0.47000000000E+01 0. -1.
          5    1    4    4  503    0  0.54917817490E+02  0.16643334822E+02  0.12335228296E+04  0.12348658341E+04  0.47000000000E+01 0.  1.
         -5    1    4    4    0  503 -0.24534313909E+01  0.61177024646E+01  0.18171179783E+01  0.82968383606E+01  0.47000000000E+01 0.  1.
<mgrwt>
<rscale>  0 0.29234450E+03</rscale>
<asrwt>0</asrwt>
<pdfrwt beam="1">  1        2 0.30444421E+00 0.29234450E+03</pdfrwt>
<pdfrwt beam="2">  1       -2 0.16610987E-02 0.29234450E+03</pdfrwt>
<totfact> 0.77474393E+03</totfact>
</mgrwt>
</event>
<event>
 9    1  0.2054950E-002  0.2748793E+03  0.7818608E-02  0.1098519E+00
          1   -1    0    0  501    0  0.00000000000E+00  0.00000000000E+00  0.52314875114E+03  0.52314875114E+03  0.00000000000E+00 0.  1.
         -1   -1    0    0    0  501 -0.00000000000E+00 -0.00000000000E+00 -0.36107632861E+02  0.36107632861E+02  0.00000000000E+00 0.  1.
         36    2    1    2    0    0 -0.14210854715E-13 -0.17763568394E-13  0.48704111828E+03  0.55925638400E+03  0.27487934108E+03 0.  0.
         25    2    3    3    0    0 -0.51233762796E+02 -0.26868189724E+02  0.23976807270E+03  0.27604633235E+03  0.12395987596E+03 0.  0.
         25    2    3    3    0    0  0.51233762796E+02  0.26868189724E+02  0.24727304558E+03  0.28321005165E+03  0.12536816270E+03 0.  0.
          5    1    4    4  502    0 -0.18408900473E+02  0.46586661094E+02  0.55417507915E+02  0.74849146903E+02  0.47000000000E+01 0.  1.
         -5    1    4    4    0  502 -0.32824862323E+02 -0.73454850818E+02  0.18435056478E+03  0.20119718544E+03  0.47000000000E+01 0.  1.
          5    1    5    5  503    0  0.43274099135E+02  0.47804217475E+02  0.25172507682E+03  0.25989516187E+03  0.47000000000E+01 0.  1.
         -5    1    5    5    0  503  0.79596636614E+01 -0.20936027751E+02 -0.44520312353E+01  0.23314889786E+02  0.47000000000E+01 0.  1.
<mgrwt>
<rscale>  0 0.27487934E+03</rscale>
<asrwt>0</asrwt>
<pdfrwt beam="1">  1        1 0.80484418E-01 0.27487934E+03</pdfrwt>
<pdfrwt beam="2">  1       -1 0.55550208E-02 0.27487934E+03</pdfrwt>
<totfact> 0.63499144E+03</totfact>
</mgrwt>
</event>
<event>
 9    1  0.2054950E-002  0.2753517E+03  0.7818608E-02  0.1098255E+00
          1   -1    0    0  501    0  0.00000000000E+00  0.00000000000E+00  0.75212382396E+02  0.75212382396E+02  0.00000000000E+00 0. -1.
         -1   -1    0    0    0  501 -0.00000000000E+00 -0.00000000000E+00 -0.25201481638E+03  0.25201481638E+03  0.00000000000E+00 0. -1.
         36    2    1    2    0    0 -0.71054273576E-14  0.00000000000E+00 -0.17680243399E+03  0.32722719878E+03  0.27535166416E+03 0.  0.
         25    2    3    3    0    0 -0.36062286624E+02 -0.27657163982E+02 -0.98815776220E+01  0.11270623258E+03  0.10266275883E+03 0.  0.
         25    2    3    3    0    0  0.36062286624E+02  0.27657163982E+02 -0.16692085637E+03  0.21452096620E+03  0.12685135164E+03 0.  0.
          5    1    4    4  502    0 -0.59559408968E+01 -0.21360335058E+02  0.44563537571E+02  0.49997360197E+02  0.47000000000E+01 0. -1.
         -5    1    4    4    0  502 -0.30106345728E+02 -0.62968289233E+01 -0.54445115193E+02  0.62708872387E+02  0.47000000000E+01 0. -1.
          5    1    5    5  503    0 -0.28601246818E+02  0.54223661685E+02 -0.55094559528E+02  0.82557478738E+02  0.47000000000E+01 0. -1.
         -5    1    5    5    0  503  0.64663533443E+02 -0.26566497703E+02 -0.11182629684E+03  0.13196348746E+03  0.47000000000E+01 0. -1.
<mgrwt>
<rscale>  0 0.27535166E+03</rscale>
<asrwt>0</asrwt>
<pdfrwt beam="1">  1        1 0.11571136E-01 0.27535166E+03</pdfrwt>
<pdfrwt beam="2">  1       -1 0.38771510E-01 0.27535166E+03</pdfrwt>
<totfact> 0.34234805E+03</totfact>
</mgrwt>
</event>
<event>
 9    1  0.2054950E-002  0.2748286E+03  0.7818608E-02  0.1098547E+00
          1   -1    0    0  501    0  0.00000000000E+00  0.00000000000E+00  0.13385046755E+02  0.13385046755E+02  0.00000000000E+00 0. -1.
         -1   -1    0    0    0  501 -0.00000000000E+00 -0.00000000000E+00 -0.14107300693E+04  0.14107300693E+04  0.00000000000E+00 0. -1.
         36    2    1    2    0    0  0.00000000000E+00  0.71054273576E-14 -0.13973450226E+04  0.14241151161E+04  0.27482858611E+03 0.  0.
         25    2    3    3    0    0  0.58125042703E+02 -0.35693062898E+02 -0.59821523295E+03  0.61338675147E+03  0.11717220923E+03 0.  0.
         25    2    3    3    0    0 -0.58125042703E+02  0.35693062898E+02 -0.79912978963E+03  0.81072836462E+03  0.11840416039E+03 0.  0.
          5    1    4    4  502    0  0.50915612824E+02  0.76865008473E+01 -0.94392610438E+02  0.10762684066E+03  0.47000000000E+01 0. -1.
         -5    1    4    4    0  502  0.72094298788E+01 -0.43379563745E+02 -0.50382262251E+03  0.50575991081E+03  0.47000000000E+01 0. -1.
          5    1    5    5  503    0 -0.41237219991E+02  0.96202214469E+01 -0.75687606326E+03  0.75807421940E+03  0.47000000000E+01 0.  1.
         -5    1    5    5    0  503 -0.16887822711E+02  0.26072841451E+02 -0.42253726365E+02  0.52654145221E+02  0.47000000000E+01 0.  1.
<mgrwt>
<rscale>  0 0.27482859E+03</rscale>
<asrwt>0</asrwt>
<pdfrwt beam="1">  1        1 0.20592393E-02 0.27482859E+03</pdfrwt>
<pdfrwt beam="2">  1       -1 0.21703525E+00 0.27482859E+03</pdfrwt>
<totfact> 0.74817704E+02</totfact>
</mgrwt>
</event>
<event>
 9    1  0.2054950E-002  0.2691135E+03  0.7818608E-02  0.1101788E+00
          2   -1    0    0  501    0  0.00000000000E+00  0.00000000000E+00  0.13248376290E+04  0.13248376290E+04  0.00000000000E+00 0.  1.
         -2   -1    0    0    0  501 -0.00000000000E+00 -0.00000000000E+00 -0.13666213725E+02  0.13666213725E+02  0.00000000000E+00 0.  1.
         36    2    1    2    0    0  0.00000000000E+00  0.00000000000E+00  0.13111714153E+04  0.13385038428E+04  0.26911346447E+03 0.  0.
         25    2    3    3    0    0 -0.24331054373E+02  0.26051984072E+02  0.72082523401E+03  0.73407314726E+03  0.13417772342E+03 0.  0.
         25    2    3    3    0    0  0.24331054373E+02 -0.26051984072E+02  0.59034618129E+03  0.60443069550E+03  0.12472828792E+03 0.  0.
          5    1    4    4  502    0 -0.17147443581E+02  0.57167720772E+02  0.67701026150E+03  0.67965223997E+03  0.47000000000E+01 0.  1.
         -5    1    4    4    0  502 -0.71836107923E+01 -0.31115736700E+02  0.43814972518E+02  0.54420907298E+02  0.47000000000E+01 0.  1.
          5    1    5    5  503    0  0.17927333732E+02 -0.62134300436E+02  0.16199840135E+03  0.17449250020E+03  0.47000000000E+01 0.  1.
         -5    1    5    5    0  503  0.64037206411E+01  0.36082316364E+02  0.42834777995E+03  0.42993819530E+03  0.47000000000E+01 0.  1.
<mgrwt>
<rscale>  0 0.26911346E+03</rscale>
<asrwt>0</asrwt>
<pdfrwt beam="1">  1        2 0.20382107E+00 0.26911346E+03</pdfrwt>
<pdfrwt beam="2">  1       -2 0.21024955E-02 0.26911346E+03</pdfrwt>
<totfact> 0.12189201E+04</totfact>
</mgrwt>
</event>
<event>
 9    1  0.2054950E-002  0.2748332E+03  0.7818608E-02  0.1098545E+00
         -2   -1    0    0    0  501 -0.00000000000E+00  0.00000000000E+00  0.76978180587E+02  0.76978180587E+02  0.00000000000E+00 0.  1.
          2   -1    0    0  501    0  0.00000000000E+00 -0.00000000000E+00 -0.24530745272E+03  0.24530745272E+03  0.00000000000E+00 0.  1.
         36    2    1    2    0    0  0.00000000000E+00  0.00000000000E+00 -0.16832927213E+03  0.32228563331E+03  0.27483319592E+03 0.  0.
         25    2    3    3    0    0 -0.66985488947E+01 -0.59341768821E+02 -0.76117255039E+02  0.15563473441E+03  0.12190987637E+03 0.  0.
         25    2    3    3    0    0  0.66985488947E+01  0.59341768821E+02 -0.92212017094E+02  0.16665089889E+03  0.12531220979E+03 0.  0.
          5    1    4    4  502    0 -0.53934734412E+02 -0.65261425096E+02 -0.64141522925E+02  0.10632137200E+03  0.47000000000E+01 0. -1.
         -5    1    4    4    0  502  0.47236185517E+02  0.59196562746E+01 -0.11975732115E+02  0.49313362411E+02  0.47000000000E+01 0. -1.
          5    1    5    5  503    0  0.64904112294E+02  0.20798039527E+02 -0.52827308355E+02  0.86359230826E+02  0.47000000000E+01 0.  1.
         -5    1    5    5    0  503 -0.58205563399E+02  0.38543729295E+02 -0.39384708739E+02  0.80291668067E+02  0.47000000000E+01 0.  1.
<mgrwt>
<rscale>  0 0.27483320E+03</rscale>
<asrwt>0</asrwt>
<pdfrwt beam="1">  1        2 0.37739608E-01 0.27483320E+03</pdfrwt>
<pdfrwt beam="2">  1       -2 0.11842797E-01 0.27483320E+03</pdfrwt>
<totfact> 0.68252567E+03</totfact>
</mgrwt>
</event>
<event>
 9    1  0.2054950E-002  0.2769188E+03  0.7818608E-02  0.1097384E+00
         -2   -1    0    0    0  501 -0.00000000000E+00  0.00000000000E+00  0.22576141915E+02  0.22576141915E+02  0.00000000000E+00 0.  1.
          2   -1    0    0  501    0  0.00000000000E+00 -0.00000000000E+00 -0.84917096536E+03  0.84917096536E+03  0.00000000000E+00 0.  1.
         36    2    1    2    0    0  0.00000000000E+00 -0.71054273576E-14 -0.82659482345E+03  0.87174710728E+03  0.27691879116E+03 0.  0.
         25    2    3    3    0    0  0.26517874439E+02  0.22633675220E+02 -0.49804743171E+03  0.51456772908E+03  0.12455208816E+03 0.  0.
         25    2    3    3    0    0 -0.26517874439E+02 -0.22633675220E+02 -0.32854739174E+03  0.35717937820E+03  0.13571381164E+03 0.  0.
          5    1    4    4  502    0 -0.39477804366E+02  0.31944299720E+02 -0.11592100198E+03  0.12664400508E+03  0.47000000000E+01 0.  1.
         -5    1    4    4    0  502  0.65995678805E+02 -0.93106244998E+01 -0.38212642972E+03  0.38792372400E+03  0.47000000000E+01 0.  1.
          5    1    5    5  503    0 -0.62086876840E+02  0.31655874933E+02 -0.12150581421E+03  0.14015215868E+03  0.47000000000E+01 0.  1.
         -5    1    5    5    0  503  0.35569002402E+02 -0.54289550153E+02 -0.20704157753E+03  0.21702721952E+03  0.47000000000E+01 0.  1.
<mgrwt>
<rscale>  0 0.27691879E+03</rscale>
<asrwt>0</asrwt>
<pdfrwt beam="1">  1        2 0.13064167E+00 0.27691879E+03</pdfrwt>
<pdfrwt beam="2">  1       -2 0.34732531E-02 0.27691879E+03</pdfrwt>
<totfact> 0.11131275E+04</totfact>
</mgrwt>
</event>
<event>
 9    1  0.2054950E-002  0.2743409E+03  0.7818608E-02  0.1098821E+00
          2   -1    0    0  501    0  0.00000000000E+00  0.00000000000E+00  0.13718118451E+03  0.13718118451E+03  0.00000000000E+00 0.  1.
         -2   -1    0    0    0  501 -0.00000000000E+00 -0.00000000000E+00 -0.13715967691E+03  0.13715967691E+03  0.00000000000E+00 0.  1.
         36    2    1    2    0    0  0.00000000000E+00 -0.71054273576E-14  0.21507607875E-01  0.27434086142E+03  0.27434086058E+03 0.  0.
         25    2    3    3    0    0 -0.14978262768E+02 -0.52259582105E+02  0.24005952024E+02  0.13988923642E+03  0.12663846358E+03 0.  0.
         25    2    3    3    0    0  0.14978262768E+02  0.52259582105E+02 -0.23984444416E+02  0.13445162500E+03  0.12060917715E+03 0.  0.
          5    1    4    4  502    0 -0.44154757442E+01 -0.93793345137E+02  0.22893636547E+02  0.96762061845E+02  0.47000000000E+01 0. -1.
         -5    1    4    4    0  502 -0.10562787024E+02  0.41533763033E+02  0.11123154777E+01  0.43127174578E+02  0.47000000000E+01 0. -1.
          5    1    5    5  503    0 -0.14640216808E+02 -0.70599901249E+01  0.39229669041E+02  0.42722784809E+02  0.47000000000E+01 0. -1.
         -5    1    5    5    0  503  0.29618479576E+02  0.59319572229E+02 -0.63214113458E+02  0.91728840187E+02  0.47000000000E+01 0. -1.
<mgrwt>
<rscale>  0 0.27434086E+03</rscale>
<asrwt>0</asrwt>
<pdfrwt beam="1">  1        2 0.21104798E-01 0.27434086E+03</pdfrwt>
<pdfrwt beam="2">  1       -2 0.21101489E-01 0.27434086E+03</pdfrwt>
<totfact> 0.49643317E+03</totfact>
</mgrwt>
</event>
<event>
 9    1  0.2054950E-002  0.2744555E+03  0.7818608E-02  0.1098756E+00
          1   -1    0    0  501    0  0.00000000000E+00  0.00000000000E+00  0.18097031500E+03  0.18097031500E+03  0.00000000000E+00 0. -1.
         -1   -1    0    0    0  501 -0.00000000000E+00 -0.00000000000E+00 -0.10405824738E+03  0.10405824738E+03  0.00000000000E+00 0. -1.
         36    2    1    2    0    0  0.00000000000E+00 -0.35527136788E-14  0.76912067621E+02  0.28502856238E+03  0.27445548860E+03 0.  0.
         25    2    3    3    0    0  0.23188907334E+02 -0.25567785601E+02  0.86414881181E+02  0.15491808731E+03  0.12385735748E+03 0.  0.
         25    2    3    3    0    0 -0.23188907334E+02  0.25567785601E+02 -0.95028135599E+01  0.13011047507E+03  0.12508794975E+03 0.  0.
          5    1    4    4  502    0  0.34412902214E+02  0.17212268118E+02 -0.17012941092E+02  0.42332495523E+02  0.47000000000E+01 0.  1.
         -5    1    4    4    0  502 -0.11223994881E+02 -0.42780053718E+02  0.10342782227E+03  0.11258559178E+03  0.47000000000E+01 0.  1.
          5    1    5    5  503    0 -0.44313806847E+00 -0.24350679293E+02  0.45792770542E+02  0.52078976442E+02  0.47000000000E+01 0.  1.
         -5    1    5    5    0  503 -0.22745769265E+02  0.49918464893E+02 -0.55295584102E+02  0.78031498626E+02  0.47000000000E+01 0.  1.
<mgrwt>
<rscale>  0 0.27445549E+03</rscale>
<asrwt>0</asrwt>
<pdfrwt beam="1">  1        1 0.27841587E-01 0.27445549E+03</pdfrwt>
<pdfrwt beam="2">  1       -1 0.16008961E-01 0.27445549E+03</pdfrwt>
<totfact> 0.47910543E+03</totfact>
</mgrwt>
</event>
<event>
 9    1  0.2054950E-002  0.2749717E+03  0.7818608E-02  0.1098467E+00
         -2   -1    0    0    0  501 -0.00000000000E+00  0.00000000000E+00  0.84446719579E+02  0.84446719579E+02  0.00000000000E+00 0.  1.
          2   -1    0    0  501    0  0.00000000000E+00 -0.00000000000E+00 -0.22383762805E+03  0.22383762805E+03  0.00000000000E+00 0.  1.
         36    2    1    2    0    0  0.00000000000E+00  0.00000000000E+00 -0.13939090847E+03  0.30828434763E+03  0.27497165968E+03 0.  0.
         25    2    3    3    0    0 -0.41448880809E+02  0.35503709331E+02 -0.10287573559E+03  0.16658800199E+03  0.11912020121E+03 0.  0.
         25    2    3    3    0    0  0.41448880809E+02 -0.35503709331E+02 -0.36515172885E+02  0.14169634564E+03  0.12556262748E+03 0.  0.
          5    1    4    4  502    0 -0.14366764052E+02 -0.31352036065E+02 -0.85399179047E+02  0.92219650057E+02  0.47000000000E+01 0.  1.
         -5    1    4    4    0  502 -0.27082116757E+02  0.66855745396E+02 -0.17476556541E+02  0.74368351932E+02  0.47000000000E+01 0.  1.
          5    1    5    5  503    0  0.22692138706E+01 -0.77874712066E+02 -0.29213591702E+02  0.83337530867E+02  0.47000000000E+01 0.  1.
         -5    1    5    5    0  503  0.39179666939E+02  0.42371002735E+02 -0.73015811835E+01  0.58358814775E+02  0.47000000000E+01 0.  1.
<mgrwt>
<rscale>  0 0.27497166E+03</rscale>
<asrwt>0</asrwt>
<pdfrwt beam="1">  1        2 0.34436558E-01 0.27497166E+03</pdfrwt>
<pdfrwt beam="2">  1       -2 0.12991803E-01 0.27497166E+03</pdfrwt>
<totfact> 0.64880026E+03</totfact>
</mgrwt>
</event>
<event>
 9    1  0.2054950E-002  0.2713472E+03  0.7818608E-02  0.1100511E+00
          2   -1    0    0  501    0  0.00000000000E+00  0.00000000000E+00  0.32141567980E+04  0.32141567980E+04  0.00000000000E+00 0.  1.
         -2   -1    0    0    0  501 -0.00000000000E+00 -0.00000000000E+00 -0.57269535610E+01  0.57269535610E+01  0.00000000000E+00 0.  1.
         36    2    1    2    0    0  0.35527136788E-14  0.00000000000E+00  0.32084298445E+04  0.32198837516E+04  0.27134720725E+03 0.  0.
         25    2    3    3    0    0 -0.26027517414E+02 -0.22500537559E+02  0.18071633666E+04  0.18121759889E+04  0.13022547936E+03 0.  0.
         25    2    3    3    0    0  0.26027517414E+02  0.22500537559E+02  0.14012664779E+04  0.14077077626E+04  0.13003729142E+03 0.  0.
          5    1    4    4  502    0 -0.14870639709E+02  0.50132574863E+02  0.10846748541E+04  0.10859447685E+04  0.47000000000E+01 0. -1.
         -5    1    4    4    0  502 -0.11156877705E+02 -0.72633112422E+02  0.72248851247E+03  0.72623122047E+03  0.47000000000E+01 0. -1.
          5    1    5    5  503    0 -0.30122950271E+02 -0.30507382666E+02  0.23833836766E+03  0.24220933102E+03  0.47000000000E+01 0. -1.
         -5    1    5    5    0  503  0.56150467685E+02  0.53007920225E+02  0.11629281102E+04  0.11654984316E+04  0.47000000000E+01 0. -1.
<mgrwt>
<rscale>  0 0.27134721E+03</rscale>
<asrwt>0</asrwt>
<pdfrwt beam="1">  1        2 0.49448422E+00 0.27134721E+03</pdfrwt>
<pdfrwt beam="2">  1       -2 0.88107235E-03 0.27134721E+03</pdfrwt>
<totfact> 0.39618428E+03</totfact>
</mgrwt>
</event>
<event>
 9    1  0.2054950E-002  0.2749410E+03  0.7818608E-02  0.1098485E+00
          1   -1    0    0  501    0  0.00000000000E+00  0.00000000000E+00  0.13498211535E+03  0.13498211535E+03  0.00000000000E+00 0.  1.
         -1   -1    0    0    0  501 -0.00000000000E+00 -0.00000000000E+00 -0.14000474606E+03  0.14000474606E+03  0.00000000000E+00 0.  1.
         36    2    1    2    0    0  0.00000000000E+00  0.00000000000E+00 -0.50226307090E+01  0.27498686142E+03  0.27494098845E+03 0.  0.
         25    2    3    3    0    0  0.96275565437E+01 -0.48759296970E+02 -0.31297114942E+02  0.14043744892E+03  0.12756570374E+03 0.  0.
         25    2    3    3    0    0 -0.96275565437E+01  0.48759296970E+02  0.26274484233E+02  0.13454941250E+03  0.12224171545E+03 0.  0.
          5    1    4    4  502    0  0.47944416503E+02 -0.62340104535E+02 -0.52176366477E+02  0.94495602681E+02  0.47000000000E+01 0.  1.
         -5    1    4    4    0  502 -0.38316859960E+02  0.13580807565E+02  0.20879251535E+02  0.45941846240E+02  0.47000000000E+01 0.  1.
          5    1    5    5  503    0 -0.58236409400E+02  0.56109085517E+02  0.26288566469E+02  0.85163886620E+02  0.47000000000E+01 0.  1.
         -5    1    5    5    0  503  0.48608852856E+02 -0.73497885470E+01 -0.14082235634E-01  0.49385525875E+02  0.47000000000E+01 0.  1.
<mgrwt>
<rscale>  0 0.27494099E+03</rscale>
<asrwt>0</asrwt>
<pdfrwt beam="1">  1        1 0.20766479E-01 0.27494099E+03</pdfrwt>
<pdfrwt beam="2">  1       -1 0.21539192E-01 0.27494099E+03</pdfrwt>
<totfact> 0.43125882E+03</totfact>
</mgrwt>
</event>
<event>
 9    1  0.2054950E-002  0.2746564E+03  0.7818608E-02  0.1098644E+00
         -1   -1    0    0    0  501 -0.00000000000E+00  0.00000000000E+00  0.29223338275E+02  0.29223338275E+02  0.00000000000E+00 0. -1.
          1   -1    0    0  501    0  0.00000000000E+00 -0.00000000000E+00 -0.64534133579E+03  0.64534133579E+03  0.00000000000E+00 0. -1.
         36    2    1    2    0    0  0.00000000000E+00 -0.71054273576E-14 -0.61611799752E+03  0.67456467407E+03  0.27465635371E+03 0.  0.
         25    2    3    3    0    0  0.31404976925E+02 -0.28317711184E+02 -0.39825924211E+03  0.41956047317E+03  0.12502960200E+03 0.  0.
         25    2    3    3    0    0 -0.31404976925E+02  0.28317711184E+02 -0.21785875541E+03  0.25500420090E+03  0.12560469667E+03 0.  0.
          5    1    4    4  502    0  0.83943765045E+01 -0.75705228712E+02 -0.27591167406E+03  0.28627100638E+03  0.47000000000E+01 0.  1.
         -5    1    4    4    0  502  0.23010600420E+02  0.47387517528E+02 -0.12234756805E+03  0.13328946679E+03  0.47000000000E+01 0.  1.
          5    1    5    5  503    0 -0.17095089469E+02 -0.18361984479E+02  0.56788780159E+01  0.26148503083E+02  0.47000000000E+01 0. -1.
         -5    1    5    5    0  503 -0.14309887456E+02  0.46679695663E+02 -0.22353763342E+03  0.22885569782E+03  0.47000000000E+01 0. -1.
<mgrwt>
<rscale>  0 0.27465635E+03</rscale>
<asrwt>0</asrwt>
<pdfrwt beam="1">  1        1 0.99283278E-01 0.27465635E+03</pdfrwt>
<pdfrwt beam="2">  1       -1 0.44958984E-02 0.27465635E+03</pdfrwt>
<totfact> 0.65279991E+03</totfact>
</mgrwt>
</event>
<event>
 9    1  0.2054950E-002  0.2736092E+03  0.7818608E-02  0.1099232E+00
         -1   -1    0    0    0  501 -0.00000000000E+00  0.00000000000E+00  0.11170246734E+03  0.11170246734E+03  0.00000000000E+00 0.  1.
          1   -1    0    0  501    0  0.00000000000E+00 -0.00000000000E+00 -0.16754776617E+03  0.16754776617E+03  0.00000000000E+00 0.  1.
         36    2    1    2    0    0  0.00000000000E+00  0.00000000000E+00 -0.55845298826E+02  0.27925023352E+03  0.27360920218E+03 0.  0.
         25    2    3    3    0    0 -0.43011258133E+02 -0.44683044336E+02 -0.55815229923E+02  0.14053700280E+03  0.11308742851E+03 0.  0.
         25    2    3    3    0    0  0.43011258133E+02  0.44683044336E+02 -0.30068902504E-01  0.13871323072E+03  0.12407585057E+03 0.  0.
          5    1    4    4  502    0 -0.76251468546E+02 -0.26094563373E+02 -0.10901286172E+02  0.81462511214E+02  0.47000000000E+01 0. -1.
         -5    1    4    4    0  502  0.33240210413E+02 -0.18588480963E+02 -0.44913943751E+02  0.59074491586E+02  0.47000000000E+01 0. -1.
          5    1    5    5  503    0  0.15788903882E+02  0.73501340711E+02  0.37303487641E+02  0.84055795531E+02  0.47000000000E+01 0.  1.
         -5    1    5    5    0  503  0.27222354251E+02 -0.28818296375E+02 -0.37333556543E+02  0.54657435186E+02  0.47000000000E+01 0.  1.
<mgrwt>
<rscale>  0 0.27360920E+03</rscale>
<asrwt>0</asrwt>
<pdfrwt beam="1">  1        1 0.25776579E-01 0.27360920E+03</pdfrwt>
<pdfrwt beam="2">  1       -1 0.17184995E-01 0.27360920E+03</pdfrwt>
<totfact> 0.47163578E+03</totfact>
</mgrwt>
</event>
<event>
 9    1  0.2054950E-002  0.2736506E+03  0.7818608E-02  0.1099208E+00
          2   -1    0    0  501    0  0.00000000000E+00  0.00000000000E+00  0.15590831789E+03  0.15590831789E+03  0.00000000000E+00 0.  1.
         -2   -1    0    0    0  501 -0.00000000000E+00 -0.00000000000E+00 -0.12007802275E+03  0.12007802275E+03  0.00000000000E+00 0.  1.
         36    2    1    2    0    0 -0.26645352591E-14  0.71054273576E-14  0.35830295145E+02  0.27598634064E+03  0.27365059870E+03 0.  0.
         25    2    3    3    0    0  0.70839291469E+01 -0.20354485395E+02  0.72468115395E+02  0.14583669939E+03  0.12470857232E+03 0.  0.
         25    2    3    3    0    0 -0.70839291469E+01  0.20354485395E+02 -0.36637820250E+02  0.13014964126E+03  0.12301265024E+03 0.  0.
          5    1    4    4  502    0 -0.71684138083E+01  0.81719281385E+01  0.10166116170E+03  0.10234866078E+03  0.47000000000E+01 0.  1.
         -5    1    4    4    0  502  0.14252342955E+02 -0.28526413534E+02 -0.29193046306E+02  0.43488038602E+02  0.47000000000E+01 0.  1.
          5    1    5    5  503    0  0.41809495753E+02 -0.18720165297E+02  0.15464296210E+02  0.48576877021E+02  0.47000000000E+01 0. -1.
         -5    1    5    5    0  503 -0.48893424899E+02  0.39074650693E+02 -0.52102116460E+02  0.81572764234E+02  0.47000000000E+01 0. -1.
<mgrwt>
<rscale>  0 0.27365060E+03</rscale>
<asrwt>0</asrwt>
<pdfrwt beam="1">  1        2 0.23985895E-01 0.27365060E+03</pdfrwt>
<pdfrwt beam="2">  1       -2 0.18473542E-01 0.27365060E+03</pdfrwt>
<totfact> 0.53909319E+03</totfact>
</mgrwt>
</event>
<event>
 9    1  0.2054950E-002  0.2749376E+03  0.7818608E-02  0.1098486E+00
          1   -1    0    0  501    0  0.00000000000E+00  0.00000000000E+00  0.47105018547E+02  0.47105018547E+02  0.00000000000E+00 0. -1.
         -1   -1    0    0    0  501 -0.00000000000E+00 -0.00000000000E+00 -0.40118182137E+03  0.40118182137E+03  0.00000000000E+00 0. -1.
         36    2    1    2    0    0 -0.71054273576E-14  0.17763568394E-14 -0.35407680282E+03  0.44828683992E+03  0.27493764483E+03 0.  0.
         25    2    3    3    0    0  0.53066643111E+02 -0.21621328690E+01 -0.19592021157E+03  0.24104639218E+03  0.12999188611E+03 0.  0.
         25    2    3    3    0    0 -0.53066643111E+02  0.21621328690E+01 -0.15815659125E+03  0.20724044773E+03  0.12294044245E+03 0.  0.
          5    1    4    4  502    0 -0.13536039493E+02 -0.20589526574E+02  0.74799582390E+01  0.26176186601E+02  0.47000000000E+01 0. -1.
         -5    1    4    4    0  502  0.66602682604E+02  0.18427393705E+02 -0.20340016981E+03  0.21487020558E+03  0.47000000000E+01 0. -1.
          5    1    5    5  503    0 -0.67497921872E+02 -0.60258699253E+01 -0.17212728437E+03  0.18504640658E+03  0.47000000000E+01 0.  1.
         -5    1    5    5    0  503  0.14431278761E+02  0.81880027943E+01  0.13970693115E+02  0.22194041150E+02  0.47000000000E+01 0.  1.
<mgrwt>
<rscale>  0 0.27493764E+03</rscale>
<asrwt>0</asrwt>
<pdfrwt beam="1">  1        1 0.72469262E-02 0.27493764E+03</pdfrwt>
<pdfrwt beam="2">  1       -1 0.61720278E-01 0.27493764E+03</pdfrwt>
<totfact> 0.27313094E+03</totfact>
</mgrwt>
</event>
<event>
 9    1  0.2054950E-002  0.2729938E+03  0.7818608E-02  0.1099578E+00
          2   -1    0    0  501    0  0.00000000000E+00  0.00000000000E+00  0.17011629208E+03  0.17011629208E+03  0.00000000000E+00 0. -1.
         -2   -1    0    0    0  501 -0.00000000000E+00 -0.00000000000E+00 -0.10952160674E+03  0.10952160674E+03  0.00000000000E+00 0. -1.
         36    2    1    2    0    0  0.00000000000E+00  0.00000000000E+00  0.60594685337E+02  0.27963789882E+03  0.27299384346E+03 0.  0.
         25    2    3    3    0    0 -0.16721063035E+02  0.48610251945E+02  0.50979030941E+01  0.13405634926E+03  0.12370353923E+03 0.  0.
         25    2    3    3    0    0  0.16721063035E+02 -0.48610251945E+02  0.55496782243E+02  0.14558154957E+03  0.12438466220E+03 0.  0.
          5    1    4    4  502    0 -0.69291425869E+02  0.40631860801E+02  0.32740553873E+00  0.80463948483E+02  0.47000000000E+01 0. -1.
         -5    1    4    4    0  502  0.52570362835E+02  0.79783911441E+01  0.47704975554E+01  0.53592400774E+02  0.47000000000E+01 0. -1.
          5    1    5    5  503    0 -0.47461471632E+01 -0.10102067866E+02  0.89118590744E+02  0.89937705687E+02  0.47000000000E+01 0.  1.
         -5    1    5    5    0  503  0.21467210198E+02 -0.38508184079E+02 -0.33621808501E+02  0.55643843879E+02  0.47000000000E+01 0.  1.
<mgrwt>
<rscale>  0 0.27299384E+03</rscale>
<asrwt>0</asrwt>
<pdfrwt beam="1">  1        2 0.26171737E-01 0.27299384E+03</pdfrwt>
<pdfrwt beam="2">  1       -2 0.16849478E-01 0.27299384E+03</pdfrwt>
<totfact> 0.57090767E+03</totfact>
</mgrwt>
</event>
<event>
 9    1  0.2054950E-002  0.2762839E+03  0.7818608E-02  0.1097736E+00
         -2   -1    0    0    0  501 -0.00000000000E+00  0.00000000000E+00  0.17643430152E+03  0.17643430152E+03  0.00000000000E+00 0.  1.
          2   -1    0    0  501    0  0.00000000000E+00 -0.00000000000E+00 -0.10816032563E+03  0.10816032563E+03  0.00000000000E+00 0.  1.
         36    2    1    2    0    0  0.35527136788E-14 -0.71054273576E-14  0.68273975892E+02  0.28459462715E+03  0.27628385044E+03 0.  0.
         25    2    3    3    0    0  0.62645351126E+01 -0.39085381031E+02 -0.10784006644E+02  0.13181461339E+03  0.12526725867E+03 0.  0.
         25    2    3    3    0    0 -0.62645351126E+01  0.39085381031E+02  0.79057982537E+02  0.15278001375E+03  0.12459797988E+03 0.  0.
          5    1    4    4  502    0  0.39227834846E+02  0.31984088692E+02 -0.15634696168E+02  0.53182127453E+02  0.47000000000E+01 0. -1.
         -5    1    4    4    0  502 -0.32963299734E+02 -0.71069469723E+02  0.48506895241E+01  0.78632485939E+02  0.47000000000E+01 0. -1.
          5    1    5    5  503    0 -0.20638347549E+02 -0.27768059737E+02  0.76612742455E+02  0.84193876485E+02  0.47000000000E+01 0. -1.
         -5    1    5    5    0  503  0.14373812436E+02  0.66853440768E+02  0.24452400821E+01  0.68586137269E+02  0.47000000000E+01 0. -1.
<mgrwt>
<rscale>  0 0.27628385E+03</rscale>
<asrwt>0</asrwt>
<pdfrwt beam="1">  1        2 0.16640050E-01 0.27628385E+03</pdfrwt>
<pdfrwt beam="2">  1       -2 0.27143739E-01 0.27628385E+03</pdfrwt>
<totfact> 0.42008158E+03</totfact>
</mgrwt>
</event>
<event>
 9    1  0.2054950E-002  0.2758715E+03  0.7818608E-02  0.1097965E+00
          2   -1    0    0  501    0  0.00000000000E+00  0.00000000000E+00  0.16865065769E+03  0.16865065769E+03  0.00000000000E+00 0.  1.
         -2   -1    0    0    0  501 -0.00000000000E+00 -0.00000000000E+00 -0.11281465675E+03  0.11281465675E+03  0.00000000000E+00 0.  1.
         36    2    1    2    0    0 -0.71054273576E-14 -0.88817841970E-15  0.55836000938E+02  0.28146531444E+03  0.27587146324E+03 0.  0.
         25    2    3    3    0    0 -0.45598536342E+02  0.14004870909E+01 -0.10698749591E+02  0.13292179404E+03  0.12438871415E+03 0.  0.
         25    2    3    3    0    0  0.45598536342E+02 -0.14004870909E+01  0.66534750529E+02  0.14854352040E+03  0.12472817061E+03 0.  0.
          5    1    4    4  502    0 -0.36006397286E+02  0.82979829264E+00 -0.66678428656E+02  0.75929256935E+02  0.47000000000E+01 0. -1.
         -5    1    4    4    0  502 -0.95921390558E+01  0.57068879824E+00  0.55979679065E+02  0.56992537104E+02  0.47000000000E+01 0. -1.
          5    1    5    5  503    0 -0.51893539723E+01 -0.56653058195E+02  0.35314577729E+02  0.67124569255E+02  0.47000000000E+01 0. -1.
         -5    1    5    5    0  503  0.50787890314E+02  0.55252571104E+02  0.31220172800E+02  0.81418951147E+02  0.47000000000E+01 0. -1.
<mgrwt>
<rscale>  0 0.27587146E+03</rscale>
<asrwt>0</asrwt>
<pdfrwt beam="1">  1        2 0.25946255E-01 0.27587146E+03</pdfrwt>
<pdfrwt beam="2">  1       -2 0.17356101E-01 0.27587146E+03</pdfrwt>
<totfact> 0.54870590E+03</totfact>
</mgrwt>
</event>
<event>
 9    1  0.2054950E-002  0.2749901E+03  0.7818608E-02  0.1098457E+00
          4   -1    0    0  501    0  0.00000000000E+00  0.00000000000E+00  0.88115831094E+03  0.88115831094E+03  0.00000000000E+00 0.  1.
         -4   -1    0    0    0  501 -0.00000000000E+00 -0.00000000000E+00 -0.21454589139E+02  0.21454589139E+02  0.00000000000E+00 0.  1.
         36    2    1    2    0    0 -0.35527136788E-14  0.88817841970E-15  0.85970372180E+03  0.90261290008E+03  0.27499010548E+03 0.  0.
         25    2    3    3    0    0  0.27903481638E+02 -0.77850370918E+01  0.63054595292E+03  0.64361361307E+03  0.12574208957E+03 0.  0.
         25    2    3    3    0    0 -0.27903481638E+02  0.77850370918E+01  0.22915776888E+03  0.25899928701E+03  0.11716713082E+03 0.  0.
          5    1    4    4  502    0 -0.18937468925E+02  0.44255559381E+02  0.39162559833E+03  0.39460091426E+03  0.47000000000E+01 0.  1.
         -5    1    4    4    0  502  0.46840950563E+02 -0.52040596472E+02  0.23892035460E+03  0.24901269881E+03  0.47000000000E+01 0.  1.
          5    1    5    5  503    0  0.25319090734E+02  0.12255792473E+02  0.19117924563E+03  0.19329473548E+03  0.47000000000E+01 0.  1.
         -5    1    5    5    0  503 -0.53222572372E+02 -0.44707553813E+01  0.37978523247E+02  0.65704551529E+02  0.47000000000E+01 0.  1.
<mgrwt>
<rscale>  0 0.27499011E+03</rscale>
<asrwt>0</asrwt>
<pdfrwt beam="1">  1        4 0.13556279E+00 0.27499011E+03</pdfrwt>
<pdfrwt beam="2">  1       -4 0.33007067E-02 0.27499011E+03</pdfrwt>
<totfact> 0.35547346E+02</totfact>
</mgrwt>
</event>
<event>
 9    1  0.2054950E-002  0.2751253E+03  0.7818608E-02  0.1098382E+00
          2   -1    0    0  501    0  0.00000000000E+00  0.00000000000E+00  0.45295773646E+02  0.45295773646E+02  0.00000000000E+00 0.  1.
         -2   -1    0    0    0  501 -0.00000000000E+00 -0.00000000000E+00 -0.41777587895E+03  0.41777587895E+03  0.00000000000E+00 0.  1.
         36    2    1    2    0    0  0.00000000000E+00 -0.71054273576E-14 -0.37248010531E+03  0.46307165260E+03  0.27512529253E+03 0.  0.
         25    2    3    3    0    0  0.33596796868E+02  0.35267193836E+02 -0.24221976656E+03  0.27647917071E+03  0.12408785920E+03 0.  0.
         25    2    3    3    0    0 -0.33596796868E+02 -0.35267193836E+02 -0.13026033874E+03  0.18659248189E+03  0.12440449641E+03 0.  0.
          5    1    4    4  502    0 -0.25787351001E+02  0.59386318827E+02 -0.87560075256E+02  0.10899806931E+03  0.47000000000E+01 0. -1.
         -5    1    4    4    0  502  0.59384147869E+02 -0.24119124991E+02 -0.15465969131E+03  0.16748110139E+03  0.47000000000E+01 0. -1.
          5    1    5    5  503    0 -0.14328728868E+02  0.46354729587E+02 -0.58233771024E+02  0.75942975408E+02  0.47000000000E+01 0. -1.
         -5    1    5    5    0  503 -0.19268068000E+02 -0.81621923423E+02 -0.72026567718E+02  0.11064950648E+03  0.47000000000E+01 0. -1.
<mgrwt>
<rscale>  0 0.27512529E+03</rscale>
<asrwt>0</asrwt>
<pdfrwt beam="1">  1        2 0.69685806E-02 0.27512529E+03</pdfrwt>
<pdfrwt beam="2">  1       -2 0.64273212E-01 0.27512529E+03</pdfrwt>
<totfact> 0.23194912E+03</totfact>
</mgrwt>
</event>
<event>
 9    1  0.2054950E-002  0.2755293E+03  0.7818608E-02  0.1098156E+00
         -1   -1    0    0    0  501 -0.00000000000E+00  0.00000000000E+00  0.20521144998E+03  0.20521144998E+03  0.00000000000E+00 0. -1.
          1   -1    0    0  501    0  0.00000000000E+00 -0.00000000000E+00 -0.92485542072E+02  0.92485542072E+02  0.00000000000E+00 0. -1.
         36    2    1    2    0    0 -0.14210854715E-13  0.71054273576E-14  0.11272590791E+03  0.29769699206E+03  0.27552925210E+03 0.  0.
         25    2    3    3    0    0 -0.40968487791E+02  0.50925164008E+02  0.97318517039E+01  0.12300401590E+03  0.10374723933E+03 0.  0.
         25    2    3    3    0    0  0.40968487791E+02 -0.50925164008E+02  0.10299405621E+03  0.17469297616E+03  0.12505227300E+03 0.  0.
          5    1    4    4  502    0  0.32380919861E+02  0.27080800443E+02 -0.91765925338E+01  0.43453349402E+02  0.47000000000E+01 0. -1.
         -5    1    4    4    0  502 -0.73349407653E+02  0.23844363565E+02  0.18908444238E+02  0.79550666498E+02  0.47000000000E+01 0. -1.
          5    1    5    5  503    0  0.23280454558E+02 -0.81702068972E+02  0.24696103734E+02  0.88595683746E+02  0.47000000000E+01 0.  1.
         -5    1    5    5    0  503  0.17688033234E+02  0.30776904964E+02  0.78297952475E+02  0.86097292412E+02  0.47000000000E+01 0.  1.
<mgrwt>
<rscale>  0 0.27552925E+03</rscale>
<asrwt>0</asrwt>
<pdfrwt beam="1">  1        1 0.14228545E-01 0.27552925E+03</pdfrwt>
<pdfrwt beam="2">  1       -1 0.31570992E-01 0.27552925E+03</pdfrwt>
<totfact> 0.37206492E+03</totfact>
</mgrwt>
</event>
<event>
 9    1  0.2054950E-002  0.2758721E+03  0.7818608E-02  0.1097965E+00
         -2   -1    0    0    0  501 -0.00000000000E+00  0.00000000000E+00  0.80908426132E+02  0.80908426132E+02  0.00000000000E+00 0.  1.
          2   -1    0    0  501    0  0.00000000000E+00 -0.00000000000E+00 -0.23515903501E+03  0.23515903501E+03  0.00000000000E+00 0.  1.
         36    2    1    2    0    0 -0.71054273576E-14 -0.35527136788E-14 -0.15425060888E+03  0.31606746115E+03  0.27587205305E+03 0.  0.
         25    2    3    3    0    0 -0.58338299665E+02  0.61221309239E+01 -0.93345627086E+02  0.16515210699E+03  0.12296737231E+03 0.  0.
         25    2    3    3    0    0  0.58338299665E+02 -0.61221309239E+01 -0.60904981794E+02  0.15091535416E+03  0.12500075847E+03 0.  0.
          5    1    4    4  502    0 -0.24082264288E+02  0.62699604803E+02 -0.63087853648E+02  0.92267888095E+02  0.47000000000E+01 0. -1.
         -5    1    4    4    0  502 -0.34256035377E+02 -0.56577473879E+02 -0.30257773439E+02  0.72884218894E+02  0.47000000000E+01 0. -1.
          5    1    5    5  503    0  0.29056735654E+02  0.25876331667E+02 -0.90212246252E+02  0.98357601644E+02  0.47000000000E+01 0.  1.
         -5    1    5    5    0  503  0.29281564011E+02 -0.31998462591E+02  0.29307264457E+02  0.52557752512E+02  0.47000000000E+01 0.  1.
<mgrwt>
<rscale>  0 0.27587205E+03</rscale>
<asrwt>0</asrwt>
<pdfrwt beam="1">  1        2 0.36178312E-01 0.27587205E+03</pdfrwt>
<pdfrwt beam="2">  1       -2 0.12447451E-01 0.27587205E+03</pdfrwt>
<totfact> 0.65930980E+03</totfact>
</mgrwt>
</event>
<event>
 9    1  0.2054950E-002  0.2746716E+03  0.7818608E-02  0.1098635E+00
          2   -1    0    0  501    0  0.00000000000E+00  0.00000000000E+00  0.21953219724E+04  0.21953219724E+04  0.00000000000E+00 0. -1.
         -2   -1    0    0    0  501 -0.00000000000E+00 -0.00000000000E+00 -0.85915038778E+01  0.85915038778E+01  0.00000000000E+00 0. -1.
         36    2    1    2    0    0  0.71054273576E-14  0.71054273576E-14  0.21867304686E+04  0.22039134763E+04  0.27467156561E+03 0.  0.
         25    2    3    3    0    0 -0.25038976656E+02 -0.38987460336E+02  0.82315543226E+03  0.83365920460E+03  0.12351449849E+03 0.  0.
         25    2    3    3    0    0  0.25038976656E+02  0.38987460336E+02  0.13635750363E+04  0.13702542717E+04  0.12693666579E+03 0.  0.
          5    1    4    4  502    0 -0.83614168333E+01 -0.82234869040E+02  0.60060017590E+03  0.60627976072E+03  0.47000000000E+01 0. -1.
         -5    1    4    4    0  502 -0.16677559823E+02  0.43247408705E+02  0.22255525636E+03  0.22737944387E+03  0.47000000000E+01 0. -1.
          5    1    5    5  503    0  0.70034820759E+02  0.59960785295E+01  0.50970955583E+03  0.51455490512E+03  0.47000000000E+01 0. -1.
         -5    1    5    5    0  503 -0.44995844103E+02  0.32991381806E+02  0.85386548046E+03  0.85569936659E+03  0.47000000000E+01 0. -1.
<mgrwt>
<rscale>  0 0.27467157E+03</rscale>
<asrwt>0</asrwt>
<pdfrwt beam="1">  1        2 0.33774139E+00 0.27467157E+03</pdfrwt>
<pdfrwt beam="2">  1       -2 0.13217716E-02 0.27467157E+03</pdfrwt>
<totfact> 0.83138517E+03</totfact>
</mgrwt>
</event>
<event>
 9    1  0.2054950E-002  0.2759174E+03  0.7818608E-02  0.1097940E+00
          1   -1    0    0  501    0  0.00000000000E+00  0.00000000000E+00  0.60761960972E+03  0.60761960972E+03  0.00000000000E+00 0. -1.
         -1   -1    0    0    0  501 -0.00000000000E+00 -0.00000000000E+00 -0.31323211264E+02  0.31323211264E+02  0.00000000000E+00 0. -1.
         36    2    1    2    0    0 -0.35527136788E-14  0.00000000000E+00  0.57629639845E+03  0.63894282098E+03  0.27591736012E+03 0.  0.
         25    2    3    3    0    0  0.14574863374E+02 -0.50602258138E+02  0.27401240459E+03  0.30623597799E+03  0.12619295217E+03 0.  0.
         25    2    3    3    0    0 -0.14574863374E+02  0.50602258138E+02  0.30228399386E+03  0.33270684299E+03  0.12862820552E+03 0.  0.
          5    1    4    4  502    0  0.43716675118E+02 -0.55079117687E+02  0.67534584617E+02  0.97610793501E+02  0.47000000000E+01 0. -1.
         -5    1    4    4    0  502 -0.29141811744E+02  0.44768595493E+01  0.20647781997E+03  0.20862518449E+03  0.47000000000E+01 0. -1.
          5    1    5    5  503    0 -0.45947976071E+02  0.72520322555E+02  0.12791705962E+03  0.15412747267E+03  0.47000000000E+01 0. -1.
         -5    1    5    5    0  503  0.31373112697E+02 -0.21918064417E+02  0.17436693424E+03  0.17857937032E+03  0.47000000000E+01 0. -1.
<mgrwt>
<rscale>  0 0.27591736E+03</rscale>
<asrwt>0</asrwt>
<pdfrwt beam="1">  1        1 0.93479931E-01 0.27591736E+03</pdfrwt>
<pdfrwt beam="2">  1       -1 0.48189560E-02 0.27591736E+03</pdfrwt>
<totfact> 0.64059684E+03</totfact>
</mgrwt>
</event>
<event>
 9    1  0.2054950E-002  0.2749903E+03  0.7818608E-02  0.1098457E+00
         -1   -1    0    0    0  501 -0.00000000000E+00  0.00000000000E+00  0.79169268657E+01  0.79169268657E+01  0.00000000000E+00 0. -1.
          1   -1    0    0  501    0  0.00000000000E+00 -0.00000000000E+00 -0.23879108002E+04  0.23879108002E+04  0.00000000000E+00 0. -1.
         36    2    1    2    0    0  0.35527136788E-14 -0.71054273576E-14 -0.23799938734E+04  0.23958277271E+04  0.27499029196E+03 0.  0.
         25    2    3    3    0    0  0.27863260861E+02  0.53677292018E+02 -0.11716818492E+04  0.11800239418E+04  0.12633500936E+03 0.  0.
         25    2    3    3    0    0 -0.27863260861E+02 -0.53677292018E+02 -0.12083120242E+04  0.12158037853E+04  0.12042957907E+03 0.  0.
          5    1    4    4  502    0  0.33869829908E+02  0.76339506155E+02 -0.43588111243E+03  0.44383478880E+03  0.47000000000E+01 0.  1.
         -5    1    4    4    0  502 -0.60065690470E+01 -0.22662214137E+02 -0.73580073675E+03  0.73618915302E+03  0.47000000000E+01 0.  1.
          5    1    5    5  503    0 -0.42985895887E+02  0.27655310118E+02 -0.51785166444E+03  0.52038931560E+03  0.47000000000E+01 0. -1.
         -5    1    5    5    0  503  0.15122635026E+02 -0.81332602135E+02 -0.69046035976E+03  0.69541446969E+03  0.47000000000E+01 0. -1.
<mgrwt>
<rscale>  0 0.27499029E+03</rscale>
<asrwt>0</asrwt>
<pdfrwt beam="1">  1        1 0.36737052E+00 0.27499029E+03</pdfrwt>
<pdfrwt beam="2">  1       -1 0.12179900E-02 0.27499029E+03</pdfrwt>
<totfact> 0.26587817E+03</totfact>
</mgrwt>
</event>
<event>
 9    1  0.2054950E-002  0.2748582E+03  0.7818608E-02  0.1098531E+00
          1   -1    0    0  501    0  0.00000000000E+00  0.00000000000E+00  0.39457320682E+03  0.39457320682E+03  0.00000000000E+00 0. -1.
         -1   -1    0    0    0  501 -0.00000000000E+00 -0.00000000000E+00 -0.47866285877E+02  0.47866285877E+02  0.00000000000E+00 0. -1.
         36    2    1    2    0    0 -0.71054273576E-14 -0.35527136788E-14  0.34670692094E+03  0.44243949270E+03  0.27485817373E+03 0.  0.
         25    2    3    3    0    0 -0.39682604444E+02 -0.25802166799E+02  0.10600754694E+03  0.17038773738E+03  0.12471535645E+03 0.  0.
         25    2    3    3    0    0  0.39682604444E+02  0.25802166799E+02  0.24069937400E+03  0.27205175531E+03  0.11762443632E+03 0.  0.
          5    1    4    4  502    0  0.30371480677E+02  0.11344842907E+02  0.80579242920E+02  0.86984117451E+02  0.47000000000E+01 0.  1.
         -5    1    4    4    0  502 -0.70054085120E+02 -0.37147009706E+02  0.25428304021E+02  0.83403619930E+02  0.47000000000E+01 0.  1.
          5    1    5    5  503    0  0.33352723740E+02  0.31481598757E+02  0.25255179801E+03  0.25672552643E+03  0.47000000000E+01 0. -1.
         -5    1    5    5    0  503  0.63298807039E+01 -0.56794319580E+01 -0.11852424008E+02  0.15326228889E+02  0.47000000000E+01 0. -1.
<mgrwt>
<rscale>  0 0.27485817E+03</rscale>
<asrwt>0</asrwt>
<pdfrwt beam="1">  1        1 0.60703568E-01 0.27485817E+03</pdfrwt>
<pdfrwt beam="2">  1       -1 0.73640442E-02 0.27485817E+03</pdfrwt>
<totfact> 0.59946262E+03</totfact>
</mgrwt>
</event>
<event>
 9    1  0.2054950E-002  0.2749387E+03  0.7818608E-02  0.1098486E+00
          2   -1    0    0  501    0  0.00000000000E+00  0.00000000000E+00  0.19323577763E+04  0.19323577763E+04  0.00000000000E+00 0.  1.
         -2   -1    0    0    0  501 -0.00000000000E+00 -0.00000000000E+00 -0.97796726671E+01  0.97796726671E+01  0.00000000000E+00 0.  1.
         36    2    1    2    0    0  0.00000000000E+00  0.00000000000E+00  0.19225781036E+04  0.19421374489E+04  0.27493873156E+03 0.  0.
         25    2    3    3    0    0 -0.10472724546E+02 -0.58238395461E+02  0.10487227790E+04  0.10575052006E+04  0.12245976246E+03 0.  0.
         25    2    3    3    0    0  0.10472724546E+02  0.58238395461E+02  0.87385532460E+03  0.88463224834E+03  0.12429681335E+03 0.  0.
          5    1    4    4  502    0  0.32187946374E+02 -0.68501770366E+01  0.82218221628E+02  0.88684354792E+02  0.47000000000E+01 0. -1.
         -5    1    4    4    0  502 -0.42660670920E+02 -0.51388218424E+02  0.96650455736E+03  0.96882084579E+03  0.47000000000E+01 0. -1.
          5    1    5    5  503    0  0.33838033352E+02 -0.22658390599E+02  0.13800228601E+03  0.14396227321E+03  0.47000000000E+01 0.  1.
         -5    1    5    5    0  503 -0.23365308805E+02  0.80896786059E+02  0.73585303859E+03  0.74066997513E+03  0.47000000000E+01 0.  1.
<mgrwt>
<rscale>  0 0.27493873E+03</rscale>
<asrwt>0</asrwt>
<pdfrwt beam="1">  1        2 0.29728551E+00 0.27493873E+03</pdfrwt>
<pdfrwt beam="2">  1       -2 0.15045666E-02 0.27493873E+03</pdfrwt>
<totfact> 0.94712757E+03</totfact>
</mgrwt>
</event>
<event>
 9    1  0.2054950E-002  0.2750052E+03  0.7818608E-02  0.1098449E+00
          1   -1    0    0  501    0  0.00000000000E+00  0.00000000000E+00  0.37571772473E+03  0.37571772473E+03  0.00000000000E+00 0. -1.
         -1   -1    0    0    0  501 -0.00000000000E+00 -0.00000000000E+00 -0.50322265321E+02  0.50322265321E+02  0.00000000000E+00 0. -1.
         36    2    1    2    0    0  0.71054273576E-14  0.17763568394E-14  0.32539545940E+03  0.42603999005E+03  0.27500521471E+03 0.  0.
         25    2    3    3    0    0 -0.38201281335E+02  0.63807254786E+01  0.16047241815E+03  0.20953370779E+03  0.12904621715E+03 0.  0.
         25    2    3    3    0    0  0.38201281335E+02 -0.63807254786E+01  0.16492304126E+03  0.21650628226E+03  0.13481583426E+03 0.  0.
          5    1    4    4  502    0  0.37470831578E+02 -0.17139528317E+02  0.15544331385E+02  0.44289308961E+02  0.47000000000E+01 0.  1.
         -5    1    4    4    0  502 -0.75672112912E+02  0.23520253796E+02  0.14492808676E+03  0.16524439883E+03  0.47000000000E+01 0.  1.
          5    1    5    5  503    0  0.59608499201E+02 -0.14913973943E+02  0.17885222279E+03  0.18917137044E+03  0.47000000000E+01 0. -1.
         -5    1    5    5    0  503 -0.21407217866E+02  0.85332484645E+01 -0.13929181532E+02  0.27334911821E+02  0.47000000000E+01 0. -1.
<mgrwt>
<rscale>  0 0.27500521E+03</rscale>
<asrwt>0</asrwt>
<pdfrwt beam="1">  1        1 0.57802725E-01 0.27500521E+03</pdfrwt>
<pdfrwt beam="2">  1       -1 0.77418872E-02 0.27500521E+03</pdfrwt>
<totfact> 0.59133822E+03</totfact>
</mgrwt>
</event>
<event>
 9    1  0.2054950E-002  0.2731261E+03  0.7818608E-02  0.1099504E+00
         -2   -1    0    0    0  501 -0.00000000000E+00  0.00000000000E+00  0.61816002334E+02  0.61816002334E+02  0.00000000000E+00 0.  1.
          2   -1    0    0  501    0  0.00000000000E+00 -0.00000000000E+00 -0.30169326909E+03  0.30169326909E+03  0.00000000000E+00 0.  1.
         36    2    1    2    0    0  0.00000000000E+00  0.00000000000E+00 -0.23987726675E+03  0.36350927142E+03  0.27312613808E+03 0.  0.
         25    2    3    3    0    0 -0.28590237745E+02  0.39093168311E+02 -0.13110454987E+03  0.18513923544E+03  0.12141851589E+03 0.  0.
         25    2    3    3    0    0  0.28590237745E+02 -0.39093168311E+02 -0.10877271689E+03  0.17837003598E+03  0.13281072357E+03 0.  0.
          5    1    4    4  502    0 -0.39092202510E+02  0.58403808071E+02 -0.22072086917E+02  0.73813766434E+02  0.47000000000E+01 0.  1.
         -5    1    4    4    0  502  0.10501964765E+02 -0.19310639760E+02 -0.10903246295E+03  0.11132546900E+03  0.47000000000E+01 0.  1.
          5    1    5    5  503    0  0.25307093430E+01  0.29748277776E+02  0.15416888945E+02  0.33928380232E+02  0.47000000000E+01 0. -1.
         -5    1    5    5    0  503  0.26059528402E+02 -0.68841446087E+02 -0.12418960583E+03  0.14444165575E+03  0.47000000000E+01 0. -1.
<mgrwt>
<rscale>  0 0.27312614E+03</rscale>
<asrwt>0</asrwt>
<pdfrwt beam="1">  1        2 0.46414350E-01 0.27312614E+03</pdfrwt>
<pdfrwt beam="2">  1       -2 0.95101541E-02 0.27312614E+03</pdfrwt>
<totfact> 0.77520063E+03</totfact>
</mgrwt>
</event>
<event>
 9    1  0.2054950E-002  0.2750546E+03  0.7818608E-02  0.1098421E+00
         -2   -1    0    0    0  501 -0.00000000000E+00  0.00000000000E+00  0.49037378769E+02  0.49037378769E+02  0.00000000000E+00 0.  1.
          2   -1    0    0  501    0  0.00000000000E+00 -0.00000000000E+00 -0.38570092848E+03  0.38570092848E+03  0.00000000000E+00 0.  1.
         36    2    1    2    0    0 -0.14210854715E-13  0.10658141036E-13 -0.33666354971E+03  0.43473830724E+03  0.27505463109E+03 0.  0.
         25    2    3    3    0    0 -0.58065558295E+02  0.25362584721E+02 -0.18378748272E+03  0.22847504702E+03  0.12003390581E+03 0.  0.
         25    2    3    3    0    0  0.58065558295E+02 -0.25362584721E+02 -0.15287606698E+03  0.20626326022E+03  0.12312014822E+03 0.  0.
          5    1    4    4  502    0  0.15481894893E+02 -0.31617425840E+02 -0.21981245850E+02  0.41768598916E+02  0.47000000000E+01 0.  1.
         -5    1    4    4    0  502 -0.73547453188E+02  0.56980010561E+02 -0.16180623687E+03  0.18670644811E+03  0.47000000000E+01 0.  1.
          5    1    5    5  503    0 -0.10439722909E+02 -0.53044935165E+02 -0.27937106735E+02  0.61035439654E+02  0.47000000000E+01 0.  1.
         -5    1    5    5    0  503  0.68505281203E+02  0.27682350444E+02 -0.12493896025E+03  0.14522782057E+03  0.47000000000E+01 0.  1.
<mgrwt>
<rscale>  0 0.27505463E+03</rscale>
<asrwt>0</asrwt>
<pdfrwt beam="1">  1        2 0.59338605E-01 0.27505463E+03</pdfrwt>
<pdfrwt beam="2">  1       -2 0.75442121E-02 0.27505463E+03</pdfrwt>
<totfact> 0.85555573E+03</totfact>
</mgrwt>
</event>
<event>
 9    1  0.2054950E-002  0.2752738E+03  0.7818608E-02  0.1098299E+00
         -2   -1    0    0    0  501 -0.00000000000E+00  0.00000000000E+00  0.12273985598E+02  0.12273985598E+02  0.00000000000E+00 0.  1.
          2   -1    0    0  501    0  0.00000000000E+00 -0.00000000000E+00 -0.15434196208E+04  0.15434196208E+04  0.00000000000E+00 0.  1.
         36    2    1    2    0    0 -0.71054273576E-14  0.00000000000E+00 -0.15311456352E+04  0.15556936064E+04  0.27527375608E+03 0.  0.
         25    2    3    3    0    0 -0.43844262832E+02 -0.26228897270E+02 -0.74645662503E+03  0.75911019665E+03  0.12822060357E+03 0.  0.
         25    2    3    3    0    0  0.43844262832E+02  0.26228897270E+02 -0.78468901017E+03  0.79658340974E+03  0.12727140903E+03 0.  0.
          5    1    4    4  502    0 -0.21951856450E+02  0.28665679215E+02 -0.60606574834E+02  0.70702560629E+02  0.47000000000E+01 0.  1.
         -5    1    4    4    0  502 -0.21892406382E+02 -0.54894576486E+02 -0.68585005019E+03  0.68840763602E+03  0.47000000000E+01 0.  1.
          5    1    5    5  503    0  0.48074321223E+02  0.17293166858E+02 -0.78393355219E+03  0.78561065308E+03  0.47000000000E+01 0. -1.
         -5    1    5    5    0  503 -0.42300583913E+01  0.89357304122E+01 -0.75545797987E+00  0.10972756662E+02  0.47000000000E+01 0. -1.
<mgrwt>
<rscale>  0 0.27527376E+03</rscale>
<asrwt>0</asrwt>
<pdfrwt beam="1">  1        2 0.23744915E+00 0.27527376E+03</pdfrwt>
<pdfrwt beam="2">  1       -2 0.18883057E-02 0.27527376E+03</pdfrwt>
<totfact> 0.10881875E+04</totfact>
</mgrwt>
</event>
<event>
 9    1  0.2054950E-002  0.2753861E+03  0.7818608E-02  0.1098236E+00
         -2   -1    0    0    0  501 -0.00000000000E+00  0.00000000000E+00  0.25052279881E+02  0.25052279881E+02  0.00000000000E+00 0. -1.
          2   -1    0    0  501    0  0.00000000000E+00 -0.00000000000E+00 -0.75679244764E+03  0.75679244764E+03  0.00000000000E+00 0. -1.
         36    2    1    2    0    0 -0.71054273576E-14  0.00000000000E+00 -0.73174016776E+03  0.78184472752E+03  0.27538610139E+03 0.  0.
         25    2    3    3    0    0 -0.27337705623E+02  0.41922399236E+01 -0.45722016706E+03  0.47482973206E+03  0.12509223900E+03 0.  0.
         25    2    3    3    0    0  0.27337705623E+02 -0.41922399236E+01 -0.27452000069E+03  0.30701499545E+03  0.13465530672E+03 0.  0.
          5    1    4    4  502    0  0.13085423007E+02  0.57877840732E+02 -0.18209648919E+03  0.19157842811E+03  0.47000000000E+01 0.  1.
         -5    1    4    4    0  502 -0.40423128630E+02 -0.53685600808E+02 -0.27512367788E+03  0.28325130395E+03  0.47000000000E+01 0.  1.
          5    1    5    5  503    0 -0.11258237125E+02 -0.63667422730E+02 -0.10789796006E+03  0.12587433577E+03  0.47000000000E+01 0. -1.
         -5    1    5    5    0  503  0.38595942748E+02  0.59475182807E+02 -0.16662204063E+03  0.18114065968E+03  0.47000000000E+01 0. -1.
<mgrwt>
<rscale>  0 0.27538610E+03</rscale>
<asrwt>0</asrwt>
<pdfrwt beam="1">  1        2 0.11642961E+00 0.27538610E+03</pdfrwt>
<pdfrwt beam="2">  1       -2 0.38541969E-02 0.27538610E+03</pdfrwt>
<totfact> 0.11027185E+04</totfact>
</mgrwt>
</event>
<event>
 9    1  0.2054950E-002  0.2747968E+03  0.7818608E-02  0.1098565E+00
          1   -1    0    0  501    0  0.00000000000E+00  0.00000000000E+00  0.68450432539E+03  0.68450432539E+03  0.00000000000E+00 0. -1.
         -1   -1    0    0    0  501 -0.00000000000E+00 -0.00000000000E+00 -0.27579555279E+02  0.27579555279E+02  0.00000000000E+00 0. -1.
         36    2    1    2    0    0  0.00000000000E+00  0.00000000000E+00  0.65692477011E+03  0.71208388067E+03  0.27479683317E+03 0.  0.
         25    2    3    3    0    0  0.19096683633E+02 -0.72356616213E+02  0.27184715067E+03  0.30817333863E+03  0.12437753045E+03 0.  0.
         25    2    3    3    0    0 -0.19096683633E+02  0.72356616213E+02  0.38507761944E+03  0.40391054204E+03  0.96222605127E+02 0.  0.
          5    1    4    4  502    0 -0.49293329137E+02 -0.55836389682E+02  0.14168242610E+03  0.16013598776E+03  0.47000000000E+01 0. -1.
         -5    1    4    4    0  502  0.68390012769E+02 -0.16520226531E+02  0.13016472457E+03  0.14803735087E+03  0.47000000000E+01 0. -1.
          5    1    5    5  503    0  0.20252276237E+02  0.78802237023E+02  0.26985841380E+03  0.28189643621E+03  0.47000000000E+01 0.  1.
         -5    1    5    5    0  503 -0.39348959869E+02 -0.64456208098E+01  0.11521920564E+03  0.12201410582E+03  0.47000000000E+01 0.  1.
<mgrwt>
<rscale>  0 0.27479683E+03</rscale>
<asrwt>0</asrwt>
<pdfrwt beam="1">  1        1 0.10530834E+00 0.27479683E+03</pdfrwt>
<pdfrwt beam="2">  1       -1 0.42430090E-02 0.27479683E+03</pdfrwt>
<totfact> 0.65402807E+03</totfact>
</mgrwt>
</event>
<event>
 9    1  0.2054950E-002  0.2739407E+03  0.7818608E-02  0.1099045E+00
         -4   -1    0    0    0  501 -0.00000000000E+00  0.00000000000E+00  0.19301889482E+03  0.19301889482E+03  0.00000000000E+00 0. -1.
          4   -1    0    0  501    0  0.00000000000E+00 -0.00000000000E+00 -0.97197084177E+02  0.97197084177E+02  0.00000000000E+00 0. -1.
         36    2    1    2    0    0 -0.17763568394E-14  0.00000000000E+00  0.95821810641E+02  0.29021597899E+03  0.27394067801E+03 0.  0.
         25    2    3    3    0    0  0.48420597280E+01 -0.47981965987E+02  0.20861187092E+02  0.13611842299E+03  0.12556799492E+03 0.  0.
         25    2    3    3    0    0 -0.48420597280E+01  0.47981965987E+02  0.74960623548E+02  0.15409755600E+03  0.12570301143E+03 0.  0.
          5    1    4    4  502    0  0.16535376627E+02 -0.74555008128E+02 -0.25986887774E+02  0.80803937116E+02  0.47000000000E+01 0. -1.
         -5    1    4    4    0  502 -0.11693316899E+02  0.26573042141E+02  0.46848074866E+02  0.55314485873E+02  0.47000000000E+01 0. -1.
          5    1    5    5  503    0 -0.25270815256E+02 -0.20330989058E+02 -0.17571485417E+02  0.37186157634E+02  0.47000000000E+01 0. -1.
         -5    1    5    5    0  503  0.20428755528E+02  0.68312955046E+02  0.92532108966E+02  0.11691139837E+03  0.47000000000E+01 0. -1.
<mgrwt>
<rscale>  0 0.27394068E+03</rscale>
<asrwt>0</asrwt>
<pdfrwt beam="1">  1        4 0.14953398E-01 0.27394068E+03</pdfrwt>
<pdfrwt beam="2">  1       -4 0.29695214E-01 0.27394068E+03</pdfrwt>
<totfact> 0.77010579E+02</totfact>
</mgrwt>
</event>
<event>
 9    1  0.2054950E-002  0.2760935E+03  0.7818608E-02  0.1097842E+00
         -1   -1    0    0    0  501 -0.00000000000E+00  0.00000000000E+00  0.34051619167E+03  0.34051619167E+03  0.00000000000E+00 0. -1.
          1   -1    0    0  501    0  0.00000000000E+00 -0.00000000000E+00 -0.55964736954E+02  0.55964736954E+02  0.00000000000E+00 0. -1.
         36    2    1    2    0    0  0.71054273576E-14  0.35527136788E-14  0.28455145471E+03  0.39648092862E+03  0.27609345588E+03 0.  0.
         25    2    3    3    0    0  0.40039569667E+02 -0.13918347727E+02  0.21679703299E+03  0.25354692405E+03  0.12445160360E+03 0.  0.
         25    2    3    3    0    0 -0.40039569667E+02  0.13918347727E+02  0.67754421729E+02  0.14293400458E+03  0.11850139433E+03 0.  0.
          5    1    4    4  502    0  0.20964534551E+02 -0.67542624881E+02  0.90610050383E+02  0.11503820720E+03  0.47000000000E+01 0. -1.
         -5    1    4    4    0  502  0.19075035116E+02  0.53624277154E+02  0.12618698260E+03  0.13850871685E+03  0.47000000000E+01 0. -1.
          5    1    5    5  503    0 -0.70468399092E+02 -0.19374076266E+02  0.17601597032E+02  0.75319694103E+02  0.47000000000E+01 0.  1.
         -5    1    5    5    0  503  0.30428829425E+02  0.33292423993E+02  0.50152824697E+02  0.67614310472E+02  0.47000000000E+01 0.  1.
<mgrwt>
<rscale>  0 0.27609346E+03</rscale>
<asrwt>0</asrwt>
<pdfrwt beam="1">  1        1 0.86099597E-02 0.27609346E+03</pdfrwt>
<pdfrwt beam="2">  1       -1 0.52387105E-01 0.27609346E+03</pdfrwt>
<totfact> 0.29507530E+03</totfact>
</mgrwt>
</event>
<event>
 9    1  0.2054950E-002  0.2749022E+03  0.7818608E-02  0.1098506E+00
         -1   -1    0    0    0  501 -0.00000000000E+00  0.00000000000E+00  0.83844164438E+03  0.83844164438E+03  0.00000000000E+00 0. -1.
          1   -1    0    0  501    0  0.00000000000E+00 -0.00000000000E+00 -0.22533241631E+02  0.22533241631E+02  0.00000000000E+00 0. -1.
         36    2    1    2    0    0  0.17763568394E-14  0.00000000000E+00  0.81590840275E+03  0.86097488601E+03  0.27490222383E+03 0.  0.
         25    2    3    3    0    0  0.87987242874E+01 -0.58159508315E+02  0.43162988981E+03  0.45303033390E+03  0.12438720071E+03 0.  0.
         25    2    3    3    0    0 -0.87987242874E+01  0.58159508315E+02  0.38427851294E+03  0.40794455211E+03  0.12364803327E+03 0.  0.
          5    1    4    4  502    0  0.69945104501E+01  0.36098716538E+02  0.69121076688E+02  0.78433753925E+02  0.47000000000E+01 0. -1.
         -5    1    4    4    0  502  0.18042138373E+01 -0.94258224853E+02  0.36250881312E+03  0.37459657998E+03  0.47000000000E+01 0. -1.
          5    1    5    5  503    0  0.11878730925E+02  0.53400447403E+02  0.54202327951E+02  0.77153706239E+02  0.47000000000E+01 0.  1.
         -5    1    5    5    0  503 -0.20677455212E+02  0.47590609123E+01  0.33007618499E+03  0.33079084587E+03  0.47000000000E+01 0.  1.
<mgrwt>
<rscale>  0 0.27490222E+03</rscale>
<asrwt>0</asrwt>
<pdfrwt beam="1">  1        1 0.34666532E-02 0.27490222E+03</pdfrwt>
<pdfrwt beam="2">  1       -1 0.12899100E+00 0.27490222E+03</pdfrwt>
<totfact> 0.15420704E+03</totfact>
</mgrwt>
</event>
<event>
 9    1  0.2054950E-002  0.2748606E+03  0.7818608E-02  0.1098530E+00
          1   -1    0    0  501    0  0.00000000000E+00  0.00000000000E+00  0.11185896471E+04  0.11185896471E+04  0.00000000000E+00 0. -1.
         -1   -1    0    0    0  501 -0.00000000000E+00 -0.00000000000E+00 -0.16884729836E+02  0.16884729836E+02  0.00000000000E+00 0. -1.
         36    2    1    2    0    0  0.00000000000E+00  0.00000000000E+00  0.11017049172E+04  0.11354743769E+04  0.27486057548E+03 0.  0.
         25    2    3    3    0    0 -0.42045002704E+01 -0.55844508186E+02  0.57440636668E+03  0.59103125229E+03  0.12743225721E+03 0.  0.
         25    2    3    3    0    0  0.42045002704E+01  0.55844508186E+02  0.52729855054E+03  0.54444312461E+03  0.12344337818E+03 0.  0.
          5    1    4    4  502    0 -0.40556350884E+02  0.26750501777E+02  0.19656096551E+03  0.20253076336E+03  0.47000000000E+01 0.  1.
         -5    1    4    4    0  502  0.36351850614E+02 -0.82595009963E+02  0.37784540117E+03  0.38850048893E+03  0.47000000000E+01 0.  1.
          5    1    5    5  503    0  0.13762494608E+02  0.92582735094E+02  0.31194225998E+03  0.32571618421E+03  0.47000000000E+01 0. -1.
         -5    1    5    5    0  503 -0.95579943380E+01 -0.36738226908E+02  0.21535629057E+03  0.21872694040E+03  0.47000000000E+01 0. -1.
<mgrwt>
<rscale>  0 0.27486058E+03</rscale>
<asrwt>0</asrwt>
<pdfrwt beam="1">  1        1 0.17209066E+00 0.27486058E+03</pdfrwt>
<pdfrwt beam="2">  1       -1 0.25976516E-02 0.27486058E+03</pdfrwt>
<totfact> 0.61033345E+03</totfact>
</mgrwt>
</event>
<event>
 9    1  0.2054950E-002  0.2723565E+03  0.7818608E-02  0.1099938E+00
         -1   -1    0    0    0  501 -0.00000000000E+00  0.00000000000E+00  0.16222902624E+03  0.16222902624E+03  0.00000000000E+00 0.  1.
          1   -1    0    0  501    0  0.00000000000E+00 -0.00000000000E+00 -0.11431068332E+03  0.11431068332E+03  0.00000000000E+00 0.  1.
         36    2    1    2    0    0  0.00000000000E+00 -0.71054273576E-14  0.47918342922E+02  0.27653970956E+03  0.27235646380E+03 0.  0.
         25    2    3    3    0    0  0.26539530858E+02 -0.43562419608E+02  0.38407689848E+02  0.13896166532E+03  0.12342269925E+03 0.  0.
         25    2    3    3    0    0 -0.26539530858E+02  0.43562419608E+02  0.95106530744E+01  0.13757804423E+03  0.12741756014E+03 0.  0.
          5    1    4    4  502    0 -0.41335467429E+02 -0.12425157394E+01 -0.13189560237E+02  0.43660270409E+02  0.47000000000E+01 0. -1.
         -5    1    4    4    0  502  0.67874998286E+02 -0.42319903869E+02  0.51597250085E+02  0.95301394912E+02  0.47000000000E+01 0. -1.
          5    1    5    5  503    0  0.27314612093E+02 -0.30221619142E+02 -0.13657995047E+02  0.43221118982E+02  0.47000000000E+01 0. -1.
         -5    1    5    5    0  503 -0.53854142951E+02  0.73784038751E+02  0.23168648121E+02  0.94356925252E+02  0.47000000000E+01 0. -1.
<mgrwt>
<rscale>  0 0.27235646E+03</rscale>
<asrwt>0</asrwt>
<pdfrwt beam="1">  1        1 0.17586259E-01 0.27235646E+03</pdfrwt>
<pdfrwt beam="2">  1       -1 0.24958312E-01 0.27235646E+03</pdfrwt>
<totfact> 0.41911503E+03</totfact>
</mgrwt>
</event>
<event>
 9    1  0.2054950E-002  0.2745097E+03  0.7818608E-02  0.1098726E+00
         -2   -1    0    0    0  501 -0.00000000000E+00  0.00000000000E+00  0.52829608873E+02  0.52829608873E+02  0.00000000000E+00 0. -1.
          2   -1    0    0  501    0  0.00000000000E+00 -0.00000000000E+00 -0.35659722151E+03  0.35659722151E+03  0.00000000000E+00 0. -1.
         36    2    1    2    0    0 -0.35527136788E-14  0.00000000000E+00 -0.30376761263E+03  0.40942683038E+03  0.27450968462E+03 0.  0.
         25    2    3    3    0    0  0.65693341030E+01 -0.34526995846E+01 -0.81572646435E+02  0.15474194799E+03  0.13128555341E+03 0.  0.
         25    2    3    3    0    0 -0.65693341030E+01  0.34526995846E+01 -0.22219496620E+03  0.25468488239E+03  0.12425260171E+03 0.  0.
          5    1    4    4  502    0 -0.34418004946E+02  0.30411928764E+02 -0.89572443753E+02  0.10077101347E+03  0.47000000000E+01 0. -1.
         -5    1    4    4    0  502  0.40987339049E+02 -0.33864628349E+02  0.79997973175E+01  0.53970934517E+02  0.47000000000E+01 0. -1.
          5    1    5    5  503    0 -0.20588210621E+02 -0.54927004888E+02 -0.14703545339E+03  0.15837412931E+03  0.47000000000E+01 0. -1.
         -5    1    5    5    0  503  0.14018876518E+02  0.58379704473E+02 -0.75159512812E+02  0.96310753083E+02  0.47000000000E+01 0. -1.
<mgrwt>
<rscale>  0 0.27450968E+03</rscale>
<asrwt>0</asrwt>
<pdfrwt beam="1">  1        2 0.54861113E-01 0.27450968E+03</pdfrwt>
<pdfrwt beam="2">  1       -2 0.81276318E-02 0.27450968E+03</pdfrwt>
<totfact> 0.82911374E+03</totfact>
</mgrwt>
</event>
<event>
 9    1  0.2054950E-002  0.2752672E+03  0.7818608E-02  0.1098302E+00
          1   -1    0    0  501    0  0.00000000000E+00  0.00000000000E+00  0.15804169284E+04  0.15804169284E+04  0.00000000000E+00 0.  1.
         -1   -1    0    0    0  501 -0.00000000000E+00 -0.00000000000E+00 -0.11986083935E+02  0.11986083935E+02  0.00000000000E+00 0.  1.
         36    2    1    2    0    0 -0.14210854715E-13 -0.71054273576E-14  0.15684308445E+04  0.15924030124E+04  0.27526721532E+03 0.  0.
         25    2    3    3    0    0 -0.51451838385E+02  0.94384970764E+01  0.69108781701E+03  0.70417669529E+03  0.12460365353E+03 0.  0.
         25    2    3    3    0    0  0.51451838385E+02 -0.94384970764E+01  0.87734302749E+03  0.88822631708E+03  0.12836987796E+03 0.  0.
          5    1    4    4  502    0  0.14505149452E+02 -0.45791451202E+02  0.21433408039E+03  0.21970080650E+03  0.47000000000E+01 0. -1.
         -5    1    4    4    0  502 -0.65956987837E+02  0.55229948278E+02  0.47675373663E+03  0.48447588879E+03  0.47000000000E+01 0. -1.
          5    1    5    5  503    0  0.58312527698E+02 -0.61554735170E+02  0.58949452656E+03  0.59557973702E+03  0.47000000000E+01 0.  1.
         -5    1    5    5    0  503 -0.68606893128E+01  0.52116238093E+02  0.28784850093E+03  0.29264658006E+03  0.47000000000E+01 0.  1.
<mgrwt>
<rscale>  0 0.27526722E+03</rscale>
<asrwt>0</asrwt>
<pdfrwt beam="1">  1        1 0.24314090E+00 0.27526722E+03</pdfrwt>
<pdfrwt beam="2">  1       -1 0.18440142E-02 0.27526722E+03</pdfrwt>
<totfact> 0.48898046E+03</totfact>
</mgrwt>
</event>
<event>
 9    1  0.2054950E-002  0.2750167E+03  0.7818608E-02  0.1098442E+00
         -1   -1    0    0    0  501 -0.00000000000E+00  0.00000000000E+00  0.57464605981E+03  0.57464605981E+03  0.00000000000E+00 0. -1.
          1   -1    0    0  501    0  0.00000000000E+00 -0.00000000000E+00 -0.32904672850E+02  0.32904672850E+02  0.00000000000E+00 0. -1.
         36    2    1    2    0    0  0.00000000000E+00  0.71054273576E-14  0.54174138696E+03  0.60755073266E+03  0.27501665842E+03 0.  0.
         25    2    3    3    0    0 -0.56926157120E+02  0.27794156725E+02  0.27356523632E+03  0.30701117177E+03  0.12411614946E+03 0.  0.
         25    2    3    3    0    0  0.56926157120E+02 -0.27794156725E+02  0.26817615064E+03  0.30053956088E+03  0.11996865163E+03 0.  0.
          5    1    4    4  502    0  0.35911360020E+02  0.24150427930E+02  0.60602800895E+02  0.74616743590E+02  0.47000000000E+01 0.  1.
         -5    1    4    4    0  502 -0.92837517140E+02  0.36437287950E+01  0.21296243543E+03  0.23239442818E+03  0.47000000000E+01 0.  1.
          5    1    5    5  503    0  0.43934780864E+02  0.38275344733E+02  0.18149704228E+03  0.19067913714E+03  0.47000000000E+01 0.  1.
         -5    1    5    5    0  503  0.12991376256E+02 -0.66069501458E+02  0.86679108361E+02  0.10986042375E+03  0.47000000000E+01 0.  1.
<mgrwt>
<rscale>  0 0.27501666E+03</rscale>
<asrwt>0</asrwt>
<pdfrwt beam="1">  1        1 0.50622578E-02 0.27501666E+03</pdfrwt>
<pdfrwt beam="2">  1       -1 0.88407079E-01 0.27501666E+03</pdfrwt>
<totfact> 0.21570841E+03</totfact>
</mgrwt>
</event>
<event>
 9    1  0.2054950E-002  0.2735308E+03  0.7818608E-02  0.1099276E+00
         -2   -1    0    0    0  501 -0.00000000000E+00  0.00000000000E+00  0.16048784626E+03  0.16048784626E+03  0.00000000000E+00 0.  1.
          2   -1    0    0  501    0  0.00000000000E+00 -0.00000000000E+00 -0.11654949537E+03  0.11654949537E+03  0.00000000000E+00 0.  1.
         36    2    1    2    0    0  0.00000000000E+00  0.00000000000E+00  0.43938350888E+02  0.27703734163E+03  0.27353082089E+03 0.  0.
         25    2    3    3    0    0 -0.54656323676E+02 -0.14747480174E+02 -0.70320557826E+01  0.13042925324E+03  0.11729253345E+03 0.  0.
         25    2    3    3    0    0  0.54656323676E+02  0.14747480174E+02  0.50970406671E+02  0.14660808839E+03  0.12526430991E+03 0.  0.
          5    1    4    4  502    0 -0.82382711783E+02 -0.26368769161E+01  0.24857778660E+02  0.86219855489E+02  0.47000000000E+01 0. -1.
         -5    1    4    4    0  502  0.27726388107E+02 -0.12110603258E+02 -0.31889834442E+02  0.44209397751E+02  0.47000000000E+01 0. -1.
          5    1    5    5  503    0  0.86950271104E+02 -0.77733731989E+00  0.64131352879E+02  0.10814746562E+03  0.47000000000E+01 0.  1.
         -5    1    5    5    0  503 -0.32293947428E+02  0.15524817494E+02 -0.13160946208E+02  0.38460622769E+02  0.47000000000E+01 0.  1.
<mgrwt>
<rscale>  0 0.27353082E+03</rscale>
<asrwt>0</asrwt>
<pdfrwt beam="1">  1        2 0.17930691E-01 0.27353082E+03</pdfrwt>
<pdfrwt beam="2">  1       -2 0.24690438E-01 0.27353082E+03</pdfrwt>
<totfact> 0.45534568E+03</totfact>
</mgrwt>
</event>
<event>
 9    1  0.2054950E-002  0.2749800E+03  0.7818608E-02  0.1098463E+00
         -2   -1    0    0    0  501 -0.00000000000E+00  0.00000000000E+00  0.35566857119E+03  0.35566857119E+03  0.00000000000E+00 0.  1.
          2   -1    0    0  501    0  0.00000000000E+00 -0.00000000000E+00 -0.53149212054E+02  0.53149212054E+02  0.00000000000E+00 0.  1.
         36    2    1    2    0    0 -0.35527136788E-14 -0.35527136788E-14  0.30251935914E+03  0.40881778324E+03  0.27498003063E+03 0.  0.
         25    2    3    3    0    0 -0.21682617960E+02  0.19017542546E+02  0.17836583184E+03  0.22967026671E+03  0.14178243403E+03 0.  0.
         25    2    3    3    0    0  0.21682617960E+02 -0.19017542546E+02  0.12415352730E+03  0.17914751653E+03  0.12588856776E+03 0.  0.
          5    1    4    4  502    0  0.12094168349E+02 -0.12559563936E+01 -0.21914310714E+02  0.25498496986E+02  0.47000000000E+01 0. -1.
         -5    1    4    4    0  502 -0.33776786309E+02  0.20273498940E+02  0.20028014255E+03  0.20417176973E+03  0.47000000000E+01 0. -1.
          5    1    5    5  503    0  0.17878313811E+02  0.40420702954E+02  0.10870017452E+03  0.11743630304E+03  0.47000000000E+01 0.  1.
         -5    1    5    5    0  503  0.38043041492E+01 -0.59438245500E+02  0.15453352780E+02  0.61711213490E+02  0.47000000000E+01 0.  1.
<mgrwt>
<rscale>  0 0.27498003E+03</rscale>
<asrwt>0</asrwt>
<pdfrwt beam="1">  1        2 0.81768021E-02 0.27498003E+03</pdfrwt>
<pdfrwt beam="2">  1       -2 0.54718240E-01 0.27498003E+03</pdfrwt>
<totfact> 0.26367293E+03</totfact>
</mgrwt>
</event>
<event>
 9    1  0.2054950E-002  0.2745651E+03  0.7818608E-02  0.1098695E+00
          1   -1    0    0  501    0  0.00000000000E+00  0.00000000000E+00  0.37961494848E+04  0.37961494848E+04  0.00000000000E+00 0.  1.
         -1   -1    0    0    0  501 -0.00000000000E+00 -0.00000000000E+00 -0.49646371989E+01  0.49646371989E+01  0.00000000000E+00 0.  1.
         36    2    1    2    0    0  0.00000000000E+00  0.71054273576E-14  0.37911848476E+04  0.38011141220E+04  0.27456514669E+03 0.  0.
         25    2    3    3    0    0  0.50905954465E+02  0.18423201999E+02  0.15309659588E+04  0.15367783262E+04  0.12206566384E+03 0.  0.
         25    2    3    3    0    0 -0.50905954465E+02 -0.18423201999E+02  0.22602188888E+04  0.22643357958E+04  0.12528503617E+03 0.  0.
          5    1    4    4  502    0  0.72985497117E+01  0.52025710414E+02  0.12056832226E+04  0.12068363877E+04  0.47000000000E+01 0.  1.
         -5    1    4    4    0  502  0.43607404753E+02 -0.33602508415E+02  0.32528273618E+03  0.32994193850E+03  0.47000000000E+01 0.  1.
          5    1    5    5  503    0  0.41244144168E+02  0.13501021438E+01  0.59808399351E+03  0.59952435772E+03  0.47000000000E+01 0.  1.
         -5    1    5    5    0  503 -0.92150098633E+02 -0.19773304143E+02  0.16621348953E+04  0.16648114381E+04  0.47000000000E+01 0.  1.
<mgrwt>
<rscale>  0 0.27456515E+03</rscale>
<asrwt>0</asrwt>
<pdfrwt beam="1">  1        1 0.58402068E+00 0.27456515E+03</pdfrwt>
<pdfrwt beam="2">  1       -1 0.76379337E-03 0.27456515E+03</pdfrwt>
<totfact> 0.51237775E+02</totfact>
</mgrwt>
</event>
<event>
 9    1  0.2054950E-002  0.2774431E+03  0.7818608E-02  0.1097094E+00
         -2   -1    0    0    0  501 -0.00000000000E+00  0.00000000000E+00  0.15431662031E+02  0.15431662031E+02  0.00000000000E+00 0.  1.
          2   -1    0    0  501    0  0.00000000000E+00 -0.00000000000E+00 -0.12470248763E+04  0.12470248763E+04  0.00000000000E+00 0.  1.
         36    2    1    2    0    0  0.00000000000E+00 -0.35527136788E-14 -0.12315932143E+04  0.12624565384E+04  0.27744308559E+03 0.  0.
         25    2    3    3    0    0 -0.50884746998E+02 -0.20191735356E+01 -0.79309479278E+03  0.80375326055E+03  0.12011086116E+03 0.  0.
         25    2    3    3    0    0  0.50884746998E+02  0.20191735356E+01 -0.43849842152E+03  0.45870327782E+03  0.12463746171E+03 0.  0.
          5    1    4    4  502    0  0.15203939254E+02 -0.33564215430E+02 -0.98134066145E+02  0.10492902966E+03  0.47000000000E+01 0. -1.
         -5    1    4    4    0  502 -0.66088686252E+02  0.31545041895E+02 -0.69496072663E+03  0.69882423089E+03  0.47000000000E+01 0. -1.
          5    1    5    5  503    0 -0.24812738439E+02 -0.39938871804E+02 -0.13289042217E+03  0.14104162426E+03  0.47000000000E+01 0. -1.
         -5    1    5    5    0  503  0.75697485437E+02  0.41958045340E+02 -0.30560799936E+03  0.31766165356E+03  0.47000000000E+01 0. -1.
<mgrwt>
<rscale>  0 0.27744309E+03</rscale>
<asrwt>0</asrwt>
<pdfrwt beam="1">  1        2 0.19184996E+00 0.27744309E+03</pdfrwt>
<pdfrwt beam="2">  1       -2 0.23741022E-02 0.27744309E+03</pdfrwt>
<totfact> 0.11264543E+04</totfact>
</mgrwt>
</event>
<event>
 9    1  0.2054950E-002  0.2749140E+03  0.7818608E-02  0.1098500E+00
          2   -1    0    0  501    0  0.00000000000E+00  0.00000000000E+00  0.14826498515E+04  0.14826498515E+04  0.00000000000E+00 0.  1.
         -2   -1    0    0    0  501 -0.00000000000E+00 -0.00000000000E+00 -0.12743690109E+02  0.12743690109E+02  0.00000000000E+00 0.  1.
         36    2    1    2    0    0  0.00000000000E+00  0.35527136788E-14  0.14699061614E+04  0.14953935416E+04  0.27491402473E+03 0.  0.
         25    2    3    3    0    0  0.40788014211E+02  0.16696202475E+02  0.51231201433E+03  0.52879951201E+03  0.12338111115E+03 0.  0.
         25    2    3    3    0    0 -0.40788014211E+02 -0.16696202475E+02  0.95759414708E+03  0.96659402963E+03  0.12399613825E+03 0.  0.
          5    1    4    4  502    0 -0.34826112883E+02  0.15750847079E+02  0.31660227579E+03  0.31893579033E+03  0.47000000000E+01 0. -1.
         -5    1    4    4    0  502  0.75614127094E+02  0.94535539567E+00  0.19570973854E+03  0.20986372167E+03  0.47000000000E+01 0. -1.
          5    1    5    5  503    0 -0.22207472939E+02  0.11107202109E+02  0.33900352113E+02  0.42283160554E+02  0.47000000000E+01 0.  1.
         -5    1    5    5    0  503 -0.18580541272E+02 -0.27803404583E+02  0.92369379497E+03  0.92431086907E+03  0.47000000000E+01 0.  1.
<mgrwt>
<rscale>  0 0.27491402E+03</rscale>
<asrwt>0</asrwt>
<pdfrwt beam="1">  1        2 0.22809984E+00 0.27491402E+03</pdfrwt>
<pdfrwt beam="2">  1       -2 0.19605689E-02 0.27491402E+03</pdfrwt>
<totfact> 0.11096855E+04</totfact>
</mgrwt>
</event>
<event>
 9    1  0.2054950E-002  0.2750689E+03  0.7818608E-02  0.1098413E+00
         -1   -1    0    0    0  501 -0.00000000000E+00  0.00000000000E+00  0.98123453605E+03  0.98123453605E+03  0.00000000000E+00 0.  1.
          1   -1    0    0  501    0  0.00000000000E+00 -0.00000000000E+00 -0.19277469614E+02  0.19277469614E+02  0.00000000000E+00 0.  1.
         36    2    1    2    0    0 -0.71054273576E-14 -0.35527136788E-14  0.96195706644E+03  0.10005120057E+04  0.27506885649E+03 0.  0.
         25    2    3    3    0    0  0.44476730487E+02  0.13218276588E+02  0.61880548993E+03  0.63326232318E+03  0.12628552256E+03 0.  0.
         25    2    3    3    0    0 -0.44476730487E+02 -0.13218276588E+02  0.34315157651E+03  0.36724968248E+03  0.12233733049E+03 0.  0.
          5    1    4    4  502    0  0.14230102687E+02 -0.17872329670E+02  0.14670914781E+02  0.27554341415E+02  0.47000000000E+01 0. -1.
         -5    1    4    4    0  502  0.30246627800E+02  0.31090606258E+02  0.60413457515E+03  0.60570798177E+03  0.47000000000E+01 0. -1.
          5    1    5    5  503    0 -0.14228445267E+02  0.29063753574E+02  0.16823922280E+02  0.36773425016E+02  0.47000000000E+01 0. -1.
         -5    1    5    5    0  503 -0.30248285220E+02 -0.42282030162E+02  0.32632765423E+03  0.33047625747E+03  0.47000000000E+01 0. -1.
<mgrwt>
<rscale>  0 0.27506886E+03</rscale>
<asrwt>0</asrwt>
<pdfrwt beam="1">  1        1 0.29657653E-02 0.27506886E+03</pdfrwt>
<pdfrwt beam="2">  1       -1 0.15095912E+00 0.27506886E+03</pdfrwt>
<totfact> 0.12874774E+03</totfact>
</mgrwt>
</event>
<event>
 9    1  0.2054950E-002  0.2745978E+03  0.7818608E-02  0.1098677E+00
          1   -1    0    0  501    0  0.00000000000E+00  0.00000000000E+00  0.10327154290E+04  0.10327154290E+04  0.00000000000E+00 0. -1.
         -1   -1    0    0    0  501 -0.00000000000E+00 -0.00000000000E+00 -0.18253811723E+02  0.18253811723E+02  0.00000000000E+00 0. -1.
         36    2    1    2    0    0 -0.71054273576E-14  0.00000000000E+00  0.10144616173E+04  0.10509692407E+04  0.27459783688E+03 0.  0.
         25    2    3    3    0    0  0.22169296908E+01  0.20851049415E+02  0.53004296886E+03  0.54945236629E+03  0.14322245965E+03 0.  0.
         25    2    3    3    0    0 -0.22169296908E+01 -0.20851049415E+02  0.48441864841E+03  0.50151687443E+03  0.12813300655E+03 0.  0.
          5    1    4    4  502    0  0.55230973716E+02  0.28831580452E+02  0.11449110724E+03  0.13043015038E+03  0.47000000000E+01 0.  1.
         -5    1    4    4    0  502 -0.53014044025E+02 -0.79805310364E+01  0.41555186162E+03  0.41902221592E+03  0.47000000000E+01 0.  1.
          5    1    5    5  503    0  0.61501384553E+02  0.21117401873E+01  0.21587298839E+03  0.22452197412E+03  0.47000000000E+01 0.  1.
         -5    1    5    5    0  503 -0.63718314244E+02 -0.22962789603E+02  0.26854566003E+03  0.27699490031E+03  0.47000000000E+01 0.  1.
<mgrwt>
<rscale>  0 0.27459784E+03</rscale>
<asrwt>0</asrwt>
<pdfrwt beam="1">  1        1 0.15887925E+00 0.27459784E+03</pdfrwt>
<pdfrwt beam="2">  1       -1 0.28082795E-02 0.27459784E+03</pdfrwt>
<totfact> 0.62830218E+03</totfact>
</mgrwt>
</event>
<event>
 9    1  0.2054950E-002  0.2750328E+03  0.7818608E-02  0.1098433E+00
          1   -1    0    0  501    0  0.00000000000E+00  0.00000000000E+00  0.12934971173E+03  0.12934971173E+03  0.00000000000E+00 0. -1.
         -1   -1    0    0    0  501 -0.00000000000E+00 -0.00000000000E+00 -0.14619868579E+03  0.14619868579E+03  0.00000000000E+00 0. -1.
         36    2    1    2    0    0  0.71054273576E-14  0.71054273576E-14 -0.16848974064E+02  0.27554839752E+03  0.27503278250E+03 0.  0.
         25    2    3    3    0    0  0.37267553054E+02 -0.41102045631E+02 -0.84575988944E+01  0.13772005328E+03  0.12576578800E+03 0.  0.
         25    2    3    3    0    0 -0.37267553054E+02  0.41102045631E+02 -0.83913751700E+01  0.13782834424E+03  0.12588879470E+03 0.  0.
          5    1    4    4  502    0  0.63758806977E+02 -0.24323494872E+02 -0.50526353742E+02  0.85040109904E+02  0.47000000000E+01 0. -1.
         -5    1    4    4    0  502 -0.26491253923E+02 -0.16778550758E+02  0.42068754848E+02  0.52679943379E+02  0.47000000000E+01 0. -1.
          5    1    5    5  503    0 -0.57226607720E+02  0.72675170230E+02  0.14527639256E+02  0.93753438878E+02  0.47000000000E+01 0. -1.
         -5    1    5    5    0  503  0.19959054666E+02 -0.31573124599E+02 -0.22919014426E+02  0.44074905358E+02  0.47000000000E+01 0. -1.
<mgrwt>
<rscale>  0 0.27503278E+03</rscale>
<asrwt>0</asrwt>
<pdfrwt beam="1">  1        1 0.19899956E-01 0.27503278E+03</pdfrwt>
<pdfrwt beam="2">  1       -1 0.22492106E-01 0.27503278E+03</pdfrwt>
<totfact> 0.42434593E+03</totfact>
</mgrwt>
</event>
<event>
 9    1  0.2054950E-002  0.2749211E+03  0.7818608E-02  0.1098496E+00
          2   -1    0    0  501    0  0.00000000000E+00  0.00000000000E+00  0.15410302084E+02  0.15410302084E+02  0.00000000000E+00 0.  1.
         -2   -1    0    0    0  501 -0.00000000000E+00 -0.00000000000E+00 -0.12261540021E+04  0.12261540021E+04  0.00000000000E+00 0.  1.
         36    2    1    2    0    0 -0.35527136788E-14  0.71054273576E-14 -0.12107437000E+04  0.12415643041E+04  0.27492110558E+03 0.  0.
         25    2    3    3    0    0  0.24687348686E+02 -0.24897913679E+02 -0.79617231909E+03  0.80699480572E+03  0.12696804118E+03 0.  0.
         25    2    3    3    0    0 -0.24687348686E+02  0.24897913679E+02 -0.41457138088E+03  0.43456949842E+03  0.12550636566E+03 0.  0.
          5    1    4    4  502    0 -0.78992539426E+00  0.25363042389E+02 -0.64622642882E+03  0.64674152117E+03  0.47000000000E+01 0. -1.
         -5    1    4    4    0  502  0.25477274080E+02 -0.50260956068E+02 -0.14994589027E+03  0.16025328455E+03  0.47000000000E+01 0. -1.
          5    1    5    5  503    0  0.28206889242E+02 -0.32047027170E+02 -0.23425959939E+03  0.23816441896E+03  0.47000000000E+01 0. -1.
         -5    1    5    5    0  503 -0.52894237928E+02  0.56944940850E+02 -0.18031178149E+03  0.19640507946E+03  0.47000000000E+01 0. -1.
<mgrwt>
<rscale>  0 0.27492111E+03</rscale>
<asrwt>0</asrwt>
<pdfrwt beam="1">  1        2 0.23708158E-02 0.27492111E+03</pdfrwt>
<pdfrwt beam="2">  1       -2 0.18863907E+00 0.27492111E+03</pdfrwt>
<totfact> 0.73866406E+02</totfact>
</mgrwt>
</event>
<event>
 9    1  0.2054950E-002  0.2743450E+03  0.7818608E-02  0.1098818E+00
         -2   -1    0    0    0  501 -0.00000000000E+00  0.00000000000E+00  0.51600767689E+02  0.51600767689E+02  0.00000000000E+00 0.  1.
          2   -1    0    0  501    0  0.00000000000E+00 -0.00000000000E+00 -0.36465146122E+03  0.36465146122E+03  0.00000000000E+00 0.  1.
         36    2    1    2    0    0 -0.35527136788E-14  0.00000000000E+00 -0.31305069353E+03  0.41625222891E+03  0.27434500424E+03 0.  0.
         25    2    3    3    0    0  0.39088755566E+01 -0.25745913561E+02 -0.19909133093E+03  0.24035213986E+03  0.13211230719E+03 0.  0.
         25    2    3    3    0    0 -0.39088755566E+01  0.25745913561E+02 -0.11395936260E+03  0.17590008905E+03  0.13143809809E+03 0.  0.
          5    1    4    4  502    0 -0.15607417392E+02 -0.38935084704E+02 -0.24832146246E+01  0.42282249862E+02  0.47000000000E+01 0.  1.
         -5    1    4    4    0  502  0.19516292948E+02  0.13189171143E+02 -0.19660811631E+03  0.19806989000E+03  0.47000000000E+01 0.  1.
          5    1    5    5  503    0 -0.52595978049E+02 -0.23554724883E+02 -0.79689854122E+02  0.98456715470E+02  0.47000000000E+01 0. -1.
         -5    1    5    5    0  503  0.48687102493E+02  0.49300638443E+02 -0.34269508479E+02  0.77443373580E+02  0.47000000000E+01 0. -1.
<mgrwt>
<rscale>  0 0.27434500E+03</rscale>
<asrwt>0</asrwt>
<pdfrwt beam="1">  1        2 0.56100226E-01 0.27434500E+03</pdfrwt>
<pdfrwt beam="2">  1       -2 0.79385794E-02 0.27434500E+03</pdfrwt>
<totfact> 0.83963600E+03</totfact>
</mgrwt>
</event>
<event>
 9    1  0.2054950E-002  0.2757512E+03  0.7818608E-02  0.1098032E+00
          4   -1    0    0  501    0  0.00000000000E+00  0.00000000000E+00  0.20191372414E+03  0.20191372414E+03  0.00000000000E+00 0.  1.
         -4   -1    0    0    0  501 -0.00000000000E+00 -0.00000000000E+00 -0.94147528312E+02  0.94147528312E+02  0.00000000000E+00 0.  1.
         36    2    1    2    0    0  0.35527136788E-14  0.88817841970E-15  0.10776619583E+03  0.29606125245E+03  0.27575117813E+03 0.  0.
         25    2    3    3    0    0 -0.63719994016E+01 -0.74772158864E+01  0.12603873842E+02  0.13670536713E+03  0.13576814292E+03 0.  0.
         25    2    3    3    0    0  0.63719994016E+01  0.74772158864E+01  0.95162321988E+02  0.15935588532E+03  0.12744378968E+03 0.  0.
          5    1    4    4  502    0  0.29883392130E+02 -0.10693978398E+02 -0.52755949462E+02  0.61746728681E+02  0.47000000000E+01 0.  1.
         -5    1    4    4    0  502 -0.36255391532E+02  0.32167625117E+01  0.65359823304E+02  0.74958638451E+02  0.47000000000E+01 0.  1.
          5    1    5    5  503    0  0.59756725938E+02  0.21829910932E+02  0.79058314563E+02  0.10158601482E+03  0.47000000000E+01 0.  1.
         -5    1    5    5    0  503 -0.53384726536E+02 -0.14352695045E+02  0.16104007425E+02  0.57769870500E+02  0.47000000000E+01 0.  1.
<mgrwt>
<rscale>  0 0.27575118E+03</rscale>
<asrwt>0</asrwt>
<pdfrwt beam="1">  1        4 0.31063650E-01 0.27575118E+03</pdfrwt>
<pdfrwt beam="2">  1       -4 0.14484235E-01 0.27575118E+03</pdfrwt>
<totfact> 0.74801910E+02</totfact>
</mgrwt>
</event>
<event>
 9    1  0.2054950E-002  0.2747689E+03  0.7818608E-02  0.1098581E+00
         -2   -1    0    0    0  501 -0.00000000000E+00  0.00000000000E+00  0.94260592766E+01  0.94260592766E+01  0.00000000000E+00 0. -1.
          2   -1    0    0  501    0  0.00000000000E+00 -0.00000000000E+00 -0.20023732783E+04  0.20023732783E+04  0.00000000000E+00 0. -1.
         36    2    1    2    0    0  0.71054273576E-14  0.35527136788E-14 -0.19929472190E+04  0.20117993376E+04  0.27476891538E+03 0.  0.
         25    2    3    3    0    0 -0.23834032746E+02 -0.12796162364E+02 -0.11553948567E+04  0.11625480963E+04  0.12589280556E+03 0.  0.
         25    2    3    3    0    0  0.23834032746E+02  0.12796162364E+02 -0.83755236234E+03  0.84925124127E+03  0.13784740929E+03 0.  0.
          5    1    4    4  502    0  0.49270279683E+02  0.49276940699E+01 -0.33114717547E+03  0.33486173930E+03  0.47000000000E+01 0. -1.
         -5    1    4    4    0  502 -0.73104312429E+02 -0.17723856434E+02 -0.82424768122E+03  0.82768635701E+03  0.47000000000E+01 0. -1.
          5    1    5    5  503    0 -0.10916323217E+02 -0.51308274128E+02 -0.55168666309E+03  0.55419488390E+03  0.47000000000E+01 0. -1.
         -5    1    5    5    0  503  0.34750355962E+02  0.64104436492E+02 -0.28586569925E+03  0.29505635737E+03  0.47000000000E+01 0. -1.
<mgrwt>
<rscale>  0 0.27476892E+03</rscale>
<asrwt>0</asrwt>
<pdfrwt beam="1">  1        2 0.30805772E+00 0.27476892E+03</pdfrwt>
<pdfrwt beam="2">  1       -2 0.14501616E-02 0.27476892E+03</pdfrwt>
<totfact> 0.91831831E+03</totfact>
</mgrwt>
</event>
<event>
 9    1  0.2054950E-002  0.2722425E+03  0.7818608E-02  0.1100003E+00
         -2   -1    0    0    0  501 -0.00000000000E+00  0.00000000000E+00  0.26003167730E+03  0.26003167730E+03  0.00000000000E+00 0. -1.
          2   -1    0    0  501    0  0.00000000000E+00 -0.00000000000E+00 -0.71256707430E+02  0.71256707430E+02  0.00000000000E+00 0. -1.
         36    2    1    2    0    0 -0.35527136788E-14  0.35527136788E-14  0.18877496987E+03  0.33128838473E+03  0.27224254738E+03 0.  0.
         25    2    3    3    0    0  0.10025345858E+02  0.27632655903E+02  0.15572580127E+03  0.19585780119E+03  0.11508988607E+03 0.  0.
         25    2    3    3    0    0 -0.10025345858E+02 -0.27632655903E+02  0.33049168601E+02  0.13543058353E+03  0.12800439125E+03 0.  0.
          5    1    4    4  502    0  0.25409762147E+02  0.45064096319E+02  0.16297608494E+03  0.17105473701E+03  0.47000000000E+01 0.  1.
         -5    1    4    4    0  502 -0.15384416289E+02 -0.17431440417E+02 -0.72502836771E+01  0.24803064185E+02  0.47000000000E+01 0.  1.
          5    1    5    5  503    0 -0.25085903180E+02  0.27367760673E+02 -0.31684640459E+02  0.49033695594E+02  0.47000000000E+01 0. -1.
         -5    1    5    5    0  503  0.15060557322E+02 -0.55000416576E+02  0.64733809060E+02  0.86396887940E+02  0.47000000000E+01 0. -1.
<mgrwt>
<rscale>  0 0.27224255E+03</rscale>
<asrwt>0</asrwt>
<pdfrwt beam="1">  1        2 0.10962571E-01 0.27224255E+03</pdfrwt>
<pdfrwt beam="2">  1       -2 0.40004873E-01 0.27224255E+03</pdfrwt>
<totfact> 0.33862877E+03</totfact>
</mgrwt>
</event>
<event>
 9    1  0.2054950E-002  0.2761395E+03  0.7818608E-02  0.1097816E+00
         -1   -1    0    0    0  501 -0.00000000000E+00  0.00000000000E+00  0.84965769057E+01  0.84965769057E+01  0.00000000000E+00 0. -1.
          1   -1    0    0  501    0  0.00000000000E+00 -0.00000000000E+00 -0.22436388790E+04  0.22436388790E+04  0.00000000000E+00 0. -1.
         36    2    1    2    0    0 -0.71054273576E-14  0.00000000000E+00 -0.22351423021E+04  0.22521354559E+04  0.27613945958E+03 0.  0.
         25    2    3    3    0    0 -0.52454666596E+02 -0.20502535642E+02 -0.12202887890E+04  0.12279574689E+04  0.12491185246E+03 0.  0.
         25    2    3    3    0    0  0.52454666596E+02  0.20502535642E+02 -0.10148535131E+04  0.10241779870E+04  0.12586123305E+03 0.  0.
          5    1    4    4  502    0 -0.33248484331E+02 -0.57475544673E+02 -0.32812046562E+03  0.33480446518E+03  0.47000000000E+01 0. -1.
         -5    1    4    4    0  502 -0.19206182265E+02  0.36973009032E+02 -0.89216832341E+03  0.89315300376E+03  0.47000000000E+01 0. -1.
          5    1    5    5  503    0 -0.12815728021E+02  0.29098319432E+01 -0.76984197137E+03  0.76996848046E+03  0.47000000000E+01 0.  1.
         -5    1    5    5    0  503  0.65270394617E+02  0.17592703698E+02 -0.24501154168E+03  0.25420950650E+03  0.47000000000E+01 0.  1.
<mgrwt>
<rscale>  0 0.27613946E+03</rscale>
<asrwt>0</asrwt>
<pdfrwt beam="1">  1        1 0.34517544E+00 0.27613946E+03</pdfrwt>
<pdfrwt beam="2">  1       -1 0.13071648E-02 0.27613946E+03</pdfrwt>
<totfact> 0.29846237E+03</totfact>
</mgrwt>
</event>
<event>
 9    1  0.2054950E-002  0.2744985E+03  0.7818608E-02  0.1098732E+00
          2   -1    0    0  501    0  0.00000000000E+00  0.00000000000E+00  0.34410037398E+04  0.34410037398E+04  0.00000000000E+00 0. -1.
         -2   -1    0    0    0  501 -0.00000000000E+00 -0.00000000000E+00 -0.54743801648E+01  0.54743801648E+01  0.00000000000E+00 0. -1.
         36    2    1    2    0    0 -0.35527136788E-14  0.71054273576E-14  0.34355293597E+04  0.34464781200E+04  0.27449854368E+03 0.  0.
         25    2    3    3    0    0 -0.29266798201E+01 -0.21284910350E+02  0.11150614182E+04  0.11226660634E+04  0.12866821894E+03 0.  0.
         25    2    3    3    0    0  0.29266798201E+01  0.21284910350E+02  0.23204679414E+04  0.23238120566E+04  0.12275746169E+03 0.  0.
          5    1    4    4  502    0  0.21500830912E+02 -0.51268184552E+02  0.99238405761E+03  0.99395116594E+03  0.47000000000E+01 0. -1.
         -5    1    4    4    0  502 -0.24427510733E+02  0.29983274202E+02  0.12267736060E+03  0.12871489742E+03  0.47000000000E+01 0. -1.
          5    1    5    5  503    0 -0.83551400752E+01  0.66010561470E+02  0.84995837393E+03  0.85257171546E+03  0.47000000000E+01 0.  1.
         -5    1    5    5    0  503  0.11281819895E+02 -0.44725651120E+02  0.14705095675E+04  0.14712403412E+04  0.47000000000E+01 0.  1.
<mgrwt>
<rscale>  0 0.27449854E+03</rscale>
<asrwt>0</asrwt>
<pdfrwt beam="1">  1        2 0.52938346E+00 0.27449854E+03</pdfrwt>
<pdfrwt beam="2">  1       -2 0.84221508E-03 0.27449854E+03</pdfrwt>
<totfact> 0.30339004E+03</totfact>
</mgrwt>
</event>
<event>
 9    1  0.2054950E-002  0.2754894E+03  0.7818608E-02  0.1098178E+00
         -2   -1    0    0    0  501 -0.00000000000E+00  0.00000000000E+00  0.36786674811E+03  0.36786674811E+03  0.00000000000E+00 0. -1.
          2   -1    0    0  501    0  0.00000000000E+00 -0.00000000000E+00 -0.51577391401E+02  0.51577391401E+02  0.00000000000E+00 0. -1.
         36    2    1    2    0    0 -0.17763568394E-14 -0.71054273576E-14  0.31628935671E+03  0.41944413951E+03  0.27548943538E+03 0.  0.
         25    2    3    3    0    0  0.10199564591E+02 -0.41105019048E+02  0.21119415245E+03  0.25284836371E+03  0.13242232173E+03 0.  0.
         25    2    3    3    0    0 -0.10199564591E+02  0.41105019048E+02  0.10509520426E+03  0.16659577580E+03  0.12212901722E+03 0.  0.
          5    1    4    4  502    0 -0.13858166037E+02  0.34589311296E+02  0.14365520598E+03  0.14848359313E+03  0.47000000000E+01 0.  1.
         -5    1    4    4    0  502  0.24057730628E+02 -0.75694330344E+02  0.67538946472E+02  0.10436477059E+03  0.47000000000E+01 0.  1.
          5    1    5    5  503    0 -0.10192571357E+02  0.11798226843E+02 -0.26823302462E+02  0.31379391684E+02  0.47000000000E+01 0. -1.
         -5    1    5    5    0  503 -0.69932344923E-02  0.29306792206E+02  0.13191850672E+03  0.13521638412E+03  0.47000000000E+01 0. -1.
<mgrwt>
<rscale>  0 0.27548944E+03</rscale>
<asrwt>0</asrwt>
<pdfrwt beam="1">  1        2 0.79349835E-02 0.27548944E+03</pdfrwt>
<pdfrwt beam="2">  1       -2 0.56594883E-01 0.27548944E+03</pdfrwt>
<totfact> 0.25573023E+03</totfact>
</mgrwt>
</event>
<event>
 9    1  0.2054950E-002  0.2748610E+03  0.7818608E-02  0.1098529E+00
          1   -1    0    0  501    0  0.00000000000E+00  0.00000000000E+00  0.13885061100E+03  0.13885061100E+03  0.00000000000E+00 0.  1.
         -1   -1    0    0    0  501 -0.00000000000E+00 -0.00000000000E+00 -0.13602490507E+03  0.13602490507E+03  0.00000000000E+00 0.  1.
         36    2    1    2    0    0  0.00000000000E+00 -0.44408920985E-14  0.28257059370E+01  0.27487551607E+03  0.27486099163E+03 0.  0.
         25    2    3    3    0    0  0.65150397550E+02  0.39966009778E+01  0.20083630058E+02  0.13160544668E+03  0.11249930791E+03 0.  0.
         25    2    3    3    0    0 -0.65150397550E+02 -0.39966009778E+01 -0.17257924121E+02  0.14327006939E+03  0.12636427389E+03 0.  0.
          5    1    4    4  502    0 -0.10769980467E+02  0.39718132505E+02 -0.95341066349E+01  0.42503078927E+02  0.47000000000E+01 0.  1.
         -5    1    4    4    0  502  0.75920378017E+02 -0.35721531527E+02  0.29617736693E+02  0.89102367756E+02  0.47000000000E+01 0.  1.
          5    1    5    5  503    0  0.14514002580E+02  0.57308948679E+01  0.40912173570E+02  0.44038566883E+02  0.47000000000E+01 0.  1.
         -5    1    5    5    0  503 -0.79664400130E+02 -0.97274958456E+01 -0.58170097692E+02  0.99231502503E+02  0.47000000000E+01 0.  1.
<mgrwt>
<rscale>  0 0.27486099E+03</rscale>
<asrwt>0</asrwt>
<pdfrwt beam="1">  1        1 0.21361632E-01 0.27486099E+03</pdfrwt>
<pdfrwt beam="2">  1       -1 0.20926908E-01 0.27486099E+03</pdfrwt>
<totfact> 0.43596140E+03</totfact>
</mgrwt>
</event>
<event>
 9    1  0.2054950E-002  0.2743953E+03  0.7818608E-02  0.1098790E+00
          2   -1    0    0  501    0  0.00000000000E+00  0.00000000000E+00  0.10923419175E+04  0.10923419175E+04  0.00000000000E+00 0. -1.
         -2   -1    0    0    0  501 -0.00000000000E+00 -0.00000000000E+00 -0.17231967329E+02  0.17231967329E+02  0.00000000000E+00 0. -1.
         36    2    1    2    0    0 -0.14210854715E-13  0.00000000000E+00  0.10751099501E+04  0.11095738848E+04  0.27439533694E+03 0.  0.
         25    2    3    3    0    0  0.58284478947E+02  0.12787675157E+02  0.56222897837E+03  0.57872653187E+03  0.12354096262E+03 0.  0.
         25    2    3    3    0    0 -0.58284478947E+02 -0.12787675157E+02  0.51288097176E+03  0.53084735292E+03  0.12325346157E+03 0.  0.
          5    1    4    4  502    0  0.31717735276E+02  0.62105518014E+02  0.42026886207E+03  0.42604121459E+03  0.47000000000E+01 0.  1.
         -5    1    4    4    0  502  0.26566743670E+02 -0.49317842857E+02  0.14196011630E+03  0.15268531728E+03  0.47000000000E+01 0.  1.
          5    1    5    5  503    0  0.72949571204E+01 -0.35802061930E+02  0.46652339897E+02  0.59443543432E+02  0.47000000000E+01 0.  1.
         -5    1    5    5    0  503 -0.65579436067E+02  0.23014386773E+02  0.46622863186E+03  0.47140380949E+03  0.47000000000E+01 0.  1.
<mgrwt>
<rscale>  0 0.27439534E+03</rscale>
<asrwt>0</asrwt>
<pdfrwt beam="1">  1        2 0.16805255E+00 0.27439534E+03</pdfrwt>
<pdfrwt beam="2">  1       -2 0.26510728E-02 0.27439534E+03</pdfrwt>
<totfact> 0.11734050E+04</totfact>
</mgrwt>
</event>
<event>
 9    1  0.2054950E-002  0.2769384E+03  0.7818608E-02  0.1097373E+00
          1   -1    0    0  501    0  0.00000000000E+00  0.00000000000E+00  0.32979228060E+02  0.32979228060E+02  0.00000000000E+00 0. -1.
         -1   -1    0    0    0  501 -0.00000000000E+00 -0.00000000000E+00 -0.58138785991E+03  0.58138785991E+03  0.00000000000E+00 0. -1.
         36    2    1    2    0    0 -0.53290705182E-14 -0.88817841970E-15 -0.54840863185E+03  0.61436708797E+03  0.27693842509E+03 0.  0.
         25    2    3    3    0    0 -0.91119734777E+01 -0.71923176406E+01 -0.16987174877E+03  0.21624639020E+03  0.13330916229E+03 0.  0.
         25    2    3    3    0    0  0.91119734777E+01  0.71923176406E+01 -0.37853688309E+03  0.39812069777E+03  0.12278094578E+03 0.  0.
          5    1    4    4  502    0  0.34465317098E+02  0.12539269913E+02 -0.16365419317E+03  0.16777924876E+03  0.47000000000E+01 0. -1.
         -5    1    4    4    0  502 -0.43577290576E+02 -0.19731587554E+02 -0.62175555936E+01  0.48467141435E+02  0.47000000000E+01 0. -1.
          5    1    5    5  503    0 -0.93273931920E+01  0.12997983007E+01  0.66298109376E+01  0.12439217518E+02  0.47000000000E+01 0. -1.
         -5    1    5    5    0  503  0.18439366670E+02  0.58925193399E+01 -0.38516669402E+03  0.38568148026E+03  0.47000000000E+01 0. -1.
<mgrwt>
<rscale>  0 0.27693843E+03</rscale>
<asrwt>0</asrwt>
<pdfrwt beam="1">  1        1 0.50737272E-02 0.27693843E+03</pdfrwt>
<pdfrwt beam="2">  1       -1 0.89444289E-01 0.27693843E+03</pdfrwt>
<totfact> 0.20975973E+03</totfact>
</mgrwt>
</event>
<event>
 9    1  0.2054950E-002  0.2748594E+03  0.7818608E-02  0.1098530E+00
         -2   -1    0    0    0  501 -0.00000000000E+00  0.00000000000E+00  0.46302352199E+02  0.46302352199E+02  0.00000000000E+00 0.  1.
          2   -1    0    0  501    0  0.00000000000E+00 -0.00000000000E+00 -0.40790402272E+03  0.40790402272E+03  0.00000000000E+00 0.  1.
         36    2    1    2    0    0 -0.17763568394E-14  0.00000000000E+00 -0.36160167052E+03  0.45420637492E+03  0.27485935111E+03 0.  0.
         25    2    3    3    0    0  0.11587251741E+02 -0.37921669376E+01 -0.98121081665E+02  0.16370743945E+03  0.13047503260E+03 0.  0.
         25    2    3    3    0    0 -0.11587251741E+02  0.37921669376E+01 -0.26348058886E+03  0.29049893547E+03  0.12173317490E+03 0.  0.
          5    1    4    4  502    0  0.59312255655E+02 -0.21466745255E+02 -0.13234269151E+02  0.64621983122E+02  0.47000000000E+01 0. -1.
         -5    1    4    4    0  502 -0.47725003914E+02  0.17674578318E+02 -0.84886812513E+02  0.99085456329E+02  0.47000000000E+01 0. -1.
          5    1    5    5  503    0 -0.22327270655E+02 -0.11526747707E+02  0.74145459901E+00  0.25573671667E+02  0.47000000000E+01 0. -1.
         -5    1    5    5    0  503  0.10740018914E+02  0.15318914645E+02 -0.26422204346E+03  0.26492526380E+03  0.47000000000E+01 0. -1.
<mgrwt>
<rscale>  0 0.27485935E+03</rscale>
<asrwt>0</asrwt>
<pdfrwt beam="1">  1        2 0.62754465E-01 0.27485935E+03</pdfrwt>
<pdfrwt beam="2">  1       -2 0.71234389E-02 0.27485935E+03</pdfrwt>
<totfact> 0.88012479E+03</totfact>
</mgrwt>
</event>
<event>
 9    1  0.2054950E-002  0.2739379E+03  0.7818608E-02  0.1099047E+00
          2   -1    0    0  501    0  0.00000000000E+00  0.00000000000E+00  0.69508736323E+02  0.69508736323E+02  0.00000000000E+00 0.  1.
         -2   -1    0    0    0  501 -0.00000000000E+00 -0.00000000000E+00 -0.26990121152E+03  0.26990121152E+03  0.00000000000E+00 0.  1.
         36    2    1    2    0    0  0.44408920985E-14  0.00000000000E+00 -0.20039247520E+03  0.33940994784E+03  0.27393789183E+03 0.  0.
         25    2    3    3    0    0  0.46432321785E+01  0.31658100302E+02 -0.49695114027E+02  0.13961518705E+03  0.12648715815E+03 0.  0.
         25    2    3    3    0    0 -0.46432321785E+01 -0.31658100302E+02 -0.15069736117E+03  0.19979476079E+03  0.12721814673E+03 0.  0.
          5    1    4    4  502    0  0.61794896324E+02  0.35054394079E+02 -0.15857631815E+02  0.72945008347E+02  0.47000000000E+01 0. -1.
         -5    1    4    4    0  502 -0.57151664146E+02 -0.33962937768E+01 -0.33837482211E+02  0.66670178704E+02  0.47000000000E+01 0. -1.
          5    1    5    5  503    0  0.19281649910E+01  0.27074766725E+02 -0.13593551416E+03  0.13869864752E+03  0.47000000000E+01 0.  1.
         -5    1    5    5    0  503 -0.65713971695E+01 -0.58732867027E+02 -0.14761847011E+02  0.61096113274E+02  0.47000000000E+01 0.  1.
<mgrwt>
<rscale>  0 0.27393789E+03</rscale>
<asrwt>0</asrwt>
<pdfrwt beam="1">  1        2 0.10693652E-01 0.27393789E+03</pdfrwt>
<pdfrwt beam="2">  1       -2 0.41523263E-01 0.27393789E+03</pdfrwt>
<totfact> 0.32514861E+03</totfact>
</mgrwt>
</event>
<event>
 9    1  0.2054950E-002  0.2743688E+03  0.7818608E-02  0.1098805E+00
          3   -1    0    0  501    0  0.00000000000E+00  0.00000000000E+00  0.22943491901E+02  0.22943491901E+02  0.00000000000E+00 0. -1.
         -3   -1    0    0    0  501 -0.00000000000E+00 -0.00000000000E+00 -0.82025719202E+03  0.82025719202E+03  0.00000000000E+00 0. -1.
         36    2    1    2    0    0  0.00000000000E+00  0.00000000000E+00 -0.79731370012E+03  0.84320068392E+03  0.27436883381E+03 0.  0.
         25    2    3    3    0    0  0.23549410998E+02 -0.10591726135E+02 -0.53861687431E+03  0.55444842779E+03  0.12898900091E+03 0.  0.
         25    2    3    3    0    0 -0.23549410998E+02  0.10591726135E+02 -0.25869682580E+03  0.28875225613E+03  0.12564656112E+03 0.  0.
          5    1    4    4  502    0 -0.35406964248E+02 -0.31562522982E+02 -0.93685835141E+02  0.10511408888E+03  0.47000000000E+01 0.  1.
         -5    1    4    4    0  502  0.58956375246E+02  0.20970796847E+02 -0.44493103917E+03  0.44933433891E+03  0.47000000000E+01 0.  1.
          5    1    5    5  503    0 -0.32409327887E+01 -0.42884150621E+02 -0.20711263969E+03  0.21158281957E+03  0.47000000000E+01 0. -1.
         -5    1    5    5    0  503 -0.20308478210E+02  0.53475876756E+02 -0.51584186115E+02  0.77169436561E+02  0.47000000000E+01 0. -1.
<mgrwt>
<rscale>  0 0.27436883E+03</rscale>
<asrwt>0</asrwt>
<pdfrwt beam="1">  1        3 0.35297675E-02 0.27436883E+03</pdfrwt>
<pdfrwt beam="2">  1       -3 0.12619343E+00 0.27436883E+03</pdfrwt>
<totfact> 0.52485840E+02</totfact>
</mgrwt>
</event>
<event>
 9    1  0.2054950E-002  0.2806314E+03  0.7818608E-02  0.1095345E+00
          2   -1    0    0  501    0  0.00000000000E+00  0.00000000000E+00  0.16287125108E+04  0.16287125108E+04  0.00000000000E+00 0.  1.
         -2   -1    0    0    0  501 -0.00000000000E+00 -0.00000000000E+00 -0.12088381362E+02  0.12088381362E+02  0.00000000000E+00 0.  1.
         36    2    1    2    0    0  0.35527136788E-14  0.00000000000E+00  0.16166241294E+04  0.16408008921E+04  0.28063141634E+03 0.  0.
         25    2    3    3    0    0  0.30214969927E+02  0.54174047992E+02  0.68554868604E+03  0.69931249583E+03  0.12334177718E+03 0.  0.
         25    2    3    3    0    0 -0.30214969927E+02 -0.54174047992E+02  0.93107544337E+03  0.94148839632E+03  0.12510454533E+03 0.  0.
          5    1    4    4  502    0  0.14772458624E+01 -0.26020007029E+02  0.41008038092E+03  0.41093458340E+03  0.47000000000E+01 0.  1.
         -5    1    4    4    0  502  0.28737724064E+02  0.80194055021E+02  0.27546830513E+03  0.28837791243E+03  0.47000000000E+01 0.  1.
          5    1    5    5  503    0 -0.29352730393E+02 -0.79859259807E+02  0.36517803732E+03  0.37498823061E+03  0.47000000000E+01 0.  1.
         -5    1    5    5    0  503 -0.86223953414E+00  0.25685211815E+02  0.56589740606E+03  0.56650016570E+03  0.47000000000E+01 0.  1.
<mgrwt>
<rscale>  0 0.28063142E+03</rscale>
<asrwt>0</asrwt>
<pdfrwt beam="1">  1        2 0.25057098E+00 0.28063142E+03</pdfrwt>
<pdfrwt beam="2">  1       -2 0.18597523E-02 0.28063142E+03</pdfrwt>
<totfact> 0.10030004E+04</totfact>
</mgrwt>
</event>
<event>
 9    1  0.2054950E-002  0.2751750E+03  0.7818608E-02  0.1098354E+00
         -1   -1    0    0    0  501 -0.00000000000E+00  0.00000000000E+00  0.17154739285E+03  0.17154739285E+03  0.00000000000E+00 0.  1.
          1   -1    0    0  501    0  0.00000000000E+00 -0.00000000000E+00 -0.11035037803E+03  0.11035037803E+03  0.00000000000E+00 0.  1.
         36    2    1    2    0    0  0.14210854715E-13 -0.35527136788E-14  0.61197014823E+02  0.28189777088E+03  0.27517499632E+03 0.  0.
         25    2    3    3    0    0 -0.59078478221E+02 -0.14706817066E+02  0.53576370302E+02  0.14887153523E+03  0.12484289923E+03 0.  0.
         25    2    3    3    0    0  0.59078478221E+02  0.14706817066E+02  0.76206445213E+01  0.13302623565E+03  0.11803113187E+03 0.  0.
          5    1    4    4  502    0  0.15373643337E+02 -0.47072779378E+02 -0.29605166774E+01  0.49830212991E+02  0.47000000000E+01 0.  1.
         -5    1    4    4    0  502 -0.74452121557E+02  0.32365962312E+02  0.56536886980E+02  0.99041322235E+02  0.47000000000E+01 0.  1.
          5    1    5    5  503    0 -0.23648588016E+02 -0.29484214660E+02  0.88831882531E+01  0.39109789859E+02  0.47000000000E+01 0.  1.
         -5    1    5    5    0  503  0.82727066237E+02  0.44191031726E+02 -0.12625437319E+01  0.93916445790E+02  0.47000000000E+01 0.  1.
<mgrwt>
<rscale>  0 0.27517500E+03</rscale>
<asrwt>0</asrwt>
<pdfrwt beam="1">  1        1 0.16976981E-01 0.27517500E+03</pdfrwt>
<pdfrwt beam="2">  1       -1 0.26391907E-01 0.27517500E+03</pdfrwt>
<totfact> 0.39987275E+03</totfact>
</mgrwt>
</event>
<event>
 9    1  0.2054950E-002  0.2753398E+03  0.7818608E-02  0.1098262E+00
          2   -1    0    0  501    0  0.00000000000E+00  0.00000000000E+00  0.14422358147E+03  0.14422358147E+03  0.00000000000E+00 0. -1.
         -2   -1    0    0    0  501 -0.00000000000E+00 -0.00000000000E+00 -0.13141404918E+03  0.13141404918E+03  0.00000000000E+00 0. -1.
         36    2    1    2    0    0 -0.71054273576E-14  0.10658141036E-13  0.12809532292E+02  0.27563763065E+03  0.27533982514E+03 0.  0.
         25    2    3    3    0    0 -0.32573399713E+02  0.24915808039E+02 -0.34234685052E+02  0.13675918699E+03  0.12589375563E+03 0.  0.
         25    2    3    3    0    0  0.32573399713E+02 -0.24915808039E+02  0.47044217344E+02  0.13887844366E+03  0.12406546606E+03 0.  0.
          5    1    4    4  502    0 -0.76318580578E+02 -0.30949295821E+00 -0.16567137674E+01  0.76481737871E+02  0.47000000000E+01 0. -1.
         -5    1    4    4    0  502  0.43745180865E+02  0.25225300997E+02 -0.32577971285E+02  0.60277449119E+02  0.47000000000E+01 0. -1.
          5    1    5    5  503    0  0.19764059270E+01 -0.73164543671E+02  0.26249760593E+02  0.77897988178E+02  0.47000000000E+01 0.  1.
         -5    1    5    5    0  503  0.30596993786E+02  0.48248735632E+02  0.20794456751E+02  0.60980455478E+02  0.47000000000E+01 0.  1.
<mgrwt>
<rscale>  0 0.27533983E+03</rscale>
<asrwt>0</asrwt>
<pdfrwt beam="1">  1        2 0.22188243E-01 0.27533983E+03</pdfrwt>
<pdfrwt beam="2">  1       -2 0.20217546E-01 0.27533983E+03</pdfrwt>
<totfact> 0.50485712E+03</totfact>
</mgrwt>
</event>
<event>
 9    1  0.2054950E-002  0.2771268E+03  0.7818608E-02  0.1097269E+00
         -2   -1    0    0    0  501 -0.00000000000E+00  0.00000000000E+00  0.47564721720E+03  0.47564721720E+03  0.00000000000E+00 0. -1.
          2   -1    0    0  501    0  0.00000000000E+00 -0.00000000000E+00 -0.40365660252E+02  0.40365660252E+02  0.00000000000E+00 0. -1.
         36    2    1    2    0    0  0.00000000000E+00 -0.71054273576E-14  0.43528155695E+03  0.51601287745E+03  0.27712678665E+03 0.  0.
         25    2    3    3    0    0  0.32465451168E+02  0.52250520197E+02  0.17664060322E+03  0.22194589223E+03  0.11947365396E+03 0.  0.
         25    2    3    3    0    0 -0.32465451168E+02 -0.52250520197E+02  0.25864095373E+03  0.29406698522E+03  0.12568264188E+03 0.  0.
          5    1    4    4  502    0  0.31430900104E+02  0.37837570856E+02  0.19323069689E+03  0.19944867879E+03  0.47000000000E+01 0. -1.
         -5    1    4    4    0  502  0.10345510647E+01  0.14412949342E+02 -0.16590093671E+02  0.22497213442E+02  0.47000000000E+01 0. -1.
          5    1    5    5  503    0 -0.52422571941E+02 -0.38426645705E+02  0.45461123968E+02  0.79457768289E+02  0.47000000000E+01 0. -1.
         -5    1    5    5    0  503  0.19957120772E+02 -0.13823874492E+02  0.21317982976E+03  0.21460921693E+03  0.47000000000E+01 0. -1.
<mgrwt>
<rscale>  0 0.27712679E+03</rscale>
<asrwt>0</asrwt>
<pdfrwt beam="1">  1        2 0.62101019E-02 0.27712679E+03</pdfrwt>
<pdfrwt beam="2">  1       -2 0.73176491E-01 0.27712679E+03</pdfrwt>
<totfact> 0.20423205E+03</totfact>
</mgrwt>
</event>
<event>
 9    1  0.2054950E-002  0.2745735E+03  0.7818608E-02  0.1098690E+00
         -4   -1    0    0    0  501 -0.00000000000E+00  0.00000000000E+00  0.29837747530E+03  0.29837747530E+03  0.00000000000E+00 0. -1.
          4   -1    0    0  501    0  0.00000000000E+00 -0.00000000000E+00 -0.63167131738E+02  0.63167131738E+02  0.00000000000E+00 0. -1.
         36    2    1    2    0    0 -0.71054273576E-14  0.00000000000E+00  0.23521034356E+03  0.36154460704E+03  0.27457348226E+03 0.  0.
         25    2    3    3    0    0 -0.24621001755E+02 -0.34367142754E+01  0.18702813671E+03  0.22672968560E+03  0.12573313675E+03 0.  0.
         25    2    3    3    0    0  0.24621001755E+02  0.34367142754E+01  0.48182206848E+02  0.13481492144E+03  0.12343230231E+03 0.  0.
          5    1    4    4  502    0  0.48089858438E+02 -0.95855905380E+00  0.40452828498E+02  0.63024397288E+02  0.47000000000E+01 0. -1.
         -5    1    4    4    0  502 -0.72710860193E+02 -0.24781552216E+01  0.14657530821E+03  0.16370528831E+03  0.47000000000E+01 0. -1.
          5    1    5    5  503    0 -0.88387999921E+01 -0.29200182651E+02 -0.30359689842E+02  0.43296371897E+02  0.47000000000E+01 0. -1.
         -5    1    5    5    0  503  0.33459801747E+02  0.32636896927E+02  0.78541896690E+02  0.91518549538E+02  0.47000000000E+01 0. -1.
<mgrwt>
<rscale>  0 0.27457348E+03</rscale>
<asrwt>0</asrwt>
<pdfrwt beam="1">  1        4 0.97180205E-02 0.27457348E+03</pdfrwt>
<pdfrwt beam="2">  1       -4 0.45904226E-01 0.27457348E+03</pdfrwt>
<totfact> 0.68918247E+02</totfact>
</mgrwt>
</event>
<event>
 9    1  0.2054950E-002  0.2742912E+03  0.7818608E-02  0.1098848E+00
          2   -1    0    0  501    0  0.00000000000E+00  0.00000000000E+00  0.17201169974E+04  0.17201169974E+04  0.00000000000E+00 0. -1.
         -2   -1    0    0    0  501 -0.00000000000E+00 -0.00000000000E+00 -0.10934670391E+02  0.10934670391E+02  0.00000000000E+00 0. -1.
         36    2    1    2    0    0  0.71054273576E-14 -0.35527136788E-14  0.17091823270E+04  0.17310516678E+04  0.27429117668E+03 0.  0.
         25    2    3    3    0    0  0.15228025306E+02 -0.31448461389E+02  0.61443881922E+03  0.62867260199E+03  0.12834827403E+03 0.  0.
         25    2    3    3    0    0 -0.15228025306E+02  0.31448461389E+02  0.10947435078E+04  0.11023790658E+04  0.12472112250E+03 0.  0.
          5    1    4    4  502    0 -0.31887376617E+02 -0.26846070567E+02  0.66183889246E+02  0.78357600067E+02  0.47000000000E+01 0. -1.
         -5    1    4    4    0  502  0.47115401923E+02 -0.46023908214E+01  0.54825492997E+03  0.55031500192E+03  0.47000000000E+01 0. -1.
          5    1    5    5  503    0 -0.65642346723E+02  0.19161777278E+02  0.41316480003E+03  0.41881181141E+03  0.47000000000E+01 0.  1.
         -5    1    5    5    0  503  0.50414321418E+02  0.12286684111E+02  0.68157870780E+03  0.68356725443E+03  0.47000000000E+01 0.  1.
<mgrwt>
<rscale>  0 0.27429118E+03</rscale>
<asrwt>0</asrwt>
<pdfrwt beam="1">  1        2 0.26463317E+00 0.27429118E+03</pdfrwt>
<pdfrwt beam="2">  1       -2 0.16822583E-02 0.27429118E+03</pdfrwt>
<totfact> 0.10395710E+04</totfact>
</mgrwt>
</event>
<event>
 9    1  0.2054950E-002  0.2752385E+03  0.7818608E-02  0.1098318E+00
          2   -1    0    0  501    0  0.00000000000E+00  0.00000000000E+00  0.27264106742E+04  0.27264106742E+04  0.00000000000E+00 0.  1.
         -2   -1    0    0    0  501 -0.00000000000E+00 -0.00000000000E+00 -0.69465193420E+01  0.69465193420E+01  0.00000000000E+00 0.  1.
         36    2    1    2    0    0  0.00000000000E+00 -0.71054273576E-14  0.27194641549E+04  0.27333571936E+04  0.27523854732E+03 0.  0.
         25    2    3    3    0    0  0.46652753732E+02 -0.34564469791E+02  0.13086532254E+04  0.13158697128E+04  0.12477441518E+03 0.  0.
         25    2    3    3    0    0 -0.46652753732E+02  0.34564469791E+02  0.14108109295E+04  0.14174874807E+04  0.12454757087E+03 0.  0.
          5    1    4    4  502    0  0.87238831846E+02 -0.36547050590E+02  0.10096088592E+04  0.10140406498E+04  0.47000000000E+01 0.  1.
         -5    1    4    4    0  502 -0.40586078114E+02  0.19825807986E+01  0.29904436618E+03  0.30182906306E+03  0.47000000000E+01 0.  1.
          5    1    5    5  503    0 -0.84124289362E+02 -0.23564244716E+01  0.82001800585E+03  0.82433856438E+03  0.47000000000E+01 0. -1.
         -5    1    5    5    0  503  0.37471535630E+02  0.36920894263E+02  0.59079292360E+03  0.59314891637E+03  0.47000000000E+01 0. -1.
<mgrwt>
<rscale>  0 0.27523855E+03</rscale>
<asrwt>0</asrwt>
<pdfrwt beam="1">  1        2 0.41944694E+00 0.27523855E+03</pdfrwt>
<pdfrwt beam="2">  1       -2 0.10686975E-02 0.27523855E+03</pdfrwt>
<totfact> 0.58076179E+03</totfact>
</mgrwt>
</event>
<event>
 9    1  0.2054950E-002  0.2748252E+03  0.7818608E-02  0.1098549E+00
          2   -1    0    0  501    0  0.00000000000E+00  0.00000000000E+00  0.11076669083E+03  0.11076669083E+03  0.00000000000E+00 0.  1.
         -2   -1    0    0    0  501 -0.00000000000E+00 -0.00000000000E+00 -0.17046845918E+03  0.17046845918E+03  0.00000000000E+00 0.  1.
         36    2    1    2    0    0  0.00000000000E+00  0.44408920985E-14 -0.59701768344E+02  0.28123515001E+03  0.27482523257E+03 0.  0.
         25    2    3    3    0    0 -0.36342057706E+02  0.74612954511E+01 -0.63855159776E+02  0.14467154992E+03  0.12440241090E+03 0.  0.
         25    2    3    3    0    0  0.36342057706E+02 -0.74612954511E+01  0.41533914318E+01  0.13656360009E+03  0.13136190514E+03 0.  0.
          5    1    4    4  502    0  0.60842634053E+01  0.21373884661E+01 -0.92594585369E+02  0.92937796027E+02  0.47000000000E+01 0. -1.
         -5    1    4    4    0  502 -0.42426321112E+02  0.53239069850E+01  0.28739425594E+02  0.51733753895E+02  0.47000000000E+01 0. -1.
          5    1    5    5  503    0 -0.32133888123E+02  0.28712598001E+02  0.32268836210E+02  0.54040427831E+02  0.47000000000E+01 0.  1.
         -5    1    5    5    0  503  0.68475945829E+02 -0.36173893452E+02 -0.28115444779E+02  0.82523172259E+02  0.47000000000E+01 0.  1.
<mgrwt>
<rscale>  0 0.27482523E+03</rscale>
<asrwt>0</asrwt>
<pdfrwt beam="1">  1        2 0.17041029E-01 0.27482523E+03</pdfrwt>
<pdfrwt beam="2">  1       -2 0.26225917E-01 0.27482523E+03</pdfrwt>
<totfact> 0.43429510E+03</totfact>
</mgrwt>
</event>
<event>
 9    1  0.2054950E-002  0.2750367E+03  0.7818608E-02  0.1098431E+00
         -1   -1    0    0    0  501 -0.00000000000E+00  0.00000000000E+00  0.56449080095E+02  0.56449080095E+02  0.00000000000E+00 0.  1.
          1   -1    0    0  501    0  0.00000000000E+00 -0.00000000000E+00 -0.33501513500E+03  0.33501513500E+03  0.00000000000E+00 0.  1.
         36    2    1    2    0    0  0.00000000000E+00 -0.35527136788E-14 -0.27856605491E+03  0.39146421510E+03  0.27503669711E+03 0.  0.
         25    2    3    3    0    0 -0.29654917185E+01 -0.24237642573E+02 -0.95375665045E+02  0.16837244378E+03  0.13658881683E+03 0.  0.
         25    2    3    3    0    0  0.29654917185E+01  0.24237642573E+02 -0.18319038986E+03  0.22309177132E+03  0.12495984168E+03 0.  0.
          5    1    4    4  502    0  0.60315822722E+02  0.96218313253E+01 -0.20623632389E+02  0.64637468403E+02  0.47000000000E+01 0. -1.
         -5    1    4    4    0  502 -0.63281314440E+02 -0.33859473899E+02 -0.74752032656E+02  0.10373497538E+03  0.47000000000E+01 0. -1.
          5    1    5    5  503    0 -0.40504756158E+02 -0.19234814019E+02 -0.21312274335E+02  0.49868992161E+02  0.47000000000E+01 0. -1.
         -5    1    5    5    0  503  0.43470247877E+02  0.43472456592E+02 -0.16187811553E+03  0.17322277916E+03  0.47000000000E+01 0. -1.
<mgrwt>
<rscale>  0 0.27503670E+03</rscale>
<asrwt>0</asrwt>
<pdfrwt beam="1">  1        1 0.51540791E-01 0.27503670E+03</pdfrwt>
<pdfrwt beam="2">  1       -1 0.86844737E-02 0.27503670E+03</pdfrwt>
<totfact> 0.57378874E+03</totfact>
</mgrwt>
</event>
<event>
 9    1  0.2054950E-002  0.2756091E+03  0.7818608E-02  0.1098112E+00
         -1   -1    0    0    0  501 -0.00000000000E+00  0.00000000000E+00  0.34867097111E+03  0.34867097111E+03  0.00000000000E+00 0. -1.
          1   -1    0    0  501    0  0.00000000000E+00 -0.00000000000E+00 -0.54464215989E+02  0.54464215989E+02  0.00000000000E+00 0. -1.
         36    2    1    2    0    0 -0.71054273576E-14 -0.14210854715E-13  0.29420675512E+03  0.40313518709E+03  0.27560907880E+03 0.  0.
         25    2    3    3    0    0  0.38817771395E+02 -0.46863332630E+02  0.12813773921E+03  0.18917220792E+03  0.12515531437E+03 0.  0.
         25    2    3    3    0    0 -0.38817771395E+02  0.46863332630E+02  0.16606901590E+03  0.21396297918E+03  0.12040866703E+03 0.  0.
          5    1    4    4  502    0  0.77157498886E+02 -0.33118964505E+01  0.51547855722E+02  0.92970531471E+02  0.47000000000E+01 0.  1.
         -5    1    4    4    0  502 -0.38339727491E+02 -0.43551436179E+02  0.76589883493E+02  0.96201676444E+02  0.47000000000E+01 0.  1.
          5    1    5    5  503    0 -0.13140444267E+02 -0.39989862446E+02  0.70249610801E+02  0.82030227305E+02  0.47000000000E+01 0. -1.
         -5    1    5    5    0  503 -0.25677327129E+02  0.86853195076E+02  0.95819405101E+02  0.13193275188E+03  0.47000000000E+01 0. -1.
<mgrwt>
<rscale>  0 0.27560908E+03</rscale>
<asrwt>0</asrwt>
<pdfrwt beam="1">  1        1 0.83791104E-02 0.27560908E+03</pdfrwt>
<pdfrwt beam="2">  1       -1 0.53641687E-01 0.27560908E+03</pdfrwt>
<totfact> 0.29287577E+03</totfact>
</mgrwt>
</event>
<event>
 9    1  0.2054950E-002  0.2744936E+03  0.7818608E-02  0.1098735E+00
         -1   -1    0    0    0  501 -0.00000000000E+00  0.00000000000E+00  0.24934953438E+02  0.24934953438E+02  0.00000000000E+00 0. -1.
          1   -1    0    0  501    0  0.00000000000E+00 -0.00000000000E+00 -0.75543304181E+03  0.75543304181E+03  0.00000000000E+00 0. -1.
         36    2    1    2    0    0 -0.71054273576E-14 -0.35527136788E-14 -0.73049808837E+03  0.78036799525E+03  0.27449362632E+03 0.  0.
         25    2    3    3    0    0 -0.47434326193E+02 -0.15613128716E+02 -0.38187676720E+03  0.40599521959E+03  0.12848528287E+03 0.  0.
         25    2    3    3    0    0  0.47434326193E+02  0.15613128716E+02 -0.34862132117E+03  0.37437277566E+03  0.12698174864E+03 0.  0.
          5    1    4    4  502    0 -0.67287324660E+02 -0.42741810449E+02 -0.35145876379E+03  0.36041614707E+03  0.47000000000E+01 0.  1.
         -5    1    4    4    0  502  0.19852998467E+02  0.27128681733E+02 -0.30418003409E+02  0.45579072523E+02  0.47000000000E+01 0.  1.
          5    1    5    5  503    0 -0.34278115483E+02 -0.15208573922E+02 -0.18523438511E+03  0.18905067402E+03  0.47000000000E+01 0.  1.
         -5    1    5    5    0  503  0.81712441676E+02  0.30821702638E+02 -0.16338693606E+03  0.18532210163E+03  0.47000000000E+01 0.  1.
<mgrwt>
<rscale>  0 0.27449363E+03</rscale>
<asrwt>0</asrwt>
<pdfrwt beam="1">  1        1 0.11622047E+00 0.27449363E+03</pdfrwt>
<pdfrwt beam="2">  1       -1 0.38361465E-02 0.27449363E+03</pdfrwt>
<totfact> 0.65701878E+03</totfact>
</mgrwt>
</event>
<event>
 9    1  0.2054950E-002  0.2741787E+03  0.7818608E-02  0.1098912E+00
          2   -1    0    0  501    0  0.00000000000E+00  0.00000000000E+00  0.18904700971E+04  0.18904700971E+04  0.00000000000E+00 0.  1.
         -2   -1    0    0    0  501 -0.00000000000E+00 -0.00000000000E+00 -0.99411720405E+01  0.99411720405E+01  0.00000000000E+00 0.  1.
         36    2    1    2    0    0  0.71054273576E-14  0.00000000000E+00  0.18805289251E+04  0.19004112692E+04  0.27417868971E+03 0.  0.
         25    2    3    3    0    0  0.15562889213E+02 -0.54789112647E+02  0.10121864925E+04  0.10212294529E+04  0.12306116076E+03 0.  0.
         25    2    3    3    0    0 -0.15562889213E+02  0.54789112647E+02  0.86834243253E+03  0.87918181631E+03  0.12529180185E+03 0.  0.
          5    1    4    4  502    0  0.13445261227E+02 -0.28299285957E+02  0.97374924345E+03  0.97426449374E+03  0.47000000000E+01 0.  1.
         -5    1    4    4    0  502  0.21176279858E+01 -0.26489826690E+02  0.38437249096E+02  0.46964959112E+02  0.47000000000E+01 0.  1.
          5    1    5    5  503    0  0.19386486176E+02 -0.24458001342E+02  0.78746167844E+02  0.84835597635E+02  0.47000000000E+01 0. -1.
         -5    1    5    5    0  503 -0.34949375389E+02  0.79247113989E+02  0.78959626468E+03  0.79434621867E+03  0.47000000000E+01 0. -1.
<mgrwt>
<rscale>  0 0.27417869E+03</rscale>
<asrwt>0</asrwt>
<pdfrwt beam="1">  1        2 0.29084127E+00 0.27417869E+03</pdfrwt>
<pdfrwt beam="2">  1       -2 0.15294126E-02 0.27417869E+03</pdfrwt>
<totfact> 0.97269812E+03</totfact>
</mgrwt>
</event>
<event>
 9    1  0.2054950E-002  0.2754721E+03  0.7818608E-02  0.1098188E+00
         -2   -1    0    0    0  501 -0.00000000000E+00  0.00000000000E+00  0.16875129223E+03  0.16875129223E+03  0.00000000000E+00 0.  1.
          2   -1    0    0  501    0  0.00000000000E+00 -0.00000000000E+00 -0.11242115722E+03  0.11242115722E+03  0.00000000000E+00 0.  1.
         36    2    1    2    0    0  0.00000000000E+00  0.00000000000E+00  0.56330135011E+02  0.28117244945E+03  0.27547207158E+03 0.  0.
         25    2    3    3    0    0  0.24093739692E+02  0.44702304520E+02 -0.18798474157E+02  0.12470979208E+03  0.11234031017E+03 0.  0.
         25    2    3    3    0    0 -0.24093739692E+02 -0.44702304520E+02  0.75128609168E+02  0.15646265737E+03  0.12750470938E+03 0.  0.
          5    1    4    4  502    0  0.10523404698E+02  0.18680242269E+02 -0.65652117481E+02  0.69224157831E+02  0.47000000000E+01 0. -1.
         -5    1    4    4    0  502  0.13570334994E+02  0.26022062251E+02  0.46853643324E+02  0.55485634252E+02  0.47000000000E+01 0. -1.
          5    1    5    5  503    0 -0.25969565666E+02  0.90493558354E+01 -0.28331590851E+02  0.39762774326E+02  0.47000000000E+01 0. -1.
         -5    1    5    5    0  503  0.18758259741E+01 -0.53751660355E+02  0.10346020002E+03  0.11669988304E+03  0.47000000000E+01 0. -1.
<mgrwt>
<rscale>  0 0.27547207E+03</rscale>
<asrwt>0</asrwt>
<pdfrwt beam="1">  1        2 0.17295563E-01 0.27547207E+03</pdfrwt>
<pdfrwt beam="2">  1       -2 0.25961737E-01 0.27547207E+03</pdfrwt>
<totfact> 0.43462574E+03</totfact>
</mgrwt>
</event>
<event>
 8    1  0.2054950E-002  0.2997380E+03  0.7818608E-02  0.1085372E+00
          1   -1    0    0  501    0  0.00000000000E+00  0.00000000000E+00  0.11450167083E+03  0.11450167083E+03  0.00000000000E+00 0. -1.
         -1   -1    0    0    0  501 -0.00000000000E+00 -0.00000000000E+00 -0.19616056380E+03  0.19616056380E+03  0.00000000000E+00 0. -1.
         25    2    1    2    0    0  0.22355523354E+02  0.71852970679E+02 -0.39144954612E+02  0.15533351157E+03  0.13012898803E+03 0.  0.
         25    2    1    2    0    0 -0.22355523354E+02 -0.71852970679E+02 -0.42513938359E+02  0.15532872307E+03  0.12906183958E+03 0.  0.
          5    1    3    3  502    0 -0.43193023268E+02  0.18385093299E+02 -0.51357495529E+02  0.69737588584E+02  0.47000000000E+01 0. -1.
         -5    1    3    3    0  502  0.65548546621E+02  0.53467877381E+02  0.12212540917E+02  0.85595922984E+02  0.47000000000E+01 0. -1.
          5    1    4    4  503    0  0.38100659402E+02 -0.76202307152E+02 -0.87133015658E+01  0.85769828532E+02  0.47000000000E+01 0.  1.
         -5    1    4    4    0  503 -0.60456182756E+02  0.43493364729E+01 -0.33800636793E+02  0.69558894534E+02  0.47000000000E+01 0.  1.
<mgrwt>
<rscale>  0 0.29973797E+03</rscale>
<asrwt>0</asrwt>
<pdfrwt beam="1">  1        1 0.17615642E-01 0.29973797E+03</pdfrwt>
<pdfrwt beam="2">  1       -1 0.30178548E-01 0.29973797E+03</pdfrwt>
<totfact> 0.30448311E+03</totfact>
</mgrwt>
</event>
<event>
 9    1  0.2054950E-002  0.2771082E+03  0.7818608E-02  0.1097279E+00
         -1   -1    0    0    0  501 -0.00000000000E+00  0.00000000000E+00  0.84875190064E+02  0.84875190064E+02  0.00000000000E+00 0. -1.
          1   -1    0    0  501    0  0.00000000000E+00 -0.00000000000E+00 -0.22618200446E+03  0.22618200446E+03  0.00000000000E+00 0. -1.
         36    2    1    2    0    0 -0.35527136788E-14  0.00000000000E+00 -0.14130681440E+03  0.31105719453E+03  0.27710821437E+03 0.  0.
         25    2    3    3    0    0 -0.15963481002E+02  0.53217750284E+02 -0.46794669135E+02  0.14471781141E+03  0.12516605853E+03 0.  0.
         25    2    3    3    0    0  0.15963481002E+02 -0.53217750284E+02 -0.94512145265E+02  0.16633938312E+03  0.12509709471E+03 0.  0.
          5    1    4    4  502    0 -0.40337229103E+02  0.81971734480E+02 -0.10328524146E+02  0.92060989112E+02  0.47000000000E+01 0. -1.
         -5    1    4    4    0  502  0.24373748101E+02 -0.28753984196E+02 -0.36466144990E+02  0.52656822293E+02  0.47000000000E+01 0. -1.
          5    1    5    5  503    0  0.46192575187E+02 -0.76462966243E+01  0.10167731236E+02  0.48142420098E+02  0.47000000000E+01 0.  1.
         -5    1    5    5    0  503 -0.30229094185E+02 -0.45571453660E+02 -0.10467987650E+03  0.11819696302E+03  0.47000000000E+01 0.  1.
<mgrwt>
<rscale>  0 0.27710821E+03</rscale>
<asrwt>0</asrwt>
<pdfrwt beam="1">  1        1 0.34797232E-01 0.27710821E+03</pdfrwt>
<pdfrwt beam="2">  1       -1 0.13057722E-01 0.27710821E+03</pdfrwt>
<totfact> 0.49949253E+03</totfact>
</mgrwt>
</event>
<event>
 9    1  0.2054950E-002  0.2748011E+03  0.7818608E-02  0.1098563E+00
          2   -1    0    0  501    0  0.00000000000E+00  0.00000000000E+00  0.20172603701E+04  0.20172603701E+04  0.00000000000E+00 0.  1.
         -2   -1    0    0    0  501 -0.00000000000E+00 -0.00000000000E+00 -0.93586861202E+01  0.93586861202E+01  0.00000000000E+00 0.  1.
         36    2    1    2    0    0  0.71054273576E-14  0.00000000000E+00  0.20079016840E+04  0.20266190562E+04  0.27480106715E+03 0.  0.
         25    2    3    3    0    0  0.42034994435E+02 -0.10442431822E+01  0.72029747492E+03  0.73172496775E+03  0.12175773015E+03 0.  0.
         25    2    3    3    0    0 -0.42034994435E+02  0.10442431822E+01  0.12876042091E+04  0.12948940885E+04  0.13060654642E+03 0.  0.
          5    1    4    4  502    0  0.62206311629E+02  0.64124851237E+01  0.17352440037E+03  0.18450895018E+03  0.47000000000E+01 0.  1.
         -5    1    4    4    0  502 -0.20171317194E+02 -0.74567283059E+01  0.54677307455E+03  0.54721601757E+03  0.47000000000E+01 0.  1.
          5    1    5    5  503    0 -0.72074486465E+01  0.35372716176E+02  0.10251265810E+03  0.10878470222E+03  0.47000000000E+01 0.  1.
         -5    1    5    5    0  503 -0.34827545788E+02 -0.34328472994E+02  0.11850915510E+04  0.11861093863E+04  0.47000000000E+01 0.  1.
<mgrwt>
<rscale>  0 0.27480107E+03</rscale>
<asrwt>0</asrwt>
<pdfrwt beam="1">  1        2 0.31034740E+00 0.27480107E+03</pdfrwt>
<pdfrwt beam="2">  1       -2 0.14397995E-02 0.27480107E+03</pdfrwt>
<totfact> 0.91140956E+03</totfact>
</mgrwt>
</event>
<event>
 9    1  0.2054950E-002  0.2750031E+03  0.7818608E-02  0.1098450E+00
         -1   -1    0    0    0  501 -0.00000000000E+00  0.00000000000E+00  0.19169875789E+03  0.19169875789E+03  0.00000000000E+00 0.  1.
          1   -1    0    0  501    0  0.00000000000E+00 -0.00000000000E+00 -0.98627043835E+02  0.98627043835E+02  0.00000000000E+00 0.  1.
         36    2    1    2    0    0 -0.35527136788E-14  0.00000000000E+00  0.93071714059E+02  0.29032580173E+03  0.27500314033E+03 0.  0.
         25    2    3    3    0    0 -0.10809991990E+02 -0.36900858728E+02  0.73087378785E+02  0.15418141974E+03  0.13019837155E+03 0.  0.
         25    2    3    3    0    0  0.10809991990E+02  0.36900858728E+02  0.19984335275E+02  0.13614438199E+03  0.12906351068E+03 0.  0.
          5    1    4    4  502    0  0.49631101404E+02 -0.53099331948E+02  0.43131784351E+02  0.84647658568E+02  0.47000000000E+01 0. -1.
         -5    1    4    4    0  502 -0.60441093394E+02  0.16198473219E+02  0.29955594434E+02  0.69533761175E+02  0.47000000000E+01 0. -1.
          5    1    5    5  503    0 -0.73875813895E+01 -0.47435323463E+02  0.58309589274E+01  0.48587821034E+02  0.47000000000E+01 0. -1.
         -5    1    5    5    0  503  0.18197573380E+02  0.84336182191E+02  0.14153376347E+02  0.87556560951E+02  0.47000000000E+01 0. -1.
<mgrwt>
<rscale>  0 0.27500314E+03</rscale>
<asrwt>0</asrwt>
<pdfrwt beam="1">  1        1 0.15173391E-01 0.27500314E+03</pdfrwt>
<pdfrwt beam="2">  1       -1 0.29492117E-01 0.27500314E+03</pdfrwt>
<totfact> 0.38401465E+03</totfact>
</mgrwt>
</event>
<event>
 9    1  0.2054950E-002  0.2751786E+03  0.7818608E-02  0.1098352E+00
         -2   -1    0    0    0  501 -0.00000000000E+00  0.00000000000E+00  0.14487472253E+03  0.14487472253E+03  0.00000000000E+00 0.  1.
          2   -1    0    0  501    0  0.00000000000E+00 -0.00000000000E+00 -0.13067028760E+03  0.13067028760E+03  0.00000000000E+00 0.  1.
         36    2    1    2    0    0 -0.35527136788E-14  0.00000000000E+00  0.14204434932E+02  0.27554501012E+03  0.27517864494E+03 0.  0.
         25    2    3    3    0    0  0.25723511993E+02  0.50640050753E+02  0.12816733136E+02  0.13732905756E+03  0.12437398278E+03 0.  0.
         25    2    3    3    0    0 -0.25723511993E+02 -0.50640050753E+02  0.13877017958E+01  0.13821595257E+03  0.12599845244E+03 0.  0.
          5    1    4    4  502    0 -0.47786304937E+02  0.21308368121E+02 -0.12687272185E+02  0.54042893770E+02  0.47000000000E+01 0.  1.
         -5    1    4    4    0  502  0.73509816930E+02  0.29331682631E+02  0.25504005321E+02  0.83286163787E+02  0.47000000000E+01 0.  1.
          5    1    5    5  503    0 -0.22757195718E+02 -0.79673670103E+02  0.37899873612E+02  0.91237459875E+02  0.47000000000E+01 0.  1.
         -5    1    5    5    0  503 -0.29663162748E+01  0.29033619350E+02 -0.36512171817E+02  0.46978492692E+02  0.47000000000E+01 0.  1.
<mgrwt>
<rscale>  0 0.27517864E+03</rscale>
<asrwt>0</asrwt>
<pdfrwt beam="1">  1        2 0.20103121E-01 0.27517864E+03</pdfrwt>
<pdfrwt beam="2">  1       -2 0.22288419E-01 0.27517864E+03</pdfrwt>
<totfact> 0.47742948E+03</totfact>
</mgrwt>
</event>
<event>
 9    1  0.2054950E-002  0.2752318E+03  0.7818608E-02  0.1098322E+00
          2   -1    0    0  501    0  0.00000000000E+00  0.00000000000E+00  0.10421862522E+03  0.10421862522E+03  0.00000000000E+00 0.  1.
         -2   -1    0    0    0  501 -0.00000000000E+00 -0.00000000000E+00 -0.18171546200E+03  0.18171546200E+03  0.00000000000E+00 0.  1.
         36    2    1    2    0    0  0.00000000000E+00  0.00000000000E+00 -0.77496836782E+02  0.28593408722E+03  0.27523179780E+03 0.  0.
         25    2    3    3    0    0  0.51304662970E+02 -0.17709827051E+02 -0.65962120726E+02  0.15096893040E+03  0.12447815133E+03 0.  0.
         25    2    3    3    0    0 -0.51304662970E+02  0.17709827051E+02 -0.11534716055E+02  0.13496515682E+03  0.12303144909E+03 0.  0.
          5    1    4    4  502    0  0.87512557745E+02 -0.19343061694E+02 -0.70517876263E+02  0.11413791075E+03  0.47000000000E+01 0. -1.
         -5    1    4    4    0  502 -0.36207894775E+02  0.16332346429E+01  0.45557555369E+01  0.36831019643E+02  0.47000000000E+01 0. -1.
          5    1    5    5  503    0 -0.29568079382E+01  0.30784297426E+02 -0.58376114278E+02  0.66228969487E+02  0.47000000000E+01 0. -1.
         -5    1    5    5    0  503 -0.48347855031E+02 -0.13074470374E+02  0.46841398222E+02  0.68736187333E+02  0.47000000000E+01 0. -1.
<mgrwt>
<rscale>  0 0.27523180E+03</rscale>
<asrwt>0</asrwt>
<pdfrwt beam="1">  1        2 0.16033635E-01 0.27523180E+03</pdfrwt>
<pdfrwt beam="2">  1       -2 0.27956224E-01 0.27523180E+03</pdfrwt>
<totfact> 0.41615181E+03</totfact>
</mgrwt>
</event>
<event>
 9    1  0.2054950E-002  0.2753199E+03  0.7818608E-02  0.1098273E+00
         -2   -1    0    0    0  501 -0.00000000000E+00  0.00000000000E+00  0.32110911060E+03  0.32110911060E+03  0.00000000000E+00 0.  1.
          2   -1    0    0  501    0  0.00000000000E+00 -0.00000000000E+00 -0.59015007436E+02  0.59015007436E+02  0.00000000000E+00 0.  1.
         36    2    1    2    0    0  0.71054273576E-14  0.00000000000E+00  0.26209410316E+03  0.38012411804E+03  0.27531986161E+03 0.  0.
         25    2    3    3    0    0 -0.57200378152E+02  0.14798401325E+02  0.17240028090E+03  0.21894391637E+03  0.12134127788E+03 0.  0.
         25    2    3    3    0    0  0.57200378152E+02 -0.14798401325E+02  0.89693822267E+02  0.16118020167E+03  0.12017986402E+03 0.  0.
          5    1    4    4  502    0 -0.49344838097E+02 -0.45214997491E+02  0.12520862281E+03  0.14205139306E+03  0.47000000000E+01 0.  1.
         -5    1    4    4    0  502 -0.78555400557E+01  0.60013398816E+02  0.47191658089E+02  0.76892523305E+02  0.47000000000E+01 0.  1.
          5    1    5    5  503    0 -0.11314528763E+02  0.37666732963E+02  0.45654909535E+01  0.39871481549E+02  0.47000000000E+01 0.  1.
         -5    1    5    5    0  503  0.68514906915E+02 -0.52465134288E+02  0.85128331313E+02  0.12130872012E+03  0.47000000000E+01 0.  1.
<mgrwt>
<rscale>  0 0.27531986E+03</rscale>
<asrwt>0</asrwt>
<pdfrwt beam="1">  1        2 0.90792321E-02 0.27531986E+03</pdfrwt>
<pdfrwt beam="2">  1       -2 0.49401401E-01 0.27531986E+03</pdfrwt>
<totfact> 0.28378337E+03</totfact>
</mgrwt>
</event>
<event>
 9    1  0.2054950E-002  0.2748029E+03  0.7818608E-02  0.1098562E+00
         -2   -1    0    0    0  501 -0.00000000000E+00  0.00000000000E+00  0.47900551883E+02  0.47900551883E+02  0.00000000000E+00 0.  1.
          2   -1    0    0  501    0  0.00000000000E+00 -0.00000000000E+00 -0.39413234730E+03  0.39413234730E+03  0.00000000000E+00 0.  1.
         36    2    1    2    0    0  0.00000000000E+00  0.00000000000E+00 -0.34623179542E+03  0.44203289919E+03  0.27480288900E+03 0.  0.
         25    2    3    3    0    0 -0.46242754132E+01  0.12614852197E+02 -0.24991734799E+03  0.27976176921E+03  0.12500979267E+03 0.  0.
         25    2    3    3    0    0  0.46242754132E+01 -0.12614852197E+02 -0.96314447430E+02  0.16227112998E+03  0.12990353507E+03 0.  0.
          5    1    4    4  502    0 -0.19488705443E+02  0.46789067040E+02 -0.35452123561E+02  0.62032003831E+02  0.47000000000E+01 0. -1.
         -5    1    4    4    0  502  0.14864430030E+02 -0.34174214843E+02 -0.21446522443E+03  0.21772976537E+03  0.47000000000E+01 0. -1.
          5    1    5    5  503    0 -0.88079326767E+01 -0.40921007363E+02 -0.11705573374E+03  0.12440355028E+03  0.47000000000E+01 0.  1.
         -5    1    5    5    0  503  0.13432208090E+02  0.28306155167E+02  0.20741286309E+02  0.37867579699E+02  0.47000000000E+01 0.  1.
<mgrwt>
<rscale>  0 0.27480289E+03</rscale>
<asrwt>0</asrwt>
<pdfrwt beam="1">  1        2 0.60635744E-01 0.27480289E+03</pdfrwt>
<pdfrwt beam="2">  1       -2 0.73693159E-02 0.27480289E+03</pdfrwt>
<totfact> 0.86673338E+03</totfact>
</mgrwt>
</event>
<event>
 9    1  0.2054950E-002  0.2748083E+03  0.7818608E-02  0.1098559E+00
         -1   -1    0    0    0  501 -0.00000000000E+00  0.00000000000E+00  0.12376715965E+02  0.12376715965E+02  0.00000000000E+00 0.  1.
          1   -1    0    0  501    0  0.00000000000E+00 -0.00000000000E+00 -0.15254367958E+04  0.15254367958E+04  0.00000000000E+00 0.  1.
         36    2    1    2    0    0  0.00000000000E+00  0.00000000000E+00 -0.15130600798E+04  0.15378135118E+04  0.27480828186E+03 0.  0.
         25    2    3    3    0    0  0.15802306719E+02  0.39091827282E+02 -0.10168490133E+04  0.10252728010E+04  0.12419547800E+03 0.  0.
         25    2    3    3    0    0 -0.15802306719E+02 -0.39091827282E+02 -0.49621106655E+03  0.51254071078E+03  0.12122158960E+03 0.  0.
          5    1    4    4  502    0 -0.16500376333E+00  0.62104985602E+02 -0.95702171406E+03  0.95904624896E+03  0.47000000000E+01 0. -1.
         -5    1    4    4    0  502  0.15967310483E+02 -0.23013158320E+02 -0.59827299220E+02  0.66226552015E+02  0.47000000000E+01 0. -1.
          5    1    5    5  503    0 -0.44918464158E+02  0.19676865079E+02 -0.33231120822E+03  0.33594296621E+03  0.47000000000E+01 0. -1.
         -5    1    5    5    0  503  0.29116157439E+02 -0.58768692360E+02 -0.16389985833E+03  0.17659774457E+03  0.47000000000E+01 0. -1.
<mgrwt>
<rscale>  0 0.27480828E+03</rscale>
<asrwt>0</asrwt>
<pdfrwt beam="1">  1        1 0.23468273E+00 0.27480828E+03</pdfrwt>
<pdfrwt beam="2">  1       -1 0.19041089E-02 0.27480828E+03</pdfrwt>
<totfact> 0.50722107E+03</totfact>
</mgrwt>
</event>
<event>
 9    1  0.2054950E-002  0.2750746E+03  0.7818608E-02  0.1098410E+00
          3   -1    0    0  501    0  0.00000000000E+00  0.00000000000E+00  0.39937010079E+03  0.39937010079E+03  0.00000000000E+00 0. -1.
         -3   -1    0    0    0  501 -0.00000000000E+00 -0.00000000000E+00 -0.47365861613E+02  0.47365861613E+02  0.00000000000E+00 0. -1.
         36    2    1    2    0    0  0.00000000000E+00 -0.71054273576E-14  0.35200423918E+03  0.44673596240E+03  0.27507460025E+03 0.  0.
         25    2    3    3    0    0 -0.83915670738E+01  0.46518707740E+02  0.12023152932E+03  0.17927464655E+03  0.12429549342E+03 0.  0.
         25    2    3    3    0    0  0.83915670738E+01 -0.46518707740E+02  0.23177270986E+03  0.26746131586E+03  0.12483011606E+03 0.  0.
          5    1    4    4  502    0  0.21033820143E+02 -0.13190740739E+02 -0.14348488232E+02  0.29058326614E+02  0.47000000000E+01 0. -1.
         -5    1    4    4    0  502 -0.29425387217E+02  0.59709448479E+02  0.13458001755E+03  0.15021631993E+03  0.47000000000E+01 0. -1.
          5    1    5    5  503    0  0.39156963297E+02 -0.57670717255E+01  0.20646939917E+03  0.21028131084E+03  0.47000000000E+01 0. -1.
         -5    1    5    5    0  503 -0.30765396223E+02 -0.40751636015E+02  0.25303310686E+02  0.57180005022E+02  0.47000000000E+01 0. -1.
<mgrwt>
<rscale>  0 0.27507460E+03</rscale>
<asrwt>0</asrwt>
<pdfrwt beam="1">  1        3 0.61441552E-01 0.27507460E+03</pdfrwt>
<pdfrwt beam="2">  1       -3 0.72870559E-02 0.27507460E+03</pdfrwt>
<totfact> 0.82800356E+02</totfact>
</mgrwt>
</event>
<event>
 9    1  0.2054950E-002  0.2752484E+03  0.7818608E-02  0.1098313E+00
          1   -1    0    0  501    0  0.00000000000E+00  0.00000000000E+00  0.14077776154E+04  0.14077776154E+04  0.00000000000E+00 0. -1.
         -1   -1    0    0    0  501 -0.00000000000E+00 -0.00000000000E+00 -0.13454131668E+02  0.13454131668E+02  0.00000000000E+00 0. -1.
         36    2    1    2    0    0  0.00000000000E+00 -0.71054273576E-14  0.13943234838E+04  0.14212317471E+04  0.27524843613E+03 0.  0.
         25    2    3    3    0    0 -0.35642021725E+02  0.23691665941E+02  0.42979010863E+03  0.44790445372E+03  0.11860528418E+03 0.  0.
         25    2    3    3    0    0  0.35642021725E+02 -0.23691665941E+02  0.96453337515E+03  0.97332729339E+03  0.12332777282E+03 0.  0.
          5    1    4    4  502    0  0.53080871687E+01  0.37815342467E+02  0.37916024320E+03  0.38110727615E+03  0.47000000000E+01 0. -1.
         -5    1    4    4    0  502 -0.40950108894E+02 -0.14123676526E+02  0.50629865439E+02  0.66797177570E+02  0.47000000000E+01 0. -1.
          5    1    5    5  503    0  0.24016841599E+02 -0.53049467968E+02  0.89398865214E+03  0.89589556025E+03  0.47000000000E+01 0.  1.
         -5    1    5    5    0  503  0.11625180126E+02  0.29357802027E+02  0.70544723008E+02  0.77431733141E+02  0.47000000000E+01 0.  1.
<mgrwt>
<rscale>  0 0.27524844E+03</rscale>
<asrwt>0</asrwt>
<pdfrwt beam="1">  1        1 0.21658106E+00 0.27524844E+03</pdfrwt>
<pdfrwt beam="2">  1       -1 0.20698675E-02 0.27524844E+03</pdfrwt>
<totfact> 0.53769110E+03</totfact>
</mgrwt>
</event>
<event>
 9    1  0.2054950E-002  0.2763710E+03  0.7818608E-02  0.1097688E+00
          2   -1    0    0  501    0  0.00000000000E+00  0.00000000000E+00  0.58806447114E+03  0.58806447114E+03  0.00000000000E+00 0. -1.
         -2   -1    0    0    0  501 -0.00000000000E+00 -0.00000000000E+00 -0.32471322780E+02  0.32471322780E+02  0.00000000000E+00 0. -1.
         36    2    1    2    0    0  0.00000000000E+00  0.00000000000E+00  0.55559314836E+03  0.62053579392E+03  0.27637099166E+03 0.  0.
         25    2    3    3    0    0  0.31425452485E+02 -0.49609370572E+02  0.29035771507E+03  0.32179989733E+03  0.12569376478E+03 0.  0.
         25    2    3    3    0    0 -0.31425452485E+02  0.49609370572E+02  0.26523543329E+03  0.29873589659E+03  0.12427651480E+03 0.  0.
          5    1    4    4  502    0  0.55469729054E+02 -0.65158742786E+02  0.27681523133E+03  0.28977804420E+03  0.47000000000E+01 0.  1.
         -5    1    4    4    0  502 -0.24044276569E+02  0.15549372214E+02  0.13542483743E+02  0.32021853131E+02  0.47000000000E+01 0.  1.
          5    1    5    5  503    0  0.75939715041E+01 -0.65346316091E+01  0.21112918962E+03  0.21141900228E+03  0.47000000000E+01 0. -1.
         -5    1    5    5    0  503 -0.39019423989E+02  0.56144002181E+02  0.54106243664E+02  0.87316894314E+02  0.47000000000E+01 0. -1.
<mgrwt>
<rscale>  0 0.27637099E+03</rscale>
<asrwt>0</asrwt>
<pdfrwt beam="1">  1        2 0.90471449E-01 0.27637099E+03</pdfrwt>
<pdfrwt beam="2">  1       -2 0.49955885E-02 0.27637099E+03</pdfrwt>
<totfact> 0.10081935E+04</totfact>
</mgrwt>
</event>
<event>
 9    1  0.2054950E-002  0.2751595E+03  0.7818608E-02  0.1098363E+00
          1   -1    0    0  501    0  0.00000000000E+00  0.00000000000E+00  0.23694093019E+02  0.23694093019E+02  0.00000000000E+00 0. -1.
         -1   -1    0    0    0  501 -0.00000000000E+00 -0.00000000000E+00 -0.79885654778E+03  0.79885654778E+03  0.00000000000E+00 0. -1.
         36    2    1    2    0    0  0.00000000000E+00 -0.35527136788E-14 -0.77516245476E+03  0.82255064080E+03  0.27515945451E+03 0.  0.
         25    2    3    3    0    0 -0.40223134247E+02  0.17760268904E+02 -0.45198390285E+03  0.47165237972E+03  0.12740954116E+03 0.  0.
         25    2    3    3    0    0  0.40223134247E+02 -0.17760268904E+02 -0.32317855191E+03  0.35089826108E+03  0.12942907531E+03 0.  0.
          5    1    4    4  502    0 -0.58621135109E+02 -0.28341591377E+02 -0.36986628893E+03  0.37558333958E+03  0.47000000000E+01 0.  1.
         -5    1    4    4    0  502  0.18398000862E+02  0.46101860281E+02 -0.82117613920E+02  0.96069040137E+02  0.47000000000E+01 0.  1.
          5    1    5    5  503    0  0.38694340867E+02 -0.63776272523E+02 -0.11160565230E+03  0.13432265847E+03  0.47000000000E+01 0.  1.
         -5    1    5    5    0  503  0.15287933801E+01  0.46016003619E+02 -0.21157289961E+03  0.21657560262E+03  0.47000000000E+01 0.  1.
<mgrwt>
<rscale>  0 0.27515945E+03</rscale>
<asrwt>0</asrwt>
<pdfrwt beam="1">  1        1 0.36452448E-02 0.27515945E+03</pdfrwt>
<pdfrwt beam="2">  1       -1 0.12290102E+00 0.27515945E+03</pdfrwt>
<totfact> 0.16166560E+03</totfact>
</mgrwt>
</event>
<event>
 9    1  0.2054950E-002  0.2746962E+03  0.7818608E-02  0.1098622E+00
          1   -1    0    0  501    0  0.00000000000E+00  0.00000000000E+00  0.42563503197E+03  0.42563503197E+03  0.00000000000E+00 0.  1.
         -1   -1    0    0    0  501 -0.00000000000E+00 -0.00000000000E+00 -0.44320826217E+02  0.44320826217E+02  0.00000000000E+00 0.  1.
         36    2    1    2    0    0  0.14210854715E-13  0.71054273576E-14  0.38131420575E+03  0.46995585819E+03  0.27469616877E+03 0.  0.
         25    2    3    3    0    0 -0.70335217846E+02 -0.23599307536E+02  0.18476641012E+03  0.22689637725E+03  0.10880886689E+03 0.  0.
         25    2    3    3    0    0  0.70335217846E+02  0.23599307536E+02  0.19654779564E+03  0.24305948094E+03  0.12224117604E+03 0.  0.
          5    1    4    4  502    0 -0.43975859212E+02  0.30315132334E+02  0.14539673018E+03  0.15496832769E+03  0.47000000000E+01 0.  1.
         -5    1    4    4    0  502 -0.26359358635E+02 -0.53914439870E+02  0.39369679939E+02  0.71928049554E+02  0.47000000000E+01 0.  1.
          5    1    5    5  503    0 -0.31792280639E+02  0.24980377290E+02  0.58686095499E+02  0.71420698419E+02  0.47000000000E+01 0.  1.
         -5    1    5    5    0  503  0.10212749849E+03 -0.13810697537E+01  0.13786170014E+03  0.17163878252E+03  0.47000000000E+01 0.  1.
<mgrwt>
<rscale>  0 0.27469617E+03</rscale>
<asrwt>0</asrwt>
<pdfrwt beam="1">  1        1 0.65482310E-01 0.27469617E+03</pdfrwt>
<pdfrwt beam="2">  1       -1 0.68185889E-02 0.27469617E+03</pdfrwt>
<totfact> 0.61119189E+03</totfact>
</mgrwt>
</event>
<event>
 9    1  0.2054950E-002  0.2749936E+03  0.7818608E-02  0.1098455E+00
          4   -1    0    0  501    0  0.00000000000E+00  0.00000000000E+00  0.29382196556E+02  0.29382196556E+02  0.00000000000E+00 0. -1.
         -4   -1    0    0    0  501 -0.00000000000E+00 -0.00000000000E+00 -0.64342948194E+03  0.64342948194E+03  0.00000000000E+00 0. -1.
         36    2    1    2    0    0 -0.35527136788E-14  0.35527136788E-14 -0.61404728538E+03  0.67281167849E+03  0.27499361089E+03 0.  0.
         25    2    3    3    0    0 -0.16052642261E+01 -0.29960094347E+02 -0.43356261556E+03  0.45172736648E+03  0.12321074582E+03 0.  0.
         25    2    3    3    0    0  0.16052642261E+01  0.29960094347E+02 -0.18048466982E+03  0.22108431201E+03  0.12411032532E+03 0.  0.
          5    1    4    4  502    0  0.24531261108E+02 -0.70869429760E+02 -0.21388303349E+03  0.22669870061E+03  0.47000000000E+01 0. -1.
         -5    1    4    4    0  502 -0.26136525334E+02  0.40909335413E+02 -0.21967958208E+03  0.22502866587E+03  0.47000000000E+01 0. -1.
          5    1    5    5  503    0 -0.32002166352E+02 -0.16398476800E+02 -0.52137945888E+01  0.36637717540E+02  0.47000000000E+01 0.  1.
         -5    1    5    5    0  503  0.33607430578E+02  0.46358571147E+02 -0.17527087523E+03  0.18444659447E+03  0.47000000000E+01 0.  1.
<mgrwt>
<rscale>  0 0.27499361E+03</rscale>
<asrwt>0</asrwt>
<pdfrwt beam="1">  1        4 0.45203378E-02 0.27499361E+03</pdfrwt>
<pdfrwt beam="2">  1       -4 0.98989155E-01 0.27499361E+03</pdfrwt>
<totfact> 0.46017603E+02</totfact>
</mgrwt>
</event>
<event>
 9    1  0.2054950E-002  0.2736315E+03  0.7818608E-02  0.1099219E+00
          2   -1    0    0  501    0  0.00000000000E+00  0.00000000000E+00  0.11257023961E+04  0.11257023961E+04  0.00000000000E+00 0. -1.
         -2   -1    0    0    0  501 -0.00000000000E+00 -0.00000000000E+00 -0.16628334079E+02  0.16628334079E+02  0.00000000000E+00 0. -1.
         36    2    1    2    0    0  0.35527136788E-14  0.00000000000E+00  0.11090740620E+04  0.11423307301E+04  0.27363154434E+03 0.  0.
         25    2    3    3    0    0  0.38564136113E+01  0.53955330233E+02  0.65205305104E+03  0.66586258440E+03  0.12358701527E+03 0.  0.
         25    2    3    3    0    0 -0.38564136113E+01 -0.53955330233E+02  0.45702101093E+03  0.47646814573E+03  0.12340032366E+03 0.  0.
          5    1    4    4  502    0 -0.31743459561E+02  0.14162941378E+02  0.48074293110E+02  0.59510199054E+02  0.47000000000E+01 0.  1.
         -5    1    4    4    0  502  0.35599873172E+02  0.39792388855E+02  0.60397875793E+03  0.60635238534E+03  0.47000000000E+01 0.  1.
          5    1    5    5  503    0 -0.62099407013E+02 -0.14339064554E+02  0.23117946558E+03  0.23984991230E+03  0.47000000000E+01 0.  1.
         -5    1    5    5    0  503  0.58242993401E+02 -0.39616265679E+02  0.22584154535E+03  0.23661823343E+03  0.47000000000E+01 0.  1.
<mgrwt>
<rscale>  0 0.27363154E+03</rscale>
<asrwt>0</asrwt>
<pdfrwt beam="1">  1        2 0.17318493E+00 0.27363154E+03</pdfrwt>
<pdfrwt beam="2">  1       -2 0.25582061E-02 0.27363154E+03</pdfrwt>
<totfact> 0.11825669E+04</totfact>
</mgrwt>
</event>
<event>
 9    1  0.2054950E-002  0.2739833E+03  0.7818608E-02  0.1099021E+00
          2   -1    0    0  501    0  0.00000000000E+00  0.00000000000E+00  0.21653911462E+04  0.21653911462E+04  0.00000000000E+00 0. -1.
         -2   -1    0    0    0  501 -0.00000000000E+00 -0.00000000000E+00 -0.86666617510E+01  0.86666617510E+01  0.00000000000E+00 0. -1.
         36    2    1    2    0    0  0.53290705182E-14  0.00000000000E+00  0.21567244845E+04  0.21740578080E+04  0.27398330331E+03 0.  0.
         25    2    3    3    0    0 -0.11776494997E+02  0.52312661679E+02  0.95762817473E+03  0.96767572696E+03  0.12833273587E+03 0.  0.
         25    2    3    3    0    0  0.11776494997E+02 -0.52312661679E+02  0.11990963097E+04  0.12063820810E+04  0.12103910509E+03 0.  0.
          5    1    4    4  502    0  0.45457207140E+02  0.53382034626E+02  0.71022362138E+03  0.71369158722E+03  0.47000000000E+01 0.  1.
         -5    1    4    4    0  502 -0.57233702137E+02 -0.10693729477E+01  0.24740455335E+03  0.25398413974E+03  0.47000000000E+01 0.  1.
          5    1    5    5  503    0  0.26187628676E+02  0.98891734589E-01  0.98770999207E+03  0.98806827705E+03  0.47000000000E+01 0. -1.
         -5    1    5    5    0  503 -0.14411133679E+02 -0.52411553413E+02  0.21138631768E+03  0.21831380397E+03  0.47000000000E+01 0. -1.
<mgrwt>
<rscale>  0 0.27398330E+03</rscale>
<asrwt>0</asrwt>
<pdfrwt beam="1">  1        2 0.33313667E+00 0.27398330E+03</pdfrwt>
<pdfrwt beam="2">  1       -2 0.13333343E-02 0.27398330E+03</pdfrwt>
<totfact> 0.85148137E+03</totfact>
</mgrwt>
</event>
<event>
 9    1  0.2054950E-002  0.2753785E+03  0.7818608E-02  0.1098240E+00
         -1   -1    0    0    0  501 -0.00000000000E+00  0.00000000000E+00  0.55028833867E+03  0.55028833867E+03  0.00000000000E+00 0. -1.
          1   -1    0    0  501    0  0.00000000000E+00 -0.00000000000E+00 -0.34451634274E+02  0.34451634274E+02  0.00000000000E+00 0. -1.
         36    2    1    2    0    0 -0.35527136788E-14  0.00000000000E+00  0.51583670440E+03  0.58473997295E+03  0.27537852196E+03 0.  0.
         25    2    3    3    0    0  0.25567313126E+02  0.27045536237E+02  0.18283968086E+03  0.22625064158E+03  0.12796036648E+03 0.  0.
         25    2    3    3    0    0 -0.25567313126E+02 -0.27045536237E+02  0.33299702354E+03  0.35848933137E+03  0.12744580999E+03 0.  0.
          5    1    4    4  502    0 -0.59255810985E+01 -0.50484024109E+01  0.18076482043E+03  0.18099339542E+03  0.47000000000E+01 0. -1.
         -5    1    4    4    0  502  0.31492894224E+02  0.32093938648E+02  0.20748604229E+01  0.45257246164E+02  0.47000000000E+01 0. -1.
          5    1    5    5  503    0  0.17735302210E+02 -0.75755123777E+01  0.29958728609E+03  0.30024416950E+03  0.47000000000E+01 0.  1.
         -5    1    5    5    0  503 -0.43302615336E+02 -0.19470023859E+02  0.33409737451E+02  0.58245161864E+02  0.47000000000E+01 0.  1.
<mgrwt>
<rscale>  0 0.27537852E+03</rscale>
<asrwt>0</asrwt>
<pdfrwt beam="1">  1        1 0.53002518E-02 0.27537852E+03</pdfrwt>
<pdfrwt beam="2">  1       -1 0.84659738E-01 0.27537852E+03</pdfrwt>
<totfact> 0.22191874E+03</totfact>
</mgrwt>
</event>
<event>
 9    1  0.2054950E-002  0.2749553E+03  0.7818608E-02  0.1098477E+00
         -4   -1    0    0    0  501 -0.00000000000E+00  0.00000000000E+00  0.12286674457E+03  0.12286674457E+03  0.00000000000E+00 0. -1.
          4   -1    0    0  501    0  0.00000000000E+00 -0.00000000000E+00 -0.15382609130E+03  0.15382609130E+03  0.00000000000E+00 0. -1.
         36    2    1    2    0    0  0.35527136788E-14  0.00000000000E+00 -0.30959346730E+02  0.27669283587E+03  0.27495534960E+03 0.  0.
         25    2    3    3    0    0  0.88083145229E+01 -0.28693982535E+02  0.23022852024E+02  0.13712769618E+03  0.13180676123E+03 0.  0.
         25    2    3    3    0    0 -0.88083145229E+01  0.28693982535E+02 -0.53982198753E+02  0.13956513969E+03  0.12515358324E+03 0.  0.
          5    1    4    4  502    0 -0.36533985994E+02  0.32323858507E+02  0.34733391335E+02  0.60067149383E+02  0.47000000000E+01 0. -1.
         -5    1    4    4    0  502  0.45342300516E+02 -0.61017841043E+02 -0.11710539312E+02  0.77060546797E+02  0.47000000000E+01 0. -1.
          5    1    5    5  503    0  0.73108892886E+01 -0.18418595396E+02 -0.80443417062E+02  0.82981486532E+02  0.47000000000E+01 0. -1.
         -5    1    5    5    0  503 -0.16119203811E+02  0.47112577932E+02  0.26461218308E+02  0.56583653163E+02  0.47000000000E+01 0. -1.
<mgrwt>
<rscale>  0 0.27495535E+03</rscale>
<asrwt>0</asrwt>
<pdfrwt beam="1">  1        4 0.23665553E-01 0.27495535E+03</pdfrwt>
<pdfrwt beam="2">  1       -4 0.18902576E-01 0.27495535E+03</pdfrwt>
<totfact> 0.77704382E+02</totfact>
</mgrwt>
</event>
<event>
 9    1  0.2054950E-002  0.2729838E+03  0.7818608E-02  0.1099584E+00
          1   -1    0    0  501    0  0.00000000000E+00  0.00000000000E+00  0.28786062752E+03  0.28786062752E+03  0.00000000000E+00 0. -1.
         -1   -1    0    0    0  501 -0.00000000000E+00 -0.00000000000E+00 -0.64718961635E+02  0.64718961635E+02  0.00000000000E+00 0. -1.
         36    2    1    2    0    0  0.00000000000E+00  0.00000000000E+00  0.22314166588E+03  0.35257958915E+03  0.27298381570E+03 0.  0.
         25    2    3    3    0    0 -0.58533360197E+01 -0.56080553939E+02  0.11723706390E+03  0.18049963353E+03  0.12512513129E+03 0.  0.
         25    2    3    3    0    0  0.58533360197E+01  0.56080553939E+02  0.10590460198E+03  0.17207995562E+03  0.12335492018E+03 0.  0.
          5    1    4    4  502    0  0.13437849799E+02 -0.91155663847E+02  0.10167462980E+03  0.13729439611E+03  0.47000000000E+01 0.  1.
         -5    1    4    4    0  502 -0.19291185819E+02  0.35075109909E+02  0.15562434099E+02  0.43205237419E+02  0.47000000000E+01 0.  1.
          5    1    5    5  503    0 -0.99039551791E+01 -0.92017001963E+01  0.10374126818E+03  0.10472392438E+03  0.47000000000E+01 0.  1.
         -5    1    5    5    0  503  0.15757291199E+02  0.65282254135E+02  0.21633338020E+01  0.67356031237E+02  0.47000000000E+01 0.  1.
<mgrwt>
<rscale>  0 0.27298382E+03</rscale>
<asrwt>0</asrwt>
<pdfrwt beam="1">  1        1 0.44286250E-01 0.27298382E+03</pdfrwt>
<pdfrwt beam="2">  1       -1 0.99567635E-02 0.27298382E+03</pdfrwt>
<totfact> 0.56264503E+03</totfact>
</mgrwt>
</event>
<event>
 9    1  0.2054950E-002  0.2700651E+03  0.7818608E-02  0.1101242E+00
          2   -1    0    0  501    0  0.00000000000E+00  0.00000000000E+00  0.65157984122E+03  0.65157984122E+03  0.00000000000E+00 0. -1.
         -2   -1    0    0    0  501 -0.00000000000E+00 -0.00000000000E+00 -0.27983967719E+02  0.27983967719E+02  0.00000000000E+00 0. -1.
         36    2    1    2    0    0  0.14210854715E-13  0.00000000000E+00  0.62359587350E+03  0.67956380894E+03  0.27006509766E+03 0.  0.
         25    2    3    3    0    0 -0.35614457040E+02  0.16948818360E+02  0.35081686522E+03  0.37681103442E+03  0.13175139749E+03 0.  0.
         25    2    3    3    0    0  0.35614457040E+02 -0.16948818360E+02  0.27277900828E+03  0.30275277452E+03  0.12528049780E+03 0.  0.
          5    1    4    4  502    0 -0.52692969714E+02  0.51506677854E+02  0.31646628949E+03  0.32496536632E+03  0.47000000000E+01 0.  1.
         -5    1    4    4    0  502  0.17078512674E+02 -0.34557859494E+02  0.34350575732E+02  0.51845668103E+02  0.47000000000E+01 0.  1.
          5    1    5    5  503    0  0.67803474949E+02 -0.39439376352E+02  0.10966012129E+03  0.13490814587E+03  0.47000000000E+01 0.  1.
         -5    1    5    5    0  503 -0.32189017908E+02  0.22490557992E+02  0.16311888699E+03  0.16784462865E+03  0.47000000000E+01 0.  1.
<mgrwt>
<rscale>  0 0.27006510E+03</rscale>
<asrwt>0</asrwt>
<pdfrwt beam="1">  1        2 0.10024304E+00 0.27006510E+03</pdfrwt>
<pdfrwt beam="2">  1       -2 0.43052263E-02 0.27006510E+03</pdfrwt>
<totfact> 0.11189338E+04</totfact>
</mgrwt>
</event>
<event>
 9    1  0.2054950E-002  0.2752737E+03  0.7818608E-02  0.1098299E+00
          2   -1    0    0  501    0  0.00000000000E+00  0.00000000000E+00  0.15380406149E+02  0.15380406149E+02  0.00000000000E+00 0.  1.
         -2   -1    0    0    0  501 -0.00000000000E+00 -0.00000000000E+00 -0.12316906925E+04  0.12316906925E+04  0.00000000000E+00 0.  1.
         36    2    1    2    0    0  0.35527136788E-14  0.00000000000E+00 -0.12163102863E+04  0.12470710986E+04  0.27527370452E+03 0.  0.
         25    2    3    3    0    0  0.11981272477E+02  0.43652988897E+02 -0.42353666255E+03  0.44357702087E+03  0.12380684388E+03 0.  0.
         25    2    3    3    0    0 -0.11981272477E+02 -0.43652988897E+02 -0.79277362379E+03  0.80349407777E+03  0.12273377734E+03 0.  0.
          5    1    4    4  502    0 -0.18773490039E+02 -0.12817222397E+02 -0.10392924987E+02  0.25432813608E+02  0.47000000000E+01 0.  1.
         -5    1    4    4    0  502  0.30754762516E+02  0.56470211294E+02 -0.41314373756E+03  0.41814420726E+03  0.47000000000E+01 0.  1.
          5    1    5    5  503    0  0.36638520569E+02 -0.27870321124E+01 -0.58517252160E+03  0.58634385711E+03  0.47000000000E+01 0.  1.
         -5    1    5    5    0  503 -0.48619793046E+02 -0.40865956785E+02 -0.20760110219E+03  0.21715022066E+03  0.47000000000E+01 0.  1.
<mgrwt>
<rscale>  0 0.27527370E+03</rscale>
<asrwt>0</asrwt>
<pdfrwt beam="1">  1        2 0.23662164E-02 0.27527370E+03</pdfrwt>
<pdfrwt beam="2">  1       -2 0.18949087E+00 0.27527370E+03</pdfrwt>
<totfact> 0.73126813E+02</totfact>
</mgrwt>
</event>
<event>
 9    1  0.2054950E-002  0.2750735E+03  0.7818608E-02  0.1098411E+00
         -1   -1    0    0    0  501 -0.00000000000E+00  0.00000000000E+00  0.79267449748E+02  0.79267449748E+02  0.00000000000E+00 0. -1.
          1   -1    0    0  501    0  0.00000000000E+00 -0.00000000000E+00 -0.23863967771E+03  0.23863967771E+03  0.00000000000E+00 0. -1.
         36    2    1    2    0    0 -0.35527136788E-14 -0.71054273576E-14 -0.15937222796E+03  0.31790712746E+03  0.27507350771E+03 0.  0.
         25    2    3    3    0    0  0.23187457266E+02  0.47393371559E+02 -0.59826573874E+02  0.14907382060E+03  0.12593647289E+03 0.  0.
         25    2    3    3    0    0 -0.23187457266E+02 -0.47393371559E+02 -0.99545654090E+02  0.16883330686E+03  0.12574401941E+03 0.  0.
          5    1    4    4  502    0  0.49723593086E+02 -0.39584105282E+01  0.16918199588E+02  0.52881189478E+02  0.47000000000E+01 0.  1.
         -5    1    4    4    0  502 -0.26536135820E+02  0.51351782087E+02 -0.76744773462E+02  0.96192631118E+02  0.47000000000E+01 0.  1.
          5    1    5    5  503    0 -0.67589426869E+02 -0.53276612738E+02 -0.86112355302E+02  0.12183659477E+03  0.47000000000E+01 0. -1.
         -5    1    5    5    0  503  0.44401969603E+02  0.58832411792E+01 -0.13433298787E+02  0.46996712094E+02  0.47000000000E+01 0. -1.
<mgrwt>
<rscale>  0 0.27507351E+03</rscale>
<asrwt>0</asrwt>
<pdfrwt beam="1">  1        1 0.36713796E-01 0.27507351E+03</pdfrwt>
<pdfrwt beam="2">  1       -1 0.12194992E-01 0.27507351E+03</pdfrwt>
<totfact> 0.51963674E+03</totfact>
</mgrwt>
</event>
<event>
 9    1  0.2054950E-002  0.2762119E+03  0.7818608E-02  0.1097776E+00
         -2   -1    0    0    0  501 -0.00000000000E+00  0.00000000000E+00  0.23542193534E+02  0.23542193534E+02  0.00000000000E+00 0.  1.
          2   -1    0    0  501    0  0.00000000000E+00 -0.00000000000E+00 -0.81017290096E+03  0.81017290096E+03  0.00000000000E+00 0.  1.
         36    2    1    2    0    0 -0.10658141036E-13 -0.35527136788E-14 -0.78663070743E+03  0.83371509450E+03  0.27621185514E+03 0.  0.
         25    2    3    3    0    0 -0.30761279124E+02 -0.13471227204E+02 -0.26913392951E+03  0.29956738312E+03  0.12719990079E+03 0.  0.
         25    2    3    3    0    0  0.30761279124E+02  0.13471227204E+02 -0.51749677792E+03  0.53414771138E+03  0.12799660994E+03 0.  0.
          5    1    4    4  502    0  0.99231635964E+01 -0.64888230581E+02 -0.13253832966E+03  0.14797787157E+03  0.47000000000E+01 0. -1.
         -5    1    4    4    0  502 -0.40684442721E+02  0.51417003376E+02 -0.13659559984E+03  0.15158951155E+03  0.47000000000E+01 0. -1.
          5    1    5    5  503    0 -0.18763707168E+02  0.24650396049E+02 -0.28057946411E+02  0.42060160353E+02  0.47000000000E+01 0. -1.
         -5    1    5    5    0  503  0.49524986293E+02 -0.11179168845E+02 -0.48943883151E+03  0.49208755103E+03  0.47000000000E+01 0. -1.
<mgrwt>
<rscale>  0 0.27621186E+03</rscale>
<asrwt>0</asrwt>
<pdfrwt beam="1">  1        2 0.12464198E+00 0.27621186E+03</pdfrwt>
<pdfrwt beam="2">  1       -2 0.36218760E-02 0.27621186E+03</pdfrwt>
<totfact> 0.11108109E+04</totfact>
</mgrwt>
</event>
<event>
 9    1  0.2054950E-002  0.2750316E+03  0.7818608E-02  0.1098434E+00
         -1   -1    0    0    0  501 -0.00000000000E+00  0.00000000000E+00  0.29964238640E+02  0.29964238640E+02  0.00000000000E+00 0.  1.
          1   -1    0    0  501    0  0.00000000000E+00 -0.00000000000E+00 -0.63110561492E+03  0.63110561492E+03  0.00000000000E+00 0.  1.
         36    2    1    2    0    0 -0.71054273576E-14  0.71054273576E-14 -0.60114137628E+03  0.66106985356E+03  0.27503162911E+03 0.  0.
         25    2    3    3    0    0 -0.17879827309E+02 -0.31394282887E+02 -0.20050462084E+03  0.23925920045E+03  0.12544948306E+03 0.  0.
         25    2    3    3    0    0  0.17879827309E+02  0.31394282887E+02 -0.40063675544E+03  0.42181065311E+03  0.12692173984E+03 0.  0.
          5    1    4    4  502    0  0.52290123653E+02 -0.26275235064E+02 -0.10821815645E+03  0.12311744148E+03  0.47000000000E+01 0. -1.
         -5    1    4    4    0  502 -0.70169950962E+02 -0.51190478230E+01 -0.92286464382E+02  0.11614175897E+03  0.47000000000E+01 0. -1.
          5    1    5    5  503    0 -0.18621758743E+02 -0.44029275495E+02 -0.14748501782E+03  0.15511050087E+03  0.47000000000E+01 0. -1.
         -5    1    5    5    0  503  0.36501586052E+02  0.75423558382E+02 -0.25315173762E+03  0.26670015224E+03  0.47000000000E+01 0. -1.
<mgrwt>
<rscale>  0 0.27503163E+03</rscale>
<asrwt>0</asrwt>
<pdfrwt beam="1">  1        1 0.97093160E-01 0.27503163E+03</pdfrwt>
<pdfrwt beam="2">  1       -1 0.46098834E-02 0.27503163E+03</pdfrwt>
<totfact> 0.64902447E+03</totfact>
</mgrwt>
</event>
<event>
 9    1  0.2054950E-002  0.2751726E+03  0.7818608E-02  0.1098355E+00
         -1   -1    0    0    0  501 -0.00000000000E+00  0.00000000000E+00  0.17435633198E+03  0.17435633198E+03  0.00000000000E+00 0. -1.
          1   -1    0    0  501    0  0.00000000000E+00 -0.00000000000E+00 -0.10857068805E+03  0.10857068805E+03  0.00000000000E+00 0. -1.
         36    2    1    2    0    0  0.71054273576E-14 -0.17763568394E-14  0.65785643936E+02  0.28292702003E+03  0.27517257806E+03 0.  0.
         25    2    3    3    0    0 -0.25191937415E+02  0.15775264161E+02 -0.18529943880E+02  0.13018777248E+03  0.12538741808E+03 0.  0.
         25    2    3    3    0    0  0.25191937415E+02 -0.15775264161E+02  0.84315587816E+02  0.15273924756E+03  0.12384129652E+03 0.  0.
          5    1    4    4  502    0  0.99196072479E+01  0.63670986584E+02 -0.26982965330E+02  0.70018308738E+02  0.47000000000E+01 0. -1.
         -5    1    4    4    0  502 -0.35111544663E+02 -0.47895722423E+02  0.84530214503E+01  0.60169463740E+02  0.47000000000E+01 0. -1.
          5    1    5    5  503    0 -0.41990841475E+02 -0.19683603599E+02  0.24744053545E+01  0.46678557178E+02  0.47000000000E+01 0. -1.
         -5    1    5    5    0  503  0.67182778890E+02  0.39083394381E+01  0.81841182462E+02  0.10606069038E+03  0.47000000000E+01 0. -1.
<mgrwt>
<rscale>  0 0.27517258E+03</rscale>
<asrwt>0</asrwt>
<pdfrwt beam="1">  1        1 0.16703183E-01 0.27517258E+03</pdfrwt>
<pdfrwt beam="2">  1       -1 0.26824051E-01 0.27517258E+03</pdfrwt>
<totfact> 0.39746959E+03</totfact>
</mgrwt>
</event>
<event>
 9    1  0.2054950E-002  0.2756795E+03  0.7818608E-02  0.1098072E+00
          2   -1    0    0  501    0  0.00000000000E+00  0.00000000000E+00  0.19510489948E+03  0.19510489948E+03  0.00000000000E+00 0.  1.
         -2   -1    0    0    0  501 -0.00000000000E+00 -0.00000000000E+00 -0.97382488687E+02  0.97382488687E+02  0.00000000000E+00 0.  1.
         36    2    1    2    0    0  0.00000000000E+00  0.00000000000E+00  0.97722410796E+02  0.29248738817E+03  0.27567952892E+03 0.  0.
         25    2    3    3    0    0 -0.73262122624E+02 -0.41934405085E+02  0.26037816831E+02  0.13602859108E+03  0.10344069192E+03 0.  0.
         25    2    3    3    0    0  0.73262122624E+02  0.41934405085E+02  0.71684593965E+02  0.15645879709E+03  0.11052077286E+03 0.  0.
          5    1    4    4  502    0 -0.93505223622E+02 -0.17235698727E+02  0.36713194186E+02  0.10203060709E+03  0.47000000000E+01 0. -1.
         -5    1    4    4    0  502  0.20243100998E+02 -0.24698706358E+02 -0.10675377355E+02  0.33997983991E+02  0.47000000000E+01 0. -1.
          5    1    5    5  503    0  0.54895478492E+02  0.12999673812E+02  0.97877212694E+02  0.11306875715E+03  0.47000000000E+01 0.  1.
         -5    1    5    5    0  503  0.18366644131E+02  0.28934731272E+02 -0.26192618729E+02  0.43390039944E+02  0.47000000000E+01 0.  1.
<mgrwt>
<rscale>  0 0.27567953E+03</rscale>
<asrwt>0</asrwt>
<pdfrwt beam="1">  1        2 0.30016138E-01 0.27567953E+03</pdfrwt>
<pdfrwt beam="2">  1       -2 0.14981921E-01 0.27567953E+03</pdfrwt>
<totfact> 0.59677552E+03</totfact>
</mgrwt>
</event>
<event>
 9    1  0.2054950E-002  0.2746195E+03  0.7818608E-02  0.1098664E+00
          1   -1    0    0  501    0  0.00000000000E+00  0.00000000000E+00  0.21379461762E+04  0.21379461762E+04  0.00000000000E+00 0.  1.
         -1   -1    0    0    0  501 -0.00000000000E+00 -0.00000000000E+00 -0.88187317564E+01  0.88187317564E+01  0.00000000000E+00 0.  1.
         36    2    1    2    0    0 -0.71054273576E-14  0.71054273576E-14  0.21291274444E+04  0.21467649080E+04  0.27461954655E+03 0.  0.
         25    2    3    3    0    0  0.17847584983E+02  0.30397095272E+02  0.70023756681E+03  0.71183419308E+03  0.12301523799E+03 0.  0.
         25    2    3    3    0    0 -0.17847584983E+02 -0.30397095272E+02  0.14288898776E+04  0.14349307149E+04  0.12671761676E+03 0.  0.
          5    1    4    4  502    0  0.35141654001E+02  0.71307331883E+02  0.52443694343E+03  0.53044874311E+03  0.47000000000E+01 0. -1.
         -5    1    4    4    0  502 -0.17294069018E+02 -0.40910236611E+02  0.17580062338E+03  0.18138544997E+03  0.47000000000E+01 0. -1.
          5    1    5    5  503    0 -0.46805383031E+02 -0.16978109092E+02  0.22009085951E+03  0.22570129930E+03  0.47000000000E+01 0. -1.
         -5    1    5    5    0  503  0.28957798048E+02 -0.13418986181E+02  0.12087990181E+04  0.12092294156E+04  0.47000000000E+01 0. -1.
<mgrwt>
<rscale>  0 0.27461955E+03</rscale>
<asrwt>0</asrwt>
<pdfrwt beam="1">  1        1 0.32891438E+00 0.27461955E+03</pdfrwt>
<pdfrwt beam="2">  1       -1 0.13567297E-02 0.27461955E+03</pdfrwt>
<totfact> 0.33146312E+03</totfact>
</mgrwt>
</event>
<event>
 9    1  0.2054950E-002  0.2755529E+03  0.7818608E-02  0.1098143E+00
          2   -1    0    0  501    0  0.00000000000E+00  0.00000000000E+00  0.73753325472E+02  0.73753325472E+02  0.00000000000E+00 0. -1.
         -2   -1    0    0    0  501 -0.00000000000E+00 -0.00000000000E+00 -0.25737626292E+03  0.25737626292E+03  0.00000000000E+00 0. -1.
         36    2    1    2    0    0 -0.71054273576E-14  0.00000000000E+00 -0.18362293745E+03  0.33112958840E+03  0.27555293712E+03 0.  0.
         25    2    3    3    0    0  0.20473761335E+02  0.35559826042E+02 -0.13784408836E+03  0.19090261992E+03  0.12553541916E+03 0.  0.
         25    2    3    3    0    0 -0.20473761335E+02 -0.35559826042E+02 -0.45778849086E+02  0.14022696848E+03  0.12603262885E+03 0.  0.
          5    1    4    4  502    0  0.68666914674E+02  0.29693890803E+01 -0.99662864912E+02  0.12115584627E+03  0.47000000000E+01 0.  1.
         -5    1    4    4    0  502 -0.48193153339E+02  0.32590436961E+02 -0.38181223453E+02  0.69746773649E+02  0.47000000000E+01 0.  1.
          5    1    5    5  503    0 -0.40295801806E+02  0.18984914540E+02  0.22803617300E+02  0.50262049155E+02  0.47000000000E+01 0. -1.
         -5    1    5    5    0  503  0.19822040471E+02 -0.54544740582E+02 -0.68582466386E+02  0.89964919325E+02  0.47000000000E+01 0. -1.
<mgrwt>
<rscale>  0 0.27555294E+03</rscale>
<asrwt>0</asrwt>
<pdfrwt beam="1">  1        2 0.11346665E-01 0.27555294E+03</pdfrwt>
<pdfrwt beam="2">  1       -2 0.39596348E-01 0.27555294E+03</pdfrwt>
<totfact> 0.33115912E+03</totfact>
</mgrwt>
</event>
<event>
 9    1  0.2054950E-002  0.2760432E+03  0.7818608E-02  0.1097870E+00
         -2   -1    0    0    0  501 -0.00000000000E+00  0.00000000000E+00  0.38220775015E+02  0.38220775015E+02  0.00000000000E+00 0. -1.
          2   -1    0    0  501    0  0.00000000000E+00 -0.00000000000E+00 -0.49841898446E+03  0.49841898446E+03  0.00000000000E+00 0. -1.
         36    2    1    2    0    0 -0.35527136788E-14  0.71054273576E-14 -0.46019820944E+03  0.53663975947E+03  0.27604318407E+03 0.  0.
         25    2    3    3    0    0  0.11576346134E+02 -0.48021917404E+02 -0.19060985892E+03  0.23539487570E+03  0.12899035951E+03 0.  0.
         25    2    3    3    0    0 -0.11576346134E+02  0.48021917404E+02 -0.26958835053E+03  0.30124488378E+03  0.12502193776E+03 0.  0.
          5    1    4    4  502    0  0.12983896488E+02  0.13803664932E+02 -0.16838475207E+03  0.16951294188E+03  0.47000000000E+01 0.  1.
         -5    1    4    4    0  502 -0.14075503542E+01 -0.61825582337E+02 -0.22225106845E+02  0.65881933818E+02  0.47000000000E+01 0.  1.
          5    1    5    5  503    0  0.19091223349E+02  0.73567217834E+01 -0.24242142451E+03  0.24332865270E+03  0.47000000000E+01 0. -1.
         -5    1    5    5    0  503 -0.30667569483E+02  0.40665195621E+02 -0.27166926018E+02  0.57916231077E+02  0.47000000000E+01 0. -1.
<mgrwt>
<rscale>  0 0.27604318E+03</rscale>
<asrwt>0</asrwt>
<pdfrwt beam="1">  1        2 0.76679848E-01 0.27604318E+03</pdfrwt>
<pdfrwt beam="2">  1       -2 0.58801189E-02 0.27604318E+03</pdfrwt>
<totfact> 0.94859259E+03</totfact>
</mgrwt>
</event>
<event>
 9    1  0.2054950E-002  0.2759803E+03  0.7818608E-02  0.1097905E+00
          1   -1    0    0  501    0  0.00000000000E+00  0.00000000000E+00  0.72014317185E+03  0.72014317185E+03  0.00000000000E+00 0.  1.
         -1   -1    0    0    0  501 -0.00000000000E+00 -0.00000000000E+00 -0.26440960503E+02  0.26440960503E+02  0.00000000000E+00 0.  1.
         36    2    1    2    0    0  0.53290705182E-14  0.00000000000E+00  0.69370221134E+03  0.74658413235E+03  0.27598026860E+03 0.  0.
         25    2    3    3    0    0  0.14155131592E+02  0.14610579129E+02  0.19215677037E+03  0.23037264104E+03  0.12543321956E+03 0.  0.
         25    2    3    3    0    0 -0.14155131592E+02 -0.14610579129E+02  0.50154544097E+03  0.51621149131E+03  0.12046840922E+03 0.  0.
          5    1    4    4  502    0  0.12515099116E+02  0.62219975303E+02  0.16135081213E+03  0.17344776622E+03  0.47000000000E+01 0. -1.
         -5    1    4    4    0  502  0.16400324763E+01 -0.47609396173E+02  0.30805958239E+02  0.56924874822E+02  0.47000000000E+01 0. -1.
          5    1    5    5  503    0 -0.36431342013E+02 -0.53834442397E+02  0.17904218849E+03  0.19053499712E+03  0.47000000000E+01 0. -1.
         -5    1    5    5    0  503  0.22276210421E+02  0.39223863268E+02  0.32250325248E+03  0.32567649418E+03  0.47000000000E+01 0. -1.
<mgrwt>
<rscale>  0 0.27598027E+03</rscale>
<asrwt>0</asrwt>
<pdfrwt beam="1">  1        1 0.11079124E+00 0.27598027E+03</pdfrwt>
<pdfrwt beam="2">  1       -1 0.40678406E-02 0.27598027E+03</pdfrwt>
<totfact> 0.64669291E+03</totfact>
</mgrwt>
</event>
<event>
 9    1  0.2054950E-002  0.2746913E+03  0.7818608E-02  0.1098624E+00
         -2   -1    0    0    0  501 -0.00000000000E+00  0.00000000000E+00  0.11926600293E+04  0.11926600293E+04  0.00000000000E+00 0. -1.
          2   -1    0    0  501    0  0.00000000000E+00 -0.00000000000E+00 -0.15816602983E+02  0.15816602983E+02  0.00000000000E+00 0. -1.
         36    2    1    2    0    0 -0.14210854715E-13  0.35527136788E-14  0.11768434263E+04  0.12084766323E+04  0.27469131895E+03 0.  0.
         25    2    3    3    0    0 -0.56763093427E+02 -0.15859373728E+02  0.60205825472E+03  0.61734690339E+03  0.12316447759E+03 0.  0.
         25    2    3    3    0    0  0.56763093427E+02  0.15859373728E+02  0.57478517160E+03  0.59112972889E+03  0.12483106337E+03 0.  0.
          5    1    4    4  502    0 -0.36703103064E+02  0.82890571117E+01  0.57318045848E+03  0.57443342018E+03  0.47000000000E+01 0. -1.
         -5    1    4    4    0  502 -0.20059990363E+02 -0.24148430840E+02  0.28877796247E+02  0.42913483213E+02  0.47000000000E+01 0. -1.
          5    1    5    5  503    0  0.77065581612E+02 -0.32871759003E+02  0.38800319435E+03  0.39697383445E+03  0.47000000000E+01 0. -1.
         -5    1    5    5    0  503 -0.20302488185E+02  0.48731132731E+02  0.18678197724E+03  0.19415589444E+03  0.47000000000E+01 0. -1.
<mgrwt>
<rscale>  0 0.27469132E+03</rscale>
<asrwt>0</asrwt>
<pdfrwt beam="1">  1        2 0.24333245E-02 0.27469132E+03</pdfrwt>
<pdfrwt beam="2">  1       -2 0.18348609E+00 0.27469132E+03</pdfrwt>
<totfact> 0.77041211E+02</totfact>
</mgrwt>
</event>
<event>
 9    1  0.2054950E-002  0.2753959E+03  0.7818608E-02  0.1098230E+00
          2   -1    0    0  501    0  0.00000000000E+00  0.00000000000E+00  0.11482610364E+04  0.11482610364E+04  0.00000000000E+00 0. -1.
         -2   -1    0    0    0  501 -0.00000000000E+00 -0.00000000000E+00 -0.16512562272E+02  0.16512562272E+02  0.00000000000E+00 0. -1.
         36    2    1    2    0    0  0.00000000000E+00 -0.14210854715E-13  0.11317484741E+04  0.11647735986E+04  0.27539594672E+03 0.  0.
         25    2    3    3    0    0 -0.20280123302E+02  0.52449619896E+02  0.59309513269E+03  0.60862389423E+03  0.12449482792E+03 0.  0.
         25    2    3    3    0    0  0.20280123302E+02 -0.52449619896E+02  0.53865334140E+03  0.55614970441E+03  0.12646274344E+03 0.  0.
          5    1    4    4  502    0  0.25724024333E+02 -0.29555545179E+02  0.23854675077E+03  0.24178895339E+03  0.47000000000E+01 0. -1.
         -5    1    4    4    0  502 -0.46004147635E+02  0.82005165075E+02  0.35454838192E+03  0.36683494084E+03  0.47000000000E+01 0. -1.
          5    1    5    5  503    0  0.14010809074E+02  0.31081682690E+02  0.52266061516E+02  0.62579588975E+02  0.47000000000E+01 0. -1.
         -5    1    5    5    0  503  0.62693142276E+01 -0.83531302587E+02  0.48638727989E+03  0.49357011543E+03  0.47000000000E+01 0. -1.
<mgrwt>
<rscale>  0 0.27539595E+03</rscale>
<asrwt>0</asrwt>
<pdfrwt beam="1">  1        2 0.17665548E+00 0.27539595E+03</pdfrwt>
<pdfrwt beam="2">  1       -2 0.25403951E-02 0.27539595E+03</pdfrwt>
<totfact> 0.11596414E+04</totfact>
</mgrwt>
</event>
<event>
 9    1  0.2054950E-002  0.2757738E+03  0.7818608E-02  0.1098020E+00
         -1   -1    0    0    0  501 -0.00000000000E+00  0.00000000000E+00  0.21825309353E+02  0.21825309353E+02  0.00000000000E+00 0.  1.
          1   -1    0    0  501    0  0.00000000000E+00 -0.00000000000E+00 -0.87113526403E+03  0.87113526403E+03  0.00000000000E+00 0.  1.
         36    2    1    2    0    0 -0.14210854715E-13 -0.35527136788E-14 -0.84930995468E+03  0.89296057338E+03  0.27577379590E+03 0.  0.
         25    2    3    3    0    0  0.67642931942E+02  0.27504516533E+02 -0.54786535819E+03  0.56898308232E+03  0.13510452471E+03 0.  0.
         25    2    3    3    0    0 -0.67642931942E+02 -0.27504516533E+02 -0.30144459649E+03  0.32397749106E+03  0.93597570957E+02 0.  0.
          5    1    4    4  502    0 -0.39255219333E+02  0.23357639520E+02 -0.14271692864E+03  0.14992252429E+03  0.47000000000E+01 0.  1.
         -5    1    4    4    0  502  0.10689815128E+03  0.41468770133E+01 -0.40514842955E+03  0.41906055804E+03  0.47000000000E+01 0.  1.
          5    1    5    5  503    0 -0.28677953280E+02 -0.40588574352E+02 -0.55787602453E+02  0.74861231353E+02  0.47000000000E+01 0. -1.
         -5    1    5    5    0  503 -0.38964978662E+02  0.13084057819E+02 -0.24565699404E+03  0.24911625971E+03  0.47000000000E+01 0. -1.
<mgrwt>
<rscale>  0 0.27577380E+03</rscale>
<asrwt>0</asrwt>
<pdfrwt beam="1">  1        1 0.13402081E+00 0.27577380E+03</pdfrwt>
<pdfrwt beam="2">  1       -1 0.33577398E-02 0.27577380E+03</pdfrwt>
<totfact> 0.64186023E+03</totfact>
</mgrwt>
</event>
<event>
 9    1  0.2054950E-002  0.2747779E+03  0.7818608E-02  0.1098576E+00
          2   -1    0    0  501    0  0.00000000000E+00  0.00000000000E+00  0.90844204507E+03  0.90844204507E+03  0.00000000000E+00 0.  1.
         -2   -1    0    0    0  501 -0.00000000000E+00 -0.00000000000E+00 -0.20778127935E+02  0.20778127935E+02  0.00000000000E+00 0.  1.
         36    2    1    2    0    0  0.00000000000E+00  0.71054273576E-14  0.88766391713E+03  0.92922017300E+03  0.27477791057E+03 0.  0.
         25    2    3    3    0    0 -0.15396294842E+02 -0.35494623257E+02  0.62288394242E+03  0.63612088466E+03  0.12316030203E+03 0.  0.
         25    2    3    3    0    0  0.15396294842E+02  0.35494623257E+02  0.26477997471E+03  0.29309928834E+03  0.11959031585E+03 0.  0.
          5    1    4    4  502    0 -0.18650975150E+02 -0.58580213986E+02  0.14397550826E+03  0.15662227595E+03  0.47000000000E+01 0. -1.
         -5    1    4    4    0  502  0.32546803083E+01  0.23085590729E+02  0.47890843416E+03  0.47949860871E+03  0.47000000000E+01 0. -1.
          5    1    5    5  503    0 -0.16686298167E+02 -0.38859223629E+02  0.67482077303E+02  0.79777143122E+02  0.47000000000E+01 0. -1.
         -5    1    5    5    0  503  0.32082593009E+02  0.74353846886E+02  0.19729789740E+03  0.21332214522E+03  0.47000000000E+01 0. -1.
<mgrwt>
<rscale>  0 0.27477791E+03</rscale>
<asrwt>0</asrwt>
<pdfrwt beam="1">  1        2 0.13976028E+00 0.27477791E+03</pdfrwt>
<pdfrwt beam="2">  1       -2 0.31966358E-02 0.27477791E+03</pdfrwt>
<totfact> 0.11520467E+04</totfact>
</mgrwt>
</event>
<event>
 9    1  0.2054950E-002  0.2747675E+03  0.7818608E-02  0.1098582E+00
         -2   -1    0    0    0  501 -0.00000000000E+00  0.00000000000E+00  0.10106659983E+02  0.10106659983E+02  0.00000000000E+00 0. -1.
          2   -1    0    0  501    0  0.00000000000E+00 -0.00000000000E+00 -0.18675111111E+04  0.18675111111E+04  0.00000000000E+00 0. -1.
         36    2    1    2    0    0 -0.35527136788E-14  0.00000000000E+00 -0.18574044511E+04  0.18776177711E+04  0.27476753677E+03 0.  0.
         25    2    3    3    0    0 -0.14825825489E+02 -0.16588675949E+02 -0.56000949739E+03  0.57317818008E+03  0.12011494364E+03 0.  0.
         25    2    3    3    0    0  0.14825825489E+02  0.16588675949E+02 -0.12973949537E+04  0.13044395910E+04  0.13354396783E+03 0.  0.
          5    1    4    4  502    0 -0.39294826917E+02 -0.25717702957E+02 -0.83385434806E+02  0.95815992432E+02  0.47000000000E+01 0. -1.
         -5    1    4    4    0  502  0.24469001428E+02  0.91290270077E+01 -0.47662406258E+03  0.47736218765E+03  0.47000000000E+01 0. -1.
          5    1    5    5  503    0  0.26058018832E+02  0.56668503014E+02 -0.11352315458E+04  0.11369534257E+04  0.47000000000E+01 0.  1.
         -5    1    5    5    0  503 -0.11232193343E+02 -0.40079827065E+02 -0.16216340796E+03  0.16748616536E+03  0.47000000000E+01 0.  1.
<mgrwt>
<rscale>  0 0.27476754E+03</rscale>
<asrwt>0</asrwt>
<pdfrwt beam="1">  1        2 0.28730942E+00 0.27476754E+03</pdfrwt>
<pdfrwt beam="2">  1       -2 0.15548707E-02 0.27476754E+03</pdfrwt>
<totfact> 0.97621386E+03</totfact>
</mgrwt>
</event>
<event>
 9    1  0.2054950E-002  0.2757911E+03  0.7818608E-02  0.1098010E+00
         -1   -1    0    0    0  501 -0.00000000000E+00  0.00000000000E+00  0.63297380500E+02  0.63297380500E+02  0.00000000000E+00 0. -1.
          1   -1    0    0  501    0  0.00000000000E+00 -0.00000000000E+00 -0.30041027965E+03  0.30041027965E+03  0.00000000000E+00 0. -1.
         36    2    1    2    0    0 -0.14210854715E-13  0.00000000000E+00 -0.23711289915E+03  0.36370766015E+03  0.27579110774E+03 0.  0.
         25    2    3    3    0    0  0.46755333295E+02  0.37688329347E+02 -0.11903473704E+03  0.18143092094E+03  0.12305055501E+03 0.  0.
         25    2    3    3    0    0 -0.46755333295E+02 -0.37688329347E+02 -0.11807816211E+03  0.18227673921E+03  0.12520337827E+03 0.  0.
          5    1    4    4  502    0 -0.14803518187E+02 -0.34990911814E+01 -0.10462466013E+03  0.10582909475E+03  0.47000000000E+01 0. -1.
         -5    1    4    4    0  502  0.61558851482E+02  0.41187420529E+02 -0.14410076914E+02  0.75601826184E+02  0.47000000000E+01 0. -1.
          5    1    5    5  503    0  0.41213362975E+02  0.32112863885E+01 -0.39081056884E+02  0.57081281127E+02  0.47000000000E+01 0. -1.
         -5    1    5    5    0  503 -0.87968696270E+02 -0.40899615736E+02 -0.78997105222E+02  0.12519545808E+03  0.47000000000E+01 0. -1.
<mgrwt>
<rscale>  0 0.27579111E+03</rscale>
<asrwt>0</asrwt>
<pdfrwt beam="1">  1        1 0.46216967E-01 0.27579111E+03</pdfrwt>
<pdfrwt beam="2">  1       -1 0.97380583E-02 0.27579111E+03</pdfrwt>
<totfact> 0.55205541E+03</totfact>
</mgrwt>
</event>
<event>
 9    1  0.2054950E-002  0.2768694E+03  0.7818608E-02  0.1097411E+00
          2   -1    0    0  501    0  0.00000000000E+00  0.00000000000E+00  0.13154522446E+04  0.13154522446E+04  0.00000000000E+00 0. -1.
         -2   -1    0    0    0  501 -0.00000000000E+00 -0.00000000000E+00 -0.14568496617E+02  0.14568496617E+02  0.00000000000E+00 0. -1.
         36    2    1    2    0    0  0.00000000000E+00  0.71054273576E-14  0.13008837480E+04  0.13300207412E+04  0.27686936685E+03 0.  0.
         25    2    3    3    0    0 -0.20453920837E+02  0.61492989799E+02  0.60035702797E+03  0.61633607531E+03  0.12345787145E+03 0.  0.
         25    2    3    3    0    0  0.20453920837E+02 -0.61492989799E+02  0.70052671999E+03  0.71368466588E+03  0.12003485421E+03 0.  0.
          5    1    4    4  502    0  0.16159596898E+02  0.63970406759E+02  0.54938365543E+03  0.55335145827E+03  0.47000000000E+01 0.  1.
         -5    1    4    4    0  502 -0.36613517735E+02 -0.24774169602E+01  0.50973372533E+02  0.62984617036E+02  0.47000000000E+01 0.  1.
          5    1    5    5  503    0  0.34277325010E+02 -0.20534642192E+02  0.63481439068E+02  0.75157099771E+02  0.47000000000E+01 0.  1.
         -5    1    5    5    0  503 -0.13823404174E+02 -0.40958347607E+02  0.63704528092E+03  0.63852756611E+03  0.47000000000E+01 0.  1.
<mgrwt>
<rscale>  0 0.27686937E+03</rscale>
<asrwt>0</asrwt>
<pdfrwt beam="1">  1        2 0.20237717E+00 0.27686937E+03</pdfrwt>
<pdfrwt beam="2">  1       -2 0.22413082E-02 0.27686937E+03</pdfrwt>
<totfact> 0.11234006E+04</totfact>
</mgrwt>
</event>
<event>
 9    1  0.2054950E-002  0.2742760E+03  0.7818608E-02  0.1098857E+00
         -2   -1    0    0    0  501 -0.00000000000E+00  0.00000000000E+00  0.20812870955E+03  0.20812870955E+03  0.00000000000E+00 0.  1.
          2   -1    0    0  501    0  0.00000000000E+00 -0.00000000000E+00 -0.90361551771E+02  0.90361551771E+02  0.00000000000E+00 0.  1.
         36    2    1    2    0    0  0.00000000000E+00  0.00000000000E+00  0.11776715778E+03  0.29849026132E+03  0.27427601545E+03 0.  0.
         25    2    3    3    0    0  0.69013773946E+01 -0.42960384801E+02  0.17226167776E+02  0.13265430125E+03  0.12412573912E+03 0.  0.
         25    2    3    3    0    0 -0.69013773946E+01  0.42960384801E+02  0.10054099000E+03  0.16583596007E+03  0.12449839882E+03 0.  0.
          5    1    4    4  502    0  0.47443702782E+02  0.16955210424E+02  0.30313980476E+02  0.58986536655E+02  0.47000000000E+01 0. -1.
         -5    1    4    4    0  502 -0.40542325388E+02 -0.59915595225E+02 -0.13087812701E+02  0.73667764594E+02  0.47000000000E+01 0. -1.
          5    1    5    5  503    0  0.48372222278E+02  0.58342169744E+01  0.48843616978E+01  0.49192041684E+02  0.47000000000E+01 0.  1.
         -5    1    5    5    0  503 -0.55273599672E+02  0.37126167827E+02  0.95656628305E+02  0.11664391839E+03  0.47000000000E+01 0.  1.
<mgrwt>
<rscale>  0 0.27427602E+03</rscale>
<asrwt>0</asrwt>
<pdfrwt beam="1">  1        2 0.13901777E-01 0.27427602E+03</pdfrwt>
<pdfrwt beam="2">  1       -2 0.32019801E-01 0.27427602E+03</pdfrwt>
<totfact> 0.38520279E+03</totfact>
</mgrwt>
</event>
<event>
 9    1  0.2054950E-002  0.2750914E+03  0.7818608E-02  0.1098401E+00
         -2   -1    0    0    0  501 -0.00000000000E+00  0.00000000000E+00  0.13447741884E+03  0.13447741884E+03  0.00000000000E+00 0.  1.
          2   -1    0    0  501    0  0.00000000000E+00 -0.00000000000E+00 -0.14068400918E+03  0.14068400918E+03  0.00000000000E+00 0.  1.
         36    2    1    2    0    0  0.00000000000E+00  0.35527136788E-14 -0.62065903400E+01  0.27516142803E+03  0.27509142064E+03 0.  0.
         25    2    3    3    0    0  0.50232921691E+02 -0.15128479071E+02  0.20616120286E+02  0.13461937852E+03  0.12225029799E+03 0.  0.
         25    2    3    3    0    0 -0.50232921691E+02  0.15128479071E+02 -0.26822710626E+02  0.14054204950E+03  0.12759464163E+03 0.  0.
          5    1    4    4  502    0  0.42523312247E+01 -0.64365256712E+02  0.17561421321E+02  0.67018371446E+02  0.47000000000E+01 0. -1.
         -5    1    4    4    0  502  0.45980590466E+02  0.49236777641E+02  0.30546989650E+01  0.67601007077E+02  0.47000000000E+01 0. -1.
          5    1    5    5  503    0  0.66595413862E+01 -0.49406440126E+01  0.45360217482E+02  0.46350822914E+02  0.47000000000E+01 0.  1.
         -5    1    5    5    0  503 -0.56892463077E+02  0.20069123084E+02 -0.72182928109E+02  0.94191226591E+02  0.47000000000E+01 0.  1.
<mgrwt>
<rscale>  0 0.27509142E+03</rscale>
<asrwt>0</asrwt>
<pdfrwt beam="1">  1        2 0.21643694E-01 0.27509142E+03</pdfrwt>
<pdfrwt beam="2">  1       -2 0.20688833E-01 0.27509142E+03</pdfrwt>
<totfact> 0.49913165E+03</totfact>
</mgrwt>
</event>
<event>
 9    1  0.2054950E-002  0.2738027E+03  0.7818608E-02  0.1099123E+00
          1   -1    0    0  501    0  0.00000000000E+00  0.00000000000E+00  0.26232004409E+03  0.26232004409E+03  0.00000000000E+00 0.  1.
         -1   -1    0    0    0  501 -0.00000000000E+00 -0.00000000000E+00 -0.71446995843E+02  0.71446995843E+02  0.00000000000E+00 0.  1.
         36    2    1    2    0    0 -0.35527136788E-14  0.00000000000E+00  0.19087304825E+03  0.33376703994E+03  0.27380269611E+03 0.  0.
         25    2    3    3    0    0  0.14580525949E+02 -0.55990657809E+02  0.98739863291E+02  0.16941441098E+03  0.12491651831E+03 0.  0.
         25    2    3    3    0    0 -0.14580525949E+02  0.55990657809E+02  0.92133184960E+02  0.16435262896E+03  0.12318976165E+03 0.  0.
          5    1    4    4  502    0 -0.49036745699E+01 -0.56629837889E+02 -0.10804170201E+02  0.58050018582E+02  0.47000000000E+01 0.  1.
         -5    1    4    4    0  502  0.19484200519E+02  0.63918008011E+00  0.10954403349E+03  0.11136439240E+03  0.47000000000E+01 0.  1.
          5    1    5    5  503    0  0.12963316916E+02 -0.99256485275E+01  0.91182903368E+02  0.92752239599E+02  0.47000000000E+01 0.  1.
         -5    1    5    5    0  503 -0.27543842866E+02  0.65916306336E+02  0.95028159254E+00  0.71600389356E+02  0.47000000000E+01 0.  1.
<mgrwt>
<rscale>  0 0.27380270E+03</rscale>
<asrwt>0</asrwt>
<pdfrwt beam="1">  1        1 0.40356929E-01 0.27380270E+03</pdfrwt>
<pdfrwt beam="2">  1       -1 0.10991846E-01 0.27380270E+03</pdfrwt>
<totfact> 0.54246081E+03</totfact>
</mgrwt>
</event>
<event>
 9    1  0.2054950E-002  0.2749225E+03  0.7818608E-02  0.1098495E+00
          1   -1    0    0  501    0  0.00000000000E+00  0.00000000000E+00  0.20459032740E+04  0.20459032740E+04  0.00000000000E+00 0.  1.
         -1   -1    0    0    0  501 -0.00000000000E+00 -0.00000000000E+00 -0.92358194804E+01  0.92358194804E+01  0.00000000000E+00 0.  1.
         36    2    1    2    0    0 -0.71054273576E-14  0.00000000000E+00  0.20366674545E+04  0.20551390935E+04  0.27492248590E+03 0.  0.
         25    2    3    3    0    0  0.25400995849E+02  0.33299616075E+02  0.69407647830E+03  0.70624638817E+03  0.12364355242E+03 0.  0.
         25    2    3    3    0    0 -0.25400995849E+02 -0.33299616075E+02  0.13425909762E+04  0.13488927053E+04  0.12331636546E+03 0.  0.
          5    1    4    4  502    0  0.42579051526E+02  0.72525940151E+02  0.52783751465E+03  0.53451615456E+03  0.47000000000E+01 0. -1.
         -5    1    4    4    0  502 -0.17178055677E+02 -0.39226324076E+02  0.16623896365E+03  0.17173023360E+03  0.47000000000E+01 0. -1.
          5    1    5    5  503    0  0.32961009700E+02 -0.27239335567E+02  0.19039775848E+03  0.19519683911E+03  0.47000000000E+01 0.  1.
         -5    1    5    5    0  503 -0.58362005549E+02 -0.60602805078E+01  0.11521932178E+04  0.11536958662E+04  0.47000000000E+01 0.  1.
<mgrwt>
<rscale>  0 0.27492249E+03</rscale>
<asrwt>0</asrwt>
<pdfrwt beam="1">  1        1 0.31475399E+00 0.27492249E+03</pdfrwt>
<pdfrwt beam="2">  1       -1 0.14208969E-02 0.27492249E+03</pdfrwt>
<totfact> 0.35574334E+03</totfact>
</mgrwt>
</event>
<event>
 9    1  0.2054950E-002  0.2755791E+03  0.7818608E-02  0.1098128E+00
          2   -1    0    0  501    0  0.00000000000E+00  0.00000000000E+00  0.59076426967E+02  0.59076426967E+02  0.00000000000E+00 0.  1.
         -2   -1    0    0    0  501 -0.00000000000E+00 -0.00000000000E+00 -0.32137964454E+03  0.32137964454E+03  0.00000000000E+00 0.  1.
         36    2    1    2    0    0  0.53290705182E-14  0.14210854715E-13 -0.26230321757E+03  0.38045607151E+03  0.27557910733E+03 0.  0.
         25    2    3    3    0    0  0.55447557616E+01  0.86592302080E+02 -0.68794025410E+02  0.13467100915E+03  0.76646537284E+02 0.  0.
         25    2    3    3    0    0 -0.55447557616E+01 -0.86592302080E+02 -0.19350919216E+03  0.24578506236E+03  0.12423976147E+03 0.  0.
          5    1    4    4  502    0 -0.76531343525E+01  0.65644613140E+02 -0.54285313879E+01  0.66478151695E+02  0.47000000000E+01 0.  1.
         -5    1    4    4    0  502  0.13197890114E+02  0.20947688940E+02 -0.63365494022E+02  0.68192857456E+02  0.47000000000E+01 0.  1.
          5    1    5    5  503    0  0.28046161372E+02 -0.10724626362E+03 -0.15362390643E+03  0.18950130040E+03  0.47000000000E+01 0.  1.
         -5    1    5    5    0  503 -0.33590917134E+02  0.20653961543E+02 -0.39885285739E+02  0.56283761955E+02  0.47000000000E+01 0.  1.
<mgrwt>
<rscale>  0 0.27557911E+03</rscale>
<asrwt>0</asrwt>
<pdfrwt beam="1">  1        2 0.90886813E-02 0.27557911E+03</pdfrwt>
<pdfrwt beam="2">  1       -2 0.49443021E-01 0.27557911E+03</pdfrwt>
<totfact> 0.28294638E+03</totfact>
</mgrwt>
</event>
<event>
 9    1  0.2054950E-002  0.2753313E+03  0.7818608E-02  0.1098267E+00
         -1   -1    0    0    0  501 -0.00000000000E+00  0.00000000000E+00  0.69946476258E+01  0.69946476258E+01  0.00000000000E+00 0.  1.
          1   -1    0    0  501    0  0.00000000000E+00 -0.00000000000E+00 -0.27094769686E+04  0.27094769686E+04  0.00000000000E+00 0.  1.
         36    2    1    2    0    0  0.00000000000E+00  0.35527136788E-14 -0.27024823210E+04  0.27164716162E+04  0.27533133963E+03 0.  0.
         25    2    3    3    0    0 -0.45673873787E+02  0.84744029814E+01 -0.17383086466E+04  0.17432307534E+04  0.12238705213E+03 0.  0.
         25    2    3    3    0    0  0.45673873787E+02 -0.84744029814E+01 -0.96417367440E+03  0.97324086284E+03  0.12413293056E+03 0.  0.
          5    1    4    4  502    0  0.34442129091E+02 -0.26040406142E+02 -0.54375592407E+03  0.54548781651E+03  0.47000000000E+01 0.  1.
         -5    1    4    4    0  502 -0.80116002878E+02  0.34514809123E+02 -0.11945527225E+04  0.11977429369E+04  0.47000000000E+01 0.  1.
          5    1    5    5  503    0  0.58658856559E+02  0.23671772836E+02 -0.87725175596E+03  0.87954189645E+03  0.47000000000E+01 0. -1.
         -5    1    5    5    0  503 -0.12984982771E+02 -0.32146175817E+02 -0.86921918436E+02  0.93698966386E+02  0.47000000000E+01 0. -1.
<mgrwt>
<rscale>  0 0.27533134E+03</rscale>
<asrwt>0</asrwt>
<pdfrwt beam="1">  1        1 0.41684274E+00 0.27533134E+03</pdfrwt>
<pdfrwt beam="2">  1       -1 0.10760993E-02 0.27533134E+03</pdfrwt>
<totfact> 0.19401519E+03</totfact>
</mgrwt>
</event>
<event>
 9    1  0.2054950E-002  0.2766850E+03  0.7818608E-02  0.1097513E+00
         -2   -1    0    0    0  501 -0.00000000000E+00  0.00000000000E+00  0.15487160234E+02  0.15487160234E+02  0.00000000000E+00 0.  1.
          2   -1    0    0  501    0  0.00000000000E+00 -0.00000000000E+00 -0.12357752118E+04  0.12357752118E+04  0.00000000000E+00 0.  1.
         36    2    1    2    0    0  0.71054273576E-14  0.71054273576E-14 -0.12202880516E+04  0.12512623720E+04  0.27668501021E+03 0.  0.
         25    2    3    3    0    0 -0.27915902127E+02 -0.33963226286E+02 -0.46127487994E+03  0.48006960735E+03  0.12553690573E+03 0.  0.
         25    2    3    3    0    0  0.27915902127E+02  0.33963226286E+02 -0.75901317161E+03  0.77119276468E+03  0.12924584046E+03 0.  0.
          5    1    4    4  502    0  0.28531229520E+02 -0.43734494080E+02 -0.35849916247E+03  0.36231267784E+03  0.47000000000E+01 0.  1.
         -5    1    4    4    0  502 -0.56447131647E+02  0.97712677935E+01 -0.10277571747E+03  0.11775692951E+03  0.47000000000E+01 0.  1.
          5    1    5    5  503    0  0.53018148878E+02  0.71748616325E+02 -0.55501320624E+03  0.56215703958E+03  0.47000000000E+01 0.  1.
         -5    1    5    5    0  503 -0.25102246751E+02 -0.37785390039E+02 -0.20399996537E+03  0.20903572509E+03  0.47000000000E+01 0.  1.
<mgrwt>
<rscale>  0 0.27668501E+03</rscale>
<asrwt>0</asrwt>
<pdfrwt beam="1">  1        2 0.19011926E+00 0.27668501E+03</pdfrwt>
<pdfrwt beam="2">  1       -2 0.23826401E-02 0.27668501E+03</pdfrwt>
<totfact> 0.11368419E+04</totfact>
</mgrwt>
</event>
<event>
 9    1  0.2054950E-002  0.2764026E+03  0.7818608E-02  0.1097670E+00
          1   -1    0    0  501    0  0.00000000000E+00  0.00000000000E+00  0.17613850183E+03  0.17613850183E+03  0.00000000000E+00 0.  1.
         -1   -1    0    0    0  501 -0.00000000000E+00 -0.00000000000E+00 -0.10843509680E+03  0.10843509680E+03  0.00000000000E+00 0.  1.
         36    2    1    2    0    0  0.00000000000E+00 -0.71054273576E-14  0.67703405033E+02  0.28457359863E+03  0.27640257232E+03 0.  0.
         25    2    3    3    0    0  0.37623629101E+02  0.44620754865E+02  0.11376784685E+02  0.13713932090E+03  0.12357674893E+03 0.  0.
         25    2    3    3    0    0 -0.37623629101E+02 -0.44620754865E+02  0.56326620347E+02  0.14743427773E+03  0.12311632247E+03 0.  0.
          5    1    4    4  502    0  0.32217117632E+02  0.43638519076E+02  0.63997565530E+02  0.84024052565E+02  0.47000000000E+01 0. -1.
         -5    1    4    4    0  502  0.54065114692E+01  0.98223578878E+00 -0.52620780844E+02  0.53115268333E+02  0.47000000000E+01 0. -1.
          5    1    5    5  503    0  0.10637570948E+02  0.30855140482E+00  0.77231296081E+02  0.78102600559E+02  0.47000000000E+01 0. -1.
         -5    1    5    5    0  503 -0.48261200049E+02 -0.44929306270E+02 -0.20904675734E+02  0.69331677173E+02  0.47000000000E+01 0. -1.
<mgrwt>
<rscale>  0 0.27640257E+03</rscale>
<asrwt>0</asrwt>
<pdfrwt beam="1">  1        1 0.27098231E-01 0.27640257E+03</pdfrwt>
<pdfrwt beam="2">  1       -1 0.16682323E-01 0.27640257E+03</pdfrwt>
<totfact> 0.46433554E+03</totfact>
</mgrwt>
</event>
<event>
 9    1  0.2054950E-002  0.2756172E+03  0.7818608E-02  0.1098107E+00
          2   -1    0    0  501    0  0.00000000000E+00  0.00000000000E+00  0.23216431350E+03  0.23216431350E+03  0.00000000000E+00 0. -1.
         -2   -1    0    0    0  501 -0.00000000000E+00 -0.00000000000E+00 -0.81800703242E+02  0.81800703242E+02  0.00000000000E+00 0. -1.
         36    2    1    2    0    0  0.00000000000E+00  0.71054273576E-14  0.15036361025E+03  0.31396501674E+03  0.27561715558E+03 0.  0.
         25    2    3    3    0    0 -0.31976207232E+02 -0.37816829008E+02  0.42009003915E+02  0.14141122091E+03  0.12561762059E+03 0.  0.
         25    2    3    3    0    0  0.31976207232E+02  0.37816829008E+02  0.10835460634E+03  0.17255379583E+03  0.12482588416E+03 0.  0.
          5    1    4    4  502    0 -0.56006151043E+02 -0.69051495772E+02  0.48200625843E+02  0.10124321387E+03  0.47000000000E+01 0.  1.
         -5    1    4    4    0  502  0.24029943811E+02  0.31234666764E+02 -0.61916219288E+01  0.40168007039E+02  0.47000000000E+01 0.  1.
          5    1    5    5  503    0  0.21397229774E+02 -0.39533665938E+02  0.89606995240E+01  0.46077503409E+02  0.47000000000E+01 0.  1.
         -5    1    5    5    0  503  0.10578977458E+02  0.77350494946E+02  0.99393906815E+02  0.12647629242E+03  0.47000000000E+01 0.  1.
<mgrwt>
<rscale>  0 0.27561716E+03</rscale>
<asrwt>0</asrwt>
<pdfrwt beam="1">  1        2 0.35717586E-01 0.27561716E+03</pdfrwt>
<pdfrwt beam="2">  1       -2 0.12584724E-01 0.27561716E+03</pdfrwt>
<totfact> 0.65673176E+03</totfact>
</mgrwt>
</event>
<event>
 9    1  0.2054950E-002  0.2748800E+03  0.7818608E-02  0.1098519E+00
          2   -1    0    0  501    0  0.00000000000E+00  0.00000000000E+00  0.93318802506E+03  0.93318802506E+03  0.00000000000E+00 0.  1.
         -2   -1    0    0    0  501 -0.00000000000E+00 -0.00000000000E+00 -0.20242166735E+02  0.20242166735E+02  0.00000000000E+00 0.  1.
         36    2    1    2    0    0  0.00000000000E+00  0.00000000000E+00  0.91294585832E+03  0.95343019179E+03  0.27487995633E+03 0.  0.
         25    2    3    3    0    0  0.16300278680E+02 -0.35201979660E+02  0.32913090342E+03  0.35454747235E+03  0.12598365015E+03 0.  0.
         25    2    3    3    0    0 -0.16300278680E+02  0.35201979660E+02  0.58381495490E+03  0.59888271944E+03  0.12773304828E+03 0.  0.
          5    1    4    4  502    0 -0.30067694784E+02 -0.53713318463E+02  0.83465263538E+02  0.10381583245E+03  0.47000000000E+01 0.  1.
         -5    1    4    4    0  502  0.46367973463E+02  0.18511338804E+02  0.24566563988E+03  0.25073163989E+03  0.47000000000E+01 0.  1.
          5    1    5    5  503    0 -0.15673400001E+02  0.20368307665E+02  0.58268310698E+03  0.58326856300E+03  0.47000000000E+01 0.  1.
         -5    1    5    5    0  503 -0.62687867889E+00  0.14833671995E+02  0.11318479235E+01  0.15614156443E+02  0.47000000000E+01 0.  1.
<mgrwt>
<rscale>  0 0.27487996E+03</rscale>
<asrwt>0</asrwt>
<pdfrwt beam="1">  1        2 0.14356736E+00 0.27487996E+03</pdfrwt>
<pdfrwt beam="2">  1       -2 0.31141802E-02 0.27487996E+03</pdfrwt>
<totfact> 0.11550525E+04</totfact>
</mgrwt>
</event>
<event>
 9    1  0.2054950E-002  0.2820091E+03  0.7818608E-02  0.1094597E+00
          2   -1    0    0  501    0  0.00000000000E+00  0.00000000000E+00  0.12020135793E+04  0.12020135793E+04  0.00000000000E+00 0. -1.
         -2   -1    0    0    0  501 -0.00000000000E+00 -0.00000000000E+00 -0.16540812469E+02  0.16540812469E+02  0.00000000000E+00 0. -1.
         36    2    1    2    0    0  0.00000000000E+00  0.00000000000E+00  0.11854727669E+04  0.12185543918E+04  0.28200908639E+03 0.  0.
         25    2    3    3    0    0  0.57550722268E+02  0.12573668254E+02  0.74854553105E+03  0.76113064497E+03  0.12461646722E+03 0.  0.
         25    2    3    3    0    0 -0.57550722268E+02 -0.12573668254E+02  0.43692723583E+03  0.45742374684E+03  0.12190525828E+03 0.  0.
          5    1    4    4  502    0  0.33597764399E+02  0.63857917241E+02  0.54617441533E+03  0.55094031014E+03  0.47000000000E+01 0. -1.
         -5    1    4    4    0  502  0.23952957869E+02 -0.51284248988E+02  0.20237111571E+03  0.21019033484E+03  0.47000000000E+01 0. -1.
          5    1    5    5  503    0  0.26919833452E+02  0.19770323806E+02  0.51975914946E+02  0.61960704248E+02  0.47000000000E+01 0. -1.
         -5    1    5    5    0  503 -0.84470555720E+02 -0.32343992060E+02  0.38495132088E+03  0.39546304259E+03  0.47000000000E+01 0. -1.
<mgrwt>
<rscale>  0 0.28200909E+03</rscale>
<asrwt>0</asrwt>
<pdfrwt beam="1">  1        2 0.18492510E+00 0.28200909E+03</pdfrwt>
<pdfrwt beam="2">  1       -2 0.25447413E-02 0.28200909E+03</pdfrwt>
<totfact> 0.10782197E+04</totfact>
</mgrwt>
</event>
<event>
 9    1  0.2054950E-002  0.2787938E+03  0.7818608E-02  0.1096350E+00
          1   -1    0    0  501    0  0.00000000000E+00  0.00000000000E+00  0.25924138755E+03  0.25924138755E+03  0.00000000000E+00 0. -1.
         -1   -1    0    0    0  501 -0.00000000000E+00 -0.00000000000E+00 -0.74955215122E+02  0.74955215122E+02  0.00000000000E+00 0. -1.
         36    2    1    2    0    0  0.00000000000E+00  0.00000000000E+00  0.18428617243E+03  0.33419660267E+03  0.27879378739E+03 0.  0.
         25    2    3    3    0    0 -0.45673226736E+02  0.42383365815E+02  0.11601830385E+03  0.17976885417E+03  0.12236911688E+03 0.  0.
         25    2    3    3    0    0  0.45673226736E+02 -0.42383365815E+02  0.68267868580E+02  0.15442774850E+03  0.12371351699E+03 0.  0.
          5    1    4    4  502    0 -0.43745295092E+01 -0.36517298998E+02  0.50701788687E+01  0.37422537972E+02  0.47000000000E+01 0.  1.
         -5    1    4    4    0  502 -0.41298697226E+02  0.78900664813E+02  0.11094812498E+03  0.14234631620E+03  0.47000000000E+01 0.  1.
          5    1    5    5  503    0 -0.29540343844E+02 -0.14280590986E+02  0.66127453089E+02  0.73969569726E+02  0.47000000000E+01 0.  1.
         -5    1    5    5    0  503  0.75213570580E+02 -0.28102774830E+02  0.21404154908E+01  0.80458178770E+02  0.47000000000E+01 0.  1.
<mgrwt>
<rscale>  0 0.27879379E+03</rscale>
<asrwt>0</asrwt>
<pdfrwt beam="1">  1        1 0.39883290E-01 0.27879379E+03</pdfrwt>
<pdfrwt beam="2">  1       -1 0.11531572E-01 0.27879379E+03</pdfrwt>
<totfact> 0.51127712E+03</totfact>
</mgrwt>
</event>
<event>
 9    1  0.2054950E-002  0.2746305E+03  0.7818608E-02  0.1098658E+00
          2   -1    0    0  501    0  0.00000000000E+00  0.00000000000E+00  0.17399448482E+03  0.17399448482E+03  0.00000000000E+00 0. -1.
         -2   -1    0    0    0  501 -0.00000000000E+00 -0.00000000000E+00 -0.10836824649E+03  0.10836824649E+03  0.00000000000E+00 0. -1.
         36    2    1    2    0    0  0.88817841970E-15 -0.71054273576E-14  0.65626238337E+02  0.28236273131E+03  0.27463049517E+03 0.  0.
         25    2    3    3    0    0  0.80686034317E+00 -0.50224586649E+02  0.95134108332E+02  0.16663742586E+03  0.12725711376E+03 0.  0.
         25    2    3    3    0    0 -0.80686034317E+00  0.50224586649E+02 -0.29507869995E+02  0.11572530545E+03  0.99992358718E+02 0.  0.
          5    1    4    4  502    0 -0.18639635855E+02  0.82172640141E+01  0.10233423734E+03  0.10444781273E+03  0.47000000000E+01 0.  1.
         -5    1    4    4    0  502  0.19446496198E+02 -0.58441850663E+02 -0.72001290080E+01  0.62189613128E+02  0.47000000000E+01 0.  1.
          5    1    5    5  503    0 -0.55881296288E+01  0.18952115397E+02 -0.64911281034E+02  0.68014515188E+02  0.47000000000E+01 0. -1.
         -5    1    5    5    0  503  0.47812692856E+01  0.31272471252E+02  0.35403411039E+02  0.47710790261E+02  0.47000000000E+01 0. -1.
<mgrwt>
<rscale>  0 0.27463050E+03</rscale>
<asrwt>0</asrwt>
<pdfrwt beam="1">  1        2 0.26768382E-01 0.27463050E+03</pdfrwt>
<pdfrwt beam="2">  1       -2 0.16672038E-01 0.27463050E+03</pdfrwt>
<totfact> 0.56685675E+03</totfact>
</mgrwt>
</event>
<event>
 9    1  0.2054950E-002  0.2751343E+03  0.7818608E-02  0.1098377E+00
         -1   -1    0    0    0  501 -0.00000000000E+00  0.00000000000E+00  0.10379218496E+03  0.10379218496E+03  0.00000000000E+00 0.  1.
          1   -1    0    0  501    0  0.00000000000E+00 -0.00000000000E+00 -0.18233280427E+03  0.18233280427E+03  0.00000000000E+00 0.  1.
         36    2    1    2    0    0  0.00000000000E+00 -0.14210854715E-13 -0.78540619311E+02  0.28612498923E+03  0.27513429553E+03 0.  0.
         25    2    3    3    0    0 -0.17857748312E+02  0.50842951030E+02 -0.64277104895E+02  0.14837934304E+03  0.12239680708E+03 0.  0.
         25    2    3    3    0    0  0.17857748312E+02 -0.50842951030E+02 -0.14263514416E+02  0.13774564618E+03  0.12596233705E+03 0.  0.
          5    1    4    4  502    0 -0.33385486207E+02  0.13167789499E+02  0.29065879625E+02  0.46420865221E+02  0.47000000000E+01 0.  1.
         -5    1    4    4    0  502  0.15527737895E+02  0.37675161531E+02 -0.93342984520E+02  0.10195847782E+03  0.47000000000E+01 0.  1.
          5    1    5    5  503    0  0.30580838921E+02  0.36120987541E+02 -0.14528041805E+02  0.49729945192E+02  0.47000000000E+01 0. -1.
         -5    1    5    5    0  503 -0.12723090609E+02 -0.86963938571E+02  0.26452738918E+00  0.88015700992E+02  0.47000000000E+01 0. -1.
<mgrwt>
<rscale>  0 0.27513430E+03</rscale>
<asrwt>0</asrwt>
<pdfrwt beam="1">  1        1 0.28051201E-01 0.27513430E+03</pdfrwt>
<pdfrwt beam="2">  1       -1 0.15968028E-01 0.27513430E+03</pdfrwt>
<totfact> 0.47655882E+03</totfact>
</mgrwt>
</event>
<event>
 9    1  0.2054950E-002  0.2751754E+03  0.7818608E-02  0.1098354E+00
          2   -1    0    0  501    0  0.00000000000E+00  0.00000000000E+00  0.15379432591E+04  0.15379432591E+04  0.00000000000E+00 0. -1.
         -2   -1    0    0    0  501 -0.00000000000E+00 -0.00000000000E+00 -0.12308888006E+02  0.12308888006E+02  0.00000000000E+00 0. -1.
         36    2    1    2    0    0  0.00000000000E+00  0.00000000000E+00  0.15256343711E+04  0.15502521471E+04  0.27517537197E+03 0.  0.
         25    2    3    3    0    0 -0.12979117566E+02  0.37079658655E+02  0.99842941331E+03  0.10069238054E+04  0.12446243544E+03 0.  0.
         25    2    3    3    0    0  0.12979117566E+02 -0.37079658655E+02  0.52720495779E+03  0.54332834176E+03  0.12536850029E+03 0.  0.
          5    1    4    4  502    0  0.35155729038E+02 -0.38950344472E+01  0.73906713772E+03  0.73992798341E+03  0.47000000000E+01 0.  1.
         -5    1    4    4    0  502 -0.48134846604E+02  0.40974693102E+02  0.25936227559E+03  0.26699582194E+03  0.47000000000E+01 0.  1.
          5    1    5    5  503    0 -0.32970789269E+02  0.23316532151E+02  0.80338188399E+02  0.90039147773E+02  0.47000000000E+01 0. -1.
         -5    1    5    5    0  503  0.45949906834E+02 -0.60396190806E+02  0.44686676939E+03  0.45328919399E+03  0.47000000000E+01 0. -1.
<mgrwt>
<rscale>  0 0.27517537E+03</rscale>
<asrwt>0</asrwt>
<pdfrwt beam="1">  1        2 0.23660650E+00 0.27517537E+03</pdfrwt>
<pdfrwt beam="2">  1       -2 0.18936763E-02 0.27517537E+03</pdfrwt>
<totfact> 0.10909551E+04</totfact>
</mgrwt>
</event>
<event>
 9    1  0.2054950E-002  0.2761770E+03  0.7818608E-02  0.1097795E+00
          2   -1    0    0  501    0  0.00000000000E+00  0.00000000000E+00  0.13523869831E+04  0.13523869831E+04  0.00000000000E+00 0.  1.
         -2   -1    0    0    0  501 -0.00000000000E+00 -0.00000000000E+00 -0.14099836505E+02  0.14099836505E+02  0.00000000000E+00 0.  1.
         36    2    1    2    0    0  0.00000000000E+00 -0.71054273576E-14  0.13382871466E+04  0.13664868196E+04  0.27617701102E+03 0.  0.
         25    2    3    3    0    0 -0.40546420942E+02 -0.43561994382E+02  0.68810002844E+03  0.70181918519E+03  0.12460682145E+03 0.  0.
         25    2    3    3    0    0  0.40546420942E+02  0.43561994382E+02  0.65018711814E+03  0.66466763440E+03  0.12449142952E+03 0.  0.
          5    1    4    4  502    0 -0.80026867046E+02 -0.99142319593E+01  0.50637180703E+03  0.51277391549E+03  0.47000000000E+01 0.  1.
         -5    1    4    4    0  502  0.39480446104E+02 -0.33647762422E+02  0.18172822141E+03  0.18904526970E+03  0.47000000000E+01 0.  1.
          5    1    5    5  503    0  0.23612316556E+02 -0.20052684809E+02  0.49550160192E+03  0.49649126797E+03  0.47000000000E+01 0. -1.
         -5    1    5    5    0  503  0.16934104386E+02  0.63614679191E+02  0.15468551622E+03  0.16817636643E+03  0.47000000000E+01 0. -1.
<mgrwt>
<rscale>  0 0.27617701E+03</rscale>
<asrwt>0</asrwt>
<pdfrwt beam="1">  1        2 0.20805943E+00 0.27617701E+03</pdfrwt>
<pdfrwt beam="2">  1       -2 0.21692067E-02 0.27617701E+03</pdfrwt>
<totfact> 0.11249775E+04</totfact>
</mgrwt>
</event>
<event>
 9    1  0.2054950E-002  0.2751292E+03  0.7818608E-02  0.1098379E+00
         -1   -1    0    0    0  501 -0.00000000000E+00  0.00000000000E+00  0.11897067041E+02  0.11897067041E+02  0.00000000000E+00 0.  1.
          1   -1    0    0  501    0  0.00000000000E+00 -0.00000000000E+00 -0.15906461724E+04  0.15906461724E+04  0.00000000000E+00 0.  1.
         36    2    1    2    0    0  0.71054273576E-14  0.00000000000E+00 -0.15787491054E+04  0.16025432394E+04  0.27512923619E+03 0.  0.
         25    2    3    3    0    0  0.44325685946E+02 -0.29577384800E+02 -0.68952097805E+03  0.70328438286E+03  0.12778949828E+03 0.  0.
         25    2    3    3    0    0 -0.44325685946E+02  0.29577384800E+02 -0.88922812732E+03  0.89925885659E+03  0.12288303635E+03 0.  0.
          5    1    4    4  502    0  0.84425920183E+02 -0.10691997419E+02 -0.32271205878E+03  0.33377719768E+03  0.47000000000E+01 0.  1.
         -5    1    4    4    0  502 -0.40100234237E+02 -0.18885387381E+02 -0.36680891927E+03  0.36950718518E+03  0.47000000000E+01 0.  1.
          5    1    5    5  503    0 -0.84168747999E+02  0.31949014999E+02 -0.70206740856E+03  0.70783179772E+03  0.47000000000E+01 0.  1.
         -5    1    5    5    0  503  0.39843062053E+02 -0.23716301994E+01 -0.18716071875E+03  0.19142705887E+03  0.47000000000E+01 0.  1.
<mgrwt>
<rscale>  0 0.27512924E+03</rscale>
<asrwt>0</asrwt>
<pdfrwt beam="1">  1        1 0.24471490E+00 0.27512924E+03</pdfrwt>
<pdfrwt beam="2">  1       -1 0.18303173E-02 0.27512924E+03</pdfrwt>
<totfact> 0.48673293E+03</totfact>
</mgrwt>
</event>
<event>
 9    1  0.2054950E-002  0.2757770E+03  0.7818608E-02  0.1098018E+00
         -2   -1    0    0    0  501 -0.00000000000E+00  0.00000000000E+00  0.14154724161E+02  0.14154724161E+02  0.00000000000E+00 0.  1.
          2   -1    0    0  501    0  0.00000000000E+00 -0.00000000000E+00 -0.13432433257E+04  0.13432433257E+04  0.00000000000E+00 0.  1.
         36    2    1    2    0    0 -0.35527136788E-14  0.00000000000E+00 -0.13290886016E+04  0.13573980499E+04  0.27577700235E+03 0.  0.
         25    2    3    3    0    0 -0.31435076885E+02 -0.14466668367E+02 -0.43924438064E+03  0.45817480491E+03  0.12566255361E+03 0.  0.
         25    2    3    3    0    0  0.31435076885E+02  0.14466668367E+02 -0.88984422093E+03  0.89922324498E+03  0.12482891586E+03 0.  0.
          5    1    4    4  502    0 -0.66035047572E+01 -0.47606663103E+02 -0.61770724526E+02  0.78407353325E+02  0.47000000000E+01 0.  1.
         -5    1    4    4    0  502 -0.24831572128E+02  0.33139994736E+02 -0.37747365611E+03  0.37976745159E+03  0.47000000000E+01 0.  1.
          5    1    5    5  503    0  0.14801305866E+02  0.48750575192E+02 -0.15198816357E+03  0.16036891563E+03  0.47000000000E+01 0. -1.
         -5    1    5    5    0  503  0.16633771019E+02 -0.34283906825E+02 -0.73785605736E+03  0.73885432935E+03  0.47000000000E+01 0. -1.
<mgrwt>
<rscale>  0 0.27577700E+03</rscale>
<asrwt>0</asrwt>
<pdfrwt beam="1">  1        2 0.20665294E+00 0.27577700E+03</pdfrwt>
<pdfrwt beam="2">  1       -2 0.21776486E-02 0.27577700E+03</pdfrwt>
<totfact> 0.11315003E+04</totfact>
</mgrwt>
</event>
<event>
 9    1  0.2054950E-002  0.2770716E+03  0.7818608E-02  0.1097299E+00
         -1   -1    0    0    0  501 -0.00000000000E+00  0.00000000000E+00  0.43425037340E+02  0.43425037340E+02  0.00000000000E+00 0. -1.
          1   -1    0    0  501    0  0.00000000000E+00 -0.00000000000E+00 -0.44196086955E+03  0.44196086955E+03  0.00000000000E+00 0. -1.
         36    2    1    2    0    0 -0.17763568394E-14  0.00000000000E+00 -0.39853583221E+03  0.48538590689E+03  0.27707159554E+03 0.  0.
         25    2    3    3    0    0  0.52522441391E+01  0.35080256510E+02 -0.12593477829E+03  0.18292019217E+03  0.12783590206E+03 0.  0.
         25    2    3    3    0    0 -0.52522441391E+01 -0.35080256510E+02 -0.27260105392E+03  0.30246571472E+03  0.12615848571E+03 0.  0.
          5    1    4    4  502    0  0.17115459677E+02 -0.53052375642E+00 -0.14106528434E+03  0.14217849649E+03  0.47000000000E+01 0.  1.
         -5    1    4    4    0  502 -0.11863215538E+02  0.35610780267E+02  0.15130506055E+02  0.40741695689E+02  0.47000000000E+01 0.  1.
          5    1    5    5  503    0  0.21436117204E+02  0.28612408102E+02 -0.19572884598E+03  0.19902273279E+03  0.47000000000E+01 0.  1.
         -5    1    5    5    0  503 -0.26688361343E+02 -0.63692664612E+02 -0.76872207941E+02  0.10344298193E+03  0.47000000000E+01 0.  1.
<mgrwt>
<rscale>  0 0.27707160E+03</rscale>
<asrwt>0</asrwt>
<pdfrwt beam="1">  1        1 0.67993980E-01 0.27707160E+03</pdfrwt>
<pdfrwt beam="2">  1       -1 0.66807750E-02 0.27707160E+03</pdfrwt>
<totfact> 0.60054127E+03</totfact>
</mgrwt>
</event>
<event>
 9    1  0.2054950E-002  0.2779906E+03  0.7818608E-02  0.1096791E+00
         -2   -1    0    0    0  501 -0.00000000000E+00  0.00000000000E+00  0.47653226838E+02  0.47653226838E+02  0.00000000000E+00 0. -1.
          2   -1    0    0  501    0  0.00000000000E+00 -0.00000000000E+00 -0.40542266864E+03  0.40542266864E+03  0.00000000000E+00 0. -1.
         36    2    1    2    0    0  0.00000000000E+00  0.00000000000E+00 -0.35776944180E+03  0.45307589548E+03  0.27799063577E+03 0.  0.
         25    2    3    3    0    0 -0.14993473950E+02  0.61554076053E+02 -0.20287413269E+03  0.24494310052E+03  0.12176001083E+03 0.  0.
         25    2    3    3    0    0  0.14993473950E+02 -0.61554076053E+02 -0.15489530911E+03  0.20813279496E+03  0.12374568685E+03 0.  0.
          5    1    4    4  502    0  0.10678902958E+02  0.31244258826E+02  0.45832130380E+01  0.33665093490E+02  0.47000000000E+01 0. -1.
         -5    1    4    4    0  502 -0.25672376907E+02  0.30309817228E+02 -0.20745734573E+03  0.21127800703E+03  0.47000000000E+01 0. -1.
          5    1    5    5  503    0 -0.11217837587E+02 -0.60524992470E+02 -0.12147472395E+02  0.62918722803E+02  0.47000000000E+01 0. -1.
         -5    1    5    5    0  503  0.26211311536E+02 -0.10290835834E+01 -0.14274783671E+03  0.14521407216E+03  0.47000000000E+01 0. -1.
<mgrwt>
<rscale>  0 0.27799064E+03</rscale>
<asrwt>0</asrwt>
<pdfrwt beam="1">  1        2 0.62372721E-01 0.27799064E+03</pdfrwt>
<pdfrwt beam="2">  1       -2 0.73312654E-02 0.27799064E+03</pdfrwt>
<totfact> 0.84768773E+03</totfact>
</mgrwt>
</event>
<event>
 9    1  0.2054950E-002  0.2679569E+03  0.7818608E-02  0.1102455E+00
          1   -1    0    0  501    0  0.00000000000E+00  0.00000000000E+00  0.84125102314E+03  0.84125102314E+03  0.00000000000E+00 0. -1.
         -1   -1    0    0    0  501 -0.00000000000E+00 -0.00000000000E+00 -0.21337540422E+02  0.21337540422E+02  0.00000000000E+00 0. -1.
         36    2    1    2    0    0  0.71054273576E-14  0.14210854715E-13  0.81991348272E+03  0.86258856356E+03  0.26795691975E+03 0.  0.
         25    2    3    3    0    0  0.30263148075E+02  0.31449711147E+02  0.34365841873E+03  0.36849686879E+03  0.12563395670E+03 0.  0.
         25    2    3    3    0    0 -0.30263148075E+02 -0.31449711147E+02  0.47625506399E+03  0.49409169478E+03  0.12410791438E+03 0.  0.
          5    1    4    4  502    0 -0.35928531772E+02 -0.25892034067E+02  0.97735022361E+02  0.10740335851E+03  0.47000000000E+01 0. -1.
         -5    1    4    4    0  502  0.66191679847E+02  0.57341745215E+02  0.24592339637E+03  0.26109351027E+03  0.47000000000E+01 0. -1.
          5    1    5    5  503    0 -0.70062513795E+02 -0.49517339998E+02  0.27587049413E+03  0.28894176287E+03  0.47000000000E+01 0. -1.
         -5    1    5    5    0  503  0.39799365720E+02  0.18067628851E+02  0.20038456985E+03  0.20514993190E+03  0.47000000000E+01 0. -1.
<mgrwt>
<rscale>  0 0.26795692E+03</rscale>
<asrwt>0</asrwt>
<pdfrwt beam="1">  1        1 0.12942321E+00 0.26795692E+03</pdfrwt>
<pdfrwt beam="2">  1       -1 0.32826992E-02 0.26795692E+03</pdfrwt>
<totfact> 0.70099563E+03</totfact>
</mgrwt>
</event>
<event>
 9    1  0.2054950E-002  0.2711796E+03  0.7818608E-02  0.1100606E+00
         -1   -1    0    0    0  501 -0.00000000000E+00  0.00000000000E+00  0.54499600086E+02  0.54499600086E+02  0.00000000000E+00 0.  1.
          1   -1    0    0  501    0  0.00000000000E+00 -0.00000000000E+00 -0.33733458700E+03  0.33733458700E+03  0.00000000000E+00 0.  1.
         36    2    1    2    0    0  0.00000000000E+00  0.71054273576E-14 -0.28283498692E+03  0.39183418709E+03  0.27117964590E+03 0.  0.
         25    2    3    3    0    0  0.18740288104E+02 -0.36995963294E+02 -0.17651374968E+03  0.22115162170E+03  0.12661372855E+03 0.  0.
         25    2    3    3    0    0 -0.18740288104E+02  0.36995963294E+02 -0.10632123723E+03  0.17068256539E+03  0.12691900150E+03 0.  0.
          5    1    4    4  502    0 -0.88393427111E+01  0.13623747292E+02 -0.16015649891E+03  0.16104637411E+03  0.47000000000E+01 0. -1.
         -5    1    4    4    0  502  0.27579630815E+02 -0.50619710586E+02 -0.16357250774E+02  0.60105247596E+02  0.47000000000E+01 0. -1.
          5    1    5    5  503    0 -0.68944821918E+02  0.38481135245E+02 -0.84427682480E+02  0.11569057787E+03  0.47000000000E+01 0. -1.
         -5    1    5    5    0  503  0.50204533814E+02 -0.14851719511E+01 -0.21893554754E+02  0.54991987516E+02  0.47000000000E+01 0. -1.
<mgrwt>
<rscale>  0 0.27117965E+03</rscale>
<asrwt>0</asrwt>
<pdfrwt beam="1">  1        1 0.51897629E-01 0.27117965E+03</pdfrwt>
<pdfrwt beam="2">  1       -1 0.83845538E-02 0.27117965E+03</pdfrwt>
<totfact> 0.59999137E+03</totfact>
</mgrwt>
</event>
<event>
 9    1  0.2054950E-002  0.2751037E+03  0.7818608E-02  0.1098394E+00
         -1   -1    0    0    0  501 -0.00000000000E+00  0.00000000000E+00  0.10220466641E+02  0.10220466641E+02  0.00000000000E+00 0. -1.
          1   -1    0    0  501    0  0.00000000000E+00 -0.00000000000E+00 -0.18512372156E+04  0.18512372156E+04  0.00000000000E+00 0. -1.
         36    2    1    2    0    0 -0.35527136788E-14  0.00000000000E+00 -0.18410167490E+04  0.18614576822E+04  0.27510367651E+03 0.  0.
         25    2    3    3    0    0 -0.40276649420E+01 -0.20482540840E+02 -0.12433773389E+04  0.12507980847E+04  0.13443543120E+03 0.  0.
         25    2    3    3    0    0  0.40276649420E+01  0.20482540840E+02 -0.59763941007E+03  0.61065959758E+03  0.12367911338E+03 0.  0.
          5    1    4    4  502    0  0.70720565393E+00 -0.75197196981E+02 -0.53503679777E+03  0.54031618849E+03  0.47000000000E+01 0.  1.
         -5    1    4    4    0  502 -0.47348705959E+01  0.54714656141E+02 -0.70834054111E+03  0.71048189616E+03  0.47000000000E+01 0.  1.
          5    1    5    5  503    0  0.49874063171E+02 -0.11160332893E+02 -0.44779374258E+03  0.45072530559E+03  0.47000000000E+01 0. -1.
         -5    1    5    5    0  503 -0.45846398230E+02  0.31642873733E+02 -0.14984566749E+03  0.15993429199E+03  0.47000000000E+01 0. -1.
<mgrwt>
<rscale>  0 0.27510368E+03</rscale>
<asrwt>0</asrwt>
<pdfrwt beam="1">  1        1 0.28480567E+00 0.27510368E+03</pdfrwt>
<pdfrwt beam="2">  1       -1 0.15723798E-02 0.27510368E+03</pdfrwt>
<totfact> 0.41066570E+03</totfact>
</mgrwt>
</event>
<event>
 9    1  0.2054950E-002  0.2753703E+03  0.7818608E-02  0.1098245E+00
          3   -1    0    0  501    0  0.00000000000E+00  0.00000000000E+00  0.88785525716E+03  0.88785525716E+03  0.00000000000E+00 0.  1.
         -3   -1    0    0    0  501 -0.00000000000E+00 -0.00000000000E+00 -0.21351676892E+02  0.21351676892E+02  0.00000000000E+00 0.  1.
         36    2    1    2    0    0  0.00000000000E+00  0.00000000000E+00  0.86650358027E+03  0.90920693406E+03  0.27537028582E+03 0.  0.
         25    2    3    3    0    0 -0.51099390854E+02 -0.34867088188E+02  0.43846720224E+03  0.46108741804E+03  0.12853504598E+03 0.  0.
         25    2    3    3    0    0  0.51099390854E+02  0.34867088188E+02  0.42803637803E+03  0.44811951602E+03  0.11734180046E+03 0.  0.
          5    1    4    4  502    0 -0.20126334924E+02 -0.63925522963E+02  0.39296765494E+03  0.39866929863E+03  0.47000000000E+01 0. -1.
         -5    1    4    4    0  502 -0.30973055930E+02  0.29058434775E+02  0.45499547301E+02  0.62418119403E+02  0.47000000000E+01 0. -1.
          5    1    5    5  503    0  0.41244374746E+02  0.20754056342E+02  0.44923492696E+02  0.64591326808E+02  0.47000000000E+01 0.  1.
         -5    1    5    5    0  503  0.98550161078E+01  0.14113031845E+02  0.38311288533E+03  0.38352818921E+03  0.47000000000E+01 0.  1.
<mgrwt>
<rscale>  0 0.27537029E+03</rscale>
<asrwt>0</asrwt>
<pdfrwt beam="1">  1        3 0.13659309E+00 0.27537029E+03</pdfrwt>
<pdfrwt beam="2">  1       -3 0.32848741E-02 0.27537029E+03</pdfrwt>
<totfact> 0.48615843E+02</totfact>
</mgrwt>
</event>
<event>
 9    1  0.2054950E-002  0.2744068E+03  0.7818608E-02  0.1098784E+00
          2   -1    0    0  501    0  0.00000000000E+00  0.00000000000E+00  0.50575445777E+03  0.50575445777E+03  0.00000000000E+00 0.  1.
         -2   -1    0    0    0  501 -0.00000000000E+00 -0.00000000000E+00 -0.37221165653E+02  0.37221165653E+02  0.00000000000E+00 0.  1.
         36    2    1    2    0    0  0.71054273576E-14  0.00000000000E+00  0.46853329211E+03  0.54297562342E+03  0.27440678164E+03 0.  0.
         25    2    3    3    0    0 -0.52337947791E+02  0.68336582236E+01  0.16202764109E+03  0.20810570561E+03  0.11945320660E+03 0.  0.
         25    2    3    3    0    0  0.52337947791E+02 -0.68336582236E+01  0.30650565102E+03  0.33486991781E+03  0.12412166645E+03 0.  0.
          5    1    4    4  502    0 -0.56562765804E+02  0.33752077237E+02  0.28805507713E+02  0.72044406221E+02  0.47000000000E+01 0. -1.
         -5    1    4    4    0  502  0.42248180124E+01 -0.26918419013E+02  0.13322213338E+03  0.13606129939E+03  0.47000000000E+01 0. -1.
          5    1    5    5  503    0  0.60589072144E+01 -0.46888927909E+02  0.23879280548E+03  0.24347356297E+03  0.47000000000E+01 0. -1.
         -5    1    5    5    0  503  0.46279040577E+02  0.40055269685E+02  0.67712845541E+02  0.91396354837E+02  0.47000000000E+01 0. -1.
<mgrwt>
<rscale>  0 0.27440678E+03</rscale>
<asrwt>0</asrwt>
<pdfrwt beam="1">  1        2 0.77808373E-01 0.27440678E+03</pdfrwt>
<pdfrwt beam="2">  1       -2 0.57263336E-02 0.27440678E+03</pdfrwt>
<totfact> 0.97162993E+03</totfact>
</mgrwt>
</event>
<event>
 9    1  0.2054950E-002  0.2758826E+03  0.7818608E-02  0.1097959E+00
         -1   -1    0    0    0  501 -0.00000000000E+00  0.00000000000E+00  0.22378354564E+02  0.22378354564E+02  0.00000000000E+00 0.  1.
          1   -1    0    0  501    0  0.00000000000E+00 -0.00000000000E+00 -0.85027707786E+03  0.85027707786E+03  0.00000000000E+00 0.  1.
         36    2    1    2    0    0 -0.71054273576E-14 -0.71054273576E-14 -0.82789872330E+03  0.87265543243E+03  0.27588259768E+03 0.  0.
         25    2    3    3    0    0  0.48163259698E+02  0.33761365856E+02 -0.33905431434E+03  0.36518230231E+03  0.12223238705E+03 0.  0.
         25    2    3    3    0    0 -0.48163259698E+02 -0.33761365856E+02 -0.48884440896E+03  0.50747313011E+03  0.12288446689E+03 0.  0.
          5    1    4    4  502    0  0.47874581500E+02  0.64281646632E+02 -0.31757154435E+03  0.32756355326E+03  0.47000000000E+01 0. -1.
         -5    1    4    4    0  502  0.28867819791E+00 -0.30520280775E+02 -0.21482769988E+02  0.37618749050E+02  0.47000000000E+01 0. -1.
          5    1    5    5  503    0 -0.88729089352E+02 -0.27429553672E+02 -0.29653864655E+03  0.31077723631E+03  0.47000000000E+01 0.  1.
         -5    1    5    5    0  503  0.40565829655E+02 -0.63318121845E+01 -0.19230576241E+03  0.19669589380E+03  0.47000000000E+01 0.  1.
<mgrwt>
<rscale>  0 0.27588260E+03</rscale>
<asrwt>0</asrwt>
<pdfrwt beam="1">  1        1 0.13081184E+00 0.27588260E+03</pdfrwt>
<pdfrwt beam="2">  1       -1 0.34428242E-02 0.27588260E+03</pdfrwt>
<totfact> 0.64285960E+03</totfact>
</mgrwt>
</event>
<event>
 9    1  0.2054950E-002  0.2750531E+03  0.7818608E-02  0.1098422E+00
         -2   -1    0    0    0  501 -0.00000000000E+00  0.00000000000E+00  0.15098687376E+02  0.15098687376E+02  0.00000000000E+00 0. -1.
          2   -1    0    0  501    0  0.00000000000E+00 -0.00000000000E+00 -0.12526622005E+04  0.12526622005E+04  0.00000000000E+00 0. -1.
         36    2    1    2    0    0  0.00000000000E+00  0.71054273576E-14 -0.12375635131E+04  0.12677608878E+04  0.27505312179E+03 0.  0.
         25    2    3    3    0    0 -0.16181788311E+02 -0.46638655333E+02 -0.75437618242E+03  0.76581488398E+03  0.12227836059E+03 0.  0.
         25    2    3    3    0    0  0.16181788311E+02  0.46638655333E+02 -0.48318733066E+03  0.50194600385E+03  0.12666009567E+03 0.  0.
          5    1    4    4  502    0 -0.12591132062E+02  0.39872696216E+02 -0.32987502855E+03  0.33254773036E+03  0.47000000000E+01 0. -1.
         -5    1    4    4    0  502 -0.35906562485E+01 -0.86511351549E+02 -0.42450115388E+03  0.43326715361E+03  0.47000000000E+01 0. -1.
          5    1    5    5  503    0 -0.21724893367E+02  0.60789803075E+02 -0.11879356650E+03  0.13528256573E+03  0.47000000000E+01 0.  1.
         -5    1    5    5    0  503  0.37906681678E+02 -0.14151147741E+02 -0.36439376416E+03  0.36666343812E+03  0.47000000000E+01 0.  1.
<mgrwt>
<rscale>  0 0.27505312E+03</rscale>
<asrwt>0</asrwt>
<pdfrwt beam="1">  1        2 0.19271729E+00 0.27505312E+03</pdfrwt>
<pdfrwt beam="2">  1       -2 0.23228747E-02 0.27505312E+03</pdfrwt>
<totfact> 0.11546550E+04</totfact>
</mgrwt>
</event>
<event>
 9    1  0.2054950E-002  0.2656218E+03  0.7818608E-02  0.1103812E+00
         -1   -1    0    0    0  501 -0.00000000000E+00  0.00000000000E+00  0.35942258953E+02  0.35942258953E+02  0.00000000000E+00 0.  1.
          1   -1    0    0  501    0  0.00000000000E+00 -0.00000000000E+00 -0.49075183450E+03  0.49075183450E+03  0.00000000000E+00 0.  1.
         36    2    1    2    0    0 -0.71054273576E-14  0.00000000000E+00 -0.45480957555E+03  0.52669409345E+03  0.26562175752E+03 0.  0.
         25    2    3    3    0    0  0.14088579055E+02  0.27803394442E+02 -0.27266872813E+03  0.30246936449E+03  0.12715331043E+03 0.  0.
         25    2    3    3    0    0 -0.14088579055E+02 -0.27803394442E+02 -0.18214084742E+03  0.22422472897E+03  0.12700363766E+03 0.  0.
          5    1    4    4  502    0 -0.50772448041E+02 -0.11602197506E+02 -0.82677237750E+02  0.97826724922E+02  0.47000000000E+01 0.  1.
         -5    1    4    4    0  502  0.64861027096E+02  0.39405591947E+02 -0.18999149038E+03  0.20464263956E+03  0.47000000000E+01 0.  1.
          5    1    5    5  503    0  0.23850078531E+02  0.10015294888E+02 -0.16601580098E+03  0.16808470648E+03  0.47000000000E+01 0.  1.
         -5    1    5    5    0  503 -0.37938657586E+02 -0.37818689330E+02 -0.16125046442E+02  0.56140022487E+02  0.47000000000E+01 0.  1.
<mgrwt>
<rscale>  0 0.26562176E+03</rscale>
<asrwt>0</asrwt>
<pdfrwt beam="1">  1        1 0.75500287E-01 0.26562176E+03</pdfrwt>
<pdfrwt beam="2">  1       -1 0.55295780E-02 0.26562176E+03</pdfrwt>
<totfact> 0.69544197E+03</totfact>
</mgrwt>
</event>
<event>
 9    1  0.2054950E-002  0.2754808E+03  0.7818608E-02  0.1098183E+00
         -2   -1    0    0    0  501 -0.00000000000E+00  0.00000000000E+00  0.11810536462E+03  0.11810536462E+03  0.00000000000E+00 0. -1.
          2   -1    0    0  501    0  0.00000000000E+00 -0.00000000000E+00 -0.16063977583E+03  0.16063977583E+03  0.00000000000E+00 0. -1.
         36    2    1    2    0    0  0.14210854715E-13  0.00000000000E+00 -0.42534411215E+02  0.27874514045E+03  0.27548081092E+03 0.  0.
         25    2    3    3    0    0 -0.42884553442E+02  0.99581852421E+01  0.14701068931E+02  0.13303833469E+03  0.12467889433E+03 0.  0.
         25    2    3    3    0    0  0.42884553442E+02 -0.99581852421E+01 -0.57235480146E+02  0.14570680576E+03  0.12655561102E+03 0.  0.
          5    1    4    4  502    0 -0.82965511543E+02  0.17402595700E+02 -0.94451356254E+01  0.85424978956E+02  0.47000000000E+01 0. -1.
         -5    1    4    4    0  502  0.40080958101E+02 -0.74444104577E+01  0.24146204556E+02  0.47613355729E+02  0.47000000000E+01 0. -1.
          5    1    5    5  503    0  0.83564877000E+02  0.73765738717E+01 -0.56464061609E+02  0.10123133291E+03  0.47000000000E+01 0.  1.
         -5    1    5    5    0  503 -0.40680323558E+02 -0.17334759114E+02 -0.77141853677E+00  0.44475472846E+02  0.47000000000E+01 0.  1.
<mgrwt>
<rscale>  0 0.27548081E+03</rscale>
<asrwt>0</asrwt>
<pdfrwt beam="1">  1        2 0.24713812E-01 0.27548081E+03</pdfrwt>
<pdfrwt beam="2">  1       -2 0.18170056E-01 0.27548081E+03</pdfrwt>
<totfact> 0.53626681E+03</totfact>
</mgrwt>
</event>
<event>
 9    1  0.2054950E-002  0.2736164E+03  0.7818608E-02  0.1099228E+00
         -2   -1    0    0    0  501 -0.00000000000E+00  0.00000000000E+00  0.22935261439E+02  0.22935261439E+02  0.00000000000E+00 0. -1.
          2   -1    0    0  501    0  0.00000000000E+00 -0.00000000000E+00 -0.81605715826E+03  0.81605715826E+03  0.00000000000E+00 0. -1.
         36    2    1    2    0    0  0.71054273576E-14 -0.71054273576E-14 -0.79312189682E+03  0.83899241970E+03  0.27361640502E+03 0.  0.
         25    2    3    3    0    0  0.32363632162E+02 -0.35992816199E+02 -0.50415640009E+03  0.52133507941E+03  0.12358681876E+03 0.  0.
         25    2    3    3    0    0 -0.32363632162E+02  0.35992816199E+02 -0.28896549673E+03  0.31765734029E+03  0.12272831797E+03 0.  0.
          5    1    4    4  502    0 -0.42588056361E+02  0.50248742051E+01 -0.23423649772E+03  0.23817602476E+03  0.47000000000E+01 0. -1.
         -5    1    4    4    0  502  0.74951688523E+02 -0.41017690404E+02 -0.26991990237E+03  0.28315905465E+03  0.47000000000E+01 0. -1.
          5    1    5    5  503    0 -0.32447018021E+02 -0.40019927321E+02 -0.15686396873E+03  0.16517505335E+03  0.47000000000E+01 0. -1.
         -5    1    5    5    0  503  0.83385859332E-01  0.76012743520E+02 -0.13210152800E+03  0.15248228694E+03  0.47000000000E+01 0. -1.
<mgrwt>
<rscale>  0 0.27361641E+03</rscale>
<asrwt>0</asrwt>
<pdfrwt beam="1">  1        2 0.12554725E+00 0.27361641E+03</pdfrwt>
<pdfrwt beam="2">  1       -2 0.35285019E-02 0.27361641E+03</pdfrwt>
<totfact> 0.11440828E+04</totfact>
</mgrwt>
</event>
<event>
 9    1  0.2054950E-002  0.2750576E+03  0.7818608E-02  0.1098419E+00
         -2   -1    0    0    0  501 -0.00000000000E+00  0.00000000000E+00  0.27121326546E+03  0.27121326546E+03  0.00000000000E+00 0.  1.
          2   -1    0    0  501    0  0.00000000000E+00 -0.00000000000E+00 -0.69739126703E+02  0.69739126703E+02  0.00000000000E+00 0.  1.
         36    2    1    2    0    0 -0.35527136788E-14 -0.71054273576E-14  0.20147413875E+03  0.34095239216E+03  0.27505763966E+03 0.  0.
         25    2    3    3    0    0 -0.11733293029E+02 -0.15325772273E+02  0.16277923289E+03  0.20707052207E+03  0.12652498959E+03 0.  0.
         25    2    3    3    0    0  0.11733293029E+02  0.15325772273E+02  0.38694905860E+02  0.13388187008E+03  0.12670639264E+03 0.  0.
          5    1    4    4  502    0 -0.24661913897E+02  0.29262590841E+02  0.86454047957E+00  0.38566133460E+02  0.47000000000E+01 0. -1.
         -5    1    4    4    0  502  0.12928620868E+02 -0.44588363114E+02  0.16191469241E+03  0.16850438861E+03  0.47000000000E+01 0. -1.
          5    1    5    5  503    0  0.20728392146E+02  0.55879200239E+02 -0.18912142583E+02  0.62704947152E+02  0.47000000000E+01 0.  1.
         -5    1    5    5    0  503 -0.89950991169E+01 -0.40553427966E+02  0.57607048442E+02  0.71176922932E+02  0.47000000000E+01 0.  1.
<mgrwt>
<rscale>  0 0.27505764E+03</rscale>
<asrwt>0</asrwt>
<pdfrwt beam="1">  1        2 0.10729097E-01 0.27505764E+03</pdfrwt>
<pdfrwt beam="2">  1       -2 0.41725117E-01 0.27505764E+03</pdfrwt>
<totfact> 0.32085691E+03</totfact>
</mgrwt>
</event>
<event>
 9    1  0.2054950E-002  0.2746531E+03  0.7818608E-02  0.1098646E+00
          2   -1    0    0  501    0  0.00000000000E+00  0.00000000000E+00  0.18385025252E+04  0.18385025252E+04  0.00000000000E+00 0.  1.
         -2   -1    0    0    0  501 -0.00000000000E+00 -0.00000000000E+00 -0.10257574169E+02  0.10257574169E+02  0.00000000000E+00 0.  1.
         36    2    1    2    0    0  0.71054273576E-14  0.71054273576E-14  0.18282449511E+04  0.18487600994E+04  0.27465306125E+03 0.  0.
         25    2    3    3    0    0 -0.54818694446E+02  0.35148903385E+02  0.68539480055E+03  0.69721675547E+03  0.11002107440E+03 0.  0.
         25    2    3    3    0    0  0.54818694446E+02 -0.35148903385E+02  0.11428501505E+04  0.11515433439E+04  0.12531987777E+03 0.  0.
          5    1    4    4  502    0  0.52488236438E+01  0.10733491197E+02  0.50999955864E+03  0.51016114885E+03  0.47000000000E+01 0. -1.
         -5    1    4    4    0  502 -0.60067518090E+02  0.24415412188E+02  0.17539524191E+03  0.18705560661E+03  0.47000000000E+01 0. -1.
          5    1    5    5  503    0  0.79793500920E+01  0.46194712086E+02  0.35847619925E+03  0.36155898119E+03  0.47000000000E+01 0. -1.
         -5    1    5    5    0  503  0.46839344354E+02 -0.81343615471E+02  0.78437395126E+03  0.78998436274E+03  0.47000000000E+01 0. -1.
<mgrwt>
<rscale>  0 0.27465306E+03</rscale>
<asrwt>0</asrwt>
<pdfrwt beam="1">  1        2 0.28284628E+00 0.27465306E+03</pdfrwt>
<pdfrwt beam="2">  1       -2 0.15780898E-02 0.27465306E+03</pdfrwt>
<totfact> 0.98933424E+03</totfact>
</mgrwt>
</event>
<event>
 9    1  0.2054950E-002  0.2771687E+03  0.7818608E-02  0.1097245E+00
         -1   -1    0    0    0  501 -0.00000000000E+00  0.00000000000E+00  0.22499086249E+02  0.22499086249E+02  0.00000000000E+00 0. -1.
          1   -1    0    0  501    0  0.00000000000E+00 -0.00000000000E+00 -0.85361758211E+03  0.85361758211E+03  0.00000000000E+00 0. -1.
         36    2    1    2    0    0  0.00000000000E+00  0.00000000000E+00 -0.83111849586E+03  0.87611666836E+03  0.27716865338E+03 0.  0.
         25    2    3    3    0    0 -0.81609226591E+01  0.22850395288E+02 -0.56707951252E+03  0.58078056853E+03  0.12303720593E+03 0.  0.
         25    2    3    3    0    0  0.81609226591E+01 -0.22850395288E+02 -0.26403898334E+03  0.29533609983E+03  0.13006954260E+03 0.  0.
          5    1    4    4  502    0  0.48354207069E+02  0.37057264375E+02 -0.20164819975E+03  0.21070229388E+03  0.47000000000E+01 0. -1.
         -5    1    4    4    0  502 -0.56515129728E+02 -0.14206869087E+02 -0.36543131276E+03  0.37007827465E+03  0.47000000000E+01 0. -1.
          5    1    5    5  503    0 -0.55806448059E+02  0.13868063569E+02 -0.13110887148E+03  0.14324213421E+03  0.47000000000E+01 0. -1.
         -5    1    5    5    0  503  0.63967370718E+02 -0.36718458857E+02 -0.13293011186E+03  0.15209396562E+03  0.47000000000E+01 0. -1.
<mgrwt>
<rscale>  0 0.27716865E+03</rscale>
<asrwt>0</asrwt>
<pdfrwt beam="1">  1        1 0.13132578E+00 0.27716865E+03</pdfrwt>
<pdfrwt beam="2">  1       -1 0.34613979E-02 0.27716865E+03</pdfrwt>
<totfact> 0.63387569E+03</totfact>
</mgrwt>
</event>
<event>
 9    1  0.2054950E-002  0.2751817E+03  0.7818608E-02  0.1098350E+00
         -1   -1    0    0    0  501 -0.00000000000E+00  0.00000000000E+00  0.46059657327E+02  0.46059657327E+02  0.00000000000E+00 0.  1.
          1   -1    0    0  501    0  0.00000000000E+00 -0.00000000000E+00 -0.41101573754E+03  0.41101573754E+03  0.00000000000E+00 0.  1.
         36    2    1    2    0    0  0.00000000000E+00  0.35527136788E-14 -0.36495608021E+03  0.45707539487E+03  0.27518171471E+03 0.  0.
         25    2    3    3    0    0 -0.38643525810E+02 -0.16328639682E+02 -0.15296947828E+03  0.20109578279E+03  0.12361191693E+03 0.  0.
         25    2    3    3    0    0  0.38643525810E+02  0.16328639682E+02 -0.21198660193E+03  0.25597961208E+03  0.13721259360E+03 0.  0.
          5    1    4    4  502    0 -0.51583772376E+02 -0.27804028100E+02 -0.13290578926E+02  0.60271710108E+02  0.47000000000E+01 0. -1.
         -5    1    4    4    0  502  0.12940246566E+02  0.11475388418E+02 -0.13967889936E+03  0.14082407268E+03  0.47000000000E+01 0. -1.
          5    1    5    5  503    0 -0.43180802775E+02  0.38984381550E+02 -0.81981127343E+02  0.10063478014E+03  0.47000000000E+01 0.  1.
         -5    1    5    5    0  503  0.81824328585E+02 -0.22655741868E+02 -0.13000547459E+03  0.15534483194E+03  0.47000000000E+01 0.  1.
<mgrwt>
<rscale>  0 0.27518171E+03</rscale>
<asrwt>0</asrwt>
<pdfrwt beam="1">  1        1 0.63233189E-01 0.27518171E+03</pdfrwt>
<pdfrwt beam="2">  1       -1 0.70861013E-02 0.27518171E+03</pdfrwt>
<totfact> 0.60313764E+03</totfact>
</mgrwt>
</event>
<event>
 9    1  0.2054950E-002  0.2761122E+03  0.7818608E-02  0.1097832E+00
          2   -1    0    0  501    0  0.00000000000E+00  0.00000000000E+00  0.12866088357E+03  0.12866088357E+03  0.00000000000E+00 0.  1.
         -2   -1    0    0    0  501 -0.00000000000E+00 -0.00000000000E+00 -0.14813736119E+03  0.14813736119E+03  0.00000000000E+00 0.  1.
         36    2    1    2    0    0 -0.71054273576E-14 -0.35527136788E-14 -0.19476477616E+02  0.27679824476E+03  0.27611217851E+03 0.  0.
         25    2    3    3    0    0  0.50948126401E+02  0.26561721313E+02 -0.12881864580E+02  0.13780027417E+03  0.12458626129E+03 0.  0.
         25    2    3    3    0    0 -0.50948126401E+02 -0.26561721313E+02 -0.65946130362E+01  0.13899797059E+03  0.12639505641E+03 0.  0.
          5    1    4    4  502    0  0.30864689031E+02  0.74044119093E+02 -0.25885229043E+02  0.84423312443E+02  0.47000000000E+01 0.  1.
         -5    1    4    4    0  502  0.20083437370E+02 -0.47482397779E+02  0.13003364463E+02  0.53376961723E+02  0.47000000000E+01 0.  1.
          5    1    5    5  503    0  0.29601092399E+02  0.14968728786E+02 -0.30336977035E+02  0.45196345962E+02  0.47000000000E+01 0.  1.
         -5    1    5    5    0  503 -0.80549218800E+02 -0.41530450099E+02  0.23742363999E+02  0.93801624628E+02  0.47000000000E+01 0.  1.
<mgrwt>
<rscale>  0 0.27611218E+03</rscale>
<asrwt>0</asrwt>
<pdfrwt beam="1">  1        2 0.19793982E-01 0.27611218E+03</pdfrwt>
<pdfrwt beam="2">  1       -2 0.22790363E-01 0.27611218E+03</pdfrwt>
<totfact> 0.46757817E+03</totfact>
</mgrwt>
</event>
<event>
 9    1  0.2054950E-002  0.2748740E+03  0.7818608E-02  0.1098522E+00
         -2   -1    0    0    0  501 -0.00000000000E+00  0.00000000000E+00  0.71471526223E+01  0.71471526223E+01  0.00000000000E+00 0. -1.
          2   -1    0    0  501    0  0.00000000000E+00 -0.00000000000E+00 -0.26428614335E+04  0.26428614335E+04  0.00000000000E+00 0. -1.
         36    2    1    2    0    0  0.61062266354E-15  0.71054273576E-14 -0.26357142809E+04  0.26500085861E+04  0.27487403679E+03 0.  0.
         25    2    3    3    0    0  0.17832286787E+00  0.23096483073E+02 -0.17283556924E+04  0.17334937569E+04  0.13135344102E+03 0.  0.
         25    2    3    3    0    0 -0.17832286787E+00 -0.23096483073E+02 -0.90735858850E+03  0.91651482923E+03  0.12714694157E+03 0.  0.
          5    1    4    4  502    0 -0.28431890389E+00 -0.40330958527E+02 -0.21491622604E+03  0.21871840633E+03  0.47000000000E+01 0. -1.
         -5    1    4    4    0  502  0.46264177176E+00  0.63427441600E+02 -0.15134394663E+04  0.15147753506E+04  0.47000000000E+01 0. -1.
          5    1    5    5  503    0 -0.59178632290E+01 -0.65562658098E+02 -0.76320919461E+03  0.76605733987E+03  0.47000000000E+01 0. -1.
         -5    1    5    5    0  503  0.57395403611E+01  0.42466175025E+02 -0.14414939389E+03  0.15045748936E+03  0.47000000000E+01 0. -1.
<mgrwt>
<rscale>  0 0.27487404E+03</rscale>
<asrwt>0</asrwt>
<pdfrwt beam="1">  1        2 0.40659446E+00 0.27487404E+03</pdfrwt>
<pdfrwt beam="2">  1       -2 0.10995609E-02 0.27487404E+03</pdfrwt>
<totfact> 0.62082803E+03</totfact>
</mgrwt>
</event>
<event>
 9    1  0.2054950E-002  0.2754223E+03  0.7818608E-02  0.1098216E+00
         -2   -1    0    0    0  501 -0.00000000000E+00  0.00000000000E+00  0.84979286967E+01  0.84979286967E+01  0.00000000000E+00 0.  1.
          2   -1    0    0  501    0  0.00000000000E+00 -0.00000000000E+00 -0.22316449940E+04  0.22316449940E+04  0.00000000000E+00 0.  1.
         36    2    1    2    0    0  0.00000000000E+00  0.14210854715E-13 -0.22231470653E+04  0.22401429227E+04  0.27542229420E+03 0.  0.
         25    2    3    3    0    0  0.97220998105E+01  0.52591350606E+02 -0.93417445809E+03  0.94392077249E+03  0.12427444309E+03 0.  0.
         25    2    3    3    0    0 -0.97220998105E+01 -0.52591350606E+02 -0.12889726072E+04  0.12962221502E+04  0.12602028074E+03 0.  0.
          5    1    4    4  502    0 -0.86473289445E+01 -0.30079912972E+02 -0.52991647246E+03  0.53086074939E+03  0.47000000000E+01 0. -1.
         -5    1    4    4    0  502  0.18369428755E+02  0.82671263578E+02 -0.40425798563E+03  0.41306002310E+03  0.47000000000E+01 0. -1.
          5    1    5    5  503    0 -0.19250522409E+02 -0.92491567690E+02 -0.96622535576E+03  0.97084437518E+03  0.47000000000E+01 0.  1.
         -5    1    5    5    0  503  0.95284225988E+01  0.39900217084E+02 -0.32274725146E+03  0.32537777503E+03  0.47000000000E+01 0.  1.
<mgrwt>
<rscale>  0 0.27542229E+03</rscale>
<asrwt>0</asrwt>
<pdfrwt beam="1">  1        2 0.34333015E+00 0.27542229E+03</pdfrwt>
<pdfrwt beam="2">  1       -2 0.13073731E-02 0.27542229E+03</pdfrwt>
<totfact> 0.80798623E+03</totfact>
</mgrwt>
</event>
<event>
 9    1  0.2054950E-002  0.2751259E+03  0.7818608E-02  0.1098381E+00
          2   -1    0    0  501    0  0.00000000000E+00  0.00000000000E+00  0.22721978259E+03  0.22721978259E+03  0.00000000000E+00 0. -1.
         -2   -1    0    0    0  501 -0.00000000000E+00 -0.00000000000E+00 -0.83283094097E+02  0.83283094097E+02  0.00000000000E+00 0. -1.
         36    2    1    2    0    0  0.00000000000E+00  0.88817841970E-15  0.14393668850E+03  0.31050287669E+03  0.27512590961E+03 0.  0.
         25    2    3    3    0    0  0.50625625447E+02  0.73278109007E+01  0.21829325135E+02  0.13539470344E+03  0.12344454431E+03 0.  0.
         25    2    3    3    0    0 -0.50625625447E+02 -0.73278109007E+01  0.12210736336E+03  0.17510817325E+03  0.11461244866E+03 0.  0.
          5    1    4    4  502    0 -0.18417602202E+02 -0.42171783375E+02 -0.41228545165E+01  0.46440879764E+02  0.47000000000E+01 0. -1.
         -5    1    4    4    0  502  0.69043227649E+02  0.49499594276E+02  0.25952179652E+02  0.88953823675E+02  0.47000000000E+01 0. -1.
          5    1    5    5  503    0  0.36439455689E+02 -0.97338617081E+01  0.31829347466E+02  0.49575995752E+02  0.47000000000E+01 0.  1.
         -5    1    5    5    0  503 -0.87065081136E+02  0.24060508074E+01  0.90278015895E+02  0.12553217750E+03  0.47000000000E+01 0.  1.
<mgrwt>
<rscale>  0 0.27512591E+03</rscale>
<asrwt>0</asrwt>
<pdfrwt beam="1">  1        2 0.34956889E-01 0.27512591E+03</pdfrwt>
<pdfrwt beam="2">  1       -2 0.12812784E-01 0.27512591E+03</pdfrwt>
<totfact> 0.65289557E+03</totfact>
</mgrwt>
</event>
<event>
 9    1  0.2054950E-002  0.2747012E+03  0.7818608E-02  0.1098619E+00
         -1   -1    0    0    0  501 -0.00000000000E+00  0.00000000000E+00  0.17049201581E+03  0.17049201581E+03  0.00000000000E+00 0.  1.
          1   -1    0    0  501    0  0.00000000000E+00 -0.00000000000E+00 -0.11065146169E+03  0.11065146169E+03  0.00000000000E+00 0.  1.
         36    2    1    2    0    0  0.71054273576E-14 -0.35527136788E-14  0.59840554112E+02  0.28114347750E+03  0.27470122501E+03 0.  0.
         25    2    3    3    0    0 -0.23435194566E+02 -0.14243274593E+02 -0.57042372532E+01  0.12773847422E+03  0.12462945181E+03 0.  0.
         25    2    3    3    0    0  0.23435194566E+02  0.14243274593E+02  0.65544791366E+02  0.15340500328E+03  0.13595917086E+03 0.  0.
          5    1    4    4  502    0 -0.31821984320E+02 -0.42568049807E+02 -0.50769338607E+02  0.73649801718E+02  0.47000000000E+01 0.  1.
         -5    1    4    4    0  502  0.83867897546E+01  0.28324775215E+02  0.45065101354E+02  0.54088672505E+02  0.47000000000E+01 0.  1.
          5    1    5    5  503    0  0.37450529738E+01 -0.32931159418E+02  0.90378944197E+02  0.96379096471E+02  0.47000000000E+01 0. -1.
         -5    1    5    5    0  503  0.19690141592E+02  0.47174434011E+02 -0.24834152831E+02  0.57025906806E+02  0.47000000000E+01 0. -1.
<mgrwt>
<rscale>  0 0.27470123E+03</rscale>
<asrwt>0</asrwt>
<pdfrwt beam="1">  1        1 0.17023302E-01 0.27470123E+03</pdfrwt>
<pdfrwt beam="2">  1       -1 0.26229541E-01 0.27470123E+03</pdfrwt>
<totfact> 0.40257124E+03</totfact>
</mgrwt>
</event>
<event>
 9    1  0.2054950E-002  0.2748459E+03  0.7818608E-02  0.1098538E+00
          4   -1    0    0  501    0  0.00000000000E+00  0.00000000000E+00  0.70897806630E+03  0.70897806630E+03  0.00000000000E+00 0. -1.
         -4   -1    0    0    0  501 -0.00000000000E+00 -0.00000000000E+00 -0.26637032661E+02  0.26637032661E+02  0.00000000000E+00 0. -1.
         36    2    1    2    0    0  0.00000000000E+00 -0.71054273576E-14  0.68234103364E+03  0.73561509897E+03  0.27484593436E+03 0.  0.
         25    2    3    3    0    0 -0.98336648053E+01  0.47982481024E+02  0.37839899741E+03  0.39924120940E+03  0.11751052121E+03 0.  0.
         25    2    3    3    0    0  0.98336648053E+01 -0.47982481024E+02  0.30394203623E+03  0.33637388956E+03  0.13552716607E+03 0.  0.
          5    1    4    4  502    0 -0.44661431737E+02 -0.17715333980E+00  0.58057932318E+02  0.73399512077E+02  0.47000000000E+01 0. -1.
         -5    1    4    4    0  502  0.34827766931E+02  0.48159634363E+02  0.32034106509E+03  0.32584169733E+03  0.47000000000E+01 0. -1.
          5    1    5    5  503    0 -0.61894227662E+02 -0.23025381910E+02  0.16818668867E+03  0.18074821126E+03  0.47000000000E+01 0. -1.
         -5    1    5    5    0  503  0.71727892467E+02 -0.24957099113E+02  0.13575534757E+03  0.15562567830E+03  0.47000000000E+01 0. -1.
<mgrwt>
<rscale>  0 0.27484593E+03</rscale>
<asrwt>0</asrwt>
<pdfrwt beam="1">  1        4 0.10907353E+00 0.27484593E+03</pdfrwt>
<pdfrwt beam="2">  1       -4 0.40980056E-02 0.27484593E+03</pdfrwt>
<totfact> 0.42834256E+02</totfact>
</mgrwt>
</event>
<event>
 9    1  0.2054950E-002  0.2748088E+03  0.7818608E-02  0.1098559E+00
         -2   -1    0    0    0  501 -0.00000000000E+00  0.00000000000E+00  0.97372591278E+01  0.97372591278E+01  0.00000000000E+00 0.  1.
          2   -1    0    0  501    0  0.00000000000E+00 -0.00000000000E+00 -0.19389411532E+04  0.19389411532E+04  0.00000000000E+00 0.  1.
         36    2    1    2    0    0  0.00000000000E+00 -0.26645352591E-14 -0.19292038941E+04  0.19486784124E+04  0.27480882404E+03 0.  0.
         25    2    3    3    0    0 -0.32685678832E+02 -0.64641882416E+00 -0.62297659775E+03  0.63594293823E+03  0.12351035537E+03 0.  0.
         25    2    3    3    0    0  0.32685678832E+02  0.64641882416E+00 -0.13062272964E+04  0.13127354741E+04  0.12639582207E+03 0.  0.
          5    1    4    4  502    0 -0.79274439314E+02  0.40423995270E+01 -0.43172281043E+03  0.43898457008E+03  0.47000000000E+01 0. -1.
         -5    1    4    4    0  502  0.46588760481E+02 -0.46888183512E+01 -0.19125378732E+03  0.19695836815E+03  0.47000000000E+01 0. -1.
          5    1    5    5  503    0  0.37214689427E+02 -0.55096135723E+02 -0.92510466025E+03  0.92750268986E+03  0.47000000000E+01 0.  1.
         -5    1    5    5    0  503 -0.45290105951E+01  0.55742554547E+02 -0.38112263611E+03  0.38523278428E+03  0.47000000000E+01 0.  1.
<mgrwt>
<rscale>  0 0.27480882E+03</rscale>
<asrwt>0</asrwt>
<pdfrwt beam="1">  1        2 0.29829861E+00 0.27480882E+03</pdfrwt>
<pdfrwt beam="2">  1       -2 0.14980400E-02 0.27480882E+03</pdfrwt>
<totfact> 0.94560409E+03</totfact>
</mgrwt>
</event>
<event>
 9    1  0.2054950E-002  0.2753696E+03  0.7818608E-02  0.1098245E+00
         -2   -1    0    0    0  501 -0.00000000000E+00  0.00000000000E+00  0.15009269266E+02  0.15009269266E+02  0.00000000000E+00 0. -1.
          2   -1    0    0  501    0  0.00000000000E+00 -0.00000000000E+00 -0.12630268375E+04  0.12630268375E+04  0.00000000000E+00 0. -1.
         36    2    1    2    0    0 -0.35527136788E-14  0.71054273576E-14 -0.12480175682E+04  0.12780361067E+04  0.27536964171E+03 0.  0.
         25    2    3    3    0    0 -0.49214319950E+01 -0.40887033542E+02 -0.73207531264E+03  0.74544296078E+03  0.13436879992E+03 0.  0.
         25    2    3    3    0    0  0.49214319950E+01  0.40887033542E+02 -0.51594225555E+03  0.53259314594E+03  0.12555109733E+03 0.  0.
          5    1    4    4  502    0 -0.51925661888E+02 -0.59909619356E+02 -0.29840641820E+03  0.30879429605E+03  0.47000000000E+01 0. -1.
         -5    1    4    4    0  502  0.47004229893E+02  0.19022585815E+02 -0.43366889444E+03  0.43664866472E+03  0.47000000000E+01 0. -1.
          5    1    5    5  503    0 -0.24155209243E+02  0.79535362196E+02 -0.30863379080E+03  0.31966584866E+03  0.47000000000E+01 0.  1.
         -5    1    5    5    0  503  0.29076641238E+02 -0.38648328655E+02 -0.20730846474E+03  0.21292729728E+03  0.47000000000E+01 0.  1.
<mgrwt>
<rscale>  0 0.27536964E+03</rscale>
<asrwt>0</asrwt>
<pdfrwt beam="1">  1        2 0.19431190E+00 0.27536964E+03</pdfrwt>
<pdfrwt beam="2">  1       -2 0.23091175E-02 0.27536964E+03</pdfrwt>
<totfact> 0.11494155E+04</totfact>
</mgrwt>
</event>
<event>
 9    1  0.2054950E-002  0.2748192E+03  0.7818608E-02  0.1098553E+00
         -1   -1    0    0    0  501 -0.00000000000E+00  0.00000000000E+00  0.69066553822E+02  0.69066553822E+02  0.00000000000E+00 0.  1.
          1   -1    0    0  501    0  0.00000000000E+00 -0.00000000000E+00 -0.27337969703E+03  0.27337969703E+03  0.00000000000E+00 0.  1.
         36    2    1    2    0    0  0.35527136788E-14  0.71054273576E-14 -0.20431314320E+03  0.34244625085E+03  0.27481916642E+03 0.  0.
         25    2    3    3    0    0 -0.91120606817E+00  0.37709076324E+02 -0.15833618202E+03  0.20447567487E+03  0.12376247551E+03 0.  0.
         25    2    3    3    0    0  0.91120606817E+00 -0.37709076324E+02 -0.45976961190E+02  0.13797057598E+03  0.12449575954E+03 0.  0.
          5    1    4    4  502    0 -0.25187977457E+02 -0.39675989098E+02 -0.46808050635E+02  0.66495878997E+02  0.47000000000E+01 0. -1.
         -5    1    4    4    0  502  0.24276771389E+02  0.77385065422E+02 -0.11152813138E+03  0.13797979587E+03  0.47000000000E+01 0. -1.
          5    1    5    5  503    0  0.37097552917E+02 -0.50870561257E+02  0.15746276772E+02  0.65069790742E+02  0.47000000000E+01 0.  1.
         -5    1    5    5    0  503 -0.36186346849E+02  0.13161484933E+02 -0.61723237962E+02  0.72900785239E+02  0.47000000000E+01 0.  1.
<mgrwt>
<rscale>  0 0.27481917E+03</rscale>
<asrwt>0</asrwt>
<pdfrwt beam="1">  1        1 0.42058415E-01 0.27481917E+03</pdfrwt>
<pdfrwt beam="2">  1       -1 0.10625624E-01 0.27481917E+03</pdfrwt>
<totfact> 0.54295720E+03</totfact>
</mgrwt>
</event>
<event>
 9    1  0.2054950E-002  0.2755076E+03  0.7818608E-02  0.1098168E+00
          2   -1    0    0  501    0  0.00000000000E+00  0.00000000000E+00  0.16017390364E+04  0.16017390364E+04  0.00000000000E+00 0. -1.
         -2   -1    0    0    0  501 -0.00000000000E+00 -0.00000000000E+00 -0.11847190421E+02  0.11847190421E+02  0.00000000000E+00 0. -1.
         36    2    1    2    0    0  0.00000000000E+00 -0.71054273576E-14  0.15898918460E+04  0.16135862269E+04  0.27550758515E+03 0.  0.
         25    2    3    3    0    0  0.33106979342E+02  0.35285367860E+02  0.10576607797E+04  0.10648919279E+04  0.11404983107E+03 0.  0.
         25    2    3    3    0    0 -0.33106979342E+02 -0.35285367860E+02  0.53223106635E+03  0.54869429897E+03  0.12431571288E+03 0.  0.
          5    1    4    4  502    0  0.26090001681E+02  0.72215417923E+02  0.87314803642E+03  0.87653028372E+03  0.47000000000E+01 0.  1.
         -5    1    4    4    0  502  0.70169776611E+01 -0.36930050062E+02  0.18451274324E+03  0.18836164416E+03  0.47000000000E+01 0.  1.
          5    1    5    5  503    0  0.20717435546E+02 -0.20347211532E+02  0.43845827368E+03  0.43944393148E+03  0.47000000000E+01 0. -1.
         -5    1    5    5    0  503 -0.53824414887E+02 -0.14938156329E+02  0.93772792665E+02  0.10925036749E+03  0.47000000000E+01 0. -1.
<mgrwt>
<rscale>  0 0.27550759E+03</rscale>
<asrwt>0</asrwt>
<pdfrwt beam="1">  1        2 0.24642122E+00 0.27550759E+03</pdfrwt>
<pdfrwt beam="2">  1       -2 0.18226460E-02 0.27550759E+03</pdfrwt>
<totfact> 0.10673410E+04</totfact>
</mgrwt>
</event>
<event>
 9    1  0.2054950E-002  0.2751104E+03  0.7818608E-02  0.1098390E+00
          2   -1    0    0  501    0  0.00000000000E+00  0.00000000000E+00  0.16701355699E+04  0.16701355699E+04  0.00000000000E+00 0.  1.
         -2   -1    0    0    0  501 -0.00000000000E+00 -0.00000000000E+00 -0.11329280190E+02  0.11329280190E+02  0.00000000000E+00 0.  1.
         36    2    1    2    0    0  0.00000000000E+00 -0.71054273576E-14  0.16588062897E+04  0.16814648501E+04  0.27511040566E+03 0.  0.
         25    2    3    3    0    0  0.30521536177E+02 -0.31767537802E+02  0.10455842127E+04  0.10543519360E+04  0.12833907623E+03 0.  0.
         25    2    3    3    0    0 -0.30521536177E+02  0.31767537802E+02  0.61322207704E+03  0.62711291411E+03  0.12364687884E+03 0.  0.
          5    1    4    4  502    0  0.56294308865E+01  0.47462344472E+02  0.26201801128E+03  0.26638298157E+03  0.47000000000E+01 0.  1.
         -5    1    4    4    0  502  0.24892105291E+02 -0.79229882274E+02  0.78356620138E+03  0.78796895440E+03  0.47000000000E+01 0.  1.
          5    1    5    5  503    0 -0.90366998894E+01 -0.28010967546E+02  0.46282437195E+03  0.46378310180E+03  0.47000000000E+01 0. -1.
         -5    1    5    5    0  503 -0.21484836288E+02  0.59778505348E+02  0.15039770509E+03  0.16332981231E+03  0.47000000000E+01 0. -1.
<mgrwt>
<rscale>  0 0.27511041E+03</rscale>
<asrwt>0</asrwt>
<pdfrwt beam="1">  1        2 0.25694374E+00 0.27511041E+03</pdfrwt>
<pdfrwt beam="2">  1       -2 0.17429675E-02 0.27511041E+03</pdfrwt>
<totfact> 0.10486437E+04</totfact>
</mgrwt>
</event>
<event>
 9    1  0.2054950E-002  0.2758426E+03  0.7818608E-02  0.1097982E+00
         -1   -1    0    0    0  501 -0.00000000000E+00  0.00000000000E+00  0.64427749673E+01  0.64427749673E+01  0.00000000000E+00 0.  1.
          1   -1    0    0  501    0  0.00000000000E+00 -0.00000000000E+00 -0.29524976791E+04  0.29524976791E+04  0.00000000000E+00 0.  1.
         36    2    1    2    0    0  0.00000000000E+00  0.71054273576E-14 -0.29460549042E+04  0.29589404541E+04  0.27584255029E+03 0.  0.
         25    2    3    3    0    0  0.35523174837E+02  0.47232039717E+02 -0.13487649106E+04  0.13557026524E+04  0.12357239241E+03 0.  0.
         25    2    3    3    0    0 -0.35523174837E+02 -0.47232039717E+02 -0.15972899936E+04  0.16032378017E+04  0.12467302712E+03 0.  0.
          5    1    4    4  502    0  0.63874439227E+02  0.58289726416E+02 -0.12288378943E+04  0.12318856670E+04  0.47000000000E+01 0. -1.
         -5    1    4    4    0  502 -0.28351264391E+02 -0.11057686699E+02 -0.11992701627E+03  0.12381698534E+03  0.47000000000E+01 0. -1.
          5    1    5    5  503    0 -0.25467608374E+02 -0.15662341491E+02 -0.15008810833E+04  0.15011862057E+04  0.47000000000E+01 0.  1.
         -5    1    5    5    0  503 -0.10055566463E+02 -0.31569698226E+02 -0.96408910323E+02  0.10205159603E+03  0.47000000000E+01 0.  1.
<mgrwt>
<rscale>  0 0.27584255E+03</rscale>
<asrwt>0</asrwt>
<pdfrwt beam="1">  1        1 0.45423015E+00 0.27584255E+03</pdfrwt>
<pdfrwt beam="2">  1       -1 0.99119672E-03 0.27584255E+03</pdfrwt>
<totfact> 0.14882594E+03</totfact>
</mgrwt>
</event>
<event>
 9    1  0.2054950E-002  0.2742778E+03  0.7818608E-02  0.1098856E+00
         -1   -1    0    0    0  501 -0.00000000000E+00  0.00000000000E+00  0.11309975125E+03  0.11309975125E+03  0.00000000000E+00 0. -1.
          1   -1    0    0  501    0  0.00000000000E+00 -0.00000000000E+00 -0.16628750454E+03  0.16628750454E+03  0.00000000000E+00 0. -1.
         36    2    1    2    0    0 -0.71054273576E-14 -0.71054273576E-14 -0.53187753286E+02  0.27938725578E+03  0.27427778181E+03 0.  0.
         25    2    3    3    0    0  0.57251254188E+02 -0.15973604812E+01  0.84591476460E+00  0.13933089164E+03  0.12701229912E+03 0.  0.
         25    2    3    3    0    0 -0.57251254188E+02  0.15973604812E+01 -0.54033668050E+02  0.14005636414E+03  0.11582698385E+03 0.  0.
          5    1    4    4  502    0 -0.24548045574E+01  0.55556405145E+02 -0.66641097413E+01  0.56205342955E+02  0.47000000000E+01 0.  1.
         -5    1    4    4    0  502  0.59706058746E+02 -0.57153765626E+02  0.75100245059E+01  0.83125548686E+02  0.47000000000E+01 0.  1.
          5    1    5    5  503    0  0.21539532442E+02  0.35784455683E+02 -0.26730808634E+02  0.49810690184E+02  0.47000000000E+01 0.  1.
         -5    1    5    5    0  503 -0.78790786631E+02 -0.34187095202E+02 -0.27302859416E+02  0.90245673960E+02  0.47000000000E+01 0.  1.
<mgrwt>
<rscale>  0 0.27427778E+03</rscale>
<asrwt>0</asrwt>
<pdfrwt beam="1">  1        1 0.25582693E-01 0.27427778E+03</pdfrwt>
<pdfrwt beam="2">  1       -1 0.17399962E-01 0.27427778E+03</pdfrwt>
<totfact> 0.46681637E+03</totfact>
</mgrwt>
</event>
<event>
 9    1  0.2054950E-002  0.2682586E+03  0.7818608E-02  0.1102280E+00
         -1   -1    0    0    0  501 -0.00000000000E+00  0.00000000000E+00  0.15688944289E+02  0.15688944289E+02  0.00000000000E+00 0.  1.
          1   -1    0    0  501    0  0.00000000000E+00 -0.00000000000E+00 -0.11467097409E+04  0.11467097409E+04  0.00000000000E+00 0.  1.
         36    2    1    2    0    0 -0.44408920985E-15  0.00000000000E+00 -0.11310207966E+04  0.11623986852E+04  0.26825857108E+03 0.  0.
         25    2    3    3    0    0  0.23839218131E+01 -0.30437770180E+02 -0.70585586607E+03  0.71728343566E+03  0.12381794084E+03 0.  0.
         25    2    3    3    0    0 -0.23839218131E+01  0.30437770180E+02 -0.42516493050E+03  0.44511524949E+03  0.12818044414E+03 0.  0.
          5    1    4    4  502    0  0.42236449302E+01 -0.18043232642E+02 -0.10524337667E+02  0.21823132314E+02  0.47000000000E+01 0. -1.
         -5    1    4    4    0  502 -0.18397231171E+01 -0.12394537538E+02 -0.69533152840E+03  0.69546030335E+03  0.47000000000E+01 0. -1.
          5    1    5    5  503    0 -0.22922181078E+02  0.72024323364E+02 -0.33677499417E+03  0.34518461182E+03  0.47000000000E+01 0. -1.
         -5    1    5    5    0  503  0.20538259265E+02 -0.41586553183E+02 -0.88389936336E+02  0.99930637668E+02  0.47000000000E+01 0. -1.
<mgrwt>
<rscale>  0 0.26825857E+03</rscale>
<asrwt>0</asrwt>
<pdfrwt beam="1">  1        1 0.17641691E+00 0.26825857E+03</pdfrwt>
<pdfrwt beam="2">  1       -1 0.24136833E-02 0.26825857E+03</pdfrwt>
<totfact> 0.64889171E+03</totfact>
</mgrwt>
</event>
<event>
 9    1  0.2054950E-002  0.2742908E+03  0.7818608E-02  0.1098849E+00
          2   -1    0    0  501    0  0.00000000000E+00  0.00000000000E+00  0.79680723707E+03  0.79680723707E+03  0.00000000000E+00 0.  1.
         -2   -1    0    0    0  501 -0.00000000000E+00 -0.00000000000E+00 -0.23605277065E+02  0.23605277065E+02  0.00000000000E+00 0.  1.
         36    2    1    2    0    0 -0.14210854715E-13  0.00000000000E+00  0.77320196000E+03  0.82041251413E+03  0.27429076250E+03 0.  0.
         25    2    3    3    0    0 -0.35494275764E+02  0.33798037119E+02  0.36368208196E+03  0.38890771274E+03  0.12877267322E+03 0.  0.
         25    2    3    3    0    0  0.35494275764E+02 -0.33798037119E+02  0.40951987804E+03  0.43150480139E+03  0.12683734538E+03 0.  0.
          5    1    4    4  502    0  0.26136355780E+02 -0.27561180403E+02  0.19865622333E+03  0.20230944818E+03  0.47000000000E+01 0.  1.
         -5    1    4    4    0  502 -0.61630631544E+02  0.61359217522E+02  0.16502585863E+03  0.18659826456E+03  0.47000000000E+01 0.  1.
          5    1    5    5  503    0  0.82875696300E+02 -0.27948454664E+02  0.24806245762E+03  0.26307141623E+03  0.47000000000E+01 0. -1.
         -5    1    5    5    0  503 -0.47381420536E+02 -0.58495824551E+01  0.16145742042E+03  0.16843338516E+03  0.47000000000E+01 0. -1.
<mgrwt>
<rscale>  0 0.27429076E+03</rscale>
<asrwt>0</asrwt>
<pdfrwt beam="1">  1        2 0.12258571E+00 0.27429076E+03</pdfrwt>
<pdfrwt beam="2">  1       -2 0.36315817E-02 0.27429076E+03</pdfrwt>
<totfact> 0.11298096E+04</totfact>
</mgrwt>
</event>
<event>
 9    1  0.2054950E-002  0.2750405E+03  0.7818608E-02  0.1098429E+00
         -1   -1    0    0    0  501 -0.00000000000E+00  0.00000000000E+00  0.96658151724E+02  0.96658151724E+02  0.00000000000E+00 0.  1.
          1   -1    0    0  501    0  0.00000000000E+00 -0.00000000000E+00 -0.19565676890E+03  0.19565676890E+03  0.00000000000E+00 0.  1.
         36    2    1    2    0    0  0.00000000000E+00  0.35527136788E-14 -0.98998617179E+02  0.29231492063E+03  0.27504051814E+03 0.  0.
         25    2    3    3    0    0 -0.36412810170E+02  0.18676507457E+02 -0.12596287013E+02  0.13273348624E+03  0.12563760284E+03 0.  0.
         25    2    3    3    0    0  0.36412810170E+02 -0.18676507457E+02 -0.86402330167E+02  0.15958143439E+03  0.12777388962E+03 0.  0.
          5    1    4    4  502    0  0.21652574185E+02  0.45445749659E+02  0.27063229583E+02  0.57346826646E+02  0.47000000000E+01 0. -1.
         -5    1    4    4    0  502 -0.58065384355E+02 -0.26769242202E+02 -0.39659516595E+02  0.75386659595E+02  0.47000000000E+01 0. -1.
          5    1    5    5  503    0  0.14678779411E+02 -0.68306133894E+02 -0.77543833000E+02  0.10448124487E+03  0.47000000000E+01 0. -1.
         -5    1    5    5    0  503  0.21734030759E+02  0.49629626437E+02 -0.88584971672E+01  0.55100189522E+02  0.47000000000E+01 0. -1.
<mgrwt>
<rscale>  0 0.27504052E+03</rscale>
<asrwt>0</asrwt>
<pdfrwt beam="1">  1        1 0.30101041E-01 0.27504052E+03</pdfrwt>
<pdfrwt beam="2">  1       -1 0.14870485E-01 0.27504052E+03</pdfrwt>
<totfact> 0.48818841E+03</totfact>
</mgrwt>
</event>
<event>
 9    1  0.2054950E-002  0.2732624E+03  0.7818608E-02  0.1099427E+00
         -2   -1    0    0    0  501 -0.00000000000E+00  0.00000000000E+00  0.49359917414E+02  0.49359917414E+02  0.00000000000E+00 0. -1.
          2   -1    0    0  501    0  0.00000000000E+00 -0.00000000000E+00 -0.37820343390E+03  0.37820343390E+03  0.00000000000E+00 0. -1.
         36    2    1    2    0    0  0.71054273576E-14 -0.62172489379E-14 -0.32884351648E+03  0.42756335131E+03  0.27326243988E+03 0.  0.
         25    2    3    3    0    0  0.35353524265E+02 -0.31000308544E+01 -0.90616842433E+02  0.15701962882E+03  0.12322446929E+03 0.  0.
         25    2    3    3    0    0 -0.35353524265E+02  0.31000308544E+01 -0.23822667405E+03  0.27054372249E+03  0.12321718907E+03 0.  0.
          5    1    4    4  502    0 -0.44352340140E+02 -0.32434880485E+01 -0.51188490520E+02  0.67970595497E+02  0.47000000000E+01 0. -1.
         -5    1    4    4    0  502  0.79705864405E+02  0.14345719419E+00 -0.39428351913E+02  0.89049033319E+02  0.47000000000E+01 0. -1.
          5    1    5    5  503    0 -0.36286279024E+02 -0.32781982656E+02 -0.26644703993E+02  0.55887231843E+02  0.47000000000E+01 0.  1.
         -5    1    5    5    0  503  0.93275475838E+00  0.35882013510E+02 -0.21158197006E+03  0.21465649065E+03  0.47000000000E+01 0.  1.
<mgrwt>
<rscale>  0 0.27326244E+03</rscale>
<asrwt>0</asrwt>
<pdfrwt beam="1">  1        2 0.58185145E-01 0.27326244E+03</pdfrwt>
<pdfrwt beam="2">  1       -2 0.75938333E-02 0.27326244E+03</pdfrwt>
<totfact> 0.86484549E+03</totfact>
</mgrwt>
</event>
<event>
 9    1  0.2054950E-002  0.2748305E+03  0.7818608E-02  0.1098546E+00
          2   -1    0    0  501    0  0.00000000000E+00  0.00000000000E+00  0.59422169855E+03  0.59422169855E+03  0.00000000000E+00 0. -1.
         -2   -1    0    0    0  501 -0.00000000000E+00 -0.00000000000E+00 -0.31777611554E+02  0.31777611554E+02  0.00000000000E+00 0. -1.
         36    2    1    2    0    0  0.00000000000E+00  0.71054273576E-14  0.56244408700E+03  0.62599931010E+03  0.27483046638E+03 0.  0.
         25    2    3    3    0    0 -0.36824616329E+01  0.61494279978E+02  0.25360977330E+03  0.28844804087E+03  0.12283830091E+03 0.  0.
         25    2    3    3    0    0  0.36824616329E+01 -0.61494279978E+02  0.30883431369E+03  0.33755126924E+03  0.12152003562E+03 0.  0.
          5    1    4    4  502    0  0.35669880607E+02  0.43014949456E+02  0.23381875742E+03  0.24044942832E+03  0.47000000000E+01 0.  1.
         -5    1    4    4    0  502 -0.39352342240E+02  0.18479330523E+02  0.19791015883E+02  0.47998612542E+02  0.47000000000E+01 0.  1.
          5    1    5    5  503    0  0.33108737848E+02  0.22047508912E+01  0.17417509965E+02  0.37769155428E+02  0.47000000000E+01 0. -1.
         -5    1    5    5    0  503 -0.29426276215E+02 -0.63699030869E+02  0.29141680373E+03  0.29978211381E+03  0.47000000000E+01 0. -1.
<mgrwt>
<rscale>  0 0.27483047E+03</rscale>
<asrwt>0</asrwt>
<pdfrwt beam="1">  1        2 0.91418715E-01 0.27483047E+03</pdfrwt>
<pdfrwt beam="2">  1       -2 0.48888638E-02 0.27483047E+03</pdfrwt>
<totfact> 0.10291100E+04</totfact>
</mgrwt>
</event>
<event>
 9    1  0.2054950E-002  0.2742278E+03  0.7818608E-02  0.1098884E+00
          1   -1    0    0  501    0  0.00000000000E+00  0.00000000000E+00  0.82523204547E+03  0.82523204547E+03  0.00000000000E+00 0. -1.
         -1   -1    0    0    0  501 -0.00000000000E+00 -0.00000000000E+00 -0.22781741621E+02  0.22781741621E+02  0.00000000000E+00 0. -1.
         36    2    1    2    0    0  0.35527136788E-14  0.00000000000E+00  0.80245030385E+03  0.84801378709E+03  0.27422781214E+03 0.  0.
         25    2    3    3    0    0  0.13603856391E+02  0.39851402109E+02  0.30285710587E+03  0.33096781309E+03  0.12666517898E+03 0.  0.
         25    2    3    3    0    0 -0.13603856391E+02 -0.39851402109E+02  0.49959319798E+03  0.51704597400E+03  0.12637237279E+03 0.  0.
          5    1    4    4  502    0  0.23629583317E+02 -0.37599171659E+02  0.53839989371E+02  0.69949191365E+02  0.47000000000E+01 0.  1.
         -5    1    4    4    0  502 -0.10025726926E+02  0.77450573768E+02  0.24901711650E+03  0.26101862172E+03  0.47000000000E+01 0.  1.
          5    1    5    5  503    0 -0.61876214862E+02 -0.26877452016E+01  0.34977090082E+03  0.35524310409E+03  0.47000000000E+01 0. -1.
         -5    1    5    5    0  503  0.48272358471E+02 -0.37163656907E+02  0.14982229716E+03  0.16180286991E+03  0.47000000000E+01 0. -1.
<mgrwt>
<rscale>  0 0.27422781E+03</rscale>
<asrwt>0</asrwt>
<pdfrwt beam="1">  1        1 0.12695875E+00 0.27422781E+03</pdfrwt>
<pdfrwt beam="2">  1       -1 0.35048840E-02 0.27422781E+03</pdfrwt>
<totfact> 0.65610598E+03</totfact>
</mgrwt>
</event>
<event>
 9    1  0.2054950E-002  0.2766113E+03  0.7818608E-02  0.1097554E+00
         -1   -1    0    0    0  501 -0.00000000000E+00  0.00000000000E+00  0.58100471980E+03  0.58100471980E+03  0.00000000000E+00 0. -1.
          1   -1    0    0  501    0  0.00000000000E+00 -0.00000000000E+00 -0.32923070036E+02  0.32923070036E+02  0.00000000000E+00 0. -1.
         36    2    1    2    0    0  0.00000000000E+00  0.71054273576E-14  0.54808164976E+03  0.61392778983E+03  0.27661134526E+03 0.  0.
         25    2    3    3    0    0 -0.30332723042E+01 -0.35886119783E+02  0.37405396404E+03  0.39563032137E+03  0.12373345885E+03 0.  0.
         25    2    3    3    0    0  0.30332723042E+01  0.35886119783E+02  0.17402768572E+03  0.21829746846E+03  0.12677198037E+03 0.  0.
          5    1    4    4  502    0  0.19670681800E+02  0.23114143310E+02  0.28311982885E+03  0.28478084000E+03  0.47000000000E+01 0. -1.
         -5    1    4    4    0  502 -0.22703954104E+02 -0.59000263093E+02  0.90934135188E+02  0.11084948137E+03  0.47000000000E+01 0. -1.
          5    1    5    5  503    0  0.60825458066E+02 -0.33470271445E+01  0.92215024095E+02  0.11061934554E+03  0.47000000000E+01 0.  1.
         -5    1    5    5    0  503 -0.57792185762E+02  0.39233146927E+02  0.81812661624E+02  0.10767812292E+03  0.47000000000E+01 0.  1.
<mgrwt>
<rscale>  0 0.27661135E+03</rscale>
<asrwt>0</asrwt>
<pdfrwt beam="1">  1        1 0.50650881E-02 0.27661135E+03</pdfrwt>
<pdfrwt beam="2">  1       -1 0.89385334E-01 0.27661135E+03</pdfrwt>
<totfact> 0.21054801E+03</totfact>
</mgrwt>
</event>
<event>
 9    1  0.2054950E-002  0.2751804E+03  0.7818608E-02  0.1098351E+00
         -2   -1    0    0    0  501 -0.00000000000E+00  0.00000000000E+00  0.29612188502E+02  0.29612188502E+02  0.00000000000E+00 0. -1.
          2   -1    0    0  501    0  0.00000000000E+00 -0.00000000000E+00 -0.63929985291E+03  0.63929985291E+03  0.00000000000E+00 0. -1.
         36    2    1    2    0    0  0.13322676296E-14 -0.53290705182E-14 -0.60968766441E+03  0.66891204141E+03  0.27518043356E+03 0.  0.
         25    2    3    3    0    0 -0.26295911671E+01 -0.49022054446E+01 -0.17641037324E+03  0.21788930993E+03  0.12776613489E+03 0.  0.
         25    2    3    3    0    0  0.26295911671E+01  0.49022054446E+01 -0.43327729116E+03  0.45102273148E+03  0.12514530318E+03 0.  0.
          5    1    4    4  502    0 -0.37239154045E+01 -0.12906047476E+02 -0.19582542394E+03  0.19634184543E+03  0.47000000000E+01 0. -1.
         -5    1    4    4    0  502  0.10943242374E+01  0.80038420312E+01  0.19415050694E+02  0.21547464497E+02  0.47000000000E+01 0. -1.
          5    1    5    5  503    0 -0.18211229695E+02  0.59074958425E+02 -0.15959718651E+03  0.17121580401E+03  0.47000000000E+01 0. -1.
         -5    1    5    5    0  503  0.20840820862E+02 -0.54172752980E+02 -0.27368010465E+03  0.27980692747E+03  0.47000000000E+01 0. -1.
<mgrwt>
<rscale>  0 0.27518043E+03</rscale>
<asrwt>0</asrwt>
<pdfrwt beam="1">  1        2 0.98353825E-01 0.27518043E+03</pdfrwt>
<pdfrwt beam="2">  1       -2 0.45557212E-02 0.27518043E+03</pdfrwt>
<totfact> 0.10514517E+04</totfact>
</mgrwt>
</event>
<event>
 9    1  0.2054950E-002  0.2752039E+03  0.7818608E-02  0.1098338E+00
          1   -1    0    0  501    0  0.00000000000E+00  0.00000000000E+00  0.96421414731E+03  0.96421414731E+03  0.00000000000E+00 0.  1.
         -1   -1    0    0    0  501 -0.00000000000E+00 -0.00000000000E+00 -0.19637023967E+02  0.19637023967E+02  0.00000000000E+00 0.  1.
         36    2    1    2    0    0 -0.17763568394E-14 -0.14210854715E-13  0.94457712335E+03  0.98385117128E+03  0.27520389765E+03 0.  0.
         25    2    3    3    0    0  0.14618351477E+02  0.47760268198E+02  0.40577891784E+03  0.42830184980E+03  0.12763700467E+03 0.  0.
         25    2    3    3    0    0 -0.14618351477E+02 -0.47760268198E+02  0.53879820551E+03  0.55554932148E+03  0.12584435992E+03 0.  0.
          5    1    4    4  502    0 -0.44316500203E+02 -0.17493823741E+02  0.17016794003E+03  0.17677444350E+03  0.47000000000E+01 0.  1.
         -5    1    4    4    0  502  0.58934851680E+02  0.65254091939E+02  0.23561097781E+03  0.25152740630E+03  0.47000000000E+01 0.  1.
          5    1    5    5  503    0 -0.71928011644E+01  0.36718338742E+02  0.29456691983E+03  0.29697092963E+03  0.47000000000E+01 0. -1.
         -5    1    5    5    0  503 -0.74255503125E+01 -0.84478606940E+02  0.24423128568E+03  0.25857839185E+03  0.47000000000E+01 0. -1.
<mgrwt>
<rscale>  0 0.27520390E+03</rscale>
<asrwt>0</asrwt>
<pdfrwt beam="1">  1        1 0.14834060E+00 0.27520390E+03</pdfrwt>
<pdfrwt beam="2">  1       -1 0.30210814E-02 0.27520390E+03</pdfrwt>
<totfact> 0.63495481E+03</totfact>
</mgrwt>
</event>
<event>
 9    1  0.2054950E-002  0.2753981E+03  0.7818608E-02  0.1098229E+00
          2   -1    0    0  501    0  0.00000000000E+00  0.00000000000E+00  0.33679474701E+03  0.33679474701E+03  0.00000000000E+00 0.  1.
         -2   -1    0    0    0  501 -0.00000000000E+00 -0.00000000000E+00 -0.56298481606E+02  0.56298481606E+02  0.00000000000E+00 0.  1.
         36    2    1    2    0    0 -0.35527136788E-14 -0.71054273576E-14  0.28049626541E+03  0.39309322862E+03  0.27539813267E+03 0.  0.
         25    2    3    3    0    0  0.82867032226E+01  0.21055064366E+02  0.17677917176E+03  0.21742112763E+03  0.12453548084E+03 0.  0.
         25    2    3    3    0    0 -0.82867032226E+01 -0.21055064366E+02  0.10371709365E+03  0.17567210099E+03  0.13996951941E+03 0.  0.
          5    1    4    4  502    0  0.18655496633E+02  0.25827954226E+02 -0.72227531201E+01  0.33005589477E+02  0.47000000000E+01 0.  1.
         -5    1    4    4    0  502 -0.10368793410E+02 -0.47728898600E+01  0.18400192488E+03  0.18441553815E+03  0.47000000000E+01 0.  1.
          5    1    5    5  503    0 -0.29761928387E+02 -0.67479244487E+02  0.99764379239E+02  0.12415410659E+03  0.47000000000E+01 0. -1.
         -5    1    5    5    0  503  0.21475225165E+02  0.46424180121E+02  0.39527144127E+01  0.51517994400E+02  0.47000000000E+01 0. -1.
<mgrwt>
<rscale>  0 0.27539813E+03</rscale>
<asrwt>0</asrwt>
<pdfrwt beam="1">  1        2 0.51814575E-01 0.27539813E+03</pdfrwt>
<pdfrwt beam="2">  1       -2 0.86613051E-02 0.27539813E+03</pdfrwt>
<totfact> 0.79826271E+03</totfact>
</mgrwt>
</event>
<event>
 9    1  0.2054950E-002  0.2756127E+03  0.7818608E-02  0.1098110E+00
         -2   -1    0    0    0  501 -0.00000000000E+00  0.00000000000E+00  0.42986501030E+02  0.42986501030E+02  0.00000000000E+00 0. -1.
          2   -1    0    0  501    0  0.00000000000E+00 -0.00000000000E+00 -0.44178039354E+03  0.44178039354E+03  0.00000000000E+00 0. -1.
         36    2    1    2    0    0  0.00000000000E+00  0.00000000000E+00 -0.39879389251E+03  0.48476689457E+03  0.27561272352E+03 0.  0.
         25    2    3    3    0    0 -0.22235488404E+02  0.54946385344E+02 -0.16341796781E+03  0.21108271051E+03  0.11973702963E+03 0.  0.
         25    2    3    3    0    0  0.22235488404E+02 -0.54946385344E+02 -0.23537592470E+03  0.27368418406E+03  0.12644241563E+03 0.  0.
          5    1    4    4  502    0  0.20976556047E+02  0.58888103353E+01 -0.13956460512E+03  0.14133316310E+03  0.47000000000E+01 0. -1.
         -5    1    4    4    0  502 -0.43212044451E+02  0.49057575009E+02 -0.23853362695E+02  0.69749547405E+02  0.47000000000E+01 0. -1.
          5    1    5    5  503    0 -0.52597271220E+02 -0.19572661878E+02 -0.10580597312E+03  0.11986056891E+03  0.47000000000E+01 0. -1.
         -5    1    5    5    0  503  0.74832759625E+02 -0.35373723466E+02 -0.12956995158E+03  0.15382361515E+03  0.47000000000E+01 0. -1.
<mgrwt>
<rscale>  0 0.27561272E+03</rscale>
<asrwt>0</asrwt>
<pdfrwt beam="1">  1        2 0.67966217E-01 0.27561272E+03</pdfrwt>
<pdfrwt beam="2">  1       -2 0.66133076E-02 0.27561272E+03</pdfrwt>
<totfact> 0.90493093E+03</totfact>
</mgrwt>
</event>
<event>
 9    1  0.2054950E-002  0.2751063E+03  0.7818608E-02  0.1098392E+00
         -2   -1    0    0    0  501 -0.00000000000E+00  0.00000000000E+00  0.12307383158E+03  0.12307383158E+03  0.00000000000E+00 0.  1.
          2   -1    0    0  501    0  0.00000000000E+00 -0.00000000000E+00 -0.15373596738E+03  0.15373596738E+03  0.00000000000E+00 0.  1.
         36    2    1    2    0    0  0.71054273576E-14  0.71054273576E-14 -0.30662135797E+02  0.27680979895E+03  0.27510633985E+03 0.  0.
         25    2    3    3    0    0 -0.21170766284E+02 -0.44756304732E+02 -0.67110727961E+01  0.14086878585E+03  0.13171047100E+03 0.  0.
         25    2    3    3    0    0  0.21170766284E+02  0.44756304732E+02 -0.23951063001E+02  0.13594101310E+03  0.12431804964E+03 0.  0.
          5    1    4    4  502    0 -0.31682632238E+02 -0.17655666435E+02  0.58685406435E+02  0.69148960015E+02  0.47000000000E+01 0. -1.
         -5    1    4    4    0  502  0.10511865954E+02 -0.27100638298E+02 -0.65396479231E+02  0.71719825835E+02  0.47000000000E+01 0. -1.
          5    1    5    5  503    0  0.33949226795E+02  0.25080383813E+02  0.45644860752E+02  0.62346763872E+02  0.47000000000E+01 0.  1.
         -5    1    5    5    0  503 -0.12778460512E+02  0.19675920919E+02 -0.69595923753E+02  0.73594249233E+02  0.47000000000E+01 0.  1.
<mgrwt>
<rscale>  0 0.27510634E+03</rscale>
<asrwt>0</asrwt>
<pdfrwt beam="1">  1        2 0.23651687E-01 0.27510634E+03</pdfrwt>
<pdfrwt beam="2">  1       -2 0.18934436E-01 0.27510634E+03</pdfrwt>
<totfact> 0.52534544E+03</totfact>
</mgrwt>
</event>
<event>
 9    1  0.2054950E-002  0.2755417E+03  0.7818608E-02  0.1098149E+00
         -1   -1    0    0    0  501 -0.00000000000E+00  0.00000000000E+00  0.79373527380E+02  0.79373527380E+02  0.00000000000E+00 0. -1.
          1   -1    0    0  501    0  0.00000000000E+00 -0.00000000000E+00 -0.23913263963E+03  0.23913263963E+03  0.00000000000E+00 0. -1.
         36    2    1    2    0    0  0.35527136788E-14  0.71054273576E-14 -0.15975911225E+03  0.31850616701E+03  0.27554165652E+03 0.  0.
         25    2    3    3    0    0  0.12231465083E+02  0.55035134085E+02 -0.67438968725E+02  0.15076154022E+03  0.12248490840E+03 0.  0.
         25    2    3    3    0    0 -0.12231465083E+02 -0.55035134085E+02 -0.92320143527E+02  0.16774462679E+03  0.12820599126E+03 0.  0.
          5    1    4    4  502    0  0.46722053776E+02 -0.37832160529E+01 -0.67622415140E+02  0.82414465126E+02  0.47000000000E+01 0.  1.
         -5    1    4    4    0  502 -0.34490588692E+02  0.58818350138E+02  0.18344641439E+00  0.68347075094E+02  0.47000000000E+01 0.  1.
          5    1    5    5  503    0 -0.31510575967E+02  0.19596872857E+02 -0.81619292219E+02  0.89781694603E+02  0.47000000000E+01 0. -1.
         -5    1    5    5    0  503  0.19279110884E+02 -0.74632006942E+02 -0.10700851308E+02  0.77962932188E+02  0.47000000000E+01 0. -1.
<mgrwt>
<rscale>  0 0.27554166E+03</rscale>
<asrwt>0</asrwt>
<pdfrwt beam="1">  1        1 0.36789637E-01 0.27554166E+03</pdfrwt>
<pdfrwt beam="2">  1       -1 0.12211312E-01 0.27554166E+03</pdfrwt>
<totfact> 0.51723737E+03</totfact>
</mgrwt>
</event>
<event>
 9    1  0.2054950E-002  0.2750328E+03  0.7818608E-02  0.1098433E+00
         -1   -1    0    0    0  501 -0.00000000000E+00  0.00000000000E+00  0.16342818158E+03  0.16342818158E+03  0.00000000000E+00 0. -1.
          1   -1    0    0  501    0  0.00000000000E+00 -0.00000000000E+00 -0.11571295234E+03  0.11571295234E+03  0.00000000000E+00 0. -1.
         36    2    1    2    0    0  0.00000000000E+00 -0.35527136788E-14  0.47715229236E+02  0.27914113392E+03  0.27503277904E+03 0.  0.
         25    2    3    3    0    0 -0.30648936274E+02  0.88441957430E+00  0.75471026028E+02  0.14792191697E+03  0.12347015128E+03 0.  0.
         25    2    3    3    0    0  0.30648936274E+02 -0.88441957430E+00 -0.27755796791E+02  0.13121921695E+03  0.12453095659E+03 0.  0.
          5    1    4    4  502    0 -0.50251627032E+02  0.30689470840E+02  0.91195316787E+02  0.10865424724E+03  0.47000000000E+01 0. -1.
         -5    1    4    4    0  502  0.19602690759E+02 -0.29805051266E+02 -0.15724290759E+02  0.39267669727E+02  0.47000000000E+01 0. -1.
          5    1    5    5  503    0  0.51017401760E+02 -0.41217985929E+02  0.16503443690E+02  0.67794920902E+02  0.47000000000E+01 0. -1.
         -5    1    5    5    0  503 -0.20368465487E+02  0.40333566355E+02 -0.44259240481E+02  0.63424296048E+02  0.47000000000E+01 0. -1.
<mgrwt>
<rscale>  0 0.27503278E+03</rscale>
<asrwt>0</asrwt>
<pdfrwt beam="1">  1        1 0.17801993E-01 0.27503278E+03</pdfrwt>
<pdfrwt beam="2">  1       -1 0.25142797E-01 0.27503278E+03</pdfrwt>
<totfact> 0.40762925E+03</totfact>
</mgrwt>
</event>
<event>
 9    1  0.2054950E-002  0.2765914E+03  0.7818608E-02  0.1097565E+00
         -2   -1    0    0    0  501 -0.00000000000E+00  0.00000000000E+00  0.21903930796E+02  0.21903930796E+02  0.00000000000E+00 0.  1.
          2   -1    0    0  501    0  0.00000000000E+00 -0.00000000000E+00 -0.87316278182E+03  0.87316278182E+03  0.00000000000E+00 0.  1.
         36    2    1    2    0    0  0.35527136788E-14  0.00000000000E+00 -0.85125885102E+03  0.89506671262E+03  0.27659137475E+03 0.  0.
         25    2    3    3    0    0  0.98835867488E+01 -0.40526347041E+02 -0.30464675625E+03  0.33325634298E+03  0.12849153260E+03 0.  0.
         25    2    3    3    0    0 -0.98835867488E+01  0.40526347041E+02 -0.54661209477E+03  0.56181036964E+03  0.12290662794E+03 0.  0.
          5    1    4    4  502    0  0.20171973505E+02 -0.55012595208E+02 -0.30885706624E+03  0.31440113154E+03  0.47000000000E+01 0. -1.
         -5    1    4    4    0  502 -0.10288386756E+02  0.14486248166E+02  0.42103099937E+01  0.18855211434E+02  0.47000000000E+01 0. -1.
          5    1    5    5  503    0 -0.34500701218E+02  0.67722651400E+02 -0.47645985924E+03  0.48250672883E+03  0.47000000000E+01 0. -1.
         -5    1    5    5    0  503  0.24617114470E+02 -0.27196304359E+02 -0.70152235530E+02  0.79303640808E+02  0.47000000000E+01 0. -1.
<mgrwt>
<rscale>  0 0.27659137E+03</rscale>
<asrwt>0</asrwt>
<pdfrwt beam="1">  1        2 0.13433272E+00 0.27659137E+03</pdfrwt>
<pdfrwt beam="2">  1       -2 0.33698360E-02 0.27659137E+03</pdfrwt>
<totfact> 0.11227266E+04</totfact>
</mgrwt>
</event>
<event>
 9    1  0.2054950E-002  0.2746358E+03  0.7818608E-02  0.1098655E+00
         -2   -1    0    0    0  501 -0.00000000000E+00  0.00000000000E+00  0.13938167535E+02  0.13938167535E+02  0.00000000000E+00 0. -1.
          2   -1    0    0  501    0  0.00000000000E+00 -0.00000000000E+00 -0.13528468846E+04  0.13528468846E+04  0.00000000000E+00 0. -1.
         36    2    1    2    0    0  0.00000000000E+00  0.00000000000E+00 -0.13389087171E+04  0.13667850521E+04  0.27463580631E+03 0.  0.
         25    2    3    3    0    0 -0.60134191918E+01 -0.51377083753E+02 -0.90332625946E+03  0.91203840207E+03  0.11462962043E+03 0.  0.
         25    2    3    3    0    0  0.60134191918E+01  0.51377083753E+02 -0.43558245759E+03  0.45474665005E+03  0.11994445558E+03 0.  0.
          5    1    4    4  502    0 -0.21357260197E+02  0.21997387483E+02 -0.54717406580E+03  0.54805252112E+03  0.47000000000E+01 0. -1.
         -5    1    4    4    0  502  0.15343841005E+02 -0.73374471236E+02 -0.35615219365E+03  0.36398588095E+03  0.47000000000E+01 0. -1.
          5    1    5    5  503    0  0.36944831411E+02  0.33309484763E+02 -0.40303178794E+03  0.40611716835E+03  0.47000000000E+01 0.  1.
         -5    1    5    5    0  503 -0.30931412219E+02  0.18067598990E+02 -0.32550669656E+02  0.48629481697E+02  0.47000000000E+01 0.  1.
<mgrwt>
<rscale>  0 0.27463581E+03</rscale>
<asrwt>0</asrwt>
<pdfrwt beam="1">  1        2 0.20813024E+00 0.27463581E+03</pdfrwt>
<pdfrwt beam="2">  1       -2 0.21443340E-02 0.27463581E+03</pdfrwt>
<totfact> 0.11434481E+04</totfact>
</mgrwt>
</event>
<event>
 9    1  0.2054950E-002  0.2751999E+03  0.7818608E-02  0.1098340E+00
         -2   -1    0    0    0  501 -0.00000000000E+00  0.00000000000E+00  0.19654002486E+03  0.19654002486E+03  0.00000000000E+00 0. -1.
          2   -1    0    0  501    0  0.00000000000E+00 -0.00000000000E+00 -0.96335316925E+02  0.96335316925E+02  0.00000000000E+00 0. -1.
         36    2    1    2    0    0 -0.71054273576E-14  0.35527136788E-14  0.10020470793E+03  0.29287534178E+03  0.27519989522E+03 0.  0.
         25    2    3    3    0    0 -0.54853100577E+02  0.11305120023E+02  0.22323221068E+02  0.13879177268E+03  0.12501264569E+03 0.  0.
         25    2    3    3    0    0  0.54853100577E+02 -0.11305120023E+02  0.77881486863E+02  0.15408356910E+03  0.12058006423E+03 0.  0.
          5    1    4    4  502    0 -0.88916590061E+02 -0.21474140368E+01  0.40258235595E+02  0.97742451925E+02  0.47000000000E+01 0.  1.
         -5    1    4    4    0  502  0.34063489484E+02  0.13452534060E+02 -0.17935014527E+02  0.41049320756E+02  0.47000000000E+01 0.  1.
          5    1    5    5  503    0 -0.22355528808E+02 -0.43526990848E+02  0.28799659492E+02  0.56972616119E+02  0.47000000000E+01 0. -1.
         -5    1    5    5    0  503  0.77208629385E+02  0.32221870825E+02  0.49081827371E+02  0.97110952981E+02  0.47000000000E+01 0. -1.
<mgrwt>
<rscale>  0 0.27519990E+03</rscale>
<asrwt>0</asrwt>
<pdfrwt beam="1">  1        2 0.14820818E-01 0.27519990E+03</pdfrwt>
<pdfrwt beam="2">  1       -2 0.30236927E-01 0.27519990E+03</pdfrwt>
<totfact> 0.39633975E+03</totfact>
</mgrwt>
</event>
<event>
 9    1  0.2054950E-002  0.2748710E+03  0.7818608E-02  0.1098524E+00
          2   -1    0    0  501    0  0.00000000000E+00  0.00000000000E+00  0.20543121978E+03  0.20543121978E+03  0.00000000000E+00 0. -1.
         -2   -1    0    0    0  501 -0.00000000000E+00 -0.00000000000E+00 -0.91945727414E+02  0.91945727414E+02  0.00000000000E+00 0. -1.
         36    2    1    2    0    0  0.00000000000E+00  0.00000000000E+00  0.11348549237E+03  0.29737694720E+03  0.27487104567E+03 0.  0.
         25    2    3    3    0    0  0.49175529465E+02 -0.31876046941E+02  0.34738310478E+02  0.13877775982E+03  0.12090575395E+03 0.  0.
         25    2    3    3    0    0 -0.49175529465E+02  0.31876046941E+02  0.78747181892E+02  0.15859918738E+03  0.12457234250E+03 0.  0.
          5    1    4    4  502    0  0.38738854621E+02 -0.75002469391E+02  0.40573502220E+02  0.93778293622E+02  0.47000000000E+01 0. -1.
         -5    1    4    4    0  502  0.10436674844E+02  0.43126422450E+02 -0.58351917426E+01  0.44999466195E+02  0.47000000000E+01 0. -1.
          5    1    5    5  503    0 -0.46324798965E+00  0.59900427392E+02 -0.19867884643E+01  0.60119157753E+02  0.47000000000E+01 0.  1.
         -5    1    5    5    0  503 -0.48712281475E+02 -0.28024380451E+02  0.80733970356E+02  0.98480029629E+02  0.47000000000E+01 0.  1.
<mgrwt>
<rscale>  0 0.27487105E+03</rscale>
<asrwt>0</asrwt>
<pdfrwt beam="1">  1        2 0.31604803E-01 0.27487105E+03</pdfrwt>
<pdfrwt beam="2">  1       -2 0.14145497E-01 0.27487105E+03</pdfrwt>
<totfact> 0.61989849E+03</totfact>
</mgrwt>
</event>
<event>
 9    1  0.2054950E-002  0.2747775E+03  0.7818608E-02  0.1098576E+00
         -2   -1    0    0    0  501 -0.00000000000E+00  0.00000000000E+00  0.67048922356E+03  0.67048922356E+03  0.00000000000E+00 0.  1.
          2   -1    0    0  501    0  0.00000000000E+00 -0.00000000000E+00 -0.28152093618E+02  0.28152093618E+02  0.00000000000E+00 0.  1.
         36    2    1    2    0    0  0.00000000000E+00  0.00000000000E+00  0.64233712994E+03  0.69864131718E+03  0.27477754924E+03 0.  0.
         25    2    3    3    0    0 -0.42874379065E+02  0.38899492973E+02  0.28942023049E+03  0.32012356416E+03  0.12395016572E+03 0.  0.
         25    2    3    3    0    0  0.42874379065E+02 -0.38899492973E+02  0.35291689945E+03  0.37851775302E+03  0.12399180818E+03 0.  0.
          5    1    4    4  502    0  0.78803809690E+01 -0.35566026648E+02  0.14701390405E+03  0.15153290283E+03  0.47000000000E+01 0. -1.
         -5    1    4    4    0  502 -0.50754760034E+02  0.74465519621E+02  0.14240632643E+03  0.16859066133E+03  0.47000000000E+01 0. -1.
          5    1    5    5  503    0 -0.38973074920E+02 -0.28343733971E+02  0.18678120838E+03  0.19295485905E+03  0.47000000000E+01 0.  1.
         -5    1    5    5    0  503  0.81847453985E+02 -0.10555759003E+02  0.16613569107E+03  0.18556289397E+03  0.47000000000E+01 0.  1.
<mgrwt>
<rscale>  0 0.27477755E+03</rscale>
<asrwt>0</asrwt>
<pdfrwt beam="1">  1        2 0.43310918E-02 0.27477755E+03</pdfrwt>
<pdfrwt beam="2">  1       -2 0.10315218E+00 0.27477755E+03</pdfrwt>
<totfact> 0.15175220E+03</totfact>
</mgrwt>
</event>
<event>
 9    1  0.2054950E-002  0.2739577E+03  0.7818608E-02  0.1099036E+00
          1   -1    0    0  501    0  0.00000000000E+00  0.00000000000E+00  0.10607171091E+04  0.10607171091E+04  0.00000000000E+00 0.  1.
         -1   -1    0    0    0  501 -0.00000000000E+00 -0.00000000000E+00 -0.17689164794E+02  0.17689164794E+02  0.00000000000E+00 0.  1.
         36    2    1    2    0    0  0.00000000000E+00  0.00000000000E+00  0.10430279443E+04  0.10784062739E+04  0.27395765908E+03 0.  0.
         25    2    3    3    0    0 -0.14128738260E+02 -0.38185199603E+02  0.57772245029E+03  0.59228141316E+03  0.12400125841E+03 0.  0.
         25    2    3    3    0    0  0.14128738260E+02  0.38185199603E+02  0.46530549398E+03  0.48612486070E+03  0.13472359389E+03 0.  0.
          5    1    4    4  502    0 -0.35287982375E+02 -0.75481569692E+02  0.30688615971E+03  0.31803130991E+03  0.47000000000E+01 0. -1.
         -5    1    4    4    0  502  0.21159244115E+02  0.37296370089E+02  0.27083629059E+03  0.27425010325E+03  0.47000000000E+01 0. -1.
          5    1    5    5  503    0  0.10966511391E+02  0.53081111678E+02  0.46694523422E+03  0.47010404227E+03  0.47000000000E+01 0. -1.
         -5    1    5    5    0  503  0.31622268687E+01 -0.14895912074E+02 -0.16397402453E+01  0.16020818436E+02  0.47000000000E+01 0. -1.
<mgrwt>
<rscale>  0 0.27395766E+03</rscale>
<asrwt>0</asrwt>
<pdfrwt beam="1">  1        1 0.16318720E+00 0.27395766E+03</pdfrwt>
<pdfrwt beam="2">  1       -1 0.27214108E-02 0.27395766E+03</pdfrwt>
<totfact> 0.62758001E+03</totfact>
</mgrwt>
</event>
<event>
 9    1  0.2054950E-002  0.2749010E+03  0.7818608E-02  0.1098507E+00
         -2   -1    0    0    0  501 -0.00000000000E+00  0.00000000000E+00  0.59620743655E+03  0.59620743655E+03  0.00000000000E+00 0.  1.
          2   -1    0    0  501    0  0.00000000000E+00 -0.00000000000E+00 -0.31688025240E+02  0.31688025240E+02  0.00000000000E+00 0.  1.
         36    2    1    2    0    0  0.00000000000E+00  0.00000000000E+00  0.56451941131E+03  0.62789546179E+03  0.27490097343E+03 0.  0.
         25    2    3    3    0    0 -0.26784068071E+02 -0.41423436977E+02  0.22314966086E+03  0.26043876724E+03  0.12489712928E+03 0.  0.
         25    2    3    3    0    0  0.26784068071E+02  0.41423436977E+02  0.34136975045E+03  0.36745669456E+03  0.12671948713E+03 0.  0.
          5    1    4    4  502    0 -0.61533203434E+02 -0.29754811935E+02  0.53818611537E+02  0.87121850910E+02  0.47000000000E+01 0.  1.
         -5    1    4    4    0  502  0.34749135363E+02 -0.11668625042E+02  0.16933104933E+03  0.17331691633E+03  0.47000000000E+01 0.  1.
          5    1    5    5  503    0  0.55487560979E+01  0.85775019717E+02  0.20137397356E+03  0.21900162083E+03  0.47000000000E+01 0.  1.
         -5    1    5    5    0  503  0.21235311973E+02 -0.44351582740E+02  0.13999577689E+03  0.14845507372E+03  0.47000000000E+01 0.  1.
<mgrwt>
<rscale>  0 0.27490097E+03</rscale>
<asrwt>0</asrwt>
<pdfrwt beam="1">  1        2 0.48750812E-02 0.27490097E+03</pdfrwt>
<pdfrwt beam="2">  1       -2 0.91724213E-01 0.27490097E+03</pdfrwt>
<totfact> 0.17001056E+03</totfact>
</mgrwt>
</event>
<event>
 9    1  0.2054950E-002  0.2751616E+03  0.7818608E-02  0.1098361E+00
         -2   -1    0    0    0  501 -0.00000000000E+00  0.00000000000E+00  0.22509224383E+04  0.22509224383E+04  0.00000000000E+00 0.  1.
          2   -1    0    0  501    0  0.00000000000E+00 -0.00000000000E+00 -0.84092117412E+01  0.84092117412E+01  0.00000000000E+00 0.  1.
         36    2    1    2    0    0  0.17763568394E-14 -0.14210854715E-13  0.22425132266E+04  0.22593316500E+04  0.27516164992E+03 0.  0.
         25    2    3    3    0    0  0.67002555135E+01 -0.68843792333E+02  0.14270797143E+04  0.14318297828E+04  0.93785152733E+02 0.  0.
         25    2    3    3    0    0 -0.67002555135E+01  0.68843792333E+02  0.81543351231E+03  0.82750186726E+03  0.12265058562E+03 0.  0.
          5    1    4    4  502    0 -0.70846769999E+01 -0.26629718010E+02  0.95642931798E+02  0.99644342199E+02  0.47000000000E+01 0. -1.
         -5    1    4    4    0  502  0.13784932513E+02 -0.42214074323E+02  0.13314367825E+04  0.13321854406E+04  0.47000000000E+01 0. -1.
          5    1    5    5  503    0  0.29594832611E+02  0.68416313181E+02  0.73891497779E+03  0.74268033529E+03  0.47000000000E+01 0. -1.
         -5    1    5    5    0  503 -0.36295088124E+02  0.42747915177E+00  0.76518534525E+02  0.84821531973E+02  0.47000000000E+01 0. -1.
<mgrwt>
<rscale>  0 0.27516165E+03</rscale>
<asrwt>0</asrwt>
<pdfrwt beam="1">  1        2 0.12937267E-02 0.27516165E+03</pdfrwt>
<pdfrwt beam="2">  1       -2 0.34629528E+00 0.27516165E+03</pdfrwt>
<totfact> 0.19540727E+02</totfact>
</mgrwt>
</event>
<event>
 9    1  0.2054950E-002  0.2745563E+03  0.7818608E-02  0.1098700E+00
         -2   -1    0    0    0  501 -0.00000000000E+00  0.00000000000E+00  0.78715840212E+02  0.78715840212E+02  0.00000000000E+00 0.  1.
          2   -1    0    0  501    0  0.00000000000E+00 -0.00000000000E+00 -0.23940917754E+03  0.23940917754E+03  0.00000000000E+00 0.  1.
         36    2    1    2    0    0  0.71054273576E-14  0.71054273576E-14 -0.16069333733E+03  0.31812501775E+03  0.27455632984E+03 0.  0.
         25    2    3    3    0    0 -0.20342082202E+02 -0.33594401189E+02 -0.15693801636E+03  0.20283934602E+03  0.12235961431E+03 0.  0.
         25    2    3    3    0    0  0.20342082202E+02  0.33594401189E+02 -0.37553209629E+01  0.11528567173E+03  0.10832497206E+03 0.  0.
          5    1    4    4  502    0 -0.60505882361E+02 -0.29493512735E+00 -0.34839526116E+02  0.69978077760E+02  0.47000000000E+01 0.  1.
         -5    1    4    4    0  502  0.40163800159E+02 -0.33299466062E+02 -0.12209849025E+03  0.13286126826E+03  0.47000000000E+01 0.  1.
          5    1    5    5  503    0  0.48515985062E+02  0.59200843919E+02 -0.55254935954E+01  0.76884080320E+02  0.47000000000E+01 0. -1.
         -5    1    5    5    0  503 -0.28173902859E+02 -0.25606442730E+02  0.17701726325E+01  0.38401591409E+02  0.47000000000E+01 0. -1.
<mgrwt>
<rscale>  0 0.27455633E+03</rscale>
<asrwt>0</asrwt>
<pdfrwt beam="1">  1        2 0.36832181E-01 0.27455633E+03</pdfrwt>
<pdfrwt beam="2">  1       -2 0.12110129E-01 0.27455633E+03</pdfrwt>
<totfact> 0.67591461E+03</totfact>
</mgrwt>
</event>
<event>
 9    1  0.2054950E-002  0.2749117E+03  0.7818608E-02  0.1098501E+00
         -2   -1    0    0    0  501 -0.00000000000E+00  0.00000000000E+00  0.53743991158E+02  0.53743991158E+02  0.00000000000E+00 0. -1.
          2   -1    0    0  501    0  0.00000000000E+00 -0.00000000000E+00 -0.35155763510E+03  0.35155763510E+03  0.00000000000E+00 0. -1.
         36    2    1    2    0    0  0.00000000000E+00  0.00000000000E+00 -0.29781364394E+03  0.40530162626E+03  0.27491169806E+03 0.  0.
         25    2    3    3    0    0 -0.12887314692E+02 -0.55885071251E+02 -0.13874534301E+03  0.19594712591E+03  0.12591974379E+03 0.  0.
         25    2    3    3    0    0  0.12887314692E+02  0.55885071251E+02 -0.15906830093E+03  0.20935450035E+03  0.12343969535E+03 0.  0.
          5    1    4    4  502    0 -0.42448726570E+02  0.26774801304E+02 -0.53001282585E+02  0.73143764792E+02  0.47000000000E+01 0. -1.
         -5    1    4    4    0  502  0.29561411879E+02 -0.82659872555E+02 -0.85744060425E+02  0.12280336112E+03  0.47000000000E+01 0. -1.
          5    1    5    5  503    0 -0.97942115351E+01 -0.10162162290E+02  0.15375223710E+02  0.21393541692E+02  0.47000000000E+01 0. -1.
         -5    1    5    5    0  503  0.22681526227E+02  0.66047233541E+02 -0.17444352464E+03  0.18796095866E+03  0.47000000000E+01 0. -1.
<mgrwt>
<rscale>  0 0.27491170E+03</rscale>
<asrwt>0</asrwt>
<pdfrwt beam="1">  1        2 0.54085791E-01 0.27491170E+03</pdfrwt>
<pdfrwt beam="2">  1       -2 0.82683062E-02 0.27491170E+03</pdfrwt>
<totfact> 0.81969420E+03</totfact>
</mgrwt>
</event>
<event>
 9    1  0.2054950E-002  0.2756766E+03  0.7818608E-02  0.1098074E+00
         -1   -1    0    0    0  501 -0.00000000000E+00  0.00000000000E+00  0.14472388191E+02  0.14472388191E+02  0.00000000000E+00 0.  1.
          1   -1    0    0  501    0  0.00000000000E+00 -0.00000000000E+00 -0.13128033766E+04  0.13128033766E+04  0.00000000000E+00 0.  1.
         36    2    1    2    0    0  0.00000000000E+00 -0.35527136788E-14 -0.12983309884E+04  0.13272757648E+04  0.27567662277E+03 0.  0.
         25    2    3    3    0    0 -0.63093626582E+02  0.29265581395E+02 -0.61914405791E+03  0.63541739679E+03  0.12481435705E+03 0.  0.
         25    2    3    3    0    0  0.63093626582E+02 -0.29265581395E+02 -0.67918693051E+03  0.69185836801E+03  0.11196354249E+03 0.  0.
          5    1    4    4  502    0 -0.30391309022E+02  0.85668706368E+01 -0.57746333486E+03  0.57834506659E+03  0.47000000000E+01 0. -1.
         -5    1    4    4    0  502 -0.32702317559E+02  0.20698710758E+02 -0.41680723054E+02  0.57072330205E+02  0.47000000000E+01 0. -1.
          5    1    5    5  503    0  0.24075024299E+02 -0.10490186887E+02 -0.60674271758E+03  0.60732896041E+03  0.47000000000E+01 0. -1.
         -5    1    5    5    0  503  0.39018602282E+02 -0.18775394508E+02 -0.72444212927E+02  0.84529407602E+02  0.47000000000E+01 0. -1.
<mgrwt>
<rscale>  0 0.27567662E+03</rscale>
<asrwt>0</asrwt>
<pdfrwt beam="1">  1        1 0.20196975E+00 0.27567662E+03</pdfrwt>
<pdfrwt beam="2">  1       -1 0.22265213E-02 0.27567662E+03</pdfrwt>
<totfact> 0.56023019E+03</totfact>
</mgrwt>
</event>
<event>
 9    1  0.2054950E-002  0.2751860E+03  0.7818608E-02  0.1098348E+00
         -1   -1    0    0    0  501 -0.00000000000E+00  0.00000000000E+00  0.66929205744E+01  0.66929205744E+01  0.00000000000E+00 0.  1.
          1   -1    0    0  501    0  0.00000000000E+00 -0.00000000000E+00 -0.28286357832E+04  0.28286357832E+04  0.00000000000E+00 0.  1.
         36    2    1    2    0    0 -0.71054273576E-14  0.00000000000E+00 -0.28219428626E+04  0.28353287038E+04  0.27518600714E+03 0.  0.
         25    2    3    3    0    0  0.27463779757E+02  0.19418335478E+02 -0.18578722313E+04  0.18625545897E+04  0.12762852715E+03 0.  0.
         25    2    3    3    0    0 -0.27463779757E+02 -0.19418335478E+02 -0.96407063133E+03  0.97277411405E+03  0.12540320497E+03 0.  0.
          5    1    4    4  502    0 -0.12045615214E+02  0.44275795273E+01 -0.20191795903E+02  0.24382348701E+02  0.47000000000E+01 0. -1.
         -5    1    4    4    0  502  0.39509394972E+02  0.14990755951E+02 -0.18376804354E+04  0.18381722410E+04  0.47000000000E+01 0. -1.
          5    1    5    5  503    0 -0.52297214488E+02  0.12879541046E+02 -0.18796922520E+03  0.19558987919E+03  0.47000000000E+01 0. -1.
         -5    1    5    5    0  503  0.24833434730E+02 -0.32297876525E+02 -0.77610140613E+03  0.77718423486E+03  0.47000000000E+01 0. -1.
<mgrwt>
<rscale>  0 0.27518601E+03</rscale>
<asrwt>0</asrwt>
<pdfrwt beam="1">  1        1 0.43517606E+00 0.27518601E+03</pdfrwt>
<pdfrwt beam="2">  1       -1 0.10296770E-02 0.27518601E+03</pdfrwt>
<totfact> 0.17152981E+03</totfact>
</mgrwt>
</event>
<event>
 9    1  0.2054950E-002  0.2881720E+03  0.7818608E-02  0.1091307E+00
         -2   -1    0    0    0  501 -0.00000000000E+00  0.00000000000E+00  0.89766214610E+03  0.89766214610E+03  0.00000000000E+00 0.  1.
          2   -1    0    0  501    0  0.00000000000E+00 -0.00000000000E+00 -0.23127609571E+02  0.23127609571E+02  0.00000000000E+00 0.  1.
         36    2    1    2    0    0  0.35527136788E-14  0.71054273576E-14  0.87453453653E+03  0.92078975567E+03  0.28817202946E+03 0.  0.
         25    2    3    3    0    0  0.30238499852E+02 -0.40036889584E+02  0.29468327327E+03  0.32443298514E+03  0.12610000359E+03 0.  0.
         25    2    3    3    0    0 -0.30238499852E+02  0.40036889584E+02  0.57985126327E+03  0.59635677053E+03  0.12998688721E+03 0.  0.
          5    1    4    4  502    0  0.78353589154E+01  0.39529901429E+02  0.41420827393E+02  0.57980866657E+02  0.47000000000E+01 0.  1.
         -5    1    4    4    0  502  0.22403140937E+02 -0.79566791013E+02  0.25326244587E+03  0.26645211849E+03  0.47000000000E+01 0.  1.
          5    1    5    5  503    0  0.49802362268E+02  0.12322995547E+02  0.16251542089E+03  0.17048602152E+03  0.47000000000E+01 0.  1.
         -5    1    5    5    0  503 -0.80040862120E+02  0.27713894037E+02  0.41733584238E+03  0.42587074901E+03  0.47000000000E+01 0.  1.
<mgrwt>
<rscale>  0 0.28817203E+03</rscale>
<asrwt>0</asrwt>
<pdfrwt beam="1">  1        2 0.35580945E-02 0.28817203E+03</pdfrwt>
<pdfrwt beam="2">  1       -2 0.13810184E+00 0.28817203E+03</pdfrwt>
<totfact> 0.97472588E+02</totfact>
</mgrwt>
</event>
<event>
 9    1  0.2054950E-002  0.2732129E+03  0.7818608E-02  0.1099455E+00
         -2   -1    0    0    0  501 -0.00000000000E+00  0.00000000000E+00  0.14337886799E+03  0.14337886799E+03  0.00000000000E+00 0.  1.
          2   -1    0    0  501    0  0.00000000000E+00 -0.00000000000E+00 -0.13015394453E+03  0.13015394453E+03  0.00000000000E+00 0.  1.
         36    2    1    2    0    0  0.71054273576E-14 -0.71054273576E-14  0.13224923457E+02  0.27353281252E+03  0.27321292232E+03 0.  0.
         25    2    3    3    0    0  0.47476147531E+02 -0.49527151003E+01  0.17132732483E+02  0.14012067184E+03  0.13062066523E+03 0.  0.
         25    2    3    3    0    0 -0.47476147531E+02  0.49527151003E+01 -0.39078090260E+01  0.13341214068E+03  0.12451913241E+03 0.  0.
          5    1    4    4  502    0  0.45519684904E+02 -0.64248763466E+02  0.29250526885E+01  0.78934094369E+02  0.47000000000E+01 0. -1.
         -5    1    4    4    0  502  0.19564626277E+01  0.59296048365E+02  0.14207679795E+02  0.61186577474E+02  0.47000000000E+01 0. -1.
          5    1    5    5  503    0 -0.42074898288E+02 -0.28492428825E+02  0.48780578899E+02  0.70595682899E+02  0.47000000000E+01 0. -1.
         -5    1    5    5    0  503 -0.54012492430E+01  0.33445143925E+02 -0.52688387925E+02  0.62816457777E+02  0.47000000000E+01 0. -1.
<mgrwt>
<rscale>  0 0.27321292E+03</rscale>
<asrwt>0</asrwt>
<pdfrwt beam="1">  1        2 0.20023684E-01 0.27321292E+03</pdfrwt>
<pdfrwt beam="2">  1       -2 0.22058287E-01 0.27321292E+03</pdfrwt>
<totfact> 0.48818812E+03</totfact>
</mgrwt>
</event>
<event>
 9    1  0.2054950E-002  0.2751086E+03  0.7818608E-02  0.1098391E+00
          2   -1    0    0  501    0  0.00000000000E+00  0.00000000000E+00  0.13250917244E+04  0.13250917244E+04  0.00000000000E+00 0.  1.
         -2   -1    0    0    0  501 -0.00000000000E+00 -0.00000000000E+00 -0.14279154016E+02  0.14279154016E+02  0.00000000000E+00 0.  1.
         36    2    1    2    0    0  0.17763568394E-14  0.71054273576E-14  0.13108125704E+04  0.13393708784E+04  0.27510862450E+03 0.  0.
         25    2    3    3    0    0  0.96101527972E+01 -0.20736214200E+02  0.68350555740E+03  0.69471607289E+03  0.12218113325E+03 0.  0.
         25    2    3    3    0    0 -0.96101527972E+01  0.20736214200E+02  0.62730701300E+03  0.64465480554E+03  0.14677664709E+03 0.  0.
          5    1    4    4  502    0 -0.61668531316E+01 -0.70979032353E+02  0.38539334954E+03  0.39195175338E+03  0.47000000000E+01 0. -1.
         -5    1    4    4    0  502  0.15777005929E+02  0.50242818153E+02  0.29811220786E+03  0.30276431951E+03  0.47000000000E+01 0. -1.
          5    1    5    5  503    0 -0.20426533966E+02 -0.59161513337E+02  0.19448081830E+03  0.20435803541E+03  0.47000000000E+01 0.  1.
         -5    1    5    5    0  503  0.10816381169E+02  0.79897727537E+02  0.43282619470E+03  0.44029677013E+03  0.47000000000E+01 0.  1.
<mgrwt>
<rscale>  0 0.27510862E+03</rscale>
<asrwt>0</asrwt>
<pdfrwt beam="1">  1        2 0.20386017E+00 0.27510862E+03</pdfrwt>
<pdfrwt beam="2">  1       -2 0.21967940E-02 0.27510862E+03</pdfrwt>
<totfact> 0.11428883E+04</totfact>
</mgrwt>
</event>
<event>
 9    1  0.2054950E-002  0.2748814E+03  0.7818608E-02  0.1098518E+00
         -1   -1    0    0    0  501 -0.00000000000E+00  0.00000000000E+00  0.35315626602E+03  0.35315626602E+03  0.00000000000E+00 0.  1.
          1   -1    0    0  501    0  0.00000000000E+00 -0.00000000000E+00 -0.53488916624E+02  0.53488916624E+02  0.00000000000E+00 0.  1.
         36    2    1    2    0    0 -0.71054273576E-14  0.00000000000E+00  0.29966734939E+03  0.40664518264E+03  0.27488140038E+03 0.  0.
         25    2    3    3    0    0 -0.34455144587E+02  0.38433934202E+02  0.16196646736E+03  0.21075097974E+03  0.12457333031E+03 0.  0.
         25    2    3    3    0    0  0.34455144587E+02 -0.38433934202E+02  0.13770088203E+03  0.19589420290E+03  0.12941669726E+03 0.  0.
          5    1    4    4  502    0 -0.54957474679E+02  0.44831457207E+01  0.13440176647E+02  0.56948669580E+02  0.47000000000E+01 0. -1.
         -5    1    4    4    0  502  0.20502330092E+02  0.33950788482E+02  0.14852629071E+03  0.15380231016E+03  0.47000000000E+01 0. -1.
          5    1    5    5  503    0 -0.11444093245E+02 -0.75558917321E+02  0.98985582974E+02  0.12514133168E+03  0.47000000000E+01 0.  1.
         -5    1    5    5    0  503  0.45899237832E+02  0.37124983119E+02  0.38715299056E+02  0.70752871222E+02  0.47000000000E+01 0.  1.
<mgrwt>
<rscale>  0 0.27488140E+03</rscale>
<asrwt>0</asrwt>
<pdfrwt beam="1">  1        1 0.82290643E-02 0.27488140E+03</pdfrwt>
<pdfrwt beam="2">  1       -1 0.54331732E-01 0.27488140E+03</pdfrwt>
<totfact> 0.29300704E+03</totfact>
</mgrwt>
</event>
<event>
 9    1  0.2054950E-002  0.2753421E+03  0.7818608E-02  0.1098261E+00
          2   -1    0    0  501    0  0.00000000000E+00  0.00000000000E+00  0.15985712720E+04  0.15985712720E+04  0.00000000000E+00 0.  1.
         -2   -1    0    0    0  501 -0.00000000000E+00 -0.00000000000E+00 -0.11856411352E+02  0.11856411352E+02  0.00000000000E+00 0.  1.
         36    2    1    2    0    0  0.00000000000E+00  0.00000000000E+00  0.15867148606E+04  0.16104276833E+04  0.27534210412E+03 0.  0.
         25    2    3    3    0    0  0.44248661676E+02 -0.38187103841E+02  0.62781696550E+03  0.64175022500E+03  0.11946970390E+03 0.  0.
         25    2    3    3    0    0 -0.44248661676E+02  0.38187103841E+02  0.95889789511E+03  0.96867745832E+03  0.12423625095E+03 0.  0.
          5    1    4    4  502    0  0.83204884154E+02 -0.41507476539E+02  0.46613338048E+03  0.47534023788E+03  0.47000000000E+01 0.  1.
         -5    1    4    4    0  502 -0.38956222478E+02  0.33203726984E+01  0.16168358503E+03  0.16640998712E+03  0.47000000000E+01 0.  1.
          5    1    5    5  503    0  0.22174116237E+02 -0.78314712848E+01  0.61167046473E+03  0.61214040122E+03  0.47000000000E+01 0.  1.
         -5    1    5    5    0  503 -0.66422777913E+02  0.46018575125E+02  0.34722743038E+03  0.35653705710E+03  0.47000000000E+01 0.  1.
<mgrwt>
<rscale>  0 0.27534210E+03</rscale>
<asrwt>0</asrwt>
<pdfrwt beam="1">  1        2 0.24593387E+00 0.27534210E+03</pdfrwt>
<pdfrwt beam="2">  1       -2 0.18240646E-02 0.27534210E+03</pdfrwt>
<totfact> 0.10702399E+04</totfact>
</mgrwt>
</event>
<event>
 9    1  0.2054950E-002  0.2750110E+03  0.7818608E-02  0.1098445E+00
          1   -1    0    0  501    0  0.00000000000E+00  0.00000000000E+00  0.47776066085E+03  0.47776066085E+03  0.00000000000E+00 0. -1.
         -1   -1    0    0    0  501 -0.00000000000E+00 -0.00000000000E+00 -0.39575817480E+02  0.39575817480E+02  0.00000000000E+00 0. -1.
         36    2    1    2    0    0  0.00000000000E+00  0.35527136788E-14  0.43818484337E+03  0.51733647833E+03  0.27501104496E+03 0.  0.
         25    2    3    3    0    0 -0.47944752125E+02 -0.24870588421E+02  0.19794574885E+03  0.24035371997E+03  0.12518045291E+03 0.  0.
         25    2    3    3    0    0  0.47944752125E+02  0.24870588421E+02  0.24023909452E+03  0.27698275836E+03  0.12683603773E+03 0.  0.
          5    1    4    4  502    0 -0.17413416066E+02 -0.27422820994E+02  0.20578124747E+03  0.20838246083E+03  0.47000000000E+01 0.  1.
         -5    1    4    4    0  502 -0.30531336059E+02  0.25522325730E+01 -0.78354986199E+01  0.31971259145E+02  0.47000000000E+01 0.  1.
          5    1    5    5  503    0 -0.23203544784E+02 -0.35136696879E+02  0.99965036028E+02  0.10857297263E+03  0.47000000000E+01 0. -1.
         -5    1    5    5    0  503  0.71148296909E+02  0.60007285300E+02  0.14027405849E+03  0.16840978572E+03  0.47000000000E+01 0. -1.
<mgrwt>
<rscale>  0 0.27501104E+03</rscale>
<asrwt>0</asrwt>
<pdfrwt beam="1">  1        1 0.73501636E-01 0.27501104E+03</pdfrwt>
<pdfrwt beam="2">  1       -1 0.60885876E-02 0.27501104E+03</pdfrwt>
<totfact> 0.62394549E+03</totfact>
</mgrwt>
</event>
<event>
 9    1  0.2054950E-002  0.2729914E+03  0.7818608E-02  0.1099580E+00
          2   -1    0    0  501    0  0.00000000000E+00  0.00000000000E+00  0.12400775067E+04  0.12400775067E+04  0.00000000000E+00 0.  1.
         -2   -1    0    0    0  501 -0.00000000000E+00 -0.00000000000E+00 -0.15024121917E+02  0.15024121917E+02  0.00000000000E+00 0.  1.
         36    2    1    2    0    0  0.00000000000E+00 -0.35527136788E-14  0.12250533847E+04  0.12551016286E+04  0.27299139655E+03 0.  0.
         25    2    3    3    0    0 -0.57802792573E+02  0.29029710343E+02  0.56109772479E+03  0.57546176217E+03  0.11018936448E+03 0.  0.
         25    2    3    3    0    0  0.57802792573E+02 -0.29029710343E+02  0.66395565995E+03  0.67963986640E+03  0.12995900397E+03 0.  0.
          5    1    4    4  502    0 -0.24042804128E+02  0.44572683338E+02  0.50765581163E+03  0.51019730851E+03  0.47000000000E+01 0. -1.
         -5    1    4    4    0  502 -0.33759988445E+02 -0.15542972995E+02  0.53441913158E+02  0.65264453658E+02  0.47000000000E+01 0. -1.
          5    1    5    5  503    0  0.12179225521E+02 -0.75404678332E+02  0.28415979328E+03  0.29428400767E+03  0.47000000000E+01 0. -1.
         -5    1    5    5    0  503  0.45623567052E+02  0.46374967989E+02  0.37979586667E+03  0.38535585874E+03  0.47000000000E+01 0. -1.
<mgrwt>
<rscale>  0 0.27299140E+03</rscale>
<asrwt>0</asrwt>
<pdfrwt beam="1">  1        2 0.19078107E+00 0.27299140E+03</pdfrwt>
<pdfrwt beam="2">  1       -2 0.23114043E-02 0.27299140E+03</pdfrwt>
<totfact> 0.11819503E+04</totfact>
</mgrwt>
</event>
<event>
 9    1  0.2054950E-002  0.2672059E+03  0.7818608E-02  0.1102889E+00
         -2   -1    0    0    0  501 -0.00000000000E+00  0.00000000000E+00  0.60878045088E+02  0.60878045088E+02  0.00000000000E+00 0. -1.
          2   -1    0    0  501    0  0.00000000000E+00 -0.00000000000E+00 -0.29320502087E+03  0.29320502087E+03  0.00000000000E+00 0. -1.
         36    2    1    2    0    0  0.35527136788E-14  0.14210854715E-13 -0.23232697578E+03  0.35408306596E+03  0.26720590173E+03 0.  0.
         25    2    3    3    0    0  0.70292324172E+01  0.45190965621E+02 -0.88880159535E+02  0.15875900873E+03  0.12334142293E+03 0.  0.
         25    2    3    3    0    0 -0.70292324172E+01 -0.45190965621E+02 -0.14344681624E+03  0.19532405723E+03  0.12443016017E+03 0.  0.
          5    1    4    4  502    0 -0.36396868579E+02 -0.15041622892E+01  0.12586320066E+02  0.38826537308E+02  0.47000000000E+01 0.  1.
         -5    1    4    4    0  502  0.43426100996E+02  0.46695127910E+02 -0.10146647960E+03  0.11993247142E+03  0.47000000000E+01 0.  1.
          5    1    5    5  503    0 -0.37238150067E+02 -0.55344578732E+02 -0.14836263463E+03  0.16273679230E+03  0.47000000000E+01 0.  1.
         -5    1    5    5    0  503  0.30208917650E+02  0.10153613110E+02  0.49158183847E+01  0.32587264923E+02  0.47000000000E+01 0.  1.
<mgrwt>
<rscale>  0 0.26720590E+03</rscale>
<asrwt>0</asrwt>
<pdfrwt beam="1">  1        2 0.45108466E-01 0.26720590E+03</pdfrwt>
<pdfrwt beam="2">  1       -2 0.93658529E-02 0.26720590E+03</pdfrwt>
<totfact> 0.81820089E+03</totfact>
</mgrwt>
</event>
<event>
 9    1  0.2054950E-002  0.2746425E+03  0.7818608E-02  0.1098652E+00
         -2   -1    0    0    0  501 -0.00000000000E+00  0.00000000000E+00  0.96128971699E+02  0.96128971699E+02  0.00000000000E+00 0.  1.
          2   -1    0    0  501    0  0.00000000000E+00 -0.00000000000E+00 -0.19616484287E+03  0.19616484287E+03  0.00000000000E+00 0.  1.
         36    2    1    2    0    0  0.71054273576E-14  0.00000000000E+00 -0.10003587117E+03  0.29229381457E+03  0.27464249219E+03 0.  0.
         25    2    3    3    0    0 -0.25745712454E+02 -0.29804376167E+02 -0.86217949578E+02  0.16039145686E+03  0.12938601956E+03 0.  0.
         25    2    3    3    0    0  0.25745712454E+02  0.29804376167E+02 -0.13817921595E+02  0.13190235771E+03  0.12512455579E+03 0.  0.
          5    1    4    4  502    0  0.50393539912E+02 -0.15061476364E+02 -0.14755346056E+02  0.54828525171E+02  0.47000000000E+01 0. -1.
         -5    1    4    4    0  502 -0.76139252366E+02 -0.14742899803E+02 -0.71462603522E+02  0.10556293169E+03  0.47000000000E+01 0. -1.
          5    1    5    5  503    0  0.58011152139E+02  0.25071380104E+02  0.35464955206E+02  0.72620389152E+02  0.47000000000E+01 0. -1.
         -5    1    5    5    0  503 -0.32265439685E+02  0.47329960639E+01 -0.49282876801E+02  0.59281968554E+02  0.47000000000E+01 0. -1.
<mgrwt>
<rscale>  0 0.27464249E+03</rscale>
<asrwt>0</asrwt>
<pdfrwt beam="1">  1        2 0.30179207E-01 0.27464249E+03</pdfrwt>
<pdfrwt beam="2">  1       -2 0.14789073E-01 0.27464249E+03</pdfrwt>
<totfact> 0.60597928E+03</totfact>
</mgrwt>
</event>
<event>
 9    1  0.2054950E-002  0.2746253E+03  0.7818608E-02  0.1098661E+00
          1   -1    0    0  501    0  0.00000000000E+00  0.00000000000E+00  0.10110348014E+03  0.10110348014E+03  0.00000000000E+00 0. -1.
         -1   -1    0    0    0  501 -0.00000000000E+00 -0.00000000000E+00 -0.18648977500E+03  0.18648977500E+03  0.00000000000E+00 0. -1.
         36    2    1    2    0    0 -0.71054273576E-14  0.00000000000E+00 -0.85386294859E+02  0.28759325513E+03  0.27462531028E+03 0.  0.
         25    2    3    3    0    0 -0.77046981162E+01 -0.25262757403E+02  0.14301751422E+02  0.12723358973E+03  0.12363768430E+03 0.  0.
         25    2    3    3    0    0  0.77046981162E+01  0.25262757403E+02 -0.99688046281E+02  0.16035966540E+03  0.12280043335E+03 0.  0.
          5    1    4    4  502    0 -0.40574346924E+02 -0.19311703418E+01 -0.41483380351E+02  0.58249187913E+02  0.47000000000E+01 0.  1.
         -5    1    4    4    0  502  0.32869648808E+02 -0.23331587061E+02  0.55785131773E+02  0.68984401821E+02  0.47000000000E+01 0.  1.
          5    1    5    5  503    0  0.59988141563E+02 -0.11562282879E+02 -0.53381351740E+02  0.81264520101E+02  0.47000000000E+01 0.  1.
         -5    1    5    5    0  503 -0.52283443447E+02  0.36825040282E+02 -0.46306694541E+02  0.79095145298E+02  0.47000000000E+01 0.  1.
<mgrwt>
<rscale>  0 0.27462531E+03</rscale>
<asrwt>0</asrwt>
<pdfrwt beam="1">  1        1 0.15554382E-01 0.27462531E+03</pdfrwt>
<pdfrwt beam="2">  1       -1 0.28690735E-01 0.27462531E+03</pdfrwt>
<totfact> 0.38948610E+03</totfact>
</mgrwt>
</event>
<event>
 9    1  0.2054950E-002  0.2750941E+03  0.7818608E-02  0.1098399E+00
          2   -1    0    0  501    0  0.00000000000E+00  0.00000000000E+00  0.53040730853E+02  0.53040730853E+02  0.00000000000E+00 0. -1.
         -2   -1    0    0    0  501 -0.00000000000E+00 -0.00000000000E+00 -0.35669164602E+03  0.35669164602E+03  0.00000000000E+00 0. -1.
         36    2    1    2    0    0  0.00000000000E+00  0.71054273576E-14 -0.30365091517E+03  0.40973237688E+03  0.27509406096E+03 0.  0.
         25    2    3    3    0    0 -0.43290420868E+02 -0.27607049321E+02 -0.15128191416E+03  0.20298607399E+03  0.12522347612E+03 0.  0.
         25    2    3    3    0    0  0.43290420868E+02  0.27607049321E+02 -0.15236900101E+03  0.20674630288E+03  0.12996734811E+03 0.  0.
          5    1    4    4  502    0 -0.65259472467E+02 -0.64050920910E+02 -0.91389958501E+02  0.12936589091E+03  0.47000000000E+01 0. -1.
         -5    1    4    4    0  502  0.21969051598E+02  0.36443871589E+02 -0.59891955662E+02  0.73620183085E+02  0.47000000000E+01 0. -1.
          5    1    5    5  503    0  0.34274393330E+02  0.50516539866E+02 -0.16689876677E+03  0.17777497908E+03  0.47000000000E+01 0.  1.
         -5    1    5    5    0  503  0.90160275383E+01 -0.22909490545E+02  0.14529765763E+02  0.28971323800E+02  0.47000000000E+01 0.  1.
<mgrwt>
<rscale>  0 0.27509406E+03</rscale>
<asrwt>0</asrwt>
<pdfrwt beam="1">  1        2 0.81601122E-02 0.27509406E+03</pdfrwt>
<pdfrwt beam="2">  1       -2 0.54875639E-01 0.27509406E+03</pdfrwt>
<totfact> 0.26282125E+03</totfact>
</mgrwt>
</event>
<event>
 9    1  0.2054950E-002  0.2748215E+03  0.7818608E-02  0.1098551E+00
         -1   -1    0    0    0  501 -0.00000000000E+00  0.00000000000E+00  0.43984452596E+03  0.43984452596E+03  0.00000000000E+00 0.  1.
          1   -1    0    0  501    0  0.00000000000E+00 -0.00000000000E+00 -0.42928161775E+02  0.42928161775E+02  0.00000000000E+00 0.  1.
         36    2    1    2    0    0  0.35527136788E-14  0.00000000000E+00  0.39691636418E+03  0.48277268773E+03  0.27482152002E+03 0.  0.
         25    2    3    3    0    0  0.30802385025E+02 -0.20334770708E+02  0.30316980654E+03  0.32985669069E+03  0.12462429527E+03 0.  0.
         25    2    3    3    0    0 -0.30802385025E+02  0.20334770708E+02  0.93746557643E+02  0.15291599705E+03  0.11503301813E+03 0.  0.
          5    1    4    4  502    0  0.58728911876E+02 -0.15911226162E+02  0.62023622012E+02  0.87013055891E+02  0.47000000000E+01 0.  1.
         -5    1    4    4    0  502 -0.27926526851E+02 -0.44235445464E+01  0.24114618453E+03  0.24284363480E+03  0.47000000000E+01 0.  1.
          5    1    5    5  503    0  0.78479573417E+01  0.17829394169E+01 -0.24946200757E+02  0.26630288012E+02  0.47000000000E+01 0. -1.
         -5    1    5    5    0  503 -0.38650342367E+02  0.18551831291E+02  0.11869275840E+03  0.12628570903E+03  0.47000000000E+01 0. -1.
<mgrwt>
<rscale>  0 0.27482152E+03</rscale>
<asrwt>0</asrwt>
<pdfrwt beam="1">  1        1 0.66043329E-02 0.27482152E+03</pdfrwt>
<pdfrwt beam="2">  1       -1 0.67668386E-01 0.27482152E+03</pdfrwt>
<totfact> 0.25899156E+03</totfact>
</mgrwt>
</event>
<event>
 9    1  0.2054950E-002  0.2749734E+03  0.7818608E-02  0.1098466E+00
          2   -1    0    0  501    0  0.00000000000E+00  0.00000000000E+00  0.97369516435E+03  0.97369516435E+03  0.00000000000E+00 0.  1.
         -2   -1    0    0    0  501 -0.00000000000E+00 -0.00000000000E+00 -0.19413252150E+02  0.19413252150E+02  0.00000000000E+00 0.  1.
         36    2    1    2    0    0  0.71054273576E-14  0.13322676296E-14  0.95428191220E+03  0.99310841650E+03  0.27497337866E+03 0.  0.
         25    2    3    3    0    0  0.10069750781E+02  0.19544665709E+01  0.53030874465E+03  0.54915506023E+03  0.14226276993E+03 0.  0.
         25    2    3    3    0    0 -0.10069750781E+02 -0.19544665709E+01  0.42397316755E+03  0.44395335627E+03  0.13128638892E+03 0.  0.
          5    1    4    4  502    0  0.75468532489E+02  0.33958737839E+01  0.32146798938E+03  0.33025867067E+03  0.47000000000E+01 0. -1.
         -5    1    4    4    0  502 -0.65398781708E+02 -0.14414072130E+01  0.20884075527E+03  0.21889638957E+03  0.47000000000E+01 0. -1.
          5    1    5    5  503    0  0.17842945543E+02 -0.52855997027E+02  0.98395955451E+02  0.11320769045E+03  0.47000000000E+01 0.  1.
         -5    1    5    5    0  503 -0.27912696324E+02  0.50901530456E+02  0.32557721210E+03  0.33074566582E+03  0.47000000000E+01 0.  1.
<mgrwt>
<rscale>  0 0.27497338E+03</rscale>
<asrwt>0</asrwt>
<pdfrwt beam="1">  1        2 0.14979922E+00 0.27497338E+03</pdfrwt>
<pdfrwt beam="2">  1       -2 0.29866549E-02 0.27497338E+03</pdfrwt>
<totfact> 0.11594435E+04</totfact>
</mgrwt>
</event>
<event>
 9    1  0.2054950E-002  0.2737101E+03  0.7818608E-02  0.1099175E+00
          3   -1    0    0  501    0  0.00000000000E+00  0.00000000000E+00  0.52624596850E+03  0.52624596850E+03  0.00000000000E+00 0. -1.
         -3   -1    0    0    0  501 -0.00000000000E+00 -0.00000000000E+00 -0.35590395331E+02  0.35590395331E+02  0.00000000000E+00 0. -1.
         36    2    1    2    0    0  0.00000000000E+00  0.35527136788E-14  0.49065557317E+03  0.56183636383E+03  0.27371008064E+03 0.  0.
         25    2    3    3    0    0  0.31327353640E+02  0.22691434956E+02  0.17316790703E+03  0.21796715487E+03  0.12659483509E+03 0.  0.
         25    2    3    3    0    0 -0.31327353640E+02 -0.22691434956E+02  0.31748766614E+03  0.34386920896E+03  0.12629849727E+03 0.  0.
          5    1    4    4  502    0  0.13282327061E+00 -0.17627139386E+02 -0.14586958749E+02  0.23358147411E+02  0.47000000000E+01 0. -1.
         -5    1    4    4    0  502  0.31194530369E+02  0.40318574342E+02  0.18775486577E+03  0.19460900746E+03  0.47000000000E+01 0. -1.
          5    1    5    5  503    0 -0.62651146434E+02 -0.56763111191E+02  0.18512894796E+03  0.20357316698E+03  0.47000000000E+01 0.  1.
         -5    1    5    5    0  503  0.31323792794E+02  0.34071676235E+02  0.13235871819E+03  0.14029604198E+03  0.47000000000E+01 0.  1.
<mgrwt>
<rscale>  0 0.27371008E+03</rscale>
<asrwt>0</asrwt>
<pdfrwt beam="1">  1        3 0.80960913E-01 0.27371008E+03</pdfrwt>
<pdfrwt beam="2">  1       -3 0.54754458E-02 0.27371008E+03</pdfrwt>
<totfact> 0.72795608E+02</totfact>
</mgrwt>
</event>
<event>
 9    1  0.2054950E-002  0.2730392E+03  0.7818608E-02  0.1099553E+00
          1   -1    0    0  501    0  0.00000000000E+00  0.00000000000E+00  0.13456065366E+03  0.13456065366E+03  0.00000000000E+00 0. -1.
         -1   -1    0    0    0  501 -0.00000000000E+00 -0.00000000000E+00 -0.13850706412E+03  0.13850706412E+03  0.00000000000E+00 0. -1.
         36    2    1    2    0    0  0.00000000000E+00  0.00000000000E+00 -0.39464104659E+01  0.27306771778E+03  0.27303919927E+03 0.  0.
         25    2    3    3    0    0 -0.23628063952E+02  0.34377875318E+02 -0.42545746507E+02  0.13698632484E+03  0.12334905322E+03 0.  0.
         25    2    3    3    0    0  0.23628063952E+02 -0.34377875318E+02  0.38599336041E+02  0.13608139294E+03  0.12364510926E+03 0.  0.
          5    1    4    4  502    0 -0.88048105252E+01  0.79646836838E+02 -0.38282763141E+02  0.88931452594E+02  0.47000000000E+01 0.  1.
         -5    1    4    4    0  502 -0.14823253427E+02 -0.45268961521E+02 -0.42629833656E+01  0.48054872245E+02  0.47000000000E+01 0.  1.
          5    1    5    5  503    0  0.96267669634E+01 -0.33761296623E+02 -0.41539606721E+02  0.54590555212E+02  0.47000000000E+01 0. -1.
         -5    1    5    5    0  503  0.14001296989E+02 -0.61657869485E+00  0.80138942762E+02  0.81490837729E+02  0.47000000000E+01 0. -1.
<mgrwt>
<rscale>  0 0.27303920E+03</rscale>
<asrwt>0</asrwt>
<pdfrwt beam="1">  1        1 0.20701639E-01 0.27303920E+03</pdfrwt>
<pdfrwt beam="2">  1       -1 0.21308779E-01 0.27303920E+03</pdfrwt>
<totfact> 0.44058987E+03</totfact>
</mgrwt>
</event>
<event>
 9    1  0.2054950E-002  0.2747277E+03  0.7818608E-02  0.1098604E+00
          1   -1    0    0  501    0  0.00000000000E+00  0.00000000000E+00  0.24581095416E+03  0.24581095416E+03  0.00000000000E+00 0.  1.
         -1   -1    0    0    0  501 -0.00000000000E+00 -0.00000000000E+00 -0.76761548639E+02  0.76761548639E+02  0.00000000000E+00 0.  1.
         36    2    1    2    0    0  0.71054273576E-14 -0.71054273576E-14  0.16904940552E+03  0.32257250280E+03  0.27472771621E+03 0.  0.
         25    2    3    3    0    0  0.57607324303E+02 -0.36984516363E+02  0.77485691847E+02  0.15167713514E+03  0.11097505405E+03 0.  0.
         25    2    3    3    0    0 -0.57607324303E+02  0.36984516363E+02  0.91563713675E+02  0.17089536766E+03  0.12702304815E+03 0.  0.
          5    1    4    4  502    0  0.89419270681E+02 -0.19033080294E+02  0.66817307424E+02  0.11333449028E+03  0.47000000000E+01 0.  1.
         -5    1    4    4    0  502 -0.31811946378E+02 -0.17951436069E+02  0.10668384423E+02  0.38342644868E+02  0.47000000000E+01 0.  1.
          5    1    5    5  503    0  0.14627553163E+02  0.63482557960E+02  0.28338169896E+02  0.71197909729E+02  0.47000000000E+01 0.  1.
         -5    1    5    5    0  503 -0.72234877466E+02 -0.26498041597E+02  0.63225543780E+02  0.99697457928E+02  0.47000000000E+01 0.  1.
<mgrwt>
<rscale>  0 0.27472772E+03</rscale>
<asrwt>0</asrwt>
<pdfrwt beam="1">  1        1 0.37817070E-01 0.27472772E+03</pdfrwt>
<pdfrwt beam="2">  1       -1 0.11809469E-01 0.27472772E+03</pdfrwt>
<totfact> 0.52641492E+03</totfact>
</mgrwt>
</event>
<event>
 9    1  0.2054950E-002  0.2755750E+03  0.7818608E-02  0.1098131E+00
         -1   -1    0    0    0  501 -0.00000000000E+00  0.00000000000E+00  0.18592985696E+02  0.18592985696E+02  0.00000000000E+00 0. -1.
          1   -1    0    0  501    0  0.00000000000E+00 -0.00000000000E+00 -0.10211053338E+04  0.10211053338E+04  0.00000000000E+00 0. -1.
         36    2    1    2    0    0  0.00000000000E+00  0.00000000000E+00 -0.10025123481E+04  0.10396983195E+04  0.27557501241E+03 0.  0.
         25    2    3    3    0    0  0.27375130852E+02  0.37815445656E+02 -0.58213982883E+03  0.59845879614E+03  0.13071627536E+03 0.  0.
         25    2    3    3    0    0 -0.27375130852E+02 -0.37815445656E+02 -0.42037251929E+03  0.44123952337E+03  0.12569747927E+03 0.  0.
          5    1    4    4  502    0 -0.45245914250E+01  0.18816328510E+02 -0.54622697666E+03  0.54658990677E+03  0.47000000000E+01 0.  1.
         -5    1    4    4    0  502  0.31899722277E+02  0.18999117146E+02 -0.35912852169E+02  0.51868889371E+02  0.47000000000E+01 0. -1.
          5    1    5    5  503    0 -0.63182000526E+02  0.17843563638E+02 -0.24654114257E+03  0.25517637613E+03  0.47000000000E+01 0. -1.
         -5    1    5    5    0  503  0.35806869674E+02 -0.55659009293E+02 -0.17383137671E+03  0.18606314724E+03  0.47000000000E+01 0. -1.
<mgrwt>
<rscale>  0 0.27557501E+03</rscale>
<asrwt>0</asrwt>
<pdfrwt beam="1">  1        1 0.15709315E+00 0.27557501E+03</pdfrwt>
<pdfrwt beam="2">  1       -1 0.28604590E-02 0.27557501E+03</pdfrwt>
<totfact> 0.62375777E+03</totfact>
</mgrwt>
</event>
<event>
 9    1  0.2054950E-002  0.2752175E+03  0.7818608E-02  0.1098330E+00
          2   -1    0    0  501    0  0.00000000000E+00  0.00000000000E+00  0.46968087864E+03  0.46968087864E+03  0.00000000000E+00 0. -1.
         -2   -1    0    0    0  501 -0.00000000000E+00 -0.00000000000E+00 -0.40317093162E+02  0.40317093162E+02  0.00000000000E+00 0. -1.
         36    2    1    2    0    0  0.35527136788E-14  0.00000000000E+00  0.42936378548E+03  0.50999797180E+03  0.27521749756E+03 0.  0.
         25    2    3    3    0    0 -0.11206421363E+02  0.26484049306E+02  0.29746078362E+03  0.32454103240E+03  0.12655818888E+03 0.  0.
         25    2    3    3    0    0  0.11206421363E+02 -0.26484049306E+02  0.13190300186E+03  0.18545693940E+03  0.12715693346E+03 0.  0.
          5    1    4    4  502    0 -0.52979488856E+02 -0.11420292329E+02  0.62501060448E+02  0.82859651662E+02  0.47000000000E+01 0.  1.
         -5    1    4    4    0  502  0.41773067494E+02  0.37904341635E+02  0.23495972317E+03  0.24168138073E+03  0.47000000000E+01 0.  1.
          5    1    5    5  503    0  0.35708406645E+02 -0.68411035258E+02  0.56949066524E+02  0.96023154646E+02  0.47000000000E+01 0. -1.
         -5    1    5    5    0  503 -0.24501985282E+02  0.41926985952E+02  0.74953935336E+02  0.89433784758E+02  0.47000000000E+01 0. -1.
<mgrwt>
<rscale>  0 0.27521750E+03</rscale>
<asrwt>0</asrwt>
<pdfrwt beam="1">  1        2 0.72258593E-01 0.27521750E+03</pdfrwt>
<pdfrwt beam="2">  1       -2 0.62026301E-02 0.27521750E+03</pdfrwt>
<totfact> 0.93355803E+03</totfact>
</mgrwt>
</event>
<event>
 9    1  0.2054950E-002  0.2754763E+03  0.7818608E-02  0.1098186E+00
          1   -1    0    0  501    0  0.00000000000E+00  0.00000000000E+00  0.59153050400E+03  0.59153050400E+03  0.00000000000E+00 0.  1.
         -1   -1    0    0    0  501 -0.00000000000E+00 -0.00000000000E+00 -0.32072380350E+02  0.32072380350E+02  0.00000000000E+00 0.  1.
         36    2    1    2    0    0  0.00000000000E+00  0.00000000000E+00  0.55945812365E+03  0.62360288435E+03  0.27547625170E+03 0.  0.
         25    2    3    3    0    0 -0.39700952287E+02 -0.40964918147E+02  0.23320781493E+03  0.26989554371E+03  0.12330218750E+03 0.  0.
         25    2    3    3    0    0  0.39700952287E+02  0.40964918147E+02  0.32625030873E+03  0.35370734064E+03  0.12415848239E+03 0.  0.
          5    1    4    4  502    0  0.35105086561E+02 -0.25696296298E+02  0.15268727545E+03  0.15883375218E+03  0.47000000000E+01 0. -1.
         -5    1    4    4    0  502 -0.74806038848E+02 -0.15268621849E+02  0.80520539472E+02  0.11106179153E+03  0.47000000000E+01 0. -1.
          5    1    5    5  503    0  0.30518610390E+02 -0.29864012931E+02  0.22878673402E+03  0.23278467414E+03  0.47000000000E+01 0.  1.
         -5    1    5    5    0  503  0.91823418966E+01  0.70828931078E+02  0.97463574703E+02  0.12092266650E+03  0.47000000000E+01 0.  1.
<mgrwt>
<rscale>  0 0.27547625E+03</rscale>
<asrwt>0</asrwt>
<pdfrwt beam="1">  1        1 0.91004684E-01 0.27547625E+03</pdfrwt>
<pdfrwt beam="2">  1       -1 0.49342128E-02 0.27547625E+03</pdfrwt>
<totfact> 0.64177469E+03</totfact>
</mgrwt>
</event>
<event>
 9    1  0.2054950E-002  0.2750223E+03  0.7818608E-02  0.1098439E+00
          2   -1    0    0  501    0  0.00000000000E+00  0.00000000000E+00  0.18540983998E+04  0.18540983998E+04  0.00000000000E+00 0.  1.
         -2   -1    0    0    0  501 -0.00000000000E+00 -0.00000000000E+00 -0.10198658344E+02  0.10198658344E+02  0.00000000000E+00 0.  1.
         36    2    1    2    0    0  0.44408920985E-14  0.00000000000E+00  0.18438997414E+04  0.18642970581E+04  0.27502229812E+03 0.  0.
         25    2    3    3    0    0 -0.78520066515E+01 -0.52792015944E+02  0.10157502195E+04  0.10250739767E+04  0.12719865705E+03 0.  0.
         25    2    3    3    0    0  0.78520066515E+01  0.52792015944E+02  0.82814952195E+03  0.83922308143E+03  0.12496038870E+03 0.  0.
          5    1    4    4  502    0  0.35235945174E+02  0.38407527386E+01  0.71847671024E+03  0.71936582930E+03  0.47000000000E+01 0.  1.
         -5    1    4    4    0  502 -0.43087951825E+02 -0.56632768682E+02  0.29727350924E+03  0.30570814739E+03  0.47000000000E+01 0.  1.
          5    1    5    5  503    0  0.10371150005E+02  0.25472112329E+01  0.71736910264E+03  0.71746398409E+03  0.47000000000E+01 0.  1.
         -5    1    5    5    0  503 -0.25191433532E+01  0.50244804711E+02  0.11078041931E+03  0.12175909735E+03  0.47000000000E+01 0.  1.
<mgrwt>
<rscale>  0 0.27502230E+03</rscale>
<asrwt>0</asrwt>
<pdfrwt beam="1">  1        2 0.28524564E+00 0.27502230E+03</pdfrwt>
<pdfrwt beam="2">  1       -2 0.15690258E-02 0.27502230E+03</pdfrwt>
<totfact> 0.97910303E+03</totfact>
</mgrwt>
</event>
<event>
 9    1  0.2054950E-002  0.2705423E+03  0.7818608E-02  0.1100970E+00
          2   -1    0    0  501    0  0.00000000000E+00  0.00000000000E+00  0.26700816145E+04  0.26700816145E+04  0.00000000000E+00 0.  1.
         -2   -1    0    0    0  501 -0.00000000000E+00 -0.00000000000E+00 -0.68530798163E+01  0.68530798163E+01  0.00000000000E+00 0.  1.
         36    2    1    2    0    0  0.88817841970E-15  0.00000000000E+00  0.26632285347E+04  0.26769346944E+04  0.27054228816E+03 0.  0.
         25    2    3    3    0    0  0.23501695226E+01 -0.50257575914E+02  0.13359127046E+04  0.13426324257E+04  0.12436932480E+03 0.  0.
         25    2    3    3    0    0 -0.23501695226E+01  0.50257575914E+02  0.13273158301E+04  0.13343022687E+04  0.12674337874E+03 0.  0.
          5    1    4    4  502    0 -0.23489261672E+00 -0.36465042092E+02  0.98614651823E+02  0.10524587414E+03  0.47000000000E+01 0. -1.
         -5    1    4    4    0  502  0.25850621393E+01 -0.13792533823E+02  0.12372980528E+04  0.12373865516E+04  0.47000000000E+01 0. -1.
          5    1    5    5  503    0 -0.98663420629E+01 -0.40576303861E+02  0.56081678875E+03  0.56238895942E+03  0.47000000000E+01 0. -1.
         -5    1    5    5    0  503  0.75161725403E+01  0.90833879776E+02  0.76649904136E+03  0.77191330923E+03  0.47000000000E+01 0. -1.
<mgrwt>
<rscale>  0 0.27054229E+03</rscale>
<asrwt>0</asrwt>
<pdfrwt beam="1">  1        2 0.41078096E+00 0.27054229E+03</pdfrwt>
<pdfrwt beam="2">  1       -2 0.10543221E-02 0.27054229E+03</pdfrwt>
<totfact> 0.63729587E+03</totfact>
</mgrwt>
</event>
<event>
 9    1  0.2054950E-002  0.2794911E+03  0.7818608E-02  0.1095967E+00
          2   -1    0    0  501    0  0.00000000000E+00  0.00000000000E+00  0.55540346548E+03  0.55540346548E+03  0.00000000000E+00 0. -1.
         -2   -1    0    0    0  501 -0.00000000000E+00 -0.00000000000E+00 -0.35161496788E+02  0.35161496788E+02  0.00000000000E+00 0. -1.
         36    2    1    2    0    0  0.00000000000E+00  0.00000000000E+00  0.52024196870E+03  0.59056496227E+03  0.27949108871E+03 0.  0.
         25    2    3    3    0    0  0.36380674364E+02  0.16708297802E+02  0.12207389371E+03  0.17345490475E+03  0.11654118488E+03 0.  0.
         25    2    3    3    0    0 -0.36380674364E+02 -0.16708297802E+02  0.39816807499E+03  0.41711005752E+03  0.11764464911E+03 0.  0.
          5    1    4    4  502    0  0.70931523022E+02 -0.76250688690E+01  0.42338557797E+02  0.83090710129E+02  0.47000000000E+01 0. -1.
         -5    1    4    4    0  502 -0.34550848658E+02  0.24333366671E+02  0.79735335910E+02  0.90364194620E+02  0.47000000000E+01 0. -1.
          5    1    5    5  503    0 -0.74041093985E+02 -0.28315239807E+02  0.20365324866E+03  0.21858767598E+03  0.47000000000E+01 0. -1.
         -5    1    5    5    0  503  0.37660419622E+02  0.11606942005E+02  0.19451482633E+03  0.19852238154E+03  0.47000000000E+01 0. -1.
<mgrwt>
<rscale>  0 0.27949109E+03</rscale>
<asrwt>0</asrwt>
<pdfrwt beam="1">  1        2 0.85446681E-01 0.27949109E+03</pdfrwt>
<pdfrwt beam="2">  1       -2 0.54094614E-02 0.27949109E+03</pdfrwt>
<totfact> 0.95408435E+03</totfact>
</mgrwt>
</event>
<event>
 9    1  0.2054950E-002  0.2768203E+03  0.7818608E-02  0.1097438E+00
         -4   -1    0    0    0  501 -0.00000000000E+00  0.00000000000E+00  0.33282203921E+02  0.33282203921E+02  0.00000000000E+00 0.  1.
          4   -1    0    0  501    0  0.00000000000E+00 -0.00000000000E+00 -0.57560406740E+03  0.57560406740E+03  0.00000000000E+00 0.  1.
         36    2    1    2    0    0  0.00000000000E+00  0.10658141036E-13 -0.54232186348E+03  0.60888627132E+03  0.27682031680E+03 0.  0.
         25    2    3    3    0    0  0.31459117439E+02  0.27071666164E+02 -0.19716757124E+03  0.23881170163E+03  0.12819292690E+03 0.  0.
         25    2    3    3    0    0 -0.31459117439E+02 -0.27071666164E+02 -0.34515429224E+03  0.37007456969E+03  0.12689030893E+03 0.  0.
          5    1    4    4  502    0  0.54332346210E+01  0.75240499749E+02 -0.83941577582E+02  0.11295543939E+03  0.47000000000E+01 0.  1.
         -5    1    4    4    0  502  0.26025882819E+02 -0.48168833584E+02 -0.11322599366E+03  0.12585626224E+03  0.47000000000E+01 0.  1.
          5    1    5    5  503    0  0.45446198459E+02 -0.25848350632E+02 -0.97831027851E+02  0.11102474587E+03  0.47000000000E+01 0.  1.
         -5    1    5    5    0  503 -0.76905315898E+02 -0.12233155325E+01 -0.24732326439E+03  0.25904982382E+03  0.47000000000E+01 0.  1.
<mgrwt>
<rscale>  0 0.27682032E+03</rscale>
<asrwt>0</asrwt>
<pdfrwt beam="1">  1        4 0.88554459E-01 0.27682032E+03</pdfrwt>
<pdfrwt beam="2">  1       -4 0.51203398E-02 0.27682032E+03</pdfrwt>
<totfact> 0.48671068E+02</totfact>
</mgrwt>
</event>
<event>
 9    1  0.2054950E-002  0.2763745E+03  0.7818608E-02  0.1097686E+00
         -1   -1    0    0    0  501 -0.00000000000E+00  0.00000000000E+00  0.60657060406E+02  0.60657060406E+02  0.00000000000E+00 0. -1.
          1   -1    0    0  501    0  0.00000000000E+00 -0.00000000000E+00 -0.31481432835E+03  0.31481432835E+03  0.00000000000E+00 0. -1.
         36    2    1    2    0    0  0.00000000000E+00  0.00000000000E+00 -0.25415726794E+03  0.37547138875E+03  0.27637446866E+03 0.  0.
         25    2    3    3    0    0  0.27988579759E+02 -0.42365825294E+02 -0.16504911937E+03  0.21304999515E+03  0.12478327162E+03 0.  0.
         25    2    3    3    0    0 -0.27988579759E+02  0.42365825294E+02 -0.89108148572E+02  0.16242139361E+03  0.12594531833E+03 0.  0.
          5    1    4    4  502    0  0.35958072168E+02 -0.84012753214E+02 -0.12129178463E+03  0.15193719977E+03  0.47000000000E+01 0. -1.
         -5    1    4    4    0  502 -0.79694924088E+01  0.41646927920E+02 -0.43757334741E+02  0.61112795371E+02  0.47000000000E+01 0. -1.
          5    1    5    5  503    0 -0.41041581275E+02  0.12250409557E+02  0.20638152289E+02  0.47775592699E+02  0.47000000000E+01 0. -1.
         -5    1    5    5    0  503  0.13053001515E+02  0.30115415737E+02 -0.10974630086E+03  0.11464580091E+03  0.47000000000E+01 0. -1.
<mgrwt>
<rscale>  0 0.27637447E+03</rscale>
<asrwt>0</asrwt>
<pdfrwt beam="1">  1        1 0.48432974E-01 0.27637447E+03</pdfrwt>
<pdfrwt beam="2">  1       -1 0.93318554E-02 0.27637447E+03</pdfrwt>
<totfact> 0.55581436E+03</totfact>
</mgrwt>
</event>
<event>
 9    1  0.2054950E-002  0.2749142E+03  0.7818608E-02  0.1098500E+00
          2   -1    0    0  501    0  0.00000000000E+00  0.00000000000E+00  0.95736376548E+03  0.95736376548E+03  0.00000000000E+00 0. -1.
         -2   -1    0    0    0  501 -0.00000000000E+00 -0.00000000000E+00 -0.19735919207E+02  0.19735919207E+02  0.00000000000E+00 0. -1.
         36    2    1    2    0    0  0.00000000000E+00 -0.71054273576E-14  0.93762784627E+03  0.97709968468E+03  0.27491419699E+03 0.  0.
         25    2    3    3    0    0 -0.36338917427E+02 -0.23063907288E+02  0.61241039096E+03  0.62672874804E+03  0.12605544783E+03 0.  0.
         25    2    3    3    0    0  0.36338917427E+02  0.23063907288E+02  0.32521745531E+03  0.35037093665E+03  0.12304852403E+03 0.  0.
          5    1    4    4  502    0 -0.20573348062E+02  0.29906470209E+02  0.52058132853E+02  0.63638029565E+02  0.47000000000E+01 0.  1.
         -5    1    4    4    0  502 -0.15765569365E+02 -0.52970377497E+02  0.56035225810E+03  0.56309071847E+03  0.47000000000E+01 0.  1.
          5    1    5    5  503    0  0.62583125902E+01  0.58898514288E+02  0.27591644423E+03  0.28224134293E+03  0.47000000000E+01 0. -1.
         -5    1    5    5    0  503  0.30080604837E+02 -0.35834606999E+02  0.49301011086E+02  0.68129593719E+02  0.47000000000E+01 0. -1.
<mgrwt>
<rscale>  0 0.27491420E+03</rscale>
<asrwt>0</asrwt>
<pdfrwt beam="1">  1        2 0.14728670E+00 0.27491420E+03</pdfrwt>
<pdfrwt beam="2">  1       -2 0.30362960E-02 0.27491420E+03</pdfrwt>
<totfact> 0.11581507E+04</totfact>
</mgrwt>
</event>
<event>
 9    1  0.2054950E-002  0.2749157E+03  0.7818608E-02  0.1098499E+00
         -2   -1    0    0    0  501 -0.00000000000E+00  0.00000000000E+00  0.45694349951E+02  0.45694349951E+02  0.00000000000E+00 0.  1.
          2   -1    0    0  501    0  0.00000000000E+00 -0.00000000000E+00 -0.41350104311E+03  0.41350104311E+03  0.00000000000E+00 0.  1.
         36    2    1    2    0    0  0.00000000000E+00  0.00000000000E+00 -0.36780669316E+03  0.45919539306E+03  0.27491570613E+03 0.  0.
         25    2    3    3    0    0 -0.17490710409E+02 -0.10720055728E+02 -0.26850439211E+03  0.29662401793E+03  0.12437988137E+03 0.  0.
         25    2    3    3    0    0  0.17490710409E+02  0.10720055728E+02 -0.99302301050E+02  0.16257137513E+03  0.12707344518E+03 0.  0.
          5    1    4    4  502    0 -0.86829632340E+01 -0.55547908635E+02 -0.22961400613E+03  0.23644374768E+03  0.47000000000E+01 0. -1.
         -5    1    4    4    0  502 -0.88077471750E+01  0.44827852907E+02 -0.38890385974E+02  0.60180270253E+02  0.47000000000E+01 0. -1.
          5    1    5    5  503    0  0.11535883186E+02  0.63239431943E+02 -0.86695253438E+02  0.10802990013E+03  0.47000000000E+01 0.  1.
         -5    1    5    5    0  503  0.59548272232E+01 -0.52519376215E+02 -0.12607047612E+02  0.54541474996E+02  0.47000000000E+01 0.  1.
<mgrwt>
<rscale>  0 0.27491571E+03</rscale>
<asrwt>0</asrwt>
<pdfrwt beam="1">  1        2 0.63615547E-01 0.27491571E+03</pdfrwt>
<pdfrwt beam="2">  1       -2 0.70298998E-02 0.27491571E+03</pdfrwt>
<totfact> 0.88510400E+03</totfact>
</mgrwt>
</event>
<event>
 9    1  0.2054950E-002  0.2739925E+03  0.7818608E-02  0.1099016E+00
          2   -1    0    0  501    0  0.00000000000E+00  0.00000000000E+00  0.47451218500E+03  0.47451218500E+03  0.00000000000E+00 0.  1.
         -2   -1    0    0    0  501 -0.00000000000E+00 -0.00000000000E+00 -0.39552126478E+02  0.39552126478E+02  0.00000000000E+00 0.  1.
         36    2    1    2    0    0 -0.35527136788E-14 -0.71054273576E-14  0.43496005852E+03  0.51406431148E+03  0.27399245213E+03 0.  0.
         25    2    3    3    0    0  0.30729668686E+02 -0.87739060935E+00  0.13894505641E+03  0.19051525889E+03  0.12666985757E+03 0.  0.
         25    2    3    3    0    0 -0.30729668686E+02  0.87739060935E+00  0.29601500211E+03  0.32354905259E+03  0.12694103201E+03 0.  0.
          5    1    4    4  502    0  0.32589156544E+02  0.56308335243E+02  0.10561061909E+03  0.12413047412E+03  0.47000000000E+01 0. -1.
         -5    1    4    4    0  502 -0.18594878587E+01 -0.57185725853E+02  0.33334437326E+02  0.66384784765E+02  0.47000000000E+01 0. -1.
          5    1    5    5  503    0 -0.29963456011E+02 -0.50322111934E+02  0.68274187345E+02  0.90075403431E+02  0.47000000000E+01 0.  1.
         -5    1    5    5    0  503 -0.76621267511E+00  0.51199502544E+02  0.22774081476E+03  0.23347364916E+03  0.47000000000E+01 0.  1.
<mgrwt>
<rscale>  0 0.27399245E+03</rscale>
<asrwt>0</asrwt>
<pdfrwt beam="1">  1        2 0.73001870E-01 0.27399245E+03</pdfrwt>
<pdfrwt beam="2">  1       -2 0.60849429E-02 0.27399245E+03</pdfrwt>
<totfact> 0.95043139E+03</totfact>
</mgrwt>
</event>
<event>
 9    1  0.2054950E-002  0.2756388E+03  0.7818608E-02  0.1098095E+00
         -2   -1    0    0    0  501 -0.00000000000E+00  0.00000000000E+00  0.64167789857E+03  0.64167789857E+03  0.00000000000E+00 0. -1.
          2   -1    0    0  501    0  0.00000000000E+00 -0.00000000000E+00 -0.29600802153E+02  0.29600802153E+02  0.00000000000E+00 0. -1.
         36    2    1    2    0    0  0.00000000000E+00  0.71054273576E-14  0.61207709642E+03  0.67127870072E+03  0.27563875287E+03 0.  0.
         25    2    3    3    0    0 -0.62022307810E+01 -0.35979406512E+02  0.28829231039E+03  0.32135571853E+03  0.13720078804E+03 0.  0.
         25    2    3    3    0    0  0.62022307810E+01  0.35979406512E+02  0.32378478602E+03  0.34992298219E+03  0.12757946718E+03 0.  0.
          5    1    4    4  502    0  0.52164504533E+02 -0.66729890592E+01  0.44899987019E+02  0.69309185181E+02  0.47000000000E+01 0.  1.
         -5    1    4    4    0  502 -0.58366735314E+02 -0.29306417453E+02  0.24339232338E+03  0.25204653335E+03  0.47000000000E+01 0.  1.
          5    1    5    5  503    0  0.49777815123E+02 -0.20269660272E+02  0.19917254800E+03  0.20635039105E+03  0.47000000000E+01 0. -1.
         -5    1    5    5    0  503 -0.43575584342E+02  0.56249066784E+02  0.12461223802E+03  0.14357259115E+03  0.47000000000E+01 0. -1.
<mgrwt>
<rscale>  0 0.27563875E+03</rscale>
<asrwt>0</asrwt>
<pdfrwt beam="1">  1        2 0.45539701E-02 0.27563875E+03</pdfrwt>
<pdfrwt beam="2">  1       -2 0.98719666E-01 0.27563875E+03</pdfrwt>
<totfact> 0.15724974E+03</totfact>
</mgrwt>
</event>
<event>
 9    1  0.2054950E-002  0.2754919E+03  0.7818608E-02  0.1098177E+00
          2   -1    0    0  501    0  0.00000000000E+00  0.00000000000E+00  0.34383880353E+03  0.34383880353E+03  0.00000000000E+00 0. -1.
         -2   -1    0    0    0  501 -0.00000000000E+00 -0.00000000000E+00 -0.55182690867E+02  0.55182690867E+02  0.00000000000E+00 0. -1.
         36    2    1    2    0    0 -0.35527136788E-14  0.71054273576E-14  0.28865611267E+03  0.39902149440E+03  0.27549192659E+03 0.  0.
         25    2    3    3    0    0 -0.16392732363E+02  0.38257017101E+02  0.20365988373E+03  0.24179586982E+03  0.12351345429E+03 0.  0.
         25    2    3    3    0    0  0.16392732363E+02 -0.38257017101E+02  0.84996228932E+02  0.15722562458E+03  0.12555165096E+03 0.  0.
          5    1    4    4  502    0  0.65924484247E+01 -0.40277354590E+02  0.10953380323E+03  0.11698491236E+03  0.47000000000E+01 0. -1.
         -5    1    4    4    0  502 -0.22985180788E+02  0.78534371692E+02  0.94126080503E+02  0.12481095747E+03  0.47000000000E+01 0. -1.
          5    1    5    5  503    0  0.38360085676E+02  0.21115748556E+02 -0.78690121674E+01  0.44736812165E+02  0.47000000000E+01 0. -1.
         -5    1    5    5    0  503 -0.21967353313E+02 -0.59372765658E+02  0.92865241100E+02  0.11248881241E+03  0.47000000000E+01 0. -1.
<mgrwt>
<rscale>  0 0.27549193E+03</rscale>
<asrwt>0</asrwt>
<pdfrwt beam="1">  1        2 0.52898276E-01 0.27549193E+03</pdfrwt>
<pdfrwt beam="2">  1       -2 0.84896449E-02 0.27549193E+03</pdfrwt>
<totfact> 0.80558030E+03</totfact>
</mgrwt>
</event>
<event>
 9    1  0.2054950E-002  0.2748408E+03  0.7818608E-02  0.1098541E+00
         -2   -1    0    0    0  501 -0.00000000000E+00  0.00000000000E+00  0.66244889196E+02  0.66244889196E+02  0.00000000000E+00 0. -1.
          2   -1    0    0  501    0  0.00000000000E+00 -0.00000000000E+00 -0.28506908389E+03  0.28506908389E+03  0.00000000000E+00 0. -1.
         36    2    1    2    0    0  0.14210854715E-13  0.00000000000E+00 -0.21882419470E+03  0.35131397309E+03  0.27484082576E+03 0.  0.
         25    2    3    3    0    0 -0.50624858444E+02 -0.26909939479E+02 -0.11026883285E+03  0.17675710209E+03  0.12568546656E+03 0.  0.
         25    2    3    3    0    0  0.50624858444E+02  0.26909939479E+02 -0.10855536184E+03  0.17455687100E+03  0.12409195580E+03 0.  0.
          5    1    4    4  502    0  0.16528613770E+02 -0.40705130971E+02 -0.97252150049E+02  0.10681841344E+03  0.47000000000E+01 0.  1.
         -5    1    4    4    0  502 -0.67153472214E+02  0.13795191492E+02 -0.13016682805E+02  0.69938688650E+02  0.47000000000E+01 0.  1.
          5    1    5    5  503    0 -0.56448812974E+01 -0.33881951734E+02  0.38109977613E+01  0.34877858909E+02  0.47000000000E+01 0. -1.
         -5    1    5    5    0  503  0.56269739742E+02  0.60791891213E+02 -0.11236635960E+03  0.13967901209E+03  0.47000000000E+01 0. -1.
<mgrwt>
<rscale>  0 0.27484083E+03</rscale>
<asrwt>0</asrwt>
<pdfrwt beam="1">  1        2 0.43856782E-01 0.27484083E+03</pdfrwt>
<pdfrwt beam="2">  1       -2 0.10191521E-01 0.27484083E+03</pdfrwt>
<totfact> 0.73839190E+03</totfact>
</mgrwt>
</event>
<event>
 9    1  0.2054950E-002  0.2760059E+03  0.7818608E-02  0.1097891E+00
         -3   -1    0    0    0  501 -0.00000000000E+00  0.00000000000E+00  0.11920827810E+04  0.11920827810E+04  0.00000000000E+00 0. -1.
          3   -1    0    0  501    0  0.00000000000E+00 -0.00000000000E+00 -0.15976082619E+02  0.15976082619E+02  0.00000000000E+00 0. -1.
         36    2    1    2    0    0  0.00000000000E+00  0.00000000000E+00  0.11761066984E+04  0.12080588636E+04  0.27600589122E+03 0.  0.
         25    2    3    3    0    0 -0.28021706721E+02 -0.69100808373E+01  0.83557671126E+03  0.84524244689E+03  0.12415066795E+03 0.  0.
         25    2    3    3    0    0  0.28021706721E+02  0.69100808373E+01  0.34052998710E+03  0.36281641671E+03  0.12182821864E+03 0.  0.
          5    1    4    4  502    0  0.48962209767E+01  0.54672227789E+02  0.28909659932E+03  0.29429909821E+03  0.47000000000E+01 0.  1.
         -5    1    4    4    0  502 -0.32917927698E+02 -0.61582308626E+02  0.54648011194E+03  0.55094334868E+03  0.47000000000E+01 0.  1.
          5    1    5    5  503    0 -0.15954799671E+02 -0.29240671223E+02  0.24375510760E+02  0.41543086199E+02  0.47000000000E+01 0.  1.
         -5    1    5    5    0  503  0.43976506392E+02  0.36150752061E+02  0.31615447634E+03  0.32127333051E+03  0.47000000000E+01 0.  1.
<mgrwt>
<rscale>  0 0.27600589E+03</rscale>
<asrwt>0</asrwt>
<pdfrwt beam="1">  1        3 0.24578598E-02 0.27600589E+03</pdfrwt>
<pdfrwt beam="2">  1       -3 0.18339728E+00 0.27600589E+03</pdfrwt>
<totfact> 0.35585800E+02</totfact>
</mgrwt>
</event>
<event>
 9    1  0.2054950E-002  0.2748353E+03  0.7818608E-02  0.1098544E+00
         -2   -1    0    0    0  501 -0.00000000000E+00  0.00000000000E+00  0.12912415102E+02  0.12912415102E+02  0.00000000000E+00 0.  1.
          2   -1    0    0  501    0  0.00000000000E+00 -0.00000000000E+00 -0.14624380953E+04  0.14624380953E+04  0.00000000000E+00 0.  1.
         36    2    1    2    0    0  0.00000000000E+00  0.00000000000E+00 -0.14495256802E+04  0.14753505104E+04  0.27483527974E+03 0.  0.
         25    2    3    3    0    0  0.39910702809E+02  0.36975938193E+02 -0.77198333727E+03  0.78401495278E+03  0.12554317564E+03 0.  0.
         25    2    3    3    0    0 -0.39910702809E+02 -0.36975938193E+02 -0.67754234288E+03  0.69133555758E+03  0.12617901003E+03 0.  0.
          5    1    4    4  502    0  0.43315271169E+02 -0.39635159742E+02 -0.38486908588E+03  0.38935005056E+03  0.47000000000E+01 0.  1.
         -5    1    4    4    0  502 -0.34045683602E+01  0.76611097935E+02 -0.38711425139E+03  0.39466490222E+03  0.47000000000E+01 0.  1.
          5    1    5    5  503    0 -0.71591179806E+02  0.17426936121E+02 -0.39285434509E+03  0.39973193715E+03  0.47000000000E+01 0.  1.
         -5    1    5    5    0  503  0.31680476997E+02 -0.54402874314E+02 -0.28468799779E+03  0.29160362042E+03  0.47000000000E+01 0.  1.
<mgrwt>
<rscale>  0 0.27483528E+03</rscale>
<asrwt>0</asrwt>
<pdfrwt beam="1">  1        2 0.22499030E+00 0.27483528E+03</pdfrwt>
<pdfrwt beam="2">  1       -2 0.19865269E-02 0.27483528E+03</pdfrwt>
<totfact> 0.11159724E+04</totfact>
</mgrwt>
</event>
<event>
 9    1  0.2054950E-002  0.2742112E+03  0.7818608E-02  0.1098893E+00
         -2   -1    0    0    0  501 -0.00000000000E+00  0.00000000000E+00  0.55296299061E+02  0.55296299061E+02  0.00000000000E+00 0. -1.
          2   -1    0    0  501    0  0.00000000000E+00 -0.00000000000E+00 -0.33994950560E+03  0.33994950560E+03  0.00000000000E+00 0. -1.
         36    2    1    2    0    0  0.00000000000E+00  0.35527136788E-14 -0.28465320654E+03  0.39524580466E+03  0.27421122900E+03 0.  0.
         25    2    3    3    0    0 -0.17623782813E+02 -0.10066411073E+02 -0.77354272528E+02  0.14983026898E+03  0.12670239015E+03 0.  0.
         25    2    3    3    0    0  0.17623782813E+02  0.10066411073E+02 -0.20729893401E+03  0.24541553568E+03  0.12978446271E+03 0.  0.
          5    1    4    4  502    0 -0.62366943252E+02 -0.39122601327E+02 -0.53891569017E+02  0.91359754577E+02  0.47000000000E+01 0.  1.
         -5    1    4    4    0  502  0.44743160439E+02  0.29056190254E+02 -0.23462703510E+02  0.58470514400E+02  0.47000000000E+01 0.  1.
          5    1    5    5  503    0  0.69878877932E+02  0.97375997820E+01 -0.15936973667E+03  0.17435217634E+03  0.47000000000E+01 0. -1.
         -5    1    5    5    0  503 -0.52255095119E+02  0.32881129077E+00 -0.47929197344E+02  0.71063359341E+02  0.47000000000E+01 0. -1.
<mgrwt>
<rscale>  0 0.27421123E+03</rscale>
<asrwt>0</asrwt>
<pdfrwt beam="1">  1        2 0.52299923E-01 0.27421123E+03</pdfrwt>
<pdfrwt beam="2">  1       -2 0.85071231E-02 0.27421123E+03</pdfrwt>
<totfact> 0.81274963E+03</totfact>
</mgrwt>
</event>
<event>
 9    1  0.2054950E-002  0.2751583E+03  0.7818608E-02  0.1098363E+00
          1   -1    0    0  501    0  0.00000000000E+00  0.00000000000E+00  0.13576295563E+04  0.13576295563E+04  0.00000000000E+00 0.  1.
         -1   -1    0    0    0  501 -0.00000000000E+00 -0.00000000000E+00 -0.13941967471E+02  0.13941967471E+02  0.00000000000E+00 0.  1.
         36    2    1    2    0    0 -0.71054273576E-14  0.00000000000E+00  0.13436875888E+04  0.13715715238E+04  0.27515833341E+03 0.  0.
         25    2    3    3    0    0  0.52677714149E+02 -0.10063435418E+02  0.73712928976E+03  0.74974613618E+03  0.12602961790E+03 0.  0.
         25    2    3    3    0    0 -0.52677714149E+02  0.10063435418E+02  0.60655829907E+03  0.62182538760E+03  0.12600646090E+03 0.  0.
          5    1    4    4  502    0  0.18221258836E+02 -0.59765182258E+02  0.21029062225E+03  0.21942681488E+03  0.47000000000E+01 0. -1.
         -5    1    4    4    0  502  0.34456455312E+02  0.49701746839E+02  0.52683866751E+03  0.53031932129E+03  0.47000000000E+01 0. -1.
          5    1    5    5  503    0  0.32320337024E+02  0.19502297863E+02  0.82926837618E+02  0.91235378032E+02  0.47000000000E+01 0.  1.
         -5    1    5    5    0  503 -0.84998051173E+02 -0.94388624448E+01  0.52363146145E+03  0.53059000957E+03  0.47000000000E+01 0.  1.
<mgrwt>
<rscale>  0 0.27515833E+03</rscale>
<asrwt>0</asrwt>
<pdfrwt beam="1">  1        1 0.20886598E+00 0.27515833E+03</pdfrwt>
<pdfrwt beam="2">  1       -1 0.21449191E-02 0.27515833E+03</pdfrwt>
<totfact> 0.55165510E+03</totfact>
</mgrwt>
</event>
<event>
 9    1  0.2054950E-002  0.2753971E+03  0.7818608E-02  0.1098230E+00
         -2   -1    0    0    0  501 -0.00000000000E+00  0.00000000000E+00  0.21531704691E+02  0.21531704691E+02  0.00000000000E+00 0.  1.
          2   -1    0    0  501    0  0.00000000000E+00 -0.00000000000E+00 -0.88060340670E+03  0.88060340670E+03  0.00000000000E+00 0.  1.
         36    2    1    2    0    0  0.53290705182E-14  0.00000000000E+00 -0.85907170201E+03  0.90213511139E+03  0.27539711330E+03 0.  0.
         25    2    3    3    0    0  0.34933093435E+01  0.49900736209E+02 -0.53306273742E+03  0.54960351086E+03  0.12412030633E+03 0.  0.
         25    2    3    3    0    0 -0.34933093435E+01 -0.49900736209E+02 -0.32600896459E+03  0.35253160053E+03  0.12447649454E+03 0.  0.
          5    1    4    4  502    0  0.14733819494E+02  0.43760073611E+01 -0.47293453073E+03  0.47320756042E+03  0.47000000000E+01 0. -1.
         -5    1    4    4    0  502 -0.11240510151E+02  0.45524728847E+02 -0.60128206686E+02  0.76395950445E+02  0.47000000000E+01 0. -1.
          5    1    5    5  503    0 -0.56945240224E+02 -0.63348263532E+01 -0.91607116813E+02  0.10815194987E+03  0.47000000000E+01 0. -1.
         -5    1    5    5    0  503  0.53451930880E+02 -0.43565909855E+02 -0.23440184778E+03  0.24437965066E+03  0.47000000000E+01 0. -1.
<mgrwt>
<rscale>  0 0.27539711E+03</rscale>
<asrwt>0</asrwt>
<pdfrwt beam="1">  1        2 0.13547743E+00 0.27539711E+03</pdfrwt>
<pdfrwt beam="2">  1       -2 0.33125703E-02 0.27539711E+03</pdfrwt>
<totfact> 0.11388218E+04</totfact>
</mgrwt>
</event>
<event>
 9    1  0.2054950E-002  0.2783456E+03  0.7818608E-02  0.1096596E+00
          2   -1    0    0  501    0  0.00000000000E+00  0.00000000000E+00  0.19135638084E+04  0.19135638084E+04  0.00000000000E+00 0.  1.
         -2   -1    0    0    0  501 -0.00000000000E+00 -0.00000000000E+00 -0.10121984833E+02  0.10121984833E+02  0.00000000000E+00 0.  1.
         36    2    1    2    0    0  0.00000000000E+00 -0.71054273576E-14  0.19034418236E+04  0.19236857933E+04  0.27834556829E+03 0.  0.
         25    2    3    3    0    0 -0.46964102148E+02  0.28301258842E+02  0.10863157385E+04  0.10949921341E+04  0.12617171608E+03 0.  0.
         25    2    3    3    0    0  0.46964102148E+02 -0.28301258842E+02  0.81712608509E+03  0.82869365913E+03  0.12661577157E+03 0.  0.
          5    1    4    4  502    0 -0.24979303450E+02 -0.49118337888E+02  0.52747641243E+03  0.53036782744E+03  0.47000000000E+01 0.  1.
         -5    1    4    4    0  502 -0.21984798697E+02  0.77419596730E+02  0.55883932607E+03  0.56462430668E+03  0.47000000000E+01 0.  1.
          5    1    5    5  503    0  0.71214513757E+02 -0.11380810473E+02  0.76632729905E+03  0.76972764605E+03  0.47000000000E+01 0. -1.
         -5    1    5    5    0  503 -0.24250411610E+02 -0.16920448369E+02  0.50798786037E+02  0.58966013085E+02  0.47000000000E+01 0. -1.
<mgrwt>
<rscale>  0 0.27834557E+03</rscale>
<asrwt>0</asrwt>
<pdfrwt beam="1">  1        2 0.29439414E+00 0.27834557E+03</pdfrwt>
<pdfrwt beam="2">  1       -2 0.15572300E-02 0.27834557E+03</pdfrwt>
<totfact> 0.92144281E+03</totfact>
</mgrwt>
</event>
<event>
 9    1  0.2054950E-002  0.2746097E+03  0.7818608E-02  0.1098670E+00
          4   -1    0    0  501    0  0.00000000000E+00  0.00000000000E+00  0.63354805405E+02  0.63354805405E+02  0.00000000000E+00 0. -1.
         -4   -1    0    0    0  501 -0.00000000000E+00 -0.00000000000E+00 -0.29757219082E+03  0.29757219082E+03  0.00000000000E+00 0. -1.
         36    2    1    2    0    0 -0.71054273576E-14 -0.71054273576E-14 -0.23421738541E+03  0.36092699622E+03  0.27460974668E+03 0.  0.
         25    2    3    3    0    0  0.51778946438E+02  0.13325543414E+02 -0.79854186244E+02  0.15546957558E+03  0.12221075431E+03 0.  0.
         25    2    3    3    0    0 -0.51778946438E+02 -0.13325543414E+02 -0.15436319917E+03  0.20545742064E+03  0.12460387248E+03 0.  0.
          5    1    4    4  502    0  0.51780714300E+02  0.51382647309E+02 -0.73734477922E+01  0.73470242617E+02  0.47000000000E+01 0. -1.
         -5    1    4    4    0  502 -0.17678620906E-02 -0.38057103894E+02 -0.72480738452E+02  0.81999332963E+02  0.47000000000E+01 0. -1.
          5    1    5    5  503    0  0.16821779097E+02 -0.52882973990E+02 -0.54521170438E+02  0.77937341602E+02  0.47000000000E+01 0.  1.
         -5    1    5    5    0  503 -0.68600725535E+02  0.39557430575E+02 -0.99842028732E+02  0.12752007904E+03  0.47000000000E+01 0.  1.
<mgrwt>
<rscale>  0 0.27460975E+03</rscale>
<asrwt>0</asrwt>
<pdfrwt beam="1">  1        4 0.97468931E-02 0.27460975E+03</pdfrwt>
<pdfrwt beam="2">  1       -4 0.45780337E-01 0.27460975E+03</pdfrwt>
<totfact> 0.68950567E+02</totfact>
</mgrwt>
</event>
<event>
 9    1  0.2054950E-002  0.2744728E+03  0.7818608E-02  0.1098747E+00
          1   -1    0    0  501    0  0.00000000000E+00  0.00000000000E+00  0.21038391938E+04  0.21038391938E+04  0.00000000000E+00 0.  1.
         -1   -1    0    0    0  501 -0.00000000000E+00 -0.00000000000E+00 -0.89521213116E+01  0.89521213116E+01  0.00000000000E+00 0.  1.
         36    2    1    2    0    0  0.35527136788E-14  0.35527136788E-14  0.20948870725E+04  0.21127913151E+04  0.27447275772E+03 0.  0.
         25    2    3    3    0    0 -0.16595965228E+02 -0.20691205724E+02  0.60058106819E+03  0.61295931922E+03  0.11965765956E+03 0.  0.
         25    2    3    3    0    0  0.16595965228E+02  0.20691205724E+02  0.14943060043E+04  0.14998319959E+04  0.12586512373E+03 0.  0.
          5    1    4    4  502    0  0.51865813705E+01  0.33456863765E+02  0.58722335526E+02  0.67946045131E+02  0.47000000000E+01 0. -1.
         -5    1    4    4    0  502 -0.21782546599E+02 -0.54148069488E+02  0.54185873267E+03  0.54501327409E+03  0.47000000000E+01 0. -1.
          5    1    5    5  503    0  0.21724407092E+02  0.31088749345E+02  0.14812753829E+04  0.14817683051E+04  0.47000000000E+01 0. -1.
         -5    1    5    5    0  503 -0.51284418632E+01 -0.10397543621E+02  0.13030621444E+02  0.18063690778E+02  0.47000000000E+01 0. -1.
<mgrwt>
<rscale>  0 0.27447276E+03</rscale>
<asrwt>0</asrwt>
<pdfrwt beam="1">  1        1 0.32366717E+00 0.27447276E+03</pdfrwt>
<pdfrwt beam="2">  1       -1 0.13772511E-02 0.27447276E+03</pdfrwt>
<totfact> 0.34132493E+03</totfact>
</mgrwt>
</event>
<event>
 9    1  0.2054950E-002  0.2742573E+03  0.7818608E-02  0.1098867E+00
         -2   -1    0    0    0  501 -0.00000000000E+00  0.00000000000E+00  0.13025934656E+02  0.13025934656E+02  0.00000000000E+00 0. -1.
          2   -1    0    0  501    0  0.00000000000E+00 -0.00000000000E+00 -0.14436020965E+04  0.14436020965E+04  0.00000000000E+00 0. -1.
         36    2    1    2    0    0  0.17763568394E-14  0.00000000000E+00 -0.14305761618E+04  0.14566280311E+04  0.27425729947E+03 0.  0.
         25    2    3    3    0    0  0.10097524937E+02 -0.18422505561E+02 -0.95126220864E+03  0.96134554619E+03  0.13727388999E+03 0.  0.
         25    2    3    3    0    0 -0.10097524937E+02  0.18422505561E+02 -0.47931395316E+03  0.49528248493E+03  0.12296961192E+03 0.  0.
          5    1    4    4  502    0 -0.21370083138E+02  0.30049534923E+02 -0.80642806175E+02  0.88797562974E+02  0.47000000000E+01 0. -1.
         -5    1    4    4    0  502  0.31467608076E+02 -0.48472040484E+02 -0.87061940247E+03  0.87254798322E+03  0.47000000000E+01 0. -1.
          5    1    5    5  503    0 -0.18208642554E+02  0.23974317806E+02 -0.48286339642E+03  0.48382380282E+03  0.47000000000E+01 0.  1.
         -5    1    5    5    0  503  0.81111176164E+01 -0.55518122443E+01  0.35494432519E+01  0.11458682105E+02  0.47000000000E+01 0.  1.
<mgrwt>
<rscale>  0 0.27425730E+03</rscale>
<asrwt>0</asrwt>
<pdfrwt beam="1">  1        2 0.22209262E+00 0.27425730E+03</pdfrwt>
<pdfrwt beam="2">  1       -2 0.20039901E-02 0.27425730E+03</pdfrwt>
<totfact> 0.11276804E+04</totfact>
</mgrwt>
</event>
<event>
 9    1  0.2054950E-002  0.2747863E+03  0.7818608E-02  0.1098571E+00
         -1   -1    0    0    0  501 -0.00000000000E+00  0.00000000000E+00  0.21488694078E+02  0.21488694078E+02  0.00000000000E+00 0.  1.
          1   -1    0    0  501    0  0.00000000000E+00 -0.00000000000E+00 -0.87845645427E+03  0.87845645427E+03  0.00000000000E+00 0.  1.
         36    2    1    2    0    0  0.35527136788E-14  0.71054273576E-14 -0.85696776019E+03  0.89994514835E+03  0.27478633159E+03 0.  0.
         25    2    3    3    0    0 -0.13378126504E+02 -0.94797882631E+01 -0.18538904416E+03  0.21608644873E+03  0.10979715377E+03 0.  0.
         25    2    3    3    0    0  0.13378126504E+02  0.94797882631E+01 -0.67157871603E+03  0.68385869961E+03  0.12796838891E+03 0.  0.
          5    1    4    4  502    0 -0.14342046041E+02  0.41678091890E+02 -0.32981781890E+02  0.55250751713E+02  0.47000000000E+01 0.  1.
         -5    1    4    4    0  502  0.96391953714E+00 -0.51157880153E+02 -0.15240726227E+03  0.16083569702E+03  0.47000000000E+01 0.  1.
          5    1    5    5  503    0  0.51616675687E+01  0.42245933523E+02 -0.62318446468E+03  0.62465376708E+03  0.47000000000E+01 0.  1.
         -5    1    5    5    0  503  0.82164589348E+01 -0.32766145260E+02 -0.48394251351E+02  0.59204932535E+02  0.47000000000E+01 0.  1.
<mgrwt>
<rscale>  0 0.27478633E+03</rscale>
<asrwt>0</asrwt>
<pdfrwt beam="1">  1        1 0.13514716E+00 0.27478633E+03</pdfrwt>
<pdfrwt beam="2">  1       -1 0.33059526E-02 0.27478633E+03</pdfrwt>
<totfact> 0.64797496E+03</totfact>
</mgrwt>
</event>
<event>
 9    1  0.2054950E-002  0.2739202E+03  0.7818608E-02  0.1099057E+00
         -1   -1    0    0    0  501 -0.00000000000E+00  0.00000000000E+00  0.31246674122E+03  0.31246674122E+03  0.00000000000E+00 0.  1.
          1   -1    0    0  501    0  0.00000000000E+00 -0.00000000000E+00 -0.60032209818E+02  0.60032209818E+02  0.00000000000E+00 0.  1.
         36    2    1    2    0    0  0.88817841970E-15  0.00000000000E+00  0.25243453140E+03  0.37249895104E+03  0.27392019984E+03 0.  0.
         25    2    3    3    0    0  0.48070545730E+01  0.32178151075E+02  0.98443877954E+02  0.17143225921E+03  0.13652575292E+03 0.  0.
         25    2    3    3    0    0 -0.48070545730E+01 -0.32178151075E+02  0.15399065345E+03  0.20106669183E+03  0.12512454608E+03 0.  0.
          5    1    4    4  502    0  0.68853904667E+02  0.66305618944E+01  0.63364133917E+02  0.93925119143E+02  0.47000000000E+01 0.  1.
         -5    1    4    4    0  502 -0.64046850094E+02  0.25547589181E+02  0.35079744037E+02  0.77507140068E+02  0.47000000000E+01 0.  1.
          5    1    5    5  503    0 -0.69243712862E+01 -0.24947894326E+02 -0.16031353379E+02  0.30812962210E+02  0.47000000000E+01 0. -1.
         -5    1    5    5    0  503  0.21173167132E+01 -0.72302567497E+01  0.17002200683E+03  0.17025372962E+03  0.47000000000E+01 0. -1.
<mgrwt>
<rscale>  0 0.27392020E+03</rscale>
<asrwt>0</asrwt>
<pdfrwt beam="1">  1        1 0.92357248E-02 0.27392020E+03</pdfrwt>
<pdfrwt beam="2">  1       -1 0.48071805E-01 0.27392020E+03</pdfrwt>
<totfact> 0.31457318E+03</totfact>
</mgrwt>
</event>
<event>
 9    1  0.2054950E-002  0.2750785E+03  0.7818608E-02  0.1098408E+00
         -1   -1    0    0    0  501 -0.00000000000E+00  0.00000000000E+00  0.88916516272E+02  0.88916516272E+02  0.00000000000E+00 0.  1.
          1   -1    0    0  501    0  0.00000000000E+00 -0.00000000000E+00 -0.21275060842E+03  0.21275060842E+03  0.00000000000E+00 0.  1.
         36    2    1    2    0    0 -0.35527136788E-14  0.00000000000E+00 -0.12383409215E+03  0.30166712469E+03  0.27507848288E+03 0.  0.
         25    2    3    3    0    0  0.11401270156E+02 -0.48999080763E+02 -0.54238529287E+02  0.14618651663E+03  0.12608640175E+03 0.  0.
         25    2    3    3    0    0 -0.11401270156E+02  0.48999080763E+02 -0.69595562859E+02  0.15548060806E+03  0.12961395850E+03 0.  0.
          5    1    4    4  502    0 -0.28415687003E+02  0.17992485653E+02  0.19191594873E+02  0.39007539292E+02  0.47000000000E+01 0.  1.
         -5    1    4    4    0  502  0.39816957158E+02 -0.66991566416E+02 -0.73430124161E+02  0.10717897733E+03  0.47000000000E+01 0.  1.
          5    1    5    5  503    0 -0.42855592855E+02  0.63386737654E+02 -0.87433250560E+02  0.11628045258E+03  0.47000000000E+01 0. -1.
         -5    1    5    5    0  503  0.31454322699E+02 -0.14387656891E+02  0.17837687701E+02  0.39200155482E+02  0.47000000000E+01 0. -1.
<mgrwt>
<rscale>  0 0.27507848E+03</rscale>
<asrwt>0</asrwt>
<pdfrwt beam="1">  1        1 0.32730863E-01 0.27507848E+03</pdfrwt>
<pdfrwt beam="2">  1       -1 0.13679464E-01 0.27507848E+03</pdfrwt>
<totfact> 0.50127183E+03</totfact>
</mgrwt>
</event>
<event>
 9    1  0.2054950E-002  0.2755417E+03  0.7818608E-02  0.1098149E+00
         -2   -1    0    0    0  501 -0.00000000000E+00  0.00000000000E+00  0.54184159297E+02  0.54184159297E+02  0.00000000000E+00 0.  1.
          2   -1    0    0  501    0  0.00000000000E+00 -0.00000000000E+00 -0.35030172000E+03  0.35030172000E+03  0.00000000000E+00 0.  1.
         36    2    1    2    0    0  0.71054273576E-14  0.00000000000E+00 -0.29611756071E+03  0.40448587930E+03  0.27554167887E+03 0.  0.
         25    2    3    3    0    0 -0.18704784569E+02 -0.41983801765E+02 -0.19166158370E+03  0.23514713273E+03  0.12824781786E+03 0.  0.
         25    2    3    3    0    0  0.18704784569E+02  0.41983801765E+02 -0.10445597700E+03  0.16933874657E+03  0.12510815874E+03 0.  0.
          5    1    4    4  502    0 -0.63996672828E+02 -0.53123645003E+02 -0.15370802028E+03  0.17483117940E+03  0.47000000000E+01 0.  1.
         -5    1    4    4    0  502  0.45291888259E+02  0.11139843237E+02 -0.37953563426E+02  0.60315953330E+02  0.47000000000E+01 0.  1.
          5    1    5    5  503    0 -0.40472750274E+02 -0.13269119050E+02 -0.84710297452E+01  0.43680217262E+02  0.47000000000E+01 0.  1.
         -5    1    5    5    0  503  0.59177534843E+02  0.55252920815E+02 -0.95984947259E+02  0.12565852931E+03  0.47000000000E+01 0.  1.
<mgrwt>
<rscale>  0 0.27554168E+03</rscale>
<asrwt>0</asrwt>
<pdfrwt beam="1">  1        2 0.53892574E-01 0.27554168E+03</pdfrwt>
<pdfrwt beam="2">  1       -2 0.83360243E-02 0.27554168E+03</pdfrwt>
<totfact> 0.81249241E+03</totfact>
</mgrwt>
</event>
<event>
 9    1  0.2054950E-002  0.2735001E+03  0.7818608E-02  0.1099293E+00
         -2   -1    0    0    0  501 -0.00000000000E+00  0.00000000000E+00  0.77642349165E+02  0.77642349165E+02  0.00000000000E+00 0.  1.
          2   -1    0    0  501    0  0.00000000000E+00 -0.00000000000E+00 -0.24085542674E+03  0.24085542674E+03  0.00000000000E+00 0.  1.
         36    2    1    2    0    0 -0.35527136788E-14 -0.71054273576E-14 -0.16321307757E+03  0.31849777590E+03  0.27350013632E+03 0.  0.
         25    2    3    3    0    0  0.44886567132E+01 -0.56713760117E+02 -0.46670023517E+02  0.13802404912E+03  0.11677306374E+03 0.  0.
         25    2    3    3    0    0 -0.44886567132E+01  0.56713760117E+02 -0.11654305406E+03  0.18047372678E+03  0.12550650972E+03 0.  0.
          5    1    4    4  502    0  0.33518362531E+02  0.17544209354E+01  0.24133200155E+02  0.41606008812E+02  0.47000000000E+01 0. -1.
         -5    1    4    4    0  502 -0.29029705818E+02 -0.58468181052E+02 -0.70803223672E+02  0.96418040312E+02  0.47000000000E+01 0. -1.
          5    1    5    5  503    0 -0.22850484189E+02 -0.32792264631E+02 -0.12978720129E+02  0.42284919576E+02  0.47000000000E+01 0. -1.
         -5    1    5    5    0  503  0.18361827476E+02  0.89506024748E+02 -0.10356433393E+03  0.13818880720E+03  0.47000000000E+01 0. -1.
<mgrwt>
<rscale>  0 0.27350014E+03</rscale>
<asrwt>0</asrwt>
<pdfrwt beam="1">  1        2 0.37054680E-01 0.27350014E+03</pdfrwt>
<pdfrwt beam="2">  1       -2 0.11944977E-01 0.27350014E+03</pdfrwt>
<totfact> 0.68647960E+03</totfact>
</mgrwt>
</event>
<event>
 9    1  0.2054950E-002  0.2748671E+03  0.7818608E-02  0.1098526E+00
         -1   -1    0    0    0  501 -0.00000000000E+00  0.00000000000E+00  0.81227716994E+02  0.81227716994E+02  0.00000000000E+00 0. -1.
          1   -1    0    0  501    0  0.00000000000E+00 -0.00000000000E+00 -0.23253128434E+03  0.23253128434E+03  0.00000000000E+00 0. -1.
         36    2    1    2    0    0 -0.71054273576E-14 -0.35527136788E-14 -0.15130356735E+03  0.31375900134E+03  0.27486713413E+03 0.  0.
         25    2    3    3    0    0 -0.43947835928E+02 -0.84761744469E+01 -0.11502774085E+03  0.17631055325E+03  0.12589984991E+03 0.  0.
         25    2    3    3    0    0  0.43947835928E+02  0.84761744469E+01 -0.36275826504E+02  0.13744844809E+03  0.12479135578E+03 0.  0.
          5    1    4    4  502    0 -0.67774182635E+02  0.40385211967E+02 -0.66511206037E+02  0.10329634895E+03  0.47000000000E+01 0.  1.
         -5    1    4    4    0  502  0.23826346707E+02 -0.48861386414E+02 -0.48516534809E+02  0.73014204300E+02  0.47000000000E+01 0.  1.
          5    1    5    5  503    0 -0.59359802319E+01  0.37356692929E+02  0.30712351415E+02  0.48949942771E+02  0.47000000000E+01 0.  1.
         -5    1    5    5    0  503  0.49883816160E+02 -0.28880518482E+02 -0.66988177919E+02  0.88498505317E+02  0.47000000000E+01 0.  1.
<mgrwt>
<rscale>  0 0.27486713E+03</rscale>
<asrwt>0</asrwt>
<pdfrwt beam="1">  1        1 0.35774043E-01 0.27486713E+03</pdfrwt>
<pdfrwt beam="2">  1       -1 0.12496572E-01 0.27486713E+03</pdfrwt>
<totfact> 0.51669157E+03</totfact>
</mgrwt>
</event>
<event>
 9    1  0.2054950E-002  0.2753269E+03  0.7818608E-02  0.1098269E+00
         -4   -1    0    0    0  501 -0.00000000000E+00  0.00000000000E+00  0.12161207752E+02  0.12161207752E+02  0.00000000000E+00 0. -1.
          4   -1    0    0  501    0  0.00000000000E+00 -0.00000000000E+00 -0.15583342841E+04  0.15583342841E+04  0.00000000000E+00 0. -1.
         36    2    1    2    0    0  0.00000000000E+00  0.00000000000E+00 -0.15461730763E+04  0.15704954918E+04  0.27532691097E+03 0.  0.
         25    2    3    3    0    0  0.55544266411E+02 -0.72726188184E+01 -0.59054989028E+03  0.60573073497E+03  0.12256628353E+03 0.  0.
         25    2    3    3    0    0 -0.55544266411E+02  0.72726188184E+01 -0.95562318605E+03  0.96476475687E+03  0.12007208610E+03 0.  0.
          5    1    4    4  502    0  0.31534891408E+02  0.53857094329E+02 -0.38018390805E+03  0.38530108996E+03  0.47000000000E+01 0.  1.
         -5    1    4    4    0  502  0.24009375003E+02 -0.61129713148E+02 -0.21036598223E+03  0.22042964500E+03  0.47000000000E+01 0.  1.
          5    1    5    5  503    0 -0.81925179735E+02 -0.28058173064E+02 -0.69595084043E+03  0.70133348590E+03  0.47000000000E+01 0. -1.
         -5    1    5    5    0  503  0.26380913324E+02  0.35330791883E+02 -0.25967234562E+03  0.26343127097E+03  0.47000000000E+01 0. -1.
<mgrwt>
<rscale>  0 0.27532691E+03</rscale>
<asrwt>0</asrwt>
<pdfrwt beam="1">  1        4 0.23974372E+00 0.27532691E+03</pdfrwt>
<pdfrwt beam="2">  1       -4 0.18709552E-02 0.27532691E+03</pdfrwt>
<totfact> 0.17329968E+02</totfact>
</mgrwt>
</event>
<event>
 9    1  0.2054950E-002  0.2735634E+03  0.7818608E-02  0.1099257E+00
         -2   -1    0    0    0  501 -0.00000000000E+00  0.00000000000E+00  0.11642342537E+03  0.11642342537E+03  0.00000000000E+00 0.  1.
          2   -1    0    0  501    0  0.00000000000E+00 -0.00000000000E+00 -0.16069991613E+03  0.16069991613E+03  0.00000000000E+00 0.  1.
         36    2    1    2    0    0  0.10658141036E-13  0.71054273576E-14 -0.44276490767E+02  0.27712334150E+03  0.27356340905E+03 0.  0.
         25    2    3    3    0    0 -0.18112534678E+02 -0.38444026220E+02  0.11061192891E+02  0.13377056998E+03  0.12635746255E+03 0.  0.
         25    2    3    3    0    0  0.18112534678E+02  0.38444026220E+02 -0.55337683658E+02  0.14335277152E+03  0.12522679747E+03 0.  0.
          5    1    4    4  502    0 -0.58574233517E+02  0.86649155437E-01  0.39595071146E+02  0.70857660131E+02  0.47000000000E+01 0. -1.
         -5    1    4    4    0  502  0.40461698839E+02 -0.38530675376E+02 -0.28533878255E+02  0.62912909852E+02  0.47000000000E+01 0. -1.
          5    1    5    5  503    0  0.35717259522E+02 -0.13384780998E+02 -0.75591282440E+02  0.84799805254E+02  0.47000000000E+01 0. -1.
         -5    1    5    5    0  503 -0.17604724844E+02  0.51828807218E+02  0.20253598782E+02  0.58552966263E+02  0.47000000000E+01 0. -1.
<mgrwt>
<rscale>  0 0.27356341E+03</rscale>
<asrwt>0</asrwt>
<pdfrwt beam="1">  1        2 0.24723064E-01 0.27356341E+03</pdfrwt>
<pdfrwt beam="2">  1       -2 0.17911296E-01 0.27356341E+03</pdfrwt>
<totfact> 0.54903835E+03</totfact>
</mgrwt>
</event>
<event>
 9    1  0.2054950E-002  0.2748417E+03  0.7818608E-02  0.1098540E+00
         -4   -1    0    0    0  501 -0.00000000000E+00  0.00000000000E+00  0.20404214204E+02  0.20404214204E+02  0.00000000000E+00 0. -1.
          4   -1    0    0  501    0  0.00000000000E+00 -0.00000000000E+00 -0.92551905790E+03  0.92551905790E+03  0.00000000000E+00 0. -1.
         36    2    1    2    0    0  0.00000000000E+00 -0.35527136788E-14 -0.90511484370E+03  0.94592327211E+03  0.27484169340E+03 0.  0.
         25    2    3    3    0    0  0.42893211579E+02 -0.10026120228E+02 -0.32527500943E+03  0.35197096902E+03  0.12704086189E+03 0.  0.
         25    2    3    3    0    0 -0.42893211579E+02  0.10026120228E+02 -0.57983983427E+03  0.59395230309E+03  0.12093285015E+03 0.  0.
          5    1    4    4  502    0  0.72980765981E+02  0.24716155116E+01 -0.30421878674E+03  0.31289528806E+03  0.47000000000E+01 0. -1.
         -5    1    4    4    0  502 -0.30087554401E+02 -0.12497735739E+02 -0.21056222685E+02  0.39075680957E+02  0.47000000000E+01 0. -1.
          5    1    5    5  503    0  0.12423630034E+02  0.11557316372E+02 -0.78587109105E+01  0.19281272835E+02  0.47000000000E+01 0. -1.
         -5    1    5    5    0  503 -0.55316841613E+02 -0.15311961445E+01 -0.57198112336E+03  0.57467103025E+03  0.47000000000E+01 0. -1.
<mgrwt>
<rscale>  0 0.27484169E+03</rscale>
<asrwt>0</asrwt>
<pdfrwt beam="1">  1        4 0.14238754E+00 0.27484169E+03</pdfrwt>
<pdfrwt beam="2">  1       -4 0.31391101E-02 0.27484169E+03</pdfrwt>
<totfact> 0.33980315E+02</totfact>
</mgrwt>
</event>
<event>
 9    1  0.2054950E-002  0.2738494E+03  0.7818608E-02  0.1099096E+00
          1   -1    0    0  501    0  0.00000000000E+00  0.00000000000E+00  0.65396113646E+02  0.65396113646E+02  0.00000000000E+00 0.  1.
         -1   -1    0    0    0  501 -0.00000000000E+00 -0.00000000000E+00 -0.28668950137E+03  0.28668950137E+03  0.00000000000E+00 0.  1.
         36    2    1    2    0    0  0.00000000000E+00  0.71054273576E-14 -0.22129338772E+03  0.35208561501E+03  0.27384944194E+03 0.  0.
         25    2    3    3    0    0  0.41403722072E+01  0.47531432043E+02 -0.77697079399E+02  0.15611646730E+03  0.12672464441E+03 0.  0.
         25    2    3    3    0    0 -0.41403722072E+01 -0.47531432043E+02 -0.14359630832E+03  0.19596914772E+03  0.12452962450E+03 0.  0.
          5    1    4    4  502    0  0.21233240391E+02  0.53874529647E+02  0.16228638797E+02  0.60322252605E+02  0.47000000000E+01 0. -1.
         -5    1    4    4    0  502 -0.17092868184E+02 -0.63430976045E+01 -0.93925718196E+02  0.95794214693E+02  0.47000000000E+01 0. -1.
          5    1    5    5  503    0  0.26332894622E+02 -0.35250720439E+02 -0.15475266938E+03  0.16095500399E+03  0.47000000000E+01 0.  1.
         -5    1    5    5    0  503 -0.30473266830E+02 -0.12280711604E+02  0.11156361054E+02  0.35014143724E+02  0.47000000000E+01 0.  1.
<mgrwt>
<rscale>  0 0.27384944E+03</rscale>
<asrwt>0</asrwt>
<pdfrwt beam="1">  1        1 0.10060941E-01 0.27384944E+03</pdfrwt>
<pdfrwt beam="2">  1       -1 0.44106077E-01 0.27384944E+03</pdfrwt>
<totfact> 0.32788436E+03</totfact>
</mgrwt>
</event>
<event>
 9    1  0.2054950E-002  0.2755092E+03  0.7818608E-02  0.1098167E+00
         -4   -1    0    0    0  501 -0.00000000000E+00  0.00000000000E+00  0.13862265263E+03  0.13862265263E+03  0.00000000000E+00 0.  1.
          4   -1    0    0  501    0  0.00000000000E+00 -0.00000000000E+00 -0.13689197051E+03  0.13689197051E+03  0.00000000000E+00 0.  1.
         36    2    1    2    0    0  0.71054273576E-14  0.14210854715E-13  0.17306821175E+01  0.27551462313E+03  0.27550918732E+03 0.  0.
         25    2    3    3    0    0 -0.27380110583E+02 -0.40422358911E+02 -0.49188567694E+02  0.14099926833E+03  0.12279104577E+03 0.  0.
         25    2    3    3    0    0  0.27380110583E+02  0.40422358911E+02  0.50919249812E+02  0.13451535481E+03  0.11453372046E+03 0.  0.
          5    1    4    4  502    0 -0.65952027236E+02  0.67222741823E+01 -0.43956663912E+02  0.79681473186E+02  0.47000000000E+01 0.  1.
         -5    1    4    4    0  502  0.38571916653E+02 -0.47144633093E+02 -0.52319037822E+01  0.61317795141E+02  0.47000000000E+01 0.  1.
          5    1    5    5  503    0  0.54111364985E+02  0.10223460079E+01 -0.11839358627E+02  0.55599868926E+02  0.47000000000E+01 0. -1.
         -5    1    5    5    0  503 -0.26731254402E+02  0.39400012903E+02  0.62758608438E+02  0.78915485881E+02  0.47000000000E+01 0. -1.
<mgrwt>
<rscale>  0 0.27550919E+03</rscale>
<asrwt>0</asrwt>
<pdfrwt beam="1">  1        4 0.21060303E-01 0.27550919E+03</pdfrwt>
<pdfrwt beam="2">  1       -4 0.21326562E-01 0.27550919E+03</pdfrwt>
<totfact> 0.77358173E+02</totfact>
</mgrwt>
</event>
<event>
 9    1  0.2054950E-002  0.2743647E+03  0.7818608E-02  0.1098807E+00
         -2   -1    0    0    0  501 -0.00000000000E+00  0.00000000000E+00  0.71016669826E+01  0.71016669826E+01  0.00000000000E+00 0. -1.
          2   -1    0    0  501    0  0.00000000000E+00 -0.00000000000E+00 -0.26499415259E+04  0.26499415259E+04  0.00000000000E+00 0. -1.
         36    2    1    2    0    0 -0.71054273576E-14  0.35527136788E-14 -0.26428398589E+04  0.26570431929E+04  0.27436473710E+03 0.  0.
         25    2    3    3    0    0 -0.50802709360E+02 -0.14100098097E+02 -0.14940560653E+04  0.15002289263E+04  0.12531391370E+03 0.  0.
         25    2    3    3    0    0  0.50802709360E+02  0.14100098097E+02 -0.11487837937E+04  0.11568142667E+04  0.12544048339E+03 0.  0.
          5    1    4    4  502    0 -0.46118656679E+02  0.24823042410E+01 -0.17503113287E+03  0.18108307431E+03  0.47000000000E+01 0.  1.
         -5    1    4    4    0  502 -0.46840526812E+01 -0.16582402338E+02 -0.13190249324E+04  0.13191458520E+04  0.47000000000E+01 0.  1.
          5    1    5    5  503    0  0.75730346906E+02  0.31876251156E+01 -0.10803938270E+04  0.10830596280E+04  0.47000000000E+01 0.  1.
         -5    1    5    5    0  503 -0.24927637546E+02  0.10912472982E+02 -0.68389966692E+02  0.73754638663E+02  0.47000000000E+01 0.  1.
<mgrwt>
<rscale>  0 0.27436474E+03</rscale>
<asrwt>0</asrwt>
<pdfrwt beam="1">  1        2 0.40768343E+00 0.27436474E+03</pdfrwt>
<pdfrwt beam="2">  1       -2 0.10925638E-02 0.27436474E+03</pdfrwt>
<totfact> 0.62095011E+03</totfact>
</mgrwt>
</event>
<event>
 9    1  0.2054950E-002  0.2752017E+03  0.7818608E-02  0.1098339E+00
         -2   -1    0    0    0  501 -0.00000000000E+00  0.00000000000E+00  0.55496927438E+02  0.55496927438E+02  0.00000000000E+00 0. -1.
          2   -1    0    0  501    0  0.00000000000E+00 -0.00000000000E+00 -0.34117188082E+03  0.34117188082E+03  0.00000000000E+00 0. -1.
         36    2    1    2    0    0  0.71054273576E-14  0.00000000000E+00 -0.28567495338E+03  0.39666880826E+03  0.27520167960E+03 0.  0.
         25    2    3    3    0    0  0.51134939332E+02 -0.24347036377E+02 -0.12065728909E+03  0.18297114050E+03  0.12535029576E+03 0.  0.
         25    2    3    3    0    0 -0.51134939332E+02  0.24347036377E+02 -0.16501766429E+03  0.21369766775E+03  0.12340301242E+03 0.  0.
          5    1    4    4  502    0  0.76967513525E+02 -0.13865556046E+02 -0.13118761474E+03  0.15280226453E+03  0.47000000000E+01 0.  1.
         -5    1    4    4    0  502 -0.25832574193E+02 -0.10481480331E+02  0.10530325655E+02  0.30168875977E+02  0.47000000000E+01 0.  1.
          5    1    5    5  503    0 -0.91204232902E+02  0.12587091902E+02 -0.97599637553E+02  0.13425507898E+03  0.47000000000E+01 0.  1.
         -5    1    5    5    0  503  0.40069293570E+02  0.11759944475E+02 -0.67418026740E+02  0.79442588771E+02  0.47000000000E+01 0.  1.
<mgrwt>
<rscale>  0 0.27520168E+03</rscale>
<asrwt>0</asrwt>
<pdfrwt beam="1">  1        2 0.52487982E-01 0.27520168E+03</pdfrwt>
<pdfrwt beam="2">  1       -2 0.85379888E-02 0.27520168E+03</pdfrwt>
<totfact> 0.80513436E+03</totfact>
</mgrwt>
</event>
<event>
 9    1  0.2054950E-002  0.2709252E+03  0.7818608E-02  0.1100751E+00
         -1   -1    0    0    0  501 -0.00000000000E+00  0.00000000000E+00  0.12036205226E+03  0.12036205226E+03  0.00000000000E+00 0. -1.
          1   -1    0    0  501    0  0.00000000000E+00 -0.00000000000E+00 -0.15245769852E+03  0.15245769852E+03  0.00000000000E+00 0. -1.
         36    2    1    2    0    0  0.00000000000E+00  0.00000000000E+00 -0.32095646255E+02  0.27281975078E+03  0.27092524044E+03 0.  0.
         25    2    3    3    0    0 -0.28727630338E+01  0.46953752669E+02  0.13403616846E+02  0.13282498685E+03  0.12349053620E+03 0.  0.
         25    2    3    3    0    0  0.28727630338E+01 -0.46953752669E+02 -0.45499263101E+02  0.13999476392E+03  0.12375557897E+03 0.  0.
          5    1    4    4  502    0 -0.38930125641E+01  0.15934043989E+02 -0.54987550797E+02  0.57574039700E+02  0.47000000000E+01 0. -1.
         -5    1    4    4    0  502  0.10202495303E+01  0.31019708680E+02  0.68391167644E+02  0.75250947152E+02  0.47000000000E+01 0. -1.
          5    1    5    5  503    0 -0.11692260570E+02  0.14202569020E+02 -0.69871465782E+02  0.72405342721E+02  0.47000000000E+01 0. -1.
         -5    1    5    5    0  503  0.14565023604E+02 -0.61156321689E+02  0.24372202680E+02  0.67589421203E+02  0.47000000000E+01 0. -1.
<mgrwt>
<rscale>  0 0.27092524E+03</rscale>
<asrwt>0</asrwt>
<pdfrwt beam="1">  1        1 0.23455031E-01 0.27092524E+03</pdfrwt>
<pdfrwt beam="2">  1       -1 0.18517239E-01 0.27092524E+03</pdfrwt>
<totfact> 0.47153710E+03</totfact>
</mgrwt>
</event>
<event>
 9    1  0.2054950E-002  0.2721119E+03  0.7818608E-02  0.1100077E+00
          2   -1    0    0  501    0  0.00000000000E+00  0.00000000000E+00  0.32618093877E+04  0.32618093877E+04  0.00000000000E+00 0. -1.
         -2   -1    0    0    0  501 -0.00000000000E+00 -0.00000000000E+00 -0.56751384355E+01  0.56751384355E+01  0.00000000000E+00 0. -1.
         36    2    1    2    0    0  0.71054273576E-14  0.17763568394E-14  0.32561342492E+04  0.32674845261E+04  0.27211188747E+03 0.  0.
         25    2    3    3    0    0 -0.49478329514E+02 -0.24255067469E+01  0.14847252933E+04  0.14910884950E+04  0.12838113228E+03 0.  0.
         25    2    3    3    0    0  0.49478329514E+02  0.24255067469E+01  0.17714089559E+04  0.17763960311E+04  0.12344708200E+03 0.  0.
          5    1    4    4  502    0 -0.84610934442E+02 -0.22568400176E+02  0.12299020272E+04  0.12330245048E+04  0.47000000000E+01 0.  1.
         -5    1    4    4    0  502  0.35132604928E+02  0.20142893429E+02  0.25482326606E+03  0.25806399015E+03  0.47000000000E+01 0.  1.
          5    1    5    5  503    0  0.17709071474E+02 -0.98291081341E+01  0.44212067142E+02  0.48857133156E+02  0.47000000000E+01 0. -1.
         -5    1    5    5    0  503  0.31769258040E+02  0.12254614881E+02  0.17271968888E+04  0.17275388980E+04  0.47000000000E+01 0. -1.
<mgrwt>
<rscale>  0 0.27211189E+03</rscale>
<asrwt>0</asrwt>
<pdfrwt beam="1">  1        2 0.50181533E+00 0.27211189E+03</pdfrwt>
<pdfrwt beam="2">  1       -2 0.87310083E-03 0.27211189E+03</pdfrwt>
<totfact> 0.37491362E+03</totfact>
</mgrwt>
</event>
<event>
 9    1  0.2054950E-002  0.2794677E+03  0.7818608E-02  0.1095980E+00
         -2   -1    0    0    0  501 -0.00000000000E+00  0.00000000000E+00  0.40691153891E+02  0.40691153891E+02  0.00000000000E+00 0. -1.
          2   -1    0    0  501    0  0.00000000000E+00 -0.00000000000E+00 -0.47984758356E+03  0.47984758356E+03  0.00000000000E+00 0. -1.
         36    2    1    2    0    0 -0.71054273576E-14  0.00000000000E+00 -0.43915642967E+03  0.52053873746E+03  0.27946772169E+03 0.  0.
         25    2    3    3    0    0 -0.37233214703E+02  0.51836720798E+02 -0.28576328697E+03  0.31429406063E+03  0.11422233786E+03 0.  0.
         25    2    3    3    0    0  0.37233214703E+02 -0.51836720798E+02 -0.15339314270E+03  0.20624467682E+03  0.12220496140E+03 0.  0.
          5    1    4    4  502    0  0.14659308013E+01 -0.15961455659E+02  0.13136030145E+01  0.16755076029E+02  0.47000000000E+01 0.  1.
         -5    1    4    4    0  502 -0.38699145504E+02  0.67798176457E+02 -0.28707688999E+03  0.29753898460E+03  0.47000000000E+01 0.  1.
          5    1    5    5  503    0 -0.15104065721E+02 -0.28291415186E+02 -0.14436546721E+03  0.14795950492E+03  0.47000000000E+01 0. -1.
         -5    1    5    5    0  503  0.52337280424E+02 -0.23545305612E+02 -0.90276754906E+01  0.58285171899E+02  0.47000000000E+01 0. -1.
<mgrwt>
<rscale>  0 0.27946772E+03</rscale>
<asrwt>0</asrwt>
<pdfrwt beam="1">  1        2 0.73822702E-01 0.27946772E+03</pdfrwt>
<pdfrwt beam="2">  1       -2 0.62601778E-02 0.27946772E+03</pdfrwt>
<totfact> 0.89929755E+03</totfact>
</mgrwt>
</event>
<event>
 9    1  0.2054950E-002  0.2745500E+03  0.7818608E-02  0.1098703E+00
         -2   -1    0    0    0  501 -0.00000000000E+00  0.00000000000E+00  0.14703840181E+02  0.14703840181E+02  0.00000000000E+00 0. -1.
          2   -1    0    0  501    0  0.00000000000E+00 -0.00000000000E+00 -0.12815991420E+04  0.12815991420E+04  0.00000000000E+00 0. -1.
         36    2    1    2    0    0  0.00000000000E+00  0.00000000000E+00 -0.12668953018E+04  0.12963029821E+04  0.27455002429E+03 0.  0.
         25    2    3    3    0    0  0.25467995424E+02  0.18483099261E+02 -0.69054139322E+03  0.70240028592E+03  0.12461341089E+03 0.  0.
         25    2    3    3    0    0 -0.25467995424E+02 -0.18483099261E+02 -0.57635390856E+03  0.59390269621E+03  0.13980822905E+03 0.  0.
          5    1    4    4  502    0 -0.35953993759E+02  0.33327063111E+02 -0.48028093118E+03  0.48279938448E+03  0.47000000000E+01 0.  1.
         -5    1    4    4    0  502  0.61421989183E+02 -0.14843963850E+02 -0.21026046204E+03  0.21960090144E+03  0.47000000000E+01 0.  1.
          5    1    5    5  503    0 -0.13876695520E+02 -0.71041870960E+02 -0.18293183662E+03  0.19678835574E+03  0.47000000000E+01 0.  1.
         -5    1    5    5    0  503 -0.11591299904E+02  0.52558771699E+02 -0.39342207194E+03  0.39711434047E+03  0.47000000000E+01 0.  1.
<mgrwt>
<rscale>  0 0.27455002E+03</rscale>
<asrwt>0</asrwt>
<pdfrwt beam="1">  1        2 0.19716909E+00 0.27455002E+03</pdfrwt>
<pdfrwt beam="2">  1       -2 0.22621294E-02 0.27455002E+03</pdfrwt>
<totfact> 0.11568383E+04</totfact>
</mgrwt>
</event>
<event>
 9    1  0.2054950E-002  0.2728685E+03  0.7818608E-02  0.1099649E+00
         -1   -1    0    0    0  501 -0.00000000000E+00  0.00000000000E+00  0.61677275245E+02  0.61677275245E+02  0.00000000000E+00 0.  1.
          1   -1    0    0  501    0  0.00000000000E+00 -0.00000000000E+00 -0.30180176179E+03  0.30180176179E+03  0.00000000000E+00 0.  1.
         36    2    1    2    0    0 -0.71054273576E-14  0.00000000000E+00 -0.24012448655E+03  0.36347903704E+03  0.27286854221E+03 0.  0.
         25    2    3    3    0    0 -0.63733170600E+02 -0.34944442158E+02 -0.39574541070E+02  0.11474893167E+03  0.79486740687E+02 0.  0.
         25    2    3    3    0    0  0.63733170600E+02  0.34944442158E+02 -0.20054994548E+03  0.24873010537E+03  0.12791932463E+03 0.  0.
          5    1    4    4  502    0  0.15201901170E+02 -0.21992876461E+02 -0.14576878258E+02  0.30811682751E+02  0.47000000000E+01 0. -1.
         -5    1    4    4    0  502 -0.78935071769E+02 -0.12951565697E+02 -0.24997662812E+02  0.83937248914E+02  0.47000000000E+01 0. -1.
          5    1    5    5  503    0  0.89484376161E+02 -0.87492881026E+01 -0.91483043626E+02  0.12835591490E+03  0.47000000000E+01 0. -1.
         -5    1    5    5    0  503 -0.25751205561E+02  0.43693730261E+02 -0.10906690185E+03  0.12037419047E+03  0.47000000000E+01 0. -1.
<mgrwt>
<rscale>  0 0.27286854E+03</rscale>
<asrwt>0</asrwt>
<pdfrwt beam="1">  1        1 0.46431040E-01 0.27286854E+03</pdfrwt>
<pdfrwt beam="2">  1       -1 0.94888117E-02 0.27286854E+03</pdfrwt>
<totfact> 0.57104500E+03</totfact>
</mgrwt>
</event>
<event>
 9    1  0.2054950E-002  0.2751369E+03  0.7818608E-02  0.1098375E+00
          4   -1    0    0  501    0  0.00000000000E+00  0.00000000000E+00  0.21469024377E+03  0.21469024377E+03  0.00000000000E+00 0.  1.
         -4   -1    0    0    0  501 -0.00000000000E+00 -0.00000000000E+00 -0.88150642747E+02  0.88150642747E+02  0.00000000000E+00 0.  1.
         36    2    1    2    0    0  0.71054273576E-14  0.00000000000E+00  0.12653960102E+03  0.30284088652E+03  0.27513693303E+03 0.  0.
         25    2    3    3    0    0  0.17845038834E+02 -0.43614317521E+02  0.96989847564E+02  0.16514185535E+03  0.12507656756E+03 0.  0.
         25    2    3    3    0    0 -0.17845038834E+02  0.43614317521E+02  0.29549753460E+02  0.13769903117E+03  0.12596499971E+03 0.  0.
          5    1    4    4  502    0 -0.97643962959E+01 -0.71289462838E+01  0.11501257951E+03  0.11574173299E+03  0.47000000000E+01 0. -1.
         -5    1    4    4    0  502  0.27609435130E+02 -0.36485371238E+02 -0.18022731941E+02  0.49400122360E+02  0.47000000000E+01 0. -1.
          5    1    5    5  503    0 -0.68352481292E+02  0.57578575223E+01  0.23166310477E+01  0.68794414028E+02  0.47000000000E+01 0.  1.
         -5    1    5    5    0  503  0.50507442459E+02  0.37856459999E+02  0.27233122412E+02  0.68904617143E+02  0.47000000000E+01 0.  1.
<mgrwt>
<rscale>  0 0.27513693E+03</rscale>
<asrwt>0</asrwt>
<pdfrwt beam="1">  1        4 0.33029268E-01 0.27513693E+03</pdfrwt>
<pdfrwt beam="2">  1       -4 0.13561637E-01 0.27513693E+03</pdfrwt>
<totfact> 0.74564468E+02</totfact>
</mgrwt>
</event>
<event>
 9    1  0.2054950E-002  0.2754439E+03  0.7818608E-02  0.1098204E+00
          2   -1    0    0  501    0  0.00000000000E+00  0.00000000000E+00  0.11580989539E+04  0.11580989539E+04  0.00000000000E+00 0.  1.
         -2   -1    0    0    0  501 -0.00000000000E+00 -0.00000000000E+00 -0.16377993643E+02  0.16377993643E+02  0.00000000000E+00 0.  1.
         36    2    1    2    0    0 -0.35527136788E-14 -0.17763568394E-14  0.11417209602E+04  0.11744769475E+04  0.27544391301E+03 0.  0.
         25    2    3    3    0    0 -0.19795042288E+02  0.13022202252E+02  0.78073149005E+03  0.79208753207E+03  0.13152785808E+03 0.  0.
         25    2    3    3    0    0  0.19795042288E+02 -0.13022202252E+02  0.36098947016E+03  0.38238941543E+03  0.12388238783E+03 0.  0.
          5    1    4    4  502    0  0.19973142043E+02  0.56053008532E+02  0.57600166884E+03  0.57908624459E+03  0.47000000000E+01 0. -1.
         -5    1    4    4    0  502 -0.39768184331E+02 -0.43030806280E+02  0.20472982121E+03  0.21300128748E+03  0.47000000000E+01 0. -1.
          5    1    5    5  503    0 -0.91817686459E+01  0.15784443616E+02  0.33088133380E+03  0.33141816575E+03  0.47000000000E+01 0.  1.
         -5    1    5    5    0  503  0.28976810934E+02 -0.28806645868E+02  0.30108136363E+02  0.50971249674E+02  0.47000000000E+01 0.  1.
<mgrwt>
<rscale>  0 0.27544391E+03</rscale>
<asrwt>0</asrwt>
<pdfrwt beam="1">  1        2 0.17816901E+00 0.27544391E+03</pdfrwt>
<pdfrwt beam="2">  1       -2 0.25196922E-02 0.27544391E+03</pdfrwt>
<totfact> 0.11585499E+04</totfact>
</mgrwt>
</event>
<event>
 9    1  0.2054950E-002  0.2743341E+03  0.7818608E-02  0.1098824E+00
          2   -1    0    0  501    0  0.00000000000E+00  0.00000000000E+00  0.32039448363E+04  0.32039448363E+04  0.00000000000E+00 0. -1.
         -2   -1    0    0    0  501 -0.00000000000E+00 -0.00000000000E+00 -0.58723848466E+01  0.58723848466E+01  0.00000000000E+00 0. -1.
         36    2    1    2    0    0  0.00000000000E+00  0.00000000000E+00  0.31980724515E+04  0.32098172212E+04  0.27433408178E+03 0.  0.
         25    2    3    3    0    0  0.55061094656E+02 -0.96863954200E+01  0.14254205845E+04  0.14318251981E+04  0.12318281149E+03 0.  0.
         25    2    3    3    0    0 -0.55061094656E+02  0.96863954200E+01  0.17726518670E+04  0.17779920230E+04  0.12583895221E+03 0.  0.
          5    1    4    4  502    0  0.85295223271E+02 -0.11357397640E+02  0.12945450300E+04  0.12974101858E+04  0.47000000000E+01 0. -1.
         -5    1    4    4    0  502 -0.30234128616E+02  0.16710022202E+01  0.13087555447E+03  0.13441501233E+03  0.47000000000E+01 0. -1.
          5    1    5    5  503    0 -0.69343155231E+02  0.51897183883E+02  0.13944080409E+04  0.13971033124E+04  0.47000000000E+01 0.  1.
         -5    1    5    5    0  503  0.14282060576E+02 -0.42210788463E+02  0.37824382612E+03  0.38088871067E+03  0.47000000000E+01 0.  1.
<mgrwt>
<rscale>  0 0.27433408E+03</rscale>
<asrwt>0</asrwt>
<pdfrwt beam="1">  1        2 0.49291319E+00 0.27433408E+03</pdfrwt>
<pdfrwt beam="2">  1       -2 0.90344638E-03 0.27433408E+03</pdfrwt>
<totfact> 0.38751533E+03</totfact>
</mgrwt>
</event>
<event>
 9    1  0.2054950E-002  0.2748942E+03  0.7818608E-02  0.1098511E+00
         -1   -1    0    0    0  501 -0.00000000000E+00  0.00000000000E+00  0.13636202761E+03  0.13636202761E+03  0.00000000000E+00 0.  1.
          1   -1    0    0  501    0  0.00000000000E+00 -0.00000000000E+00 -0.13854077453E+03  0.13854077453E+03  0.00000000000E+00 0.  1.
         36    2    1    2    0    0 -0.14210854715E-13  0.00000000000E+00 -0.21787469229E+01  0.27490280214E+03  0.27489416816E+03 0.  0.
         25    2    3    3    0    0 -0.63087290649E+02 -0.10203803895E+02  0.43818718886E+02  0.14182589048E+03  0.11878711727E+03 0.  0.
         25    2    3    3    0    0  0.63087290649E+02  0.10203803895E+02 -0.45997465809E+02  0.13307691166E+03  0.10728268128E+03 0.  0.
          5    1    4    4  502    0 -0.57582404017E+02 -0.51772089379E+02  0.58488230698E+02  0.97154750894E+02  0.47000000000E+01 0. -1.
         -5    1    4    4    0  502 -0.55048866323E+01  0.41568285484E+02 -0.14669511812E+02  0.44671139584E+02  0.47000000000E+01 0. -1.
          5    1    5    5  503    0  0.48447504282E+02  0.22208343451E+02 -0.78601811444E+02  0.95082626974E+02  0.47000000000E+01 0.  1.
         -5    1    5    5    0  503  0.14639786367E+02 -0.12004539556E+02  0.32604345635E+02  0.37994284691E+02  0.47000000000E+01 0.  1.
<mgrwt>
<rscale>  0 0.27489417E+03</rscale>
<asrwt>0</asrwt>
<pdfrwt beam="1">  1        1 0.21313965E-01 0.27489417E+03</pdfrwt>
<pdfrwt beam="2">  1       -1 0.20978773E-01 0.27489417E+03</pdfrwt>
<totfact> 0.43545127E+03</totfact>
</mgrwt>
</event>
<event>
 9    1  0.2054950E-002  0.2746204E+03  0.7818608E-02  0.1098664E+00
          2   -1    0    0  501    0  0.00000000000E+00  0.00000000000E+00  0.27214685935E+03  0.27214685935E+03  0.00000000000E+00 0. -1.
         -2   -1    0    0    0  501 -0.00000000000E+00 -0.00000000000E+00 -0.69279083737E+02  0.69279083737E+02  0.00000000000E+00 0. -1.
         36    2    1    2    0    0  0.00000000000E+00  0.00000000000E+00  0.20286777562E+03  0.34142594309E+03  0.27462035655E+03 0.  0.
         25    2    3    3    0    0 -0.47863991936E+02 -0.89937085393E+01  0.12393515500E+03  0.18353082222E+03  0.12630040198E+03 0.  0.
         25    2    3    3    0    0  0.47863991936E+02  0.89937085393E+01  0.78932620617E+02  0.15789512087E+03  0.12778365342E+03 0.  0.
          5    1    4    4  502    0 -0.86746662646E+01 -0.42140922334E+02 -0.60484477637E+01  0.43701039922E+02  0.47000000000E+01 0. -1.
         -5    1    4    4    0  502 -0.39189325671E+02  0.33147213795E+02  0.12998360276E+03  0.13982978229E+03  0.47000000000E+01 0. -1.
          5    1    5    5  503    0  0.22182330214E+02  0.62804499564E+02  0.71159850166E+02  0.97582145984E+02  0.47000000000E+01 0. -1.
         -5    1    5    5    0  503  0.25681661722E+02 -0.53810791025E+02  0.77727704507E+01  0.60312974889E+02  0.47000000000E+01 0. -1.
<mgrwt>
<rscale>  0 0.27462036E+03</rscale>
<asrwt>0</asrwt>
<pdfrwt beam="1">  1        2 0.41868747E-01 0.27462036E+03</pdfrwt>
<pdfrwt beam="2">  1       -2 0.10658321E-01 0.27462036E+03</pdfrwt>
<totfact> 0.72265192E+03</totfact>
</mgrwt>
</event>
<event>
 9    1  0.2054950E-002  0.2756796E+03  0.7818608E-02  0.1098072E+00
          1   -1    0    0  501    0  0.00000000000E+00  0.00000000000E+00  0.60922163116E+02  0.60922163116E+02  0.00000000000E+00 0.  1.
         -1   -1    0    0    0  501 -0.00000000000E+00 -0.00000000000E+00 -0.31187035931E+03  0.31187035931E+03  0.00000000000E+00 0.  1.
         36    2    1    2    0    0 -0.71054273576E-14 -0.14210854715E-13 -0.25094819619E+03  0.37279252243E+03  0.27567964670E+03 0.  0.
         25    2    3    3    0    0 -0.18016385841E+02 -0.35209541235E+02 -0.77955354612E+02  0.14933183993E+03  0.12107294971E+03 0.  0.
         25    2    3    3    0    0  0.18016385841E+02  0.35209541235E+02 -0.17299284158E+03  0.22346068250E+03  0.13580814199E+03 0.  0.
          5    1    4    4  502    0 -0.46101007189E+02 -0.25530818661E+02  0.12196903142E+02  0.54295303771E+02  0.47000000000E+01 0. -1.
         -5    1    4    4    0  502  0.28084621348E+02 -0.96787225736E+01 -0.90152257754E+02  0.95036536159E+02  0.47000000000E+01 0. -1.
          5    1    5    5  503    0  0.65308259028E+02  0.51159127974E+02 -0.14199606818E+03  0.16452172638E+03  0.47000000000E+01 0.  1.
         -5    1    5    5    0  503 -0.47291873187E+02 -0.15949586739E+02 -0.30996773400E+02  0.58938956115E+02  0.47000000000E+01 0.  1.
<mgrwt>
<rscale>  0 0.27567965E+03</rscale>
<asrwt>0</asrwt>
<pdfrwt beam="1">  1        1 0.93726408E-02 0.27567965E+03</pdfrwt>
<pdfrwt beam="2">  1       -1 0.47980053E-01 0.27567965E+03</pdfrwt>
<totfact> 0.30952437E+03</totfact>
</mgrwt>
</event>
<event>
 9    1  0.2054950E-002  0.2734135E+03  0.7818608E-02  0.1099342E+00
         -2   -1    0    0    0  501 -0.00000000000E+00  0.00000000000E+00  0.20853220392E+02  0.20853220392E+02  0.00000000000E+00 0.  1.
          2   -1    0    0  501    0  0.00000000000E+00 -0.00000000000E+00 -0.89620373017E+03  0.89620373017E+03  0.00000000000E+00 0.  1.
         36    2    1    2    0    0 -0.71054273576E-14  0.00000000000E+00 -0.87535050978E+03  0.91705695057E+03  0.27341348834E+03 0.  0.
         25    2    3    3    0    0 -0.55780578863E+02  0.24792141555E+02 -0.39021361962E+03  0.41186236703E+03  0.11678106514E+03 0.  0.
         25    2    3    3    0    0  0.55780578863E+02 -0.24792141555E+02 -0.48513689017E+03  0.50519458354E+03  0.12703401819E+03 0.  0.
          5    1    4    4  502    0 -0.53774766807E+02  0.75969556524E+01 -0.39013380984E+03  0.39392374752E+03  0.47000000000E+01 0.  1.
         -5    1    4    4    0  502 -0.20058120554E+01  0.17195185902E+02 -0.79809778691E-01  0.17938619507E+02  0.47000000000E+01 0.  1.
          5    1    5    5  503    0 -0.10203150371E+02 -0.44400827419E+02 -0.35459772824E+03  0.35754325141E+03  0.47000000000E+01 0.  1.
         -5    1    5    5    0  503  0.65983729234E+02  0.19608685864E+02 -0.13053916192E+03  0.14765133213E+03  0.47000000000E+01 0.  1.
<mgrwt>
<rscale>  0 0.27341349E+03</rscale>
<asrwt>0</asrwt>
<pdfrwt beam="1">  1        2 0.13787744E+00 0.27341349E+03</pdfrwt>
<pdfrwt beam="2">  1       -2 0.32081890E-02 0.27341349E+03</pdfrwt>
<totfact> 0.11666888E+04</totfact>
</mgrwt>
</event>
<event>
 9    1  0.2054950E-002  0.2748473E+03  0.7818608E-02  0.1098537E+00
         -2   -1    0    0    0  501 -0.00000000000E+00  0.00000000000E+00  0.33554470330E+02  0.33554470330E+02  0.00000000000E+00 0. -1.
          2   -1    0    0  501    0  0.00000000000E+00 -0.00000000000E+00 -0.56282384082E+03  0.56282384082E+03  0.00000000000E+00 0. -1.
         36    2    1    2    0    0 -0.14210854715E-13  0.00000000000E+00 -0.52926937049E+03  0.59637831115E+03  0.27484727299E+03 0.  0.
         25    2    3    3    0    0 -0.48087885383E+02  0.61947692093E+02 -0.30667435157E+03  0.33959510526E+03  0.12298665102E+03 0.  0.
         25    2    3    3    0    0  0.48087885383E+02 -0.61947692093E+02 -0.22259501892E+03  0.25678320589E+03  0.10118849294E+03 0.  0.
          5    1    4    4  502    0  0.26917680836E+02 -0.33292110950E+01 -0.15987911991E+03  0.16223152644E+03  0.47000000000E+01 0. -1.
         -5    1    4    4    0  502 -0.75005566219E+02  0.65276903188E+02 -0.14679523166E+03  0.17736357882E+03  0.47000000000E+01 0. -1.
          5    1    5    5  503    0 -0.27753299892E+02 -0.32685869770E+01 -0.80087091548E+02  0.84952701831E+02  0.47000000000E+01 0.  1.
         -5    1    5    5    0  503  0.75841185275E+02 -0.58679105116E+02 -0.14250792737E+03  0.17183050406E+03  0.47000000000E+01 0.  1.
<mgrwt>
<rscale>  0 0.27484727E+03</rscale>
<asrwt>0</asrwt>
<pdfrwt beam="1">  1        2 0.86588287E-01 0.27484727E+03</pdfrwt>
<pdfrwt beam="2">  1       -2 0.51622260E-02 0.27484727E+03</pdfrwt>
<totfact> 0.10085345E+04</totfact>
</mgrwt>
</event>
<event>
 9    1  0.2054950E-002  0.2744472E+03  0.7818608E-02  0.1098761E+00
         -1   -1    0    0    0  501 -0.00000000000E+00  0.00000000000E+00  0.27175557353E+02  0.27175557353E+02  0.00000000000E+00 0.  1.
          1   -1    0    0  501    0  0.00000000000E+00 -0.00000000000E+00 -0.69291390769E+03  0.69291390769E+03  0.00000000000E+00 0.  1.
         36    2    1    2    0    0  0.00000000000E+00 -0.35527136788E-14 -0.66573835033E+03  0.72008946504E+03  0.27444723820E+03 0.  0.
         25    2    3    3    0    0 -0.16017280013E+02 -0.17484081524E+02 -0.20030980275E+03  0.23756000420E+03  0.12549299642E+03 0.  0.
         25    2    3    3    0    0  0.16017280013E+02  0.17484081524E+02 -0.46542854758E+03  0.48252946084E+03  0.12509476931E+03 0.  0.
          5    1    4    4  502    0  0.37599470914E+02  0.36053786285E+01 -0.16606498225E+03  0.17037132181E+03  0.47000000000E+01 0.  1.
         -5    1    4    4    0  502 -0.53616750927E+02 -0.21089460153E+02 -0.34244820507E+02  0.67188682388E+02  0.47000000000E+01 0.  1.
          5    1    5    5  503    0 -0.36659126552E+02  0.48625701089E+02 -0.16609527444E+03  0.17696915143E+03  0.47000000000E+01 0. -1.
         -5    1    5    5    0  503  0.52676406565E+02 -0.31141619565E+02 -0.29933327314E+03  0.30556030941E+03  0.47000000000E+01 0. -1.
<mgrwt>
<rscale>  0 0.27444724E+03</rscale>
<asrwt>0</asrwt>
<pdfrwt beam="1">  1        1 0.10660214E+00 0.27444724E+03</pdfrwt>
<pdfrwt beam="2">  1       -1 0.41808550E-02 0.27444724E+03</pdfrwt>
<totfact> 0.65679691E+03</totfact>
</mgrwt>
</event>
<event>
 9    1  0.2054950E-002  0.2748979E+03  0.7818608E-02  0.1098509E+00
          1   -1    0    0  501    0  0.00000000000E+00  0.00000000000E+00  0.14180063520E+04  0.14180063520E+04  0.00000000000E+00 0. -1.
         -1   -1    0    0    0  501 -0.00000000000E+00 -0.00000000000E+00 -0.13323085357E+02  0.13323085357E+02  0.00000000000E+00 0. -1.
         36    2    1    2    0    0  0.00000000000E+00  0.17763568394E-14  0.14046832667E+04  0.14313294374E+04  0.27489794226E+03 0.  0.
         25    2    3    3    0    0 -0.33013038788E+02 -0.84016052369E+01  0.51350718544E+03  0.53013819362E+03  0.12726518433E+03 0.  0.
         25    2    3    3    0    0  0.33013038788E+02  0.84016052369E+01  0.89117608124E+03  0.90119124377E+03  0.12957778500E+03 0.  0.
          5    1    4    4  502    0 -0.60847876513E+02 -0.17602216009E+02  0.12233968768E+03  0.13784553408E+03  0.47000000000E+01 0.  1.
         -5    1    4    4    0  502  0.27834837724E+02  0.92006107724E+01  0.39116749776E+03  0.39229265954E+03  0.47000000000E+01 0.  1.
          5    1    5    5  503    0  0.27460740570E+02  0.56469365386E+02  0.23735976684E+03  0.24557001123E+03  0.47000000000E+01 0.  1.
         -5    1    5    5    0  503  0.55522982185E+01 -0.48067760149E+02  0.65381631440E+03  0.65562123254E+03  0.47000000000E+01 0.  1.
<mgrwt>
<rscale>  0 0.27489794E+03</rscale>
<asrwt>0</asrwt>
<pdfrwt beam="1">  1        1 0.21815470E+00 0.27489794E+03</pdfrwt>
<pdfrwt beam="2">  1       -1 0.20497066E-02 0.27489794E+03</pdfrwt>
<totfact> 0.53689488E+03</totfact>
</mgrwt>
</event>
<event>
 9    1  0.2054950E-002  0.2751194E+03  0.7818608E-02  0.1098385E+00
          2   -1    0    0  501    0  0.00000000000E+00  0.00000000000E+00  0.16708193009E+04  0.16708193009E+04  0.00000000000E+00 0. -1.
         -2   -1    0    0    0  501 -0.00000000000E+00 -0.00000000000E+00 -0.11325388056E+02  0.11325388056E+02  0.00000000000E+00 0. -1.
         36    2    1    2    0    0  0.14210854715E-13 -0.71054273576E-14  0.16594939129E+04  0.16821446890E+04  0.27511944281E+03 0.  0.
         25    2    3    3    0    0  0.37440602005E+02 -0.27724395144E+02  0.66529646353E+03  0.67812614989E+03  0.12274058012E+03 0.  0.
         25    2    3    3    0    0 -0.37440602005E+02  0.27724395144E+02  0.99419744933E+03  0.10040185391E+04  0.13211441182E+03 0.  0.
          5    1    4    4  502    0 -0.11144579688E+02 -0.49321856737E+02  0.53378758105E+03  0.53619783559E+03  0.47000000000E+01 0. -1.
         -5    1    4    4    0  502  0.48585181692E+02  0.21597461593E+02  0.13150888248E+03  0.14192831430E+03  0.47000000000E+01 0. -1.
          5    1    5    5  503    0  0.42093565208E+02  0.34261616808E+02  0.54941913866E+03  0.55211340007E+03  0.47000000000E+01 0. -1.
         -5    1    5    5    0  503 -0.79534167213E+02 -0.65372216638E+01  0.44477831067E+03  0.45190513901E+03  0.47000000000E+01 0. -1.
<mgrwt>
<rscale>  0 0.27511944E+03</rscale>
<asrwt>0</asrwt>
<pdfrwt beam="1">  1        2 0.25704893E+00 0.27511944E+03</pdfrwt>
<pdfrwt beam="2">  1       -2 0.17423687E-02 0.27511944E+03</pdfrwt>
<totfact> 0.10483021E+04</totfact>
</mgrwt>
</event>
<event>
 9    1  0.2054950E-002  0.2749654E+03  0.7818608E-02  0.1098471E+00
          2   -1    0    0  501    0  0.00000000000E+00  0.00000000000E+00  0.23015797923E+04  0.23015797923E+04  0.00000000000E+00 0. -1.
         -2   -1    0    0    0  501 -0.00000000000E+00 -0.00000000000E+00 -0.82124006058E+01  0.82124006058E+01  0.00000000000E+00 0. -1.
         36    2    1    2    0    0  0.00000000000E+00  0.00000000000E+00  0.22933673917E+04  0.23097921929E+04  0.27496541805E+03 0.  0.
         25    2    3    3    0    0 -0.58893924716E+02  0.25550543791E+02  0.10838370735E+04  0.10920846658E+04  0.11757886976E+03 0.  0.
         25    2    3    3    0    0  0.58893924716E+02 -0.25550543791E+02  0.12095303182E+04  0.12177075272E+04  0.12540616575E+03 0.  0.
          5    1    4    4  502    0 -0.18834137124E+01  0.56827937380E+02  0.28897019765E+03  0.29454851357E+03  0.47000000000E+01 0.  1.
         -5    1    4    4    0  502 -0.57010511003E+02 -0.31277393588E+02  0.79486687585E+03  0.79753615219E+03  0.47000000000E+01 0.  1.
          5    1    5    5  503    0 -0.16037293201E+02  0.69894423925E+01  0.79348822049E+03  0.79369496227E+03  0.47000000000E+01 0.  1.
         -5    1    5    5    0  503  0.74931217917E+02 -0.32539986184E+02  0.41604209770E+03  0.42401256489E+03  0.47000000000E+01 0.  1.
<mgrwt>
<rscale>  0 0.27496542E+03</rscale>
<asrwt>0</asrwt>
<pdfrwt beam="1">  1        2 0.35408869E+00 0.27496542E+03</pdfrwt>
<pdfrwt beam="2">  1       -2 0.12634481E-02 0.27496542E+03</pdfrwt>
<totfact> 0.77920415E+03</totfact>
</mgrwt>
</event>
<event>
 9    1  0.2054950E-002  0.2749471E+03  0.7818608E-02  0.1098481E+00
         -2   -1    0    0    0  501 -0.00000000000E+00  0.00000000000E+00  0.14149283033E+02  0.14149283033E+02  0.00000000000E+00 0.  1.
          2   -1    0    0  501    0  0.00000000000E+00 -0.00000000000E+00 -0.13356839422E+04  0.13356839422E+04  0.00000000000E+00 0.  1.
         36    2    1    2    0    0  0.00000000000E+00  0.00000000000E+00 -0.13215346591E+04  0.13498332252E+04  0.27494705047E+03 0.  0.
         25    2    3    3    0    0 -0.98236839019E+01 -0.39703758083E+02 -0.85749291949E+03  0.86778793473E+03  0.12684202585E+03 0.  0.
         25    2    3    3    0    0  0.98236839019E+01  0.39703758083E+02 -0.46404173964E+03  0.48204529047E+03  0.12393559924E+03 0.  0.
          5    1    4    4  502    0 -0.18526137432E+02  0.42064931751E+02 -0.42650841996E+03  0.42900372790E+03  0.47000000000E+01 0. -1.
         -5    1    4    4    0  502  0.87024535304E+01 -0.81768689835E+02 -0.43098449952E+03  0.43878420683E+03  0.47000000000E+01 0. -1.
          5    1    5    5  503    0  0.24744797360E+02  0.45707646310E+02 -0.46225755808E+03  0.46519418948E+03  0.47000000000E+01 0. -1.
         -5    1    5    5    0  503 -0.14921113458E+02 -0.60038882266E+01 -0.17841815685E+01  0.16851100988E+02  0.47000000000E+01 0. -1.
<mgrwt>
<rscale>  0 0.27494705E+03</rscale>
<asrwt>0</asrwt>
<pdfrwt beam="1">  1        2 0.20548985E+00 0.27494705E+03</pdfrwt>
<pdfrwt beam="2">  1       -2 0.21768127E-02 0.27494705E+03</pdfrwt>
<totfact> 0.11429330E+04</totfact>
</mgrwt>
</event>
<event>
 9    1  0.2054950E-002  0.2758938E+03  0.7818608E-02  0.1097953E+00
         -2   -1    0    0    0  501 -0.00000000000E+00  0.00000000000E+00  0.45745238246E+02  0.45745238246E+02  0.00000000000E+00 0. -1.
          2   -1    0    0  501    0  0.00000000000E+00 -0.00000000000E+00 -0.41598536433E+03  0.41598536433E+03  0.00000000000E+00 0. -1.
         36    2    1    2    0    0  0.35527136788E-14  0.71054273576E-14 -0.37024012609E+03  0.46173060258E+03  0.27589381724E+03 0.  0.
         25    2    3    3    0    0  0.89488396833E+01  0.17031983418E+02 -0.57411211385E+02  0.12320963622E+03  0.10730515866E+03 0.  0.
         25    2    3    3    0    0 -0.89488396833E+01 -0.17031983418E+02 -0.31282891470E+03  0.33852096636E+03  0.12792319805E+03 0.  0.
          5    1    4    4  502    0  0.37510869314E+01 -0.42742110947E+02 -0.43825183458E+02  0.61511750150E+02  0.47000000000E+01 0.  1.
         -5    1    4    4    0  502  0.51977527519E+01  0.59774094366E+02 -0.13586027927E+02  0.61697886072E+02  0.47000000000E+01 0.  1.
          5    1    5    5  503    0 -0.32960304765E+02  0.48830584785E+02 -0.14353233479E+03  0.15522380240E+03  0.47000000000E+01 0. -1.
         -5    1    5    5    0  503  0.24011465082E+02 -0.65862568204E+02 -0.16929657991E+03  0.18329716396E+03  0.47000000000E+01 0. -1.
<mgrwt>
<rscale>  0 0.27589382E+03</rscale>
<asrwt>0</asrwt>
<pdfrwt beam="1">  1        2 0.63997749E-01 0.27589382E+03</pdfrwt>
<pdfrwt beam="2">  1       -2 0.70377288E-02 0.27589382E+03</pdfrwt>
<totfact> 0.87794518E+03</totfact>
</mgrwt>
</event>
<event>
 9    1  0.2054950E-002  0.2732745E+03  0.7818608E-02  0.1099420E+00
         -1   -1    0    0    0  501 -0.00000000000E+00  0.00000000000E+00  0.14757275502E+03  0.14757275502E+03  0.00000000000E+00 0.  1.
          1   -1    0    0  501    0  0.00000000000E+00 -0.00000000000E+00 -0.12651212399E+03  0.12651212399E+03  0.00000000000E+00 0.  1.
         36    2    1    2    0    0  0.00000000000E+00  0.71054273576E-14  0.21060631034E+02  0.27408487901E+03  0.27327453361E+03 0.  0.
         25    2    3    3    0    0 -0.33014746081E+02  0.52832978230E+02  0.15002905337E+02  0.13426348951E+03  0.11798432268E+03 0.  0.
         25    2    3    3    0    0  0.33014746081E+02 -0.52832978230E+02  0.60577256967E+01  0.13982138950E+03  0.12502810834E+03 0.  0.
          5    1    4    4  502    0 -0.64255742827E+02  0.61452073015E+02 -0.14473731631E+02  0.90203861733E+02  0.47000000000E+01 0.  1.
         -5    1    4    4    0  502  0.31240996747E+02 -0.86190947857E+01  0.29476636968E+02  0.44059627774E+02  0.47000000000E+01 0.  1.
          5    1    5    5  503    0  0.24028672133E+02  0.61074630532E+01 -0.51164845127E+02  0.57049185500E+02  0.47000000000E+01 0.  1.
         -5    1    5    5    0  503  0.89860739480E+01 -0.58940441283E+02  0.57222570823E+02  0.82772204001E+02  0.47000000000E+01 0.  1.
<mgrwt>
<rscale>  0 0.27327453E+03</rscale>
<asrwt>0</asrwt>
<pdfrwt beam="1">  1        1 0.19463404E-01 0.27327453E+03</pdfrwt>
<pdfrwt beam="2">  1       -1 0.22703501E-01 0.27327453E+03</pdfrwt>
<totfact> 0.42990716E+03</totfact>
</mgrwt>
</event>
<event>
 9    1  0.2054950E-002  0.2764599E+03  0.7818608E-02  0.1097638E+00
          2   -1    0    0  501    0  0.00000000000E+00  0.00000000000E+00  0.25356867450E+04  0.25356867450E+04  0.00000000000E+00 0.  1.
         -2   -1    0    0    0  501 -0.00000000000E+00 -0.00000000000E+00 -0.75354430391E+01  0.75354430391E+01  0.00000000000E+00 0.  1.
         36    2    1    2    0    0  0.00000000000E+00  0.00000000000E+00  0.25281513020E+04  0.25432221881E+04  0.27645992861E+03 0.  0.
         25    2    3    3    0    0  0.40677606576E+02  0.24116041427E+02  0.12664330864E+04  0.12736354410E+04  0.12672104459E+03 0.  0.
         25    2    3    3    0    0 -0.40677606576E+02 -0.24116041427E+02  0.12617182156E+04  0.12695867470E+04  0.13297143159E+03 0.  0.
          5    1    4    4  502    0  0.52178436876E+01  0.49125343940E+02  0.19177966261E+03  0.19809607341E+03  0.47000000000E+01 0. -1.
         -5    1    4    4    0  502  0.35459762888E+02 -0.25009302513E+02  0.10746534238E+04  0.10755393676E+04  0.47000000000E+01 0. -1.
          5    1    5    5  503    0 -0.62425828256E+02 -0.63978660529E+02  0.99220396279E+03  0.99623342988E+03  0.47000000000E+01 0.  1.
         -5    1    5    5    0  503  0.21748221681E+02  0.39862619102E+02  0.26951425276E+03  0.27335331713E+03  0.47000000000E+01 0.  1.
<mgrwt>
<rscale>  0 0.27645993E+03</rscale>
<asrwt>0</asrwt>
<pdfrwt beam="1">  1        2 0.39010497E+00 0.27645993E+03</pdfrwt>
<pdfrwt beam="2">  1       -2 0.11593010E-02 0.27645993E+03</pdfrwt>
<totfact> 0.65908126E+03</totfact>
</mgrwt>
</event>
<event>
 9    1  0.2054950E-002  0.2806184E+03  0.7818608E-02  0.1095352E+00
         -2   -1    0    0    0  501 -0.00000000000E+00  0.00000000000E+00  0.44336078997E+02  0.44336078997E+02  0.00000000000E+00 0.  1.
          2   -1    0    0  501    0  0.00000000000E+00 -0.00000000000E+00 -0.44403273049E+03  0.44403273049E+03  0.00000000000E+00 0.  1.
         36    2    1    2    0    0  0.71054273576E-14 -0.14210854715E-13 -0.39969665150E+03  0.48836880949E+03  0.28061839011E+03 0.  0.
         25    2    3    3    0    0 -0.22463137801E+02 -0.51687340498E+02 -0.28130927136E+03  0.31353969000E+03  0.12647552067E+03 0.  0.
         25    2    3    3    0    0  0.22463137801E+02  0.51687340498E+02 -0.11838738014E+03  0.17482911949E+03  0.11564374396E+03 0.  0.
          5    1    4    4  502    0 -0.59266022740E+02 -0.60367689332E+02 -0.25080459750E+03  0.26472958938E+03  0.47000000000E+01 0.  1.
         -5    1    4    4    0  502  0.36802884939E+02  0.86803488348E+01 -0.30504673860E+02  0.48810100625E+02  0.47000000000E+01 0.  1.
          5    1    5    5  503    0 -0.74823742537E+01  0.65039533695E+02 -0.12487758534E+03  0.14107667485E+03  0.47000000000E+01 0.  1.
         -5    1    5    5    0  503  0.29945512055E+02 -0.13352193197E+02  0.64902051963E+01  0.33752444636E+02  0.47000000000E+01 0.  1.
<mgrwt>
<rscale>  0 0.28061839E+03</rscale>
<asrwt>0</asrwt>
<pdfrwt beam="1">  1        2 0.68312726E-01 0.28061839E+03</pdfrwt>
<pdfrwt beam="2">  1       -2 0.68209354E-02 0.28061839E+03</pdfrwt>
<totfact> 0.85850142E+03</totfact>
</mgrwt>
</event>
<event>
 9    1  0.2054950E-002  0.2692461E+03  0.7818608E-02  0.1101712E+00
          3   -1    0    0  501    0  0.00000000000E+00  0.00000000000E+00  0.98463908438E+02  0.98463908438E+02  0.00000000000E+00 0.  1.
         -3   -1    0    0    0  501 -0.00000000000E+00 -0.00000000000E+00 -0.18406104869E+03  0.18406104869E+03  0.00000000000E+00 0.  1.
         36    2    1    2    0    0  0.00000000000E+00 -0.71054273576E-14 -0.85597140251E+02  0.28252495713E+03  0.26924613457E+03 0.  0.
         25    2    3    3    0    0  0.11439917659E+02  0.12995543165E+02  0.12851901183E+02  0.12172827800E+03  0.11980336574E+03 0.  0.
         25    2    3    3    0    0 -0.11439917659E+02 -0.12995543165E+02 -0.98449041433E+02  0.16079667913E+03  0.12595079358E+03 0.  0.
          5    1    4    4  502    0  0.54595052162E+02  0.17847477093E+02  0.40133672547E+02  0.70227870758E+02  0.47000000000E+01 0. -1.
         -5    1    4    4    0  502 -0.43155134503E+02 -0.48519339287E+01 -0.27281771364E+02  0.51500407237E+02  0.47000000000E+01 0. -1.
          5    1    5    5  503    0 -0.16583184869E+02 -0.38065014128E+02  0.15004340466E+02  0.44397832760E+02  0.47000000000E+01 0.  1.
         -5    1    5    5    0  503  0.51432672100E+01  0.25069470964E+02 -0.11345338190E+03  0.11639884637E+03  0.47000000000E+01 0.  1.
<mgrwt>
<rscale>  0 0.26924613E+03</rscale>
<asrwt>0</asrwt>
<pdfrwt beam="1">  1        3 0.15148294E-01 0.26924613E+03</pdfrwt>
<pdfrwt beam="2">  1       -3 0.28317084E-01 0.26924613E+03</pdfrwt>
<totfact> 0.11068391E+03</totfact>
</mgrwt>
</event>
<event>
 9    1  0.2054950E-002  0.2748443E+03  0.7818608E-02  0.1098539E+00
         -2   -1    0    0    0  501 -0.00000000000E+00  0.00000000000E+00  0.46866853081E+02  0.46866853081E+02  0.00000000000E+00 0. -1.
          2   -1    0    0  501    0  0.00000000000E+00 -0.00000000000E+00 -0.40294691716E+03  0.40294691716E+03  0.00000000000E+00 0. -1.
         36    2    1    2    0    0 -0.14210854715E-13  0.17763568394E-14 -0.35608006408E+03  0.44981377024E+03  0.27484434843E+03 0.  0.
         25    2    3    3    0    0  0.44240507913E+02 -0.48819255931E+01 -0.21396642146E+03  0.25574240772E+03  0.13282128540E+03 0.  0.
         25    2    3    3    0    0 -0.44240507913E+02  0.48819255931E+01 -0.14211364262E+03  0.19407136252E+03  0.12444416657E+03 0.  0.
          5    1    4    4  502    0  0.85173677192E+02  0.14996804493E+02 -0.96423780507E+02  0.12961132234E+03  0.47000000000E+01 0.  1.
         -5    1    4    4    0  502 -0.40933169279E+02 -0.19878730086E+02 -0.11754264095E+03  0.12613108538E+03  0.47000000000E+01 0.  1.
          5    1    5    5  503    0 -0.68968758261E+02  0.27004756425E+02 -0.14237702963E+03  0.16055919485E+03  0.47000000000E+01 0. -1.
         -5    1    5    5    0  503  0.24728250347E+02 -0.22122830831E+02  0.26338700894E+00  0.33512167670E+02  0.47000000000E+01 0. -1.
<mgrwt>
<rscale>  0 0.27484435E+03</rscale>
<asrwt>0</asrwt>
<pdfrwt beam="1">  1        2 0.61991835E-01 0.27484435E+03</pdfrwt>
<pdfrwt beam="2">  1       -2 0.72102849E-02 0.27484435E+03</pdfrwt>
<totfact> 0.87530713E+03</totfact>
</mgrwt>
</event>
<event>
 9    1  0.2054950E-002  0.2747392E+03  0.7818608E-02  0.1098597E+00
          1   -1    0    0  501    0  0.00000000000E+00  0.00000000000E+00  0.10574026584E+03  0.10574026584E+03  0.00000000000E+00 0. -1.
         -1   -1    0    0    0  501 -0.00000000000E+00 -0.00000000000E+00 -0.17845996946E+03  0.17845996946E+03  0.00000000000E+00 0. -1.
         36    2    1    2    0    0  0.71054273576E-14  0.17763568394E-14 -0.72719703618E+02  0.28420023531E+03  0.27473918260E+03 0.  0.
         25    2    3    3    0    0 -0.57146550703E+02 -0.37873585296E+00 -0.35654313758E+02  0.14179099859E+03  0.12477013062E+03 0.  0.
         25    2    3    3    0    0  0.57146550703E+02  0.37873585296E+00 -0.37065389860E+02  0.14240923671E+03  0.12506268779E+03 0.  0.
          5    1    4    4  502    0 -0.42213877895E+02  0.15187436789E+02  0.41650003297E+02  0.61396111422E+02  0.47000000000E+01 0. -1.
         -5    1    4    4    0  502 -0.14932672808E+02 -0.15566172642E+02 -0.77304317055E+02  0.80394887171E+02  0.47000000000E+01 0. -1.
          5    1    5    5  503    0 -0.19535992264E+02  0.37919608806E+02 -0.37363736447E+02  0.56900707614E+02  0.47000000000E+01 0. -1.
         -5    1    5    5    0  503  0.76682542967E+02 -0.37540872953E+02  0.29834658720E+00  0.85508529099E+02  0.47000000000E+01 0. -1.
<mgrwt>
<rscale>  0 0.27473918E+03</rscale>
<asrwt>0</asrwt>
<pdfrwt beam="1">  1        1 0.16267733E-01 0.27473918E+03</pdfrwt>
<pdfrwt beam="2">  1       -1 0.27455380E-01 0.27473918E+03</pdfrwt>
<totfact> 0.39562187E+03</totfact>
</mgrwt>
</event>
<event>
 9    1  0.2054950E-002  0.2732883E+03  0.7818608E-02  0.1099412E+00
          1   -1    0    0  501    0  0.00000000000E+00  0.00000000000E+00  0.16487251303E+03  0.16487251303E+03  0.00000000000E+00 0. -1.
         -1   -1    0    0    0  501 -0.00000000000E+00 -0.00000000000E+00 -0.11324885807E+03  0.11324885807E+03  0.00000000000E+00 0. -1.
         36    2    1    2    0    0  0.00000000000E+00  0.35527136788E-14  0.51623654957E+02  0.27812137110E+03  0.27328830072E+03 0.  0.
         25    2    3    3    0    0 -0.51736956263E+02 -0.48624524714E+01  0.37416967128E+02  0.14218999020E+03  0.12695514089E+03 0.  0.
         25    2    3    3    0    0  0.51736956263E+02  0.48624524714E+01  0.14206687829E+02  0.13593138090E+03  0.12480045771E+03 0.  0.
          5    1    4    4  502    0  0.27637776125E+02  0.81716854738E+01 -0.26429607189E+02  0.39385749311E+02  0.47000000000E+01 0.  1.
         -5    1    4    4    0  502 -0.79374732388E+02 -0.13034137945E+02  0.63846574317E+02  0.10280424089E+03  0.47000000000E+01 0.  1.
          5    1    5    5  503    0  0.42039174362E+02  0.62215675225E+02  0.18310764097E+02  0.77430333246E+02  0.47000000000E+01 0. -1.
         -5    1    5    5    0  503  0.96977819006E+01 -0.57353222754E+02 -0.41040762676E+01  0.58501047649E+02  0.47000000000E+01 0. -1.
<mgrwt>
<rscale>  0 0.27328830E+03</rscale>
<asrwt>0</asrwt>
<pdfrwt beam="1">  1        1 0.25365002E-01 0.27328830E+03</pdfrwt>
<pdfrwt beam="2">  1       -1 0.17422901E-01 0.27328830E+03</pdfrwt>
<totfact> 0.47086512E+03</totfact>
</mgrwt>
</event>
<event>
 9    1  0.2054950E-002  0.2758260E+03  0.7818608E-02  0.1097991E+00
          2   -1    0    0  501    0  0.00000000000E+00  0.00000000000E+00  0.73090494212E+03  0.73090494212E+03  0.00000000000E+00 0. -1.
         -2   -1    0    0    0  501 -0.00000000000E+00 -0.00000000000E+00 -0.26022528896E+02  0.26022528896E+02  0.00000000000E+00 0. -1.
         36    2    1    2    0    0  0.35527136788E-14  0.00000000000E+00  0.70488241322E+03  0.75692747101E+03  0.27582599570E+03 0.  0.
         25    2    3    3    0    0  0.23492607481E+02  0.25065226029E+02  0.15908289149E+03  0.19589994691E+03  0.10903785889E+03 0.  0.
         25    2    3    3    0    0 -0.23492607481E+02 -0.25065226029E+02  0.54579952173E+03  0.56102752410E+03  0.12519822969E+03 0.  0.
          5    1    4    4  502    0  0.54159212082E+02  0.19160271282E+00  0.14303792981E+03  0.15302024810E+03  0.47000000000E+01 0.  1.
         -5    1    4    4    0  502 -0.30666604601E+02  0.24873623316E+02  0.16044961685E+02  0.42879698811E+02  0.47000000000E+01 0.  1.
          5    1    5    5  503    0  0.49451284738E+02  0.41827943842E+01  0.25058128535E+03  0.25549167481E+03  0.47000000000E+01 0. -1.
         -5    1    5    5    0  503 -0.72943892219E+02 -0.29248020413E+02  0.29521823638E+03  0.30553584929E+03  0.47000000000E+01 0. -1.
<mgrwt>
<rscale>  0 0.27582600E+03</rscale>
<asrwt>0</asrwt>
<pdfrwt beam="1">  1        2 0.11244690E+00 0.27582600E+03</pdfrwt>
<pdfrwt beam="2">  1       -2 0.40034665E-02 0.27582600E+03</pdfrwt>
<totfact> 0.10874452E+04</totfact>
</mgrwt>
</event>
<event>
 9    1  0.2054950E-002  0.2748588E+03  0.7818608E-02  0.1098531E+00
          1   -1    0    0  501    0  0.00000000000E+00  0.00000000000E+00  0.18701039697E+02  0.18701039697E+02  0.00000000000E+00 0. -1.
         -1   -1    0    0    0  501 -0.00000000000E+00 -0.00000000000E+00 -0.10099352050E+04  0.10099352050E+04  0.00000000000E+00 0. -1.
         36    2    1    2    0    0  0.00000000000E+00 -0.71054273576E-14 -0.99123416529E+03  0.10286362447E+04  0.27485878818E+03 0.  0.
         25    2    3    3    0    0  0.20180169698E+02  0.26165441671E+02 -0.28308946238E+03  0.31080776546E+03  0.12397561767E+03 0.  0.
         25    2    3    3    0    0 -0.20180169698E+02 -0.26165441671E+02 -0.70814470291E+03  0.71782847922E+03  0.11276939182E+03 0.  0.
          5    1    4    4  502    0 -0.48033638154E+02  0.14855857048E+02 -0.67145452933E+02  0.84015050630E+02  0.47000000000E+01 0.  1.
         -5    1    4    4    0  502  0.68213807852E+02  0.11309584624E+02 -0.21594400944E+03  0.22679271483E+03  0.47000000000E+01 0.  1.
          5    1    5    5  503    0 -0.20593341891E+01 -0.72416884945E+01 -0.67615101189E+03  0.67620926036E+03  0.47000000000E+01 0. -1.
         -5    1    5    5    0  503 -0.18120835509E+02 -0.18923753177E+02 -0.31993691023E+02  0.41619218867E+02  0.47000000000E+01 0. -1.
<mgrwt>
<rscale>  0 0.27485879E+03</rscale>
<asrwt>0</asrwt>
<pdfrwt beam="1">  1        1 0.28770835E-02 0.27485879E+03</pdfrwt>
<pdfrwt beam="2">  1       -1 0.15537462E+00 0.27485879E+03</pdfrwt>
<totfact> 0.12448147E+03</totfact>
</mgrwt>
</event>
<event>
 9    1  0.2054950E-002  0.2748992E+03  0.7818608E-02  0.1098508E+00
          4   -1    0    0  501    0  0.00000000000E+00  0.00000000000E+00  0.28537344852E+03  0.28537344852E+03  0.00000000000E+00 0. -1.
         -4   -1    0    0    0  501 -0.00000000000E+00 -0.00000000000E+00 -0.66202336747E+02  0.66202336747E+02  0.00000000000E+00 0. -1.
         36    2    1    2    0    0  0.71054273576E-14 -0.71054273576E-14  0.21917111178E+03  0.35157578527E+03  0.27489917525E+03 0.  0.
         25    2    3    3    0    0 -0.25150708454E+02  0.39697018039E+02  0.14583929628E+03  0.19927857099E+03  0.12741443066E+03 0.  0.
         25    2    3    3    0    0  0.25150708454E+02 -0.39697018039E+02  0.73331815493E+02  0.15229721428E+03  0.12493388226E+03 0.  0.
          5    1    4    4  502    0  0.27740293788E+02 -0.23628815941E+02  0.95953288585E+02  0.10274710912E+03  0.47000000000E+01 0. -1.
         -5    1    4    4    0  502 -0.52891002242E+02  0.63325833981E+02  0.49886007699E+02  0.96531461875E+02  0.47000000000E+01 0. -1.
          5    1    5    5  503    0 -0.36987622952E+02 -0.49419248974E+02  0.96229711058E+01  0.62650123653E+02  0.47000000000E+01 0. -1.
         -5    1    5    5    0  503  0.62138331406E+02  0.97222309345E+01  0.63708844387E+02  0.89647090625E+02  0.47000000000E+01 0. -1.
<mgrwt>
<rscale>  0 0.27489918E+03</rscale>
<asrwt>0</asrwt>
<pdfrwt beam="1">  1        4 0.43903607E-01 0.27489918E+03</pdfrwt>
<pdfrwt beam="2">  1       -4 0.10184975E-01 0.27489918E+03</pdfrwt>
<totfact> 0.69647502E+02</totfact>
</mgrwt>
</event>
<event>
 9    1  0.2054950E-002  0.2755705E+03  0.7818608E-02  0.1098133E+00
          1   -1    0    0  501    0  0.00000000000E+00  0.00000000000E+00  0.14736326437E+03  0.14736326437E+03  0.00000000000E+00 0. -1.
         -1   -1    0    0    0  501 -0.00000000000E+00 -0.00000000000E+00 -0.12882972349E+03  0.12882972349E+03  0.00000000000E+00 0. -1.
         36    2    1    2    0    0  0.00000000000E+00  0.00000000000E+00  0.18533540878E+02  0.27619298786E+03  0.27557045270E+03 0.  0.
         25    2    3    3    0    0  0.63004291270E+01 -0.76206669453E+01 -0.21929632769E+02  0.13139878257E+03  0.12917802172E+03 0.  0.
         25    2    3    3    0    0 -0.63004291270E+01  0.76206669453E+01  0.40463173647E+02  0.14479420529E+03  0.13867344191E+03 0.  0.
          5    1    4    4  502    0  0.10349823679E+02  0.55861136001E+02  0.13293279942E+02  0.58535345366E+02  0.47000000000E+01 0.  1.
         -5    1    4    4    0  502 -0.40493945522E+01 -0.63481802946E+02 -0.35222912711E+02  0.72863437205E+02  0.47000000000E+01 0.  1.
          5    1    5    5  503    0 -0.30695679335E+02 -0.16152690464E+02 -0.42457819641E+02  0.55026271796E+02  0.47000000000E+01 0. -1.
         -5    1    5    5    0  503  0.24395250208E+02  0.23773357409E+02  0.82920993288E+02  0.89767933490E+02  0.47000000000E+01 0. -1.
<mgrwt>
<rscale>  0 0.27557045E+03</rscale>
<asrwt>0</asrwt>
<pdfrwt beam="1">  1        1 0.22671271E-01 0.27557045E+03</pdfrwt>
<pdfrwt beam="2">  1       -1 0.19819957E-01 0.27557045E+03</pdfrwt>
<totfact> 0.44137356E+03</totfact>
</mgrwt>
</event>
<event>
 9    1  0.2054950E-002  0.2759343E+03  0.7818608E-02  0.1097931E+00
         -1   -1    0    0    0  501 -0.00000000000E+00  0.00000000000E+00  0.13676274354E+03  0.13676274354E+03  0.00000000000E+00 0. -1.
          1   -1    0    0  501    0  0.00000000000E+00 -0.00000000000E+00 -0.13918213071E+03  0.13918213071E+03  0.00000000000E+00 0. -1.
         36    2    1    2    0    0 -0.14210854715E-13  0.71054273576E-14 -0.24193871676E+01  0.27594487424E+03  0.27593426787E+03 0.  0.
         25    2    3    3    0    0  0.50873645646E+02 -0.18042385553E+02 -0.18692884164E+02  0.13854096254E+03  0.12621615936E+03 0.  0.
         25    2    3    3    0    0 -0.50873645646E+02  0.18042385553E+02  0.16273496996E+02  0.13740391171E+03  0.12530503881E+03 0.  0.
          5    1    4    4  502    0  0.85070942332E+02  0.60669427238E+01  0.12248162125E+02  0.86290095021E+02  0.47000000000E+01 0.  1.
         -5    1    4    4    0  502 -0.34197296686E+02 -0.24109328276E+02 -0.30941046289E+02  0.52250867515E+02  0.47000000000E+01 0.  1.
          5    1    5    5  503    0 -0.54539910489E+01 -0.45297015599E+02 -0.21511137816E+02  0.50659497537E+02  0.47000000000E+01 0. -1.
         -5    1    5    5    0  503 -0.45419654597E+02  0.63339401152E+02  0.37784634812E+02  0.86744414171E+02  0.47000000000E+01 0. -1.
<mgrwt>
<rscale>  0 0.27593427E+03</rscale>
<asrwt>0</asrwt>
<pdfrwt beam="1">  1        1 0.21412635E-01 0.27593427E+03</pdfrwt>
<pdfrwt beam="2">  1       -1 0.21040422E-01 0.27593427E+03</pdfrwt>
<totfact> 0.43085715E+03</totfact>
</mgrwt>
</event>
<event>
 9    1  0.2054950E-002  0.2750308E+03  0.7818608E-02  0.1098434E+00
         -2   -1    0    0    0  501 -0.00000000000E+00  0.00000000000E+00  0.29706602963E+02  0.29706602963E+02  0.00000000000E+00 0. -1.
          2   -1    0    0  501    0  0.00000000000E+00 -0.00000000000E+00 -0.63657530503E+03  0.63657530503E+03  0.00000000000E+00 0. -1.
         36    2    1    2    0    0  0.00000000000E+00  0.14210854715E-13 -0.60686870207E+03  0.66628190799E+03  0.27503083349E+03 0.  0.
         25    2    3    3    0    0 -0.21776900849E+02  0.51198493784E+02 -0.24882714506E+03  0.28309539016E+03  0.12301435947E+03 0.  0.
         25    2    3    3    0    0  0.21776900849E+02 -0.51198493784E+02 -0.35804155700E+03  0.38318651783E+03  0.12467009155E+03 0.  0.
          5    1    4    4  502    0 -0.41822438214E+02  0.10746148056E+02 -0.16641834071E+02  0.46514908121E+02  0.47000000000E+01 0.  1.
         -5    1    4    4    0  502  0.20045537365E+02  0.40452345728E+02 -0.23218531099E+03  0.23658048204E+03  0.47000000000E+01 0.  1.
          5    1    5    5  503    0  0.32785780784E+02  0.15269793711E+02 -0.27135897136E+02  0.45459002793E+02  0.47000000000E+01 0. -1.
         -5    1    5    5    0  503 -0.11008879935E+02 -0.66468287495E+02 -0.33090565987E+03  0.33772751504E+03  0.47000000000E+01 0. -1.
<mgrwt>
<rscale>  0 0.27503083E+03</rscale>
<asrwt>0</asrwt>
<pdfrwt beam="1">  1        2 0.97934670E-01 0.27503083E+03</pdfrwt>
<pdfrwt beam="2">  1       -2 0.45702463E-02 0.27503083E+03</pdfrwt>
<totfact> 0.10516666E+04</totfact>
</mgrwt>
</event>
<event>
 9    1  0.2054950E-002  0.2770859E+03  0.7818608E-02  0.1097291E+00
          1   -1    0    0  501    0  0.00000000000E+00  0.00000000000E+00  0.53930251535E+02  0.53930251535E+02  0.00000000000E+00 0.  1.
         -1   -1    0    0    0  501 -0.00000000000E+00 -0.00000000000E+00 -0.35590691589E+03  0.35590691589E+03  0.00000000000E+00 0.  1.
         36    2    1    2    0    0  0.71054273576E-14 -0.35527136788E-14 -0.30197666436E+03  0.40983716743E+03  0.27708590363E+03 0.  0.
         25    2    3    3    0    0 -0.63359421361E+02  0.15551789257E+02 -0.15148136996E+03  0.20604478675E+03  0.12349726426E+03 0.  0.
         25    2    3    3    0    0  0.63359421361E+02 -0.15551789257E+02 -0.15049529440E+03  0.20379238067E+03  0.12093893649E+03 0.  0.
          5    1    4    4  502    0 -0.78504343561E+02 -0.13060941490E+02 -0.38707588154E+02  0.88622161626E+02  0.47000000000E+01 0.  1.
         -5    1    4    4    0  502  0.15144922200E+02  0.28612730748E+02 -0.11277378181E+03  0.11742262513E+03  0.47000000000E+01 0.  1.
          5    1    5    5  503    0  0.25269489459E+02 -0.66918448131E+02 -0.94860703765E+02  0.11890024776E+03  0.47000000000E+01 0. -1.
         -5    1    5    5    0  503  0.38089931902E+02  0.51366658873E+02 -0.55634590631E+02  0.84892132915E+02  0.47000000000E+01 0. -1.
<mgrwt>
<rscale>  0 0.27708590E+03</rscale>
<asrwt>0</asrwt>
<pdfrwt beam="1">  1        1 0.82969617E-02 0.27708590E+03</pdfrwt>
<pdfrwt beam="2">  1       -1 0.54754911E-01 0.27708590E+03</pdfrwt>
<totfact> 0.28561380E+03</totfact>
</mgrwt>
</event>
<event>
 9    1  0.2054950E-002  0.2728903E+03  0.7818608E-02  0.1099637E+00
         -1   -1    0    0    0  501 -0.00000000000E+00  0.00000000000E+00  0.54957188636E+02  0.54957188636E+02  0.00000000000E+00 0.  1.
          1   -1    0    0  501    0  0.00000000000E+00 -0.00000000000E+00 -0.33875957249E+03  0.33875957249E+03  0.00000000000E+00 0.  1.
         36    2    1    2    0    0 -0.55511151231E-14  0.00000000000E+00 -0.28380238386E+03  0.39371676113E+03  0.27289026166E+03 0.  0.
         25    2    3    3    0    0 -0.28941742547E+00 -0.54095546728E+02 -0.12647860428E+03  0.18466393453E+03  0.12319707561E+03 0.  0.
         25    2    3    3    0    0  0.28941742547E+00  0.54095546728E+02 -0.15732377958E+03  0.20905282659E+03  0.12659344670E+03 0.  0.
          5    1    4    4  502    0 -0.16354714103E+00 -0.58286997267E+02 -0.14964073367E+03  0.16066063603E+03  0.47000000000E+01 0. -1.
         -5    1    4    4    0  502 -0.12587028443E+00  0.41914505388E+01  0.23162129392E+02  0.24003298501E+02  0.47000000000E+01 0. -1.
          5    1    5    5  503    0 -0.39662211286E+02  0.64941459074E+02 -0.14781408805E+03  0.16631770422E+03  0.47000000000E+01 0.  1.
         -5    1    5    5    0  503  0.39951628711E+02 -0.10845912345E+02 -0.95096915296E+01  0.42735122374E+02  0.47000000000E+01 0.  1.
<mgrwt>
<rscale>  0 0.27289026E+03</rscale>
<asrwt>0</asrwt>
<pdfrwt beam="1">  1        1 0.52116859E-01 0.27289026E+03</pdfrwt>
<pdfrwt beam="2">  1       -1 0.84549518E-02 0.27289026E+03</pdfrwt>
<totfact> 0.58933422E+03</totfact>
</mgrwt>
</event>
<event>
 9    1  0.2054950E-002  0.2772592E+03  0.7818608E-02  0.1097195E+00
          1   -1    0    0  501    0  0.00000000000E+00  0.00000000000E+00  0.10959637731E+04  0.10959637731E+04  0.00000000000E+00 0.  1.
         -1   -1    0    0    0  501 -0.00000000000E+00 -0.00000000000E+00 -0.17535407741E+02  0.17535407741E+02  0.00000000000E+00 0.  1.
         36    2    1    2    0    0  0.00000000000E+00  0.35527136788E-14  0.10784283654E+04  0.11134991809E+04  0.27725924065E+03 0.  0.
         25    2    3    3    0    0 -0.47766324283E+02  0.77768437953E+01  0.42863374402E+03  0.45005907085E+03  0.12839073061E+03 0.  0.
         25    2    3    3    0    0  0.47766324283E+02 -0.77768437953E+01  0.64979462138E+03  0.66344011004E+03  0.12481037053E+03 0.  0.
          5    1    4    4  502    0 -0.10552980685E+02  0.63230674754E+02  0.14461121532E+03  0.15825289011E+03  0.47000000000E+01 0.  1.
         -5    1    4    4    0  502 -0.37213343598E+02 -0.55453830959E+02  0.28402252870E+03  0.29180618074E+03  0.47000000000E+01 0.  1.
          5    1    5    5  503    0 -0.85555477029E+01 -0.32016446249E+02  0.48036208283E+02  0.58547566415E+02  0.47000000000E+01 0.  1.
         -5    1    5    5    0  503  0.56321871986E+02  0.24239602454E+02  0.60175841310E+03  0.60489254362E+03  0.47000000000E+01 0.  1.
<mgrwt>
<rscale>  0 0.27725924E+03</rscale>
<asrwt>0</asrwt>
<pdfrwt beam="1">  1        1 0.16860976E+00 0.27725924E+03</pdfrwt>
<pdfrwt beam="2">  1       -1 0.26977559E-02 0.27725924E+03</pdfrwt>
<totfact> 0.59944405E+03</totfact>
</mgrwt>
</event>
<event>
 9    1  0.2054950E-002  0.2747868E+03  0.7818608E-02  0.1098571E+00
         -2   -1    0    0    0  501 -0.00000000000E+00  0.00000000000E+00  0.15308768307E+03  0.15308768307E+03  0.00000000000E+00 0. -1.
          2   -1    0    0  501    0  0.00000000000E+00 -0.00000000000E+00 -0.12330802821E+03  0.12330802821E+03  0.00000000000E+00 0. -1.
         36    2    1    2    0    0  0.00000000000E+00  0.00000000000E+00  0.29779654861E+02  0.27639571128E+03  0.27478675617E+03 0.  0.
         25    2    3    3    0    0  0.52510156159E+02  0.22632291397E+02  0.12489682380E+02  0.13795809895E+03  0.12492761019E+03 0.  0.
         25    2    3    3    0    0 -0.52510156159E+02 -0.22632291397E+02  0.17289972481E+02  0.13843761233E+03  0.12488591692E+03 0.  0.
          5    1    4    4  502    0 -0.12502573936E+02  0.31701936760E+02 -0.40735670728E+02  0.53318027149E+02  0.47000000000E+01 0. -1.
         -5    1    4    4    0  502  0.65012730095E+02 -0.90696453634E+01  0.53225353107E+02  0.84640071803E+02  0.47000000000E+01 0. -1.
          5    1    5    5  503    0  0.13630268649E+02  0.33310615001E+02  0.34404705369E+02  0.50011549133E+02  0.47000000000E+01 0. -1.
         -5    1    5    5    0  503 -0.66140424808E+02 -0.55942906398E+02 -0.17114732887E+02  0.88426063193E+02  0.47000000000E+01 0. -1.
<mgrwt>
<rscale>  0 0.27478676E+03</rscale>
<asrwt>0</asrwt>
<pdfrwt beam="1">  1        2 0.18970466E-01 0.27478676E+03</pdfrwt>
<pdfrwt beam="2">  1       -2 0.23551951E-01 0.27478676E+03</pdfrwt>
<totfact> 0.46353226E+03</totfact>
</mgrwt>
</event>
<event>
 9    1  0.2054950E-002  0.2745494E+03  0.7818608E-02  0.1098704E+00
          2   -1    0    0  501    0  0.00000000000E+00  0.00000000000E+00  0.71568042214E+03  0.71568042214E+03  0.00000000000E+00 0.  1.
         -2   -1    0    0    0  501 -0.00000000000E+00 -0.00000000000E+00 -0.26330671022E+02  0.26330671022E+02  0.00000000000E+00 0.  1.
         36    2    1    2    0    0 -0.35527136788E-14 -0.71054273576E-14  0.68934975112E+03  0.74201109316E+03  0.27454941816E+03 0.  0.
         25    2    3    3    0    0 -0.23602132209E+02 -0.26071917941E+02  0.19968896364E+03  0.23610209387E+03  0.12096160953E+03 0.  0.
         25    2    3    3    0    0  0.23602132209E+02  0.26071917941E+02  0.48966078748E+03  0.50590899929E+03  0.12222693329E+03 0.  0.
          5    1    4    4  502    0 -0.72024954141E+02 -0.25388952360E+02  0.10881515197E+03  0.13302263048E+03  0.47000000000E+01 0. -1.
         -5    1    4    4    0  502  0.48422821933E+02 -0.68296558079E+00  0.90873811672E+02  0.10307946339E+03  0.47000000000E+01 0. -1.
          5    1    5    5  503    0  0.50675413475E+02 -0.32200102627E+02  0.28713755183E+03  0.29338525493E+03  0.47000000000E+01 0. -1.
         -5    1    5    5    0  503 -0.27073281267E+02  0.58272020567E+02  0.20252323564E+03  0.21252374436E+03  0.47000000000E+01 0. -1.
<mgrwt>
<rscale>  0 0.27454942E+03</rscale>
<asrwt>0</asrwt>
<pdfrwt beam="1">  1        2 0.11010467E+00 0.27454942E+03</pdfrwt>
<pdfrwt beam="2">  1       -2 0.40508730E-02 0.27454942E+03</pdfrwt>
<totfact> 0.10961152E+04</totfact>
</mgrwt>
</event>
<event>
 9    1  0.2054950E-002  0.2754700E+03  0.7818608E-02  0.1098189E+00
          1   -1    0    0  501    0  0.00000000000E+00  0.00000000000E+00  0.53723496424E+03  0.53723496424E+03  0.00000000000E+00 0.  1.
         -1   -1    0    0    0  501 -0.00000000000E+00 -0.00000000000E+00 -0.35312170710E+02  0.35312170710E+02  0.00000000000E+00 0.  1.
         36    2    1    2    0    0  0.17763568394E-14  0.71054273576E-14  0.50192279353E+03  0.57254713495E+03  0.27547001847E+03 0.  0.
         25    2    3    3    0    0 -0.62839173343E+01  0.15585716596E+02  0.14325050997E+03  0.19232911468E+03  0.12722962536E+03 0.  0.
         25    2    3    3    0    0  0.62839173343E+01 -0.15585716596E+02  0.35867228357E+03  0.38021802027E+03  0.12505012499E+03 0.  0.
          5    1    4    4  502    0  0.23870064291E+02 -0.48797333111E+02  0.43531602906E+02  0.69771413484E+02  0.47000000000E+01 0.  1.
         -5    1    4    4    0  502 -0.30153981625E+02  0.64383049707E+02  0.99718907060E+02  0.12255770120E+03  0.47000000000E+01 0.  1.
          5    1    5    5  503    0 -0.25037905733E+01 -0.69952925591E+02  0.22086035666E+03  0.23173490870E+03  0.47000000000E+01 0. -1.
         -5    1    5    5    0  503  0.87877079076E+01  0.54367208995E+02  0.13781192691E+03  0.14848311157E+03  0.47000000000E+01 0. -1.
<mgrwt>
<rscale>  0 0.27547002E+03</rscale>
<asrwt>0</asrwt>
<pdfrwt beam="1">  1        1 0.82651527E-01 0.27547002E+03</pdfrwt>
<pdfrwt beam="2">  1       -1 0.54326421E-02 0.27547002E+03</pdfrwt>
<totfact> 0.63359763E+03</totfact>
</mgrwt>
</event>
<event>
 9    1  0.2054950E-002  0.2748605E+03  0.7818608E-02  0.1098530E+00
          1   -1    0    0  501    0  0.00000000000E+00  0.00000000000E+00  0.66476011757E+03  0.66476011757E+03  0.00000000000E+00 0.  1.
         -1   -1    0    0    0  501 -0.00000000000E+00 -0.00000000000E+00 -0.28411864363E+02  0.28411864363E+02  0.00000000000E+00 0.  1.
         36    2    1    2    0    0  0.00000000000E+00  0.35527136788E-14  0.63634825321E+03  0.69317198194E+03  0.27486050495E+03 0.  0.
         25    2    3    3    0    0 -0.70488862309E+02  0.15293358512E+02  0.27272405226E+03  0.30933112747E+03  0.12690457524E+03 0.  0.
         25    2    3    3    0    0  0.70488862309E+02 -0.15293358512E+02  0.36362420095E+03  0.38384085447E+03  0.99542330272E+02 0.  0.
          5    1    4    4  502    0 -0.62937594153E+02  0.67158425167E+02  0.19195321588E+03  0.21293079138E+03  0.47000000000E+01 0. -1.
         -5    1    4    4    0  502 -0.75512681559E+01 -0.51865066656E+02  0.80770836375E+02  0.96400336092E+02  0.47000000000E+01 0. -1.
          5    1    5    5  503    0 -0.14619984416E+02  0.21998458321E+02  0.50467288393E+02  0.57155168713E+02  0.47000000000E+01 0.  1.
         -5    1    5    5    0  503  0.85108846725E+02 -0.37291816833E+02  0.31315691256E+03  0.32668568576E+03  0.47000000000E+01 0.  1.
<mgrwt>
<rscale>  0 0.27486050E+03</rscale>
<asrwt>0</asrwt>
<pdfrwt beam="1">  1        1 0.10227078E+00 0.27486050E+03</pdfrwt>
<pdfrwt beam="2">  1       -1 0.43710565E-02 0.27486050E+03</pdfrwt>
<totfact> 0.65262937E+03</totfact>
</mgrwt>
</event>
<event>
 9    1  0.2054950E-002  0.2743735E+03  0.7818608E-02  0.1098802E+00
         -2   -1    0    0    0  501 -0.00000000000E+00  0.00000000000E+00  0.66122520946E+02  0.66122520946E+02  0.00000000000E+00 0.  1.
          2   -1    0    0  501    0  0.00000000000E+00 -0.00000000000E+00 -0.28462618638E+03  0.28462618638E+03  0.00000000000E+00 0.  1.
         36    2    1    2    0    0 -0.35527136788E-14  0.00000000000E+00 -0.21850366543E+03  0.35074870732E+03  0.27437347518E+03 0.  0.
         25    2    3    3    0    0 -0.29007690120E+02 -0.40546377615E+02 -0.92921328549E+02  0.16694768192E+03  0.12942836002E+03 0.  0.
         25    2    3    3    0    0  0.29007690120E+02  0.40546377615E+02 -0.12558233688E+03  0.18380102540E+03  0.12460513143E+03 0.  0.
          5    1    4    4  502    0 -0.36296776351E+02 -0.36168057811E+02  0.18816635654E+02  0.54788138832E+02  0.47000000000E+01 0.  1.
         -5    1    4    4    0  502  0.72890862313E+01 -0.43783198039E+01 -0.11173796420E+03  0.11215954309E+03  0.47000000000E+01 0.  1.
          5    1    5    5  503    0  0.84944408363E+01  0.16761706813E+02  0.24024448990E+02  0.30860565285E+02  0.47000000000E+01 0.  1.
         -5    1    5    5    0  503  0.20513249284E+02  0.23784670802E+02 -0.14960678587E+03  0.15294046012E+03  0.47000000000E+01 0.  1.
<mgrwt>
<rscale>  0 0.27437348E+03</rscale>
<asrwt>0</asrwt>
<pdfrwt beam="1">  1        2 0.43788644E-01 0.27437348E+03</pdfrwt>
<pdfrwt beam="2">  1       -2 0.10172696E-01 0.27437348E+03</pdfrwt>
<totfact> 0.74175929E+03</totfact>
</mgrwt>
</event>
<event>
 9    1  0.2054950E-002  0.2752839E+03  0.7818608E-02  0.1098293E+00
          2   -1    0    0  501    0  0.00000000000E+00  0.00000000000E+00  0.23208476874E+04  0.23208476874E+04  0.00000000000E+00 0. -1.
         -2   -1    0    0    0  501 -0.00000000000E+00 -0.00000000000E+00 -0.81630954723E+01  0.81630954723E+01  0.00000000000E+00 0. -1.
         36    2    1    2    0    0  0.35527136788E-14  0.00000000000E+00  0.23126845919E+04  0.23290107829E+04  0.27528386258E+03 0.  0.
         25    2    3    3    0    0 -0.12194931586E+01  0.14611936531E+02  0.16236653806E+04  0.16284164408E+04  0.12343354785E+03 0.  0.
         25    2    3    3    0    0  0.12194931586E+01 -0.14611936531E+02  0.68901921133E+03  0.70059434205E+03  0.12597604010E+03 0.  0.
          5    1    4    4  502    0  0.27744084069E+02  0.62166361923E+02  0.93656630162E+03  0.93904894339E+03  0.47000000000E+01 0.  1.
         -5    1    4    4    0  502 -0.28963577228E+02 -0.47554425392E+02  0.68709907899E+03  0.68936749744E+03  0.47000000000E+01 0.  1.
          5    1    5    5  503    0 -0.27505659201E+02  0.26138519347E+02  0.57242575490E+03  0.57370124486E+03  0.47000000000E+01 0.  1.
         -5    1    5    5    0  503  0.28725152360E+02 -0.40750455877E+02  0.11659345643E+03  0.12689309719E+03  0.47000000000E+01 0.  1.
<mgrwt>
<rscale>  0 0.27528386E+03</rscale>
<asrwt>0</asrwt>
<pdfrwt beam="1">  1        2 0.35705296E+00 0.27528386E+03</pdfrwt>
<pdfrwt beam="2">  1       -2 0.12558627E-02 0.27528386E+03</pdfrwt>
<totfact> 0.76757092E+03</totfact>
</mgrwt>
</event>
<event>
 9    1  0.2054950E-002  0.2736034E+03  0.7818608E-02  0.1099235E+00
          2   -1    0    0  501    0  0.00000000000E+00  0.00000000000E+00  0.61184333302E+03  0.61184333302E+03  0.00000000000E+00 0.  1.
         -2   -1    0    0    0  501 -0.00000000000E+00 -0.00000000000E+00 -0.30587408796E+02  0.30587408796E+02  0.00000000000E+00 0.  1.
         36    2    1    2    0    0  0.00000000000E+00  0.71054273576E-14  0.58125592423E+03  0.64243074182E+03  0.27360337824E+03 0.  0.
         25    2    3    3    0    0  0.34695523725E+02  0.22761074148E+02  0.36827311411E+03  0.39169742311E+03  0.12680669871E+03 0.  0.
         25    2    3    3    0    0 -0.34695523725E+02 -0.22761074148E+02  0.21298281012E+03  0.25073331871E+03  0.12563309214E+03 0.  0.
          5    1    4    4  502    0  0.78967488943E+01 -0.52119361214E+02  0.12608687361E+03  0.13674346841E+03  0.47000000000E+01 0.  1.
         -5    1    4    4    0  502  0.26798774831E+02  0.74880435362E+02  0.24218624049E+03  0.25495395470E+03  0.47000000000E+01 0.  1.
          5    1    5    5  503    0  0.27578416338E+02  0.16713313082E+02  0.15045684629E+03  0.15394562832E+03  0.47000000000E+01 0. -1.
         -5    1    5    5    0  503 -0.62273940063E+02 -0.39474387230E+02  0.62525963828E+02  0.96787690389E+02  0.47000000000E+01 0. -1.
<mgrwt>
<rscale>  0 0.27360338E+03</rscale>
<asrwt>0</asrwt>
<pdfrwt beam="1">  1        2 0.94129734E-01 0.27360338E+03</pdfrwt>
<pdfrwt beam="2">  1       -2 0.47057557E-02 0.27360338E+03</pdfrwt>
<totfact> 0.10538311E+04</totfact>
</mgrwt>
</event>
<event>
 9    1  0.2054950E-002  0.2737209E+03  0.7818608E-02  0.1099169E+00
          1   -1    0    0  501    0  0.00000000000E+00  0.00000000000E+00  0.33006091429E+03  0.33006091429E+03  0.00000000000E+00 0. -1.
         -1   -1    0    0    0  501 -0.00000000000E+00 -0.00000000000E+00 -0.56749487356E+02  0.56749487356E+02  0.00000000000E+00 0. -1.
         36    2    1    2    0    0  0.35527136788E-14 -0.71054273576E-14  0.27331142693E+03  0.38681040165E+03  0.27372093586E+03 0.  0.
         25    2    3    3    0    0 -0.18194919065E+02  0.43040240807E+02  0.17823134558E+03  0.22240374273E+03  0.12455318070E+03 0.  0.
         25    2    3    3    0    0  0.18194919065E+02 -0.43040240807E+02  0.95080081355E+02  0.16440665892E+03  0.12572116058E+03 0.  0.
          5    1    4    4  502    0 -0.38660928183E+02 -0.33606367860E+02  0.51315288097E+02  0.72659508126E+02  0.47000000000E+01 0. -1.
         -5    1    4    4    0  502  0.20466009118E+02  0.76646608667E+02  0.12691605748E+03  0.14974423460E+03  0.47000000000E+01 0. -1.
          5    1    5    5  503    0 -0.31992122365E+01 -0.95807528590E+01  0.11785780111E+03  0.11838317899E+03  0.47000000000E+01 0.  1.
         -5    1    5    5    0  503  0.21394131302E+02 -0.33459487948E+02 -0.22777719755E+02  0.46023479933E+02  0.47000000000E+01 0.  1.
<mgrwt>
<rscale>  0 0.27372094E+03</rscale>
<asrwt>0</asrwt>
<pdfrwt beam="1">  1        1 0.50778601E-01 0.27372094E+03</pdfrwt>
<pdfrwt beam="2">  1       -1 0.87306905E-02 0.27372094E+03</pdfrwt>
<totfact> 0.57986297E+03</totfact>
</mgrwt>
</event>
<event>
 9    1  0.2054950E-002  0.2749208E+03  0.7818608E-02  0.1098496E+00
         -1   -1    0    0    0  501 -0.00000000000E+00  0.00000000000E+00  0.31898966725E+03  0.31898966725E+03  0.00000000000E+00 0.  1.
          1   -1    0    0  501    0  0.00000000000E+00 -0.00000000000E+00 -0.59235026914E+02  0.59235026914E+02  0.00000000000E+00 0.  1.
         36    2    1    2    0    0 -0.14210854715E-13 -0.35527136788E-14  0.25975464034E+03  0.37822469416E+03  0.27492079968E+03 0.  0.
         25    2    3    3    0    0  0.55244947889E+02  0.19118898382E+02  0.12226363279E+03  0.18571858327E+03  0.12698606115E+03 0.  0.
         25    2    3    3    0    0 -0.55244947889E+02 -0.19118898382E+02  0.13749100755E+03  0.19250611089E+03  0.12139723651E+03 0.  0.
          5    1    4    4  502    0  0.42485746919E+02 -0.38279455465E+02  0.90902579938E+01  0.58095423162E+02  0.47000000000E+01 0.  1.
         -5    1    4    4    0  502  0.12759200970E+02  0.57398353848E+02  0.11317337480E+03  0.12762316011E+03  0.47000000000E+01 0.  1.
          5    1    5    5  503    0  0.33910965994E+02 -0.86653144925E+01  0.75389027381E+02  0.83250445881E+02  0.47000000000E+01 0.  1.
         -5    1    5    5    0  503 -0.89155913883E+02 -0.10453583890E+02  0.62101980164E+02  0.10925566501E+03  0.47000000000E+01 0.  1.
<mgrwt>
<rscale>  0 0.27492080E+03</rscale>
<asrwt>0</asrwt>
<pdfrwt beam="1">  1        1 0.91130813E-02 0.27492080E+03</pdfrwt>
<pdfrwt beam="2">  1       -1 0.49075332E-01 0.27492080E+03</pdfrwt>
<totfact> 0.30839501E+03</totfact>
</mgrwt>
</event>
<event>
 9    1  0.2054950E-002  0.2756131E+03  0.7818608E-02  0.1098109E+00
         -1   -1    0    0    0  501 -0.00000000000E+00  0.00000000000E+00  0.37702664619E+02  0.37702664619E+02  0.00000000000E+00 0.  1.
          1   -1    0    0  501    0  0.00000000000E+00 -0.00000000000E+00 -0.50369490358E+03  0.50369490358E+03  0.00000000000E+00 0.  1.
         36    2    1    2    0    0 -0.71054273576E-14  0.00000000000E+00 -0.46599223896E+03  0.54139756820E+03  0.27561306224E+03 0.  0.
         25    2    3    3    0    0 -0.35828902161E+02 -0.38276236214E+02 -0.22503979187E+03  0.26285188931E+03  0.12529735552E+03 0.  0.
         25    2    3    3    0    0  0.35828902161E+02  0.38276236214E+02 -0.24095244709E+03  0.27854567889E+03  0.12954085448E+03 0.  0.
          5    1    4    4  502    0 -0.76059816235E+02 -0.36574221654E+02 -0.19457067656E+03  0.21213818023E+03  0.47000000000E+01 0.  1.
         -5    1    4    4    0  502  0.40230914075E+02 -0.17020145598E+01 -0.30469115314E+02  0.50713709082E+02  0.47000000000E+01 0.  1.
          5    1    5    5  503    0  0.45312885872E+02  0.54909515986E+02 -0.24765079652E+03  0.25772333924E+03  0.47000000000E+01 0.  1.
         -5    1    5    5    0  503 -0.94839837110E+01 -0.16633279772E+02  0.66983494355E+01  0.20822339642E+02  0.47000000000E+01 0.  1.
<mgrwt>
<rscale>  0 0.27561306E+03</rscale>
<asrwt>0</asrwt>
<pdfrwt beam="1">  1        1 0.77491526E-01 0.27561306E+03</pdfrwt>
<pdfrwt beam="2">  1       -1 0.58004098E-02 0.27561306E+03</pdfrwt>
<totfact> 0.62594405E+03</totfact>
</mgrwt>
</event>
<event>
 9    1  0.2054950E-002  0.2746751E+03  0.7818608E-02  0.1098633E+00
          1   -1    0    0  501    0  0.00000000000E+00  0.00000000000E+00  0.60429364248E+03  0.60429364248E+03  0.00000000000E+00 0.  1.
         -1   -1    0    0    0  501 -0.00000000000E+00 -0.00000000000E+00 -0.31212655232E+02  0.31212655232E+02  0.00000000000E+00 0.  1.
         36    2    1    2    0    0  0.00000000000E+00  0.71054273576E-14  0.57308098725E+03  0.63550629771E+03  0.27467514719E+03 0.  0.
         25    2    3    3    0    0 -0.32219316001E+02  0.53817969579E+02  0.20335915360E+03  0.24067759922E+03  0.11241131278E+03 0.  0.
         25    2    3    3    0    0  0.32219316001E+02 -0.53817969579E+02  0.36972183365E+03  0.39482869849E+03  0.12353545525E+03 0.  0.
          5    1    4    4  502    0 -0.42992032201E+01 -0.31346193855E+02  0.23569321917E+02  0.39732479826E+02  0.47000000000E+01 0. -1.
         -5    1    4    4    0  502 -0.27920112781E+02  0.85164163434E+02  0.17978983169E+03  0.20094511940E+03  0.47000000000E+01 0. -1.
          5    1    5    5  503    0  0.56527896431E+02 -0.34418515425E+02  0.82406392023E+02  0.10579669525E+03  0.47000000000E+01 0.  1.
         -5    1    5    5    0  503 -0.24308580430E+02 -0.19399454153E+02  0.28731544162E+03  0.28903200324E+03  0.47000000000E+01 0.  1.
<mgrwt>
<rscale>  0 0.27467515E+03</rscale>
<asrwt>0</asrwt>
<pdfrwt beam="1">  1        1 0.92968245E-01 0.27467515E+03</pdfrwt>
<pdfrwt beam="2">  1       -1 0.48019474E-02 0.27467515E+03</pdfrwt>
<totfact> 0.64885225E+03</totfact>
</mgrwt>
</event>
<event>
 9    1  0.2054950E-002  0.2748520E+03  0.7818608E-02  0.1098534E+00
         -4   -1    0    0    0  501 -0.00000000000E+00  0.00000000000E+00  0.10964482094E+03  0.10964482094E+03  0.00000000000E+00 0.  1.
          4   -1    0    0  501    0  0.00000000000E+00 -0.00000000000E+00 -0.17224620842E+03  0.17224620842E+03  0.00000000000E+00 0.  1.
         36    2    1    2    0    0  0.00000000000E+00  0.00000000000E+00 -0.62601387488E+02  0.28189102936E+03  0.27485199421E+03 0.  0.
         25    2    3    3    0    0  0.58486651180E+02  0.10084165708E+02 -0.40744691345E+02  0.14162836799E+03  0.12196756118E+03 0.  0.
         25    2    3    3    0    0 -0.58486651180E+02 -0.10084165708E+02 -0.21856696143E+02  0.14026266137E+03  0.12519393054E+03 0.  0.
          5    1    4    4  502    0 -0.16113881749E+00 -0.50440442331E+02 -0.90285553651E+01  0.51457448442E+02  0.47000000000E+01 0. -1.
         -5    1    4    4    0  502  0.58647789998E+02  0.60524608039E+02 -0.31716135980E+02  0.90170919544E+02  0.47000000000E+01 0. -1.
          5    1    5    5  503    0  0.25416083927E+02 -0.13770150367E+02  0.29613980795E+02  0.41649396416E+02  0.47000000000E+01 0. -1.
         -5    1    5    5    0  503 -0.83902735107E+02  0.36859846583E+01 -0.51470676938E+02  0.98613264958E+02  0.47000000000E+01 0. -1.
<mgrwt>
<rscale>  0 0.27485199E+03</rscale>
<asrwt>0</asrwt>
<pdfrwt beam="1">  1        4 0.26499417E-01 0.27485199E+03</pdfrwt>
<pdfrwt beam="2">  1       -4 0.16868434E-01 0.27485199E+03</pdfrwt>
<totfact> 0.77185538E+02</totfact>
</mgrwt>
</event>
<event>
 9    1  0.2054950E-002  0.2749899E+03  0.7818608E-02  0.1098457E+00
         -1   -1    0    0    0  501 -0.00000000000E+00  0.00000000000E+00  0.11037885361E+03  0.11037885361E+03  0.00000000000E+00 0.  1.
          1   -1    0    0  501    0  0.00000000000E+00 -0.00000000000E+00 -0.17127252129E+03  0.17127252129E+03  0.00000000000E+00 0.  1.
         36    2    1    2    0    0 -0.35527136788E-14  0.14210854715E-13 -0.60893667678E+02  0.28165137490E+03  0.27498992385E+03 0.  0.
         25    2    3    3    0    0 -0.92006383873E+01  0.52955313951E+02 -0.41506745525E+02  0.14468221592E+03  0.12775451717E+03 0.  0.
         25    2    3    3    0    0  0.92006383873E+01 -0.52955313951E+02 -0.19386922153E+02  0.13696915898E+03  0.12448204987E+03 0.  0.
          5    1    4    4  502    0 -0.41047302794E+02 -0.28810877490E+02 -0.20144633923E+02  0.54247986177E+02  0.47000000000E+01 0. -1.
         -5    1    4    4    0  502  0.31846664406E+02  0.81766191441E+02 -0.21362111602E+02  0.90434229740E+02  0.47000000000E+01 0. -1.
          5    1    5    5  503    0  0.23637122017E+01  0.31923058799E+02  0.24943645407E+02  0.40852714287E+02  0.47000000000E+01 0.  1.
         -5    1    5    5    0  503  0.68369261856E+01 -0.84878372750E+02 -0.44330567560E+02  0.96116444694E+02  0.47000000000E+01 0.  1.
<mgrwt>
<rscale>  0 0.27498992E+03</rscale>
<asrwt>0</asrwt>
<pdfrwt beam="1">  1        1 0.26349619E-01 0.27498992E+03</pdfrwt>
<pdfrwt beam="2">  1       -1 0.16981362E-01 0.27498992E+03</pdfrwt>
<totfact> 0.46756849E+03</totfact>
</mgrwt>
</event>
<event>
 9    1  0.2054950E-002  0.2766981E+03  0.7818608E-02  0.1097506E+00
         -3   -1    0    0    0  501 -0.00000000000E+00  0.00000000000E+00  0.21988392667E+03  0.21988392667E+03  0.00000000000E+00 0.  1.
          3   -1    0    0  501    0  0.00000000000E+00 -0.00000000000E+00 -0.87048011712E+02  0.87048011712E+02  0.00000000000E+00 0.  1.
         36    2    1    2    0    0  0.00000000000E+00 -0.71054273576E-14  0.13283591495E+03  0.30693193838E+03  0.27669809268E+03 0.  0.
         25    2    3    3    0    0  0.32771339959E+02  0.22157612122E+02 -0.21181003607E+01  0.12818591238E+03  0.12191071030E+03 0.  0.
         25    2    3    3    0    0 -0.32771339959E+02 -0.22157612122E+02  0.13495401531E+03  0.17874602600E+03  0.11032966538E+03 0.  0.
          5    1    4    4  502    0  0.21071856248E+02 -0.12034011119E+02  0.55076285941E+02  0.60368268340E+02  0.47000000000E+01 0. -1.
         -5    1    4    4    0  502  0.11699483711E+02  0.34191623241E+02 -0.57194386302E+02  0.67817644042E+02  0.47000000000E+01 0. -1.
          5    1    5    5  503    0 -0.70527969504E+02 -0.32401737194E+02  0.87149844689E+02  0.11679577255E+03  0.47000000000E+01 0.  1.
         -5    1    5    5    0  503  0.37756629546E+02  0.10244125072E+02  0.47804170624E+02  0.61950253448E+02  0.47000000000E+01 0.  1.
<mgrwt>
<rscale>  0 0.27669809E+03</rscale>
<asrwt>0</asrwt>
<pdfrwt beam="1">  1        3 0.13392002E-01 0.27669809E+03</pdfrwt>
<pdfrwt beam="2">  1       -3 0.33828296E-01 0.27669809E+03</pdfrwt>
<totfact> 0.98281178E+02</totfact>
</mgrwt>
</event>
<event>
 9    1  0.2054950E-002  0.2750277E+03  0.7818608E-02  0.1098436E+00
          2   -1    0    0  501    0  0.00000000000E+00  0.00000000000E+00  0.12421252692E+04  0.12421252692E+04  0.00000000000E+00 0. -1.
         -2   -1    0    0    0  501 -0.00000000000E+00 -0.00000000000E+00 -0.15223958218E+02  0.15223958218E+02  0.00000000000E+00 0. -1.
         36    2    1    2    0    0  0.71054273576E-14  0.35527136788E-14  0.12269013110E+04  0.12573492274E+04  0.27502773097E+03 0.  0.
         25    2    3    3    0    0 -0.42214777121E+02  0.17293973502E+02  0.59043693846E+03  0.60599876555E+03  0.12859843163E+03 0.  0.
         25    2    3    3    0    0  0.42214777121E+02 -0.17293973502E+02  0.63646437255E+03  0.65135046190E+03  0.13072627037E+03 0.  0.
          5    1    4    4  502    0 -0.46861431685E+02 -0.37605694725E+02  0.14333197426E+03  0.15548738502E+03  0.47000000000E+01 0. -1.
         -5    1    4    4    0  502  0.46466545645E+01  0.54899668227E+02  0.44710496420E+03  0.45051138052E+03  0.47000000000E+01 0. -1.
          5    1    5    5  503    0  0.81477771089E+02 -0.39831298945E+02  0.47450238473E+03  0.48311464755E+03  0.47000000000E+01 0.  1.
         -5    1    5    5    0  503 -0.39262993969E+02  0.22537325443E+02  0.16196198782E+03  0.16823581435E+03  0.47000000000E+01 0.  1.
<mgrwt>
<rscale>  0 0.27502773E+03</rscale>
<asrwt>0</asrwt>
<pdfrwt beam="1">  1        2 0.19109612E+00 0.27502773E+03</pdfrwt>
<pdfrwt beam="2">  1       -2 0.23421484E-02 0.27502773E+03</pdfrwt>
<totfact> 0.11562748E+04</totfact>
</mgrwt>
</event>
<event>
 9    1  0.2054950E-002  0.2747415E+03  0.7818608E-02  0.1098596E+00
         -1   -1    0    0    0  501 -0.00000000000E+00  0.00000000000E+00  0.27057948492E+02  0.27057948492E+02  0.00000000000E+00 0.  1.
          1   -1    0    0  501    0  0.00000000000E+00 -0.00000000000E+00 -0.69741888457E+03  0.69741888457E+03  0.00000000000E+00 0.  1.
         36    2    1    2    0    0  0.14210854715E-13  0.00000000000E+00 -0.67036093608E+03  0.72447683306E+03  0.27474150946E+03 0.  0.
         25    2    3    3    0    0  0.47943400585E+02  0.28122196669E+02 -0.36562678725E+03  0.39034048377E+03  0.12487320812E+03 0.  0.
         25    2    3    3    0    0 -0.47943400585E+02 -0.28122196669E+02 -0.30473414883E+03  0.33413634930E+03  0.12527877256E+03 0.  0.
          5    1    4    4  502    0 -0.26347017633E+02  0.44090775158E+02 -0.22055200821E+03  0.22650262718E+03  0.47000000000E+01 0. -1.
         -5    1    4    4    0  502  0.74290418217E+02 -0.15968578489E+02 -0.14507477904E+03  0.16383785659E+03  0.47000000000E+01 0. -1.
          5    1    5    5  503    0 -0.33953651223E+02 -0.19667539501E+02 -0.31281818691E+03  0.31530456800E+03  0.47000000000E+01 0.  1.
         -5    1    5    5    0  503 -0.13989749362E+02 -0.84546571676E+01  0.80840380820E+01  0.18831781295E+02  0.47000000000E+01 0.  1.
<mgrwt>
<rscale>  0 0.27474151E+03</rscale>
<asrwt>0</asrwt>
<pdfrwt beam="1">  1        1 0.10729521E+00 0.27474151E+03</pdfrwt>
<pdfrwt beam="2">  1       -1 0.41627614E-02 0.27474151E+03</pdfrwt>
<totfact> 0.65486366E+03</totfact>
</mgrwt>
</event>
<event>
 9    1  0.2054950E-002  0.2742060E+03  0.7818608E-02  0.1098896E+00
          2   -1    0    0  501    0  0.00000000000E+00  0.00000000000E+00  0.17860558632E+04  0.17860558632E+04  0.00000000000E+00 0.  1.
         -2   -1    0    0    0  501 -0.00000000000E+00 -0.00000000000E+00 -0.10524439225E+02  0.10524439225E+02  0.00000000000E+00 0.  1.
         36    2    1    2    0    0  0.00000000000E+00 -0.71054273576E-14  0.17755314239E+04  0.17965803024E+04  0.27420602754E+03 0.  0.
         25    2    3    3    0    0 -0.18143880836E+02 -0.54267971472E+02  0.83625005823E+03  0.84727579825E+03  0.12364426906E+03 0.  0.
         25    2    3    3    0    0  0.18143880836E+02  0.54267971472E+02  0.93928136571E+03  0.94930450414E+03  0.12512131901E+03 0.  0.
          5    1    4    4  502    0 -0.50823413675E+02 -0.49002320186E+02  0.76824890245E+03  0.77150029998E+03  0.47000000000E+01 0. -1.
         -5    1    4    4    0  502  0.32679532839E+02 -0.52656512859E+01  0.68001155781E+02  0.75775498266E+02  0.47000000000E+01 0. -1.
          5    1    5    5  503    0  0.10061173891E+02 -0.19971339678E+02  0.34177401892E+02  0.41112849922E+02  0.47000000000E+01 0.  1.
         -5    1    5    5    0  503  0.80827069451E+01  0.74239311150E+02  0.90510396382E+03  0.90819165422E+03  0.47000000000E+01 0.  1.
<mgrwt>
<rscale>  0 0.27420603E+03</rscale>
<asrwt>0</asrwt>
<pdfrwt beam="1">  1        2 0.27477758E+00 0.27420603E+03</pdfrwt>
<pdfrwt beam="2">  1       -2 0.16191459E-02 0.27420603E+03</pdfrwt>
<totfact> 0.10151501E+04</totfact>
</mgrwt>
</event>
<event>
 9    1  0.2054950E-002  0.2738211E+03  0.7818608E-02  0.1099112E+00
         -1   -1    0    0    0  501 -0.00000000000E+00  0.00000000000E+00  0.18779833743E+02  0.18779833743E+02  0.00000000000E+00 0.  1.
          1   -1    0    0  501    0  0.00000000000E+00 -0.00000000000E+00 -0.99811845766E+03  0.99811845766E+03  0.00000000000E+00 0.  1.
         36    2    1    2    0    0 -0.35527136788E-14 -0.17763568394E-14 -0.97933862392E+03  0.10168982914E+04  0.27382109992E+03 0.  0.
         25    2    3    3    0    0  0.64247788422E+01  0.89642205883E+01 -0.29257268448E+03  0.31838791355E+03  0.12510176961E+03 0.  0.
         25    2    3    3    0    0 -0.64247788422E+01 -0.89642205883E+01 -0.68676593944E+03  0.69851037785E+03  0.12707343293E+03 0.  0.
          5    1    4    4  502    0  0.40317413846E+02 -0.45665873238E+02 -0.14572024300E+03  0.15801058528E+03  0.47000000000E+01 0. -1.
         -5    1    4    4    0  502 -0.33892635003E+02  0.54630093826E+02 -0.14685244147E+03  0.16037732828E+03  0.47000000000E+01 0. -1.
          5    1    5    5  503    0 -0.18765345283E+02 -0.18146105483E+02 -0.68086023261E+03  0.68137666945E+03  0.47000000000E+01 0. -1.
         -5    1    5    5    0  503  0.12340566440E+02  0.91818848948E+01 -0.59057068321E+01  0.17133708398E+02  0.47000000000E+01 0. -1.
<mgrwt>
<rscale>  0 0.27382110E+03</rscale>
<asrwt>0</asrwt>
<pdfrwt beam="1">  1        1 0.15355669E+00 0.27382110E+03</pdfrwt>
<pdfrwt beam="2">  1       -1 0.28892051E-02 0.27382110E+03</pdfrwt>
<totfact> 0.63928852E+03</totfact>
</mgrwt>
</event>
<event>
 9    1  0.2054950E-002  0.2755976E+03  0.7818608E-02  0.1098118E+00
         -2   -1    0    0    0  501 -0.00000000000E+00  0.00000000000E+00  0.20640141465E+03  0.20640141465E+03  0.00000000000E+00 0.  1.
          2   -1    0    0  501    0  0.00000000000E+00 -0.00000000000E+00 -0.91997987537E+02  0.91997987537E+02  0.00000000000E+00 0.  1.
         36    2    1    2    0    0  0.00000000000E+00 -0.35527136788E-14  0.11440342711E+03  0.29839940219E+03  0.27559763985E+03 0.  0.
         25    2    3    3    0    0  0.21221153641E+02  0.14597228863E+02  0.98189389213E+02  0.16010785783E+03  0.12381418955E+03 0.  0.
         25    2    3    3    0    0 -0.21221153641E+02 -0.14597228863E+02  0.16214037900E+02  0.13829154436E+03  0.13490085160E+03 0.  0.
          5    1    4    4  502    0  0.34691866499E+02 -0.23508426628E+02  0.10994506015E+03  0.11775473653E+03  0.47000000000E+01 0. -1.
         -5    1    4    4    0  502 -0.13470712858E+02  0.38105655491E+02 -0.11755670934E+02  0.42353121306E+02  0.47000000000E+01 0. -1.
          5    1    5    5  503    0 -0.70969900217E+02  0.23052956894E+02  0.93014021845E+01  0.75344353743E+02  0.47000000000E+01 0.  1.
         -5    1    5    5    0  503  0.49748746576E+02 -0.37650185757E+02  0.69126357160E+01  0.62947190612E+02  0.47000000000E+01 0.  1.
<mgrwt>
<rscale>  0 0.27559764E+03</rscale>
<asrwt>0</asrwt>
<pdfrwt beam="1">  1        2 0.14153537E-01 0.27559764E+03</pdfrwt>
<pdfrwt beam="2">  1       -2 0.31754064E-01 0.27559764E+03</pdfrwt>
<totfact> 0.38289744E+03</totfact>
</mgrwt>
</event>
<event>
 9    1  0.2054950E-002  0.2746469E+03  0.7818608E-02  0.1098649E+00
         -1   -1    0    0    0  501 -0.00000000000E+00  0.00000000000E+00  0.11071031976E+04  0.11071031976E+04  0.00000000000E+00 0.  1.
          1   -1    0    0  501    0  0.00000000000E+00 -0.00000000000E+00 -0.17033400960E+02  0.17033400960E+02  0.00000000000E+00 0.  1.
         36    2    1    2    0    0  0.71054273576E-14 -0.14210854715E-13  0.10900697967E+04  0.11241365986E+04  0.27464692002E+03 0.  0.
         25    2    3    3    0    0  0.34667916596E+02  0.38063811907E+02  0.62849539056E+03  0.64305259922E+03  0.12593439237E+03 0.  0.
         25    2    3    3    0    0 -0.34667916596E+02 -0.38063811907E+02  0.46157440611E+03  0.48108399938E+03  0.12545980975E+03 0.  0.
          5    1    4    4  502    0  0.34687870347E+02 -0.27069632059E+02  0.86735893405E+02  0.97371548892E+02  0.47000000000E+01 0.  1.
         -5    1    4    4    0  502 -0.19953750787E-01  0.65133443966E+02  0.54175949716E+03  0.54568105032E+03  0.47000000000E+01 0.  1.
          5    1    5    5  503    0 -0.63141813423E-02 -0.75613707785E+02  0.18714974956E+03  0.20190233184E+03  0.47000000000E+01 0. -1.
         -5    1    5    5    0  503 -0.34661602415E+02  0.37549895878E+02  0.27442465655E+03  0.27918166754E+03  0.47000000000E+01 0. -1.
<mgrwt>
<rscale>  0 0.27464692E+03</rscale>
<asrwt>0</asrwt>
<pdfrwt beam="1">  1        1 0.26205241E-02 0.27464692E+03</pdfrwt>
<pdfrwt beam="2">  1       -1 0.17032351E+00 0.27464692E+03</pdfrwt>
<totfact> 0.11042664E+03</totfact>
</mgrwt>
</event>
<event>
 9    1  0.2054950E-002  0.2750771E+03  0.7818608E-02  0.1098408E+00
         -2   -1    0    0    0  501 -0.00000000000E+00  0.00000000000E+00  0.88334394461E+02  0.88334394461E+02  0.00000000000E+00 0.  1.
          2   -1    0    0  501    0  0.00000000000E+00 -0.00000000000E+00 -0.21415051803E+03  0.21415051803E+03  0.00000000000E+00 0.  1.
         36    2    1    2    0    0 -0.14210854715E-13  0.00000000000E+00 -0.12581612356E+03  0.30248491249E+03  0.27507712615E+03 0.  0.
         25    2    3    3    0    0  0.46884781048E+02 -0.34396630521E+02 -0.86804133958E+02  0.15884423876E+03  0.11964624369E+03 0.  0.
         25    2    3    3    0    0 -0.46884781048E+02  0.34396630521E+02 -0.39011989607E+02  0.14364067372E+03  0.12541689252E+03 0.  0.
          5    1    4    4  502    0  0.47266691624E+02 -0.76259241016E+02 -0.49512888540E+02  0.10258278661E+03  0.47000000000E+01 0.  1.
         -5    1    4    4    0  502 -0.38191057615E+00  0.41862610495E+02 -0.37291245418E+02  0.56261452149E+02  0.47000000000E+01 0.  1.
          5    1    5    5  503    0 -0.64615300761E+02  0.61939500789E+02 -0.56758287839E+02  0.10609067861E+03  0.47000000000E+01 0. -1.
         -5    1    5    5    0  503  0.17730519713E+02 -0.27542870267E+02  0.17746298232E+02  0.37549995110E+02  0.47000000000E+01 0. -1.
<mgrwt>
<rscale>  0 0.27507713E+03</rscale>
<asrwt>0</asrwt>
<pdfrwt beam="1">  1        2 0.32946233E-01 0.27507713E+03</pdfrwt>
<pdfrwt beam="2">  1       -2 0.13589907E-01 0.27507713E+03</pdfrwt>
<totfact> 0.63261609E+03</totfact>
</mgrwt>
</event>
<event>
 9    1  0.2054950E-002  0.2740629E+03  0.7818608E-02  0.1098977E+00
          1   -1    0    0  501    0  0.00000000000E+00  0.00000000000E+00  0.75409407157E+03  0.75409407157E+03  0.00000000000E+00 0.  1.
         -1   -1    0    0    0  501 -0.00000000000E+00 -0.00000000000E+00 -0.24900898326E+02  0.24900898326E+02  0.00000000000E+00 0.  1.
         36    2    1    2    0    0  0.14210854715E-13  0.00000000000E+00  0.72919317324E+03  0.77899496989E+03  0.27406291106E+03 0.  0.
         25    2    3    3    0    0  0.32031111784E+02  0.21228766455E+02  0.32686175373E+03  0.35572478211E+03  0.13499948855E+03 0.  0.
         25    2    3    3    0    0 -0.32031111784E+02 -0.21228766455E+02  0.40233141952E+03  0.42327018779E+03  0.12573952478E+03 0.  0.
          5    1    4    4  502    0  0.74874814474E+02  0.45516859819E+02  0.17101677521E+03  0.19221563353E+03  0.47000000000E+01 0. -1.
         -5    1    4    4    0  502 -0.42843702689E+02 -0.24288093364E+02  0.15584497852E+03  0.16350914858E+03  0.47000000000E+01 0. -1.
          5    1    5    5  503    0  0.76409291427E+01 -0.90014917004E+00 -0.70482486900E+01  0.11443857579E+02  0.47000000000E+01 0. -1.
         -5    1    5    5    0  503 -0.39672040927E+02 -0.20328617285E+02  0.40937966821E+03  0.41182633021E+03  0.47000000000E+01 0. -1.
<mgrwt>
<rscale>  0 0.27406291E+03</rscale>
<asrwt>0</asrwt>
<pdfrwt beam="1">  1        1 0.11601446E+00 0.27406291E+03</pdfrwt>
<pdfrwt beam="2">  1       -1 0.38309080E-02 0.27406291E+03</pdfrwt>
<totfact> 0.66008229E+03</totfact>
</mgrwt>
</event>
<event>
 9    1  0.2054950E-002  0.2745201E+03  0.7818608E-02  0.1098720E+00
         -1   -1    0    0    0  501 -0.00000000000E+00  0.00000000000E+00  0.56942744860E+02  0.56942744860E+02  0.00000000000E+00 0. -1.
          1   -1    0    0  501    0  0.00000000000E+00 -0.00000000000E+00 -0.33086441290E+03  0.33086441290E+03  0.00000000000E+00 0. -1.
         36    2    1    2    0    0 -0.71054273576E-14 -0.71054273576E-14 -0.27392166804E+03  0.38780715776E+03  0.27452014751E+03 0.  0.
         25    2    3    3    0    0 -0.42764855948E+02  0.16484448893E+02 -0.98632544098E+02  0.16760496688E+03  0.12752441417E+03 0.  0.
         25    2    3    3    0    0  0.42764855948E+02 -0.16484448893E+02 -0.17528912395E+03  0.22020219088E+03  0.12514854348E+03 0.  0.
          5    1    4    4  502    0  0.74574012441E+01  0.64757166717E+02 -0.53603077345E+02  0.84525045846E+02  0.47000000000E+01 0.  1.
         -5    1    4    4    0  502 -0.50222257192E+02 -0.48272717823E+02 -0.45029466754E+02  0.83079921038E+02  0.47000000000E+01 0.  1.
          5    1    5    5  503    0  0.19369076283E+02 -0.29682610160E+02 -0.18709929374E+03  0.19048478727E+03  0.47000000000E+01 0.  1.
         -5    1    5    5    0  503  0.23395779666E+02  0.13198161267E+02  0.11810169793E+02  0.29717403614E+02  0.47000000000E+01 0.  1.
<mgrwt>
<rscale>  0 0.27452015E+03</rscale>
<asrwt>0</asrwt>
<pdfrwt beam="1">  1        1 0.50902219E-01 0.27452015E+03</pdfrwt>
<pdfrwt beam="2">  1       -1 0.87604220E-02 0.27452015E+03</pdfrwt>
<totfact> 0.57513261E+03</totfact>
</mgrwt>
</event>
<event>
 9    1  0.2054950E-002  0.2736842E+03  0.7818608E-02  0.1099189E+00
         -2   -1    0    0    0  501 -0.00000000000E+00  0.00000000000E+00  0.11379035937E+03  0.11379035937E+03  0.00000000000E+00 0. -1.
          2   -1    0    0  501    0  0.00000000000E+00 -0.00000000000E+00 -0.16456371899E+03  0.16456371899E+03  0.00000000000E+00 0. -1.
         36    2    1    2    0    0  0.00000000000E+00 -0.35527136788E-14 -0.50773359627E+02  0.27835407836E+03  0.27368423209E+03 0.  0.
         25    2    3    3    0    0 -0.37184539994E+01  0.21250360421E+02  0.25771841661E+02  0.12865380459E+03  0.12418618641E+03 0.  0.
         25    2    3    3    0    0  0.37184539994E+01 -0.21250360421E+02 -0.76545201288E+02  0.14970027377E+03  0.12682901643E+03 0.  0.
          5    1    4    4  502    0  0.47236688769E+01 -0.23908616009E+02  0.64037528445E+02  0.68679181828E+02  0.47000000000E+01 0.  1.
         -5    1    4    4    0  502 -0.84421228763E+01  0.45158976431E+02 -0.38265686784E+02  0.59974622767E+02  0.47000000000E+01 0.  1.
          5    1    5    5  503    0  0.62224919943E+02 -0.28194906594E+02 -0.31428501970E+02  0.75344104984E+02  0.47000000000E+01 0.  1.
         -5    1    5    5    0  503 -0.58506465944E+02  0.69445461725E+01 -0.45116699317E+02  0.74356168783E+02  0.47000000000E+01 0.  1.
<mgrwt>
<rscale>  0 0.27368423E+03</rscale>
<asrwt>0</asrwt>
<pdfrwt beam="1">  1        2 0.25317495E-01 0.27368423E+03</pdfrwt>
<pdfrwt beam="2">  1       -2 0.17506209E-01 0.27368423E+03</pdfrwt>
<totfact> 0.55565715E+03</totfact>
</mgrwt>
</event>
<event>
 9    1  0.2054950E-002  0.2734539E+03  0.7818608E-02  0.1099319E+00
          1   -1    0    0  501    0  0.00000000000E+00  0.00000000000E+00  0.38652483785E+03  0.38652483785E+03  0.00000000000E+00 0.  1.
         -1   -1    0    0    0  501 -0.00000000000E+00 -0.00000000000E+00 -0.48364955475E+02  0.48364955475E+02  0.00000000000E+00 0.  1.
         36    2    1    2    0    0  0.00000000000E+00  0.00000000000E+00  0.33815988238E+03  0.43488979333E+03  0.27345388330E+03 0.  0.
         25    2    3    3    0    0 -0.43589641718E+02  0.42565599904E+02  0.16715847159E+03  0.21531733457E+03  0.12127535934E+03 0.  0.
         25    2    3    3    0    0  0.43589641718E+02 -0.42565599904E+02  0.17100141079E+03  0.21957245876E+03  0.12352609033E+03 0.  0.
          5    1    4    4  502    0  0.61956847891E+01  0.71337013338E+02  0.12400332482E+03  0.14326992199E+03  0.47000000000E+01 0.  1.
         -5    1    4    4    0  502 -0.49785326507E+02 -0.28771413434E+02  0.43155146773E+02  0.72047412579E+02  0.47000000000E+01 0.  1.
          5    1    5    5  503    0  0.45422396897E+02  0.22239219688E+02  0.13721712273E+03  0.14631611600E+03  0.47000000000E+01 0.  1.
         -5    1    5    5    0  503 -0.18327551796E+01 -0.64804819592E+02  0.33784288060E+02  0.73256342754E+02  0.47000000000E+01 0.  1.
<mgrwt>
<rscale>  0 0.27345388E+03</rscale>
<asrwt>0</asrwt>
<pdfrwt beam="1">  1        1 0.59465358E-01 0.27345388E+03</pdfrwt>
<pdfrwt beam="2">  1       -1 0.74407626E-02 0.27345388E+03</pdfrwt>
<totfact> 0.60574624E+03</totfact>
</mgrwt>
</event>
<event>
 9    1  0.2054950E-002  0.2751695E+03  0.7818608E-02  0.1098357E+00
          2   -1    0    0  501    0  0.00000000000E+00  0.00000000000E+00  0.14630506938E+04  0.14630506938E+04  0.00000000000E+00 0. -1.
         -2   -1    0    0    0  501 -0.00000000000E+00 -0.00000000000E+00 -0.12938414688E+02  0.12938414688E+02  0.00000000000E+00 0. -1.
         36    2    1    2    0    0 -0.71054273576E-14  0.35527136788E-14  0.14501122792E+04  0.14759891085E+04  0.27516945024E+03 0.  0.
         25    2    3    3    0    0  0.52274047550E+02  0.16822782884E+02  0.60319101037E+03  0.61836278116E+03  0.12456946683E+03 0.  0.
         25    2    3    3    0    0 -0.52274047550E+02 -0.16822782884E+02  0.84692126879E+03  0.85762632737E+03  0.12341677278E+03 0.  0.
          5    1    4    4  502    0  0.71780342402E+02  0.29428356707E+01  0.58080888169E+03  0.58525389779E+03  0.47000000000E+01 0. -1.
         -5    1    4    4    0  502 -0.19506294852E+02  0.13879947214E+02  0.22382128680E+02  0.33108883366E+02  0.47000000000E+01 0. -1.
          5    1    5    5  503    0 -0.30667774132E+02  0.41797955469E+02  0.16947686312E+03  0.17729094333E+03  0.47000000000E+01 0.  1.
         -5    1    5    5    0  503 -0.21606273418E+02 -0.58620738353E+02  0.67744440567E+03  0.68033538405E+03  0.47000000000E+01 0.  1.
<mgrwt>
<rscale>  0 0.27516945E+03</rscale>
<asrwt>0</asrwt>
<pdfrwt beam="1">  1        2 0.22508459E+00 0.27516945E+03</pdfrwt>
<pdfrwt beam="2">  1       -2 0.19905265E-02 0.27516945E+03</pdfrwt>
<totfact> 0.11118607E+04</totfact>
</mgrwt>
</event>
<event>
 9    1  0.2054950E-002  0.2754831E+03  0.7818608E-02  0.1098182E+00
         -2   -1    0    0    0  501 -0.00000000000E+00  0.00000000000E+00  0.18545013383E+02  0.18545013383E+02  0.00000000000E+00 0.  1.
          2   -1    0    0  501    0  0.00000000000E+00 -0.00000000000E+00 -0.10230638733E+04  0.10230638733E+04  0.00000000000E+00 0.  1.
         36    2    1    2    0    0  0.35527136788E-14  0.00000000000E+00 -0.10045188600E+04  0.10416088867E+04  0.27548309003E+03 0.  0.
         25    2    3    3    0    0  0.19497679169E+02  0.34034617810E+02 -0.68097474713E+03  0.69377894272E+03  0.12674423233E+03 0.  0.
         25    2    3    3    0    0 -0.19497679169E+02 -0.34034617810E+02 -0.32354411283E+03  0.34782994401E+03  0.12151692186E+03 0.  0.
          5    1    4    4  502    0  0.69497284869E+01  0.16370238671E+02 -0.66766696949E+03  0.66792032129E+03  0.47000000000E+01 0.  1.
         -5    1    4    4    0  502  0.12547950682E+02  0.17664379139E+02 -0.13307777641E+02  0.25858621434E+02  0.47000000000E+01 0.  1.
          5    1    5    5  503    0 -0.43963623924E+02 -0.41857466283E+02 -0.69292543906E+02  0.92240958111E+02  0.47000000000E+01 0.  1.
         -5    1    5    5    0  503  0.24465944755E+02  0.78228484729E+01 -0.25425156892E+03  0.25558898590E+03  0.47000000000E+01 0.  1.
<mgrwt>
<rscale>  0 0.27548309E+03</rscale>
<asrwt>0</asrwt>
<pdfrwt beam="1">  1        2 0.15739441E+00 0.27548309E+03</pdfrwt>
<pdfrwt beam="2">  1       -2 0.28530796E-02 0.27548309E+03</pdfrwt>
<totfact> 0.11575836E+04</totfact>
</mgrwt>
</event>
<event>
 9    1  0.2054950E-002  0.2728363E+03  0.7818608E-02  0.1099667E+00
          1   -1    0    0  501    0  0.00000000000E+00  0.00000000000E+00  0.76841299072E+03  0.76841299072E+03  0.00000000000E+00 0.  1.
         -1   -1    0    0    0  501 -0.00000000000E+00 -0.00000000000E+00 -0.24218639048E+02  0.24218639048E+02  0.00000000000E+00 0.  1.
         36    2    1    2    0    0  0.00000000000E+00  0.71054273576E-14  0.74419435167E+03  0.79263162976E+03  0.27283633821E+03 0.  0.
         25    2    3    3    0    0 -0.41745752215E+02 -0.33310514759E+02  0.32071535897E+03  0.34874508100E+03  0.12614472570E+03 0.  0.
         25    2    3    3    0    0  0.41745752215E+02  0.33310514759E+02  0.42347899270E+03  0.44388654876E+03  0.12185447343E+03 0.  0.
          5    1    4    4  502    0  0.37174329149E+02 -0.39669523122E+00  0.18127116169E+03  0.18510378758E+03  0.47000000000E+01 0. -1.
         -5    1    4    4    0  502 -0.78920081364E+02 -0.32913819528E+02  0.13944419728E+03  0.16364129342E+03  0.47000000000E+01 0. -1.
          5    1    5    5  503    0  0.50430792835E+02 -0.22154545213E+02  0.33110474723E+03  0.33568814751E+03  0.47000000000E+01 0.  1.
         -5    1    5    5    0  503 -0.86850406206E+01  0.55465059972E+02  0.92374245470E+02  0.10819840126E+03  0.47000000000E+01 0.  1.
<mgrwt>
<rscale>  0 0.27283634E+03</rscale>
<asrwt>0</asrwt>
<pdfrwt beam="1">  1        1 0.11821736E+00 0.27283634E+03</pdfrwt>
<pdfrwt beam="2">  1       -1 0.37259451E-02 0.27283634E+03</pdfrwt>
<totfact> 0.66857550E+03</totfact>
</mgrwt>
</event>
<event>
 9    1  0.2054950E-002  0.2753369E+03  0.7818608E-02  0.1098263E+00
         -2   -1    0    0    0  501 -0.00000000000E+00  0.00000000000E+00  0.20460566573E+02  0.20460566573E+02  0.00000000000E+00 0. -1.
          2   -1    0    0  501    0  0.00000000000E+00 -0.00000000000E+00 -0.92629895914E+03  0.92629895914E+03  0.00000000000E+00 0. -1.
         36    2    1    2    0    0 -0.14210854715E-13 -0.17763568394E-14 -0.90583839256E+03  0.94675952571E+03  0.27533689560E+03 0.  0.
         25    2    3    3    0    0 -0.62582048644E+02  0.11836673152E+02 -0.36678428388E+03  0.39061343515E+03  0.11828577755E+03 0.  0.
         25    2    3    3    0    0  0.62582048644E+02 -0.11836673152E+02 -0.53905410868E+03  0.55614609056E+03  0.12108890255E+03 0.  0.
          5    1    4    4  502    0  0.32118237248E+02  0.17182990733E+02 -0.70683132809E+02  0.79655706626E+02  0.47000000000E+01 0.  1.
         -5    1    4    4    0  502 -0.94700285891E+02 -0.53463175809E+01 -0.29610115107E+03  0.31095772852E+03  0.47000000000E+01 0.  1.
          5    1    5    5  503    0 -0.96260340623E+01 -0.42186406677E+01  0.67684268343E+00  0.11532804380E+02  0.47000000000E+01 0.  1.
         -5    1    5    5    0  503  0.72208082706E+02 -0.76180324839E+01 -0.53973095136E+03  0.54461328618E+03  0.47000000000E+01 0.  1.
<mgrwt>
<rscale>  0 0.27533690E+03</rscale>
<asrwt>0</asrwt>
<pdfrwt beam="1">  1        2 0.14250756E+00 0.27533690E+03</pdfrwt>
<pdfrwt beam="2">  1       -2 0.31477788E-02 0.27533690E+03</pdfrwt>
<totfact> 0.11482954E+04</totfact>
</mgrwt>
</event>
<event>
 9    1  0.2054950E-002  0.2747329E+03  0.7818608E-02  0.1098601E+00
          1   -1    0    0  501    0  0.00000000000E+00  0.00000000000E+00  0.30246983122E+03  0.30246983122E+03  0.00000000000E+00 0.  1.
         -1   -1    0    0    0  501 -0.00000000000E+00 -0.00000000000E+00 -0.62384851445E+02  0.62384851445E+02  0.00000000000E+00 0.  1.
         36    2    1    2    0    0  0.00000000000E+00 -0.71054273576E-14  0.24008497978E+03  0.36485468266E+03  0.27473285560E+03 0.  0.
         25    2    3    3    0    0 -0.10512389611E+02 -0.49666793197E+02  0.84226688004E+02  0.15898431310E+03  0.12491827792E+03 0.  0.
         25    2    3    3    0    0  0.10512389611E+02  0.49666793197E+02  0.15585829177E+03  0.20587036956E+03  0.12455320657E+03 0.  0.
          5    1    4    4  502    0 -0.56142548389E+01  0.38517279326E+02  0.37155974262E+01  0.39382690719E+02  0.47000000000E+01 0. -1.
         -5    1    4    4    0  502 -0.48981347721E+01 -0.88184072523E+02  0.80511090578E+02  0.11960162238E+03  0.47000000000E+01 0. -1.
          5    1    5    5  503    0  0.61036129306E+02  0.56427625864E+02  0.99375735162E+02  0.12964224921E+03  0.47000000000E+01 0. -1.
         -5    1    5    5    0  503 -0.50523739695E+02 -0.67608326668E+01  0.56482556609E+02  0.76228120351E+02  0.47000000000E+01 0. -1.
<mgrwt>
<rscale>  0 0.27473286E+03</rscale>
<asrwt>0</asrwt>
<pdfrwt beam="1">  1        1 0.46533819E-01 0.27473286E+03</pdfrwt>
<pdfrwt beam="2">  1       -1 0.95976696E-02 0.27473286E+03</pdfrwt>
<totfact> 0.55966000E+03</totfact>
</mgrwt>
</event>
<event>
 9    1  0.2054950E-002  0.2746713E+03  0.7818608E-02  0.1098635E+00
         -2   -1    0    0    0  501 -0.00000000000E+00  0.00000000000E+00  0.40295821488E+02  0.40295821488E+02  0.00000000000E+00 0.  1.
          2   -1    0    0  501    0  0.00000000000E+00 -0.00000000000E+00 -0.46806558878E+03  0.46806558878E+03  0.00000000000E+00 0.  1.
         36    2    1    2    0    0 -0.71054273576E-14 -0.71054273576E-14 -0.42776976729E+03  0.50836141026E+03  0.27467134841E+03 0.  0.
         25    2    3    3    0    0 -0.43108465118E+02  0.21823222782E+02 -0.18803081881E+03  0.23188122353E+03  0.12680189346E+03 0.  0.
         25    2    3    3    0    0  0.43108465118E+02 -0.21823222782E+02 -0.23973894848E+03  0.27648018674E+03  0.12896486895E+03 0.  0.
          5    1    4    4  502    0  0.30765330101E+02  0.47977581591E+02 -0.79149297694E+02  0.97647607226E+02  0.47000000000E+01 0.  1.
         -5    1    4    4    0  502 -0.73873795219E+02 -0.26154358809E+02 -0.10888152112E+03  0.13423361630E+03  0.47000000000E+01 0.  1.
          5    1    5    5  503    0  0.32151488790E+02 -0.88503586462E+01  0.23425672079E+01  0.33758327872E+02  0.47000000000E+01 0. -1.
         -5    1    5    5    0  503  0.10956976328E+02 -0.12972864135E+02 -0.24208151569E+03  0.24272185886E+03  0.47000000000E+01 0. -1.
<mgrwt>
<rscale>  0 0.27467135E+03</rscale>
<asrwt>0</asrwt>
<pdfrwt beam="1">  1        2 0.72010090E-01 0.27467135E+03</pdfrwt>
<pdfrwt beam="2">  1       -2 0.61993572E-02 0.27467135E+03</pdfrwt>
<totfact> 0.93781519E+03</totfact>
</mgrwt>
</event>
<event>
 9    1  0.2054950E-002  0.2755217E+03  0.7818608E-02  0.1098160E+00
         -2   -1    0    0    0  501 -0.00000000000E+00  0.00000000000E+00  0.23396053137E+02  0.23396053137E+02  0.00000000000E+00 0. -1.
          2   -1    0    0  501    0  0.00000000000E+00 -0.00000000000E+00 -0.81116480222E+03  0.81116480222E+03  0.00000000000E+00 0. -1.
         36    2    1    2    0    0 -0.71054273576E-14  0.14210854715E-13 -0.78776874908E+03  0.83456085535E+03  0.27552172194E+03 0.  0.
         25    2    3    3    0    0 -0.17881401407E+02  0.53784598279E+02 -0.33916411674E+03  0.36490882512E+03  0.12212135373E+03 0.  0.
         25    2    3    3    0    0  0.17881401407E+02 -0.53784598279E+02 -0.44860463234E+03  0.46965203024E+03  0.12694245082E+03 0.  0.
          5    1    4    4  502    0 -0.27924936240E+02  0.69380455295E+02 -0.99907436850E+02  0.12488809222E+03  0.47000000000E+01 0. -1.
         -5    1    4    4    0  502  0.10043534833E+02 -0.15595857015E+02 -0.23925667989E+03  0.24002073290E+03  0.47000000000E+01 0. -1.
          5    1    5    5  503    0  0.55833945821E+02 -0.36621516184E+01 -0.94059134981E+02  0.10954474763E+03  0.47000000000E+01 0.  1.
         -5    1    5    5    0  503 -0.37952544414E+02 -0.50122446661E+02 -0.35454549736E+03  0.36010728260E+03  0.47000000000E+01 0.  1.
<mgrwt>
<rscale>  0 0.27552172E+03</rscale>
<asrwt>0</asrwt>
<pdfrwt beam="1">  1        2 0.12479458E+00 0.27552172E+03</pdfrwt>
<pdfrwt beam="2">  1       -2 0.35993931E-02 0.27552172E+03</pdfrwt>
<totfact> 0.11193711E+04</totfact>
</mgrwt>
</event>
<event>
 9    1  0.2054950E-002  0.2756896E+03  0.7818608E-02  0.1098067E+00
          2   -1    0    0  501    0  0.00000000000E+00  0.00000000000E+00  0.62025002760E+03  0.62025002760E+03  0.00000000000E+00 0.  1.
         -2   -1    0    0    0  501 -0.00000000000E+00 -0.00000000000E+00 -0.30634722269E+02  0.30634722269E+02  0.00000000000E+00 0.  1.
         36    2    1    2    0    0  0.71054273576E-14  0.00000000000E+00  0.58961530533E+03  0.65088474986E+03  0.27568958872E+03 0.  0.
         25    2    3    3    0    0 -0.34874802844E+02 -0.42662803175E+02  0.26969506863E+03  0.30594210155E+03  0.13352442777E+03 0.  0.
         25    2    3    3    0    0  0.34874802844E+02  0.42662803175E+02  0.31992023670E+03  0.34494264831E+03  0.11661949291E+03 0.  0.
          5    1    4    4  502    0 -0.61495613634E+02 -0.22315265249E+02  0.26350624380E+03  0.27154615092E+03  0.47000000000E+01 0. -1.
         -5    1    4    4    0  502  0.26620810790E+02 -0.20347537926E+02  0.61888248240E+01  0.34395950626E+02  0.47000000000E+01 0. -1.
          5    1    5    5  503    0 -0.34683521258E+02  0.47283331315E+02  0.13489102161E+03  0.14716092477E+03  0.47000000000E+01 0. -1.
         -5    1    5    5    0  503  0.69558324102E+02 -0.46205281399E+01  0.18502921509E+03  0.19778172355E+03  0.47000000000E+01 0. -1.
<mgrwt>
<rscale>  0 0.27568959E+03</rscale>
<asrwt>0</asrwt>
<pdfrwt beam="1">  1        2 0.95423072E-01 0.27568959E+03</pdfrwt>
<pdfrwt beam="2">  1       -2 0.47130347E-02 0.27568959E+03</pdfrwt>
<totfact> 0.10350187E+04</totfact>
</mgrwt>
</event>
<event>
 9    1  0.2054950E-002  0.2747917E+03  0.7818608E-02  0.1098568E+00
          1   -1    0    0  501    0  0.00000000000E+00  0.00000000000E+00  0.61841137934E+03  0.61841137934E+03  0.00000000000E+00 0.  1.
         -1   -1    0    0    0  501 -0.00000000000E+00 -0.00000000000E+00 -0.30525985677E+02  0.30525985677E+02  0.00000000000E+00 0.  1.
         36    2    1    2    0    0  0.00000000000E+00  0.35527136788E-14  0.58788539366E+03  0.64893736502E+03  0.27479168043E+03 0.  0.
         25    2    3    3    0    0  0.51132894501E+02 -0.14030676467E+02  0.21892958518E+03  0.25681278789E+03  0.12333374225E+03 0.  0.
         25    2    3    3    0    0 -0.51132894501E+02  0.14030676467E+02  0.36895580848E+03  0.39212457712E+03  0.12174507213E+03 0.  0.
          5    1    4    4  502    0 -0.56805437815E+01  0.22793136432E+02 -0.35452136072E+01  0.24216816174E+02  0.47000000000E+01 0.  1.
         -5    1    4    4    0  502  0.56813438283E+02 -0.36823812899E+02  0.22247479878E+03  0.23259597172E+03  0.47000000000E+01 0.  1.
          5    1    5    5  503    0 -0.71605903494E+02  0.17426903822E+01  0.35853771782E+03  0.36565260492E+03  0.47000000000E+01 0. -1.
         -5    1    5    5    0  503  0.20473008993E+02  0.12287986085E+02  0.10418090663E+02  0.26471972203E+02  0.47000000000E+01 0. -1.
<mgrwt>
<rscale>  0 0.27479168E+03</rscale>
<asrwt>0</asrwt>
<pdfrwt beam="1">  1        1 0.95140203E-01 0.27479168E+03</pdfrwt>
<pdfrwt beam="2">  1       -1 0.46963060E-02 0.27479168E+03</pdfrwt>
<totfact> 0.64952484E+03</totfact>
</mgrwt>
</event>
<event>
 9    1  0.2054950E-002  0.2749705E+03  0.7818608E-02  0.1098468E+00
         -1   -1    0    0    0  501 -0.00000000000E+00  0.00000000000E+00  0.92329417843E+01  0.92329417843E+01  0.00000000000E+00 0.  1.
          1   -1    0    0  501    0  0.00000000000E+00 -0.00000000000E+00 -0.20472561169E+04  0.20472561169E+04  0.00000000000E+00 0.  1.
         36    2    1    2    0    0 -0.35527136788E-14  0.17763568394E-14 -0.20380231751E+04  0.20564890587E+04  0.27497051875E+03 0.  0.
         25    2    3    3    0    0 -0.26098887624E+02  0.12199783879E+02 -0.13751451676E+04  0.13812781925E+04  0.12678811607E+03 0.  0.
         25    2    3    3    0    0  0.26098887624E+02 -0.12199783879E+02 -0.66287800756E+03  0.67521086625E+03  0.12518975332E+03 0.  0.
          5    1    4    4  502    0 -0.19977123164E+02  0.22975247958E+02 -0.13628535157E+04  0.13632016515E+04  0.47000000000E+01 0. -1.
         -5    1    4    4    0  502 -0.61217644597E+01 -0.10775464080E+02 -0.12291651894E+02  0.18076540944E+02  0.47000000000E+01 0. -1.
          5    1    5    5  503    0 -0.66701109088E+01 -0.64361152608E+02 -0.28292075119E+03  0.29026382792E+03  0.47000000000E+01 0. -1.
         -5    1    5    5    0  503  0.32768998532E+02  0.52161368729E+02 -0.37995725637E+03  0.38494703833E+03  0.47000000000E+01 0. -1.
<mgrwt>
<rscale>  0 0.27497052E+03</rscale>
<asrwt>0</asrwt>
<pdfrwt beam="1">  1        1 0.31496308E+00 0.27497052E+03</pdfrwt>
<pdfrwt beam="2">  1       -1 0.14204499E-02 0.27497052E+03</pdfrwt>
<totfact> 0.35518281E+03</totfact>
</mgrwt>
</event>
<event>
 9    1  0.2054950E-002  0.2746039E+03  0.7818608E-02  0.1098673E+00
          2   -1    0    0  501    0  0.00000000000E+00  0.00000000000E+00  0.31013892321E+03  0.31013892321E+03  0.00000000000E+00 0. -1.
         -2   -1    0    0    0  501 -0.00000000000E+00 -0.00000000000E+00 -0.60785078382E+02  0.60785078382E+02  0.00000000000E+00 0. -1.
         36    2    1    2    0    0 -0.71054273576E-14 -0.35527136788E-14  0.24935384483E+03  0.37092400159E+03  0.27460385108E+03 0.  0.
         25    2    3    3    0    0  0.24154876736E+02  0.10635549776E+02  0.58725385966E+02  0.14097579819E+03  0.12541503789E+03 0.  0.
         25    2    3    3    0    0 -0.24154876736E+02 -0.10635549776E+02  0.19062845886E+03  0.22994820341E+03  0.12585862677E+03 0.  0.
          5    1    4    4  502    0 -0.40674282820E+02  0.33920107409E+02  0.46955474721E+02  0.70935728486E+02  0.47000000000E+01 0.  1.
         -5    1    4    4    0  502  0.64829159556E+02 -0.23284557633E+02  0.11769911245E+02  0.70040069700E+02  0.47000000000E+01 0.  1.
          5    1    5    5  503    0 -0.25052908149E+02  0.31748501244E+02  0.68527212990E+01  0.41287592896E+02  0.47000000000E+01 0.  1.
         -5    1    5    5    0  503  0.89803141360E+00 -0.42384051020E+02  0.18377573756E+03  0.18866061051E+03  0.47000000000E+01 0.  1.
<mgrwt>
<rscale>  0 0.27460385E+03</rscale>
<asrwt>0</asrwt>
<pdfrwt beam="1">  1        2 0.47713679E-01 0.27460385E+03</pdfrwt>
<pdfrwt beam="2">  1       -2 0.93515507E-02 0.27460385E+03</pdfrwt>
<totfact> 0.77297191E+03</totfact>
</mgrwt>
</event>
<event>
 9    1  0.2054950E-002  0.2751758E+03  0.7818608E-02  0.1098353E+00
          2   -1    0    0  501    0  0.00000000000E+00  0.00000000000E+00  0.13384591490E+04  0.13384591490E+04  0.00000000000E+00 0. -1.
         -2   -1    0    0    0  501 -0.00000000000E+00 -0.00000000000E+00 -0.14143449244E+02  0.14143449244E+02  0.00000000000E+00 0. -1.
         36    2    1    2    0    0  0.00000000000E+00  0.00000000000E+00  0.13243156998E+04  0.13526025982E+04  0.27517579137E+03 0.  0.
         25    2    3    3    0    0  0.33653176056E+02  0.50775615540E+02  0.71242061786E+03  0.72593586959E+03  0.12541551186E+03 0.  0.
         25    2    3    3    0    0 -0.33653176056E+02 -0.50775615540E+02  0.61189508190E+03  0.62666672866E+03  0.12076795170E+03 0.  0.
          5    1    4    4  502    0 -0.89007510730E+01  0.81933661160E+02  0.51328420680E+03  0.51987990454E+03  0.47000000000E+01 0.  1.
         -5    1    4    4    0  502  0.42553927129E+02 -0.31158045620E+02  0.19913641106E+03  0.20605596504E+03  0.47000000000E+01 0.  1.
          5    1    5    5  503    0 -0.15158285252E+02 -0.89798507393E+02  0.38514004303E+03  0.39578843880E+03  0.47000000000E+01 0.  1.
         -5    1    5    5    0  503 -0.18494890804E+02  0.39022891853E+02  0.22675503887E+03  0.23087828986E+03  0.47000000000E+01 0.  1.
<mgrwt>
<rscale>  0 0.27517579E+03</rscale>
<asrwt>0</asrwt>
<pdfrwt beam="1">  1        2 0.20591669E+00 0.27517579E+03</pdfrwt>
<pdfrwt beam="2">  1       -2 0.21759163E-02 0.27517579E+03</pdfrwt>
<totfact> 0.11396432E+04</totfact>
</mgrwt>
</event>
<event>
 9    1  0.2054950E-002  0.2750131E+03  0.7818608E-02  0.1098444E+00
         -2   -1    0    0    0  501 -0.00000000000E+00  0.00000000000E+00  0.47488741731E+01  0.47488741731E+01  0.00000000000E+00 0. -1.
          2   -1    0    0  501    0  0.00000000000E+00 -0.00000000000E+00 -0.39815861038E+04  0.39815861038E+04  0.00000000000E+00 0. -1.
         36    2    1    2    0    0  0.00000000000E+00 -0.71054273576E-14 -0.39768372297E+04  0.39863349780E+04  0.27501310090E+03 0.  0.
         25    2    3    3    0    0 -0.36792529774E+02  0.25596614280E+02 -0.25153314074E+04  0.25190217211E+04  0.12872243545E+03 0.  0.
         25    2    3    3    0    0  0.36792529774E+02 -0.25596614280E+02 -0.14615058223E+04  0.14673132569E+04  0.12247468513E+03 0.  0.
          5    1    4    4  502    0  0.68548625544E+01  0.67132258557E+02 -0.17504157272E+04  0.17517223060E+04  0.47000000000E+01 0.  1.
         -5    1    4    4    0  502 -0.43647392328E+02 -0.41535644277E+02 -0.76491568016E+03  0.76729941507E+03  0.47000000000E+01 0.  1.
          5    1    5    5  503    0  0.20347248485E+02 -0.89230854562E+01 -0.14136036234E+04  0.14137860256E+04  0.47000000000E+01 0.  1.
         -5    1    5    5    0  503  0.16445281289E+02 -0.16673528824E+02 -0.47902198814E+02  0.53527231306E+02  0.47000000000E+01 0.  1.
<mgrwt>
<rscale>  0 0.27501310E+03</rscale>
<asrwt>0</asrwt>
<pdfrwt beam="1">  1        2 0.61255194E+00 0.27501310E+03</pdfrwt>
<pdfrwt beam="2">  1       -2 0.73059575E-03 0.27501310E+03</pdfrwt>
<totfact> 0.15527358E+03</totfact>
</mgrwt>
</event>
<event>
 9    1  0.2054950E-002  0.2755785E+03  0.7818608E-02  0.1098129E+00
         -4   -1    0    0    0  501 -0.00000000000E+00  0.00000000000E+00  0.34945755197E+03  0.34945755197E+03  0.00000000000E+00 0.  1.
          4   -1    0    0  501    0  0.00000000000E+00 -0.00000000000E+00 -0.54329552223E+02  0.54329552223E+02  0.00000000000E+00 0.  1.
         36    2    1    2    0    0  0.35527136788E-14  0.00000000000E+00  0.29512799974E+03  0.40378710419E+03  0.27557846302E+03 0.  0.
         25    2    3    3    0    0 -0.13314198743E+02  0.28434574210E+02  0.22254755283E+03  0.25677402150E+03  0.12417605224E+03 0.  0.
         25    2    3    3    0    0  0.13314198743E+02 -0.28434574210E+02  0.72580446918E+02  0.14701308269E+03  0.12393196645E+03 0.  0.
          5    1    4    4  502    0 -0.42353343553E+02  0.33125497332E+02  0.29633955962E+02  0.61574066210E+02  0.47000000000E+01 0. -1.
         -5    1    4    4    0  502  0.29039144810E+02 -0.46909231219E+01  0.19291359687E+03  0.19519995529E+03  0.47000000000E+01 0. -1.
          5    1    5    5  503    0 -0.44391252531E+02  0.23111459551E+02  0.30797006539E+02  0.58951407749E+02  0.47000000000E+01 0.  1.
         -5    1    5    5    0  503  0.57705451274E+02 -0.51546033761E+02  0.41783440378E+02  0.88061674939E+02  0.47000000000E+01 0.  1.
<mgrwt>
<rscale>  0 0.27557846E+03</rscale>
<asrwt>0</asrwt>
<pdfrwt beam="1">  1        4 0.83583928E-02 0.27557846E+03</pdfrwt>
<pdfrwt beam="2">  1       -4 0.53762699E-01 0.27557846E+03</pdfrwt>
<totfact> 0.64250161E+02</totfact>
</mgrwt>
</event>
<event>
 9    1  0.2054950E-002  0.2743644E+03  0.7818608E-02  0.1098807E+00
         -1   -1    0    0    0  501 -0.00000000000E+00  0.00000000000E+00  0.13257162976E+03  0.13257162976E+03  0.00000000000E+00 0. -1.
          1   -1    0    0  501    0  0.00000000000E+00 -0.00000000000E+00 -0.14195313241E+03  0.14195313241E+03  0.00000000000E+00 0. -1.
         36    2    1    2    0    0  0.35527136788E-14  0.00000000000E+00 -0.93815026508E+01  0.27452476218E+03  0.27436441543E+03 0.  0.
         25    2    3    3    0    0 -0.49584067411E+01  0.43028361663E+02 -0.44185365025E+02  0.13949424298E+03  0.12502108477E+03 0.  0.
         25    2    3    3    0    0  0.49584067411E+01 -0.43028361663E+02  0.34803862375E+02  0.13503051920E+03  0.12306870672E+03 0.  0.
          5    1    4    4  502    0  0.33121421117E+02  0.74366134076E+02 -0.18191030305E+02  0.83548512959E+02  0.47000000000E+01 0. -1.
         -5    1    4    4    0  502 -0.38079827858E+02 -0.31337772413E+02 -0.25994334720E+02  0.55945730016E+02  0.47000000000E+01 0. -1.
          5    1    5    5  503    0 -0.19673773150E+02  0.30732199457E+02  0.43118074459E+02  0.56681423575E+02  0.47000000000E+01 0. -1.
         -5    1    5    5    0  503  0.24632179891E+02 -0.73760561120E+02 -0.83142120849E+01  0.78349095626E+02  0.47000000000E+01 0. -1.
<mgrwt>
<rscale>  0 0.27436442E+03</rscale>
<asrwt>0</asrwt>
<pdfrwt beam="1">  1        1 0.21838944E-01 0.27436442E+03</pdfrwt>
<pdfrwt beam="2">  1       -1 0.20395635E-01 0.27436442E+03</pdfrwt>
<totfact> 0.44190083E+03</totfact>
</mgrwt>
</event>
<event>
 9    1  0.2054950E-002  0.2748411E+03  0.7818608E-02  0.1098540E+00
          1   -1    0    0  501    0  0.00000000000E+00  0.00000000000E+00  0.62616286496E+02  0.62616286496E+02  0.00000000000E+00 0. -1.
         -1   -1    0    0    0  501 -0.00000000000E+00 -0.00000000000E+00 -0.30158936458E+03  0.30158936458E+03  0.00000000000E+00 0. -1.
         36    2    1    2    0    0  0.71054273576E-14  0.00000000000E+00 -0.23897307809E+03  0.36420565108E+03  0.27484108905E+03 0.  0.
         25    2    3    3    0    0  0.33294566985E+02 -0.35694092078E+02 -0.15987064170E+03  0.21230446294E+03  0.13088913824E+03 0.  0.
         25    2    3    3    0    0 -0.33294566985E+02  0.35694092078E+02 -0.79102436391E+02  0.15190118814E+03  0.12014232857E+03 0.  0.
          5    1    4    4  502    0 -0.42884232446E+02 -0.17645383225E+02 -0.10972657205E+03  0.11921588634E+03  0.47000000000E+01 0. -1.
         -5    1    4    4    0  502  0.76178799431E+02 -0.18048708853E+02 -0.50144069650E+02  0.93088576609E+02  0.47000000000E+01 0. -1.
          5    1    5    5  503    0  0.95418305036E+01  0.37295800084E+01  0.29056106506E+02  0.31165744363E+02  0.47000000000E+01 0. -1.
         -5    1    5    5    0  503 -0.42836397489E+02  0.31964512070E+02 -0.10815854290E+03  0.12073544377E+03  0.47000000000E+01 0. -1.
<mgrwt>
<rscale>  0 0.27484109E+03</rscale>
<asrwt>0</asrwt>
<pdfrwt beam="1">  1        1 0.96332748E-02 0.27484109E+03</pdfrwt>
<pdfrwt beam="2">  1       -1 0.46398364E-01 0.27484109E+03</pdfrwt>
<totfact> 0.31711892E+03</totfact>
</mgrwt>
</event>
<event>
 9    1  0.2054950E-002  0.2756272E+03  0.7818608E-02  0.1098102E+00
         -1   -1    0    0    0  501 -0.00000000000E+00  0.00000000000E+00  0.11733517106E+03  0.11733517106E+03  0.00000000000E+00 0.  1.
          1   -1    0    0  501    0  0.00000000000E+00 -0.00000000000E+00 -0.16186613328E+03  0.16186613328E+03  0.00000000000E+00 0.  1.
         36    2    1    2    0    0  0.00000000000E+00  0.00000000000E+00 -0.44530962221E+02  0.27920130434E+03  0.27562721519E+03 0.  0.
         25    2    3    3    0    0  0.20814873549E+02  0.37534349517E+02  0.13910264034E+02  0.13528823437E+03  0.12754342225E+03 0.  0.
         25    2    3    3    0    0 -0.20814873549E+02 -0.37534349517E+02 -0.58441226255E+02  0.14391306997E+03  0.12431214112E+03 0.  0.
          5    1    4    4  502    0 -0.42030594287E+02  0.36084590893E+02  0.38500361959E+02  0.67624229585E+02  0.47000000000E+01 0.  1.
         -5    1    4    4    0  502  0.62845467835E+02  0.14497586241E+01 -0.24590097925E+02  0.67664004785E+02  0.47000000000E+01 0.  1.
          5    1    5    5  503    0 -0.31981532594E+02 -0.45797272145E+02  0.23417618718E+02  0.60750995295E+02  0.47000000000E+01 0. -1.
         -5    1    5    5    0  503  0.11166659045E+02  0.82629226275E+01 -0.81858844973E+02  0.83162074679E+02  0.47000000000E+01 0. -1.
<mgrwt>
<rscale>  0 0.27562722E+03</rscale>
<asrwt>0</asrwt>
<pdfrwt beam="1">  1        1 0.24902482E-01 0.27562722E+03</pdfrwt>
<pdfrwt beam="2">  1       -1 0.18051565E-01 0.27562722E+03</pdfrwt>
<totfact> 0.45543907E+03</totfact>
</mgrwt>
</event>
<event>
 8    1  0.2054950E-002  0.3267995E+03  0.7818608E-02  0.1072562E+00
          2   -1    0    0  501    0  0.00000000000E+00  0.00000000000E+00  0.93935772346E+03  0.93935772346E+03  0.00000000000E+00 0. -1.
         -2   -1    0    0    0  501 -0.00000000000E+00 -0.00000000000E+00 -0.28423123971E+02  0.28423123971E+02  0.00000000000E+00 0. -1.
         25    2    1    2    0    0  0.29477831154E+02 -0.87188743881E+02  0.33734035005E+03  0.37333596234E+03  0.13080676365E+03 0.  0.
         25    2    1    2    0    0 -0.29477831154E+02  0.87188743881E+02  0.57359424944E+03  0.59444488509E+03  0.12602991244E+03 0.  0.
          5    1    3    3  502    0  0.51744011000E+02  0.35623940108E+01  0.54321472019E+02  0.75253210215E+02  0.47000000000E+01 0.  1.
         -5    1    3    3    0  502 -0.22266179846E+02 -0.90751137892E+02  0.28301887803E+03  0.29808275212E+03  0.47000000000E+01 0.  1.
          5    1    4    4  503    0 -0.22399612135E+02  0.78901179164E+00  0.39704196721E+03  0.39770187187E+03  0.47000000000E+01 0. -1.
         -5    1    4    4    0  503 -0.70782190190E+01  0.86399732089E+02  0.17655228223E+03  0.19674301322E+03  0.47000000000E+01 0. -1.
<mgrwt>
<rscale>  0 0.32679952E+03</rscale>
<asrwt>0</asrwt>
<pdfrwt beam="1">  1        2 0.14451655E+00 0.32679952E+03</pdfrwt>
<pdfrwt beam="2">  1       -2 0.43727890E-02 0.32679952E+03</pdfrwt>
<totfact> 0.69028106E+03</totfact>
</mgrwt>
</event>
<event>
 9    1  0.2054950E-002  0.2752652E+03  0.7818608E-02  0.1098303E+00
          1   -1    0    0  501    0  0.00000000000E+00  0.00000000000E+00  0.25222642924E+03  0.25222642924E+03  0.00000000000E+00 0. -1.
         -1   -1    0    0    0  501 -0.00000000000E+00 -0.00000000000E+00 -0.75102105447E+02  0.75102105447E+02  0.00000000000E+00 0. -1.
         36    2    1    2    0    0 -0.35527136788E-14  0.00000000000E+00  0.17712432379E+03  0.32732853468E+03  0.27526522399E+03 0.  0.
         25    2    3    3    0    0  0.14484029989E+02  0.15065424453E+02  0.20906584196E+02  0.12852231446E+03  0.12507656020E+03 0.  0.
         25    2    3    3    0    0 -0.14484029989E+02 -0.15065424453E+02  0.15621773959E+03  0.19880622023E+03  0.12117415937E+03 0.  0.
          5    1    4    4  502    0  0.47546987678E+02 -0.40061929098E+02  0.97157605989E+01  0.63104359630E+02  0.47000000000E+01 0. -1.
         -5    1    4    4    0  502 -0.33062957689E+02  0.55127353551E+02  0.11190823597E+02  0.65417954825E+02  0.47000000000E+01 0. -1.
          5    1    5    5  503    0 -0.34237357793E+02 -0.11527736975E+02  0.17009929708E+03  0.17395673673E+03  0.47000000000E+01 0.  1.
         -5    1    5    5    0  503  0.19753327804E+02 -0.35376874775E+01 -0.13881557481E+02  0.24849483498E+02  0.47000000000E+01 0.  1.
<mgrwt>
<rscale>  0 0.27526522E+03</rscale>
<asrwt>0</asrwt>
<pdfrwt beam="1">  1        1 0.38804066E-01 0.27526522E+03</pdfrwt>
<pdfrwt beam="2">  1       -1 0.11554170E-01 0.27526522E+03</pdfrwt>
<totfact> 0.52736189E+03</totfact>
</mgrwt>
</event>
<event>
 9    1  0.2054950E-002  0.2750300E+03  0.7818608E-02  0.1098435E+00
         -2   -1    0    0    0  501 -0.00000000000E+00  0.00000000000E+00  0.27864505923E+02  0.27864505923E+02  0.00000000000E+00 0. -1.
          2   -1    0    0  501    0  0.00000000000E+00 -0.00000000000E+00 -0.67865473402E+03  0.67865473402E+03  0.00000000000E+00 0. -1.
         36    2    1    2    0    0  0.71054273576E-14  0.71054273576E-14 -0.65079022809E+03  0.70651923994E+03  0.27503002640E+03 0.  0.
         25    2    3    3    0    0 -0.37592620066E+02 -0.28823115488E+02 -0.24037673132E+03  0.27500064796E+03  0.12490158665E+03 0.  0.
         25    2    3    3    0    0  0.37592620066E+02  0.28823115488E+02 -0.41041349678E+03  0.43151859198E+03  0.12459967825E+03 0.  0.
          5    1    4    4  502    0 -0.51807450325E+02 -0.70315728918E+02 -0.13616107964E+03  0.16183399906E+03  0.47000000000E+01 0.  1.
         -5    1    4    4    0  502  0.14214830259E+02  0.41492613430E+02 -0.10421565167E+03  0.11316664889E+03  0.47000000000E+01 0.  1.
          5    1    5    5  503    0  0.60285131911E+02 -0.23920457366E+02 -0.30013700321E+03  0.30710062863E+03  0.47000000000E+01 0.  1.
         -5    1    5    5    0  503 -0.22692511845E+02  0.52743572854E+02 -0.11027649357E+03  0.12441796336E+03  0.47000000000E+01 0.  1.
<mgrwt>
<rscale>  0 0.27503003E+03</rscale>
<asrwt>0</asrwt>
<pdfrwt beam="1">  1        2 0.10440842E+00 0.27503003E+03</pdfrwt>
<pdfrwt beam="2">  1       -2 0.42868472E-02 0.27503003E+03</pdfrwt>
<totfact> 0.10734723E+04</totfact>
</mgrwt>
</event>
<event>
 9    1  0.2054950E-002  0.2753983E+03  0.7818608E-02  0.1098229E+00
          2   -1    0    0  501    0  0.00000000000E+00  0.00000000000E+00  0.20096254892E+03  0.20096254892E+03  0.00000000000E+00 0. -1.
         -2   -1    0    0    0  501 -0.00000000000E+00 -0.00000000000E+00 -0.94351187460E+02  0.94351187460E+02  0.00000000000E+00 0. -1.
         36    2    1    2    0    0  0.00000000000E+00  0.71054273576E-14  0.10661136146E+03  0.29531373638E+03  0.27539829430E+03 0.  0.
         25    2    3    3    0    0 -0.10298470446E+02  0.55232803242E+02  0.40649714208E+02  0.14295846895E+03  0.12501201355E+03 0.  0.
         25    2    3    3    0    0  0.10298470446E+02 -0.55232803242E+02  0.65961647251E+02  0.15235526743E+03  0.12531746709E+03 0.  0.
          5    1    4    4  502    0 -0.42615394684E+02 -0.25546313066E+02  0.15954568889E+02  0.52395841856E+02  0.47000000000E+01 0.  1.
         -5    1    4    4    0  502  0.32316924239E+02  0.80779116308E+02  0.24695145319E+02  0.90562627094E+02  0.47000000000E+01 0.  1.
          5    1    5    5  503    0 -0.45527583876E+02  0.88184627337E+01  0.33959722870E+01  0.46734877836E+02  0.47000000000E+01 0.  1.
         -5    1    5    5    0  503  0.55826054321E+02 -0.64051265976E+02  0.62565674964E+02  0.10562038959E+03  0.47000000000E+01 0.  1.
<mgrwt>
<rscale>  0 0.27539829E+03</rscale>
<asrwt>0</asrwt>
<pdfrwt beam="1">  1        2 0.30917315E-01 0.27539829E+03</pdfrwt>
<pdfrwt beam="2">  1       -2 0.14515567E-01 0.27539829E+03</pdfrwt>
<totfact> 0.60863987E+03</totfact>
</mgrwt>
</event>
<event>
 9    1  0.2054950E-002  0.2749967E+03  0.7818608E-02  0.1098453E+00
          2   -1    0    0  501    0  0.00000000000E+00  0.00000000000E+00  0.83193775610E+03  0.83193775610E+03  0.00000000000E+00 0.  1.
         -2   -1    0    0    0  501 -0.00000000000E+00 -0.00000000000E+00 -0.22725019531E+02  0.22725019531E+02  0.00000000000E+00 0.  1.
         36    2    1    2    0    0  0.14210854715E-13  0.71054273576E-14  0.80921273656E+03  0.85466277563E+03  0.27499674003E+03 0.  0.
         25    2    3    3    0    0 -0.28331123260E+02 -0.50527247479E+02  0.44339325683E+03  0.46387243510E+03  0.12338719772E+03 0.  0.
         25    2    3    3    0    0  0.28331123260E+02  0.50527247479E+02  0.36581947973E+03  0.39079034053E+03  0.12464968196E+03 0.  0.
          5    1    4    4  502    0 -0.74220810117E+02 -0.27741582301E+02  0.20154690908E+03  0.21661387444E+03  0.47000000000E+01 0. -1.
         -5    1    4    4    0  502  0.45889686857E+02 -0.22785665178E+02  0.24184634775E+03  0.24725856066E+03  0.47000000000E+01 0. -1.
          5    1    5    5  503    0 -0.25273417353E+02 -0.30647413279E+02  0.11186568212E+03  0.11880248483E+03  0.47000000000E+01 0. -1.
         -5    1    5    5    0  503  0.53604540612E+02  0.81174660758E+02  0.25395379761E+03  0.27198785569E+03  0.47000000000E+01 0. -1.
<mgrwt>
<rscale>  0 0.27499674E+03</rscale>
<asrwt>0</asrwt>
<pdfrwt beam="1">  1        2 0.12799040E+00 0.27499674E+03</pdfrwt>
<pdfrwt beam="2">  1       -2 0.34961575E-02 0.27499674E+03</pdfrwt>
<totfact> 0.11317162E+04</totfact>
</mgrwt>
</event>
<event>
 9    1  0.2054950E-002  0.2748445E+03  0.7818608E-02  0.1098539E+00
          2   -1    0    0  501    0  0.00000000000E+00  0.00000000000E+00  0.95625087072E+01  0.95625087072E+01  0.00000000000E+00 0. -1.
         -2   -1    0    0    0  501 -0.00000000000E+00 -0.00000000000E+00 -0.19748869433E+04  0.19748869433E+04  0.00000000000E+00 0. -1.
         36    2    1    2    0    0  0.71054273576E-14 -0.17763568394E-14 -0.19653244346E+04  0.19844494520E+04  0.27484449124E+03 0.  0.
         25    2    3    3    0    0  0.13700324378E+02  0.72271674569E+01 -0.66920014996E+03  0.68217299900E+03  0.13149611787E+03 0.  0.
         25    2    3    3    0    0 -0.13700324378E+02 -0.72271674569E+01 -0.12961242846E+04  0.13022764530E+04  0.12548254068E+03 0.  0.
          5    1    4    4  502    0 -0.46038067737E+02  0.22133003764E+02 -0.48906937269E+03  0.49175229012E+03  0.47000000000E+01 0.  1.
         -5    1    4    4    0  502  0.59738392115E+02 -0.14905836307E+02 -0.18013077728E+03  0.19042070888E+03  0.47000000000E+01 0.  1.
          5    1    5    5  503    0  0.34042443872E+02  0.60706546929E+01 -0.10771267475E+04  0.10776919138E+04  0.47000000000E+01 0. -1.
         -5    1    5    5    0  503 -0.47742768250E+02 -0.13297822150E+02 -0.21899753712E+03  0.22458453922E+03  0.47000000000E+01 0. -1.
<mgrwt>
<rscale>  0 0.27484449E+03</rscale>
<asrwt>0</asrwt>
<pdfrwt beam="1">  1        2 0.14711543E-02 0.27484449E+03</pdfrwt>
<pdfrwt beam="2">  1       -2 0.30382894E+00 0.27484449E+03</pdfrwt>
<totfact> 0.29188710E+02</totfact>
</mgrwt>
</event>
<event>
 9    1  0.2054950E-002  0.2760378E+03  0.7818608E-02  0.1097873E+00
          1   -1    0    0  501    0  0.00000000000E+00  0.00000000000E+00  0.24116679754E+03  0.24116679754E+03  0.00000000000E+00 0.  1.
         -1   -1    0    0    0  501 -0.00000000000E+00 -0.00000000000E+00 -0.78987721521E+02  0.78987721521E+02  0.00000000000E+00 0.  1.
         36    2    1    2    0    0  0.00000000000E+00  0.00000000000E+00  0.16217907602E+03  0.32015451907E+03  0.27603779339E+03 0.  0.
         25    2    3    3    0    0  0.30934594449E+02 -0.45289876237E+02  0.66886791945E+02  0.15010293203E+03  0.12267406101E+03 0.  0.
         25    2    3    3    0    0 -0.30934594449E+02  0.45289876237E+02  0.95292284079E+02  0.17005158703E+03  0.12972586798E+03 0.  0.
          5    1    4    4  502    0 -0.67957111547E+01 -0.54317630255E+02 -0.17039736928E+02  0.57524162586E+02  0.47000000000E+01 0.  1.
         -5    1    4    4    0  502  0.37730305604E+02  0.90277540181E+01  0.83926528873E+02  0.92578769447E+02  0.47000000000E+01 0.  1.
          5    1    5    5  503    0  0.13250384568E+02  0.30682209336E+02 -0.24332939922E+02  0.41607122301E+02  0.47000000000E+01 0. -1.
         -5    1    5    5    0  503 -0.44184979018E+02  0.14607666902E+02  0.11962522400E+03  0.12844446473E+03  0.47000000000E+01 0. -1.
<mgrwt>
<rscale>  0 0.27603779E+03</rscale>
<asrwt>0</asrwt>
<pdfrwt beam="1">  1        1 0.37102584E-01 0.27603779E+03</pdfrwt>
<pdfrwt beam="2">  1       -1 0.12151957E-01 0.27603779E+03</pdfrwt>
<totfact> 0.51570797E+03</totfact>
</mgrwt>
</event>
<event>
 9    1  0.2054950E-002  0.2728658E+03  0.7818608E-02  0.1099651E+00
          1   -1    0    0  501    0  0.00000000000E+00  0.00000000000E+00  0.54123720977E+03  0.54123720977E+03  0.00000000000E+00 0.  1.
         -1   -1    0    0    0  501 -0.00000000000E+00 -0.00000000000E+00 -0.34391445430E+02  0.34391445430E+02  0.00000000000E+00 0.  1.
         36    2    1    2    0    0 -0.71054273576E-14  0.00000000000E+00  0.50684576434E+03  0.57562865520E+03  0.27286575428E+03 0.  0.
         25    2    3    3    0    0 -0.54936148749E+02 -0.34514996736E+02  0.24032541579E+03  0.27846181054E+03  0.12480147841E+03 0.  0.
         25    2    3    3    0    0  0.54936148749E+02  0.34514996736E+02  0.26652034855E+03  0.29716684466E+03  0.11430560763E+03 0.  0.
          5    1    4    4  502    0 -0.39332152799E+02 -0.12309156456E+02  0.24672209309E+03  0.25018476132E+03  0.47000000000E+01 0. -1.
         -5    1    4    4    0  502 -0.15603995949E+02 -0.22205840280E+02 -0.63966772994E+01  0.28277049220E+02  0.47000000000E+01 0. -1.
          5    1    5    5  503    0  0.14390761288E+02  0.52094596550E+02  0.42870240593E+02  0.69143969576E+02  0.47000000000E+01 0.  1.
         -5    1    5    5    0  503  0.40545387461E+02 -0.17579599814E+02  0.22365010795E+03  0.22802287509E+03  0.47000000000E+01 0.  1.
<mgrwt>
<rscale>  0 0.27286575E+03</rscale>
<asrwt>0</asrwt>
<pdfrwt beam="1">  1        1 0.83267257E-01 0.27286575E+03</pdfrwt>
<pdfrwt beam="2">  1       -1 0.52909920E-02 0.27286575E+03</pdfrwt>
<totfact> 0.65247777E+03</totfact>
</mgrwt>
</event>
<event>
 9    1  0.2054950E-002  0.2746925E+03  0.7818608E-02  0.1098624E+00
          2   -1    0    0  501    0  0.00000000000E+00  0.00000000000E+00  0.10942374574E+04  0.10942374574E+04  0.00000000000E+00 0.  1.
         -2   -1    0    0    0  501 -0.00000000000E+00 -0.00000000000E+00 -0.17239396471E+02  0.17239396471E+02  0.00000000000E+00 0.  1.
         36    2    1    2    0    0  0.71054273576E-14  0.71054273576E-14  0.10769980610E+04  0.11114768539E+04  0.27469250708E+03 0.  0.
         25    2    3    3    0    0 -0.55383609320E+02  0.11869616261E+02  0.56037376020E+03  0.57696758730E+03  0.12515835451E+03 0.  0.
         25    2    3    3    0    0  0.55383609320E+02 -0.11869616261E+02  0.51662430075E+03  0.53450926659E+03  0.12486495095E+03 0.  0.
          5    1    4    4  502    0 -0.13755664405E+01  0.57388381556E+02  0.35723492434E+03  0.36184831033E+03  0.47000000000E+01 0.  1.
         -5    1    4    4    0  502 -0.54008042880E+02 -0.45518765294E+02  0.20313883586E+03  0.21511927697E+03  0.47000000000E+01 0.  1.
          5    1    5    5  503    0  0.56783680291E+02 -0.58809480754E+02  0.40703045260E+03  0.41518528481E+03  0.47000000000E+01 0. -1.
         -5    1    5    5    0  503 -0.14000709704E+01  0.46939864492E+02  0.10959384814E+03  0.11932398178E+03  0.47000000000E+01 0. -1.
<mgrwt>
<rscale>  0 0.27469251E+03</rscale>
<asrwt>0</asrwt>
<pdfrwt beam="1">  1        2 0.16834417E+00 0.27469251E+03</pdfrwt>
<pdfrwt beam="2">  1       -2 0.26522157E-02 0.27469251E+03</pdfrwt>
<totfact> 0.11696835E+04</totfact>
</mgrwt>
</event>
<event>
 9    1  0.2054950E-002  0.2708123E+03  0.7818608E-02  0.1100816E+00
         -1   -1    0    0    0  501 -0.00000000000E+00  0.00000000000E+00  0.19325929428E+02  0.19325929428E+02  0.00000000000E+00 0.  1.
          1   -1    0    0  501    0  0.00000000000E+00 -0.00000000000E+00 -0.94871605925E+03  0.94871605925E+03  0.00000000000E+00 0.  1.
         36    2    1    2    0    0  0.17763568394E-14  0.71054273576E-14 -0.92939012982E+03  0.96804198867E+03  0.27081225680E+03 0.  0.
         25    2    3    3    0    0 -0.12902636043E+02  0.32532512482E+02 -0.29961964765E+03  0.32582622978E+03  0.12315013750E+03 0.  0.
         25    2    3    3    0    0  0.12902636043E+02 -0.32532512482E+02 -0.62977048216E+03  0.64221575889E+03  0.12085271359E+03 0.  0.
          5    1    4    4  502    0  0.27875473667E+02  0.66682560902E+02 -0.14193754639E+03  0.15934855831E+03  0.47000000000E+01 0. -1.
         -5    1    4    4    0  502 -0.40778109711E+02 -0.34150048420E+02 -0.15768210126E+03  0.16647767147E+03  0.47000000000E+01 0. -1.
          5    1    5    5  503    0  0.21823396855E+02 -0.45560557181E+01 -0.16274429805E+02  0.27999381412E+02  0.47000000000E+01 0. -1.
         -5    1    5    5    0  503 -0.89207608115E+01 -0.27976456764E+02 -0.61349605236E+03  0.61421637748E+03  0.47000000000E+01 0. -1.
<mgrwt>
<rscale>  0 0.27081226E+03</rscale>
<asrwt>0</asrwt>
<pdfrwt beam="1">  1        1 0.14595631E+00 0.27081226E+03</pdfrwt>
<pdfrwt beam="2">  1       -1 0.29732200E-02 0.27081226E+03</pdfrwt>
<totfact> 0.66779992E+03</totfact>
</mgrwt>
</event>
<event>
 9    1  0.2054950E-002  0.2739151E+03  0.7818608E-02  0.1099060E+00
          2   -1    0    0  501    0  0.00000000000E+00  0.00000000000E+00  0.29248537649E+04  0.29248537649E+04  0.00000000000E+00 0. -1.
         -2   -1    0    0    0  501 -0.00000000000E+00 -0.00000000000E+00 -0.64130954955E+01  0.64130954955E+01  0.00000000000E+00 0. -1.
         36    2    1    2    0    0  0.00000000000E+00  0.00000000000E+00  0.29184406694E+04  0.29312668604E+04  0.27391507081E+03 0.  0.
         25    2    3    3    0    0  0.45849333482E+02 -0.46882090618E+02  0.14226972988E+04  0.14290090824E+04  0.11704384550E+03 0.  0.
         25    2    3    3    0    0 -0.45849333482E+02  0.46882090618E+02  0.14957433706E+04  0.15022577780E+04  0.12341032792E+03 0.  0.
          5    1    4    4  502    0 -0.13961704969E+02  0.28986949488E+02  0.55176429897E+03  0.55272154297E+03  0.47000000000E+01 0.  1.
         -5    1    4    4    0  502  0.59811038451E+02 -0.75869040106E+02  0.87093299984E+03  0.87628753944E+03  0.47000000000E+01 0.  1.
          5    1    5    5  503    0 -0.30869488389E+01  0.81188052618E+02  0.10459607939E+04  0.10491220623E+04  0.47000000000E+01 0. -1.
         -5    1    5    5    0  503 -0.42762384643E+02 -0.34305962000E+02  0.44978257667E+03  0.45313571570E+03  0.47000000000E+01 0. -1.
<mgrwt>
<rscale>  0 0.27391507E+03</rscale>
<asrwt>0</asrwt>
<pdfrwt beam="1">  1        2 0.44997644E+00 0.27391507E+03</pdfrwt>
<pdfrwt beam="2">  1       -2 0.98663241E-03 0.27391507E+03</pdfrwt>
<totfact> 0.50164583E+03</totfact>
</mgrwt>
</event>
<event>
 9    1  0.2054950E-002  0.2734801E+03  0.7818608E-02  0.1099304E+00
         -2   -1    0    0    0  501 -0.00000000000E+00  0.00000000000E+00  0.20496261769E+03  0.20496261769E+03  0.00000000000E+00 0. -1.
          2   -1    0    0  501    0  0.00000000000E+00 -0.00000000000E+00 -0.91225601693E+02  0.91225601693E+02  0.00000000000E+00 0. -1.
         36    2    1    2    0    0  0.71054273576E-14 -0.14210854715E-13  0.11373701600E+03  0.29618821939E+03  0.27348007696E+03 0.  0.
         25    2    3    3    0    0 -0.47530304479E+02  0.24888224749E+02  0.38754560356E+02  0.14063984496E+03  0.12409309597E+03 0.  0.
         25    2    3    3    0    0  0.47530304479E+02 -0.24888224749E+02  0.74982455645E+02  0.15554837443E+03  0.12527719089E+03 0.  0.
          5    1    4    4  502    0  0.63307790697E+00  0.69080076876E+02  0.14383413592E+02  0.70720791818E+02  0.47000000000E+01 0. -1.
         -5    1    4    4    0  502 -0.48163382386E+02 -0.44191852127E+02  0.24371146765E+02  0.69919053139E+02  0.47000000000E+01 0. -1.
          5    1    5    5  503    0  0.86940863384E+01  0.50361148023E+02  0.31828863007E+02  0.60390387379E+02  0.47000000000E+01 0.  1.
         -5    1    5    5    0  503  0.38836218140E+02 -0.75249372773E+02  0.43153592638E+02  0.95157987051E+02  0.47000000000E+01 0.  1.
<mgrwt>
<rscale>  0 0.27348008E+03</rscale>
<asrwt>0</asrwt>
<pdfrwt beam="1">  1        2 0.14034708E-01 0.27348008E+03</pdfrwt>
<pdfrwt beam="2">  1       -2 0.31532710E-01 0.27348008E+03</pdfrwt>
<totfact> 0.39166395E+03</totfact>
</mgrwt>
</event>
<event>
 9    1  0.2054950E-002  0.2747735E+03  0.7818608E-02  0.1098578E+00
         -1   -1    0    0    0  501 -0.00000000000E+00  0.00000000000E+00  0.91805547758E+01  0.91805547758E+01  0.00000000000E+00 0. -1.
          1   -1    0    0  501    0  0.00000000000E+00 -0.00000000000E+00 -0.20559882538E+04  0.20559882538E+04  0.00000000000E+00 0. -1.
         36    2    1    2    0    0  0.00000000000E+00 -0.35527136788E-14 -0.20468076991E+04  0.20651688086E+04  0.27477345420E+03 0.  0.
         25    2    3    3    0    0 -0.37773456052E+02  0.15670252840E+01 -0.70540234445E+03  0.71940651352E+03  0.13610280887E+03 0.  0.
         25    2    3    3    0    0  0.37773456052E+02 -0.15670252840E+01 -0.13414053546E+04  0.13457622951E+04  0.10138313458E+03 0.  0.
          5    1    4    4  502    0  0.21688047825E+02 -0.54804814373E+02 -0.30564596596E+03  0.31131252079E+03  0.47000000000E+01 0.  1.
         -5    1    4    4    0  502 -0.59461503877E+02  0.56371839657E+02 -0.39975637849E+03  0.40809399272E+03  0.47000000000E+01 0.  1.
          5    1    5    5  503    0 -0.24117997972E+02  0.19848760981E+02 -0.76090155780E+03  0.76155690647E+03  0.47000000000E+01 0.  1.
         -5    1    5    5    0  503  0.61891454024E+02 -0.21415786265E+02 -0.58050379682E+03  0.58420538863E+03  0.47000000000E+01 0.  1.
<mgrwt>
<rscale>  0 0.27477345E+03</rscale>
<asrwt>0</asrwt>
<pdfrwt beam="1">  1        1 0.31630575E+00 0.27477345E+03</pdfrwt>
<pdfrwt beam="2">  1       -1 0.14123936E-02 0.27477345E+03</pdfrwt>
<totfact> 0.35348733E+03</totfact>
</mgrwt>
</event>
<event>
 9    1  0.2054950E-002  0.2742783E+03  0.7818608E-02  0.1098856E+00
          1   -1    0    0  501    0  0.00000000000E+00  0.00000000000E+00  0.18070055214E+03  0.18070055214E+03  0.00000000000E+00 0.  1.
         -1   -1    0    0    0  501 -0.00000000000E+00 -0.00000000000E+00 -0.10407908758E+03  0.10407908758E+03  0.00000000000E+00 0.  1.
         36    2    1    2    0    0  0.00000000000E+00  0.00000000000E+00  0.76621464568E+02  0.28477963972E+03  0.27427831553E+03 0.  0.
         25    2    3    3    0    0  0.91951763953E+01 -0.66524012132E+02  0.40907737642E+02  0.14716402370E+03  0.12439377562E+03 0.  0.
         25    2    3    3    0    0 -0.91951763953E+01  0.66524012132E+02  0.35713726925E+02  0.13761561602E+03  0.11468475062E+03 0.  0.
          5    1    4    4  502    0 -0.26361660507E+02 -0.58955483898E+02  0.73612786289E+02  0.98038862353E+02  0.47000000000E+01 0.  1.
         -5    1    4    4    0  502  0.35556836902E+02 -0.75685282344E+01 -0.32705048647E+02  0.49125161344E+02  0.47000000000E+01 0.  1.
          5    1    5    5  503    0  0.34579184004E+02  0.82749715128E+01  0.51650501639E+02  0.62881312323E+02  0.47000000000E+01 0.  1.
         -5    1    5    5    0  503 -0.43774360399E+02  0.58249040620E+02 -0.15936774714E+02  0.74734303701E+02  0.47000000000E+01 0.  1.
<mgrwt>
<rscale>  0 0.27427832E+03</rscale>
<asrwt>0</asrwt>
<pdfrwt beam="1">  1        1 0.27800085E-01 0.27427832E+03</pdfrwt>
<pdfrwt beam="2">  1       -1 0.16012167E-01 0.27427832E+03</pdfrwt>
<totfact> 0.47984755E+03</totfact>
</mgrwt>
</event>
<event>
 9    1  0.2054950E-002  0.2766009E+03  0.7818608E-02  0.1097560E+00
         -1   -1    0    0    0  501 -0.00000000000E+00  0.00000000000E+00  0.39720034515E+02  0.39720034515E+02  0.00000000000E+00 0. -1.
          1   -1    0    0  501    0  0.00000000000E+00 -0.00000000000E+00 -0.48154583334E+03  0.48154583334E+03  0.00000000000E+00 0. -1.
         36    2    1    2    0    0  0.00000000000E+00 -0.35527136788E-14 -0.44182579882E+03  0.52126586786E+03  0.27660091917E+03 0.  0.
         25    2    3    3    0    0 -0.72088676340E+02  0.96783487740E+01 -0.15305594860E+03  0.20054284209E+03  0.10724206461E+03 0.  0.
         25    2    3    3    0    0  0.72088676340E+02 -0.96783487740E+01 -0.28876985023E+03  0.32072302577E+03  0.11909989573E+03 0.  0.
          5    1    4    4  502    0 -0.15008378282E+02  0.43153369661E+02 -0.16638810916E+02  0.48850841963E+02  0.47000000000E+01 0.  1.
         -5    1    4    4    0  502 -0.57080298058E+02 -0.33475020887E+02 -0.13641713768E+03  0.15169200013E+03  0.47000000000E+01 0.  1.
          5    1    5    5  503    0  0.21217470789E+02 -0.34712793524E+02 -0.24641756551E+03  0.24979764950E+03  0.47000000000E+01 0.  1.
         -5    1    5    5    0  503  0.50871205552E+02  0.25034444750E+02 -0.42352284717E+02  0.70925376270E+02  0.47000000000E+01 0.  1.
<mgrwt>
<rscale>  0 0.27660092E+03</rscale>
<asrwt>0</asrwt>
<pdfrwt beam="1">  1        1 0.74083973E-01 0.27660092E+03</pdfrwt>
<pdfrwt beam="2">  1       -1 0.61107746E-02 0.27660092E+03</pdfrwt>
<totfact> 0.61421663E+03</totfact>
</mgrwt>
</event>
<event>
 9    1  0.2054950E-002  0.2761274E+03  0.7818608E-02  0.1097823E+00
         -1   -1    0    0    0  501 -0.00000000000E+00  0.00000000000E+00  0.19843899176E+02  0.19843899176E+02  0.00000000000E+00 0. -1.
          1   -1    0    0  501    0  0.00000000000E+00 -0.00000000000E+00 -0.96057656278E+03  0.96057656278E+03  0.00000000000E+00 0. -1.
         36    2    1    2    0    0  0.71054273576E-14  0.44408920985E-15 -0.94073266361E+03  0.98042046196E+03  0.27612739424E+03 0.  0.
         25    2    3    3    0    0  0.53345487050E+02 -0.20745513656E+01 -0.38242434946E+03  0.40604931004E+03  0.12560897410E+03 0.  0.
         25    2    3    3    0    0 -0.53345487050E+02  0.20745513656E+01 -0.55830831415E+03  0.57437115192E+03  0.12387090763E+03 0.  0.
          5    1    4    4  502    0  0.44227408357E+02 -0.26160325888E+01 -0.30541341012E+02  0.54016393690E+02  0.47000000000E+01 0.  1.
         -5    1    4    4    0  502  0.91180786936E+01  0.54148122318E+00 -0.35188300845E+03  0.35203291635E+03  0.47000000000E+01 0.  1.
          5    1    5    5  503    0 -0.88710692718E+02  0.36538173037E+00 -0.48199227746E+03  0.49011056512E+03  0.47000000000E+01 0. -1.
         -5    1    5    5    0  503  0.35365205667E+02  0.17091696353E+01 -0.76316036688E+02  0.84260586804E+02  0.47000000000E+01 0. -1.
<mgrwt>
<rscale>  0 0.27612739E+03</rscale>
<asrwt>0</asrwt>
<pdfrwt beam="1">  1        1 0.14778102E+00 0.27612739E+03</pdfrwt>
<pdfrwt beam="2">  1       -1 0.30529073E-02 0.27612739E+03</pdfrwt>
<totfact> 0.62925273E+03</totfact>
</mgrwt>
</event>
<event>
 9    1  0.2054950E-002  0.2787809E+03  0.7818608E-02  0.1096357E+00
          2   -1    0    0  501    0  0.00000000000E+00  0.00000000000E+00  0.22645303190E+03  0.22645303190E+03  0.00000000000E+00 0. -1.
         -2   -1    0    0    0  501 -0.00000000000E+00 -0.00000000000E+00 -0.85800126720E+02  0.85800126720E+02  0.00000000000E+00 0. -1.
         36    2    1    2    0    0  0.00000000000E+00  0.00000000000E+00  0.14065290518E+03  0.31225315862E+03  0.27878090920E+03 0.  0.
         25    2    3    3    0    0  0.54405791423E+02 -0.37161041804E+02  0.69366161175E+02  0.15414805369E+03  0.12086779957E+03 0.  0.
         25    2    3    3    0    0 -0.54405791423E+02  0.37161041804E+02  0.71286744007E+02  0.15810510493E+03  0.12479780113E+03 0.  0.
          5    1    4    4  502    0 -0.16821614855E+02 -0.45172613324E+02  0.66491323099E+02  0.82260061805E+02  0.47000000000E+01 0. -1.
         -5    1    4    4    0  502  0.71227406278E+02  0.80115715204E+01  0.28748380763E+01  0.71887991885E+02  0.47000000000E+01 0. -1.
          5    1    5    5  503    0 -0.75777212122E+02  0.57289089289E+02  0.82916157658E+02  0.12618004925E+03  0.47000000000E+01 0. -1.
         -5    1    5    5    0  503  0.21371420699E+02 -0.20128047486E+02 -0.11629413650E+02  0.31925055680E+02  0.47000000000E+01 0. -1.
<mgrwt>
<rscale>  0 0.27878091E+03</rscale>
<asrwt>0</asrwt>
<pdfrwt beam="1">  1        2 0.34838928E-01 0.27878091E+03</pdfrwt>
<pdfrwt beam="2">  1       -2 0.13200020E-01 0.27878091E+03</pdfrwt>
<totfact> 0.62459263E+03</totfact>
</mgrwt>
</event>
<event>
 9    1  0.2054950E-002  0.2746954E+03  0.7818608E-02  0.1098622E+00
          2   -1    0    0  501    0  0.00000000000E+00  0.00000000000E+00  0.84492562675E+02  0.84492562675E+02  0.00000000000E+00 0. -1.
         -2   -1    0    0    0  501 -0.00000000000E+00 -0.00000000000E+00 -0.22326693751E+03  0.22326693751E+03  0.00000000000E+00 0. -1.
         36    2    1    2    0    0  0.00000000000E+00 -0.35527136788E-14 -0.13877437483E+03  0.30775950018E+03  0.27469543652E+03 0.  0.
         25    2    3    3    0    0 -0.50910194647E+02 -0.84522877055E+00 -0.48449733576E+02  0.14208066245E+03  0.12347864442E+03 0.  0.
         25    2    3    3    0    0  0.50910194647E+02  0.84522877055E+00 -0.90324641255E+02  0.16567883773E+03  0.12922218897E+03 0.  0.
          5    1    4    4  502    0 -0.33456111671E+02 -0.43011983684E+02  0.21216664864E+02  0.58664972655E+02  0.47000000000E+01 0. -1.
         -5    1    4    4    0  502 -0.17454082976E+02  0.42166754914E+02 -0.69666398441E+02  0.83415689796E+02  0.47000000000E+01 0. -1.
          5    1    5    5  503    0 -0.42214904654E+00  0.22149271601E+02  0.27317723389E+02  0.35484030964E+02  0.47000000000E+01 0. -1.
         -5    1    5    5    0  503  0.51332343694E+02 -0.21304042830E+02 -0.11764236464E+03  0.13019480677E+03  0.47000000000E+01 0. -1.
<mgrwt>
<rscale>  0 0.27469544E+03</rscale>
<asrwt>0</asrwt>
<pdfrwt beam="1">  1        2 0.12998856E-01 0.27469544E+03</pdfrwt>
<pdfrwt beam="2">  1       -2 0.34348759E-01 0.27469544E+03</pdfrwt>
<totfact> 0.36679179E+03</totfact>
</mgrwt>
</event>
<event>
 9    1  0.2054950E-002  0.2745678E+03  0.7818608E-02  0.1098693E+00
          1   -1    0    0  501    0  0.00000000000E+00  0.00000000000E+00  0.65657966795E+03  0.65657966795E+03  0.00000000000E+00 0.  1.
         -1   -1    0    0    0  501 -0.00000000000E+00 -0.00000000000E+00 -0.28704612859E+02  0.28704612859E+02  0.00000000000E+00 0.  1.
         36    2    1    2    0    0  0.00000000000E+00 -0.14210854715E-13  0.62787505510E+03  0.68528428081E+03  0.27456777072E+03 0.  0.
         25    2    3    3    0    0  0.20338784310E+02  0.38340592445E+02  0.26435115084E+03  0.29589045252E+03  0.12564219739E+03 0.  0.
         25    2    3    3    0    0 -0.20338784310E+02 -0.38340592445E+02  0.36352390425E+03  0.38939382829E+03  0.13264334651E+03 0.  0.
          5    1    4    4  502    0  0.13619883480E+02  0.57430970861E+02  0.42056199206E+02  0.72626658547E+02  0.47000000000E+01 0. -1.
         -5    1    4    4    0  502  0.67189008304E+01 -0.19090378416E+02  0.22229495164E+03  0.22326379398E+03  0.47000000000E+01 0. -1.
          5    1    5    5  503    0 -0.21370689797E+02  0.46755252694E+02  0.10178621961E+03  0.11412836869E+03  0.47000000000E+01 0. -1.
         -5    1    5    5    0  503  0.10319054870E+01 -0.85095845140E+02  0.26173768465E+03  0.27526545961E+03  0.47000000000E+01 0. -1.
<mgrwt>
<rscale>  0 0.27456777E+03</rscale>
<asrwt>0</asrwt>
<pdfrwt beam="1">  1        1 0.10101225E+00 0.27456777E+03</pdfrwt>
<pdfrwt beam="2">  1       -1 0.44160948E-02 0.27456777E+03</pdfrwt>
<totfact> 0.65419631E+03</totfact>
</mgrwt>
</event>
<event>
 9    1  0.2054950E-002  0.2738253E+03  0.7818608E-02  0.1099110E+00
         -1   -1    0    0    0  501 -0.00000000000E+00  0.00000000000E+00  0.68143670192E+02  0.68143670192E+02  0.00000000000E+00 0.  1.
          1   -1    0    0  501    0  0.00000000000E+00 -0.00000000000E+00 -0.27508172322E+03  0.27508172322E+03  0.00000000000E+00 0.  1.
         36    2    1    2    0    0  0.35527136788E-14  0.00000000000E+00 -0.20693805303E+03  0.34322539341E+03  0.27382533282E+03 0.  0.
         25    2    3    3    0    0 -0.14847955478E+02  0.81689015988E+01 -0.38138409687E+02  0.13305497651E+03  0.12634039633E+03 0.  0.
         25    2    3    3    0    0  0.14847955478E+02 -0.81689015988E+01 -0.16879964334E+03  0.21017041690E+03  0.12406083916E+03 0.  0.
          5    1    4    4  502    0 -0.98275439400E+01  0.42094810101E+02 -0.72333999095E+02  0.84396985032E+02  0.47000000000E+01 0.  1.
         -5    1    4    4    0  502 -0.50204115383E+01 -0.33925908502E+02  0.34195589409E+02  0.48657991478E+02  0.47000000000E+01 0.  1.
          5    1    5    5  503    0 -0.24176845130E+02 -0.54370494241E+02 -0.11277552608E+03  0.12759733448E+03  0.47000000000E+01 0.  1.
         -5    1    5    5    0  503  0.39024800608E+02  0.46201592643E+02 -0.56024117263E+02  0.82573082420E+02  0.47000000000E+01 0.  1.
<mgrwt>
<rscale>  0 0.27382533E+03</rscale>
<asrwt>0</asrwt>
<pdfrwt beam="1">  1        1 0.42320265E-01 0.27382533E+03</pdfrwt>
<pdfrwt beam="2">  1       -1 0.10483642E-01 0.27382533E+03</pdfrwt>
<totfact> 0.55003147E+03</totfact>
</mgrwt>
</event>
<event>
 9    1  0.2054950E-002  0.2740293E+03  0.7818608E-02  0.1098995E+00
          1   -1    0    0  501    0  0.00000000000E+00  0.00000000000E+00  0.30705719814E+03  0.30705719814E+03  0.00000000000E+00 0. -1.
         -1   -1    0    0    0  501 -0.00000000000E+00 -0.00000000000E+00 -0.61138476315E+02  0.61138476315E+02  0.00000000000E+00 0. -1.
         36    2    1    2    0    0  0.71054273576E-14 -0.35527136788E-14  0.24591872182E+03  0.36819567445E+03  0.27402926293E+03 0.  0.
         25    2    3    3    0    0 -0.37561228689E+02 -0.23147129936E+02  0.15564628975E+03  0.20237040945E+03  0.12157869708E+03 0.  0.
         25    2    3    3    0    0  0.37561228689E+02  0.23147129936E+02  0.90272432071E+02  0.16582526500E+03  0.13191766749E+03 0.  0.
          5    1    4    4  502    0  0.32869770701E+02 -0.28164707170E+02  0.10962801154E+03  0.11795788855E+03  0.47000000000E+01 0. -1.
         -5    1    4    4    0  502 -0.70430999389E+02  0.50175772342E+01  0.46018278210E+02  0.84412520906E+02  0.47000000000E+01 0. -1.
          5    1    5    5  503    0 -0.14167067599E+02  0.10688023649E+02 -0.29463686816E+02  0.34715104705E+02  0.47000000000E+01 0.  1.
         -5    1    5    5    0  503  0.51728296288E+02  0.12459106287E+02  0.11973611889E+03  0.13111016029E+03  0.47000000000E+01 0.  1.
<mgrwt>
<rscale>  0 0.27402926E+03</rscale>
<asrwt>0</asrwt>
<pdfrwt beam="1">  1        1 0.47239568E-01 0.27402926E+03</pdfrwt>
<pdfrwt beam="2">  1       -1 0.94059196E-02 0.27402926E+03</pdfrwt>
<totfact> 0.56645896E+03</totfact>
</mgrwt>
</event>
<event>
 9    1  0.2054950E-002  0.2776378E+03  0.7818608E-02  0.1096986E+00
         -2   -1    0    0    0  501 -0.00000000000E+00  0.00000000000E+00  0.86258235653E+02  0.86258235653E+02  0.00000000000E+00 0. -1.
          2   -1    0    0  501    0  0.00000000000E+00 -0.00000000000E+00 -0.22340696400E+03  0.22340696400E+03  0.00000000000E+00 0. -1.
         36    2    1    2    0    0 -0.14210854715E-13 -0.71054273576E-14 -0.13714872835E+03  0.30966519965E+03  0.27763782557E+03 0.  0.
         25    2    3    3    0    0  0.45926124846E+02 -0.40069528756E+02 -0.69641499135E+02  0.15408011732E+03  0.12319077917E+03 0.  0.
         25    2    3    3    0    0 -0.45926124846E+02  0.40069528756E+02 -0.67507229214E+02  0.15558508234E+03  0.12623278406E+03 0.  0.
          5    1    4    4  502    0  0.56013654152E+02 -0.71431523749E+02 -0.77992581464E+02  0.11977030016E+03  0.47000000000E+01 0. -1.
         -5    1    4    4    0  502 -0.10087529306E+02  0.31361994993E+02  0.83510823289E+01  0.34309817159E+02  0.47000000000E+01 0. -1.
          5    1    5    5  503    0  0.25595260042E+00  0.43533185739E+02  0.26147464770E+02  0.50999840060E+02  0.47000000000E+01 0. -1.
         -5    1    5    5    0  503 -0.46182077447E+02 -0.34636569830E+01 -0.93654693983E+02  0.10458524228E+03  0.47000000000E+01 0. -1.
<mgrwt>
<rscale>  0 0.27763783E+03</rscale>
<asrwt>0</asrwt>
<pdfrwt beam="1">  1        2 0.34370302E-01 0.27763783E+03</pdfrwt>
<pdfrwt beam="2">  1       -2 0.13270498E-01 0.27763783E+03</pdfrwt>
<totfact> 0.62827912E+03</totfact>
</mgrwt>
</event>
<event>
 9    1  0.2054950E-002  0.2744148E+03  0.7818608E-02  0.1098779E+00
         -1   -1    0    0    0  501 -0.00000000000E+00  0.00000000000E+00  0.14395865742E+02  0.14395865742E+02  0.00000000000E+00 0.  1.
          1   -1    0    0  501    0  0.00000000000E+00 -0.00000000000E+00 -0.13077273476E+04  0.13077273476E+04  0.00000000000E+00 0.  1.
         36    2    1    2    0    0 -0.71054273576E-14  0.00000000000E+00 -0.12933314819E+04  0.13221232134E+04  0.27441477601E+03 0.  0.
         25    2    3    3    0    0 -0.53930289790E+02 -0.13475715739E+02 -0.70667999874E+03  0.71963050932E+03  0.12402168458E+03 0.  0.
         25    2    3    3    0    0  0.53930289790E+02  0.13475715739E+02 -0.58665148315E+03  0.60249270406E+03  0.12548874328E+03 0.  0.
          5    1    4    4  502    0 -0.74679214025E+02  0.55553337969E+01 -0.22653732593E+03  0.23864009885E+03  0.47000000000E+01 0. -1.
         -5    1    4    4    0  502  0.20748924235E+02 -0.19031049536E+02 -0.48014267281E+03  0.48099041046E+03  0.47000000000E+01 0. -1.
          5    1    5    5  503    0 -0.27032473915E+02 -0.33388206823E+02 -0.16529311381E+03  0.17084914537E+03  0.47000000000E+01 0. -1.
         -5    1    5    5    0  503  0.80962763705E+02  0.46863922562E+02 -0.42135836934E+03  0.43164355868E+03  0.47000000000E+01 0. -1.
<mgrwt>
<rscale>  0 0.27441478E+03</rscale>
<asrwt>0</asrwt>
<pdfrwt beam="1">  1        1 0.20118892E+00 0.27441478E+03</pdfrwt>
<pdfrwt beam="2">  1       -1 0.22147475E-02 0.27441478E+03</pdfrwt>
<totfact> 0.56908600E+03</totfact>
</mgrwt>
</event>
<event>
 9    1  0.2054950E-002  0.2733133E+03  0.7818608E-02  0.1099398E+00
         -2   -1    0    0    0  501 -0.00000000000E+00  0.00000000000E+00  0.15974488195E+02  0.15974488195E+02  0.00000000000E+00 0. -1.
          2   -1    0    0  501    0  0.00000000000E+00 -0.00000000000E+00 -0.11690542166E+04  0.11690542166E+04  0.00000000000E+00 0. -1.
         36    2    1    2    0    0 -0.71054273576E-14 -0.71054273576E-14 -0.11530797284E+04  0.11850287048E+04  0.27331332044E+03 0.  0.
         25    2    3    3    0    0  0.38950084871E+02  0.38034207571E+02 -0.55761253651E+03  0.57364119843E+03  0.12316157521E+03 0.  0.
         25    2    3    3    0    0 -0.38950084871E+02 -0.38034207571E+02 -0.59546719189E+03  0.61138750636E+03  0.12747468869E+03 0.  0.
          5    1    4    4  502    0  0.35943699085E+02  0.39285497561E+02 -0.81327853605E+02  0.97322194769E+02  0.47000000000E+01 0. -1.
         -5    1    4    4    0  502  0.30063857854E+01 -0.12512899892E+01 -0.47628468290E+03  0.47631900366E+03  0.47000000000E+01 0. -1.
          5    1    5    5  503    0 -0.55754237318E+02  0.15458188550E+02 -0.47376519747E+03  0.47730812156E+03  0.47000000000E+01 0. -1.
         -5    1    5    5    0  503  0.16804152448E+02 -0.53492396121E+02 -0.12170199443E+03  0.13407938480E+03  0.47000000000E+01 0. -1.
<mgrwt>
<rscale>  0 0.27331332E+03</rscale>
<asrwt>0</asrwt>
<pdfrwt beam="1">  1        2 0.17985451E+00 0.27331332E+03</pdfrwt>
<pdfrwt beam="2">  1       -2 0.24576134E-02 0.27331332E+03</pdfrwt>
<totfact> 0.11845512E+04</totfact>
</mgrwt>
</event>
<event>
 9    1  0.2054950E-002  0.2748700E+03  0.7818608E-02  0.1098524E+00
         -3   -1    0    0    0  501 -0.00000000000E+00  0.00000000000E+00  0.16954946926E+02  0.16954946926E+02  0.00000000000E+00 0. -1.
          3   -1    0    0  501    0  0.00000000000E+00 -0.00000000000E+00 -0.11140335516E+04  0.11140335516E+04  0.00000000000E+00 0. -1.
         36    2    1    2    0    0  0.14210854715E-13  0.00000000000E+00 -0.10970786047E+04  0.11309884986E+04  0.27487000376E+03 0.  0.
         25    2    3    3    0    0 -0.33655622830E+02 -0.45746443345E+02 -0.54569734275E+03  0.56345696172E+03  0.12834609384E+03 0.  0.
         25    2    3    3    0    0  0.33655622830E+02  0.45746443345E+02 -0.55138126196E+03  0.56753153684E+03  0.12184133633E+03 0.  0.
          5    1    4    4  502    0 -0.69567386530E+02 -0.51704725291E+02 -0.48355149151E+03  0.49128111589E+03  0.47000000000E+01 0. -1.
         -5    1    4    4    0  502  0.35911763700E+02  0.59582819467E+01 -0.62145851242E+02  0.72175845838E+02  0.47000000000E+01 0. -1.
          5    1    5    5  503    0 -0.21482935821E+02 -0.25011001187E+02 -0.66204286118E+02  0.74109137171E+02  0.47000000000E+01 0.  1.
         -5    1    5    5    0  503  0.55138558651E+02  0.70757444532E+02 -0.48517697584E+03  0.49342239967E+03  0.47000000000E+01 0.  1.
<mgrwt>
<rscale>  0 0.27487000E+03</rscale>
<asrwt>0</asrwt>
<pdfrwt beam="1">  1        3 0.17138980E+00 0.27487000E+03</pdfrwt>
<pdfrwt beam="2">  1       -3 0.26084530E-02 0.27487000E+03</pdfrwt>
<totfact> 0.39088283E+02</totfact>
</mgrwt>
</event>
<event>
 9    1  0.2054950E-002  0.2755263E+03  0.7818608E-02  0.1098158E+00
         -2   -1    0    0    0  501 -0.00000000000E+00  0.00000000000E+00  0.73428036275E+02  0.73428036275E+02  0.00000000000E+00 0. -1.
          2   -1    0    0  501    0  0.00000000000E+00 -0.00000000000E+00 -0.25846641312E+03  0.25846641312E+03  0.00000000000E+00 0. -1.
         36    2    1    2    0    0  0.35527136788E-14 -0.88817841970E-15 -0.18503837684E+03  0.33189444939E+03  0.27552626850E+03 0.  0.
         25    2    3    3    0    0 -0.20814208114E+02 -0.40529532641E+01 -0.14829254161E+03  0.19864269851E+03  0.13045530300E+03 0.  0.
         25    2    3    3    0    0  0.20814208114E+02  0.40529532641E+01 -0.36745835230E+02  0.13325175089E+03  0.12631751667E+03 0.  0.
          5    1    4    4  502    0  0.55208619691E+02  0.12234881710E+01 -0.70017967609E+02  0.89297784964E+02  0.47000000000E+01 0.  1.
         -5    1    4    4    0  502 -0.76022827805E+02 -0.52764414351E+01 -0.78274574006E+02  0.10934491354E+03  0.47000000000E+01 0.  1.
          5    1    5    5  503    0 -0.31309977057E+02 -0.17261272523E+02  0.29204099331E+02  0.46402969842E+02  0.47000000000E+01 0.  1.
         -5    1    5    5    0  503  0.52124185171E+02  0.21314225787E+02 -0.65949934560E+02  0.86848781046E+02  0.47000000000E+01 0.  1.
<mgrwt>
<rscale>  0 0.27552627E+03</rscale>
<asrwt>0</asrwt>
<pdfrwt beam="1">  1        2 0.39764063E-01 0.27552627E+03</pdfrwt>
<pdfrwt beam="2">  1       -2 0.11296621E-01 0.27552627E+03</pdfrwt>
<totfact> 0.69605580E+03</totfact>
</mgrwt>
</event>
<event>
 9    1  0.2054950E-002  0.2748162E+03  0.7818608E-02  0.1098554E+00
          2   -1    0    0  501    0  0.00000000000E+00  0.00000000000E+00  0.20432221523E+04  0.20432221523E+04  0.00000000000E+00 0. -1.
         -2   -1    0    0    0  501 -0.00000000000E+00 -0.00000000000E+00 -0.92407910238E+01  0.92407910238E+01  0.00000000000E+00 0. -1.
         36    2    1    2    0    0  0.00000000000E+00 -0.71054273576E-14  0.20339813613E+04  0.20524629433E+04  0.27481622168E+03 0.  0.
         25    2    3    3    0    0  0.50906710361E+02  0.28236387768E+02  0.99063450403E+03  0.99995244260E+03  0.12312343455E+03 0.  0.
         25    2    3    3    0    0 -0.50906710361E+02 -0.28236387768E+02  0.10433468573E+04  0.10525105007E+04  0.12576526887E+03 0.  0.
          5    1    4    4  502    0 -0.21043083875E+02  0.43381751023E+02  0.19554018608E+03  0.20145183561E+03  0.47000000000E+01 0.  1.
         -5    1    4    4    0  502  0.71949794237E+02 -0.15145363254E+02  0.79509431795E+03  0.79850060699E+03  0.47000000000E+01 0.  1.
          5    1    5    5  503    0 -0.56414665637E+02  0.22267874112E+02  0.86140549432E+03  0.86355080242E+03  0.47000000000E+01 0. -1.
         -5    1    5    5    0  503  0.55079552753E+01 -0.50504261881E+02  0.18194136295E+03  0.18895969833E+03  0.47000000000E+01 0. -1.
<mgrwt>
<rscale>  0 0.27481622E+03</rscale>
<asrwt>0</asrwt>
<pdfrwt beam="1">  1        2 0.31434151E+00 0.27481622E+03</pdfrwt>
<pdfrwt beam="2">  1       -2 0.14216618E-02 0.27481622E+03</pdfrwt>
<totfact> 0.89967598E+03</totfact>
</mgrwt>
</event>
<event>
 9    1  0.2054950E-002  0.2830807E+03  0.7818608E-02  0.1094018E+00
          2   -1    0    0  501    0  0.00000000000E+00  0.00000000000E+00  0.35637567902E+02  0.35637567902E+02  0.00000000000E+00 0. -1.
         -2   -1    0    0    0  501 -0.00000000000E+00 -0.00000000000E+00 -0.56215048695E+03  0.56215048695E+03  0.00000000000E+00 0. -1.
         36    2    1    2    0    0  0.71054273576E-14 -0.35527136788E-14 -0.52651291904E+03  0.59778805485E+03  0.28308073866E+03 0.  0.
         25    2    3    3    0    0  0.59746216779E+02 -0.78193987198E+01 -0.18870012998E+03  0.23313227502E+03  0.12293154673E+03 0.  0.
         25    2    3    3    0    0 -0.59746216779E+02  0.78193987198E+01 -0.33781278906E+03  0.36465577983E+03  0.12339207388E+03 0.  0.
          5    1    4    4  502    0  0.56548929469E+02 -0.37149645940E+02 -0.19147074206E+03  0.20312806965E+03  0.47000000000E+01 0. -1.
         -5    1    4    4    0  502  0.31972873102E+01  0.29330247220E+02  0.27706120733E+01  0.30004205362E+02  0.47000000000E+01 0. -1.
          5    1    5    5  503    0 -0.35781236416E+02 -0.56446084011E+02 -0.13926310561E+03  0.15454047970E+03  0.47000000000E+01 0.  1.
         -5    1    5    5    0  503 -0.23964980363E+02  0.64265482730E+02 -0.19854968345E+03  0.21011530014E+03  0.47000000000E+01 0.  1.
<mgrwt>
<rscale>  0 0.28308074E+03</rscale>
<asrwt>0</asrwt>
<pdfrwt beam="1">  1        2 0.54827028E-02 0.28308074E+03</pdfrwt>
<pdfrwt beam="2">  1       -2 0.86484689E-01 0.28308074E+03</pdfrwt>
<totfact> 0.16641469E+03</totfact>
</mgrwt>
</event>
<event>
 9    1  0.2054950E-002  0.2747738E+03  0.7818608E-02  0.1098578E+00
         -1   -1    0    0    0  501 -0.00000000000E+00  0.00000000000E+00  0.22302702864E+02  0.22302702864E+02  0.00000000000E+00 0. -1.
          1   -1    0    0  501    0  0.00000000000E+00 -0.00000000000E+00 -0.84631701176E+03  0.84631701176E+03  0.00000000000E+00 0. -1.
         36    2    1    2    0    0  0.00000000000E+00 -0.35527136788E-14 -0.82401430889E+03  0.86861971462E+03  0.27477377489E+03 0.  0.
         25    2    3    3    0    0 -0.49437472693E+02  0.15280946412E+02 -0.32516843521E+03  0.35157050613E+03  0.12324665712E+03 0.  0.
         25    2    3    3    0    0  0.49437472693E+02 -0.15280946412E+02 -0.49884587368E+03  0.51704920849E+03  0.12575813009E+03 0.  0.
          5    1    4    4  502    0 -0.23189845557E+02 -0.24481164849E+02 -0.29043226275E+03  0.29242107587E+03  0.47000000000E+01 0. -1.
         -5    1    4    4    0  502 -0.26247627136E+02  0.39762111260E+02 -0.34736172463E+02  0.59149430255E+02  0.47000000000E+01 0. -1.
          5    1    5    5  503    0  0.50174048195E+02 -0.51404587259E+02 -0.15079104504E+03  0.16709247729E+03  0.47000000000E+01 0. -1.
         -5    1    5    5    0  503 -0.73657550202E+00  0.36123640848E+02 -0.34805482865E+03  0.34995673120E+03  0.47000000000E+01 0. -1.
<mgrwt>
<rscale>  0 0.27477377E+03</rscale>
<asrwt>0</asrwt>
<pdfrwt beam="1">  1        1 0.13020263E+00 0.27477377E+03</pdfrwt>
<pdfrwt beam="2">  1       -1 0.34311847E-02 0.27477377E+03</pdfrwt>
<totfact> 0.65081557E+03</totfact>
</mgrwt>
</event>
<event>
 9    1  0.2054950E-002  0.2753491E+03  0.7818608E-02  0.1098257E+00
          2   -1    0    0  501    0  0.00000000000E+00  0.00000000000E+00  0.12423196796E+04  0.12423196796E+04  0.00000000000E+00 0.  1.
         -2   -1    0    0    0  501 -0.00000000000E+00 -0.00000000000E+00 -0.15257165264E+02  0.15257165264E+02  0.00000000000E+00 0.  1.
         36    2    1    2    0    0  0.00000000000E+00  0.71054273576E-14  0.12270625144E+04  0.12575768449E+04  0.27534906328E+03 0.  0.
         25    2    3    3    0    0  0.24854600229E+02 -0.19642415297E+02  0.44793810456E+03  0.46782903273E+03  0.13119406512E+03 0.  0.
         25    2    3    3    0    0 -0.24854600229E+02  0.19642415297E+02  0.77912440982E+03  0.78974781217E+03  0.12515264768E+03 0.  0.
          5    1    4    4  502    0  0.59359081214E+02 -0.39812580642E+02  0.39440668490E+03  0.40085816094E+03  0.47000000000E+01 0. -1.
         -5    1    4    4    0  502 -0.34504480985E+02  0.20170165345E+02  0.53531419661E+02  0.66970871795E+02  0.47000000000E+01 0. -1.
          5    1    5    5  503    0 -0.56233055507E+02 -0.27766389245E+02  0.25998500649E+03  0.26748349949E+03  0.47000000000E+01 0. -1.
         -5    1    5    5    0  503  0.31378455278E+02  0.47408804542E+02  0.51913940334E+03  0.52226431268E+03  0.47000000000E+01 0. -1.
<mgrwt>
<rscale>  0 0.27534906E+03</rscale>
<asrwt>0</asrwt>
<pdfrwt beam="1">  1        2 0.19112602E+00 0.27534906E+03</pdfrwt>
<pdfrwt beam="2">  1       -2 0.23472572E-02 0.27534906E+03</pdfrwt>
<totfact> 0.11523050E+04</totfact>
</mgrwt>
</event>
<event>
 9    1  0.2054950E-002  0.2747831E+03  0.7818608E-02  0.1098573E+00
          1   -1    0    0  501    0  0.00000000000E+00  0.00000000000E+00  0.22742419110E+02  0.22742419110E+02  0.00000000000E+00 0.  1.
         -1   -1    0    0    0  501 -0.00000000000E+00 -0.00000000000E+00 -0.83000986202E+03  0.83000986202E+03  0.00000000000E+00 0.  1.
         36    2    1    2    0    0  0.00000000000E+00  0.00000000000E+00 -0.80726744291E+03  0.85275228113E+03  0.27478305732E+03 0.  0.
         25    2    3    3    0    0 -0.32808212017E+02 -0.19739831210E+02 -0.24060121335E+03  0.27196873547E+03  0.12088014515E+03 0.  0.
         25    2    3    3    0    0  0.32808212017E+02  0.19739831210E+02 -0.56666622956E+03  0.58078354566E+03  0.12137904053E+03 0.  0.
          5    1    4    4  502    0 -0.47600660854E+02  0.41425202260E+02 -0.10942180215E+03  0.12640051852E+03  0.47000000000E+01 0.  1.
         -5    1    4    4    0  502  0.14792448837E+02 -0.61165033470E+02 -0.13117941120E+03  0.14556821694E+03  0.47000000000E+01 0.  1.
          5    1    5    5  503    0  0.34867630637E+02  0.39368023008E+02 -0.95039787595E+02  0.10872094613E+03  0.47000000000E+01 0.  1.
         -5    1    5    5    0  503 -0.20594186203E+01 -0.19628191798E+02 -0.47162644196E+03  0.47206259953E+03  0.47000000000E+01 0.  1.
<mgrwt>
<rscale>  0 0.27478306E+03</rscale>
<asrwt>0</asrwt>
<pdfrwt beam="1">  1        1 0.34988343E-02 0.27478306E+03</pdfrwt>
<pdfrwt beam="2">  1       -1 0.12769380E+00 0.27478306E+03</pdfrwt>
<totfact> 0.15603652E+03</totfact>
</mgrwt>
</event>
<event>
 9    1  0.2054950E-002  0.2782894E+03  0.7818608E-02  0.1096627E+00
         -1   -1    0    0    0  501 -0.00000000000E+00  0.00000000000E+00  0.14651172343E+02  0.14651172343E+02  0.00000000000E+00 0.  1.
          1   -1    0    0  501    0  0.00000000000E+00 -0.00000000000E+00 -0.13214812576E+04  0.13214812576E+04  0.00000000000E+00 0.  1.
         36    2    1    2    0    0  0.71054273576E-14  0.00000000000E+00 -0.13068300852E+04  0.13361324299E+04  0.27828941520E+03 0.  0.
         25    2    3    3    0    0  0.46766721444E+02  0.15432716149E+02 -0.81526403443E+03  0.82614642771E+03  0.12424644549E+03 0.  0.
         25    2    3    3    0    0 -0.46766721444E+02 -0.15432716149E+02 -0.49156605081E+03  0.50998600221E+03  0.12658295773E+03 0.  0.
          5    1    4    4  502    0  0.88336419855E+02  0.22346910829E+02 -0.55232867703E+03  0.55981404499E+03  0.47000000000E+01 0.  1.
         -5    1    4    4    0  502 -0.41569698411E+02 -0.69141946796E+01 -0.26293535740E+03  0.26633238272E+03  0.47000000000E+01 0.  1.
          5    1    5    5  503    0 -0.58361432629E+02 -0.13017638811E+02 -0.49347056139E+03  0.49710240464E+03  0.47000000000E+01 0. -1.
         -5    1    5    5    0  503  0.11594711185E+02 -0.24150773379E+01  0.19045105812E+01  0.12883597579E+02  0.47000000000E+01 0. -1.
<mgrwt>
<rscale>  0 0.27828942E+03</rscale>
<asrwt>0</asrwt>
<pdfrwt beam="1">  1        1 0.20330479E+00 0.27828942E+03</pdfrwt>
<pdfrwt beam="2">  1       -1 0.22540268E-02 0.27828942E+03</pdfrwt>
<totfact> 0.54285725E+03</totfact>
</mgrwt>
</event>
<event>
 9    1  0.2054950E-002  0.2748004E+03  0.7818608E-02  0.1098563E+00
         -2   -1    0    0    0  501 -0.00000000000E+00  0.00000000000E+00  0.69368854616E+01  0.69368854616E+01  0.00000000000E+00 0. -1.
          2   -1    0    0  501    0  0.00000000000E+00 -0.00000000000E+00 -0.27215107321E+04  0.27215107321E+04  0.00000000000E+00 0. -1.
         36    2    1    2    0    0  0.00000000000E+00  0.71054273576E-14 -0.27145738466E+04  0.27284476175E+04  0.27480035103E+03 0.  0.
         25    2    3    3    0    0  0.40900371094E+02 -0.14228147528E+02 -0.17337120727E+04  0.17387883110E+04  0.12550680799E+03 0.  0.
         25    2    3    3    0    0 -0.40900371094E+02  0.14228147528E+02 -0.98086177390E+03  0.98965930654E+03  0.12434002969E+03 0.  0.
          5    1    4    4  502    0 -0.16166939148E+02 -0.51936283030E+02 -0.11052094819E+04  0.11065571998E+04  0.47000000000E+01 0.  1.
         -5    1    4    4    0  502  0.57067310242E+02  0.37708135501E+02 -0.62850259077E+03  0.63223111121E+03  0.47000000000E+01 0.  1.
          5    1    5    5  503    0  0.24032141467E+02 -0.19369256060E+02 -0.65152040356E+03  0.65226807232E+03  0.47000000000E+01 0. -1.
         -5    1    5    5    0  503 -0.64932512561E+02  0.33597403589E+02 -0.32934137033E+03  0.33739123422E+03  0.47000000000E+01 0. -1.
<mgrwt>
<rscale>  0 0.27480035E+03</rscale>
<asrwt>0</asrwt>
<pdfrwt beam="1">  1        2 0.41869428E+00 0.27480035E+03</pdfrwt>
<pdfrwt beam="2">  1       -2 0.10672123E-02 0.27480035E+03</pdfrwt>
<totfact> 0.58566685E+03</totfact>
</mgrwt>
</event>
<event>
 9    1  0.2054950E-002  0.2746416E+03  0.7818608E-02  0.1098652E+00
         -1   -1    0    0    0  501 -0.00000000000E+00  0.00000000000E+00  0.27231655564E+02  0.27231655564E+02  0.00000000000E+00 0.  1.
          1   -1    0    0  501    0  0.00000000000E+00 -0.00000000000E+00 -0.69246604300E+03  0.69246604300E+03  0.00000000000E+00 0.  1.
         36    2    1    2    0    0  0.14210854715E-13  0.00000000000E+00 -0.66523438743E+03  0.71969769856E+03  0.27464156112E+03 0.  0.
         25    2    3    3    0    0 -0.65562941274E+02 -0.13076905626E+02 -0.35588870138E+03  0.38260687541E+03  0.12353844993E+03 0.  0.
         25    2    3    3    0    0  0.65562941274E+02  0.13076905626E+02 -0.30934568605E+03  0.33709082315E+03  0.11604294397E+03 0.  0.
          5    1    4    4  502    0  0.38778935898E+01 -0.19141917281E+02 -0.27496490452E+03  0.27569773263E+03  0.47000000000E+01 0. -1.
         -5    1    4    4    0  502 -0.69440834863E+02  0.60650116542E+01 -0.80923796856E+02  0.10690914278E+03  0.47000000000E+01 0. -1.
          5    1    5    5  503    0  0.42956589627E+02 -0.73403717167E+00 -0.22014902883E+02  0.48503127238E+02  0.47000000000E+01 0.  1.
         -5    1    5    5    0  503  0.22606351647E+02  0.13810942798E+02 -0.28733078317E+03  0.28858769592E+03  0.47000000000E+01 0.  1.
<mgrwt>
<rscale>  0 0.27464156E+03</rscale>
<asrwt>0</asrwt>
<pdfrwt beam="1">  1        1 0.10653324E+00 0.27464156E+03</pdfrwt>
<pdfrwt beam="2">  1       -1 0.41894853E-02 0.27464156E+03</pdfrwt>
<totfact> 0.65541178E+03</totfact>
</mgrwt>
</event>
<event>
 9    1  0.2054950E-002  0.2747167E+03  0.7818608E-02  0.1098610E+00
          2   -1    0    0  501    0  0.00000000000E+00  0.00000000000E+00  0.26537558400E+04  0.26537558400E+04  0.00000000000E+00 0. -1.
         -2   -1    0    0    0  501 -0.00000000000E+00 -0.00000000000E+00 -0.71096655307E+01  0.71096655307E+01  0.00000000000E+00 0. -1.
         36    2    1    2    0    0  0.00000000000E+00  0.00000000000E+00  0.26466461745E+04  0.26608655056E+04  0.27471670079E+03 0.  0.
         25    2    3    3    0    0  0.23171502888E+02 -0.57034937362E+02  0.15190084840E+04  0.15243429233E+04  0.11155568479E+03 0.  0.
         25    2    3    3    0    0 -0.23171502888E+02  0.57034937362E+02  0.11276376905E+04  0.11365225823E+04  0.12777682210E+03 0.  0.
          5    1    4    4  502    0  0.21050658348E+02 -0.12024773900E+02  0.13204745395E+04  0.13207054270E+04  0.47000000000E+01 0.  1.
         -5    1    4    4    0  502  0.21208445398E+01 -0.45010163462E+02  0.19853394442E+03  0.20363749626E+03  0.47000000000E+01 0.  1.
          5    1    5    5  503    0 -0.28715417996E+02  0.80247979749E+02  0.42624214017E+03  0.43470537787E+03  0.47000000000E+01 0. -1.
         -5    1    5    5    0  503  0.55439151083E+01 -0.23213042387E+02  0.70139555037E+03  0.70181720442E+03  0.47000000000E+01 0. -1.
<mgrwt>
<rscale>  0 0.27471670E+03</rscale>
<asrwt>0</asrwt>
<pdfrwt beam="1">  1        2 0.40826934E+00 0.27471670E+03</pdfrwt>
<pdfrwt beam="2">  1       -2 0.10937968E-02 0.27471670E+03</pdfrwt>
<totfact> 0.61689139E+03</totfact>
</mgrwt>
</event>
<event>
 9    1  0.2054950E-002  0.2755110E+03  0.7818608E-02  0.1098166E+00
         -3   -1    0    0    0  501 -0.00000000000E+00  0.00000000000E+00  0.67012926133E+03  0.67012926133E+03  0.00000000000E+00 0. -1.
          3   -1    0    0  501    0  0.00000000000E+00 -0.00000000000E+00 -0.28317793536E+02  0.28317793536E+02  0.00000000000E+00 0. -1.
         36    2    1    2    0    0  0.71054273576E-14 -0.71054273576E-14  0.64181146779E+03  0.69844705487E+03  0.27551103110E+03 0.  0.
         25    2    3    3    0    0 -0.17806741079E+02 -0.41143354652E+02  0.39104147435E+03  0.41384779293E+03  0.12785423491E+03 0.  0.
         25    2    3    3    0    0  0.17806741079E+02  0.41143354652E+02  0.25076999344E+03  0.28459926194E+03  0.12689087685E+03 0.  0.
          5    1    4    4  502    0  0.18644085897E+02  0.15942001452E+02  0.29597434292E+03  0.29702634735E+03  0.47000000000E+01 0. -1.
         -5    1    4    4    0  502 -0.36450826976E+02 -0.57085356104E+02  0.95067131429E+02  0.11682144558E+03  0.47000000000E+01 0. -1.
          5    1    5    5  503    0 -0.16713759456E+02  0.75729010920E+02  0.19712086316E+03  0.21187958265E+03  0.47000000000E+01 0.  1.
         -5    1    5    5    0  503  0.34520500535E+02 -0.34585656267E+02  0.53649130281E+02  0.72719679294E+02  0.47000000000E+01 0.  1.
<mgrwt>
<rscale>  0 0.27551103E+03</rscale>
<asrwt>0</asrwt>
<pdfrwt beam="1">  1        3 0.43565841E-02 0.27551103E+03</pdfrwt>
<pdfrwt beam="2">  1       -3 0.10309680E+00 0.27551103E+03</pdfrwt>
<totfact> 0.60743850E+02</totfact>
</mgrwt>
</event>
<event>
 9    1  0.2054950E-002  0.2751963E+03  0.7818608E-02  0.1098342E+00
         -4   -1    0    0    0  501 -0.00000000000E+00  0.00000000000E+00  0.12631459716E+03  0.12631459716E+03  0.00000000000E+00 0. -1.
          4   -1    0    0  501    0  0.00000000000E+00 -0.00000000000E+00 -0.14988969303E+03  0.14988969303E+03  0.00000000000E+00 0. -1.
         36    2    1    2    0    0 -0.14210854715E-13  0.00000000000E+00 -0.23575095870E+02  0.27620429018E+03  0.27519633858E+03 0.  0.
         25    2    3    3    0    0  0.58318252768E+02  0.10050646828E+02  0.23145225040E+01  0.13957119540E+03  0.12638325626E+03 0.  0.
         25    2    3    3    0    0 -0.58318252768E+02 -0.10050646828E+02 -0.25889618374E+02  0.13663309479E+03  0.12040056538E+03 0.  0.
          5    1    4    4  502    0  0.78707177571E+02 -0.21987714061E+02  0.35212233528E+02  0.89108196934E+02  0.47000000000E+01 0. -1.
         -5    1    4    4    0  502 -0.20388924803E+02  0.32038360889E+02 -0.32897711024E+02  0.50462998461E+02  0.47000000000E+01 0. -1.
          5    1    5    5  503    0 -0.88318512864E+02  0.20802178237E+02 -0.16709360290E+02  0.92380642211E+02  0.47000000000E+01 0.  1.
         -5    1    5    5    0  503  0.30000260097E+02 -0.30852825066E+02 -0.91802580840E+01  0.44252452575E+02  0.47000000000E+01 0.  1.
<mgrwt>
<rscale>  0 0.27519634E+03</rscale>
<asrwt>0</asrwt>
<pdfrwt beam="1">  1        4 0.23059953E-01 0.27519634E+03</pdfrwt>
<pdfrwt beam="2">  1       -4 0.19433015E-01 0.27519634E+03</pdfrwt>
<totfact> 0.77550644E+02</totfact>
</mgrwt>
</event>
<event>
 9    1  0.2054950E-002  0.2764706E+03  0.7818608E-02  0.1097632E+00
         -1   -1    0    0    0  501 -0.00000000000E+00  0.00000000000E+00  0.24475836162E+02  0.24475836162E+02  0.00000000000E+00 0.  1.
          1   -1    0    0  501    0  0.00000000000E+00 -0.00000000000E+00 -0.78072927849E+03  0.78072927849E+03  0.00000000000E+00 0.  1.
         36    2    1    2    0    0 -0.35527136788E-14  0.00000000000E+00 -0.75625344233E+03  0.80520511465E+03  0.27647062706E+03 0.  0.
         25    2    3    3    0    0 -0.31891875296E+02  0.12777035231E+02 -0.25659758001E+03  0.28737452148E+03  0.12474555379E+03 0.  0.
         25    2    3    3    0    0  0.31891875296E+02 -0.12777035231E+02 -0.49965586232E+03  0.51783059317E+03  0.13157582656E+03 0.  0.
          5    1    4    4  502    0  0.18885045270E+02 -0.46650110719E+02 -0.11365376320E+03  0.12438707994E+03  0.47000000000E+01 0.  1.
         -5    1    4    4    0  502 -0.50776920566E+02  0.59427145950E+02 -0.14294381680E+03  0.16298744154E+03  0.47000000000E+01 0.  1.
          5    1    5    5  503    0  0.35800491253E+02  0.53238775260E+02 -0.31832429957E+03  0.32475912930E+03  0.47000000000E+01 0.  1.
         -5    1    5    5    0  503 -0.39086159565E+01 -0.66015810491E+02 -0.18133156275E+03  0.19307146388E+03  0.47000000000E+01 0.  1.
<mgrwt>
<rscale>  0 0.27647063E+03</rscale>
<asrwt>0</asrwt>
<pdfrwt beam="1">  1        1 0.12011220E+00 0.27647063E+03</pdfrwt>
<pdfrwt beam="2">  1       -1 0.37655133E-02 0.27647063E+03</pdfrwt>
<totfact> 0.64268968E+03</totfact>
</mgrwt>
</event>
<event>
 9    1  0.2054950E-002  0.2752599E+03  0.7818608E-02  0.1098306E+00
          4   -1    0    0  501    0  0.00000000000E+00  0.00000000000E+00  0.11131299325E+02  0.11131299325E+02  0.00000000000E+00 0.  1.
         -4   -1    0    0    0  501 -0.00000000000E+00 -0.00000000000E+00 -0.17016884721E+04  0.17016884721E+04  0.00000000000E+00 0.  1.
         36    2    1    2    0    0 -0.71054273576E-14  0.00000000000E+00 -0.16905571727E+04  0.17128197714E+04  0.27525990439E+03 0.  0.
         25    2    3    3    0    0  0.41971952092E+02 -0.17206294355E+02 -0.64116911957E+03  0.65535751650E+03  0.12781992495E+03 0.  0.
         25    2    3    3    0    0 -0.41971952092E+02  0.17206294355E+02 -0.10493880532E+04  0.10574622549E+04  0.12228423061E+03 0.  0.
          5    1    4    4  502    0  0.77653586777E+02  0.18880219589E+01 -0.55027565181E+03  0.55575086787E+03  0.47000000000E+01 0.  1.
         -5    1    4    4    0  502 -0.35681634686E+02 -0.19094316314E+02 -0.90893467768E+02  0.99606648635E+02  0.47000000000E+01 0.  1.
          5    1    5    5  503    0 -0.35065312953E+02  0.48751536708E+02 -0.96659713236E+03  0.96847219618E+03  0.47000000000E+01 0.  1.
         -5    1    5    5    0  503 -0.69066391387E+01 -0.31545242352E+02 -0.82790920809E+02  0.88990058701E+02  0.47000000000E+01 0.  1.
<mgrwt>
<rscale>  0 0.27525990E+03</rscale>
<asrwt>0</asrwt>
<pdfrwt beam="1">  1        4 0.17125090E-02 0.27525990E+03</pdfrwt>
<pdfrwt beam="2">  1       -4 0.26179802E+00 0.27525990E+03</pdfrwt>
<totfact> 0.14709662E+02</totfact>
</mgrwt>
</event>
<event>
 9    1  0.2054950E-002  0.2751312E+03  0.7818608E-02  0.1098378E+00
         -2   -1    0    0    0  501 -0.00000000000E+00  0.00000000000E+00  0.68712861573E+01  0.68712861573E+01  0.00000000000E+00 0.  1.
          2   -1    0    0  501    0  0.00000000000E+00 -0.00000000000E+00 -0.27541130277E+04  0.27541130277E+04  0.00000000000E+00 0.  1.
         36    2    1    2    0    0  0.00000000000E+00  0.00000000000E+00 -0.27472417416E+04  0.27609843139E+04  0.27513123213E+03 0.  0.
         25    2    3    3    0    0 -0.29086957316E+02  0.29497482141E+02 -0.13739711306E+04  0.13812433531E+04  0.13535279850E+03 0.  0.
         25    2    3    3    0    0  0.29086957316E+02 -0.29497482141E+02 -0.13732706109E+04  0.13797409608E+04  0.12687314741E+03 0.  0.
          5    1    4    4  502    0  0.63847098292E+01  0.47906793158E+02 -0.17541488984E+03  0.18201180986E+03  0.47000000000E+01 0.  1.
         -5    1    4    4    0  502 -0.35471667146E+02 -0.18409311017E+02 -0.11985562408E+04  0.11992315432E+04  0.47000000000E+01 0.  1.
          5    1    5    5  503    0 -0.42379108927E+02 -0.93049851387E+00 -0.82178325752E+03  0.82288921918E+03  0.47000000000E+01 0. -1.
         -5    1    5    5    0  503  0.71466066243E+02 -0.28566983627E+02 -0.55148735340E+03  0.55685174162E+03  0.47000000000E+01 0. -1.
<mgrwt>
<rscale>  0 0.27513123E+03</rscale>
<asrwt>0</asrwt>
<pdfrwt beam="1">  1        2 0.42370964E+00 0.27513123E+03</pdfrwt>
<pdfrwt beam="2">  1       -2 0.10571211E-02 0.27513123E+03</pdfrwt>
<totfact> 0.56908066E+03</totfact>
</mgrwt>
</event>
<event>
 9    1  0.2054950E-002  0.2748077E+03  0.7818608E-02  0.1098559E+00
         -1   -1    0    0    0  501 -0.00000000000E+00  0.00000000000E+00  0.30600207865E+02  0.30600207865E+02  0.00000000000E+00 0.  1.
          1   -1    0    0  501    0  0.00000000000E+00 -0.00000000000E+00 -0.61698311652E+03  0.61698311652E+03  0.00000000000E+00 0.  1.
         36    2    1    2    0    0  0.00000000000E+00  0.00000000000E+00 -0.58638290865E+03  0.64758332438E+03  0.27480765357E+03 0.  0.
         25    2    3    3    0    0 -0.23687689988E+02 -0.19347337993E+02 -0.31065975387E+03  0.34348323610E+03  0.14330326117E+03 0.  0.
         25    2    3    3    0    0  0.23687689988E+02  0.19347337993E+02 -0.27572315478E+03  0.30410008828E+03  0.12457198507E+03 0.  0.
          5    1    4    4  502    0 -0.46257509030E+01 -0.85608625397E+01 -0.31929342601E+03  0.31947623985E+03  0.47000000000E+01 0.  1.
         -5    1    4    4    0  502 -0.19061939085E+02 -0.10786475454E+02  0.86336721355E+01  0.24006996250E+02  0.47000000000E+01 0.  1.
          5    1    5    5  503    0  0.92605909875E+01 -0.98888473011E+01  0.93573016511E+01  0.17122994498E+02  0.47000000000E+01 0. -1.
         -5    1    5    5    0  503  0.14427099001E+02  0.29236185294E+02 -0.28508045643E+03  0.28697709378E+03  0.47000000000E+01 0. -1.
<mgrwt>
<rscale>  0 0.27480765E+03</rscale>
<asrwt>0</asrwt>
<pdfrwt beam="1">  1        1 0.94920473E-01 0.27480765E+03</pdfrwt>
<pdfrwt beam="2">  1       -1 0.47077246E-02 0.27480765E+03</pdfrwt>
<totfact> 0.64927114E+03</totfact>
</mgrwt>
</event>
<event>
 9    1  0.2054950E-002  0.2740564E+03  0.7818608E-02  0.1098980E+00
         -2   -1    0    0    0  501 -0.00000000000E+00  0.00000000000E+00  0.15559333012E+02  0.15559333012E+02  0.00000000000E+00 0. -1.
          2   -1    0    0  501    0  0.00000000000E+00 -0.00000000000E+00 -0.12067820860E+04  0.12067820860E+04  0.00000000000E+00 0. -1.
         36    2    1    2    0    0  0.17763568394E-14  0.00000000000E+00 -0.11912227530E+04  0.12223414190E+04  0.27405637631E+03 0.  0.
         25    2    3    3    0    0 -0.11294043660E+02  0.23537579686E+02 -0.80405579297E+03  0.81407975416E+03  0.12465373975E+03 0.  0.
         25    2    3    3    0    0  0.11294043660E+02 -0.23537579686E+02 -0.38716696003E+03  0.40826166487E+03  0.12687694426E+03 0.  0.
          5    1    4    4  502    0 -0.28927001863E+01 -0.47799829519E+02 -0.46401912689E+03  0.46650726847E+03  0.47000000000E+01 0. -1.
         -5    1    4    4    0  502 -0.84013434738E+01  0.71337409205E+02 -0.34003666609E+03  0.34757248569E+03  0.47000000000E+01 0. -1.
          5    1    5    5  503    0  0.55896743999E+02 -0.33884594390E+02 -0.32124334441E+03  0.32785970789E+03  0.47000000000E+01 0.  1.
         -5    1    5    5    0  503 -0.44602700339E+02  0.10347014704E+02 -0.65923615617E+02  0.80401956984E+02  0.47000000000E+01 0.  1.
<mgrwt>
<rscale>  0 0.27405638E+03</rscale>
<asrwt>0</asrwt>
<pdfrwt beam="1">  1        2 0.18565879E+00 0.27405638E+03</pdfrwt>
<pdfrwt beam="2">  1       -2 0.23937434E-02 0.27405638E+03</pdfrwt>
<totfact> 0.11721461E+04</totfact>
</mgrwt>
</event>
<event>
 9    1  0.2054950E-002  0.2756557E+03  0.7818608E-02  0.1098086E+00
          2   -1    0    0  501    0  0.00000000000E+00  0.00000000000E+00  0.39315294645E+03  0.39315294645E+03  0.00000000000E+00 0. -1.
         -2   -1    0    0    0  501 -0.00000000000E+00 -0.00000000000E+00 -0.48318404283E+02  0.48318404283E+02  0.00000000000E+00 0. -1.
         36    2    1    2    0    0  0.00000000000E+00  0.14210854715E-13  0.34483454216E+03  0.44147135073E+03  0.27565574916E+03 0.  0.
         25    2    3    3    0    0  0.35108746492E+02  0.41764668616E+02  0.14958893291E+03  0.20438530935E+03  0.12813896443E+03 0.  0.
         25    2    3    3    0    0 -0.35108746492E+02 -0.41764668616E+02  0.19524560926E+03  0.23708604138E+03  0.12293100284E+03 0.  0.
          5    1    4    4  502    0  0.22993155596E+02  0.87058097097E+02  0.11393091496E+03  0.14529329254E+03  0.47000000000E+01 0.  1.
         -5    1    4    4    0  502  0.12115590896E+02 -0.45293428481E+02  0.35658017953E+02  0.59092016810E+02  0.47000000000E+01 0.  1.
          5    1    5    5  503    0 -0.13133552881E+02 -0.77968369581E+02  0.73334299155E+02  0.10794242122E+03  0.47000000000E+01 0. -1.
         -5    1    5    5    0  503 -0.21975193611E+02  0.36203700964E+02  0.12191131010E+03  0.12914362016E+03  0.47000000000E+01 0. -1.
<mgrwt>
<rscale>  0 0.27565575E+03</rscale>
<asrwt>0</asrwt>
<pdfrwt beam="1">  1        2 0.60485067E-01 0.27565575E+03</pdfrwt>
<pdfrwt beam="2">  1       -2 0.74336009E-02 0.27565575E+03</pdfrwt>
<totfact> 0.85752756E+03</totfact>
</mgrwt>
</event>
<event>
 9    1  0.2054950E-002  0.2751525E+03  0.7818608E-02  0.1098366E+00
          1   -1    0    0  501    0  0.00000000000E+00  0.00000000000E+00  0.58607842230E+02  0.58607842230E+02  0.00000000000E+00 0. -1.
         -1   -1    0    0    0  501 -0.00000000000E+00 -0.00000000000E+00 -0.32294699650E+03  0.32294699650E+03  0.00000000000E+00 0. -1.
         36    2    1    2    0    0 -0.71054273576E-14 -0.17763568394E-14 -0.26433915427E+03  0.38155483873E+03  0.27515251494E+03 0.  0.
         25    2    3    3    0    0  0.28393515165E+01 -0.49972492559E+01 -0.42596405022E+02  0.12682923481E+03  0.11932378918E+03 0.  0.
         25    2    3    3    0    0 -0.28393515165E+01  0.49972492559E+01 -0.22174274924E+03  0.25472560392E+03  0.12522879873E+03 0.  0.
          5    1    4    4  502    0 -0.36055220167E+02 -0.26111471736E+02 -0.63473534914E+02  0.77670892180E+02  0.47000000000E+01 0.  1.
         -5    1    4    4    0  502  0.38894571684E+02  0.21114222480E+02  0.20877129893E+02  0.49158342628E+02  0.47000000000E+01 0.  1.
          5    1    5    5  503    0  0.40654596708E+02 -0.95188801791E+01 -0.17788960685E+02  0.45628307394E+02  0.47000000000E+01 0. -1.
         -5    1    5    5    0  503 -0.43493948224E+02  0.14516129435E+02 -0.20395378856E+03  0.20909729652E+03  0.47000000000E+01 0. -1.
<mgrwt>
<rscale>  0 0.27515251E+03</rscale>
<asrwt>0</asrwt>
<pdfrwt beam="1">  1        1 0.90165912E-02 0.27515251E+03</pdfrwt>
<pdfrwt beam="2">  1       -1 0.49684153E-01 0.27515251E+03</pdfrwt>
<totfact> 0.30583491E+03</totfact>
</mgrwt>
</event>
<event>
 9    1  0.2054950E-002  0.2758068E+03  0.7818608E-02  0.1098001E+00
          2   -1    0    0  501    0  0.00000000000E+00  0.00000000000E+00  0.14907656951E+02  0.14907656951E+02  0.00000000000E+00 0. -1.
         -2   -1    0    0    0  501 -0.00000000000E+00 -0.00000000000E+00 -0.12756768743E+04  0.12756768743E+04  0.00000000000E+00 0. -1.
         36    2    1    2    0    0 -0.71054273576E-14  0.00000000000E+00 -0.12607692173E+04  0.12905845312E+04  0.27580683981E+03 0.  0.
         25    2    3    3    0    0 -0.48830482946E+02 -0.34193093328E+02 -0.48000249856E+03  0.49743043557E+03  0.11610794937E+03 0.  0.
         25    2    3    3    0    0  0.48830482946E+02  0.34193093328E+02 -0.78076671877E+03  0.79315409567E+03  0.12626625297E+03 0.  0.
          5    1    4    4  502    0 -0.70795168810E+02 -0.60354099263E+02 -0.39196877053E+03  0.40288482262E+03  0.47000000000E+01 0.  1.
         -5    1    4    4    0  502  0.21964685864E+02  0.26161005935E+02 -0.88033728032E+02  0.94545612949E+02  0.47000000000E+01 0.  1.
          5    1    5    5  503    0 -0.11569273624E+02  0.44636951365E+02 -0.10724693068E+03  0.11683449687E+03  0.47000000000E+01 0. -1.
         -5    1    5    5    0  503  0.60399756570E+02 -0.10443858037E+02 -0.67351978809E+03  0.67631959879E+03  0.47000000000E+01 0. -1.
<mgrwt>
<rscale>  0 0.27580684E+03</rscale>
<asrwt>0</asrwt>
<pdfrwt beam="1">  1        2 0.22934855E-02 0.27580684E+03</pdfrwt>
<pdfrwt beam="2">  1       -2 0.19625799E+00 0.27580684E+03</pdfrwt>
<totfact> 0.69044655E+02</totfact>
</mgrwt>
</event>
<event>
 9    1  0.2054950E-002  0.2750889E+03  0.7818608E-02  0.1098402E+00
          2   -1    0    0  501    0  0.00000000000E+00  0.00000000000E+00  0.72495918661E+03  0.72495918661E+03  0.00000000000E+00 0. -1.
         -2   -1    0    0    0  501 -0.00000000000E+00 -0.00000000000E+00 -0.26095922912E+02  0.26095922912E+02  0.00000000000E+00 0. -1.
         36    2    1    2    0    0  0.71054273576E-14  0.14210854715E-13  0.69886326370E+03  0.75105510953E+03  0.27508892416E+03 0.  0.
         25    2    3    3    0    0  0.47868432132E+02  0.35745910685E+02  0.36563304213E+03  0.38996845358E+03  0.12173215009E+03 0.  0.
         25    2    3    3    0    0 -0.47868432132E+02 -0.35745910685E+02  0.33323022157E+03  0.36108665594E+03  0.12558676526E+03 0.  0.
          5    1    4    4  502    0  0.41069223055E+02  0.78477901094E+02  0.28298700949E+03  0.29656230304E+03  0.47000000000E+01 0.  1.
         -5    1    4    4    0  502  0.67992090769E+01 -0.42731990409E+02  0.82646032640E+02  0.93406150544E+02  0.47000000000E+01 0.  1.
          5    1    5    5  503    0  0.80328176995E+01 -0.68931365943E+02  0.12698380245E+03  0.14478617149E+03  0.47000000000E+01 0.  1.
         -5    1    5    5    0  503 -0.55901249832E+02  0.33185455259E+02  0.20624641912E+03  0.21630048445E+03  0.47000000000E+01 0.  1.
<mgrwt>
<rscale>  0 0.27508892E+03</rscale>
<asrwt>0</asrwt>
<pdfrwt beam="1">  1        2 0.11153217E+00 0.27508892E+03</pdfrwt>
<pdfrwt beam="2">  1       -2 0.40147579E-02 0.27508892E+03</pdfrwt>
<totfact> 0.10936704E+04</totfact>
</mgrwt>
</event>
<event>
 9    1  0.2054950E-002  0.2747591E+03  0.7818608E-02  0.1098586E+00
          2   -1    0    0  501    0  0.00000000000E+00  0.00000000000E+00  0.42600248443E+03  0.42600248443E+03  0.00000000000E+00 0. -1.
         -2   -1    0    0    0  501 -0.00000000000E+00 -0.00000000000E+00 -0.44302893890E+02  0.44302893890E+02  0.00000000000E+00 0. -1.
         36    2    1    2    0    0  0.00000000000E+00  0.00000000000E+00  0.38169959054E+03  0.47030537832E+03  0.27475911533E+03 0.  0.
         25    2    3    3    0    0  0.44117959664E+01  0.72110929282E+02  0.18628964877E+03  0.22780234973E+03  0.10941036167E+03 0.  0.
         25    2    3    3    0    0 -0.44117959664E+01 -0.72110929282E+02  0.19540994177E+03  0.24250302859E+03  0.12410972349E+03 0.  0.
          5    1    4    4  502    0 -0.16851034465E+02 -0.24947364703E+02  0.57470791202E+02  0.65048521963E+02  0.47000000000E+01 0.  1.
         -5    1    4    4    0  502  0.21262830431E+02  0.97058293985E+02  0.12881885757E+03  0.16275382777E+03  0.47000000000E+01 0.  1.
          5    1    5    5  503    0 -0.28038705972E+02 -0.17504614133E+01 -0.48372630354E+01  0.28891560384E+02  0.47000000000E+01 0.  1.
         -5    1    5    5    0  503  0.23626910005E+02 -0.70360467869E+02  0.20024720481E+03  0.21361146820E+03  0.47000000000E+01 0.  1.
<mgrwt>
<rscale>  0 0.27475912E+03</rscale>
<asrwt>0</asrwt>
<pdfrwt beam="1">  1        2 0.65538841E-01 0.27475912E+03</pdfrwt>
<pdfrwt beam="2">  1       -2 0.68158301E-02 0.27475912E+03</pdfrwt>
<totfact> 0.89875597E+03</totfact>
</mgrwt>
</event>
<event>
 9    1  0.2054950E-002  0.2751688E+03  0.7818608E-02  0.1098357E+00
          1   -1    0    0  501    0  0.00000000000E+00  0.00000000000E+00  0.12016147086E+04  0.12016147086E+04  0.00000000000E+00 0.  1.
         -1   -1    0    0    0  501 -0.00000000000E+00 -0.00000000000E+00 -0.15753353903E+02  0.15753353903E+02  0.00000000000E+00 0.  1.
         36    2    1    2    0    0  0.71054273576E-14  0.14210854715E-13  0.11858613547E+04  0.12173680625E+04  0.27516876101E+03 0.  0.
         25    2    3    3    0    0  0.10294516772E+02 -0.65737867150E+02  0.61723030711E+03  0.63089050445E+03  0.11234826362E+03 0.  0.
         25    2    3    3    0    0 -0.10294516772E+02  0.65737867150E+02  0.56863104757E+03  0.58647755803E+03  0.12722898084E+03 0.  0.
          5    1    4    4  502    0 -0.45169601849E+02 -0.46255540339E+01  0.27872583918E+03  0.28243914762E+03  0.47000000000E+01 0. -1.
         -5    1    4    4    0  502  0.55464118621E+02 -0.61112313116E+02  0.33850446794E+03  0.34845135684E+03  0.47000000000E+01 0. -1.
          5    1    5    5  503    0  0.34894044505E+00 -0.12475146634E+02  0.10085668571E+01  0.13373789668E+02  0.47000000000E+01 0. -1.
         -5    1    5    5    0  503 -0.10643457217E+02  0.78213013784E+02  0.56762248071E+03  0.57310376837E+03  0.47000000000E+01 0. -1.
<mgrwt>
<rscale>  0 0.27516876E+03</rscale>
<asrwt>0</asrwt>
<pdfrwt beam="1">  1        1 0.18486373E+00 0.27516876E+03</pdfrwt>
<pdfrwt beam="2">  1       -1 0.24235939E-02 0.27516876E+03</pdfrwt>
<totfact> 0.59031059E+03</totfact>
</mgrwt>
</event>
<event>
 9    1  0.2054950E-002  0.2749853E+03  0.7818608E-02  0.1098460E+00
          2   -1    0    0  501    0  0.00000000000E+00  0.00000000000E+00  0.23777150135E+03  0.23777150135E+03  0.00000000000E+00 0. -1.
         -2   -1    0    0    0  501 -0.00000000000E+00 -0.00000000000E+00 -0.79505857146E+02  0.79505857146E+02  0.00000000000E+00 0. -1.
         36    2    1    2    0    0  0.00000000000E+00 -0.14210854715E-13  0.15826564421E+03  0.31727735850E+03  0.27498528703E+03 0.  0.
         25    2    3    3    0    0 -0.31434973604E+02 -0.32645571241E+02  0.28228721284E+02  0.13440339044E+03  0.12334309777E+03 0.  0.
         25    2    3    3    0    0  0.31434973604E+02  0.32645571241E+02  0.13003692292E+03  0.18287396806E+03  0.12033036186E+03 0.  0.
          5    1    4    4  502    0 -0.42926079616E+02 -0.74703160594E+02  0.27441168252E+02  0.90544564878E+02  0.47000000000E+01 0.  1.
         -5    1    4    4    0  502  0.11491106012E+02  0.42057589353E+02  0.78755303223E+00  0.43858825558E+02  0.47000000000E+01 0.  1.
          5    1    5    5  503    0  0.50709237371E+02  0.65434889477E+02  0.57717062585E+02  0.10102722816E+03  0.47000000000E+01 0.  1.
         -5    1    5    5    0  503 -0.19274263767E+02 -0.32789318236E+02  0.72319860338E+02  0.81846739907E+02  0.47000000000E+01 0.  1.
<mgrwt>
<rscale>  0 0.27498529E+03</rscale>
<asrwt>0</asrwt>
<pdfrwt beam="1">  1        2 0.36580231E-01 0.27498529E+03</pdfrwt>
<pdfrwt beam="2">  1       -2 0.12231670E-01 0.27498529E+03</pdfrwt>
<totfact> 0.67009095E+03</totfact>
</mgrwt>
</event>
<event>
 8    1  0.2054950E-002  0.2553777E+03  0.7818608E-02  0.1109953E+00
         -2   -1    0    0    0  501 -0.00000000000E+00  0.00000000000E+00  0.75126621585E+01  0.75126621585E+01  0.00000000000E+00 0. -1.
          2   -1    0    0  501    0  0.00000000000E+00 -0.00000000000E+00 -0.21702621266E+04  0.21702621266E+04  0.00000000000E+00 0. -1.
         25    2    1    2    0    0  0.72748978858E+00  0.27348709913E+02 -0.85131123738E+03  0.86078428002E+03  0.12437955078E+03 0.  0.
         25    2    1    2    0    0 -0.72748978858E+00 -0.27348709913E+02 -0.13114382270E+04  0.13169905087E+04  0.11766603398E+03 0.  0.
          5    1    3    3  502    0 -0.29065571771E+02  0.69430805505E+02 -0.48321817946E+03  0.48906783085E+03  0.47000000000E+01 0.  1.
         -5    1    3    3    0  502  0.29793061560E+02 -0.42082095591E+02 -0.36809305793E+03  0.37171644917E+03  0.47000000000E+01 0.  1.
          5    1    4    4  503    0  0.16362734992E+02 -0.60971914879E+02 -0.11215764021E+04  0.11233614865E+04  0.47000000000E+01 0.  1.
         -5    1    4    4    0  503 -0.17090224781E+02  0.33623204966E+02 -0.18986182487E+03  0.19362902220E+03  0.47000000000E+01 0.  1.
<mgrwt>
<rscale>  0 0.25537773E+03</rscale>
<asrwt>0</asrwt>
<pdfrwt beam="1">  1        2 0.33388603E+00 0.25537773E+03</pdfrwt>
<pdfrwt beam="2">  1       -2 0.11557957E-02 0.25537773E+03</pdfrwt>
<totfact> 0.10416386E+04</totfact>
</mgrwt>
</event>
<event>
 9    1  0.2054950E-002  0.2819923E+03  0.7818608E-02  0.1094606E+00
          2   -1    0    0  501    0  0.00000000000E+00  0.00000000000E+00  0.30717434099E+03  0.30717434099E+03  0.00000000000E+00 0. -1.
         -2   -1    0    0    0  501 -0.00000000000E+00 -0.00000000000E+00 -0.64718684276E+02  0.64718684276E+02  0.00000000000E+00 0. -1.
         36    2    1    2    0    0  0.35527136788E-14 -0.71054273576E-14  0.24245565672E+03  0.37189302527E+03  0.28199233459E+03 0.  0.
         25    2    3    3    0    0 -0.16238757097E+02  0.32372080179E+02  0.49978694096E+02  0.14043542608E+03  0.12614511575E+03 0.  0.
         25    2    3    3    0    0  0.16238757097E+02 -0.32372080179E+02  0.19247696262E+03  0.23145759919E+03  0.12334338360E+03 0.  0.
          5    1    4    4  502    0  0.39934087281E+02 -0.27235194654E+02  0.25324117037E+02  0.54771233859E+02  0.47000000000E+01 0. -1.
         -5    1    4    4    0  502 -0.56172844378E+02  0.59607274832E+02  0.24654577060E+02  0.85664192218E+02  0.47000000000E+01 0. -1.
          5    1    5    5  503    0  0.17326624381E+00 -0.65692892728E+02  0.46065625679E+02  0.80372371157E+02  0.47000000000E+01 0.  1.
         -5    1    5    5    0  503  0.16065490853E+02  0.33320812550E+02  0.14641133694E+03  0.15108522804E+03  0.47000000000E+01 0.  1.
<mgrwt>
<rscale>  0 0.28199233E+03</rscale>
<asrwt>0</asrwt>
<pdfrwt beam="1">  1        2 0.47257590E-01 0.28199233E+03</pdfrwt>
<pdfrwt beam="2">  1       -2 0.99567208E-02 0.28199233E+03</pdfrwt>
<totfact> 0.70779957E+03</totfact>
</mgrwt>
</event>
<event>
 9    1  0.2054950E-002  0.2751623E+03  0.7818608E-02  0.1098361E+00
         -1   -1    0    0    0  501 -0.00000000000E+00  0.00000000000E+00  0.55600373389E+02  0.55600373389E+02  0.00000000000E+00 0.  1.
          1   -1    0    0  501    0  0.00000000000E+00 -0.00000000000E+00 -0.34043963398E+03  0.34043963398E+03  0.00000000000E+00 0.  1.
         36    2    1    2    0    0  0.00000000000E+00  0.00000000000E+00 -0.28483926059E+03  0.39604000737E+03  0.27516228496E+03 0.  0.
         25    2    3    3    0    0  0.35808288918E+02  0.46818534244E+02 -0.16785911854E+03  0.21741902530E+03  0.12498055922E+03 0.  0.
         25    2    3    3    0    0 -0.35808288918E+02 -0.46818534244E+02 -0.11698014205E+03  0.17862098207E+03  0.12143678560E+03 0.  0.
          5    1    4    4  502    0  0.65332816558E+02 -0.58131082831E+01 -0.42741962789E+02  0.78429168874E+02  0.47000000000E+01 0. -1.
         -5    1    4    4    0  502 -0.29524527640E+02  0.52631642527E+02 -0.12511715575E+03  0.13898985643E+03  0.47000000000E+01 0. -1.
          5    1    5    5  503    0 -0.19648676578E+02 -0.15839462922E+02 -0.13611021144E+03  0.13851006727E+03  0.47000000000E+01 0. -1.
         -5    1    5    5    0  503 -0.16159612340E+02 -0.30979071322E+02  0.19130069388E+02  0.40110914795E+02  0.47000000000E+01 0. -1.
<mgrwt>
<rscale>  0 0.27516228E+03</rscale>
<asrwt>0</asrwt>
<pdfrwt beam="1">  1        1 0.52375328E-01 0.27516228E+03</pdfrwt>
<pdfrwt beam="2">  1       -1 0.85539036E-02 0.27516228E+03</pdfrwt>
<totfact> 0.57546634E+03</totfact>
</mgrwt>
</event>
<event>
 9    1  0.2054950E-002  0.2754637E+03  0.7818608E-02  0.1098193E+00
         -2   -1    0    0    0  501 -0.00000000000E+00  0.00000000000E+00  0.90409413828E+01  0.90409413828E+01  0.00000000000E+00 0.  1.
          2   -1    0    0  501    0  0.00000000000E+00 -0.00000000000E+00 -0.20982390437E+04  0.20982390437E+04  0.00000000000E+00 0.  1.
         36    2    1    2    0    0 -0.14210854715E-13  0.17763568394E-14 -0.20891981023E+04  0.21072799851E+04  0.27546365424E+03 0.  0.
         25    2    3    3    0    0  0.55304757332E+02 -0.12231872048E+02 -0.10924295982E+04  0.11009905777E+04  0.12477816391E+03 0.  0.
         25    2    3    3    0    0 -0.55304757332E+02  0.12231872048E+02 -0.99676850408E+03  0.10062894074E+04  0.12594715487E+03 0.  0.
          5    1    4    4  502    0  0.15462796091E+02 -0.51196732510E+02 -0.20875466644E+03  0.21554768438E+03  0.47000000000E+01 0.  1.
         -5    1    4    4    0  502  0.39841961241E+02  0.38964860462E+02 -0.88367493180E+03  0.88544289331E+03  0.47000000000E+01 0.  1.
          5    1    5    5  503    0 -0.74841819944E+02  0.10330728636E+02 -0.96904266896E+03  0.97199475628E+03  0.47000000000E+01 0. -1.
         -5    1    5    5    0  503  0.19537062612E+02  0.19011434123E+01 -0.27725835122E+02  0.34294651113E+02  0.47000000000E+01 0. -1.
<mgrwt>
<rscale>  0 0.27546365E+03</rscale>
<asrwt>0</asrwt>
<pdfrwt beam="1">  1        2 0.32280603E+00 0.27546365E+03</pdfrwt>
<pdfrwt beam="2">  1       -2 0.13909140E-02 0.27546365E+03</pdfrwt>
<totfact> 0.86882785E+03</totfact>
</mgrwt>
</event>
<event>
 9    1  0.2054950E-002  0.2755941E+03  0.7818608E-02  0.1098120E+00
          2   -1    0    0  501    0  0.00000000000E+00  0.00000000000E+00  0.23458292286E+04  0.23458292286E+04  0.00000000000E+00 0.  1.
         -2   -1    0    0    0  501 -0.00000000000E+00 -0.00000000000E+00 -0.80943775163E+01  0.80943775163E+01  0.00000000000E+00 0.  1.
         36    2    1    2    0    0  0.00000000000E+00 -0.10658141036E-13  0.23377348511E+04  0.23539236061E+04  0.27559410273E+03 0.  0.
         25    2    3    3    0    0  0.36536637844E+02  0.30755967205E+02  0.13176718026E+04  0.13251608062E+04  0.13233037261E+03 0.  0.
         25    2    3    3    0    0 -0.36536637844E+02 -0.30755967205E+02  0.10200630485E+04  0.10287628000E+04  0.12467325364E+03 0.  0.
          5    1    4    4  502    0 -0.98148442033E+01  0.51995727060E+02  0.22102049394E+03  0.22731483792E+03  0.47000000000E+01 0.  1.
         -5    1    4    4    0  502  0.46351482047E+02 -0.21239759854E+02  0.10966513086E+04  0.10978459682E+04  0.47000000000E+01 0.  1.
          5    1    5    5  503    0 -0.52103011425E+01  0.45461640025E+02  0.50936797779E+03  0.51144084189E+03  0.47000000000E+01 0. -1.
         -5    1    5    5    0  503 -0.31326336701E+02 -0.76217607231E+02  0.51069507075E+03  0.51732195808E+03  0.47000000000E+01 0. -1.
<mgrwt>
<rscale>  0 0.27559410E+03</rscale>
<asrwt>0</asrwt>
<pdfrwt beam="1">  1        2 0.36089626E+00 0.27559410E+03</pdfrwt>
<pdfrwt beam="2">  1       -2 0.12452907E-02 0.27559410E+03</pdfrwt>
<totfact> 0.75340586E+03</totfact>
</mgrwt>
</event>
<event>
 9    1  0.2054950E-002  0.2751508E+03  0.7818608E-02  0.1098367E+00
         -2   -1    0    0    0  501 -0.00000000000E+00  0.00000000000E+00  0.62600439453E+01  0.62600439453E+01  0.00000000000E+00 0. -1.
          2   -1    0    0  501    0  0.00000000000E+00 -0.00000000000E+00 -0.30234586299E+04  0.30234586299E+04  0.00000000000E+00 0. -1.
         36    2    1    2    0    0  0.00000000000E+00  0.00000000000E+00 -0.30171985859E+04  0.30297186738E+04  0.27515075061E+03 0.  0.
         25    2    3    3    0    0  0.47913313493E+02 -0.39242478570E+00 -0.18267060057E+04  0.18316927222E+04  0.12628364039E+03 0.  0.
         25    2    3    3    0    0 -0.47913313493E+02  0.39242478570E+00 -0.11904925803E+04  0.11980259516E+04  0.12529069190E+03 0.  0.
          5    1    4    4  502    0  0.16726866026E+02 -0.52950926825E+02 -0.13376732207E+04  0.13388335685E+04  0.47000000000E+01 0. -1.
         -5    1    4    4    0  502  0.31186447467E+02  0.52558502039E+02 -0.48903278496E+03  0.49285915372E+03  0.47000000000E+01 0. -1.
          5    1    5    5  503    0  0.15372351730E+02  0.87696668831E+01 -0.26142233518E+02  0.31917434550E+02  0.47000000000E+01 0. -1.
         -5    1    5    5    0  503 -0.63285665223E+02 -0.83772420974E+01 -0.11643503468E+04  0.11661085171E+04  0.47000000000E+01 0. -1.
<mgrwt>
<rscale>  0 0.27515075E+03</rscale>
<asrwt>0</asrwt>
<pdfrwt beam="1">  1        2 0.46514766E+00 0.27515075E+03</pdfrwt>
<pdfrwt beam="2">  1       -2 0.96308332E-03 0.27515075E+03</pdfrwt>
<totfact> 0.45437360E+03</totfact>
</mgrwt>
</event>
<event>
 9    1  0.2054950E-002  0.2757029E+03  0.7818608E-02  0.1098059E+00
         -1   -1    0    0    0  501 -0.00000000000E+00  0.00000000000E+00  0.38136146602E+02  0.38136146602E+02  0.00000000000E+00 0.  1.
          1   -1    0    0  501    0  0.00000000000E+00 -0.00000000000E+00 -0.49829430252E+03  0.49829430252E+03  0.00000000000E+00 0.  1.
         36    2    1    2    0    0  0.35527136788E-14 -0.14210854715E-13 -0.46015815591E+03  0.53643044912E+03  0.27570291672E+03 0.  0.
         25    2    3    3    0    0 -0.74967118421E+01 -0.40991810378E+02 -0.30326770150E+03  0.32969789500E+03  0.12244539187E+03 0.  0.
         25    2    3    3    0    0  0.74967118421E+01  0.40991810378E+02 -0.15689045442E+03  0.20673255411E+03  0.12801251907E+03 0.  0.
          5    1    4    4  502    0 -0.31706364679E+02 -0.72089631558E+02 -0.25649879249E+03  0.26835783776E+03  0.47000000000E+01 0. -1.
         -5    1    4    4    0  502  0.24209652837E+02  0.31097821180E+02 -0.46768909014E+02  0.61340057247E+02  0.47000000000E+01 0. -1.
          5    1    5    5  503    0  0.62007231147E+02  0.49178571045E+02 -0.90595499064E+02  0.12038713808E+03  0.47000000000E+01 0.  1.
         -5    1    5    5    0  503 -0.54510519305E+02 -0.81867606671E+01 -0.66294955352E+02  0.86345416035E+02  0.47000000000E+01 0.  1.
<mgrwt>
<rscale>  0 0.27570292E+03</rscale>
<asrwt>0</asrwt>
<pdfrwt beam="1">  1        1 0.76660652E-01 0.27570292E+03</pdfrwt>
<pdfrwt beam="2">  1       -1 0.58671003E-02 0.27570292E+03</pdfrwt>
<totfact> 0.62414091E+03</totfact>
</mgrwt>
</event>
<event>
 9    1  0.2054950E-002  0.2754215E+03  0.7818608E-02  0.1098216E+00
          1   -1    0    0  501    0  0.00000000000E+00  0.00000000000E+00  0.78765739873E+03  0.78765739873E+03  0.00000000000E+00 0. -1.
         -1   -1    0    0    0  501 -0.00000000000E+00 -0.00000000000E+00 -0.24076772055E+02  0.24076772055E+02  0.00000000000E+00 0. -1.
         36    2    1    2    0    0  0.71054273576E-14  0.00000000000E+00  0.76358062668E+03  0.81173417079E+03  0.27542147808E+03 0.  0.
         25    2    3    3    0    0  0.18830123280E+02 -0.48460456561E+02  0.39706780757E+03  0.42062881422E+03  0.12869641079E+03 0.  0.
         25    2    3    3    0    0 -0.18830123280E+02  0.48460456561E+02  0.36651281910E+03  0.39110535656E+03  0.12620920716E+03 0.  0.
          5    1    4    4  502    0 -0.46000397245E+02 -0.38799881601E+02  0.10367769257E+03  0.11996925146E+03  0.47000000000E+01 0.  1.
         -5    1    4    4    0  502  0.64830520525E+02 -0.96605749601E+01  0.29339011501E+03  0.30065956277E+03  0.47000000000E+01 0.  1.
          5    1    5    5  503    0 -0.11271965890E+02  0.54541244861E+02  0.37388931123E+03  0.37804379595E+03  0.47000000000E+01 0.  1.
         -5    1    5    5    0  503 -0.75581573895E+01 -0.60807883008E+01 -0.73764921263E+01  0.13061560610E+02  0.47000000000E+01 0.  1.
<mgrwt>
<rscale>  0 0.27542148E+03</rscale>
<asrwt>0</asrwt>
<pdfrwt beam="1">  1        1 0.12117804E+00 0.27542148E+03</pdfrwt>
<pdfrwt beam="2">  1       -1 0.37041194E-02 0.27542148E+03</pdfrwt>
<totfact> 0.64967634E+03</totfact>
</mgrwt>
</event>
<event>
 9    1  0.2054950E-002  0.2752898E+03  0.7818608E-02  0.1098290E+00
         -3   -1    0    0    0  501 -0.00000000000E+00  0.00000000000E+00  0.71376429309E+02  0.71376429309E+02  0.00000000000E+00 0.  1.
          3   -1    0    0  501    0  0.00000000000E+00 -0.00000000000E+00 -0.26543947473E+03  0.26543947473E+03  0.00000000000E+00 0.  1.
         36    2    1    2    0    0  0.00000000000E+00  0.00000000000E+00 -0.19406304542E+03  0.33681590404E+03  0.27528982476E+03 0.  0.
         25    2    3    3    0    0  0.55958272624E+02  0.17223163313E+02 -0.98169265404E+02  0.16897737651E+03  0.12445153061E+03 0.  0.
         25    2    3    3    0    0 -0.55958272624E+02 -0.17223163313E+02 -0.95893780018E+02  0.16783852753E+03  0.12468435607E+03 0.  0.
          5    1    4    4  502    0  0.60354940938E+02  0.43952128520E+02 -0.86231054323E+01  0.75305753063E+02  0.47000000000E+01 0.  1.
         -5    1    4    4    0  502 -0.43966683142E+01 -0.26728965207E+02 -0.89546159972E+02  0.93671623446E+02  0.47000000000E+01 0.  1.
          5    1    5    5  503    0  0.32647442136E+01 -0.62482643649E+02 -0.38128153779E+02  0.73420606254E+02  0.47000000000E+01 0.  1.
         -5    1    5    5    0  503 -0.59223016837E+02  0.45259480336E+02 -0.57765626239E+02  0.94417921278E+02  0.47000000000E+01 0.  1.
<mgrwt>
<rscale>  0 0.27528982E+03</rscale>
<asrwt>0</asrwt>
<pdfrwt beam="1">  1        3 0.40836842E-01 0.27528982E+03</pdfrwt>
<pdfrwt beam="2">  1       -3 0.10980989E-01 0.27528982E+03</pdfrwt>
<totfact> 0.95734687E+02</totfact>
</mgrwt>
</event>
<event>
 9    1  0.2054950E-002  0.2784219E+03  0.7818608E-02  0.1096554E+00
         -3   -1    0    0    0  501 -0.00000000000E+00  0.00000000000E+00  0.15229340763E+03  0.15229340763E+03  0.00000000000E+00 0.  1.
          3   -1    0    0  501    0  0.00000000000E+00 -0.00000000000E+00 -0.12725228033E+03  0.12725228033E+03  0.00000000000E+00 0.  1.
         36    2    1    2    0    0  0.00000000000E+00  0.00000000000E+00  0.25041127300E+02  0.27954568795E+03  0.27842186264E+03 0.  0.
         25    2    3    3    0    0 -0.21566983228E+02 -0.48291149219E+02 -0.21909780314E+02  0.13950059574E+03  0.12721323783E+03 0.  0.
         25    2    3    3    0    0  0.21566983228E+02  0.48291149219E+02  0.46950907614E+02  0.14004509221E+03  0.12087626016E+03 0.  0.
          5    1    4    4  502    0  0.46829025734E+02 -0.48788543807E+02 -0.90220640943E+00  0.67795159373E+02  0.47000000000E+01 0.  1.
         -5    1    4    4    0  502 -0.68396008962E+02  0.49739458737E+00 -0.21007573904E+02  0.71705436368E+02  0.47000000000E+01 0.  1.
          5    1    5    5  503    0  0.35230041915E+02  0.77439310258E+02  0.28641020833E+01  0.85254300228E+02  0.47000000000E+01 0.  1.
         -5    1    5    5    0  503 -0.13663058687E+02 -0.29148161039E+02  0.44086805531E+02  0.54790791987E+02  0.47000000000E+01 0.  1.
<mgrwt>
<rscale>  0 0.27842186E+03</rscale>
<asrwt>0</asrwt>
<pdfrwt beam="1">  1        3 0.19577274E-01 0.27842186E+03</pdfrwt>
<pdfrwt beam="2">  1       -3 0.23429755E-01 0.27842186E+03</pdfrwt>
<totfact> 0.10031291E+03</totfact>
</mgrwt>
</event>
<event>
 9    1  0.2054950E-002  0.2745482E+03  0.7818608E-02  0.1098704E+00
         -1   -1    0    0    0  501 -0.00000000000E+00  0.00000000000E+00  0.36984686461E+03  0.36984686461E+03  0.00000000000E+00 0.  1.
          1   -1    0    0  501    0  0.00000000000E+00 -0.00000000000E+00 -0.50951292640E+02  0.50951292640E+02  0.00000000000E+00 0.  1.
         36    2    1    2    0    0  0.35527136788E-14  0.71054273576E-14  0.31889557197E+03  0.42079815725E+03  0.27454818033E+03 0.  0.
         25    2    3    3    0    0 -0.27816713013E+02 -0.16936979265E+02  0.21524673104E+03  0.25283751474E+03  0.12858857977E+03 0.  0.
         25    2    3    3    0    0  0.27816713013E+02  0.16936979265E+02  0.10364884092E+03  0.16796064250E+03  0.12809006369E+03 0.  0.
          5    1    4    4  502    0 -0.63498919028E+01  0.50221869017E+02  0.42735943726E+02  0.66415420957E+02  0.47000000000E+01 0. -1.
         -5    1    4    4    0  502 -0.21466821111E+02 -0.67158848282E+02  0.17251078731E+03  0.18642209378E+03  0.47000000000E+01 0. -1.
          5    1    5    5  503    0  0.44374300240E+02 -0.47582653055E+02  0.55311529004E+02  0.85525684062E+02  0.47000000000E+01 0. -1.
         -5    1    5    5    0  503 -0.16557587227E+02  0.64519632320E+02  0.48337311921E+02  0.82434958442E+02  0.47000000000E+01 0. -1.
<mgrwt>
<rscale>  0 0.27454818E+03</rscale>
<asrwt>0</asrwt>
<pdfrwt beam="1">  1        1 0.78386607E-02 0.27454818E+03</pdfrwt>
<pdfrwt beam="2">  1       -1 0.56899516E-01 0.27454818E+03</pdfrwt>
<totfact> 0.28684896E+03</totfact>
</mgrwt>
</event>
<event>
 9    1  0.2054950E-002  0.2752482E+03  0.7818608E-02  0.1098313E+00
         -1   -1    0    0    0  501 -0.00000000000E+00  0.00000000000E+00  0.36144299248E+02  0.36144299248E+02  0.00000000000E+00 0. -1.
          1   -1    0    0  501    0  0.00000000000E+00 -0.00000000000E+00 -0.52402153574E+03  0.52402153574E+03  0.00000000000E+00 0. -1.
         36    2    1    2    0    0  0.71054273576E-14  0.00000000000E+00 -0.48787723649E+03  0.56016583499E+03  0.27524818764E+03 0.  0.
         25    2    3    3    0    0 -0.36762596835E+02  0.14247764349E+01 -0.21511315640E+03  0.25806629084E+03  0.13773533278E+03 0.  0.
         25    2    3    3    0    0  0.36762596835E+02 -0.14247764349E+01 -0.27276408009E+03  0.30209954415E+03  0.12454064667E+03 0.  0.
          5    1    4    4  502    0  0.46401443835E+02  0.28450200892E+02 -0.73834348908E+02  0.91848293394E+02  0.47000000000E+01 0. -1.
         -5    1    4    4    0  502 -0.83164040670E+02 -0.27025424457E+02 -0.14127880750E+03  0.16621799745E+03  0.47000000000E+01 0. -1.
          5    1    5    5  503    0  0.22280160508E+01  0.54563551062E+02 -0.70159541788E+02  0.89031435257E+02  0.47000000000E+01 0.  1.
         -5    1    5    5    0  503  0.34534580784E+02 -0.55988327497E+02 -0.20260453830E+03  0.21306810889E+03  0.47000000000E+01 0.  1.
<mgrwt>
<rscale>  0 0.27524819E+03</rscale>
<asrwt>0</asrwt>
<pdfrwt beam="1">  1        1 0.80618690E-01 0.27524819E+03</pdfrwt>
<pdfrwt beam="2">  1       -1 0.55606619E-02 0.27524819E+03</pdfrwt>
<totfact> 0.63263224E+03</totfact>
</mgrwt>
</event>
<event>
 9    1  0.2054950E-002  0.2755880E+03  0.7818608E-02  0.1098123E+00
          2   -1    0    0  501    0  0.00000000000E+00  0.00000000000E+00  0.53498292066E+02  0.53498292066E+02  0.00000000000E+00 0. -1.
         -2   -1    0    0    0  501 -0.00000000000E+00 -0.00000000000E+00 -0.35491189752E+03  0.35491189752E+03  0.00000000000E+00 0. -1.
         36    2    1    2    0    0 -0.14210854715E-13 -0.14210854715E-13 -0.30141360545E+03  0.40841018958E+03  0.27558795584E+03 0.  0.
         25    2    3    3    0    0 -0.36625152061E+02 -0.42614003752E+02 -0.17558906032E+03  0.22260357709E+03  0.12475367468E+03 0.  0.
         25    2    3    3    0    0  0.36625152061E+02  0.42614003752E+02 -0.12582454513E+03  0.18580661249E+03  0.12463918329E+03 0.  0.
          5    1    4    4  502    0 -0.16585717166E+02 -0.51040551862E+02 -0.91009840816E+01  0.54636451748E+02  0.47000000000E+01 0.  1.
         -5    1    4    4    0  502 -0.20039434894E+02  0.84265481101E+01 -0.16648807624E+03  0.16796712534E+03  0.47000000000E+01 0.  1.
          5    1    5    5  503    0  0.19969300577E+02 -0.18995876716E+02  0.14560770170E+02  0.31523361586E+02  0.47000000000E+01 0. -1.
         -5    1    5    5    0  503  0.16655851484E+02  0.61609880468E+02 -0.14038531530E+03  0.15428325091E+03  0.47000000000E+01 0. -1.
<mgrwt>
<rscale>  0 0.27558796E+03</rscale>
<asrwt>0</asrwt>
<pdfrwt beam="1">  1        2 0.82305064E-02 0.27558796E+03</pdfrwt>
<pdfrwt beam="2">  1       -2 0.54601831E-01 0.27558796E+03</pdfrwt>
<totfact> 0.26264410E+03</totfact>
</mgrwt>
</event>
<event>
 9    1  0.2054950E-002  0.2753850E+03  0.7818608E-02  0.1098237E+00
          3   -1    0    0  501    0  0.00000000000E+00  0.00000000000E+00  0.84955026115E+03  0.84955026115E+03  0.00000000000E+00 0.  1.
         -3   -1    0    0    0  501 -0.00000000000E+00 -0.00000000000E+00 -0.22316783620E+02  0.22316783620E+02  0.00000000000E+00 0.  1.
         36    2    1    2    0    0  0.00000000000E+00  0.14210854715E-13  0.82723347753E+03  0.87186704477E+03  0.27538503483E+03 0.  0.
         25    2    3    3    0    0  0.84574967326E+00  0.46750032965E+02  0.29834129264E+03  0.32634677339E+03  0.12372715439E+03 0.  0.
         25    2    3    3    0    0 -0.84574967326E+00 -0.46750032965E+02  0.52889218489E+03  0.54552027138E+03  0.12521638221E+03 0.  0.
          5    1    4    4  502    0 -0.44246362504E+02  0.59691873177E+02  0.11465851194E+03  0.13670963638E+03  0.47000000000E+01 0.  1.
         -5    1    4    4    0  502  0.45092112178E+02 -0.12941840212E+02  0.18368278070E+03  0.18963713701E+03  0.47000000000E+01 0.  1.
          5    1    5    5  503    0 -0.28474357270E+02  0.35711264222E+02  0.15775114747E+03  0.16429728525E+03  0.47000000000E+01 0.  1.
         -5    1    5    5    0  503  0.27628607597E+02 -0.82461297188E+02  0.37114103742E+03  0.38122298613E+03  0.47000000000E+01 0.  1.
<mgrwt>
<rscale>  0 0.27538503E+03</rscale>
<asrwt>0</asrwt>
<pdfrwt beam="1">  1        3 0.13070001E+00 0.27538503E+03</pdfrwt>
<pdfrwt beam="2">  1       -3 0.34333520E-02 0.27538503E+03</pdfrwt>
<totfact> 0.50519267E+02</totfact>
</mgrwt>
</event>
<event>
 9    1  0.2054950E-002  0.2741481E+03  0.7818608E-02  0.1098929E+00
         -2   -1    0    0    0  501 -0.00000000000E+00  0.00000000000E+00  0.29266093066E+02  0.29266093066E+02  0.00000000000E+00 0.  1.
          2   -1    0    0  501    0  0.00000000000E+00 -0.00000000000E+00 -0.64201569389E+03  0.64201569389E+03  0.00000000000E+00 0.  1.
         36    2    1    2    0    0  0.00000000000E+00  0.71054273576E-14 -0.61274960082E+03  0.67128178695E+03  0.27414806983E+03 0.  0.
         25    2    3    3    0    0  0.45595002168E+02 -0.72546201282E+01 -0.24314165418E+03  0.27739044881E+03  0.12528393097E+03 0.  0.
         25    2    3    3    0    0 -0.45595002168E+02  0.72546201282E+01 -0.36960794664E+03  0.39389133814E+03  0.12809690983E+03 0.  0.
          5    1    4    4  502    0  0.47513307950E+02  0.51424099250E+02 -0.96109145531E+02  0.11900004315E+03  0.47000000000E+01 0. -1.
         -5    1    4    4    0  502 -0.19183057815E+01 -0.58678719378E+02 -0.14703250865E+03  0.15839040566E+03  0.47000000000E+01 0. -1.
          5    1    5    5  503    0 -0.19051177977E+02 -0.60257852531E+02 -0.16480437823E+03  0.17656876638E+03  0.47000000000E+01 0.  1.
         -5    1    5    5    0  503 -0.26543824191E+02  0.67512472659E+02 -0.20480356840E+03  0.21732257176E+03  0.47000000000E+01 0.  1.
<mgrwt>
<rscale>  0 0.27414807E+03</rscale>
<asrwt>0</asrwt>
<pdfrwt beam="1">  1        2 0.98771636E-01 0.27414807E+03</pdfrwt>
<pdfrwt beam="2">  1       -2 0.45024763E-02 0.27414807E+03</pdfrwt>
<totfact> 0.10648179E+04</totfact>
</mgrwt>
</event>
<event>
 9    1  0.2054950E-002  0.2754707E+03  0.7818608E-02  0.1098189E+00
         -1   -1    0    0    0  501 -0.00000000000E+00  0.00000000000E+00  0.38552864658E+03  0.38552864658E+03  0.00000000000E+00 0. -1.
          1   -1    0    0  501    0  0.00000000000E+00 -0.00000000000E+00 -0.49207833345E+02  0.49207833345E+02  0.00000000000E+00 0. -1.
         36    2    1    2    0    0  0.00000000000E+00  0.00000000000E+00  0.33632081323E+03  0.43473647992E+03  0.27547071997E+03 0.  0.
         25    2    3    3    0    0  0.41313181968E+02  0.16039515926E+01  0.11073798652E+03  0.17267071962E+03  0.12586867795E+03 0.  0.
         25    2    3    3    0    0 -0.41313181968E+02 -0.16039515926E+01  0.22558282671E+03  0.26206576030E+03  0.12681285169E+03 0.  0.
          5    1    4    4  502    0 -0.28873617835E+01 -0.43080509268E+02  0.99611781996E+02  0.10866859827E+03  0.47000000000E+01 0.  1.
         -5    1    4    4    0  502  0.44200543751E+02  0.44684460860E+02  0.11126204528E+02  0.64002121351E+02  0.47000000000E+01 0.  1.
          5    1    5    5  503    0 -0.21661300178E+02 -0.54992221089E+02  0.50402658385E+02  0.77819498057E+02  0.47000000000E+01 0. -1.
         -5    1    5    5    0  503 -0.19651881790E+02  0.53388269496E+02  0.17518016832E+03  0.18424626225E+03  0.47000000000E+01 0. -1.
<mgrwt>
<rscale>  0 0.27547072E+03</rscale>
<asrwt>0</asrwt>
<pdfrwt beam="1">  1        1 0.75704361E-02 0.27547072E+03</pdfrwt>
<pdfrwt beam="2">  1       -1 0.59312098E-01 0.27547072E+03</pdfrwt>
<totfact> 0.27786810E+03</totfact>
</mgrwt>
</event>
<event>
 9    1  0.2054950E-002  0.2735371E+03  0.7818608E-02  0.1099272E+00
          2   -1    0    0  501    0  0.00000000000E+00  0.00000000000E+00  0.86088209259E+03  0.86088209259E+03  0.00000000000E+00 0.  1.
         -2   -1    0    0    0  501 -0.00000000000E+00 -0.00000000000E+00 -0.21728448152E+02  0.21728448152E+02  0.00000000000E+00 0.  1.
         36    2    1    2    0    0  0.35527136788E-14 -0.71054273576E-14  0.83915364443E+03  0.88261054074E+03  0.27353706816E+03 0.  0.
         25    2    3    3    0    0 -0.15673923542E+02  0.16485726443E+02  0.59807988563E+03  0.61106549289E+03  0.12322352027E+03 0.  0.
         25    2    3    3    0    0  0.15673923542E+02 -0.16485726443E+02  0.24107375880E+03  0.27154504785E+03  0.12289306235E+03 0.  0.
          5    1    4    4  502    0 -0.50531977509E+02  0.76850191039E+01  0.10726769773E+03  0.11891589147E+03  0.47000000000E+01 0.  1.
         -5    1    4    4    0  502  0.34858053967E+02  0.88007073386E+01  0.49081218791E+03  0.49214960142E+03  0.47000000000E+01 0.  1.
          5    1    5    5  503    0 -0.19812907403E+02  0.29797906856E+02  0.16882917544E+02  0.39844566224E+02  0.47000000000E+01 0. -1.
         -5    1    5    5    0  503  0.35486830946E+02 -0.46283633298E+02  0.22419084125E+03  0.23170048162E+03  0.47000000000E+01 0. -1.
<mgrwt>
<rscale>  0 0.27353707E+03</rscale>
<asrwt>0</asrwt>
<pdfrwt beam="1">  1        2 0.13244337E+00 0.27353707E+03</pdfrwt>
<pdfrwt beam="2">  1       -2 0.33428388E-02 0.27353707E+03</pdfrwt>
<totfact> 0.11572505E+04</totfact>
</mgrwt>
</event>
<event>
 9    1  0.2054950E-002  0.2758407E+03  0.7818608E-02  0.1097983E+00
          1   -1    0    0  501    0  0.00000000000E+00  0.00000000000E+00  0.17673500597E+04  0.17673500597E+04  0.00000000000E+00 0. -1.
         -1   -1    0    0    0  501 -0.00000000000E+00 -0.00000000000E+00 -0.10763020962E+02  0.10763020962E+02  0.00000000000E+00 0. -1.
         36    2    1    2    0    0 -0.35527136788E-14  0.14210854715E-13  0.17565870387E+04  0.17781130807E+04  0.27584072027E+03 0.  0.
         25    2    3    3    0    0  0.19702567935E+02 -0.46905522458E+02  0.10924994266E+04  0.11006024662E+04  0.12321717469E+03 0.  0.
         25    2    3    3    0    0 -0.19702567935E+02  0.46905522458E+02  0.66408761214E+03  0.67751061452E+03  0.12417711936E+03 0.  0.
          5    1    4    4  502    0  0.50033952736E+02  0.21550310191E+02  0.59077667111E+03  0.59330175917E+03  0.47000000000E+01 0. -1.
         -5    1    4    4    0  502 -0.30331384801E+02 -0.68455832649E+02  0.50172275549E+03  0.50730070699E+03  0.47000000000E+01 0. -1.
          5    1    5    5  503    0 -0.25687905846E+01 -0.24523425916E+02  0.29785140894E+02  0.38951787145E+02  0.47000000000E+01 0.  1.
         -5    1    5    5    0  503 -0.17133777351E+02  0.71428948373E+02  0.63430247125E+03  0.63855882738E+03  0.47000000000E+01 0.  1.
<mgrwt>
<rscale>  0 0.27584072E+03</rscale>
<asrwt>0</asrwt>
<pdfrwt beam="1">  1        1 0.27189978E+00 0.27584072E+03</pdfrwt>
<pdfrwt beam="2">  1       -1 0.16558508E-02 0.27584072E+03</pdfrwt>
<totfact> 0.43180175E+03</totfact>
</mgrwt>
</event>
<event>
 9    1  0.2054950E-002  0.2750609E+03  0.7818608E-02  0.1098418E+00
          1   -1    0    0  501    0  0.00000000000E+00  0.00000000000E+00  0.49250265702E+03  0.49250265702E+03  0.00000000000E+00 0.  1.
         -1   -1    0    0    0  501 -0.00000000000E+00 -0.00000000000E+00 -0.38405126003E+02  0.38405126003E+02  0.00000000000E+00 0.  1.
         36    2    1    2    0    0 -0.35527136788E-14 -0.35527136788E-14  0.45409753102E+03  0.53090778303E+03  0.27506091398E+03 0.  0.
         25    2    3    3    0    0  0.12170452452E+02 -0.27460136761E+02  0.14018722634E+03  0.19185482132E+03  0.12748974473E+03 0.  0.
         25    2    3    3    0    0 -0.12170452452E+02  0.27460136761E+02  0.31391030468E+03  0.33905296170E+03  0.12455943333E+03 0.  0.
          5    1    4    4  502    0 -0.12895475698E+02  0.29109014882E+02 -0.62761663592E+01  0.32788844216E+02  0.47000000000E+01 0. -1.
         -5    1    4    4    0  502  0.25065928149E+02 -0.56569151643E+02  0.14646339270E+03  0.15906597711E+03  0.47000000000E+01 0. -1.
          5    1    5    5  503    0 -0.13532615833E+02 -0.32885287202E+01  0.30675347847E+03  0.30710540970E+03  0.47000000000E+01 0.  1.
         -5    1    5    5    0  503  0.13621633815E+01  0.30748665481E+02  0.71568262134E+01  0.31947552009E+02  0.47000000000E+01 0.  1.
<mgrwt>
<rscale>  0 0.27506091E+03</rscale>
<asrwt>0</asrwt>
<pdfrwt beam="1">  1        1 0.75769635E-01 0.27506091E+03</pdfrwt>
<pdfrwt beam="2">  1       -1 0.59084813E-02 0.27506091E+03</pdfrwt>
<totfact> 0.62716955E+03</totfact>
</mgrwt>
</event>
<event>
 9    1  0.2054950E-002  0.2748958E+03  0.7818608E-02  0.1098510E+00
          4   -1    0    0  501    0  0.00000000000E+00  0.00000000000E+00  0.90440242881E+03  0.90440242881E+03  0.00000000000E+00 0.  1.
         -4   -1    0    0    0  501 -0.00000000000E+00 -0.00000000000E+00 -0.20888844994E+02  0.20888844994E+02  0.00000000000E+00 0.  1.
         36    2    1    2    0    0  0.00000000000E+00  0.71054273576E-14  0.88351358382E+03  0.92529127381E+03  0.27489577769E+03 0.  0.
         25    2    3    3    0    0  0.28294735671E+02  0.52209364533E+02  0.28400023045E+03  0.31329599236E+03  0.11820253011E+03 0.  0.
         25    2    3    3    0    0 -0.28294735671E+02 -0.52209364533E+02  0.59951335337E+03  0.61199528145E+03  0.10768265332E+03 0.  0.
          5    1    4    4  502    0 -0.31317292443E+02  0.26441971278E+02  0.21300456095E+03  0.21696309280E+03  0.47000000000E+01 0. -1.
         -5    1    4    4    0  502  0.59612028114E+02  0.25767393254E+02  0.70995669492E+02  0.96332899560E+02  0.47000000000E+01 0. -1.
          5    1    5    5  503    0 -0.34386610606E+02 -0.75730462054E+02  0.55364070506E+03  0.55987289823E+03  0.47000000000E+01 0. -1.
         -5    1    5    5    0  503  0.60918749344E+01  0.23521097521E+02  0.45872648311E+02  0.52122383214E+02  0.47000000000E+01 0. -1.
<mgrwt>
<rscale>  0 0.27489578E+03</rscale>
<asrwt>0</asrwt>
<pdfrwt beam="1">  1        4 0.13913880E+00 0.27489578E+03</pdfrwt>
<pdfrwt beam="2">  1       -4 0.32136692E-02 0.27489578E+03</pdfrwt>
<totfact> 0.34723820E+02</totfact>
</mgrwt>
</event>
<event>
 9    1  0.2054950E-002  0.2755727E+03  0.7818608E-02  0.1098132E+00
          3   -1    0    0  501    0  0.00000000000E+00  0.00000000000E+00  0.29328831755E+03  0.29328831755E+03  0.00000000000E+00 0.  1.
         -3   -1    0    0    0  501 -0.00000000000E+00 -0.00000000000E+00 -0.64731786297E+02  0.64731786297E+02  0.00000000000E+00 0.  1.
         36    2    1    2    0    0 -0.35527136788E-14  0.00000000000E+00  0.22855653125E+03  0.35802010385E+03  0.27557268874E+03 0.  0.
         25    2    3    3    0    0 -0.13455560303E+02  0.54212361995E+02  0.14714667706E+03  0.20022425657E+03  0.12376419536E+03 0.  0.
         25    2    3    3    0    0  0.13455560303E+02 -0.54212361995E+02  0.81409854193E+02  0.15779584728E+03  0.12309318731E+03 0.  0.
          5    1    4    4  502    0  0.17829616217E+01  0.10026822337E+02 -0.21990045718E+02  0.24685384927E+02  0.47000000000E+01 0. -1.
         -5    1    4    4    0  502 -0.15238521925E+02  0.44185539658E+02  0.16913672278E+03  0.17553887164E+03  0.47000000000E+01 0. -1.
          5    1    5    5  503    0  0.29731070311E+02  0.33876369420E+02  0.23799064312E+02  0.51186232612E+02  0.47000000000E+01 0.  1.
         -5    1    5    5    0  503 -0.16275510008E+02 -0.88088731415E+02  0.57610789881E+02  0.10660961467E+03  0.47000000000E+01 0.  1.
<mgrwt>
<rscale>  0 0.27557269E+03</rscale>
<asrwt>0</asrwt>
<pdfrwt beam="1">  1        3 0.45121279E-01 0.27557269E+03</pdfrwt>
<pdfrwt beam="2">  1       -3 0.99587365E-02 0.27557269E+03</pdfrwt>
<totfact> 0.92676156E+02</totfact>
</mgrwt>
</event>
<event>
 9    1  0.2054950E-002  0.2757121E+03  0.7818608E-02  0.1098054E+00
         -2   -1    0    0    0  501 -0.00000000000E+00  0.00000000000E+00  0.59443534938E+03  0.59443534938E+03  0.00000000000E+00 0.  1.
          2   -1    0    0  501    0  0.00000000000E+00 -0.00000000000E+00 -0.31970319749E+02  0.31970319749E+02  0.00000000000E+00 0.  1.
         36    2    1    2    0    0  0.00000000000E+00  0.00000000000E+00  0.56246502964E+03  0.62640566913E+03  0.27571208309E+03 0.  0.
         25    2    3    3    0    0 -0.10477437613E+02 -0.12636375266E+00  0.41003058642E+03  0.42858313415E+03  0.12429251150E+03 0.  0.
         25    2    3    3    0    0  0.10477437613E+02  0.12636375266E+00  0.15243444322E+03  0.19782253498E+03  0.12564912733E+03 0.  0.
          5    1    4    4  502    0  0.24781161790E+02  0.26390959364E+02  0.35946006026E+03  0.36130902789E+03  0.47000000000E+01 0.  1.
         -5    1    4    4    0  502 -0.35258599403E+02 -0.26517323117E+02  0.50570526160E+02  0.67274106261E+02  0.47000000000E+01 0.  1.
          5    1    5    5  503    0 -0.13452520456E+02 -0.52147836580E+02  0.12007418323E+03  0.13168244623E+03  0.47000000000E+01 0. -1.
         -5    1    5    5    0  503  0.23929958069E+02  0.52274200332E+02  0.32360259990E+02  0.66140088753E+02  0.47000000000E+01 0. -1.
<mgrwt>
<rscale>  0 0.27571208E+03</rscale>
<asrwt>0</asrwt>
<pdfrwt beam="1">  1        2 0.49185111E-02 0.27571208E+03</pdfrwt>
<pdfrwt beam="2">  1       -2 0.91451585E-01 0.27571208E+03</pdfrwt>
<totfact> 0.16917984E+03</totfact>
</mgrwt>
</event>
<event>
 9    1  0.2054950E-002  0.2753845E+03  0.7818608E-02  0.1098237E+00
         -2   -1    0    0    0  501 -0.00000000000E+00  0.00000000000E+00  0.13874719182E+02  0.13874719182E+02  0.00000000000E+00 0. -1.
          2   -1    0    0  501    0  0.00000000000E+00 -0.00000000000E+00 -0.13664534083E+04  0.13664534083E+04  0.00000000000E+00 0. -1.
         36    2    1    2    0    0  0.00000000000E+00  0.26645352591E-14 -0.13525786891E+04  0.13803281275E+04  0.27538451165E+03 0.  0.
         25    2    3    3    0    0 -0.50644338732E+02  0.32658464754E+01 -0.62467711678E+03  0.63911081655E+03  0.12516237778E+03 0.  0.
         25    2    3    3    0    0  0.50644338732E+02 -0.32658464754E+01 -0.72790157234E+03  0.74121731092E+03  0.13033375696E+03 0.  0.
          5    1    4    4  502    0 -0.20940585769E+02 -0.46390380102E+01 -0.10841085965E+02  0.24487710202E+02  0.47000000000E+01 0.  1.
         -5    1    4    4    0  502 -0.29703752963E+02  0.79048844856E+01 -0.61383603081E+03  0.61462310635E+03  0.47000000000E+01 0.  1.
          5    1    5    5  503    0 -0.34253259935E+02 -0.31300496123E+02 -0.17471457203E+03  0.18083218340E+03  0.47000000000E+01 0. -1.
         -5    1    5    5    0  503  0.84897598667E+02  0.28034649647E+02 -0.55318700031E+03  0.56038512752E+03  0.47000000000E+01 0. -1.
<mgrwt>
<rscale>  0 0.27538451E+03</rscale>
<asrwt>0</asrwt>
<pdfrwt beam="1">  1        2 0.21022363E+00 0.27538451E+03</pdfrwt>
<pdfrwt beam="2">  1       -2 0.21345718E-02 0.27538451E+03</pdfrwt>
<totfact> 0.11316754E+04</totfact>
</mgrwt>
</event>
<event>
 9    1  0.2054950E-002  0.2746160E+03  0.7818608E-02  0.1098666E+00
         -2   -1    0    0    0  501 -0.00000000000E+00  0.00000000000E+00  0.43721351485E+02  0.43721351485E+02  0.00000000000E+00 0. -1.
          2   -1    0    0  501    0  0.00000000000E+00 -0.00000000000E+00 -0.43121913933E+03  0.43121913933E+03  0.00000000000E+00 0. -1.
         36    2    1    2    0    0  0.35527136788E-14  0.71054273576E-14 -0.38749778785E+03  0.47494049082E+03  0.27461597592E+03 0.  0.
         25    2    3    3    0    0  0.12623855039E+02  0.46738490202E+02 -0.24884405965E+03  0.27955740167E+03  0.11783516717E+03 0.  0.
         25    2    3    3    0    0 -0.12623855039E+02 -0.46738490202E+02 -0.13865372820E+03  0.19538308915E+03  0.12886367603E+03 0.  0.
          5    1    4    4  502    0  0.38496921367E+02  0.13165407892E+02 -0.17879948581E+02  0.44689187517E+02  0.47000000000E+01 0. -1.
         -5    1    4    4    0  502 -0.25873066328E+02  0.33573082311E+02 -0.23096411107E+03  0.23486821415E+03  0.47000000000E+01 0. -1.
          5    1    5    5  503    0 -0.64875698640E+02 -0.54013191256E+02 -0.80851553417E+02  0.11698437842E+03  0.47000000000E+01 0. -1.
         -5    1    5    5    0  503  0.52251843601E+02  0.72747010538E+01 -0.57802174783E+02  0.78398710734E+02  0.47000000000E+01 0. -1.
<mgrwt>
<rscale>  0 0.27461598E+03</rscale>
<asrwt>0</asrwt>
<pdfrwt beam="1">  1        2 0.66341408E-01 0.27461598E+03</pdfrwt>
<pdfrwt beam="2">  1       -2 0.67263616E-02 0.27461598E+03</pdfrwt>
<totfact> 0.90513946E+03</totfact>
</mgrwt>
</event>
<event>
 9    1  0.2054950E-002  0.2747348E+03  0.7818608E-02  0.1098600E+00
         -2   -1    0    0    0  501 -0.00000000000E+00  0.00000000000E+00  0.16157995683E+02  0.16157995683E+02  0.00000000000E+00 0. -1.
          2   -1    0    0  501    0  0.00000000000E+00 -0.00000000000E+00 -0.11678308871E+04  0.11678308871E+04  0.00000000000E+00 0. -1.
         36    2    1    2    0    0  0.00000000000E+00  0.71054273576E-14 -0.11516728914E+04  0.11839888828E+04  0.27473482802E+03 0.  0.
         25    2    3    3    0    0 -0.13633033861E+02 -0.62168494692E+02 -0.61070827352E+03  0.62594619382E+03  0.12162754978E+03 0.  0.
         25    2    3    3    0    0  0.13633033861E+02  0.62168494692E+02 -0.54096461792E+03  0.55804268898E+03  0.12131835618E+03 0.  0.
          5    1    4    4  502    0 -0.66807659293E+02 -0.34807860308E+02 -0.28902650941E+03  0.29871937269E+03  0.47000000000E+01 0.  1.
         -5    1    4    4    0  502  0.53174625432E+02 -0.27360634384E+02 -0.32168176411E+03  0.32722682113E+03  0.47000000000E+01 0.  1.
          5    1    5    5  503    0  0.67069612960E+02  0.39269539631E+02 -0.27880904084E+03  0.28947711650E+03  0.47000000000E+01 0. -1.
         -5    1    5    5    0  503 -0.53436579099E+02  0.22898955061E+02 -0.26215557708E+03  0.26856557248E+03  0.47000000000E+01 0. -1.
<mgrwt>
<rscale>  0 0.27473483E+03</rscale>
<asrwt>0</asrwt>
<pdfrwt beam="1">  1        2 0.17966626E+00 0.27473483E+03</pdfrwt>
<pdfrwt beam="2">  1       -2 0.24858459E-02 0.27473483E+03</pdfrwt>
<totfact> 0.11667608E+04</totfact>
</mgrwt>
</event>
<event>
 9    1  0.2054950E-002  0.2767576E+03  0.7818608E-02  0.1097473E+00
          1   -1    0    0  501    0  0.00000000000E+00  0.00000000000E+00  0.18516049633E+04  0.18516049633E+04  0.00000000000E+00 0. -1.
         -1   -1    0    0    0  501 -0.00000000000E+00 -0.00000000000E+00 -0.10341673945E+02  0.10341673945E+02  0.00000000000E+00 0. -1.
         36    2    1    2    0    0  0.00000000000E+00 -0.71054273576E-14  0.18412632893E+04  0.18619466372E+04  0.27675761818E+03 0.  0.
         25    2    3    3    0    0 -0.37420491969E+02 -0.60229979697E+02  0.88967083057E+03  0.90080253543E+03  0.12207816105E+03 0.  0.
         25    2    3    3    0    0  0.37420491969E+02  0.60229979697E+02  0.95159245876E+03  0.96114410179E+03  0.11507316435E+03 0.  0.
          5    1    4    4  502    0 -0.58858842696E+02 -0.16210857734E+02  0.75414816822E+03  0.75662983348E+03  0.47000000000E+01 0. -1.
         -5    1    4    4    0  502  0.21438350727E+02 -0.44019121964E+02  0.13552266235E+03  0.14417270196E+03  0.47000000000E+01 0. -1.
          5    1    5    5  503    0 -0.10083312996E+02  0.25861051977E+02  0.76460485544E+03  0.76512295886E+03  0.47000000000E+01 0. -1.
         -5    1    5    5    0  503  0.47503804965E+02  0.34368927720E+02  0.18698760332E+03  0.19602114293E+03  0.47000000000E+01 0. -1.
<mgrwt>
<rscale>  0 0.27675762E+03</rscale>
<asrwt>0</asrwt>
<pdfrwt beam="1">  1        1 0.28486204E+00 0.27675762E+03</pdfrwt>
<pdfrwt beam="2">  1       -1 0.15910282E-02 0.27675762E+03</pdfrwt>
<totfact> 0.40344980E+03</totfact>
</mgrwt>
</event>
<event>
 9    1  0.2054950E-002  0.2771253E+03  0.7818608E-02  0.1097269E+00
         -2   -1    0    0    0  501 -0.00000000000E+00  0.00000000000E+00  0.59100931393E+02  0.59100931393E+02  0.00000000000E+00 0. -1.
          2   -1    0    0  501    0  0.00000000000E+00 -0.00000000000E+00 -0.32486143523E+03  0.32486143523E+03  0.00000000000E+00 0. -1.
         36    2    1    2    0    0  0.00000000000E+00  0.00000000000E+00 -0.26576050383E+03  0.38396236662E+03  0.27712533912E+03 0.  0.
         25    2    3    3    0    0 -0.81700892965E+01  0.58534907644E+02 -0.14833514191E+03  0.20336901220E+03  0.12594663562E+03 0.  0.
         25    2    3    3    0    0  0.81700892965E+01 -0.58534907644E+02 -0.11742536192E+03  0.18059335442E+03  0.12382309262E+03 0.  0.
          5    1    4    4  502    0  0.47885652895E+02  0.38696224738E+02 -0.25474394565E+02  0.66794223856E+02  0.47000000000E+01 0.  1.
         -5    1    4    4    0  502 -0.56055742191E+02  0.19838682906E+02 -0.12286074735E+03  0.13657478834E+03  0.47000000000E+01 0.  1.
          5    1    5    5  503    0  0.24640945409E+02  0.26742251639E+01  0.18002286304E+02  0.30991934161E+02  0.47000000000E+01 0. -1.
         -5    1    5    5    0  503 -0.16470856112E+02 -0.61209132808E+02 -0.13542764823E+03  0.14960142026E+03  0.47000000000E+01 0. -1.
<mgrwt>
<rscale>  0 0.27712534E+03</rscale>
<asrwt>0</asrwt>
<pdfrwt beam="1">  1        2 0.49978684E-01 0.27712534E+03</pdfrwt>
<pdfrwt beam="2">  1       -2 0.90924508E-02 0.27712534E+03</pdfrwt>
<totfact> 0.76897262E+03</totfact>
</mgrwt>
</event>
<event>
 9    1  0.2054950E-002  0.2765736E+03  0.7818608E-02  0.1097575E+00
          4   -1    0    0  501    0  0.00000000000E+00  0.00000000000E+00  0.72843943998E+02  0.72843943998E+02  0.00000000000E+00 0. -1.
         -4   -1    0    0    0  501 -0.00000000000E+00 -0.00000000000E+00 -0.26252336198E+03  0.26252336198E+03  0.00000000000E+00 0. -1.
         36    2    1    2    0    0 -0.35527136788E-14 -0.71054273576E-14 -0.18967941798E+03  0.33536730598E+03  0.27657358571E+03 0.  0.
         25    2    3    3    0    0 -0.35647956877E+01  0.20286270442E+02 -0.16856255346E+03  0.21019672765E+03  0.12387529758E+03 0.  0.
         25    2    3    3    0    0  0.35647956877E+01 -0.20286270442E+02 -0.21116864525E+02  0.12517057833E+03  0.12164502116E+03 0.  0.
          5    1    4    4  502    0 -0.39212052730E+02  0.14104013401E+02 -0.16857558252E+03  0.17371334230E+03  0.47000000000E+01 0.  1.
         -5    1    4    4    0  502  0.35647257043E+02  0.61822570410E+01  0.13029060334E-01  0.36483385349E+02  0.47000000000E+01 0.  1.
          5    1    5    5  503    0 -0.23774588693E+02  0.45355617984E+02 -0.15391089998E+02  0.53678103558E+02  0.47000000000E+01 0.  1.
         -5    1    5    5    0  503  0.27339384381E+02 -0.65641888426E+02 -0.57257745267E+01  0.71492474767E+02  0.47000000000E+01 0.  1.
<mgrwt>
<rscale>  0 0.27657359E+03</rscale>
<asrwt>0</asrwt>
<pdfrwt beam="1">  1        4 0.11206761E-01 0.27657359E+03</pdfrwt>
<pdfrwt beam="2">  1       -4 0.40388210E-01 0.27657359E+03</pdfrwt>
<totfact> 0.69966499E+02</totfact>
</mgrwt>
</event>
<event>
 9    1  0.2054950E-002  0.2791269E+03  0.7818608E-02  0.1096167E+00
         -2   -1    0    0    0  501 -0.00000000000E+00  0.00000000000E+00  0.13888385887E+03  0.13888385887E+03  0.00000000000E+00 0.  1.
          2   -1    0    0  501    0  0.00000000000E+00 -0.00000000000E+00 -0.14024639434E+03  0.14024639434E+03  0.00000000000E+00 0.  1.
         36    2    1    2    0    0  0.00000000000E+00 -0.71054273576E-14 -0.13625354731E+01  0.27913025321E+03  0.27912692768E+03 0.  0.
         25    2    3    3    0    0 -0.34422660864E+02 -0.44330737979E+02  0.39399963052E+02  0.13746027084E+03  0.11913368567E+03 0.  0.
         25    2    3    3    0    0  0.34422660864E+02  0.44330737979E+02 -0.40762498525E+02  0.14166998237E+03  0.12352598394E+03 0.  0.
          5    1    4    4  502    0 -0.51703511220E+02  0.24403159120E+02  0.25044836252E+01  0.57420638152E+02  0.47000000000E+01 0. -1.
         -5    1    4    4    0  502  0.17280850357E+02 -0.68733897099E+02  0.36895479426E+02  0.80039632692E+02  0.47000000000E+01 0. -1.
          5    1    5    5  503    0  0.75431159075E+02  0.50319662461E+02 -0.13383958887E+02  0.91777712681E+02  0.47000000000E+01 0.  1.
         -5    1    5    5    0  503 -0.41008498211E+02 -0.59889244821E+01 -0.27378539638E+02  0.49892269689E+02  0.47000000000E+01 0.  1.
<mgrwt>
<rscale>  0 0.27912693E+03</rscale>
<asrwt>0</asrwt>
<pdfrwt beam="1">  1        2 0.21576368E-01 0.27912693E+03</pdfrwt>
<pdfrwt beam="2">  1       -2 0.21366748E-01 0.27912693E+03</pdfrwt>
<totfact> 0.47408074E+03</totfact>
</mgrwt>
</event>
<event>
 9    1  0.2054950E-002  0.2749813E+03  0.7818608E-02  0.1098462E+00
          2   -1    0    0  501    0  0.00000000000E+00  0.00000000000E+00  0.12260758549E+02  0.12260758549E+02  0.00000000000E+00 0.  1.
         -2   -1    0    0    0  501 -0.00000000000E+00 -0.00000000000E+00 -0.15418037815E+04  0.15418037815E+04  0.00000000000E+00 0.  1.
         36    2    1    2    0    0  0.00000000000E+00  0.00000000000E+00 -0.15295430229E+04  0.15540645400E+04  0.27498133678E+03 0.  0.
         25    2    3    3    0    0  0.31361976908E+02 -0.22132217768E+02 -0.57999038077E+03  0.59558168060E+03  0.12982791616E+03 0.  0.
         25    2    3    3    0    0 -0.31361976908E+02  0.22132217768E+02 -0.94955264214E+03  0.95848285941E+03  0.12476282675E+03 0.  0.
          5    1    4    4  502    0 -0.65738083919E+01 -0.29211954054E+02 -0.25160671323E+02  0.39391656450E+02  0.47000000000E+01 0. -1.
         -5    1    4    4    0  502  0.37935785300E+02  0.70797362858E+01 -0.55482970945E+03  0.55619002415E+03  0.47000000000E+01 0. -1.
          5    1    5    5  503    0 -0.70934148604E+02  0.44400056879E+02 -0.55393883919E+03  0.56024400581E+03  0.47000000000E+01 0. -1.
         -5    1    5    5    0  503  0.39572171695E+02 -0.22267839111E+02 -0.39561380295E+03  0.39823885360E+03  0.47000000000E+01 0. -1.
<mgrwt>
<rscale>  0 0.27498134E+03</rscale>
<asrwt>0</asrwt>
<pdfrwt beam="1">  1        2 0.18862718E-02 0.27498134E+03</pdfrwt>
<pdfrwt beam="2">  1       -2 0.23720042E+00 0.27498134E+03</pdfrwt>
<totfact> 0.50722398E+02</totfact>
</mgrwt>
</event>
<event>
 9    1  0.2054950E-002  0.2740722E+03  0.7818608E-02  0.1098971E+00
          3   -1    0    0  501    0  0.00000000000E+00  0.00000000000E+00  0.47287663605E+02  0.47287663605E+02  0.00000000000E+00 0.  1.
         -3   -1    0    0    0  501 -0.00000000000E+00 -0.00000000000E+00 -0.39712047715E+03  0.39712047715E+03  0.00000000000E+00 0.  1.
         36    2    1    2    0    0  0.00000000000E+00  0.17763568394E-14 -0.34983281354E+03  0.44440814075E+03  0.27407224985E+03 0.  0.
         25    2    3    3    0    0  0.21281145241E+02  0.10403387229E+02 -0.14341433427E+03  0.20304245176E+03  0.14176546947E+03 0.  0.
         25    2    3    3    0    0 -0.21281145241E+02 -0.10403387229E+02 -0.20641847927E+03  0.24136568899E+03  0.12283195687E+03 0.  0.
          5    1    4    4  502    0  0.34937714715E+02  0.19189389070E+02 -0.16826558040E+03  0.17298633504E+03  0.47000000000E+01 0.  1.
         -5    1    4    4    0  502 -0.13656569474E+02 -0.87860018418E+01  0.24851246131E+02  0.30056116722E+02  0.47000000000E+01 0.  1.
          5    1    5    5  503    0  0.37472299586E+02 -0.29747238290E+02 -0.36152890814E+02  0.60151416745E+02  0.47000000000E+01 0.  1.
         -5    1    5    5    0  503 -0.58753444827E+02  0.19343851061E+02 -0.17026558846E+03  0.18121427225E+03  0.47000000000E+01 0.  1.
<mgrwt>
<rscale>  0 0.27407225E+03</rscale>
<asrwt>0</asrwt>
<pdfrwt beam="1">  1        3 0.72750254E-02 0.27407225E+03</pdfrwt>
<pdfrwt beam="2">  1       -3 0.61095456E-01 0.27407225E+03</pdfrwt>
<totfact> 0.83907088E+02</totfact>
</mgrwt>
</event>
<event>
 9    1  0.2054950E-002  0.2751328E+03  0.7818608E-02  0.1098377E+00
         -1   -1    0    0    0  501 -0.00000000000E+00  0.00000000000E+00  0.46902312546E+02  0.46902312546E+02  0.00000000000E+00 0.  1.
          1   -1    0    0  501    0  0.00000000000E+00 -0.00000000000E+00 -0.40348775902E+03  0.40348775902E+03  0.00000000000E+00 0.  1.
         36    2    1    2    0    0  0.00000000000E+00  0.17763568394E-14 -0.35658544648E+03  0.45039007157E+03  0.27513276055E+03 0.  0.
         25    2    3    3    0    0 -0.56386371702E+02  0.14423464942E+02 -0.20002405320E+03  0.24211050549E+03  0.12337104910E+03 0.  0.
         25    2    3    3    0    0  0.56386371702E+02 -0.14423464942E+02 -0.15656139328E+03  0.20827956608E+03  0.12442446916E+03 0.  0.
          5    1    4    4  502    0 -0.90451357753E+01  0.20743258106E+02 -0.19208003304E+03  0.19346556885E+03  0.47000000000E+01 0.  1.
         -5    1    4    4    0  502 -0.47341235927E+02 -0.63197931643E+01 -0.79440201647E+01  0.48644936644E+02  0.47000000000E+01 0.  1.
          5    1    5    5  503    0  0.45157926500E+02 -0.21174515459E+02 -0.17677533295E+03  0.18373678666E+03  0.47000000000E+01 0. -1.
         -5    1    5    5    0  503  0.11228445202E+02  0.67510505166E+01  0.20213939673E+02  0.24542779424E+02  0.47000000000E+01 0. -1.
<mgrwt>
<rscale>  0 0.27513276E+03</rscale>
<asrwt>0</asrwt>
<pdfrwt beam="1">  1        1 0.62075039E-01 0.27513276E+03</pdfrwt>
<pdfrwt beam="2">  1       -1 0.72157405E-02 0.27513276E+03</pdfrwt>
<totfact> 0.60085558E+03</totfact>
</mgrwt>
</event>
<event>
 9    1  0.2054950E-002  0.2760860E+03  0.7818608E-02  0.1097846E+00
         -2   -1    0    0    0  501 -0.00000000000E+00  0.00000000000E+00  0.84087216582E+02  0.84087216582E+02  0.00000000000E+00 0. -1.
          2   -1    0    0  501    0  0.00000000000E+00 -0.00000000000E+00 -0.22662035181E+03  0.22662035181E+03  0.00000000000E+00 0. -1.
         36    2    1    2    0    0  0.14210854715E-13  0.71054273576E-14 -0.14253313522E+03  0.31070756839E+03  0.27608603445E+03 0.  0.
         25    2    3    3    0    0  0.45110231040E+02  0.27386406010E+02 -0.10187988553E+03  0.16899231745E+03  0.12407233416E+03 0.  0.
         25    2    3    3    0    0 -0.45110231040E+02 -0.27386406010E+02 -0.40653249698E+02  0.14171525094E+03  0.12508228275E+03 0.  0.
          5    1    4    4  502    0  0.45478622685E+02 -0.31920937734E+02 -0.93563355997E+02  0.10891943340E+03  0.47000000000E+01 0.  1.
         -5    1    4    4    0  502 -0.36839164482E+00  0.59307343744E+02 -0.83165295289E+01  0.60072884047E+02  0.47000000000E+01 0.  1.
          5    1    5    5  503    0  0.53453809581E+01 -0.16528376651E+02 -0.76573398615E+02  0.78659619295E+02  0.47000000000E+01 0.  1.
         -5    1    5    5    0  503 -0.50455611998E+02 -0.10858029359E+02  0.35920148917E+02  0.63055631642E+02  0.47000000000E+01 0.  1.
<mgrwt>
<rscale>  0 0.27608603E+03</rscale>
<asrwt>0</asrwt>
<pdfrwt beam="1">  1        2 0.34864670E-01 0.27608603E+03</pdfrwt>
<pdfrwt beam="2">  1       -2 0.12936495E-01 0.27608603E+03</pdfrwt>
<totfact> 0.64470497E+03</totfact>
</mgrwt>
</event>
<event>
 9    1  0.2054950E-002  0.2742804E+03  0.7818608E-02  0.1098855E+00
          1   -1    0    0  501    0  0.00000000000E+00  0.00000000000E+00  0.24314806296E+03  0.24314806296E+03  0.00000000000E+00 0.  1.
         -1   -1    0    0    0  501 -0.00000000000E+00 -0.00000000000E+00 -0.77349727395E+02  0.77349727395E+02  0.00000000000E+00 0.  1.
         36    2    1    2    0    0  0.00000000000E+00 -0.17763568394E-14  0.16579833557E+03  0.32049779036E+03  0.27428041408E+03 0.  0.
         25    2    3    3    0    0 -0.52775547042E+02 -0.14735560159E+02  0.63561430287E+02  0.15194453583E+03  0.12666764169E+03 0.  0.
         25    2    3    3    0    0  0.52775547042E+02  0.14735560159E+02  0.10223690528E+03  0.16855325453E+03  0.12229235345E+03 0.  0.
          5    1    4    4  502    0 -0.71313923671E+02 -0.29597403508E+02 -0.66817170943E+01  0.77642883429E+02  0.47000000000E+01 0. -1.
         -5    1    4    4    0  502  0.18538376629E+02  0.14861843349E+02  0.70243147382E+02  0.74301652403E+02  0.47000000000E+01 0. -1.
          5    1    5    5  503    0  0.31977065026E+02 -0.36705004026E+02  0.10171952781E+03  0.11286603717E+03  0.47000000000E+01 0. -1.
         -5    1    5    5    0  503  0.20798482016E+02  0.51440564185E+02  0.51737747348E+00  0.55687217360E+02  0.47000000000E+01 0. -1.
<mgrwt>
<rscale>  0 0.27428041E+03</rscale>
<asrwt>0</asrwt>
<pdfrwt beam="1">  1        1 0.37407394E-01 0.27428041E+03</pdfrwt>
<pdfrwt beam="2">  1       -1 0.11899958E-01 0.27428041E+03</pdfrwt>
<totfact> 0.52731533E+03</totfact>
</mgrwt>
</event>
<event>
 9    1  0.2054950E-002  0.2761422E+03  0.7818608E-02  0.1097815E+00
         -2   -1    0    0    0  501 -0.00000000000E+00  0.00000000000E+00  0.25764752697E+02  0.25764752697E+02  0.00000000000E+00 0. -1.
          2   -1    0    0  501    0  0.00000000000E+00 -0.00000000000E+00 -0.73991114707E+03  0.73991114707E+03  0.00000000000E+00 0. -1.
         36    2    1    2    0    0  0.35527136788E-14  0.71054273576E-14 -0.71414639437E+03  0.76567589977E+03  0.27614219324E+03 0.  0.
         25    2    3    3    0    0 -0.23676538458E+02 -0.32142312154E+02 -0.46577049070E+03  0.48364872872E+03  0.12401707978E+03 0.  0.
         25    2    3    3    0    0  0.23676538458E+02  0.32142312154E+02 -0.24837590367E+03  0.28202717105E+03  0.12749521160E+03 0.  0.
          5    1    4    4  502    0 -0.48809864164E+02  0.15207647268E+01 -0.69168698483E+02  0.84800438766E+02  0.47000000000E+01 0.  1.
         -5    1    4    4    0  502  0.25133325706E+02 -0.33663076881E+02 -0.39660179222E+03  0.39884828995E+03  0.47000000000E+01 0.  1.
          5    1    5    5  503    0  0.11711318326E+01  0.58997199861E+02 -0.23790215811E+03  0.24515621137E+03  0.47000000000E+01 0. -1.
         -5    1    5    5    0  503  0.22505406625E+02 -0.26854887707E+02 -0.10473745556E+02  0.36870959671E+02  0.47000000000E+01 0. -1.
<mgrwt>
<rscale>  0 0.27614219E+03</rscale>
<asrwt>0</asrwt>
<pdfrwt beam="1">  1        2 0.11383250E+00 0.27614219E+03</pdfrwt>
<pdfrwt beam="2">  1       -2 0.39638075E-02 0.27614219E+03</pdfrwt>
<totfact> 0.10873412E+04</totfact>
</mgrwt>
</event>
<event>
 9    1  0.2054950E-002  0.2756899E+03  0.7818608E-02  0.1098067E+00
         -2   -1    0    0    0  501 -0.00000000000E+00  0.00000000000E+00  0.71832704250E+02  0.71832704250E+02  0.00000000000E+00 0. -1.
          2   -1    0    0  501    0  0.00000000000E+00 -0.00000000000E+00 -0.26452056422E+03  0.26452056422E+03  0.00000000000E+00 0. -1.
         36    2    1    2    0    0  0.00000000000E+00  0.00000000000E+00 -0.19268785998E+03  0.33635326847E+03  0.27568987981E+03 0.  0.
         25    2    3    3    0    0 -0.39081968985E+02  0.40819896943E+02 -0.89219751798E+02  0.16351669506E+03  0.12483541631E+03 0.  0.
         25    2    3    3    0    0  0.39081968985E+02 -0.40819896943E+02 -0.10346810818E+03  0.17283657342E+03  0.12638499679E+03 0.  0.
          5    1    4    4  502    0 -0.33557756776E+02  0.28533547861E+02 -0.12090633797E+03  0.12876614056E+03  0.47000000000E+01 0. -1.
         -5    1    4    4    0  502 -0.55242122091E+01  0.12286349083E+02  0.31686586174E+02  0.34750554495E+02  0.47000000000E+01 0. -1.
          5    1    5    5  503    0  0.67879091757E+01 -0.13952690910E+02 -0.12454951984E+03  0.12560026348E+03  0.47000000000E+01 0. -1.
         -5    1    5    5    0  503  0.32294059809E+02 -0.26867206033E+02  0.21081411660E+02  0.47236309938E+02  0.47000000000E+01 0. -1.
<mgrwt>
<rscale>  0 0.27568988E+03</rscale>
<asrwt>0</asrwt>
<pdfrwt beam="1">  1        2 0.40695471E-01 0.27568988E+03</pdfrwt>
<pdfrwt beam="2">  1       -2 0.11051185E-01 0.27568988E+03</pdfrwt>
<totfact> 0.70327541E+03</totfact>
</mgrwt>
</event>
<event>
 9    1  0.2054950E-002  0.2711694E+03  0.7818608E-02  0.1100612E+00
          1   -1    0    0  501    0  0.00000000000E+00  0.00000000000E+00  0.56886460442E+03  0.56886460442E+03  0.00000000000E+00 0.  1.
         -1   -1    0    0    0  501 -0.00000000000E+00 -0.00000000000E+00 -0.32315607063E+02  0.32315607063E+02  0.00000000000E+00 0.  1.
         36    2    1    2    0    0  0.17763568394E-14  0.00000000000E+00  0.53654899735E+03  0.60118021148E+03  0.27116935689E+03 0.  0.
         25    2    3    3    0    0 -0.67130474192E+01 -0.12744742898E+02  0.15127254152E+03  0.19660428142E+03  0.12474922115E+03 0.  0.
         25    2    3    3    0    0  0.67130474192E+01  0.12744742898E+02  0.38527645584E+03  0.40457593006E+03  0.12262235639E+03 0.  0.
          5    1    4    4  502    0 -0.26882131865E+02 -0.59510682070E+02  0.11988007491E+03  0.13659243264E+03  0.47000000000E+01 0.  1.
         -5    1    4    4    0  502  0.20169084446E+02  0.46765939171E+02  0.31392466607E+02  0.60011848777E+02  0.47000000000E+01 0.  1.
          5    1    5    5  503    0  0.72363988492E+01  0.52079255151E+02  0.34141083637E+03  0.34546789066E+03  0.47000000000E+01 0.  1.
         -5    1    5    5    0  503 -0.52335143002E+00 -0.39334512253E+02  0.43865619461E+02  0.59108039399E+02  0.47000000000E+01 0.  1.
<mgrwt>
<rscale>  0 0.27116936E+03</rscale>
<asrwt>0</asrwt>
<pdfrwt beam="1">  1        1 0.87517624E-01 0.27116936E+03</pdfrwt>
<pdfrwt beam="2">  1       -1 0.49716323E-02 0.27116936E+03</pdfrwt>
<totfact> 0.66928309E+03</totfact>
</mgrwt>
</event>
<event>
 9    1  0.2054950E-002  0.2742810E+03  0.7818608E-02  0.1098854E+00
          2   -1    0    0  501    0  0.00000000000E+00  0.00000000000E+00  0.55474119971E+03  0.55474119971E+03  0.00000000000E+00 0.  1.
         -2   -1    0    0    0  501 -0.00000000000E+00 -0.00000000000E+00 -0.33903236327E+02  0.33903236327E+02  0.00000000000E+00 0.  1.
         36    2    1    2    0    0 -0.35527136788E-14  0.71054273576E-14  0.52083796338E+03  0.58864443603E+03  0.27428103831E+03 0.  0.
         25    2    3    3    0    0 -0.18146069642E+02  0.25964327028E+02  0.16764575107E+03  0.21167546664E+03  0.12529157675E+03 0.  0.
         25    2    3    3    0    0  0.18146069642E+02 -0.25964327028E+02  0.35319221231E+03  0.37696896939E+03  0.12789620373E+03 0.  0.
          5    1    4    4  502    0  0.30897386613E+02 -0.28813013511E+02  0.20667752308E+02  0.47266100247E+02  0.47000000000E+01 0. -1.
         -5    1    4    4    0  502 -0.49043456255E+02  0.54777340538E+02  0.14697799876E+03  0.16440936639E+03  0.47000000000E+01 0. -1.
          5    1    5    5  503    0 -0.10676175145E+02  0.41518919985E+02  0.55258794689E+02  0.70095833135E+02  0.47000000000E+01 0. -1.
         -5    1    5    5    0  503  0.28822244787E+02 -0.67483247012E+02  0.29793341762E+03  0.30687313626E+03  0.47000000000E+01 0. -1.
<mgrwt>
<rscale>  0 0.27428104E+03</rscale>
<asrwt>0</asrwt>
<pdfrwt beam="1">  1        2 0.85344794E-01 0.27428104E+03</pdfrwt>
<pdfrwt beam="2">  1       -2 0.52158829E-02 0.27428104E+03</pdfrwt>
<totfact> 0.10092440E+04</totfact>
</mgrwt>
</event>
<event>
 9    1  0.2054950E-002  0.2749029E+03  0.7818608E-02  0.1098506E+00
          4   -1    0    0  501    0  0.00000000000E+00  0.00000000000E+00  0.36819677754E+03  0.36819677754E+03  0.00000000000E+00 0. -1.
         -4   -1    0    0    0  501 -0.00000000000E+00 -0.00000000000E+00 -0.51311953472E+02  0.51311953472E+02  0.00000000000E+00 0. -1.
         36    2    1    2    0    0  0.35527136788E-14  0.00000000000E+00  0.31688482406E+03  0.41950873101E+03  0.27490286224E+03 0.  0.
         25    2    3    3    0    0  0.11940201266E+02 -0.53982335916E+02  0.14400620414E+03  0.19984943440E+03  0.12706434826E+03 0.  0.
         25    2    3    3    0    0 -0.11940201266E+02  0.53982335916E+02  0.17287861992E+03  0.21965929661E+03  0.12371955531E+03 0.  0.
          5    1    4    4  502    0  0.43778868942E+02 -0.16993259270E+02  0.14323794204E+03  0.15081299104E+03  0.47000000000E+01 0. -1.
         -5    1    4    4    0  502 -0.31838667676E+02 -0.36989076645E+02  0.76826210358E+00  0.49036443357E+02  0.47000000000E+01 0. -1.
          5    1    5    5  503    0  0.28324978316E+02  0.13347076443E+02 -0.56210884188E+01  0.32157976945E+02  0.47000000000E+01 0. -1.
         -5    1    5    5    0  503 -0.40265179583E+02  0.40635259472E+02  0.17849970834E+03  0.18750131967E+03  0.47000000000E+01 0. -1.
<mgrwt>
<rscale>  0 0.27490286E+03</rscale>
<asrwt>0</asrwt>
<pdfrwt beam="1">  1        4 0.56645656E-01 0.27490286E+03</pdfrwt>
<pdfrwt beam="2">  1       -4 0.78941469E-02 0.27490286E+03</pdfrwt>
<totfact> 0.63359157E+02</totfact>
</mgrwt>
</event>
<event>
 9    1  0.2054950E-002  0.2752016E+03  0.7818608E-02  0.1098339E+00
         -2   -1    0    0    0  501 -0.00000000000E+00  0.00000000000E+00  0.80818058124E+01  0.80818058124E+01  0.00000000000E+00 0. -1.
          2   -1    0    0  501    0  0.00000000000E+00 -0.00000000000E+00 -0.23427912169E+04  0.23427912169E+04  0.00000000000E+00 0. -1.
         36    2    1    2    0    0  0.00000000000E+00  0.26645352591E-14 -0.23347094111E+04  0.23508730227E+04  0.27520162553E+03 0.  0.
         25    2    3    3    0    0  0.68455092252E+02  0.21498066468E+01 -0.12128874837E+04  0.12211702817E+04  0.12437880703E+03 0.  0.
         25    2    3    3    0    0 -0.68455092252E+02 -0.21498066468E+01 -0.11218219274E+04  0.11297027410E+04  0.11425027265E+03 0.  0.
          5    1    4    4  502    0  0.61537263441E+02  0.75496644185E+01 -0.23068449908E+03  0.23891684817E+03  0.47000000000E+01 0. -1.
         -5    1    4    4    0  502  0.69178288114E+01 -0.53998577717E+01 -0.98220298458E+03  0.98225343356E+03  0.47000000000E+01 0. -1.
          5    1    5    5  503    0 -0.77535559427E+02  0.23727001292E+02 -0.44776270118E+03  0.45506951132E+03  0.47000000000E+01 0.  1.
         -5    1    5    5    0  503  0.90804671751E+01 -0.25876807939E+02 -0.67405922622E+03  0.67463322963E+03  0.47000000000E+01 0.  1.
<mgrwt>
<rscale>  0 0.27520163E+03</rscale>
<asrwt>0</asrwt>
<pdfrwt beam="1">  1        2 0.36042950E+00 0.27520163E+03</pdfrwt>
<pdfrwt beam="2">  1       -2 0.12433545E-02 0.27520163E+03</pdfrwt>
<totfact> 0.75796459E+03</totfact>
</mgrwt>
</event>
<event>
 9    1  0.2054950E-002  0.2784279E+03  0.7818608E-02  0.1096551E+00
         -1   -1    0    0    0  501 -0.00000000000E+00  0.00000000000E+00  0.10431027169E+02  0.10431027169E+02  0.00000000000E+00 0. -1.
          1   -1    0    0  501    0  0.00000000000E+00 -0.00000000000E+00 -0.18579690486E+04  0.18579690486E+04  0.00000000000E+00 0. -1.
         36    2    1    2    0    0  0.35527136788E-14  0.71054273576E-14 -0.18475380215E+04  0.18684000758E+04  0.27842791258E+03 0.  0.
         25    2    3    3    0    0 -0.68168113899E+01 -0.23844490604E+02 -0.12758592981E+04  0.12827344162E+04  0.13029046442E+03 0.  0.
         25    2    3    3    0    0  0.68168113899E+01  0.23844490604E+02 -0.57167872332E+03  0.58566565963E+03  0.12479051857E+03 0.  0.
          5    1    4    4  502    0  0.87643017393E+01 -0.74528611487E+02 -0.89824227189E+03  0.90138371182E+03  0.47000000000E+01 0. -1.
         -5    1    4    4    0  502 -0.15581113129E+02  0.50684120883E+02 -0.37761702625E+03  0.38135070435E+03  0.47000000000E+01 0. -1.
          5    1    5    5  503    0 -0.20912135249E+02  0.69983896540E+02 -0.32692913604E+03  0.33502210848E+03  0.47000000000E+01 0.  1.
         -5    1    5    5    0  503  0.27728946639E+02 -0.46139405937E+02 -0.24474958727E+03  0.25064355115E+03  0.47000000000E+01 0.  1.
<mgrwt>
<rscale>  0 0.27842791E+03</rscale>
<asrwt>0</asrwt>
<pdfrwt beam="1">  1        1 0.28584099E+00 0.27842791E+03</pdfrwt>
<pdfrwt beam="2">  1       -1 0.16047757E-02 0.27842791E+03</pdfrwt>
<totfact> 0.39464651E+03</totfact>
</mgrwt>
</event>
<event>
 9    1  0.2054950E-002  0.2759652E+03  0.7818608E-02  0.1097913E+00
         -2   -1    0    0    0  501 -0.00000000000E+00  0.00000000000E+00  0.19684006054E+02  0.19684006054E+02  0.00000000000E+00 0. -1.
          2   -1    0    0  501    0  0.00000000000E+00 -0.00000000000E+00 -0.96724227315E+03  0.96724227315E+03  0.00000000000E+00 0. -1.
         36    2    1    2    0    0  0.71054273576E-14  0.71054273576E-14 -0.94755826709E+03  0.98692627920E+03  0.27596523521E+03 0.  0.
         25    2    3    3    0    0  0.51594229313E+02  0.41009681502E+02 -0.27901634963E+03  0.30357930906E+03  0.99832434867E+02 0.  0.
         25    2    3    3    0    0 -0.51594229313E+02 -0.41009681502E+02 -0.66854191746E+03  0.68334697014E+03  0.12518397551E+03 0.  0.
          5    1    4    4  502    0  0.34541569855E+02  0.22964860264E+01 -0.24914000653E+03  0.25157747663E+03  0.47000000000E+01 0. -1.
         -5    1    4    4    0  502  0.17052659458E+02  0.38713195476E+02 -0.29876343107E+02  0.52001832429E+02  0.47000000000E+01 0. -1.
          5    1    5    5  503    0 -0.22049276776E+02 -0.69327815774E+02 -0.19780943664E+03  0.21081551145E+03  0.47000000000E+01 0. -1.
         -5    1    5    5    0  503 -0.29544952537E+02  0.28318134272E+02 -0.47073248082E+03  0.47253145869E+03  0.47000000000E+01 0. -1.
<mgrwt>
<rscale>  0 0.27596524E+03</rscale>
<asrwt>0</asrwt>
<pdfrwt beam="1">  1        2 0.14880649E+00 0.27596524E+03</pdfrwt>
<pdfrwt beam="2">  1       -2 0.30283089E-02 0.27596524E+03</pdfrwt>
<totfact> 0.11464529E+04</totfact>
</mgrwt>
</event>
<event>
 9    1  0.2054950E-002  0.2751027E+03  0.7818608E-02  0.1098394E+00
          2   -1    0    0  501    0  0.00000000000E+00  0.00000000000E+00  0.75002775705E+03  0.75002775705E+03  0.00000000000E+00 0. -1.
         -2   -1    0    0    0  501 -0.00000000000E+00 -0.00000000000E+00 -0.25226239798E+02  0.25226239798E+02  0.00000000000E+00 0. -1.
         36    2    1    2    0    0  0.35527136788E-14  0.71054273576E-14  0.72480151725E+03  0.77525399684E+03  0.27510274484E+03 0.  0.
         25    2    3    3    0    0  0.14745719270E+02 -0.38399346319E+02  0.48705197977E+03  0.50472099179E+03  0.12582409358E+03 0.  0.
         25    2    3    3    0    0 -0.14745719270E+02  0.38399346319E+02  0.23774953748E+03  0.27053300505E+03  0.12235733821E+03 0.  0.
          5    1    4    4  502    0  0.58363210095E+02 -0.27033471405E+02  0.41223426729E+03  0.41724843199E+03  0.47000000000E+01 0. -1.
         -5    1    4    4    0  502 -0.43617490824E+02 -0.11365874914E+02  0.74817712480E+02  0.87472559806E+02  0.47000000000E+01 0. -1.
          5    1    5    5  503    0 -0.13784350273E+02  0.66931035432E+02  0.23083858723E+03  0.24078686669E+03  0.47000000000E+01 0.  1.
         -5    1    5    5    0  503 -0.96136899742E+00 -0.28531689113E+02  0.69109502512E+01  0.29746138360E+02  0.47000000000E+01 0.  1.
<mgrwt>
<rscale>  0 0.27510274E+03</rscale>
<asrwt>0</asrwt>
<pdfrwt beam="1">  1        2 0.11538887E+00 0.27510274E+03</pdfrwt>
<pdfrwt beam="2">  1       -2 0.38809605E-02 0.27510274E+03</pdfrwt>
<totfact> 0.11035352E+04</totfact>
</mgrwt>
</event>
<event>
 9    1  0.2054950E-002  0.2749105E+03  0.7818608E-02  0.1098502E+00
         -2   -1    0    0    0  501 -0.00000000000E+00  0.00000000000E+00  0.13876270812E+02  0.13876270812E+02  0.00000000000E+00 0.  1.
          2   -1    0    0  501    0  0.00000000000E+00 -0.00000000000E+00 -0.13616010304E+04  0.13616010304E+04  0.00000000000E+00 0.  1.
         36    2    1    2    0    0  0.00000000000E+00  0.00000000000E+00 -0.13477247595E+04  0.13754773012E+04  0.27491049187E+03 0.  0.
         25    2    3    3    0    0  0.42028673261E+02 -0.13708521695E+02 -0.49538401558E+03  0.51307978917E+03  0.12606035945E+03 0.  0.
         25    2    3    3    0    0 -0.42028673261E+02  0.13708521695E+02 -0.85234074397E+03  0.86239751199E+03  0.12365432434E+03 0.  0.
          5    1    4    4  502    0  0.77832568709E+02 -0.37484623249E+02 -0.38337592268E+03  0.39301678567E+03  0.47000000000E+01 0.  1.
         -5    1    4    4    0  502 -0.35803895447E+02  0.23776101554E+02 -0.11200809290E+03  0.12006300350E+03  0.47000000000E+01 0.  1.
          5    1    5    5  503    0  0.90843521512E+01  0.29419361505E+01 -0.71949980447E+03  0.71957851488E+03  0.47000000000E+01 0.  1.
         -5    1    5    5    0  503 -0.51113025413E+02  0.10766585544E+02 -0.13284093949E+03  0.14281899711E+03  0.47000000000E+01 0.  1.
<mgrwt>
<rscale>  0 0.27491049E+03</rscale>
<asrwt>0</asrwt>
<pdfrwt beam="1">  1        2 0.20947706E+00 0.27491049E+03</pdfrwt>
<pdfrwt beam="2">  1       -2 0.21348111E-02 0.27491049E+03</pdfrwt>
<totfact> 0.11383734E+04</totfact>
</mgrwt>
</event>
<event>
 9    1  0.2054950E-002  0.2761904E+03  0.7818608E-02  0.1097788E+00
         -2   -1    0    0    0  501 -0.00000000000E+00  0.00000000000E+00  0.12429464852E+04  0.12429464852E+04  0.00000000000E+00 0. -1.
          2   -1    0    0  501    0  0.00000000000E+00 -0.00000000000E+00 -0.15342809137E+02  0.15342809137E+02  0.00000000000E+00 0. -1.
         36    2    1    2    0    0 -0.35527136788E-14  0.35527136788E-14  0.12276036760E+04  0.12582892943E+04  0.27619044654E+03 0.  0.
         25    2    3    3    0    0  0.28241145684E+02  0.57517163168E+01  0.38095811135E+03  0.40202809113E+03  0.12516732362E+03 0.  0.
         25    2    3    3    0    0 -0.28241145684E+02 -0.57517163168E+01  0.84664556469E+03  0.85626120319E+03  0.12467514317E+03 0.  0.
          5    1    4    4  502    0  0.15709538966E+02  0.62830738043E+02  0.14466110804E+03  0.15856676019E+03  0.47000000000E+01 0.  1.
         -5    1    4    4    0  502  0.12531606718E+02 -0.57079021726E+02  0.23629700331E+03  0.24346133094E+03  0.47000000000E+01 0.  1.
          5    1    5    5  503    0 -0.49528489509E+02  0.28026255500E+02  0.19022265483E+03  0.19860838522E+03  0.47000000000E+01 0.  1.
         -5    1    5    5    0  503  0.21287343825E+02 -0.33777971817E+02  0.65642290986E+03  0.65765281796E+03  0.47000000000E+01 0.  1.
<mgrwt>
<rscale>  0 0.27619045E+03</rscale>
<asrwt>0</asrwt>
<pdfrwt beam="1">  1        2 0.23604331E-02 0.27619045E+03</pdfrwt>
<pdfrwt beam="2">  1       -2 0.19122246E+00 0.27619045E+03</pdfrwt>
<totfact> 0.71505991E+02</totfact>
</mgrwt>
</event>
<event>
 9    1  0.2054950E-002  0.2746645E+03  0.7818608E-02  0.1098639E+00
         -2   -1    0    0    0  501 -0.00000000000E+00  0.00000000000E+00  0.17590705535E+03  0.17590705535E+03  0.00000000000E+00 0. -1.
          2   -1    0    0  501    0  0.00000000000E+00 -0.00000000000E+00 -0.10721651545E+03  0.10721651545E+03  0.00000000000E+00 0. -1.
         36    2    1    2    0    0  0.00000000000E+00  0.00000000000E+00  0.68690539899E+02  0.28312357080E+03  0.27466446088E+03 0.  0.
         25    2    3    3    0    0  0.18214659228E+02 -0.47885703374E+02  0.72684539283E+02  0.14804589136E+03  0.11836270232E+03 0.  0.
         25    2    3    3    0    0 -0.18214659228E+02  0.47885703374E+02 -0.39939993838E+01  0.13507767944E+03  0.12492082714E+03 0.  0.
          5    1    4    4  502    0 -0.32798091740E+02  0.20112925869E+02  0.45970455194E+01  0.39031620980E+02  0.47000000000E+01 0. -1.
         -5    1    4    4    0  502  0.51012750969E+02 -0.67998629243E+02  0.68087493764E+02  0.10901427038E+03  0.47000000000E+01 0. -1.
          5    1    5    5  503    0 -0.17807834692E+02  0.61065253555E+02 -0.53737525714E+02  0.83402013393E+02  0.47000000000E+01 0. -1.
         -5    1    5    5    0  503 -0.40682453672E+00 -0.13179550181E+02  0.49743526330E+02  0.51675666043E+02  0.47000000000E+01 0. -1.
<mgrwt>
<rscale>  0 0.27466446E+03</rscale>
<asrwt>0</asrwt>
<pdfrwt beam="1">  1        2 0.16494849E-01 0.27466446E+03</pdfrwt>
<pdfrwt beam="2">  1       -2 0.27062624E-01 0.27466446E+03</pdfrwt>
<totfact> 0.42660930E+03</totfact>
</mgrwt>
</event>
<event>
 9    1  0.2054950E-002  0.2740098E+03  0.7818608E-02  0.1099006E+00
          2   -1    0    0  501    0  0.00000000000E+00  0.00000000000E+00  0.10074292679E+04  0.10074292679E+04  0.00000000000E+00 0. -1.
         -2   -1    0    0    0  501 -0.00000000000E+00 -0.00000000000E+00 -0.18631916262E+02  0.18631916262E+02  0.00000000000E+00 0. -1.
         36    2    1    2    0    0 -0.71054273576E-14 -0.88817841970E-15  0.98879735168E+03  0.10260611842E+04  0.27400976450E+03 0.  0.
         25    2    3    3    0    0  0.52834242870E+02 -0.23351464905E+00  0.46687384736E+03  0.48672883821E+03  0.12705219734E+03 0.  0.
         25    2    3    3    0    0 -0.52834242870E+02  0.23351464905E+00  0.52192350432E+03  0.53933234599E+03  0.12523467301E+03 0.  0.
          5    1    4    4  502    0 -0.31358942512E+02  0.31361916277E+02  0.20531165993E+03  0.21009978765E+03  0.47000000000E+01 0.  1.
         -5    1    4    4    0  502  0.84193185382E+02 -0.31595430926E+02  0.26156218743E+03  0.27662905056E+03  0.47000000000E+01 0.  1.
          5    1    5    5  503    0 -0.78425210731E+02 -0.64784127092E+01  0.18188784646E+03  0.19823663183E+03  0.47000000000E+01 0. -1.
         -5    1    5    5    0  503  0.25590967861E+02  0.67119273582E+01  0.34003565786E+03  0.34109571416E+03  0.47000000000E+01 0. -1.
<mgrwt>
<rscale>  0 0.27400976E+03</rscale>
<asrwt>0</asrwt>
<pdfrwt beam="1">  1        2 0.15498908E+00 0.27400976E+03</pdfrwt>
<pdfrwt beam="2">  1       -2 0.28664494E-02 0.27400976E+03</pdfrwt>
<totfact> 0.11748223E+04</totfact>
</mgrwt>
</event>
<event>
 9    1  0.2054950E-002  0.2740666E+03  0.7818608E-02  0.1098975E+00
          2   -1    0    0  501    0  0.00000000000E+00  0.00000000000E+00  0.45907413063E+02  0.45907413063E+02  0.00000000000E+00 0. -1.
         -2   -1    0    0    0  501 -0.00000000000E+00 -0.00000000000E+00 -0.40904330293E+03  0.40904330293E+03  0.00000000000E+00 0. -1.
         36    2    1    2    0    0  0.71054273576E-14 -0.14210854715E-13 -0.36313588986E+03  0.45495071599E+03  0.27406656029E+03 0.  0.
         25    2    3    3    0    0 -0.21731051372E+02  0.42153654636E+02 -0.15669156832E+03  0.20930510912E+03  0.13041170165E+03 0.  0.
         25    2    3    3    0    0  0.21731051372E+02 -0.42153654636E+02 -0.20644432155E+03  0.24564560687E+03  0.12439186904E+03 0.  0.
          5    1    4    4  502    0 -0.53077027432E+02  0.62819873391E+02 -0.14964036513E+03  0.17081521071E+03  0.47000000000E+01 0. -1.
         -5    1    4    4    0  502  0.31345976060E+02 -0.20666218754E+02 -0.70512031822E+01  0.38489898403E+02  0.47000000000E+01 0. -1.
          5    1    5    5  503    0 -0.31722360223E+02 -0.66713159510E+02 -0.11030427389E+03  0.13283853593E+03  0.47000000000E+01 0. -1.
         -5    1    5    5    0  503  0.53453411594E+02  0.24559504874E+02 -0.96140047654E+02  0.11280707094E+03  0.47000000000E+01 0. -1.
<mgrwt>
<rscale>  0 0.27406656E+03</rscale>
<asrwt>0</asrwt>
<pdfrwt beam="1">  1        2 0.70626785E-02 0.27406656E+03</pdfrwt>
<pdfrwt beam="2">  1       -2 0.62929743E-01 0.27406656E+03</pdfrwt>
<totfact> 0.23827925E+03</totfact>
</mgrwt>
</event>
<event>
 9    1  0.2054950E-002  0.2741961E+03  0.7818608E-02  0.1098902E+00
         -3   -1    0    0    0  501 -0.00000000000E+00  0.00000000000E+00  0.87950406839E+03  0.87950406839E+03  0.00000000000E+00 0.  1.
          3   -1    0    0  501    0  0.00000000000E+00 -0.00000000000E+00 -0.21371000536E+02  0.21371000536E+02  0.00000000000E+00 0.  1.
         36    2    1    2    0    0  0.00000000000E+00  0.00000000000E+00  0.85813306785E+03  0.90087506892E+03  0.27419614816E+03 0.  0.
         25    2    3    3    0    0  0.41922632530E+02 -0.18698987757E+02  0.52826066978E+03  0.54509445950E+03  0.12633873228E+03 0.  0.
         25    2    3    3    0    0 -0.41922632530E+02  0.18698987757E+02  0.32987239807E+03  0.35578060943E+03  0.12512747010E+03 0.  0.
          5    1    4    4  502    0  0.89033595798E+01  0.15552905286E+02  0.43810933632E+01  0.19038031770E+02  0.47000000000E+01 0.  1.
         -5    1    4    4    0  502  0.33019272950E+02 -0.34251893042E+02  0.52387957642E+03  0.52605642773E+03  0.47000000000E+01 0.  1.
          5    1    5    5  503    0  0.56096747506E+01 -0.86673451002E+01  0.28371497530E+03  0.28394166396E+03  0.47000000000E+01 0.  1.
         -5    1    5    5    0  503 -0.47532307280E+02  0.27366332857E+02  0.46157422772E+02  0.71838945471E+02  0.47000000000E+01 0.  1.
<mgrwt>
<rscale>  0 0.27419615E+03</rscale>
<asrwt>0</asrwt>
<pdfrwt beam="1">  1        3 0.32878469E-02 0.27419615E+03</pdfrwt>
<pdfrwt beam="2">  1       -3 0.13530829E+00 0.27419615E+03</pdfrwt>
<totfact> 0.49497239E+02</totfact>
</mgrwt>
</event>
<event>
 8    1  0.2054950E-002  0.2924758E+03  0.7818608E-02  0.1089064E+00
         -1   -1    0    0    0  501 -0.00000000000E+00  0.00000000000E+00  0.82649374500E+02  0.82649374500E+02  0.00000000000E+00 0.  1.
          1   -1    0    0  501    0  0.00000000000E+00 -0.00000000000E+00 -0.25874997278E+03  0.25874997278E+03  0.00000000000E+00 0.  1.
         25    2    1    2    0    0 -0.17185845739E+02 -0.31767497107E+02 -0.70135101278E+01  0.12673436132E+03  0.12127605637E+03 0.  0.
         25    2    1    2    0    0  0.17185845739E+02  0.31767497107E+02 -0.16908708815E+03  0.21466498596E+03  0.12722454815E+03 0.  0.
          5    1    3    3  502    0  0.37977340786E+02  0.25339035561E+02  0.54787022855E+01  0.46221762353E+02  0.47000000000E+01 0.  1.
         -5    1    3    3    0  502 -0.55163186525E+02 -0.57106532668E+02 -0.12492212413E+02  0.80512598964E+02  0.47000000000E+01 0.  1.
          5    1    4    4  503    0 -0.25195964340E+02 -0.31894839274E+02 -0.11162723995E+03  0.11889006725E+03  0.47000000000E+01 0.  1.
         -5    1    4    4    0  503  0.42381810079E+02  0.63662336381E+02 -0.57459848196E+02  0.95774918709E+02  0.47000000000E+01 0.  1.
<mgrwt>
<rscale>  0 0.29247580E+03</rscale>
<asrwt>0</asrwt>
<pdfrwt beam="1">  1        1 0.39807687E-01 0.29247580E+03</pdfrwt>
<pdfrwt beam="2">  1       -1 0.12715289E-01 0.29247580E+03</pdfrwt>
<totfact> 0.44042624E+03</totfact>
</mgrwt>
</event>
<event>
 9    1  0.2054950E-002  0.2719700E+03  0.7818608E-02  0.1100157E+00
         -1   -1    0    0    0  501 -0.00000000000E+00  0.00000000000E+00  0.20295439048E+03  0.20295439048E+03  0.00000000000E+00 0. -1.
          1   -1    0    0  501    0  0.00000000000E+00 -0.00000000000E+00 -0.91113664288E+02  0.91113664288E+02  0.00000000000E+00 0. -1.
         36    2    1    2    0    0  0.00000000000E+00  0.35527136788E-14  0.11184072619E+03  0.29406805477E+03  0.27196998511E+03 0.  0.
         25    2    3    3    0    0  0.28655900852E+02 -0.26381352742E+02  0.24290060657E+02  0.13344247552E+03  0.12529864645E+03 0.  0.
         25    2    3    3    0    0 -0.28655900852E+02  0.26381352742E+02  0.87550665535E+02  0.16062557925E+03  0.12891206788E+03 0.  0.
          5    1    4    4  502    0 -0.46920195153E+01 -0.60037716523E+02 -0.24579845844E+02  0.65213505305E+02  0.47000000000E+01 0. -1.
         -5    1    4    4    0  502  0.33347920367E+02  0.33656363781E+02  0.48869906501E+02  0.68228970219E+02  0.47000000000E+01 0. -1.
          5    1    5    5  503    0 -0.40771178049E+02 -0.51699502463E+01 -0.21317306405E+02  0.46535308072E+02  0.47000000000E+01 0.  1.
         -5    1    5    5    0  503  0.12115277197E+02  0.31551302988E+02  0.10886797194E+03  0.11409027117E+03  0.47000000000E+01 0.  1.
<mgrwt>
<rscale>  0 0.27196999E+03</rscale>
<asrwt>0</asrwt>
<pdfrwt beam="1">  1        1 0.14017487E-01 0.27196999E+03</pdfrwt>
<pdfrwt beam="2">  1       -1 0.31223752E-01 0.27196999E+03</pdfrwt>
<totfact> 0.38656213E+03</totfact>
</mgrwt>
</event>
<event>
 9    1  0.2054950E-002  0.2668395E+03  0.7818608E-02  0.1103102E+00
         -1   -1    0    0    0  501 -0.00000000000E+00  0.00000000000E+00  0.12408838647E+02  0.12408838647E+02  0.00000000000E+00 0. -1.
          1   -1    0    0  501    0  0.00000000000E+00 -0.00000000000E+00 -0.14345282056E+04  0.14345282056E+04  0.00000000000E+00 0. -1.
         36    2    1    2    0    0  0.00000000000E+00  0.00000000000E+00 -0.14221193670E+04  0.14469370443E+04  0.26683949512E+03 0.  0.
         25    2    3    3    0    0 -0.35646709687E+02 -0.30430267806E+02 -0.71598007866E+03  0.72849285986E+03  0.12600668517E+03 0.  0.
         25    2    3    3    0    0  0.35646709687E+02  0.30430267806E+02 -0.70613928833E+03  0.71844418443E+03  0.12382512876E+03 0.  0.
          5    1    4    4  502    0 -0.76344543023E+02 -0.15683101054E+02 -0.59120572043E+03  0.59633945265E+03  0.47000000000E+01 0. -1.
         -5    1    4    4    0  502  0.40697833336E+02 -0.14747166752E+02 -0.12477435823E+03  0.13215340721E+03  0.47000000000E+01 0. -1.
          5    1    5    5  503    0 -0.25366746824E+02  0.58658706783E+02 -0.38670247588E+03  0.39197603317E+03  0.47000000000E+01 0.  1.
         -5    1    5    5    0  503  0.61013456510E+02 -0.28228438977E+02 -0.31943681245E+03  0.32646815127E+03  0.47000000000E+01 0.  1.
<mgrwt>
<rscale>  0 0.26683950E+03</rscale>
<asrwt>0</asrwt>
<pdfrwt beam="1">  1        1 0.22069653E+00 0.26683950E+03</pdfrwt>
<pdfrwt beam="2">  1       -1 0.19090531E-02 0.26683950E+03</pdfrwt>
<totfact> 0.58050981E+03</totfact>
</mgrwt>
</event>
<event>
 9    1  0.2054950E-002  0.2755597E+03  0.7818608E-02  0.1098139E+00
          1   -1    0    0  501    0  0.00000000000E+00  0.00000000000E+00  0.44436998094E+03  0.44436998094E+03  0.00000000000E+00 0. -1.
         -1   -1    0    0    0  501 -0.00000000000E+00 -0.00000000000E+00 -0.42719558695E+02  0.42719558695E+02  0.00000000000E+00 0. -1.
         36    2    1    2    0    0  0.00000000000E+00 -0.35527136788E-14  0.40165042225E+03  0.48708953964E+03  0.27555971754E+03 0.  0.
         25    2    3    3    0    0 -0.34775763781E+02  0.14665389656E+02  0.11444669298E+03  0.17112039258E+03  0.12148957084E+03 0.  0.
         25    2    3    3    0    0  0.34775763781E+02 -0.14665389656E+02  0.28720372927E+03  0.31596914706E+03  0.12619862276E+03 0.  0.
          5    1    4    4  502    0 -0.52604344688E+02  0.35654303047E+02  0.12575749271E+03  0.14098043616E+03  0.47000000000E+01 0. -1.
         -5    1    4    4    0  502  0.17828580907E+02 -0.20988913391E+02 -0.11310799734E+02  0.30139956422E+02  0.47000000000E+01 0. -1.
          5    1    5    5  503    0  0.69855514563E+02  0.15068372993E+02  0.99101697040E+02  0.12227054075E+03  0.47000000000E+01 0.  1.
         -5    1    5    5    0  503 -0.35079750783E+02 -0.29733762650E+02  0.18810203223E+03  0.19369860631E+03  0.47000000000E+01 0.  1.
<mgrwt>
<rscale>  0 0.27555972E+03</rscale>
<asrwt>0</asrwt>
<pdfrwt beam="1">  1        1 0.68364609E-01 0.27555972E+03</pdfrwt>
<pdfrwt beam="2">  1       -1 0.65722401E-02 0.27555972E+03</pdfrwt>
<totfact> 0.61118628E+03</totfact>
</mgrwt>
</event>
<event>
 9    1  0.2054950E-002  0.2740006E+03  0.7818608E-02  0.1099012E+00
          2   -1    0    0  501    0  0.00000000000E+00  0.00000000000E+00  0.82520797913E+03  0.82520797913E+03  0.00000000000E+00 0. -1.
         -2   -1    0    0    0  501 -0.00000000000E+00 -0.00000000000E+00 -0.22744660862E+02  0.22744660862E+02  0.00000000000E+00 0. -1.
         36    2    1    2    0    0 -0.71054273576E-14  0.71054273576E-14  0.80246331827E+03  0.84795263999E+03  0.27400055201E+03 0.  0.
         25    2    3    3    0    0  0.39009662534E+02  0.33692392951E+02  0.38598112617E+03  0.40943126897E+03  0.12647372506E+03 0.  0.
         25    2    3    3    0    0 -0.39009662534E+02 -0.33692392951E+02  0.41648219210E+03  0.43852137103E+03  0.12722674798E+03 0.  0.
          5    1    4    4  502    0 -0.58432548016E+01  0.24227330517E+02  0.35012825250E+03  0.35104556736E+03  0.47000000000E+01 0. -1.
         -5    1    4    4    0  502  0.44852917336E+02  0.94650624342E+01  0.35852873677E+02  0.58385701600E+02  0.47000000000E+01 0. -1.
          5    1    5    5  503    0  0.11250455953E+02  0.34734337721E+02  0.23786847334E+03  0.24070011962E+03  0.47000000000E+01 0.  1.
         -5    1    5    5    0  503 -0.50260118488E+02 -0.68426730672E+02  0.17861371876E+03  0.19782125141E+03  0.47000000000E+01 0.  1.
<mgrwt>
<rscale>  0 0.27400055E+03</rscale>
<asrwt>0</asrwt>
<pdfrwt beam="1">  1        2 0.12695505E+00 0.27400055E+03</pdfrwt>
<pdfrwt beam="2">  1       -2 0.34991792E-02 0.27400055E+03</pdfrwt>
<totfact> 0.11420243E+04</totfact>
</mgrwt>
</event>
<event>
 9    1  0.2054950E-002  0.2741927E+03  0.7818608E-02  0.1098904E+00
         -2   -1    0    0    0  501 -0.00000000000E+00  0.00000000000E+00  0.12627942281E+04  0.12627942281E+04  0.00000000000E+00 0. -1.
          2   -1    0    0  501    0  0.00000000000E+00 -0.00000000000E+00 -0.14883982801E+02  0.14883982801E+02  0.00000000000E+00 0. -1.
         36    2    1    2    0    0  0.35527136788E-14  0.00000000000E+00  0.12479102453E+04  0.12776782109E+04  0.27419268825E+03 0.  0.
         25    2    3    3    0    0  0.30660435518E+02  0.54740006568E+02  0.71141815643E+03  0.72362360222E+03  0.11652808146E+03 0.  0.
         25    2    3    3    0    0 -0.30660435518E+02 -0.54740006568E+02  0.53649208888E+03  0.55405460869E+03  0.12335403258E+03 0.  0.
          5    1    4    4  502    0  0.11643343590E+02  0.50088903850E+02  0.10638295197E+03  0.11825349132E+03  0.47000000000E+01 0. -1.
         -5    1    4    4    0  502  0.19017091928E+02  0.46511027179E+01  0.60503520445E+03  0.60537011090E+03  0.47000000000E+01 0. -1.
          5    1    5    5  503    0 -0.34504999481E+02 -0.36936862168E+02  0.66379585881E+02  0.83565939220E+02  0.47000000000E+01 0.  1.
         -5    1    5    5    0  503  0.38445639630E+01 -0.17803144400E+02  0.47011250300E+03  0.47048866947E+03  0.47000000000E+01 0.  1.
<mgrwt>
<rscale>  0 0.27419269E+03</rscale>
<asrwt>0</asrwt>
<pdfrwt beam="1">  1        2 0.22898445E-02 0.27419269E+03</pdfrwt>
<pdfrwt beam="2">  1       -2 0.19427595E+00 0.27419269E+03</pdfrwt>
<totfact> 0.71243186E+02</totfact>
</mgrwt>
</event>
<event>
 9    1  0.2054950E-002  0.2751356E+03  0.7818608E-02  0.1098376E+00
         -1   -1    0    0    0  501 -0.00000000000E+00  0.00000000000E+00  0.41907201760E+02  0.41907201760E+02  0.00000000000E+00 0.  1.
          1   -1    0    0  501    0  0.00000000000E+00 -0.00000000000E+00 -0.45159056247E+03  0.45159056247E+03  0.00000000000E+00 0.  1.
         36    2    1    2    0    0  0.00000000000E+00 -0.14210854715E-13 -0.40968336071E+03  0.49349776423E+03  0.27513557977E+03 0.  0.
         25    2    3    3    0    0 -0.26668467033E+02 -0.54840135991E+02 -0.22600912592E+03  0.26597894315E+03  0.12627757342E+03 0.  0.
         25    2    3    3    0    0  0.26668467033E+02  0.54840135991E+02 -0.18367423479E+03  0.22751882108E+03  0.11962416885E+03 0.  0.
          5    1    4    4  502    0 -0.20982927037E+02  0.24294345373E+02 -0.72696356766E+01  0.33248098397E+02  0.47000000000E+01 0.  1.
         -5    1    4    4    0  502 -0.56855399963E+01 -0.79134481364E+02 -0.21873949025E+03  0.23273084475E+03  0.47000000000E+01 0.  1.
          5    1    5    5  503    0  0.51327002445E+02 -0.19647007987E+02 -0.85597105711E+02  0.10183035210E+03  0.47000000000E+01 0.  1.
         -5    1    5    5    0  503 -0.24658535412E+02  0.74487143978E+02 -0.98077129075E+02  0.12568846898E+03  0.47000000000E+01 0.  1.
<mgrwt>
<rscale>  0 0.27513558E+03</rscale>
<asrwt>0</asrwt>
<pdfrwt beam="1">  1        1 0.69475473E-01 0.27513558E+03</pdfrwt>
<pdfrwt beam="2">  1       -1 0.64472616E-02 0.27513558E+03</pdfrwt>
<totfact> 0.61610260E+03</totfact>
</mgrwt>
</event>
<event>
 9    1  0.2054950E-002  0.2756114E+03  0.7818608E-02  0.1098110E+00
          2   -1    0    0  501    0  0.00000000000E+00  0.00000000000E+00  0.34663033254E+03  0.34663033254E+03  0.00000000000E+00 0. -1.
         -2   -1    0    0    0  501 -0.00000000000E+00 -0.00000000000E+00 -0.54785793443E+02  0.54785793443E+02  0.00000000000E+00 0. -1.
         36    2    1    2    0    0  0.00000000000E+00  0.00000000000E+00  0.29184453910E+03  0.40141612598E+03  0.27561144969E+03 0.  0.
         25    2    3    3    0    0  0.10223164461E+02  0.83123547269E+01  0.23032424037E+03  0.26153830771E+03  0.12320479848E+03 0.  0.
         25    2    3    3    0    0 -0.10223164461E+02 -0.83123547269E+01  0.61520298728E+02  0.13987781827E+03  0.12492977449E+03 0.  0.
          5    1    4    4  502    0 -0.14119144514E+02  0.62122348381E+02  0.10479202690E+03  0.12272732097E+03  0.47000000000E+01 0. -1.
         -5    1    4    4    0  502  0.24342308974E+02 -0.53809993654E+02  0.12553221347E+03  0.13881098674E+03  0.47000000000E+01 0. -1.
          5    1    5    5  503    0  0.25919784536E+02 -0.57463541315E+02  0.21533868532E+02  0.66780920215E+02  0.47000000000E+01 0.  1.
         -5    1    5    5    0  503 -0.36142948996E+02  0.49151186588E+02  0.39986430195E+02  0.73096898052E+02  0.47000000000E+01 0.  1.
<mgrwt>
<rscale>  0 0.27561145E+03</rscale>
<asrwt>0</asrwt>
<pdfrwt beam="1">  1        2 0.53327742E-01 0.27561145E+03</pdfrwt>
<pdfrwt beam="2">  1       -2 0.84285838E-02 0.27561145E+03</pdfrwt>
<totfact> 0.80769015E+03</totfact>
</mgrwt>
</event>
<event>
 9    1  0.2054950E-002  0.2677801E+03  0.7818608E-02  0.1102557E+00
          2   -1    0    0  501    0  0.00000000000E+00  0.00000000000E+00  0.10092387399E+04  0.10092387399E+04  0.00000000000E+00 0.  1.
         -2   -1    0    0    0  501 -0.00000000000E+00 -0.00000000000E+00 -0.17762446081E+02  0.17762446081E+02  0.00000000000E+00 0.  1.
         36    2    1    2    0    0  0.00000000000E+00  0.00000000000E+00  0.99147629379E+03  0.10270011860E+04  0.26778012398E+03 0.  0.
         25    2    3    3    0    0 -0.82448175294E+01 -0.28335506551E+02  0.72914264624E+03  0.74004904388E+03  0.12309634779E+03 0.  0.
         25    2    3    3    0    0  0.82448175294E+01  0.28335506551E+02  0.26233364755E+03  0.28695214207E+03  0.11247982598E+03 0.  0.
          5    1    4    4  502    0 -0.61608098463E+02 -0.27527212015E+01  0.26480032408E+03  0.27192726400E+03  0.47000000000E+01 0. -1.
         -5    1    4    4    0  502  0.53363280934E+02 -0.25582785349E+02  0.46434232216E+03  0.46812177989E+03  0.47000000000E+01 0. -1.
          5    1    5    5  503    0  0.40855924946E+01  0.13773795899E+01  0.25899380124E+03  0.25907232257E+03  0.47000000000E+01 0. -1.
         -5    1    5    5    0  503  0.41592250347E+01  0.26958126961E+02  0.33398463146E+01  0.27879819503E+02  0.47000000000E+01 0. -1.
<mgrwt>
<rscale>  0 0.26778012E+03</rscale>
<asrwt>0</asrwt>
<pdfrwt beam="1">  1        2 0.15526745E+00 0.26778012E+03</pdfrwt>
<pdfrwt beam="2">  1       -2 0.27326848E-02 0.26778012E+03</pdfrwt>
<totfact> 0.12570374E+04</totfact>
</mgrwt>
</event>
<event>
 9    1  0.2054950E-002  0.2737433E+03  0.7818608E-02  0.1099156E+00
         -2   -1    0    0    0  501 -0.00000000000E+00  0.00000000000E+00  0.85179608044E+01  0.85179608044E+01  0.00000000000E+00 0. -1.
          2   -1    0    0  501    0  0.00000000000E+00 -0.00000000000E+00 -0.21993349873E+04  0.21993349873E+04  0.00000000000E+00 0. -1.
         36    2    1    2    0    0  0.00000000000E+00  0.00000000000E+00 -0.21908170265E+04  0.22078529481E+04  0.27374330470E+03 0.  0.
         25    2    3    3    0    0  0.17744904809E+02  0.48484837884E+02 -0.12253123492E+04  0.12328378893E+04  0.12583023008E+03 0.  0.
         25    2    3    3    0    0 -0.17744904809E+02 -0.48484837884E+02 -0.96550467723E+03  0.97501505884E+03  0.12565596704E+03 0.  0.
          5    1    4    4  502    0 -0.42429190923E+02  0.20647142728E+02 -0.87447465421E+03  0.87575941422E+03  0.47000000000E+01 0.  1.
         -5    1    4    4    0  502  0.60174095732E+02  0.27837695156E+02 -0.35083769504E+03  0.35707847503E+03  0.47000000000E+01 0.  1.
          5    1    5    5  503    0 -0.16503521156E+02  0.91346516901E+01 -0.20531556956E+02  0.28274421357E+02  0.47000000000E+01 0.  1.
         -5    1    5    5    0  503 -0.12413836531E+01 -0.57619489574E+02 -0.94497312028E+03  0.94674063748E+03  0.47000000000E+01 0.  1.
<mgrwt>
<rscale>  0 0.27374330E+03</rscale>
<asrwt>0</asrwt>
<pdfrwt beam="1">  1        2 0.33835887E+00 0.27374330E+03</pdfrwt>
<pdfrwt beam="2">  1       -2 0.13104569E-02 0.27374330E+03</pdfrwt>
<totfact> 0.83774087E+03</totfact>
</mgrwt>
</event>
<event>
 9    1  0.2054950E-002  0.2747159E+03  0.7818608E-02  0.1098610E+00
         -3   -1    0    0    0  501 -0.00000000000E+00  0.00000000000E+00  0.12523195717E+03  0.12523195717E+03  0.00000000000E+00 0. -1.
          3   -1    0    0  501    0  0.00000000000E+00 -0.00000000000E+00 -0.15065811746E+03  0.15065811746E+03  0.00000000000E+00 0. -1.
         36    2    1    2    0    0 -0.10658141036E-13  0.00000000000E+00 -0.25426160292E+02  0.27589007463E+03  0.27471593265E+03 0.  0.
         25    2    3    3    0    0 -0.75082686619E+01  0.16946225742E+02 -0.55484079708E+02  0.13727409090E+03  0.12418592620E+03 0.  0.
         25    2    3    3    0    0  0.75082686619E+01 -0.16946225742E+02  0.30057919416E+02  0.13861598373E+03  0.13404239538E+03 0.  0.
          5    1    4    4  502    0 -0.30755232300E+02 -0.47490027032E+02 -0.28167031998E+02  0.63377114741E+02  0.47000000000E+01 0. -1.
         -5    1    4    4    0  502  0.23246963638E+02  0.64436252774E+02 -0.27317047710E+02  0.73896976159E+02  0.47000000000E+01 0. -1.
          5    1    5    5  503    0 -0.61146088467E+02 -0.49724785741E+01 -0.24421244873E+01  0.61576161378E+02  0.47000000000E+01 0.  1.
         -5    1    5    5    0  503  0.68654357129E+02 -0.11973747168E+02  0.32500043903E+02  0.77039822350E+02  0.47000000000E+01 0.  1.
<mgrwt>
<rscale>  0 0.27471593E+03</rscale>
<asrwt>0</asrwt>
<pdfrwt beam="1">  1        3 0.23178172E-01 0.27471593E+03</pdfrwt>
<pdfrwt beam="2">  1       -3 0.19266455E-01 0.27471593E+03</pdfrwt>
<totfact> 0.10508949E+03</totfact>
</mgrwt>
</event>
<event>
 9    1  0.2054950E-002  0.2751625E+03  0.7818608E-02  0.1098361E+00
          2   -1    0    0  501    0  0.00000000000E+00  0.00000000000E+00  0.20165439437E+03  0.20165439437E+03  0.00000000000E+00 0.  1.
         -2   -1    0    0    0  501 -0.00000000000E+00 -0.00000000000E+00 -0.93866516290E+02  0.93866516290E+02  0.00000000000E+00 0.  1.
         36    2    1    2    0    0  0.00000000000E+00 -0.26645352591E-14  0.10778787808E+03  0.29552091066E+03  0.27516246469E+03 0.  0.
         25    2    3    3    0    0  0.43749099408E+02  0.78027168924E+01  0.96345063912E+02  0.16751851573E+03  0.12963493234E+03 0.  0.
         25    2    3    3    0    0 -0.43749099408E+02 -0.78027168924E+01  0.11442814167E+02  0.12800239493E+03  0.11949397065E+03 0.  0.
          5    1    4    4  502    0 -0.25683514364E+02  0.12677342570E+02 -0.17577843540E+02  0.33932705585E+02  0.47000000000E+01 0. -1.
         -5    1    4    4    0  502  0.69432613772E+02 -0.48746256781E+01  0.11392290745E+03  0.13358581015E+03  0.47000000000E+01 0. -1.
          5    1    5    5  503    0 -0.50304062520E+01  0.25728331511E+02 -0.44591969762E+02  0.51940213675E+02  0.47000000000E+01 0.  1.
         -5    1    5    5    0  503 -0.38718693156E+02 -0.33531048403E+02  0.56034783928E+02  0.76062181251E+02  0.47000000000E+01 0.  1.
<mgrwt>
<rscale>  0 0.27516246E+03</rscale>
<asrwt>0</asrwt>
<pdfrwt beam="1">  1        2 0.31023753E-01 0.27516246E+03</pdfrwt>
<pdfrwt beam="2">  1       -2 0.14441003E-01 0.27516246E+03</pdfrwt>
<totfact> 0.61149670E+03</totfact>
</mgrwt>
</event>
<event>
 9    1  0.2054950E-002  0.2756262E+03  0.7818608E-02  0.1098102E+00
          3   -1    0    0  501    0  0.00000000000E+00  0.00000000000E+00  0.37464798479E+03  0.37464798479E+03  0.00000000000E+00 0. -1.
         -3   -1    0    0    0  501 -0.00000000000E+00 -0.00000000000E+00 -0.50694133207E+02  0.50694133207E+02  0.00000000000E+00 0. -1.
         36    2    1    2    0    0  0.35527136788E-14 -0.71054273576E-14  0.32395385158E+03  0.42534211800E+03  0.27562623131E+03 0.  0.
         25    2    3    3    0    0 -0.30612148705E+02  0.21670661360E+02  0.71104682991E+02  0.13852548011E+03  0.11281272749E+03 0.  0.
         25    2    3    3    0    0  0.30612148705E+02 -0.21670661360E+02  0.25284916859E+03  0.28681663789E+03  0.13009366049E+03 0.  0.
          5    1    4    4  502    0 -0.59328961923E+02 -0.46916822896E+01  0.78447464209E+02  0.98580080373E+02  0.47000000000E+01 0. -1.
         -5    1    4    4    0  502  0.28716813218E+02  0.26362343649E+02 -0.73427812174E+01  0.39945399736E+02  0.47000000000E+01 0. -1.
          5    1    5    5  503    0  0.23477440937E+02 -0.67585394683E+02  0.21519252617E+03  0.22682347570E+03  0.47000000000E+01 0.  1.
         -5    1    5    5    0  503  0.71347077687E+01  0.45914733324E+02  0.37656642418E+02  0.59993162188E+02  0.47000000000E+01 0.  1.
<mgrwt>
<rscale>  0 0.27562623E+03</rscale>
<asrwt>0</asrwt>
<pdfrwt beam="1">  1        3 0.57638150E-01 0.27562623E+03</pdfrwt>
<pdfrwt beam="2">  1       -3 0.77990977E-02 0.27562623E+03</pdfrwt>
<totfact> 0.84624002E+02</totfact>
</mgrwt>
</event>
<event>
 9    1  0.2054950E-002  0.2771143E+03  0.7818608E-02  0.1097276E+00
         -2   -1    0    0    0  501 -0.00000000000E+00  0.00000000000E+00  0.96578935884E+02  0.96578935884E+02  0.00000000000E+00 0.  1.
          2   -1    0    0  501    0  0.00000000000E+00 -0.00000000000E+00 -0.19878130384E+03  0.19878130384E+03  0.00000000000E+00 0.  1.
         36    2    1    2    0    0  0.00000000000E+00  0.35527136788E-14 -0.10220236796E+03  0.29536023973E+03  0.27711432153E+03 0.  0.
         25    2    3    3    0    0 -0.52898118639E+02  0.31118661485E+02 -0.61303885635E+02  0.15136555368E+03  0.12404346980E+03 0.  0.
         25    2    3    3    0    0  0.52898118639E+02 -0.31118661485E+02 -0.40898482326E+02  0.14399468605E+03  0.12367377129E+03 0.  0.
          5    1    4    4  502    0 -0.50087422152E+02  0.11412842454E+02 -0.97206296693E+02  0.11004615826E+03  0.47000000000E+01 0.  1.
         -5    1    4    4    0  502 -0.28106964867E+01  0.19705819031E+02  0.35902411058E+02  0.41319395424E+02  0.47000000000E+01 0.  1.
          5    1    5    5  503    0  0.82433213021E+02 -0.26758748657E+02  0.73031839564E+01  0.87101617290E+02  0.47000000000E+01 0.  1.
         -5    1    5    5    0  503 -0.29535094383E+02 -0.43599128282E+01 -0.48201666282E+02  0.56893068756E+02  0.47000000000E+01 0.  1.
<mgrwt>
<rscale>  0 0.27711432E+03</rscale>
<asrwt>0</asrwt>
<pdfrwt beam="1">  1        2 0.30581739E-01 0.27711432E+03</pdfrwt>
<pdfrwt beam="2">  1       -2 0.14858298E-01 0.27711432E+03</pdfrwt>
<totfact> 0.59284681E+03</totfact>
</mgrwt>
</event>
<event>
 9    1  0.2054950E-002  0.2753432E+03  0.7818608E-02  0.1098260E+00
          2   -1    0    0  501    0  0.00000000000E+00  0.00000000000E+00  0.10403172635E+04  0.10403172635E+04  0.00000000000E+00 0. -1.
         -2   -1    0    0    0  501 -0.00000000000E+00 -0.00000000000E+00 -0.18218932663E+02  0.18218932663E+02  0.00000000000E+00 0. -1.
         36    2    1    2    0    0  0.00000000000E+00  0.00000000000E+00  0.10220983309E+04  0.10585361962E+04  0.27534320528E+03 0.  0.
         25    2    3    3    0    0 -0.35666504786E+02  0.35388598895E+02  0.64084586198E+03  0.65428409237E+03  0.12198279474E+03 0.  0.
         25    2    3    3    0    0  0.35666504786E+02 -0.35388598895E+02  0.38125246889E+03  0.40425210383E+03  0.12466702018E+03 0.  0.
          5    1    4    4  502    0 -0.26384233723E+02  0.63119900421E+02  0.18210759105E+03  0.19459063271E+03  0.47000000000E+01 0. -1.
         -5    1    4    4    0  502 -0.92822710631E+01 -0.27731301526E+02  0.45873827093E+03  0.45969345966E+03  0.47000000000E+01 0. -1.
          5    1    5    5  503    0  0.60955514611E+02  0.14643488447E+02  0.29244370930E+03  0.29912442165E+03  0.47000000000E+01 0.  1.
         -5    1    5    5    0  503 -0.25289009825E+02 -0.50032087342E+02  0.88808759587E+02  0.10512768218E+03  0.47000000000E+01 0.  1.
<mgrwt>
<rscale>  0 0.27534321E+03</rscale>
<asrwt>0</asrwt>
<pdfrwt beam="1">  1        2 0.16004876E+00 0.27534321E+03</pdfrwt>
<pdfrwt beam="2">  1       -2 0.28029135E-02 0.27534321E+03</pdfrwt>
<totfact> 0.11603005E+04</totfact>
</mgrwt>
</event>
<event>
 9    1  0.2054950E-002  0.2748230E+03  0.7818608E-02  0.1098551E+00
          2   -1    0    0  501    0  0.00000000000E+00  0.00000000000E+00  0.89856523070E+02  0.89856523070E+02  0.00000000000E+00 0. -1.
         -2   -1    0    0    0  501 -0.00000000000E+00 -0.00000000000E+00 -0.21013408557E+03  0.21013408557E+03  0.00000000000E+00 0. -1.
         36    2    1    2    0    0  0.35527136788E-14  0.00000000000E+00 -0.12027756250E+03  0.29999060864E+03  0.27482298527E+03 0.  0.
         25    2    3    3    0    0 -0.14775542034E+02  0.38535987039E+02 -0.27726817979E+02  0.13704674832E+03  0.12770941959E+03 0.  0.
         25    2    3    3    0    0  0.14775542034E+02 -0.38535987039E+02 -0.92550744517E+02  0.16294386031E+03  0.12759985252E+03 0.  0.
          5    1    4    4  502    0  0.69484113147E+01 -0.23741315166E+02 -0.58815195816E+02  0.63978494234E+02  0.47000000000E+01 0.  1.
         -5    1    4    4    0  502 -0.21723953349E+02  0.62277302206E+02  0.31088377837E+02  0.73068254089E+02  0.47000000000E+01 0.  1.
          5    1    5    5  503    0  0.67907497607E+02 -0.22002205587E+02 -0.76724846073E+02  0.10490146466E+03  0.47000000000E+01 0. -1.
         -5    1    5    5    0  503 -0.53131955573E+02 -0.16533781452E+02 -0.15825898444E+02  0.58042395658E+02  0.47000000000E+01 0. -1.
<mgrwt>
<rscale>  0 0.27482299E+03</rscale>
<asrwt>0</asrwt>
<pdfrwt beam="1">  1        2 0.13824081E-01 0.27482299E+03</pdfrwt>
<pdfrwt beam="2">  1       -2 0.32328321E-01 0.27482299E+03</pdfrwt>
<totfact> 0.38104654E+03</totfact>
</mgrwt>
</event>
<event>
 9    1  0.2054950E-002  0.2751381E+03  0.7818608E-02  0.1098374E+00
          2   -1    0    0  501    0  0.00000000000E+00  0.00000000000E+00  0.91884308250E+03  0.91884308250E+03  0.00000000000E+00 0.  1.
         -2   -1    0    0    0  501 -0.00000000000E+00 -0.00000000000E+00 -0.20596811347E+02  0.20596811347E+02  0.00000000000E+00 0.  1.
         36    2    1    2    0    0  0.71054273576E-14  0.00000000000E+00  0.89824627115E+03  0.93943989385E+03  0.27513805719E+03 0.  0.
         25    2    3    3    0    0  0.27624858790E+02 -0.20141947735E+02  0.58421220825E+03  0.59770672746E+03  0.12157547821E+03 0.  0.
         25    2    3    3    0    0 -0.27624858790E+02  0.20141947735E+02  0.31403406290E+03  0.34173316638E+03  0.13036615153E+03 0.  0.
          5    1    4    4  502    0  0.52386554758E+00 -0.62267915873E+02  0.18319725031E+03  0.19354816016E+03  0.47000000000E+01 0.  1.
         -5    1    4    4    0  502  0.27100993242E+02  0.42125968137E+02  0.40101495795E+03  0.40415856730E+03  0.47000000000E+01 0.  1.
          5    1    5    5  503    0 -0.77180911583E+02 -0.15105290088E+01  0.21944519744E+03  0.23267457852E+03  0.47000000000E+01 0.  1.
         -5    1    5    5    0  503  0.49556052793E+02  0.21652476744E+02  0.94588865462E+02  0.10905858786E+03  0.47000000000E+01 0.  1.
<mgrwt>
<rscale>  0 0.27513806E+03</rscale>
<asrwt>0</asrwt>
<pdfrwt beam="1">  1        2 0.14136044E+00 0.27513806E+03</pdfrwt>
<pdfrwt beam="2">  1       -2 0.31687409E-02 0.27513806E+03</pdfrwt>
<totfact> 0.11494759E+04</totfact>
</mgrwt>
</event>
<event>
 9    1  0.2054950E-002  0.2738954E+03  0.7818608E-02  0.1099071E+00
         -2   -1    0    0    0  501 -0.00000000000E+00  0.00000000000E+00  0.20254611010E+03  0.20254611010E+03  0.00000000000E+00 0. -1.
          2   -1    0    0  501    0  0.00000000000E+00 -0.00000000000E+00 -0.92594602723E+02  0.92594602723E+02  0.00000000000E+00 0. -1.
         36    2    1    2    0    0  0.71054273576E-14  0.35527136788E-14  0.10995150738E+03  0.29514071282E+03  0.27389542966E+03 0.  0.
         25    2    3    3    0    0  0.51019081917E+02  0.60077022748E-01  0.93091615295E+02  0.16167193020E+03  0.12193774579E+03 0.  0.
         25    2    3    3    0    0 -0.51019081917E+02 -0.60077022748E-01  0.16859892082E+02  0.13346878262E+03  0.12217491414E+03 0.  0.
          5    1    4    4  502    0  0.31041023522E+02 -0.60327847513E+02  0.54252856719E+02  0.86996878042E+02  0.47000000000E+01 0. -1.
         -5    1    4    4    0  502  0.19978058395E+02  0.60387924536E+02  0.38838758576E+02  0.74675052157E+02  0.47000000000E+01 0. -1.
          5    1    5    5  503    0 -0.71077073919E+02  0.10403258117E+02  0.53818585251E+02  0.89881635136E+02  0.47000000000E+01 0.  1.
         -5    1    5    5    0  503  0.20057992001E+02 -0.10463335139E+02 -0.36958693169E+02  0.43587147488E+02  0.47000000000E+01 0.  1.
<mgrwt>
<rscale>  0 0.27389543E+03</rscale>
<asrwt>0</asrwt>
<pdfrwt beam="1">  1        2 0.14245324E-01 0.27389543E+03</pdfrwt>
<pdfrwt beam="2">  1       -2 0.31160940E-01 0.27389543E+03</pdfrwt>
<totfact> 0.39321960E+03</totfact>
</mgrwt>
</event>
<event>
 9    1  0.2054950E-002  0.2748018E+03  0.7818608E-02  0.1098562E+00
          3   -1    0    0  501    0  0.00000000000E+00  0.00000000000E+00  0.11146806689E+02  0.11146806689E+02  0.00000000000E+00 0.  1.
         -3   -1    0    0    0  501 -0.00000000000E+00 -0.00000000000E+00 -0.16936701194E+04  0.16936701194E+04  0.00000000000E+00 0.  1.
         36    2    1    2    0    0  0.71054273576E-14  0.00000000000E+00 -0.16825233127E+04  0.17048169261E+04  0.27480184436E+03 0.  0.
         25    2    3    3    0    0  0.24846197120E+02  0.50601854151E+02 -0.86443825735E+03  0.87530618625E+03  0.12541745393E+03 0.  0.
         25    2    3    3    0    0 -0.24846197120E+02 -0.50601854151E+02 -0.81808505536E+03  0.82951073984E+03  0.12508808320E+03 0.  0.
          5    1    4    4  502    0  0.68873311260E+01  0.12700873352E+02 -0.68262216635E+01  0.16656374640E+02  0.47000000000E+01 0.  1.
         -5    1    4    4    0  502  0.17958865994E+02  0.37900980799E+02 -0.85761203569E+03  0.85864981161E+03  0.47000000000E+01 0.  1.
          5    1    5    5  503    0  0.41775825806E+02  0.71519822482E+01 -0.16231588674E+03  0.16782403749E+03  0.47000000000E+01 0. -1.
         -5    1    5    5    0  503 -0.66622022927E+02 -0.57753836399E+02 -0.65576916861E+03  0.66168670235E+03  0.47000000000E+01 0. -1.
<mgrwt>
<rscale>  0 0.27480184E+03</rscale>
<asrwt>0</asrwt>
<pdfrwt beam="1">  1        3 0.17148933E-02 0.27480184E+03</pdfrwt>
<pdfrwt beam="2">  1       -3 0.26056464E+00 0.27480184E+03</pdfrwt>
<totfact> 0.21866509E+02</totfact>
</mgrwt>
</event>
<event>
 9    1  0.2054950E-002  0.2741936E+03  0.7818608E-02  0.1098903E+00
          2   -1    0    0  501    0  0.00000000000E+00  0.00000000000E+00  0.42427007974E+03  0.42427007974E+03  0.00000000000E+00 0.  1.
         -2   -1    0    0    0  501 -0.00000000000E+00 -0.00000000000E+00 -0.44300851485E+02  0.44300851485E+02  0.00000000000E+00 0.  1.
         36    2    1    2    0    0 -0.71054273576E-14 -0.10658141036E-13  0.37996922825E+03  0.46857093122E+03  0.27419355056E+03 0.  0.
         25    2    3    3    0    0  0.46312873431E+02  0.23317662960E+02  0.15539351003E+03  0.20675630847E+03  0.12614449050E+03 0.  0.
         25    2    3    3    0    0 -0.46312873431E+02 -0.23317662960E+02  0.22457571823E+03  0.26181462275E+03  0.12419359008E+03 0.  0.
          5    1    4    4  502    0  0.41079528558E+00  0.52059509352E+02  0.12322453180E+02  0.53705624651E+02  0.47000000000E+01 0.  1.
         -5    1    4    4    0  502  0.45902078145E+02 -0.28741846392E+02  0.14307105685E+03  0.15305068382E+03  0.47000000000E+01 0.  1.
          5    1    5    5  503    0 -0.34651440986E+02 -0.15153701464E+02  0.14007264827E+01  0.38136715447E+02  0.47000000000E+01 0. -1.
         -5    1    5    5    0  503 -0.11661432445E+02 -0.81639614960E+01  0.22317499175E+03  0.22367790730E+03  0.47000000000E+01 0. -1.
<mgrwt>
<rscale>  0 0.27419355E+03</rscale>
<asrwt>0</asrwt>
<pdfrwt beam="1">  1        2 0.65272317E-01 0.27419355E+03</pdfrwt>
<pdfrwt beam="2">  1       -2 0.68155159E-02 0.27419355E+03</pdfrwt>
<totfact> 0.90276191E+03</totfact>
</mgrwt>
</event>
<event>
 9    1  0.2054950E-002  0.2752344E+03  0.7818608E-02  0.1098321E+00
         -2   -1    0    0    0  501 -0.00000000000E+00  0.00000000000E+00  0.30045120828E+02  0.30045120828E+02  0.00000000000E+00 0. -1.
          2   -1    0    0  501    0  0.00000000000E+00 -0.00000000000E+00 -0.63033515878E+03  0.63033515878E+03  0.00000000000E+00 0. -1.
         36    2    1    2    0    0  0.00000000000E+00  0.35527136788E-14 -0.60029003795E+03  0.66038027961E+03  0.27523441651E+03 0.  0.
         25    2    3    3    0    0 -0.10046972402E+02  0.21792190415E+02 -0.22489171202E+03  0.26272464336E+03  0.13368662938E+03 0.  0.
         25    2    3    3    0    0  0.10046972402E+02 -0.21792190415E+02 -0.37539832593E+03  0.39765563625E+03  0.12895836814E+03 0.  0.
          5    1    4    4  502    0  0.17261770959E+02  0.61313565258E+02 -0.19673797630E+03  0.20684594108E+03  0.47000000000E+01 0.  1.
         -5    1    4    4    0  502 -0.27308743362E+02 -0.39521374843E+02 -0.28153735716E+02  0.55878702277E+02  0.47000000000E+01 0.  1.
          5    1    5    5  503    0  0.88704632108E+01  0.36302887958E+01  0.80280864712E+01  0.13356806756E+02  0.47000000000E+01 0. -1.
         -5    1    5    5    0  503  0.11765091916E+01 -0.25422479211E+02 -0.38342641240E+03  0.38429882950E+03  0.47000000000E+01 0. -1.
<mgrwt>
<rscale>  0 0.27523442E+03</rscale>
<asrwt>0</asrwt>
<pdfrwt beam="1">  1        2 0.96974631E-01 0.27523442E+03</pdfrwt>
<pdfrwt beam="2">  1       -2 0.46223267E-02 0.27523442E+03</pdfrwt>
<totfact> 0.10458801E+04</totfact>
</mgrwt>
</event>
<event>
 9    1  0.2054950E-002  0.2756813E+03  0.7818608E-02  0.1098071E+00
         -1   -1    0    0    0  501 -0.00000000000E+00  0.00000000000E+00  0.39392546255E+03  0.39392546255E+03  0.00000000000E+00 0.  1.
          1   -1    0    0  501    0  0.00000000000E+00 -0.00000000000E+00 -0.48232576522E+02  0.48232576522E+02  0.00000000000E+00 0.  1.
         36    2    1    2    0    0 -0.88817841970E-15  0.00000000000E+00  0.34569288602E+03  0.44215803907E+03  0.27568126535E+03 0.  0.
         25    2    3    3    0    0  0.41321277716E+01 -0.56239465070E+02  0.15319708429E+03  0.20491834841E+03  0.12386375970E+03 0.  0.
         25    2    3    3    0    0 -0.41321277716E+01  0.56239465070E+02  0.19249580173E+03  0.23723969066E+03  0.12668103737E+03 0.  0.
          5    1    4    4  502    0 -0.67387023962E+01 -0.69223841782E+02  0.16803307998E+03  0.18191909287E+03  0.47000000000E+01 0. -1.
         -5    1    4    4    0  502  0.10870830168E+02  0.12984376712E+02 -0.14835995692E+02  0.22999255538E+02  0.47000000000E+01 0. -1.
          5    1    5    5  503    0  0.56769367958E+02  0.27136421755E+02  0.13272162981E+03  0.14695668594E+03  0.47000000000E+01 0.  1.
         -5    1    5    5    0  503 -0.60901495730E+02  0.29103043315E+02  0.59774171925E+02  0.90283004722E+02  0.47000000000E+01 0.  1.
<mgrwt>
<rscale>  0 0.27568127E+03</rscale>
<asrwt>0</asrwt>
<pdfrwt beam="1">  1        1 0.74203967E-02 0.27568127E+03</pdfrwt>
<pdfrwt beam="2">  1       -1 0.60603915E-01 0.27568127E+03</pdfrwt>
<totfact> 0.27396735E+03</totfact>
</mgrwt>
</event>
<event>
 9    1  0.2054950E-002  0.2746394E+03  0.7818608E-02  0.1098653E+00
         -2   -1    0    0    0  501 -0.00000000000E+00  0.00000000000E+00  0.37024368939E+02  0.37024368939E+02  0.00000000000E+00 0. -1.
          2   -1    0    0  501    0  0.00000000000E+00 -0.00000000000E+00 -0.50930503786E+03  0.50930503786E+03  0.00000000000E+00 0. -1.
         36    2    1    2    0    0  0.00000000000E+00 -0.17763568394E-14 -0.47228066892E+03  0.54632940679E+03  0.27463938264E+03 0.  0.
         25    2    3    3    0    0  0.60383737593E+02  0.53282430955E+01 -0.20905119806E+03  0.24931971130E+03  0.12158671430E+03 0.  0.
         25    2    3    3    0    0 -0.60383737593E+02 -0.53282430955E+01 -0.26322947086E+03  0.29700969549E+03  0.12349258661E+03 0.  0.
          5    1    4    4  502    0  0.14455741849E+02  0.39620284196E+01  0.14300125012E+02  0.21242639124E+02  0.47000000000E+01 0.  1.
         -5    1    4    4    0  502  0.45927995744E+02  0.13662146759E+01 -0.22335132307E+03  0.22807707218E+03  0.47000000000E+01 0.  1.
          5    1    5    5  503    0  0.25668438106E+02 -0.37190913590E+02 -0.78773846314E+02  0.90936470305E+02  0.47000000000E+01 0.  1.
         -5    1    5    5    0  503 -0.86052175699E+02  0.31862670495E+02 -0.18445562454E+03  0.20607322519E+03  0.47000000000E+01 0.  1.
<mgrwt>
<rscale>  0 0.27463938E+03</rscale>
<asrwt>0</asrwt>
<pdfrwt beam="1">  1        2 0.78354617E-01 0.27463938E+03</pdfrwt>
<pdfrwt beam="2">  1       -2 0.56960571E-02 0.27463938E+03</pdfrwt>
<totfact> 0.97191793E+03</totfact>
</mgrwt>
</event>
<event>
 9    1  0.2054950E-002  0.2742729E+03  0.7818608E-02  0.1098859E+00
         -1   -1    0    0    0  501 -0.00000000000E+00  0.00000000000E+00  0.64058888638E+01  0.64058888638E+01  0.00000000000E+00 0. -1.
          1   -1    0    0  501    0  0.00000000000E+00 -0.00000000000E+00 -0.29357989628E+04  0.29357989628E+04  0.00000000000E+00 0. -1.
         36    2    1    2    0    0 -0.17763568394E-14  0.71054273576E-14 -0.29293930740E+04  0.29422048517E+04  0.27427287057E+03 0.  0.
         25    2    3    3    0    0  0.71006137419E+01  0.58993030530E+02 -0.12824534428E+04  0.12891445014E+04  0.11694492818E+03 0.  0.
         25    2    3    3    0    0 -0.71006137419E+01 -0.58993030530E+02 -0.16469396312E+04  0.16530603503E+04  0.12910374345E+03 0.  0.
          5    1    4    4  502    0  0.52856164934E+02  0.56833713248E+02 -0.58079771529E+03  0.58597945460E+03  0.47000000000E+01 0.  1.
         -5    1    4    4    0  502 -0.45755551192E+02  0.21593172818E+01 -0.70165572753E+03  0.70316504684E+03  0.47000000000E+01 0.  1.
          5    1    5    5  503    0 -0.40040500399E+01 -0.97375438368E+02 -0.93822700889E+03  0.94328681674E+03  0.47000000000E+01 0. -1.
         -5    1    5    5    0  503 -0.30965637020E+01  0.38382407838E+02 -0.70871262227E+03  0.70977353353E+03  0.47000000000E+01 0. -1.
<mgrwt>
<rscale>  0 0.27427287E+03</rscale>
<asrwt>0</asrwt>
<pdfrwt beam="1">  1        1 0.45166116E+00 0.27427287E+03</pdfrwt>
<pdfrwt beam="2">  1       -1 0.98552185E-03 0.27427287E+03</pdfrwt>
<totfact> 0.15416044E+03</totfact>
</mgrwt>
</event>
<event>
 8    1  0.2054950E-002  0.3048748E+03  0.7818608E-02  0.1082829E+00
          2   -1    0    0  501    0  0.00000000000E+00  0.00000000000E+00  0.91737271316E+02  0.91737271316E+02  0.00000000000E+00 0. -1.
         -2   -1    0    0    0  501 -0.00000000000E+00 -0.00000000000E+00 -0.25330115085E+03  0.25330115085E+03  0.00000000000E+00 0. -1.
         25    2    1    2    0    0 -0.73500489786E+01  0.67784861465E+02 -0.14090072462E+03  0.20021059973E+03  0.12482972154E+03 0.  0.
         25    2    1    2    0    0  0.73500489786E+01 -0.67784861465E+02 -0.20663154910E+02  0.14482782244E+03  0.12609251174E+03 0.  0.
          5    1    3    3  502    0  0.29254846785E+02  0.87834388357E+02 -0.64183378296E+02  0.11274893298E+03  0.47000000000E+01 0.  1.
         -5    1    3    3    0  502 -0.36604895763E+02 -0.20049526893E+02 -0.76717346326E+02  0.87461666745E+02  0.47000000000E+01 0.  1.
          5    1    4    4  503    0 -0.82112214789E+01 -0.10302261794E+03 -0.22887705598E+02  0.10595763791E+03  0.47000000000E+01 0. -1.
         -5    1    4    4    0  503  0.15561270458E+02  0.35237756471E+02  0.22245506882E+01  0.38870184527E+02  0.47000000000E+01 0. -1.
<mgrwt>
<rscale>  0 0.30487477E+03</rscale>
<asrwt>0</asrwt>
<pdfrwt beam="1">  1        2 0.14113426E-01 0.30487477E+03</pdfrwt>
<pdfrwt beam="2">  1       -2 0.38969408E-01 0.30487477E+03</pdfrwt>
<totfact> 0.26276750E+03</totfact>
</mgrwt>
</event>
<event>
 9    1  0.2054950E-002  0.2670838E+03  0.7818608E-02  0.1102960E+00
         -2   -1    0    0    0  501 -0.00000000000E+00  0.00000000000E+00  0.17810150601E+03  0.17810150601E+03  0.00000000000E+00 0. -1.
          2   -1    0    0  501    0  0.00000000000E+00 -0.00000000000E+00 -0.10013074361E+03  0.10013074361E+03  0.00000000000E+00 0. -1.
         36    2    1    2    0    0  0.17763568394E-14  0.71054273576E-14  0.77970762396E+02  0.27823224962E+03  0.26708377888E+03 0.  0.
         25    2    3    3    0    0  0.75681680995E+01 -0.19738570151E+02 -0.18321202709E+01  0.12746160237E+03  0.12568299445E+03 0.  0.
         25    2    3    3    0    0 -0.75681680995E+01  0.19738570151E+02  0.79802882667E+02  0.15077064725E+03  0.12616021430E+03 0.  0.
          5    1    4    4  502    0  0.19345824209E+02  0.50790397166E+02 -0.95672913085E+01  0.55385453158E+02  0.47000000000E+01 0.  1.
         -5    1    4    4    0  502 -0.11777656110E+02 -0.70528967316E+02  0.77351710376E+01  0.72076149211E+02  0.47000000000E+01 0.  1.
          5    1    5    5  503    0 -0.57532772439E+02  0.43577241307E+02  0.46841411006E+02  0.86169621383E+02  0.47000000000E+01 0.  1.
         -5    1    5    5    0  503  0.49964604339E+02 -0.23838671156E+02  0.32961471662E+02  0.64601025869E+02  0.47000000000E+01 0.  1.
<mgrwt>
<rscale>  0 0.26708378E+03</rscale>
<asrwt>0</asrwt>
<pdfrwt beam="1">  1        2 0.15404730E-01 0.26708378E+03</pdfrwt>
<pdfrwt beam="2">  1       -2 0.27400232E-01 0.26708378E+03</pdfrwt>
<totfact> 0.45178039E+03</totfact>
</mgrwt>
</event>
<event>
 9    1  0.2054950E-002  0.2753188E+03  0.7818608E-02  0.1098274E+00
          2   -1    0    0  501    0  0.00000000000E+00  0.00000000000E+00  0.93454973362E+02  0.93454973362E+02  0.00000000000E+00 0.  1.
         -2   -1    0    0    0  501 -0.00000000000E+00 -0.00000000000E+00 -0.20277263554E+03  0.20277263554E+03  0.00000000000E+00 0.  1.
         36    2    1    2    0    0 -0.14210854715E-13 -0.71054273576E-14 -0.10931766218E+03  0.29622760890E+03  0.27531880613E+03 0.  0.
         25    2    3    3    0    0  0.19792434995E+02  0.19254662925E+02  0.55756149401E+01  0.12458560730E+03  0.12135898623E+03 0.  0.
         25    2    3    3    0    0 -0.19792434995E+02 -0.19254662925E+02 -0.11489327712E+03  0.17164200160E+03  0.12449108024E+03 0.  0.
          5    1    4    4  502    0 -0.34154632577E+02  0.28514328266E+02  0.39782247843E+02  0.59869216517E+02  0.47000000000E+01 0. -1.
         -5    1    4    4    0  502  0.53947067572E+02 -0.92596653409E+01 -0.34206632903E+02  0.64716390786E+02  0.47000000000E+01 0. -1.
          5    1    5    5  503    0  0.41109584990E+02  0.21053966945E+02 -0.75226690231E+02  0.88399165297E+02  0.47000000000E+01 0. -1.
         -5    1    5    5    0  503 -0.60902019985E+02 -0.40308629869E+02 -0.39666586888E+02  0.83242836302E+02  0.47000000000E+01 0. -1.
<mgrwt>
<rscale>  0 0.27531881E+03</rscale>
<asrwt>0</asrwt>
<pdfrwt beam="1">  1        2 0.14377688E-01 0.27531881E+03</pdfrwt>
<pdfrwt beam="2">  1       -2 0.31195790E-01 0.27531881E+03</pdfrwt>
<totfact> 0.38817934E+03</totfact>
</mgrwt>
</event>
<event>
 9    1  0.2054950E-002  0.2758127E+03  0.7818608E-02  0.1097998E+00
          2   -1    0    0  501    0  0.00000000000E+00  0.00000000000E+00  0.18991785631E+04  0.18991785631E+04  0.00000000000E+00 0. -1.
         -2   -1    0    0    0  501 -0.00000000000E+00 -0.00000000000E+00 -0.10013888119E+02  0.10013888119E+02  0.00000000000E+00 0. -1.
         36    2    1    2    0    0  0.00000000000E+00  0.35527136788E-14  0.18891646749E+04  0.19091924512E+04  0.27581270202E+03 0.  0.
         25    2    3    3    0    0 -0.40852762644E+02  0.51882778492E+01  0.68261643915E+03  0.69560982038E+03  0.12732616684E+03 0.  0.
         25    2    3    3    0    0  0.40852762644E+02 -0.51882778492E+01  0.12065482358E+04  0.12135826308E+04  0.12380747174E+03 0.  0.
          5    1    4    4  502    0 -0.39063157126E+02 -0.48941007081E+02  0.52787836998E+03  0.53160024070E+03  0.47000000000E+01 0. -1.
         -5    1    4    4    0  502 -0.17896055179E+01  0.54129284930E+02  0.15473806917E+03  0.16400957968E+03  0.47000000000E+01 0. -1.
          5    1    5    5  503    0  0.63344559565E+02  0.19137022541E+02  0.10978033896E+04  0.10998059516E+04  0.47000000000E+01 0.  1.
         -5    1    5    5    0  503 -0.22491796922E+02 -0.24325300390E+02  0.10874484618E+03  0.11377667924E+03  0.47000000000E+01 0.  1.
<mgrwt>
<rscale>  0 0.27581270E+03</rscale>
<asrwt>0</asrwt>
<pdfrwt beam="1">  1        2 0.29218103E+00 0.27581270E+03</pdfrwt>
<pdfrwt beam="2">  1       -2 0.15405997E-02 0.27581270E+03</pdfrwt>
<totfact> 0.95236990E+03</totfact>
</mgrwt>
</event>
<event>
 9    1  0.2054950E-002  0.2733832E+03  0.7818608E-02  0.1099359E+00
         -1   -1    0    0    0  501 -0.00000000000E+00  0.00000000000E+00  0.10352245566E+02  0.10352245566E+02  0.00000000000E+00 0. -1.
          1   -1    0    0  501    0  0.00000000000E+00 -0.00000000000E+00 -0.18048827615E+04  0.18048827615E+04  0.00000000000E+00 0. -1.
         36    2    1    2    0    0  0.00000000000E+00  0.71054273576E-14 -0.17945305160E+04  0.18152350071E+04  0.27338317114E+03 0.  0.
         25    2    3    3    0    0  0.16063461816E+02  0.36993853884E+01 -0.12871688769E+04  0.12932649411E+04  0.12433330164E+03 0.  0.
         25    2    3    3    0    0 -0.16063461816E+02 -0.36993853884E+01 -0.50736163904E+03  0.52197006599E+03  0.12151212602E+03 0.  0.
          5    1    4    4  502    0  0.15083755164E+02 -0.42348951098E+02 -0.10817242807E+04  0.10826682145E+04  0.47000000000E+01 0. -1.
         -5    1    4    4    0  502  0.97970665237E+00  0.46048336486E+02 -0.20544459626E+03  0.21059672659E+03  0.47000000000E+01 0. -1.
          5    1    5    5  503    0 -0.49667720149E+02  0.42076001226E+02 -0.29128303224E+03  0.29850488635E+03  0.47000000000E+01 0. -1.
         -5    1    5    5    0  503  0.33604258333E+02 -0.45775386614E+02 -0.21607860680E+03  0.22346517965E+03  0.47000000000E+01 0. -1.
<mgrwt>
<rscale>  0 0.27338317E+03</rscale>
<asrwt>0</asrwt>
<pdfrwt beam="1">  1        1 0.27767436E+00 0.27338317E+03</pdfrwt>
<pdfrwt beam="2">  1       -1 0.15926527E-02 0.27338317E+03</pdfrwt>
<totfact> 0.43201221E+03</totfact>
</mgrwt>
</event>
<event>
 9    1  0.2054950E-002  0.2751753E+03  0.7818608E-02  0.1098354E+00
          2   -1    0    0  501    0  0.00000000000E+00  0.00000000000E+00  0.33276614262E+03  0.33276614262E+03  0.00000000000E+00 0.  1.
         -2   -1    0    0    0  501 -0.00000000000E+00 -0.00000000000E+00 -0.56887898082E+02  0.56887898082E+02  0.00000000000E+00 0.  1.
         36    2    1    2    0    0  0.00000000000E+00  0.35527136788E-14  0.27587824454E+03  0.38965404070E+03  0.27517533615E+03 0.  0.
         25    2    3    3    0    0  0.26228470174E+02 -0.23103231723E+02  0.21034737694E+03  0.24468493446E+03  0.12001252519E+03 0.  0.
         25    2    3    3    0    0 -0.26228470174E+02  0.23103231723E+02  0.65530867593E+02  0.14496910624E+03  0.12449921764E+03 0.  0.
          5    1    4    4  502    0 -0.46029484411E+02 -0.17428124824E+02  0.11196719174E+03  0.12239769196E+03  0.47000000000E+01 0. -1.
         -5    1    4    4    0  502  0.72257954584E+02 -0.56751068993E+01  0.98380185199E+02  0.12228724250E+03  0.47000000000E+01 0. -1.
          5    1    5    5  503    0 -0.35472816489E+02  0.57861200830E+02 -0.22763861231E+01  0.68069899405E+02  0.47000000000E+01 0. -1.
         -5    1    5    5    0  503  0.92443463154E+01 -0.34757969107E+02  0.67807253716E+02  0.76899206834E+02  0.47000000000E+01 0. -1.
<mgrwt>
<rscale>  0 0.27517534E+03</rscale>
<asrwt>0</asrwt>
<pdfrwt beam="1">  1        2 0.51194790E-01 0.27517534E+03</pdfrwt>
<pdfrwt beam="2">  1       -2 0.87519845E-02 0.27517534E+03</pdfrwt>
<totfact> 0.79552569E+03</totfact>
</mgrwt>
</event>
<event>
 9    1  0.2054950E-002  0.2748156E+03  0.7818608E-02  0.1098555E+00
         -2   -1    0    0    0  501 -0.00000000000E+00  0.00000000000E+00  0.77973089746E+01  0.77973089746E+01  0.00000000000E+00 0.  1.
          2   -1    0    0  501    0  0.00000000000E+00 -0.00000000000E+00 -0.24214640100E+04  0.24214640100E+04  0.00000000000E+00 0.  1.
         36    2    1    2    0    0  0.71054273576E-14  0.35527136788E-14 -0.24136667011E+04  0.24292613190E+04  0.27481559677E+03 0.  0.
         25    2    3    3    0    0 -0.51075507742E+02  0.12519003456E+02 -0.11003244733E+04  0.11087925002E+04  0.12625937204E+03 0.  0.
         25    2    3    3    0    0  0.51075507742E+02 -0.12519003456E+02 -0.13133422278E+04  0.13204688188E+04  0.12650953038E+03 0.  0.
          5    1    4    4  502    0 -0.28878122649E+02  0.35425030831E+02 -0.12908274406E+03  0.13701577862E+03  0.47000000000E+01 0. -1.
         -5    1    4    4    0  502 -0.22197385093E+02 -0.22906027375E+02 -0.97124172923E+03  0.97177672157E+03  0.47000000000E+01 0. -1.
          5    1    5    5  503    0 -0.26801711067E+02 -0.20047261111E+02 -0.12330730937E+03  0.12785541419E+03  0.47000000000E+01 0. -1.
         -5    1    5    5    0  503  0.77877218809E+02  0.75282576547E+01 -0.11900349184E+04  0.11926134046E+04  0.47000000000E+01 0. -1.
<mgrwt>
<rscale>  0 0.27481560E+03</rscale>
<asrwt>0</asrwt>
<pdfrwt beam="1">  1        2 0.37253250E+00 0.27481560E+03</pdfrwt>
<pdfrwt beam="2">  1       -2 0.11995874E-02 0.27481560E+03</pdfrwt>
<totfact> 0.72408490E+03</totfact>
</mgrwt>
</event>
<event>
 9    1  0.2054950E-002  0.2720512E+03  0.7818608E-02  0.1100111E+00
          1   -1    0    0  501    0  0.00000000000E+00  0.00000000000E+00  0.32533366296E+03  0.32533366296E+03  0.00000000000E+00 0.  1.
         -1   -1    0    0    0  501 -0.00000000000E+00 -0.00000000000E+00 -0.56873789652E+02  0.56873789652E+02  0.00000000000E+00 0.  1.
         36    2    1    2    0    0  0.00000000000E+00 -0.71054273576E-14  0.26845987330E+03  0.38220745261E+03  0.27205115926E+03 0.  0.
         25    2    3    3    0    0 -0.35837534745E+02 -0.16739566986E+02  0.17798653739E+03  0.22158765386E+03  0.12592592604E+03 0.  0.
         25    2    3    3    0    0  0.35837534745E+02  0.16739566986E+02  0.90473335910E+02  0.16061979875E+03  0.12668367393E+03 0.  0.
          5    1    4    4  502    0 -0.84921926842E+01  0.54173357485E+02  0.86929664373E+02  0.10288696004E+03  0.47000000000E+01 0. -1.
         -5    1    4    4    0  502 -0.27345342061E+02 -0.70912924471E+02  0.91056873021E+02  0.11870069382E+03  0.47000000000E+01 0. -1.
          5    1    5    5  503    0 -0.22792294773E+02  0.34126594084E+02 -0.10371023173E+02  0.42588275927E+02  0.47000000000E+01 0.  1.
         -5    1    5    5    0  503  0.58629829518E+02 -0.17387027098E+02  0.10084435908E+03  0.11803152282E+03  0.47000000000E+01 0.  1.
<mgrwt>
<rscale>  0 0.27205116E+03</rscale>
<asrwt>0</asrwt>
<pdfrwt beam="1">  1        1 0.50051332E-01 0.27205116E+03</pdfrwt>
<pdfrwt beam="2">  1       -1 0.87498140E-02 0.27205116E+03</pdfrwt>
<totfact> 0.58842254E+03</totfact>
</mgrwt>
</event>
<event>
 9    1  0.2054950E-002  0.2733502E+03  0.7818608E-02  0.1099377E+00
          1   -1    0    0  501    0  0.00000000000E+00  0.00000000000E+00  0.51640217985E+02  0.51640217985E+02  0.00000000000E+00 0. -1.
         -1   -1    0    0    0  501 -0.00000000000E+00 -0.00000000000E+00 -0.36173507880E+03  0.36173507880E+03  0.00000000000E+00 0. -1.
         36    2    1    2    0    0 -0.71054273576E-14  0.00000000000E+00 -0.31009486081E+03  0.41337529678E+03  0.27335016607E+03 0.  0.
         25    2    3    3    0    0  0.51167609238E+02 -0.21284358440E+02 -0.15514658584E+03  0.20721413803E+03  0.12568248785E+03 0.  0.
         25    2    3    3    0    0 -0.51167609238E+02  0.21284358440E+02 -0.15494827497E+03  0.20616115875E+03  0.12418658266E+03 0.  0.
          5    1    4    4  502    0 -0.14983015063E+02 -0.39362323653E+02 -0.57553485328E+01  0.42767947116E+02  0.47000000000E+01 0. -1.
         -5    1    4    4    0  502  0.66150624301E+02  0.18077965214E+02 -0.14939123731E+03  0.16444619091E+03  0.47000000000E+01 0. -1.
          5    1    5    5  503    0 -0.77484046297E+02  0.53314605529E+02 -0.11095579495E+03  0.14553179387E+03  0.47000000000E+01 0.  1.
         -5    1    5    5    0  503  0.26316437059E+02 -0.32030247089E+02 -0.43992480025E+02  0.60629364889E+02  0.47000000000E+01 0.  1.
<mgrwt>
<rscale>  0 0.27335017E+03</rscale>
<asrwt>0</asrwt>
<pdfrwt beam="1">  1        1 0.79446489E-02 0.27335017E+03</pdfrwt>
<pdfrwt beam="2">  1       -1 0.55651551E-01 0.27335017E+03</pdfrwt>
<totfact> 0.29371011E+03</totfact>
</mgrwt>
</event>
<event>
 9    1  0.2054950E-002  0.2744498E+03  0.7818608E-02  0.1098760E+00
          2   -1    0    0  501    0  0.00000000000E+00  0.00000000000E+00  0.21707156825E+03  0.21707156825E+03  0.00000000000E+00 0. -1.
         -2   -1    0    0    0  501 -0.00000000000E+00 -0.00000000000E+00 -0.86748683237E+02  0.86748683237E+02  0.00000000000E+00 0. -1.
         36    2    1    2    0    0  0.00000000000E+00  0.00000000000E+00  0.13032288502E+03  0.30382025149E+03  0.27444979660E+03 0.  0.
         25    2    3    3    0    0 -0.15347558141E+02 -0.13148866644E+02  0.11397590550E+03  0.17230199602E+03  0.12762848649E+03 0.  0.
         25    2    3    3    0    0  0.15347558141E+02  0.13148866644E+02  0.16346979514E+02  0.13151825547E+03  0.12892396033E+03 0.  0.
          5    1    4    4  502    0 -0.63440246413E+02  0.14882904365E+02  0.90707347911E+02  0.11178586079E+03  0.47000000000E+01 0.  1.
         -5    1    4    4    0  502  0.48092688273E+02 -0.28031771008E+02  0.23268557591E+02  0.60516135233E+02  0.47000000000E+01 0.  1.
          5    1    5    5  503    0 -0.15044293881E+02  0.30376859994E+02 -0.47525256086E+02  0.58564702403E+02  0.47000000000E+01 0.  1.
         -5    1    5    5    0  503  0.30391852022E+02 -0.17227993351E+02  0.63872235600E+02  0.72953553065E+02  0.47000000000E+01 0.  1.
<mgrwt>
<rscale>  0 0.27444980E+03</rscale>
<asrwt>0</asrwt>
<pdfrwt beam="1">  1        2 0.33395626E-01 0.27444980E+03</pdfrwt>
<pdfrwt beam="2">  1       -2 0.13345951E-01 0.27444980E+03</pdfrwt>
<totfact> 0.64201459E+03</totfact>
</mgrwt>
</event>
<event>
 9    1  0.2054950E-002  0.2692953E+03  0.7818608E-02  0.1101684E+00
          2   -1    0    0  501    0  0.00000000000E+00  0.00000000000E+00  0.42680677799E+03  0.42680677799E+03  0.00000000000E+00 0.  1.
         -2   -1    0    0    0  501 -0.00000000000E+00 -0.00000000000E+00 -0.42478224471E+02  0.42478224471E+02  0.00000000000E+00 0.  1.
         36    2    1    2    0    0  0.00000000000E+00 -0.14210854715E-13  0.38432855352E+03  0.46928500246E+03  0.26929533320E+03 0.  0.
         25    2    3    3    0    0 -0.13215904004E+02 -0.48226666687E+02  0.19946910350E+03  0.24160603371E+03  0.12682697181E+03 0.  0.
         25    2    3    3    0    0  0.13215904004E+02  0.48226666687E+02  0.18485945003E+03  0.22767896875E+03  0.12314310800E+03 0.  0.
          5    1    4    4  502    0  0.25802923155E+02 -0.80871521980E+02  0.11786855522E+03  0.14533093346E+03  0.47000000000E+01 0. -1.
         -5    1    4    4    0  502 -0.39018827159E+02  0.32644855293E+02  0.81600548280E+02  0.96275100258E+02  0.47000000000E+01 0. -1.
          5    1    5    5  503    0  0.67392414900E+02  0.37521306375E+02  0.11388690202E+03  0.13762958429E+03  0.47000000000E+01 0.  1.
         -5    1    5    5    0  503 -0.54176510896E+02  0.10705360311E+02  0.70972548003E+02  0.90049384463E+02  0.47000000000E+01 0.  1.
<mgrwt>
<rscale>  0 0.26929533E+03</rscale>
<asrwt>0</asrwt>
<pdfrwt beam="1">  1        2 0.65662578E-01 0.26929533E+03</pdfrwt>
<pdfrwt beam="2">  1       -2 0.65351117E-02 0.26929533E+03</pdfrwt>
<totfact> 0.95630821E+03</totfact>
</mgrwt>
</event>
<event>
 9    1  0.2054950E-002  0.2753284E+03  0.7818608E-02  0.1098268E+00
          2   -1    0    0  501    0  0.00000000000E+00  0.00000000000E+00  0.61129811458E+02  0.61129811458E+02  0.00000000000E+00 0.  1.
         -2   -1    0    0    0  501 -0.00000000000E+00 -0.00000000000E+00 -0.31001946359E+03  0.31001946359E+03  0.00000000000E+00 0.  1.
         36    2    1    2    0    0 -0.71054273576E-14  0.00000000000E+00 -0.24888965213E+03  0.37114927505E+03  0.27532839561E+03 0.  0.
         25    2    3    3    0    0 -0.19651962592E+02  0.20631235550E+02 -0.50793626345E+02  0.13645372925E+03  0.12340089236E+03 0.  0.
         25    2    3    3    0    0  0.19651962592E+02 -0.20631235550E+02 -0.19809602578E+03  0.23469554579E+03  0.12258921759E+03 0.  0.
          5    1    4    4  502    0 -0.68289091650E+02  0.23742401053E+02 -0.10838358774E+02  0.73257502463E+02  0.47000000000E+01 0. -1.
         -5    1    4    4    0  502  0.48637129058E+02 -0.31111655031E+01 -0.39955267571E+02  0.63196226790E+02  0.47000000000E+01 0. -1.
          5    1    5    5  503    0  0.42614627295E+02 -0.79253192700E+01 -0.20296366923E+03  0.20759373346E+03  0.47000000000E+01 0.  1.
         -5    1    5    5    0  503 -0.22962664703E+02 -0.12705916280E+02  0.48676434475E+01  0.27101812329E+02  0.47000000000E+01 0.  1.
<mgrwt>
<rscale>  0 0.27532840E+03</rscale>
<asrwt>0</asrwt>
<pdfrwt beam="1">  1        2 0.94045864E-02 0.27532840E+03</pdfrwt>
<pdfrwt beam="2">  1       -2 0.47695302E-01 0.27532840E+03</pdfrwt>
<totfact> 0.29113977E+03</totfact>
</mgrwt>
</event>
<event>
 9    1  0.2054950E-002  0.2766012E+03  0.7818608E-02  0.1097560E+00
         -2   -1    0    0    0  501 -0.00000000000E+00  0.00000000000E+00  0.33966539925E+03  0.33966539925E+03  0.00000000000E+00 0.  1.
          2   -1    0    0  501    0  0.00000000000E+00 -0.00000000000E+00 -0.56311481608E+02  0.56311481608E+02  0.00000000000E+00 0.  1.
         36    2    1    2    0    0  0.00000000000E+00  0.00000000000E+00  0.28335391765E+03  0.39597688086E+03  0.27660124282E+03 0.  0.
         25    2    3    3    0    0 -0.48158986403E+01  0.61919542312E+02  0.16058721880E+03  0.20960666036E+03  0.11953859054E+03 0.  0.
         25    2    3    3    0    0  0.48158986403E+01 -0.61919542312E+02  0.12276669885E+03  0.18637022050E+03  0.12571783542E+03 0.  0.
          5    1    4    4  502    0  0.50207530592E+02  0.58897270340E+02  0.11051213626E+03  0.13499891423E+03  0.47000000000E+01 0.  1.
         -5    1    4    4    0  502 -0.55023429232E+02  0.30222719721E+01  0.50075082536E+02  0.74607746135E+02  0.47000000000E+01 0.  1.
          5    1    5    5  503    0  0.13807741853E+02 -0.23687649604E+02  0.14035186734E+03  0.14308212727E+03  0.47000000000E+01 0. -1.
         -5    1    5    5    0  503 -0.89918432129E+01 -0.38231892708E+02 -0.17585168491E+02  0.43288093228E+02  0.47000000000E+01 0. -1.
<mgrwt>
<rscale>  0 0.27660124E+03</rscale>
<asrwt>0</asrwt>
<pdfrwt beam="1">  1        2 0.86633051E-02 0.27660124E+03</pdfrwt>
<pdfrwt beam="2">  1       -2 0.52256214E-01 0.27660124E+03</pdfrwt>
<totfact> 0.26905021E+03</totfact>
</mgrwt>
</event>
<event>
 9    1  0.2054950E-002  0.2756191E+03  0.7818608E-02  0.1098106E+00
         -2   -1    0    0    0  501 -0.00000000000E+00  0.00000000000E+00  0.79657505009E+02  0.79657505009E+02  0.00000000000E+00 0. -1.
          2   -1    0    0  501    0  0.00000000000E+00 -0.00000000000E+00 -0.23841412862E+03  0.23841412862E+03  0.00000000000E+00 0. -1.
         36    2    1    2    0    0 -0.71054273576E-14  0.35527136788E-14 -0.15875662361E+03  0.31807163363E+03  0.27561911867E+03 0.  0.
         25    2    3    3    0    0 -0.41963568576E+00  0.14083096774E+02 -0.12761791702E+02  0.12627016808E+03  0.12483101502E+03 0.  0.
         25    2    3    3    0    0  0.41963568576E+00 -0.14083096774E+02 -0.14599483191E+03  0.19180146555E+03  0.12359126803E+03 0.  0.
          5    1    4    4  502    0 -0.54466517576E+02  0.35822690160E+02  0.39613125641E+01  0.65480139465E+02  0.47000000000E+01 0. -1.
         -5    1    4    4    0  502  0.54046881890E+02 -0.21739593387E+02 -0.16723104266E+02  0.60790028614E+02  0.47000000000E+01 0. -1.
          5    1    5    5  503    0  0.58479710458E+02 -0.83998452263E+01 -0.10422792561E+03  0.11989989330E+03  0.47000000000E+01 0.  1.
         -5    1    5    5    0  503 -0.58060074772E+02 -0.56832515472E+01 -0.41766906296E+02  0.71901572251E+02  0.47000000000E+01 0.  1.
<mgrwt>
<rscale>  0 0.27561912E+03</rscale>
<asrwt>0</asrwt>
<pdfrwt beam="1">  1        2 0.36679096E-01 0.27561912E+03</pdfrwt>
<pdfrwt beam="2">  1       -2 0.12255001E-01 0.27561912E+03</pdfrwt>
<totfact> 0.66613511E+03</totfact>
</mgrwt>
</event>
<event>
 9    1  0.2054950E-002  0.2731873E+03  0.7818608E-02  0.1099469E+00
         -1   -1    0    0    0  501 -0.00000000000E+00  0.00000000000E+00  0.29195320914E+02  0.29195320914E+02  0.00000000000E+00 0.  1.
          1   -1    0    0  501    0  0.00000000000E+00 -0.00000000000E+00 -0.63906917389E+03  0.63906917389E+03  0.00000000000E+00 0.  1.
         36    2    1    2    0    0  0.00000000000E+00  0.71054273576E-14 -0.60987385298E+03  0.66826449481E+03  0.27318733220E+03 0.  0.
         25    2    3    3    0    0 -0.20503821639E+02 -0.41380291203E+02 -0.39264279395E+03  0.41411361761E+03  0.12324361827E+03 0.  0.
         25    2    3    3    0    0  0.20503821639E+02  0.41380291203E+02 -0.21723105903E+03  0.25415087720E+03  0.12357426987E+03 0.  0.
          5    1    4    4  502    0  0.54080621204E+01 -0.73315506980E+02 -0.33586894360E+03  0.34385236363E+03  0.47000000000E+01 0.  1.
         -5    1    4    4    0  502 -0.25911883759E+02  0.31935215777E+02 -0.56773850350E+02  0.70261253975E+02  0.47000000000E+01 0.  1.
          5    1    5    5  503    0 -0.19051760143E+02  0.21310287154E+02  0.32983021563E+01  0.29155903351E+02  0.47000000000E+01 0. -1.
         -5    1    5    5    0  503  0.39555581781E+02  0.20070004049E+02 -0.22052936118E+03  0.22499497385E+03  0.47000000000E+01 0. -1.
<mgrwt>
<rscale>  0 0.27318733E+03</rscale>
<asrwt>0</asrwt>
<pdfrwt beam="1">  1        1 0.98318328E-01 0.27318733E+03</pdfrwt>
<pdfrwt beam="2">  1       -1 0.44915881E-02 0.27318733E+03</pdfrwt>
<totfact> 0.66274455E+03</totfact>
</mgrwt>
</event>
<event>
 9    1  0.2054950E-002  0.2750346E+03  0.7818608E-02  0.1098432E+00
          2   -1    0    0  501    0  0.00000000000E+00  0.00000000000E+00  0.18697254754E+04  0.18697254754E+04  0.00000000000E+00 0. -1.
         -2   -1    0    0    0  501 -0.00000000000E+00 -0.00000000000E+00 -0.10114322352E+02  0.10114322352E+02  0.00000000000E+00 0. -1.
         36    2    1    2    0    0  0.00000000000E+00 -0.35527136788E-14  0.18596111530E+04  0.18798397977E+04  0.27503458814E+03 0.  0.
         25    2    3    3    0    0  0.40401398711E+02 -0.91793182633E+01  0.13845100771E+04  0.13909111690E+04  0.12668541155E+03 0.  0.
         25    2    3    3    0    0 -0.40401398711E+02  0.91793182633E+01  0.47510107586E+03  0.48892862869E+03  0.10776659391E+03 0.  0.
          5    1    4    4  502    0 -0.29622040693E+01 -0.90583104789E+01  0.70311713412E+01  0.12741860622E+02  0.47000000000E+01 0.  1.
         -5    1    4    4    0  502  0.43363602781E+02 -0.12100778444E+00  0.13774789058E+04  0.13781693084E+04  0.47000000000E+01 0.  1.
          5    1    5    5  503    0 -0.35395311457E+01  0.48470886740E+02  0.33863985386E+03  0.34214177729E+03  0.47000000000E+01 0.  1.
         -5    1    5    5    0  503 -0.36861867566E+02 -0.39291568477E+02  0.13646122200E+03  0.14678685140E+03  0.47000000000E+01 0.  1.
<mgrwt>
<rscale>  0 0.27503459E+03</rscale>
<asrwt>0</asrwt>
<pdfrwt beam="1">  1        2 0.28764980E+00 0.27503459E+03</pdfrwt>
<pdfrwt beam="2">  1       -2 0.15560511E-02 0.27503459E+03</pdfrwt>
<totfact> 0.97253836E+03</totfact>
</mgrwt>
</event>
<event>
 9    1  0.2054950E-002  0.2739463E+03  0.7818608E-02  0.1099042E+00
          2   -1    0    0  501    0  0.00000000000E+00  0.00000000000E+00  0.36066608862E+03  0.36066608862E+03  0.00000000000E+00 0. -1.
         -2   -1    0    0    0  501 -0.00000000000E+00 -0.00000000000E+00 -0.52019409941E+02  0.52019409941E+02  0.00000000000E+00 0. -1.
         36    2    1    2    0    0 -0.31086244690E-14  0.00000000000E+00  0.30864667868E+03  0.41268549856E+03  0.27394625105E+03 0.  0.
         25    2    3    3    0    0 -0.30743705971E+01  0.32397598735E+02  0.21055269157E+03  0.24941416102E+03  0.12967625700E+03 0.  0.
         25    2    3    3    0    0  0.30743705971E+01 -0.32397598735E+02  0.98093987105E+02  0.16327133754E+03  0.12639637336E+03 0.  0.
          5    1    4    4  502    0 -0.26262309215E+02 -0.43722563661E+02  0.58651769649E+02  0.77868424547E+02  0.47000000000E+01 0. -1.
         -5    1    4    4    0  502  0.23187938618E+02  0.76120162396E+02  0.15190092192E+03  0.17154573647E+03  0.47000000000E+01 0. -1.
          5    1    5    5  503    0  0.12841073039E+01 -0.76619723503E+02  0.89542749197E+02  0.11795009493E+03  0.47000000000E+01 0. -1.
         -5    1    5    5    0  503  0.17902632931E+01  0.44222124768E+02  0.85512379083E+01  0.45321242607E+02  0.47000000000E+01 0. -1.
<mgrwt>
<rscale>  0 0.27394625E+03</rscale>
<asrwt>0</asrwt>
<pdfrwt beam="1">  1        2 0.55487089E-01 0.27394625E+03</pdfrwt>
<pdfrwt beam="2">  1       -2 0.80029864E-02 0.27394625E+03</pdfrwt>
<totfact> 0.83896953E+03</totfact>
</mgrwt>
</event>
<event>
 9    1  0.2054950E-002  0.2746118E+03  0.7818608E-02  0.1098669E+00
          2   -1    0    0  501    0  0.00000000000E+00  0.00000000000E+00  0.77302942839E+03  0.77302942839E+03  0.00000000000E+00 0. -1.
         -2   -1    0    0    0  501 -0.00000000000E+00 -0.00000000000E+00 -0.24388343274E+02  0.24388343274E+02  0.00000000000E+00 0. -1.
         36    2    1    2    0    0 -0.35527136788E-14 -0.71054273576E-14  0.74864108512E+03  0.79741777167E+03  0.27461177732E+03 0.  0.
         25    2    3    3    0    0 -0.10049292165E+02  0.15661645044E+01  0.20840228071E+03  0.24294109298E+03  0.12444043920E+03 0.  0.
         25    2    3    3    0    0  0.10049292165E+02 -0.15661645044E+01  0.54023880441E+03  0.55447667869E+03  0.12443062434E+03 0.  0.
          5    1    4    4  502    0  0.12002578441E+01  0.62206442425E+02  0.11660751858E+03  0.13225159919E+03  0.47000000000E+01 0. -1.
         -5    1    4    4    0  502 -0.11249550009E+02 -0.60640277921E+02  0.91794762129E+02  0.11068949379E+03  0.47000000000E+01 0. -1.
          5    1    5    5  503    0 -0.24134669307E+02  0.38588646465E+02  0.88337154579E+02  0.99484213711E+02  0.47000000000E+01 0.  1.
         -5    1    5    5    0  503  0.34183961472E+02 -0.40154810970E+02  0.45190164983E+03  0.45499246498E+03  0.47000000000E+01 0.  1.
<mgrwt>
<rscale>  0 0.27461178E+03</rscale>
<asrwt>0</asrwt>
<pdfrwt beam="1">  1        2 0.11892759E+00 0.27461178E+03</pdfrwt>
<pdfrwt beam="2">  1       -2 0.37520534E-02 0.27461178E+03</pdfrwt>
<totfact> 0.11178846E+04</totfact>
</mgrwt>
</event>
<event>
 9    1  0.2054950E-002  0.2744682E+03  0.7818608E-02  0.1098749E+00
          1   -1    0    0  501    0  0.00000000000E+00  0.00000000000E+00  0.18664524318E+04  0.18664524318E+04  0.00000000000E+00 0.  1.
         -1   -1    0    0    0  501 -0.00000000000E+00 -0.00000000000E+00 -0.10090369768E+02  0.10090369768E+02  0.00000000000E+00 0.  1.
         36    2    1    2    0    0  0.00000000000E+00  0.00000000000E+00  0.18563620621E+04  0.18765428016E+04  0.27446817806E+03 0.  0.
         25    2    3    3    0    0  0.31164418197E+01  0.58108940177E+02  0.10010699075E+04  0.10103367407E+04  0.12350307225E+03 0.  0.
         25    2    3    3    0    0 -0.31164418197E+01 -0.58108940177E+02  0.85529215460E+03  0.86620606089E+03  0.12410442808E+03 0.  0.
          5    1    4    4  502    0  0.19051271912E+02  0.68797692002E+02  0.27996159426E+03  0.28895788213E+03  0.47000000000E+01 0.  1.
         -5    1    4    4    0  502 -0.15934830093E+02 -0.10688751824E+02  0.72110831320E+03  0.72137885857E+03  0.47000000000E+01 0.  1.
          5    1    5    5  503    0  0.19096337903E+02 -0.70445145885E+02  0.81541830227E+03  0.81869181404E+03  0.47000000000E+01 0.  1.
         -5    1    5    5    0  503 -0.22212779723E+02  0.12336205708E+02  0.39873852326E+02  0.47514246848E+02  0.47000000000E+01 0.  1.
<mgrwt>
<rscale>  0 0.27446818E+03</rscale>
<asrwt>0</asrwt>
<pdfrwt beam="1">  1        1 0.28714625E+00 0.27446818E+03</pdfrwt>
<pdfrwt beam="2">  1       -1 0.15523661E-02 0.27446818E+03</pdfrwt>
<totfact> 0.40899014E+03</totfact>
</mgrwt>
</event>
<event>
 9    1  0.2054950E-002  0.2752121E+03  0.7818608E-02  0.1098333E+00
         -1   -1    0    0    0  501 -0.00000000000E+00  0.00000000000E+00  0.44134343619E+02  0.44134343619E+02  0.00000000000E+00 0.  1.
          1   -1    0    0  501    0  0.00000000000E+00 -0.00000000000E+00 -0.42904054625E+03  0.42904054625E+03  0.00000000000E+00 0.  1.
         36    2    1    2    0    0  0.00000000000E+00  0.00000000000E+00 -0.38490620263E+03  0.47317488987E+03  0.27521208472E+03 0.  0.
         25    2    3    3    0    0 -0.50383921775E+01  0.16720332304E+02 -0.88866076910E+02  0.15195340617E+03  0.12201517575E+03 0.  0.
         25    2    3    3    0    0  0.50383921775E+01 -0.16720332304E+02 -0.29604012572E+03  0.32122148370E+03  0.12344444355E+03 0.  0.
          5    1    4    4  502    0 -0.50923546776E+02  0.83007405656E+01 -0.37796470649E+00  0.51810643381E+02  0.47000000000E+01 0.  1.
         -5    1    4    4    0  502  0.45885154599E+02  0.84195917387E+01 -0.88488112203E+02  0.10014276279E+03  0.47000000000E+01 0.  1.
          5    1    5    5  503    0  0.42134252322E+02 -0.54725242729E+02 -0.19591903693E+03  0.20778957250E+03  0.47000000000E+01 0. -1.
         -5    1    5    5    0  503 -0.37095860144E+02  0.38004910425E+02 -0.10012108879E+03  0.11343191120E+03  0.47000000000E+01 0. -1.
<mgrwt>
<rscale>  0 0.27521208E+03</rscale>
<asrwt>0</asrwt>
<pdfrwt beam="1">  1        1 0.66006238E-01 0.27521208E+03</pdfrwt>
<pdfrwt beam="2">  1       -1 0.67898990E-02 0.27521208E+03</pdfrwt>
<totfact> 0.60883921E+03</totfact>
</mgrwt>
</event>
<event>
 9    1  0.2054950E-002  0.2748012E+03  0.7818608E-02  0.1098563E+00
         -2   -1    0    0    0  501 -0.00000000000E+00  0.00000000000E+00  0.20621016029E+02  0.20621016029E+02  0.00000000000E+00 0. -1.
          2   -1    0    0  501    0  0.00000000000E+00 -0.00000000000E+00 -0.91551889917E+03  0.91551889917E+03  0.00000000000E+00 0. -1.
         36    2    1    2    0    0  0.00000000000E+00  0.00000000000E+00 -0.89489788314E+03  0.93613991520E+03  0.27480123649E+03 0.  0.
         25    2    3    3    0    0  0.92798880050E+01 -0.27910748698E+02 -0.33329966670E+03  0.35752142836E+03  0.12596736760E+03 0.  0.
         25    2    3    3    0    0 -0.92798880050E+01  0.27910748698E+02 -0.56159821645E+03  0.57861848684E+03  0.13616780231E+03 0.  0.
          5    1    4    4  502    0 -0.37342482554E+02 -0.15513960475E+02 -0.28901091910E+03  0.29186391577E+03  0.47000000000E+01 0.  1.
         -5    1    4    4    0  502  0.46622370559E+02 -0.12396788223E+02 -0.44288747599E+02  0.65657512584E+02  0.47000000000E+01 0.  1.
          5    1    5    5  503    0  0.59949055932E+02  0.28300241153E+02 -0.21098271660E+03  0.22120259867E+03  0.47000000000E+01 0.  1.
         -5    1    5    5    0  503 -0.69228943937E+02 -0.38949245466E+00 -0.35061549985E+03  0.35741588817E+03  0.47000000000E+01 0.  1.
<mgrwt>
<rscale>  0 0.27480124E+03</rscale>
<asrwt>0</asrwt>
<pdfrwt beam="1">  1        2 0.14084903E+00 0.27480124E+03</pdfrwt>
<pdfrwt beam="2">  1       -2 0.31724647E-02 0.27480124E+03</pdfrwt>
<totfact> 0.11530489E+04</totfact>
</mgrwt>
</event>
<event>
 9    1  0.2054950E-002  0.2752422E+03  0.7818608E-02  0.1098316E+00
          1   -1    0    0  501    0  0.00000000000E+00  0.00000000000E+00  0.11946135070E+04  0.11946135070E+04  0.00000000000E+00 0.  1.
         -1   -1    0    0    0  501 -0.00000000000E+00 -0.00000000000E+00 -0.15854140821E+02  0.15854140821E+02  0.00000000000E+00 0.  1.
         36    2    1    2    0    0 -0.71054273576E-14 -0.71054273576E-14  0.11787593662E+04  0.12104676479E+04  0.27524222617E+03 0.  0.
         25    2    3    3    0    0 -0.22849532490E+02  0.41368872506E+02  0.38956805579E+03  0.41282051368E+03  0.12815623933E+03 0.  0.
         25    2    3    3    0    0  0.22849532490E+02 -0.41368872506E+02  0.78919131044E+03  0.79764713418E+03  0.10575699248E+03 0.  0.
          5    1    4    4  502    0 -0.73895317203E+02  0.42372804216E+02  0.24097869855E+03  0.25563410491E+03  0.47000000000E+01 0.  1.
         -5    1    4    4    0  502  0.51045784713E+02 -0.10039317099E+01  0.14858935724E+03  0.15718640877E+03  0.47000000000E+01 0.  1.
          5    1    5    5  503    0  0.25164334400E+02  0.31767569088E+02  0.35104022920E+03  0.35340310509E+03  0.47000000000E+01 0. -1.
         -5    1    5    5    0  503 -0.23148019102E+01 -0.73136441594E+02  0.43815108124E+03  0.44424402909E+03  0.47000000000E+01 0. -1.
<mgrwt>
<rscale>  0 0.27524223E+03</rscale>
<asrwt>0</asrwt>
<pdfrwt beam="1">  1        1 0.18378662E+00 0.27524223E+03</pdfrwt>
<pdfrwt beam="2">  1       -1 0.24390995E-02 0.27524223E+03</pdfrwt>
<totfact> 0.59144911E+03</totfact>
</mgrwt>
</event>
<event>
 9    1  0.2054950E-002  0.2760976E+03  0.7818608E-02  0.1097840E+00
          1   -1    0    0  501    0  0.00000000000E+00  0.00000000000E+00  0.12805678288E+04  0.12805678288E+04  0.00000000000E+00 0.  1.
         -1   -1    0    0    0  501 -0.00000000000E+00 -0.00000000000E+00 -0.14882050198E+02  0.14882050198E+02  0.00000000000E+00 0.  1.
         36    2    1    2    0    0 -0.71054273576E-14  0.53290705182E-14  0.12656857786E+04  0.12954498790E+04  0.27609762556E+03 0.  0.
         25    2    3    3    0    0  0.20759242588E+02  0.32898825160E+01  0.35064330351E+03  0.37146214858E+03  0.12079582795E+03 0.  0.
         25    2    3    3    0    0 -0.20759242588E+02 -0.32898825160E+01  0.91504247507E+03  0.92398773040E+03  0.12652598652E+03 0.  0.
          5    1    4    4  502    0  0.62629022475E+01 -0.70865401263E+01 -0.74311607989E+01  0.12913370836E+02  0.47000000000E+01 0. -1.
         -5    1    4    4    0  502  0.14496340341E+02  0.10376422642E+02  0.35807446431E+03  0.35854877774E+03  0.47000000000E+01 0. -1.
          5    1    5    5  503    0  0.23694816110E+02  0.35111513960E+02  0.13153607319E+03  0.13826818605E+03  0.47000000000E+01 0. -1.
         -5    1    5    5    0  503 -0.44454058698E+02 -0.38401396476E+02  0.78350640187E+03  0.78571954434E+03  0.47000000000E+01 0. -1.
<mgrwt>
<rscale>  0 0.27609763E+03</rscale>
<asrwt>0</asrwt>
<pdfrwt beam="1">  1        1 0.19701035E+00 0.27609763E+03</pdfrwt>
<pdfrwt beam="2">  1       -1 0.22895472E-02 0.27609763E+03</pdfrwt>
<totfact> 0.56579871E+03</totfact>
</mgrwt>
</event>
<event>
 9    1  0.2054950E-002  0.2773656E+03  0.7818608E-02  0.1097137E+00
          3   -1    0    0  501    0  0.00000000000E+00  0.00000000000E+00  0.20447582238E+03  0.20447582238E+03  0.00000000000E+00 0. -1.
         -3   -1    0    0    0  501 -0.00000000000E+00 -0.00000000000E+00 -0.94059627076E+02  0.94059627076E+02  0.00000000000E+00 0. -1.
         36    2    1    2    0    0  0.00000000000E+00  0.14210854715E-13  0.11041619530E+03  0.29853544945E+03  0.27736560420E+03 0.  0.
         25    2    3    3    0    0  0.18639175072E+02  0.45078229728E+02  0.81905379995E+02  0.15962602644E+03  0.12803324335E+03 0.  0.
         25    2    3    3    0    0 -0.18639175072E+02 -0.45078229728E+02  0.28510815307E+02  0.13890942301E+03  0.12689954913E+03 0.  0.
          5    1    4    4  502    0  0.54604027682E+02  0.68699211087E+02  0.31907837981E+02  0.93495355862E+02  0.47000000000E+01 0. -1.
         -5    1    4    4    0  502 -0.35964852611E+02 -0.23620981359E+02  0.49997542014E+02  0.66130670578E+02  0.47000000000E+01 0. -1.
          5    1    5    5  503    0  0.35597122846E+02  0.16179339949E+02 -0.19482382720E+02  0.43938359466E+02  0.47000000000E+01 0. -1.
         -5    1    5    5    0  503 -0.54236297918E+02 -0.61257569677E+02  0.47993198027E+02  0.94971063548E+02  0.47000000000E+01 0. -1.
<mgrwt>
<rscale>  0 0.27736560E+03</rscale>
<asrwt>0</asrwt>
<pdfrwt beam="1">  1        3 0.31457819E-01 0.27736560E+03</pdfrwt>
<pdfrwt beam="2">  1       -3 0.14470712E-01 0.27736560E+03</pdfrwt>
<totfact> 0.98753866E+02</totfact>
</mgrwt>
</event>
<event>
 9    1  0.2054950E-002  0.2747055E+03  0.7818608E-02  0.1098616E+00
         -2   -1    0    0    0  501 -0.00000000000E+00  0.00000000000E+00  0.24440835088E+02  0.24440835088E+02  0.00000000000E+00 0.  1.
          2   -1    0    0  501    0  0.00000000000E+00 -0.00000000000E+00 -0.77189598754E+03  0.77189598754E+03  0.00000000000E+00 0.  1.
         36    2    1    2    0    0  0.35527136788E-14 -0.71054273576E-14 -0.74745515245E+03  0.79633682263E+03  0.27470553352E+03 0.  0.
         25    2    3    3    0    0  0.14419766382E+01 -0.24610574615E+02 -0.23492078328E+03  0.26952578722E+03  0.12980221833E+03 0.  0.
         25    2    3    3    0    0 -0.14419766382E+01  0.24610574615E+02 -0.51253436917E+03  0.52681103540E+03  0.11929219489E+03 0.  0.
          5    1    4    4  502    0  0.31435002108E+02 -0.68679680882E+02 -0.10890144365E+03  0.13261475164E+03  0.47000000000E+01 0. -1.
         -5    1    4    4    0  502 -0.29993025470E+02  0.44069106268E+02 -0.12601933963E+03  0.13691103559E+03  0.47000000000E+01 0. -1.
          5    1    5    5  503    0 -0.49729125674E+02  0.30858491413E+02 -0.39743406779E+03  0.40174763307E+03  0.47000000000E+01 0.  1.
         -5    1    5    5    0  503  0.48287149036E+02 -0.62479167986E+01 -0.11510030138E+03  0.12506340233E+03  0.47000000000E+01 0.  1.
<mgrwt>
<rscale>  0 0.27470553E+03</rscale>
<asrwt>0</asrwt>
<pdfrwt beam="1">  1        2 0.11875322E+00 0.27470553E+03</pdfrwt>
<pdfrwt beam="2">  1       -2 0.37601286E-02 0.27470553E+03</pdfrwt>
<totfact> 0.11163532E+04</totfact>
</mgrwt>
</event>
<event>
 9    1  0.2054950E-002  0.2756976E+03  0.7818608E-02  0.1098062E+00
          2   -1    0    0  501    0  0.00000000000E+00  0.00000000000E+00  0.21663510841E+04  0.21663510841E+04  0.00000000000E+00 0. -1.
         -2   -1    0    0    0  501 -0.00000000000E+00 -0.00000000000E+00 -0.87715659938E+01  0.87715659938E+01  0.00000000000E+00 0. -1.
         36    2    1    2    0    0  0.00000000000E+00 -0.71054273576E-14  0.21575795181E+04  0.21751226501E+04  0.27569759883E+03 0.  0.
         25    2    3    3    0    0 -0.91581173876E+01  0.32674775041E+02  0.74026013362E+03  0.75143450739E+03  0.12456822000E+03 0.  0.
         25    2    3    3    0    0  0.91581173876E+01 -0.32674775041E+02  0.14173193845E+04  0.14236881427E+04  0.13016212196E+03 0.  0.
          5    1    4    4  502    0  0.50870175520E+02 -0.13714002029E+02  0.28326342280E+03  0.28815986068E+03  0.47000000000E+01 0. -1.
         -5    1    4    4    0  502 -0.60028292908E+02  0.46388777071E+02  0.45699671082E+03  0.46327464672E+03  0.47000000000E+01 0. -1.
          5    1    5    5  503    0  0.25020621131E+02 -0.79089906542E+02  0.76121636041E+03  0.76573734541E+03  0.47000000000E+01 0.  1.
         -5    1    5    5    0  503 -0.15862503743E+02  0.46415131501E+02  0.65610302409E+03  0.65795079730E+03  0.47000000000E+01 0.  1.
<mgrwt>
<rscale>  0 0.27569760E+03</rscale>
<asrwt>0</asrwt>
<pdfrwt beam="1">  1        2 0.33328436E+00 0.27569760E+03</pdfrwt>
<pdfrwt beam="2">  1       -2 0.13494734E-02 0.27569760E+03</pdfrwt>
<totfact> 0.83570175E+03</totfact>
</mgrwt>
</event>
<event>
 9    1  0.2054950E-002  0.2741315E+03  0.7818608E-02  0.1098938E+00
         -2   -1    0    0    0  501 -0.00000000000E+00  0.00000000000E+00  0.89019242704E+02  0.89019242704E+02  0.00000000000E+00 0.  1.
          2   -1    0    0  501    0  0.00000000000E+00 -0.00000000000E+00 -0.21104451089E+03  0.21104451089E+03  0.00000000000E+00 0.  1.
         36    2    1    2    0    0  0.71054273576E-14  0.00000000000E+00 -0.12202526818E+03  0.30006375359E+03  0.27413151979E+03 0.  0.
         25    2    3    3    0    0 -0.14609697647E+02  0.48216909648E+02 -0.92672745047E+02  0.16314366198E+03  0.12445602890E+03 0.  0.
         25    2    3    3    0    0  0.14609697647E+02 -0.48216909648E+02 -0.29352523136E+02  0.13692009161E+03  0.12388392644E+03 0.  0.
          5    1    4    4  502    0  0.34502537359E+02 -0.69776950182E+01  0.96940308166E+01  0.36812736185E+02  0.47000000000E+01 0. -1.
         -5    1    4    4    0  502 -0.49112235005E+02  0.55194604666E+02 -0.10236677586E+03  0.12633092579E+03  0.47000000000E+01 0. -1.
          5    1    5    5  503    0 -0.48728017409E+02 -0.36726881160E+02  0.89763605681E+01  0.61854252315E+02  0.47000000000E+01 0.  1.
         -5    1    5    5    0  503  0.63337715056E+02 -0.11490028487E+02 -0.38328883704E+02  0.75065839296E+02  0.47000000000E+01 0.  1.
<mgrwt>
<rscale>  0 0.27413152E+03</rscale>
<asrwt>0</asrwt>
<pdfrwt beam="1">  1        2 0.32468386E-01 0.27413152E+03</pdfrwt>
<pdfrwt beam="2">  1       -2 0.13695268E-01 0.27413152E+03</pdfrwt>
<totfact> 0.63462567E+03</totfact>
</mgrwt>
</event>
<event>
 9    1  0.2054950E-002  0.2741100E+03  0.7818608E-02  0.1098950E+00
          2   -1    0    0  501    0  0.00000000000E+00  0.00000000000E+00  0.11351482367E+02  0.11351482367E+02  0.00000000000E+00 0.  1.
         -2   -1    0    0    0  501 -0.00000000000E+00 -0.00000000000E+00 -0.16547680480E+04  0.16547680480E+04  0.00000000000E+00 0.  1.
         36    2    1    2    0    0  0.00000000000E+00  0.00000000000E+00 -0.16434165657E+04  0.16661195304E+04  0.27410998026E+03 0.  0.
         25    2    3    3    0    0  0.66786387305E+01 -0.52384074299E+02 -0.10255511198E+04  0.10336673791E+04  0.11800193077E+03 0.  0.
         25    2    3    3    0    0 -0.66786387305E+01  0.52384074299E+02 -0.61786544581E+03  0.63245215133E+03  0.12429529009E+03 0.  0.
          5    1    4    4  502    0  0.60692273611E+02 -0.41601679268E+02 -0.55287246399E+03  0.55776724826E+03  0.47000000000E+01 0.  1.
         -5    1    4    4    0  502 -0.54013634881E+02 -0.10782395031E+02 -0.47267865586E+03  0.47590013081E+03  0.47000000000E+01 0.  1.
          5    1    5    5  503    0 -0.65088371292E+02  0.33650111523E+02 -0.34856013507E+03  0.35620932588E+03  0.47000000000E+01 0.  1.
         -5    1    5    5    0  503  0.58409732562E+02  0.18733962776E+02 -0.26930531074E+03  0.27624282545E+03  0.47000000000E+01 0.  1.
<mgrwt>
<rscale>  0 0.27410998E+03</rscale>
<asrwt>0</asrwt>
<pdfrwt beam="1">  1        2 0.17463804E-02 0.27410998E+03</pdfrwt>
<pdfrwt beam="2">  1       -2 0.25457992E+00 0.27410998E+03</pdfrwt>
<totfact> 0.44570380E+02</totfact>
</mgrwt>
</event>
<event>
 9    1  0.2054950E-002  0.2723578E+03  0.7818608E-02  0.1099938E+00
          2   -1    0    0  501    0  0.00000000000E+00  0.00000000000E+00  0.72293875519E+03  0.72293875519E+03  0.00000000000E+00 0.  1.
         -2   -1    0    0    0  501 -0.00000000000E+00 -0.00000000000E+00 -0.25651808254E+02  0.25651808254E+02  0.00000000000E+00 0.  1.
         36    2    1    2    0    0  0.00000000000E+00 -0.35527136788E-14  0.69728694693E+03  0.74859056344E+03  0.27235775243E+03 0.  0.
         25    2    3    3    0    0  0.47170929683E+02  0.13915250572E+02  0.26383291498E+03  0.29635396991E+03  0.12569462060E+03 0.  0.
         25    2    3    3    0    0 -0.47170929683E+02 -0.13915250572E+02  0.43345403196E+03  0.45223659354E+03  0.11923425643E+03 0.  0.
          5    1    4    4  502    0  0.74474037222E+02  0.11235266187E+01  0.77698645699E+02  0.10773492505E+03  0.47000000000E+01 0. -1.
         -5    1    4    4    0  502 -0.27303107538E+02  0.12791723953E+02  0.18613426928E+03  0.18861904486E+03  0.47000000000E+01 0. -1.
          5    1    5    5  503    0  0.47226576398E+01  0.25493889587E+02  0.32177571297E+03  0.32285281687E+03  0.47000000000E+01 0. -1.
         -5    1    5    5    0  503 -0.51893587323E+02 -0.39409140159E+02  0.11167831899E+03  0.12938377667E+03  0.47000000000E+01 0. -1.
<mgrwt>
<rscale>  0 0.27235775E+03</rscale>
<asrwt>0</asrwt>
<pdfrwt beam="1">  1        2 0.11122133E+00 0.27235775E+03</pdfrwt>
<pdfrwt beam="2">  1       -2 0.39464326E-02 0.27235775E+03</pdfrwt>
<totfact> 0.11257050E+04</totfact>
</mgrwt>
</event>
<event>
 9    1  0.2054950E-002  0.2748562E+03  0.7818608E-02  0.1098532E+00
          2   -1    0    0  501    0  0.00000000000E+00  0.00000000000E+00  0.30734767080E+04  0.30734767080E+04  0.00000000000E+00 0.  1.
         -2   -1    0    0    0  501 -0.00000000000E+00 -0.00000000000E+00 -0.61449909760E+01  0.61449909760E+01  0.00000000000E+00 0.  1.
         36    2    1    2    0    0 -0.35527136788E-14  0.00000000000E+00  0.30673317170E+04  0.30796216989E+04  0.27485622886E+03 0.  0.
         25    2    3    3    0    0  0.29628752804E+02  0.54952404595E+01  0.10146689730E+04  0.10234319945E+04  0.13019931650E+03 0.  0.
         25    2    3    3    0    0 -0.29628752804E+02 -0.54952404595E+01  0.20526627440E+04  0.20561897044E+04  0.11654912812E+03 0.  0.
          5    1    4    4  502    0  0.79193320058E+02  0.19752417473E+02  0.60189140704E+03  0.60741838613E+03  0.47000000000E+01 0. -1.
         -5    1    4    4    0  502 -0.49564567255E+02 -0.14257177014E+02  0.41277756592E+03  0.41601360837E+03  0.47000000000E+01 0. -1.
          5    1    5    5  503    0 -0.39140435855E+01 -0.50222094631E+02  0.15580671239E+04  0.15588883318E+04  0.47000000000E+01 0.  1.
         -5    1    5    5    0  503 -0.25714709218E+02  0.44726854171E+02  0.49459562018E+03  0.49730137267E+03  0.47000000000E+01 0.  1.
<mgrwt>
<rscale>  0 0.27485623E+03</rscale>
<asrwt>0</asrwt>
<pdfrwt beam="1">  1        2 0.47284134E+00 0.27485623E+03</pdfrwt>
<pdfrwt beam="2">  1       -2 0.94538568E-03 0.27485623E+03</pdfrwt>
<totfact> 0.43570252E+03</totfact>
</mgrwt>
</event>
<event>
 9    1  0.2054950E-002  0.2743559E+03  0.7818608E-02  0.1098812E+00
         -3   -1    0    0    0  501 -0.00000000000E+00  0.00000000000E+00  0.64903300551E+03  0.64903300551E+03  0.00000000000E+00 0. -1.
          3   -1    0    0  501    0  0.00000000000E+00 -0.00000000000E+00 -0.28993573500E+02  0.28993573500E+02  0.00000000000E+00 0. -1.
         36    2    1    2    0    0 -0.71054273576E-14  0.00000000000E+00  0.62003943201E+03  0.67802657901E+03  0.27435587217E+03 0.  0.
         25    2    3    3    0    0  0.36583888473E+02  0.40002459967E+02  0.32955741669E+03  0.35759119608E+03  0.12776852084E+03 0.  0.
         25    2    3    3    0    0 -0.36583888473E+02 -0.40002459967E+02  0.29048201532E+03  0.32043538293E+03  0.12393730557E+03 0.  0.
          5    1    4    4  502    0 -0.34601731589E+02  0.54438470811E+02  0.17989692185E+03  0.19116960905E+03  0.47000000000E+01 0. -1.
         -5    1    4    4    0  502  0.71185620062E+02 -0.14436010845E+02  0.14966049484E+03  0.16642158703E+03  0.47000000000E+01 0. -1.
          5    1    5    5  503    0 -0.44381442884E+02 -0.35374238851E+02  0.39641973014E+02  0.69387500828E+02  0.47000000000E+01 0. -1.
         -5    1    5    5    0  503  0.77975544110E+01 -0.46282211154E+01  0.25084004230E+03  0.25104788210E+03  0.47000000000E+01 0. -1.
<mgrwt>
<rscale>  0 0.27435587E+03</rscale>
<asrwt>0</asrwt>
<pdfrwt beam="1">  1        3 0.44605503E-02 0.27435587E+03</pdfrwt>
<pdfrwt beam="2">  1       -3 0.99851220E-01 0.27435587E+03</pdfrwt>
<totfact> 0.62975119E+02</totfact>
</mgrwt>
</event>
<event>
 9    1  0.2054950E-002  0.2743445E+03  0.7818608E-02  0.1098819E+00
          2   -1    0    0  501    0  0.00000000000E+00  0.00000000000E+00  0.18106676135E+04  0.18106676135E+04  0.00000000000E+00 0.  1.
         -2   -1    0    0    0  501 -0.00000000000E+00 -0.00000000000E+00 -0.10391875569E+02  0.10391875569E+02  0.00000000000E+00 0.  1.
         36    2    1    2    0    0  0.00000000000E+00  0.00000000000E+00  0.18002757379E+04  0.18210594891E+04  0.27434454641E+03 0.  0.
         25    2    3    3    0    0 -0.39655667494E+01  0.29168711332E+02  0.12312906879E+04  0.12379651271E+04  0.12495742693E+03 0.  0.
         25    2    3    3    0    0  0.39655667494E+01 -0.29168711332E+02  0.56898505006E+03  0.58309436193E+03  0.12405042635E+03 0.  0.
          5    1    4    4  502    0  0.35907291080E+02  0.21353526682E+01  0.10404478284E+04  0.10410800483E+04  0.47000000000E+01 0. -1.
         -5    1    4    4    0  502 -0.39872857829E+02  0.27033358663E+02  0.19084285948E+03  0.19688507889E+03  0.47000000000E+01 0. -1.
          5    1    5    5  503    0  0.40301454667E+02 -0.46685659957E+02  0.49365459423E+03  0.49751452893E+03  0.47000000000E+01 0.  1.
         -5    1    5    5    0  503 -0.36335887917E+02  0.17516948626E+02  0.75330455837E+02  0.85579833001E+02  0.47000000000E+01 0.  1.
<mgrwt>
<rscale>  0 0.27434455E+03</rscale>
<asrwt>0</asrwt>
<pdfrwt beam="1">  1        2 0.27856400E+00 0.27434455E+03</pdfrwt>
<pdfrwt beam="2">  1       -2 0.15987515E-02 0.27434455E+03</pdfrwt>
<totfact> 0.10038626E+04</totfact>
</mgrwt>
</event>
<event>
 9    1  0.2054950E-002  0.2741909E+03  0.7818608E-02  0.1098905E+00
          2   -1    0    0  501    0  0.00000000000E+00  0.00000000000E+00  0.57787874547E+03  0.57787874547E+03  0.00000000000E+00 0. -1.
         -2   -1    0    0    0  501 -0.00000000000E+00 -0.00000000000E+00 -0.32524406337E+02  0.32524406337E+02  0.00000000000E+00 0. -1.
         36    2    1    2    0    0 -0.14210854715E-13  0.71054273576E-14  0.54535433913E+03  0.61040315180E+03  0.27419090526E+03 0.  0.
         25    2    3    3    0    0  0.50298514506E+02 -0.25169075596E+02  0.34709885507E+03  0.37293801658E+03  0.12426474197E+03 0.  0.
         25    2    3    3    0    0 -0.50298514506E+02  0.25169075596E+02  0.19825548406E+03  0.23746513522E+03  0.11798741694E+03 0.  0.
          5    1    4    4  502    0  0.46036022582E+02  0.32495484079E+02  0.70771984416E+02  0.90587171492E+02  0.47000000000E+01 0.  1.
         -5    1    4    4    0  502  0.42624919245E+01 -0.57664559675E+02  0.27632687065E+03  0.28235084509E+03  0.47000000000E+01 0.  1.
          5    1    5    5  503    0  0.36140611486E+02  0.99283313800E+01  0.32432478726E+02  0.49786255522E+02  0.47000000000E+01 0. -1.
         -5    1    5    5    0  503 -0.86439125992E+02  0.15240744216E+02  0.16582300534E+03  0.18767887970E+03  0.47000000000E+01 0. -1.
<mgrwt>
<rscale>  0 0.27419091E+03</rscale>
<asrwt>0</asrwt>
<pdfrwt beam="1">  1        2 0.88904415E-01 0.27419091E+03</pdfrwt>
<pdfrwt beam="2">  1       -2 0.50037552E-02 0.27419091E+03</pdfrwt>
<totfact> 0.10258609E+04</totfact>
</mgrwt>
</event>
<event>
 9    1  0.2054950E-002  0.2751589E+03  0.7818608E-02  0.1098363E+00
          3   -1    0    0  501    0  0.00000000000E+00  0.00000000000E+00  0.14120429504E+03  0.14120429504E+03  0.00000000000E+00 0.  1.
         -3   -1    0    0    0  501 -0.00000000000E+00 -0.00000000000E+00 -0.13404764351E+03  0.13404764351E+03  0.00000000000E+00 0.  1.
         36    2    1    2    0    0  0.00000000000E+00  0.71054273576E-14  0.71566515272E+01  0.27525193855E+03  0.27515888504E+03 0.  0.
         25    2    3    3    0    0 -0.42257339136E+02 -0.11145332685E+02 -0.17966188891E+00  0.13074054828E+03  0.12321995591E+03 0.  0.
         25    2    3    3    0    0  0.42257339136E+02  0.11145332685E+02  0.73363134161E+01  0.14451139028E+03  0.13754933396E+03 0.  0.
          5    1    4    4  502    0 -0.26908126793E+02 -0.65937969759E+02  0.11963869310E+02  0.72367722862E+02  0.47000000000E+01 0. -1.
         -5    1    4    4    0  502 -0.15349212343E+02  0.54792637073E+02 -0.12143531199E+02  0.58372825416E+02  0.47000000000E+01 0. -1.
          5    1    5    5  503    0  0.43247986968E+02  0.71217021073E+02  0.10799703987E+02  0.84148535778E+02  0.47000000000E+01 0. -1.
         -5    1    5    5    0  503 -0.99064783218E+00 -0.60071688388E+02 -0.34633905706E+01  0.60362854498E+02  0.47000000000E+01 0. -1.
<mgrwt>
<rscale>  0 0.27515889E+03</rscale>
<asrwt>0</asrwt>
<pdfrwt beam="1">  1        3 0.21723738E-01 0.27515889E+03</pdfrwt>
<pdfrwt beam="2">  1       -3 0.20622714E-01 0.27515889E+03</pdfrwt>
<totfact> 0.10466582E+03</totfact>
</mgrwt>
</event>
<event>
 9    1  0.2054950E-002  0.2753944E+03  0.7818608E-02  0.1098231E+00
         -2   -1    0    0    0  501 -0.00000000000E+00  0.00000000000E+00  0.98319082314E+02  0.98319082314E+02  0.00000000000E+00 0.  1.
          2   -1    0    0  501    0  0.00000000000E+00 -0.00000000000E+00 -0.19284683654E+03  0.19284683654E+03  0.00000000000E+00 0.  1.
         36    2    1    2    0    0 -0.53290705182E-14  0.00000000000E+00 -0.94527754226E+02  0.29116591885E+03  0.27539443709E+03 0.  0.
         25    2    3    3    0    0  0.60667389706E+01  0.33001739827E+01  0.10751210260E+02  0.12699528261E+03  0.12635076894E+03 0.  0.
         25    2    3    3    0    0 -0.60667389706E+01 -0.33001739827E+01 -0.10527896449E+03  0.16417063624E+03  0.12578012948E+03 0.  0.
          5    1    4    4  502    0  0.11034088791E+02  0.40858721286E+02  0.54349904246E+02  0.69044828279E+02  0.47000000000E+01 0.  1.
         -5    1    4    4    0  502 -0.49673498202E+01 -0.37558547303E+02 -0.43598693986E+02  0.57950454330E+02  0.47000000000E+01 0.  1.
          5    1    5    5  503    0  0.33966398822E+02 -0.46761805285E+02 -0.82123633179E+02  0.10053240179E+03  0.47000000000E+01 0.  1.
         -5    1    5    5    0  503 -0.40033137793E+02  0.43461631302E+02 -0.23155331307E+02  0.63638234458E+02  0.47000000000E+01 0.  1.
<mgrwt>
<rscale>  0 0.27539444E+03</rscale>
<asrwt>0</asrwt>
<pdfrwt beam="1">  1        2 0.29668744E-01 0.27539444E+03</pdfrwt>
<pdfrwt beam="2">  1       -2 0.15126013E-01 0.27539444E+03</pdfrwt>
<totfact> 0.59494304E+03</totfact>
</mgrwt>
</event>
<event>
 9    1  0.2054950E-002  0.2745300E+03  0.7818608E-02  0.1098715E+00
          2   -1    0    0  501    0  0.00000000000E+00  0.00000000000E+00  0.14408529709E+03  0.14408529709E+03  0.00000000000E+00 0.  1.
         -2   -1    0    0    0  501 -0.00000000000E+00 -0.00000000000E+00 -0.13076752917E+03  0.13076752917E+03  0.00000000000E+00 0.  1.
         36    2    1    2    0    0 -0.71054273576E-14 -0.17763568394E-14  0.13317767921E+02  0.27485282626E+03  0.27452998590E+03 0.  0.
         25    2    3    3    0    0  0.23679114528E+02 -0.45659470087E+01  0.24943095980E+02  0.14654939159E+03  0.14238334805E+03 0.  0.
         25    2    3    3    0    0 -0.23679114528E+02  0.45659470087E+01 -0.11625328058E+02  0.12830343466E+03  0.12547937981E+03 0.  0.
          5    1    4    4  502    0  0.25080863032E+02  0.37975449693E+02 -0.45234190436E+02  0.64338219234E+02  0.47000000000E+01 0. -1.
         -5    1    4    4    0  502 -0.14017485047E+01 -0.42541396702E+02  0.70177286416E+02  0.82211172360E+02  0.47000000000E+01 0. -1.
          5    1    5    5  503    0 -0.75426493706E+02  0.16174582032E+01 -0.39148716830E+01  0.75691402049E+02  0.47000000000E+01 0.  1.
         -5    1    5    5    0  503  0.51747379178E+02  0.29484888055E+01 -0.77104563753E+01  0.52612032612E+02  0.47000000000E+01 0.  1.
<mgrwt>
<rscale>  0 0.27452999E+03</rscale>
<asrwt>0</asrwt>
<pdfrwt beam="1">  1        2 0.22166969E-01 0.27452999E+03</pdfrwt>
<pdfrwt beam="2">  1       -2 0.20118081E-01 0.27452999E+03</pdfrwt>
<totfact> 0.50963963E+03</totfact>
</mgrwt>
</event>
<event>
 9    1  0.2054950E-002  0.2745636E+03  0.7818608E-02  0.1098696E+00
         -3   -1    0    0    0  501 -0.00000000000E+00  0.00000000000E+00  0.18482072486E+03  0.18482072486E+03  0.00000000000E+00 0. -1.
          3   -1    0    0  501    0  0.00000000000E+00 -0.00000000000E+00 -0.10197063799E+03  0.10197063799E+03  0.00000000000E+00 0. -1.
         36    2    1    2    0    0 -0.71054273576E-14  0.00000000000E+00  0.82850086865E+02  0.28679136285E+03  0.27456356079E+03 0.  0.
         25    2    3    3    0    0  0.35187237716E+02 -0.22811380020E+02 -0.63666689591E+01  0.13162978379E+03  0.12460884700E+03 0.  0.
         25    2    3    3    0    0 -0.35187237716E+02  0.22811380020E+02  0.89216755824E+02  0.15516157906E+03  0.11982063820E+03 0.  0.
          5    1    4    4  502    0  0.30880610810E+02  0.49736483992E+00 -0.62854661353E+02  0.70190155646E+02  0.47000000000E+01 0.  1.
         -5    1    4    4    0  502  0.43066269062E+01 -0.23308744860E+02  0.56487992394E+02  0.61439628148E+02  0.47000000000E+01 0.  1.
          5    1    5    5  503    0 -0.47000685464E+02 -0.74737916677E+01  0.10743764926E+03  0.11760042719E+03  0.47000000000E+01 0. -1.
         -5    1    5    5    0  503  0.11813447748E+02  0.30285171687E+02 -0.18220893441E+02  0.37561151867E+02  0.47000000000E+01 0. -1.
<mgrwt>
<rscale>  0 0.27456356E+03</rscale>
<asrwt>0</asrwt>
<pdfrwt beam="1">  1        3 0.15687791E-01 0.27456356E+03</pdfrwt>
<pdfrwt beam="2">  1       -3 0.28433958E-01 0.27456356E+03</pdfrwt>
<totfact> 0.10360308E+03</totfact>
</mgrwt>
</event>
<event>
 9    1  0.2054950E-002  0.2750702E+03  0.7818608E-02  0.1098412E+00
          2   -1    0    0  501    0  0.00000000000E+00  0.00000000000E+00  0.32912749060E+04  0.32912749060E+04  0.00000000000E+00 0.  1.
         -2   -1    0    0    0  501 -0.00000000000E+00 -0.00000000000E+00 -0.57472858889E+01  0.57472858889E+01  0.00000000000E+00 0.  1.
         36    2    1    2    0    0  0.71054273576E-14 -0.14210854715E-13  0.32855276201E+04  0.32970221919E+04  0.27507015704E+03 0.  0.
         25    2    3    3    0    0  0.30493924023E+02 -0.59074773813E+02  0.12789000700E+04  0.12848097540E+04  0.10359057188E+03 0.  0.
         25    2    3    3    0    0 -0.30493924023E+02  0.59074773813E+02  0.20066275501E+04  0.20122124379E+04  0.13425744706E+03 0.  0.
          5    1    4    4  502    0  0.27493242472E+02 -0.84498861005E+02  0.74837663729E+03  0.75364820515E+03  0.47000000000E+01 0.  1.
         -5    1    4    4    0  502  0.30006815503E+01  0.25424087192E+02  0.53052343275E+03  0.53116154887E+03  0.47000000000E+01 0.  1.
          5    1    5    5  503    0 -0.20964987642E+02  0.98704917258E+01  0.54160569379E+02  0.59096654636E+02  0.47000000000E+01 0. -1.
         -5    1    5    5    0  503 -0.95289363806E+01  0.49204282087E+02  0.19524669807E+04  0.19531157832E+04  0.47000000000E+01 0. -1.
<mgrwt>
<rscale>  0 0.27507016E+03</rscale>
<asrwt>0</asrwt>
<pdfrwt beam="1">  1        2 0.50634848E+00 0.27507016E+03</pdfrwt>
<pdfrwt beam="2">  1       -2 0.88420046E-03 0.27507016E+03</pdfrwt>
<totfact> 0.35264405E+03</totfact>
</mgrwt>
</event>
<event>
 9    1  0.2054950E-002  0.2751456E+03  0.7818608E-02  0.1098370E+00
          2   -1    0    0  501    0  0.00000000000E+00  0.00000000000E+00  0.39338605966E+03  0.39338605966E+03  0.00000000000E+00 0.  1.
         -2   -1    0    0    0  501 -0.00000000000E+00 -0.00000000000E+00 -0.48111202919E+02  0.48111202919E+02  0.00000000000E+00 0.  1.
         36    2    1    2    0    0  0.00000000000E+00  0.00000000000E+00  0.34527485674E+03  0.44149726258E+03  0.27514560903E+03 0.  0.
         25    2    3    3    0    0 -0.36841076630E+02  0.38859498867E+02  0.12192234394E+03  0.18001954622E+03  0.12113898418E+03 0.  0.
         25    2    3    3    0    0  0.36841076630E+02 -0.38859498867E+02  0.22335251280E+03  0.26147771636E+03  0.12496769823E+03 0.  0.
          5    1    4    4  502    0 -0.23603211844E+02  0.71762695847E+02  0.30068800843E+02  0.81444575686E+02  0.47000000000E+01 0.  1.
         -5    1    4    4    0  502 -0.13237864786E+02 -0.32903196980E+02  0.91853543098E+02  0.98574970531E+02  0.47000000000E+01 0.  1.
          5    1    5    5  503    0 -0.18183863708E+02 -0.55746319033E+02  0.45159484954E+02  0.74160461611E+02  0.47000000000E+01 0. -1.
         -5    1    5    5    0  503  0.55024940338E+02  0.16886820165E+02  0.17819302784E+03  0.18731725475E+03  0.47000000000E+01 0. -1.
<mgrwt>
<rscale>  0 0.27514561E+03</rscale>
<asrwt>0</asrwt>
<pdfrwt beam="1">  1        2 0.60520930E-01 0.27514561E+03</pdfrwt>
<pdfrwt beam="2">  1       -2 0.74017238E-02 0.27514561E+03</pdfrwt>
<totfact> 0.86265809E+03</totfact>
</mgrwt>
</event>
<event>
 9    1  0.2054950E-002  0.2740981E+03  0.7818608E-02  0.1098957E+00
         -1   -1    0    0    0  501 -0.00000000000E+00  0.00000000000E+00  0.73187790076E+02  0.73187790076E+02  0.00000000000E+00 0.  1.
          1   -1    0    0  501    0  0.00000000000E+00 -0.00000000000E+00 -0.25663349088E+03  0.25663349088E+03  0.00000000000E+00 0.  1.
         36    2    1    2    0    0  0.00000000000E+00  0.71054273576E-14 -0.18344570080E+03  0.32982128095E+03  0.27409807045E+03 0.  0.
         25    2    3    3    0    0  0.93255974832E+01 -0.47982571011E+02 -0.39615446949E+02  0.13855906060E+03  0.12345013466E+03 0.  0.
         25    2    3    3    0    0 -0.93255974832E+01  0.47982571011E+02 -0.14383025385E+03  0.19126222035E+03  0.11621015929E+03 0.  0.
          5    1    4    4  502    0  0.45705061279E+02 -0.89086118842E+01  0.26236722320E+02  0.53654185208E+02  0.47000000000E+01 0. -1.
         -5    1    4    4    0  502 -0.36379463795E+02 -0.39073959127E+02 -0.65852169269E+02  0.84904875392E+02  0.47000000000E+01 0. -1.
          5    1    5    5  503    0  0.48818450934E+02  0.17468905667E+02 -0.30892489288E+02  0.60537919614E+02  0.47000000000E+01 0.  1.
         -5    1    5    5    0  503 -0.58144048417E+02  0.30513665344E+02 -0.11293776456E+03  0.13072430074E+03  0.47000000000E+01 0.  1.
<mgrwt>
<rscale>  0 0.27409807E+03</rscale>
<asrwt>0</asrwt>
<pdfrwt beam="1">  1        1 0.39482075E-01 0.27409807E+03</pdfrwt>
<pdfrwt beam="2">  1       -1 0.11259660E-01 0.27409807E+03</pdfrwt>
<totfact> 0.53711315E+03</totfact>
</mgrwt>
</event>
<event>
 9    1  0.2054950E-002  0.2748846E+03  0.7818608E-02  0.1098516E+00
         -2   -1    0    0    0  501 -0.00000000000E+00  0.00000000000E+00  0.49371739728E+03  0.49371739728E+03  0.00000000000E+00 0.  1.
          2   -1    0    0  501    0  0.00000000000E+00 -0.00000000000E+00 -0.38261527226E+02  0.38261527226E+02  0.00000000000E+00 0.  1.
         36    2    1    2    0    0 -0.17763568394E-14  0.00000000000E+00  0.45545587006E+03  0.53197892451E+03  0.27488456950E+03 0.  0.
         25    2    3    3    0    0 -0.46878726753E+01 -0.39003167549E+00  0.33696044895E+03  0.35895263721E+03  0.12362250333E+03 0.  0.
         25    2    3    3    0    0  0.46878726753E+01  0.39003167549E+00  0.11849542111E+03  0.17302628729E+03  0.12599524990E+03 0.  0.
          5    1    4    4  502    0 -0.30648445353E+02 -0.46357837224E+02  0.25727585827E+03  0.26325146443E+03  0.47000000000E+01 0. -1.
         -5    1    4    4    0  502  0.25960572677E+02  0.45967805548E+02  0.79684590678E+02  0.95701172783E+02  0.47000000000E+01 0. -1.
          5    1    5    5  503    0  0.31063945288E+01  0.36150404877E+02 -0.11309042369E+02  0.38294724167E+02  0.47000000000E+01 0.  1.
         -5    1    5    5    0  503  0.15814781465E+01 -0.35760373201E+02  0.12980446348E+03  0.13473156313E+03  0.47000000000E+01 0.  1.
<mgrwt>
<rscale>  0 0.27488457E+03</rscale>
<asrwt>0</asrwt>
<pdfrwt beam="1">  1        2 0.58863892E-02 0.27488457E+03</pdfrwt>
<pdfrwt beam="2">  1       -2 0.75956518E-01 0.27488457E+03</pdfrwt>
<totfact> 0.20191006E+03</totfact>
</mgrwt>
</event>
<event>
 9    1  0.2054950E-002  0.2734128E+03  0.7818608E-02  0.1099342E+00
          2   -1    0    0  501    0  0.00000000000E+00  0.00000000000E+00  0.53090245297E+03  0.53090245297E+03  0.00000000000E+00 0. -1.
         -2   -1    0    0    0  501 -0.00000000000E+00 -0.00000000000E+00 -0.35201650655E+02  0.35201650655E+02  0.00000000000E+00 0. -1.
         36    2    1    2    0    0  0.00000000000E+00  0.00000000000E+00  0.49570080231E+03  0.56610410362E+03  0.27341282107E+03 0.  0.
         25    2    3    3    0    0 -0.53561812865E+02  0.68792967012E+01  0.20354509376E+03  0.24474494167E+03  0.12471282514E+03 0.  0.
         25    2    3    3    0    0  0.53561812865E+02 -0.68792967012E+01  0.29215570855E+03  0.32135916196E+03  0.12247677500E+03 0.  0.
          5    1    4    4  502    0  0.27806517384E+01 -0.46381414626E+02  0.12856805847E+03  0.13678743841E+03  0.47000000000E+01 0.  1.
         -5    1    4    4    0  502 -0.56342464603E+02  0.53260711327E+02  0.74977035293E+02  0.10795750326E+03  0.47000000000E+01 0.  1.
          5    1    5    5  503    0  0.13216044367E+02  0.36980767784E+02  0.23229135255E+02  0.45868548476E+02  0.47000000000E+01 0.  1.
         -5    1    5    5    0  503  0.40345768498E+02 -0.43860064486E+02  0.26892657329E+03  0.27549061348E+03  0.47000000000E+01 0.  1.
<mgrwt>
<rscale>  0 0.27341282E+03</rscale>
<asrwt>0</asrwt>
<pdfrwt beam="1">  1        2 0.81677295E-01 0.27341282E+03</pdfrwt>
<pdfrwt beam="2">  1       -2 0.54156389E-02 0.27341282E+03</pdfrwt>
<totfact> 0.10016759E+04</totfact>
</mgrwt>
</event>
<event>
 9    1  0.2054950E-002  0.2742868E+03  0.7818608E-02  0.1098851E+00
         -2   -1    0    0    0  501 -0.00000000000E+00  0.00000000000E+00  0.31325408812E+02  0.31325408812E+02  0.00000000000E+00 0. -1.
          2   -1    0    0  501    0  0.00000000000E+00 -0.00000000000E+00 -0.60041726122E+03  0.60041726122E+03  0.00000000000E+00 0. -1.
         36    2    1    2    0    0  0.00000000000E+00  0.71054273576E-14 -0.56909185241E+03  0.63174267004E+03  0.27428682918E+03 0.  0.
         25    2    3    3    0    0  0.42314350122E+02 -0.13081861222E+02 -0.35788238708E+03  0.38145860290E+03  0.12437533287E+03 0.  0.
         25    2    3    3    0    0 -0.42314350122E+02  0.13081861222E+02 -0.21120946533E+03  0.25028406714E+03  0.12677159262E+03 0.  0.
          5    1    4    4  502    0 -0.19649205191E+02  0.43174187188E+02 -0.11363365427E+03  0.12322661680E+03  0.47000000000E+01 0. -1.
         -5    1    4    4    0  502  0.61963555313E+02 -0.56256048410E+02 -0.24424873280E+03  0.25823198610E+03  0.47000000000E+01 0. -1.
          5    1    5    5  503    0 -0.96890987547E+00 -0.54609626124E+02 -0.84964008931E+02  0.10111440484E+03  0.47000000000E+01 0. -1.
         -5    1    5    5    0  503 -0.41345440247E+02  0.67691487345E+02 -0.12624545640E+03  0.14916966230E+03  0.47000000000E+01 0. -1.
<mgrwt>
<rscale>  0 0.27428683E+03</rscale>
<asrwt>0</asrwt>
<pdfrwt beam="1">  1        2 0.92371890E-01 0.27428683E+03</pdfrwt>
<pdfrwt beam="2">  1       -2 0.48192935E-02 0.27428683E+03</pdfrwt>
<totfact> 0.10390782E+04</totfact>
</mgrwt>
</event>
<event>
 9    1  0.2054950E-002  0.2752070E+03  0.7818608E-02  0.1098336E+00
          2   -1    0    0  501    0  0.00000000000E+00  0.00000000000E+00  0.16206950880E+03  0.16206950880E+03  0.00000000000E+00 0.  1.
         -2   -1    0    0    0  501 -0.00000000000E+00 -0.00000000000E+00 -0.11683086623E+03  0.11683086623E+03  0.00000000000E+00 0.  1.
         36    2    1    2    0    0 -0.71054273576E-14 -0.88817841970E-15  0.45238642575E+02  0.27890037503E+03  0.27520698467E+03 0.  0.
         25    2    3    3    0    0  0.54587331962E+02  0.19069087868E+01  0.48577228352E+01  0.13806559206E+03  0.12670870975E+03 0.  0.
         25    2    3    3    0    0 -0.54587331962E+02 -0.19069087868E+01  0.40380919739E+02  0.14083478297E+03  0.12337100269E+03 0.  0.
          5    1    4    4  502    0  0.11887849903E+02 -0.56930200739E+02  0.23444649644E+02  0.62881716965E+02  0.47000000000E+01 0. -1.
         -5    1    4    4    0  502  0.42699482059E+02  0.58837109526E+02 -0.18586926809E+02  0.75183875091E+02  0.47000000000E+01 0. -1.
          5    1    5    5  503    0  0.19220456818E+02 -0.54360443373E+01  0.60684541165E+02  0.64059972485E+02  0.47000000000E+01 0. -1.
         -5    1    5    5    0  503 -0.73807788780E+02  0.35291355505E+01 -0.20303621426E+02  0.76774810487E+02  0.47000000000E+01 0. -1.
<mgrwt>
<rscale>  0 0.27520698E+03</rscale>
<asrwt>0</asrwt>
<pdfrwt beam="1">  1        2 0.24933770E-01 0.27520698E+03</pdfrwt>
<pdfrwt beam="2">  1       -2 0.17973980E-01 0.27520698E+03</pdfrwt>
<totfact> 0.54077366E+03</totfact>
</mgrwt>
</event>
<event>
 9    1  0.2054950E-002  0.2760204E+03  0.7818608E-02  0.1097883E+00
         -2   -1    0    0    0  501 -0.00000000000E+00  0.00000000000E+00  0.57492395987E+02  0.57492395987E+02  0.00000000000E+00 0. -1.
          2   -1    0    0  501    0  0.00000000000E+00 -0.00000000000E+00 -0.33129266754E+03  0.33129266754E+03  0.00000000000E+00 0. -1.
         36    2    1    2    0    0 -0.71054273576E-14  0.00000000000E+00 -0.27380027155E+03  0.38878506352E+03  0.27602035598E+03 0.  0.
         25    2    3    3    0    0  0.15728443011E+02  0.95862754984E+01 -0.65226330922E+02  0.14489780358E+03  0.12806880432E+03 0.  0.
         25    2    3    3    0    0 -0.15728443011E+02 -0.95862754984E+01 -0.20857394063E+03  0.24388725994E+03  0.12505449314E+03 0.  0.
          5    1    4    4  502    0  0.69519036294E+02  0.13161937688E+01 -0.16313638149E+02  0.71574112380E+02  0.47000000000E+01 0.  1.
         -5    1    4    4    0  502 -0.53790593284E+02  0.82700817296E+01 -0.48912692773E+02  0.73323691205E+02  0.47000000000E+01 0.  1.
          5    1    5    5  503    0 -0.69755079585E+02 -0.15860841019E+02 -0.11308349235E+03  0.13389288125E+03  0.47000000000E+01 0.  1.
         -5    1    5    5    0  503  0.54026636574E+02  0.62745655210E+01 -0.95490448274E+02  0.10999437869E+03  0.47000000000E+01 0.  1.
<mgrwt>
<rscale>  0 0.27602036E+03</rscale>
<asrwt>0</asrwt>
<pdfrwt beam="1">  1        2 0.50968102E-01 0.27602036E+03</pdfrwt>
<pdfrwt beam="2">  1       -2 0.88449841E-02 0.27602036E+03</pdfrwt>
<totfact> 0.78624941E+03</totfact>
</mgrwt>
</event>
<event>
 9    1  0.2054950E-002  0.2796238E+03  0.7818608E-02  0.1095895E+00
          1   -1    0    0  501    0  0.00000000000E+00  0.00000000000E+00  0.16246927516E+03  0.16246927516E+03  0.00000000000E+00 0.  1.
         -1   -1    0    0    0  501 -0.00000000000E+00 -0.00000000000E+00 -0.12031428305E+03  0.12031428305E+03  0.00000000000E+00 0.  1.
         36    2    1    2    0    0 -0.17763568394E-14  0.00000000000E+00  0.42154992113E+02  0.28278355821E+03  0.27962384990E+03 0.  0.
         25    2    3    3    0    0 -0.13112962561E+02  0.20478874746E+02  0.75544031128E+02  0.15218779208E+03  0.12985718818E+03 0.  0.
         25    2    3    3    0    0  0.13112962561E+02 -0.20478874746E+02 -0.33389039015E+02  0.13059576613E+03  0.12389145292E+03 0.  0.
          5    1    4    4  502    0 -0.89102966928E+01  0.70064246374E+02  0.73674021800E+02  0.10216821177E+03  0.47000000000E+01 0. -1.
         -5    1    4    4    0  502 -0.42026658681E+01 -0.49585371629E+02  0.18700093276E+01  0.50019580314E+02  0.47000000000E+01 0. -1.
          5    1    5    5  503    0 -0.37189940958E+02  0.34549886678E+02 -0.74706763757E+01  0.51523658483E+02  0.47000000000E+01 0.  1.
         -5    1    5    5    0  503  0.50302903519E+02 -0.55028761423E+02 -0.25918362639E+02  0.79072107650E+02  0.47000000000E+01 0.  1.
<mgrwt>
<rscale>  0 0.27962385E+03</rscale>
<asrwt>0</asrwt>
<pdfrwt beam="1">  1        1 0.24995273E-01 0.27962385E+03</pdfrwt>
<pdfrwt beam="2">  1       -1 0.18509890E-01 0.27962385E+03</pdfrwt>
<totfact> 0.43551904E+03</totfact>
</mgrwt>
</event>
<event>
 9    1  0.2054950E-002  0.2755542E+03  0.7818608E-02  0.1098142E+00
         -2   -1    0    0    0  501 -0.00000000000E+00  0.00000000000E+00  0.45093209572E+02  0.45093209572E+02  0.00000000000E+00 0. -1.
          2   -1    0    0  501    0  0.00000000000E+00 -0.00000000000E+00 -0.42096211569E+03  0.42096211569E+03  0.00000000000E+00 0. -1.
         36    2    1    2    0    0  0.00000000000E+00 -0.71054273576E-14 -0.37586890611E+03  0.46605532526E+03  0.27555422627E+03 0.  0.
         25    2    3    3    0    0 -0.16208818657E+02 -0.41772162416E+02 -0.17734620790E+03  0.22386707446E+03  0.12906258256E+03 0.  0.
         25    2    3    3    0    0  0.16208818657E+02  0.41772162416E+02 -0.19852269821E+03  0.24218825079E+03  0.13128689105E+03 0.  0.
          5    1    4    4  502    0  0.23956350861E+02 -0.17274692070E+02 -0.17390891615E+03  0.17646167529E+03  0.47000000000E+01 0. -1.
         -5    1    4    4    0  502 -0.40165169518E+02 -0.24497470346E+02 -0.34372917566E+01  0.47405399169E+02  0.47000000000E+01 0. -1.
          5    1    5    5  503    0  0.68948627194E+02  0.38059533433E+02 -0.15349184117E+03  0.17258121736E+03  0.47000000000E+01 0. -1.
         -5    1    5    5    0  503 -0.52739808537E+02  0.37126289830E+01 -0.45030857040E+02  0.69607033439E+02  0.47000000000E+01 0. -1.
<mgrwt>
<rscale>  0 0.27555423E+03</rscale>
<asrwt>0</asrwt>
<pdfrwt beam="1">  1        2 0.64763399E-01 0.27555423E+03</pdfrwt>
<pdfrwt beam="2">  1       -2 0.69374172E-02 0.27555423E+03</pdfrwt>
<totfact> 0.88605800E+03</totfact>
</mgrwt>
</event>
<event>
 9    1  0.2054950E-002  0.2752660E+03  0.7818608E-02  0.1098303E+00
          2   -1    0    0  501    0  0.00000000000E+00  0.00000000000E+00  0.10645168378E+03  0.10645168378E+03  0.00000000000E+00 0.  1.
         -2   -1    0    0    0  501 -0.00000000000E+00 -0.00000000000E+00 -0.17794782350E+03  0.17794782350E+03  0.00000000000E+00 0.  1.
         36    2    1    2    0    0  0.00000000000E+00  0.00000000000E+00 -0.71496139718E+02  0.28439950729E+03  0.27526601997E+03 0.  0.
         25    2    3    3    0    0  0.19874992806E+02 -0.47108696839E+02 -0.16412202639E+02  0.13618180689E+03  0.12514743096E+03 0.  0.
         25    2    3    3    0    0 -0.19874992806E+02  0.47108696839E+02 -0.55083937079E+02  0.14821770039E+03  0.12774976293E+03 0.  0.
          5    1    4    4  502    0  0.16228559782E+02 -0.81705984476E+02  0.19794852895E+02  0.85750569986E+02  0.47000000000E+01 0. -1.
         -5    1    4    4    0  502  0.36464330239E+01  0.34597287637E+02 -0.36207055534E+02  0.50431236908E+02  0.47000000000E+01 0. -1.
          5    1    5    5  503    0 -0.43874871756E+02  0.80578127401E+02 -0.20254151856E+02  0.94075287161E+02  0.47000000000E+01 0.  1.
         -5    1    5    5    0  503  0.23999878950E+02 -0.33469430562E+02 -0.34829785223E+02  0.54142413230E+02  0.47000000000E+01 0.  1.
<mgrwt>
<rscale>  0 0.27526602E+03</rscale>
<asrwt>0</asrwt>
<pdfrwt beam="1">  1        2 0.16377182E-01 0.27526602E+03</pdfrwt>
<pdfrwt beam="2">  1       -2 0.27376588E-01 0.27526602E+03</pdfrwt>
<totfact> 0.42145531E+03</totfact>
</mgrwt>
</event>
<event>
 9    1  0.2054950E-002  0.2750449E+03  0.7818608E-02  0.1098426E+00
          2   -1    0    0  501    0  0.00000000000E+00  0.00000000000E+00  0.16696881024E+04  0.16696881024E+04  0.00000000000E+00 0.  1.
         -2   -1    0    0    0  501 -0.00000000000E+00 -0.00000000000E+00 -0.11326924489E+02  0.11326924489E+02  0.00000000000E+00 0.  1.
         36    2    1    2    0    0  0.00000000000E+00  0.00000000000E+00  0.16583611779E+04  0.16810150269E+04  0.27504494945E+03 0.  0.
         25    2    3    3    0    0 -0.48054737271E+02 -0.69643818026E+00  0.71213938103E+03  0.72505500074E+03  0.12748534537E+03 0.  0.
         25    2    3    3    0    0  0.48054737271E+02  0.69643818026E+00  0.94622179684E+03  0.95596002611E+03  0.12733475527E+03 0.  0.
          5    1    4    4  502    0  0.22647825985E+02 -0.26363679041E+02  0.67904379839E+02  0.76426843424E+02  0.47000000000E+01 0.  1.
         -5    1    4    4    0  502 -0.70702563255E+02  0.25667240860E+02  0.64423500120E+03  0.64862815732E+03  0.47000000000E+01 0.  1.
          5    1    5    5  503    0  0.66998195422E+02  0.45093602748E+02  0.72412752839E+03  0.72863225194E+03  0.47000000000E+01 0.  1.
         -5    1    5    5    0  503 -0.18943458152E+02 -0.44397164567E+02  0.22209426845E+03  0.22732777417E+03  0.47000000000E+01 0.  1.
<mgrwt>
<rscale>  0 0.27504495E+03</rscale>
<asrwt>0</asrwt>
<pdfrwt beam="1">  1        2 0.25687490E+00 0.27504495E+03</pdfrwt>
<pdfrwt beam="2">  1       -2 0.17426051E-02 0.27504495E+03</pdfrwt>
<totfact> 0.10495296E+04</totfact>
</mgrwt>
</event>
<event>
 9    1  0.2054950E-002  0.2763126E+03  0.7818608E-02  0.1097720E+00
         -2   -1    0    0    0  501 -0.00000000000E+00  0.00000000000E+00  0.31669453167E+02  0.31669453167E+02  0.00000000000E+00 0.  1.
          2   -1    0    0  501    0  0.00000000000E+00 -0.00000000000E+00 -0.60269957978E+03  0.60269957978E+03  0.00000000000E+00 0.  1.
         36    2    1    2    0    0  0.00000000000E+00  0.00000000000E+00 -0.57103012661E+03  0.63436903295E+03  0.27631262089E+03 0.  0.
         25    2    3    3    0    0 -0.58715398934E+01  0.32538236763E+02 -0.37265722783E+03  0.39760712507E+03  0.13462839455E+03 0.  0.
         25    2    3    3    0    0  0.58715398934E+01 -0.32538236763E+02 -0.19837289878E+03  0.23676190788E+03  0.12494471665E+03 0.  0.
          5    1    4    4  502    0 -0.35316711103E+00  0.84427881224E+02 -0.19905840084E+03  0.21627419818E+03  0.47000000000E+01 0. -1.
         -5    1    4    4    0  502 -0.55183727823E+01 -0.51889644460E+02 -0.17359882699E+03  0.18133292689E+03  0.47000000000E+01 0. -1.
          5    1    5    5  503    0 -0.15166646388E+02 -0.57379635756E+02 -0.32839290302E+02  0.67992343316E+02  0.47000000000E+01 0.  1.
         -5    1    5    5    0  503  0.21038186281E+02  0.24841398992E+02 -0.16553360848E+03  0.16876956456E+03  0.47000000000E+01 0.  1.
<mgrwt>
<rscale>  0 0.27631262E+03</rscale>
<asrwt>0</asrwt>
<pdfrwt beam="1">  1        2 0.92723005E-01 0.27631262E+03</pdfrwt>
<pdfrwt beam="2">  1       -2 0.48722240E-02 0.27631262E+03</pdfrwt>
<totfact> 0.10177830E+04</totfact>
</mgrwt>
</event>
<event>
 9    1  0.2054950E-002  0.2737754E+03  0.7818608E-02  0.1099138E+00
          1   -1    0    0  501    0  0.00000000000E+00  0.00000000000E+00  0.35694678438E+02  0.35694678438E+02  0.00000000000E+00 0. -1.
         -1   -1    0    0    0  501 -0.00000000000E+00 -0.00000000000E+00 -0.52495903334E+03  0.52495903334E+03  0.00000000000E+00 0. -1.
         36    2    1    2    0    0  0.71054273576E-14  0.00000000000E+00 -0.48926435491E+03  0.56065371178E+03  0.27377541079E+03 0.  0.
         25    2    3    3    0    0 -0.11244963759E+01 -0.41375941298E+02 -0.31939932934E+03  0.34571244014E+03  0.12565001661E+03 0.  0.
         25    2    3    3    0    0  0.11244963759E+01  0.41375941298E+02 -0.16986502556E+03  0.21494127164E+03  0.12502955784E+03 0.  0.
          5    1    4    4  502    0 -0.34975772041E+02 -0.38745216530E+02 -0.30338603918E+03  0.30787931922E+03  0.47000000000E+01 0. -1.
         -5    1    4    4    0  502  0.33851275665E+02 -0.26307247684E+01 -0.16013290165E+02  0.37833120924E+02  0.47000000000E+01 0. -1.
          5    1    5    5  503    0  0.53961863538E+02  0.28053531219E+02 -0.13980102568E+03  0.15252966961E+03  0.47000000000E+01 0.  1.
         -5    1    5    5    0  503 -0.52837367162E+02  0.13322410079E+02 -0.30063999881E+02  0.62411602029E+02  0.47000000000E+01 0.  1.
<mgrwt>
<rscale>  0 0.27377541E+03</rscale>
<asrwt>0</asrwt>
<pdfrwt beam="1">  1        1 0.54914889E-02 0.27377541E+03</pdfrwt>
<pdfrwt beam="2">  1       -1 0.80762930E-01 0.27377541E+03</pdfrwt>
<totfact> 0.23318930E+03</totfact>
</mgrwt>
</event>
<event>
 9    1  0.2054950E-002  0.2778481E+03  0.7818608E-02  0.1096870E+00
          1   -1    0    0  501    0  0.00000000000E+00  0.00000000000E+00  0.12903124662E+03  0.12903124662E+03  0.00000000000E+00 0.  1.
         -1   -1    0    0    0  501 -0.00000000000E+00 -0.00000000000E+00 -0.14957535641E+03  0.14957535641E+03  0.00000000000E+00 0.  1.
         36    2    1    2    0    0  0.00000000000E+00  0.14210854715E-13 -0.20544109793E+02  0.27860660302E+03  0.27784812182E+03 0.  0.
         25    2    3    3    0    0  0.84026742909E+01  0.68482145725E+02 -0.12091210512E+02  0.14446631646E+03  0.12634836762E+03 0.  0.
         25    2    3    3    0    0 -0.84026742909E+01 -0.68482145725E+02 -0.84528992809E+01  0.13414028657E+03  0.11472469549E+03 0.  0.
          5    1    4    4  502    0  0.87350073712E+01 -0.37030559520E+02 -0.26604296437E+01  0.38428252342E+02  0.47000000000E+01 0.  1.
         -5    1    4    4    0  502 -0.33233308024E+00  0.10551270524E+03 -0.94307808688E+01  0.10603806411E+03  0.47000000000E+01 0.  1.
          5    1    5    5  503    0 -0.24044662082E+02  0.63135309204E+01 -0.43201954999E+02  0.50065011366E+02  0.47000000000E+01 0.  1.
         -5    1    5    5    0  503  0.15641987792E+02 -0.74795676645E+02  0.34749055718E+02  0.84075275201E+02  0.47000000000E+01 0.  1.
<mgrwt>
<rscale>  0 0.27784812E+03</rscale>
<asrwt>0</asrwt>
<pdfrwt beam="1">  1        1 0.19850961E-01 0.27784812E+03</pdfrwt>
<pdfrwt beam="2">  1       -1 0.23011593E-01 0.27784812E+03</pdfrwt>
<totfact> 0.41011277E+03</totfact>
</mgrwt>
</event>
<event>
 9    1  0.2054950E-002  0.2763532E+03  0.7818608E-02  0.1097698E+00
          2   -1    0    0  501    0  0.00000000000E+00  0.00000000000E+00  0.10476353972E+02  0.10476353972E+02  0.00000000000E+00 0. -1.
         -2   -1    0    0    0  501 -0.00000000000E+00 -0.00000000000E+00 -0.18224628990E+04  0.18224628990E+04  0.00000000000E+00 0. -1.
         36    2    1    2    0    0 -0.35527136788E-14 -0.71054273576E-14 -0.18119865450E+04  0.18329392529E+04  0.27635315399E+03 0.  0.
         25    2    3    3    0    0  0.19641011419E+02 -0.44048662163E+02 -0.10785911605E+04  0.10867557929E+04  0.12390806222E+03 0.  0.
         25    2    3    3    0    0 -0.19641011419E+02  0.44048662163E+02 -0.73339538450E+03  0.74618346006E+03  0.12882124086E+03 0.  0.
          5    1    4    4  502    0  0.19799072761E+02 -0.28229986844E+02 -0.71396841616E+02  0.79426283006E+02  0.47000000000E+01 0.  1.
         -5    1    4    4    0  502 -0.15806134159E+00 -0.15818675319E+02 -0.10071943189E+04  0.10073295099E+04  0.47000000000E+01 0.  1.
          5    1    5    5  503    0  0.62953728374E+01  0.85393389166E+02 -0.53437902010E+03  0.54121593635E+03  0.47000000000E+01 0.  1.
         -5    1    5    5    0  503 -0.25936384257E+02 -0.41344727003E+02 -0.19901636440E+03  0.20496752371E+03  0.47000000000E+01 0.  1.
<mgrwt>
<rscale>  0 0.27635315E+03</rscale>
<asrwt>0</asrwt>
<pdfrwt beam="1">  1        2 0.16117461E-02 0.27635315E+03</pdfrwt>
<pdfrwt beam="2">  1       -2 0.28037902E+00 0.27635315E+03</pdfrwt>
<totfact> 0.35226407E+02</totfact>
</mgrwt>
</event>
<event>
 9    1  0.2054950E-002  0.2750235E+03  0.7818608E-02  0.1098438E+00
          1   -1    0    0  501    0  0.00000000000E+00  0.00000000000E+00  0.11488883869E+03  0.11488883869E+03  0.00000000000E+00 0.  1.
         -1   -1    0    0    0  501 -0.00000000000E+00 -0.00000000000E+00 -0.16458942534E+03  0.16458942534E+03  0.00000000000E+00 0.  1.
         36    2    1    2    0    0 -0.35527136788E-14  0.00000000000E+00 -0.49700586653E+02  0.27947826402E+03  0.27502354763E+03 0.  0.
         25    2    3    3    0    0 -0.95538064968E+01 -0.64345696535E+02 -0.18478614520E+02  0.13227259749E+03  0.11367909645E+03 0.  0.
         25    2    3    3    0    0  0.95538064968E+01  0.64345696535E+02 -0.31221972134E+02  0.14720566654E+03  0.12830842855E+03 0.  0.
          5    1    4    4  502    0  0.15123839320E+02 -0.51757280025E+02 -0.60844684121E+02  0.81435324873E+02  0.47000000000E+01 0.  1.
         -5    1    4    4    0  502 -0.24677645816E+02 -0.12588416509E+02  0.42366069602E+02  0.50837272613E+02  0.47000000000E+01 0.  1.
          5    1    5    5  503    0  0.36898455035E+02  0.36349223248E+02  0.40129845106E+02  0.65690611833E+02  0.47000000000E+01 0.  1.
         -5    1    5    5    0  503 -0.27344648538E+02  0.27996473287E+02 -0.71351817240E+02  0.81515054706E+02  0.47000000000E+01 0.  1.
<mgrwt>
<rscale>  0 0.27502355E+03</rscale>
<asrwt>0</asrwt>
<pdfrwt beam="1">  1        1 0.17675206E-01 0.27502355E+03</pdfrwt>
<pdfrwt beam="2">  1       -1 0.25321450E-01 0.27502355E+03</pdfrwt>
<totfact> 0.40660786E+03</totfact>
</mgrwt>
</event>
<event>
 9    1  0.2054950E-002  0.2749766E+03  0.7818608E-02  0.1098465E+00
          2   -1    0    0  501    0  0.00000000000E+00  0.00000000000E+00  0.25264693253E+04  0.25264693253E+04  0.00000000000E+00 0.  1.
         -2   -1    0    0    0  501 -0.00000000000E+00 -0.00000000000E+00 -0.74819981881E+01  0.74819981881E+01  0.00000000000E+00 0.  1.
         36    2    1    2    0    0  0.71054273576E-14  0.00000000000E+00  0.25189873271E+04  0.25339513235E+04  0.27497664566E+03 0.  0.
         25    2    3    3    0    0  0.40196683875E+02 -0.73842714124E+01  0.17213550112E+04  0.17255123639E+04  0.11251463297E+03 0.  0.
         25    2    3    3    0    0 -0.40196683875E+02  0.73842714124E+01  0.79763231590E+03  0.80843895955E+03  0.12524351914E+03 0.  0.
          5    1    4    4  502    0 -0.17163690341E+01 -0.40609553914E+02  0.13136733872E+04  0.13143104427E+04  0.47000000000E+01 0. -1.
         -5    1    4    4    0  502  0.41913052909E+02  0.33225282501E+02  0.40768162406E+03  0.41120192120E+03  0.47000000000E+01 0. -1.
          5    1    5    5  503    0 -0.58600266890E+02  0.53624019268E+02  0.55828917374E+03  0.56393121765E+03  0.47000000000E+01 0.  1.
         -5    1    5    5    0  503  0.18403583015E+02 -0.46239747856E+02  0.23934314216E+03  0.24450774190E+03  0.47000000000E+01 0.  1.
<mgrwt>
<rscale>  0 0.27497665E+03</rscale>
<asrwt>0</asrwt>
<pdfrwt beam="1">  1        2 0.38868691E+00 0.27497665E+03</pdfrwt>
<pdfrwt beam="2">  1       -2 0.11510787E-02 0.27497665E+03</pdfrwt>
<totfact> 0.67379410E+03</totfact>
</mgrwt>
</event>
<event>
 9    1  0.2054950E-002  0.2751461E+03  0.7818608E-02  0.1098370E+00
         -2   -1    0    0    0  501 -0.00000000000E+00  0.00000000000E+00  0.13286833888E+02  0.13286833888E+02  0.00000000000E+00 0.  1.
          2   -1    0    0  501    0  0.00000000000E+00 -0.00000000000E+00 -0.14244434836E+04  0.14244434836E+04  0.00000000000E+00 0.  1.
         36    2    1    2    0    0  0.00000000000E+00  0.35527136788E-14 -0.14111566497E+04  0.14377303175E+04  0.27514609901E+03 0.  0.
         25    2    3    3    0    0  0.34882014497E+02 -0.51505230156E+01 -0.42682692606E+03  0.44800624347E+03  0.13147275976E+03 0.  0.
         25    2    3    3    0    0 -0.34882014497E+02  0.51505230156E+01 -0.98432972366E+03  0.98972407402E+03  0.96981725081E+02 0.  0.
          5    1    4    4  502    0  0.16915384796E+02  0.51403733151E+02 -0.32929069740E+03  0.33374080874E+03  0.47000000000E+01 0. -1.
         -5    1    4    4    0  502  0.17966629701E+02 -0.56554256167E+02 -0.97536228663E+02  0.11426543474E+03  0.47000000000E+01 0. -1.
          5    1    5    5  503    0  0.56220052581E+01 -0.20789108482E+02 -0.75669052799E+03  0.75701151849E+03  0.47000000000E+01 0. -1.
         -5    1    5    5    0  503 -0.40504019755E+02  0.25939631498E+02 -0.22763919567E+03  0.23271255553E+03  0.47000000000E+01 0. -1.
<mgrwt>
<rscale>  0 0.27514610E+03</rscale>
<asrwt>0</asrwt>
<pdfrwt beam="1">  1        2 0.21914505E+00 0.27514610E+03</pdfrwt>
<pdfrwt beam="2">  1       -2 0.20441292E-02 0.27514610E+03</pdfrwt>
<totfact> 0.11217334E+04</totfact>
</mgrwt>
</event>
<event>
 9    1  0.2054950E-002  0.2743711E+03  0.7818608E-02  0.1098804E+00
         -2   -1    0    0    0  501 -0.00000000000E+00  0.00000000000E+00  0.17096906038E+02  0.17096906038E+02  0.00000000000E+00 0. -1.
          2   -1    0    0  501    0  0.00000000000E+00 -0.00000000000E+00 -0.11007763169E+04  0.11007763169E+04  0.00000000000E+00 0. -1.
         36    2    1    2    0    0  0.00000000000E+00  0.71054273576E-14 -0.10836794109E+04  0.11178732230E+04  0.27437105721E+03 0.  0.
         25    2    3    3    0    0 -0.10318770542E+02 -0.26447232315E+02 -0.70970870499E+03  0.72180926565E+03  0.12851551236E+03 0.  0.
         25    2    3    3    0    0  0.10318770542E+02  0.26447232315E+02 -0.37397070588E+03  0.39606395730E+03  0.12730528776E+03 0.  0.
          5    1    4    4  502    0 -0.11257274964E+02 -0.62782656603E+02 -0.18351072661E+03  0.19433647365E+03  0.47000000000E+01 0. -1.
         -5    1    4    4    0  502  0.93850442276E+00  0.36335424288E+02 -0.52619797838E+03  0.52747279200E+03  0.47000000000E+01 0. -1.
          5    1    5    5  503    0  0.15451126443E+02 -0.50575634600E+02 -0.15374924758E+03  0.16265777957E+03  0.47000000000E+01 0. -1.
         -5    1    5    5    0  503 -0.51323559012E+01  0.77022866915E+02 -0.22022145831E+03  0.23340617773E+03  0.47000000000E+01 0. -1.
<mgrwt>
<rscale>  0 0.27437106E+03</rscale>
<asrwt>0</asrwt>
<pdfrwt beam="1">  1        2 0.16935018E+00 0.27437106E+03</pdfrwt>
<pdfrwt beam="2">  1       -2 0.26302936E-02 0.27437106E+03</pdfrwt>
<totfact> 0.11736850E+04</totfact>
</mgrwt>
</event>
<event>
 9    1  0.2054950E-002  0.2744105E+03  0.7818608E-02  0.1098782E+00
          2   -1    0    0  501    0  0.00000000000E+00  0.00000000000E+00  0.12903416973E+04  0.12903416973E+04  0.00000000000E+00 0.  1.
         -2   -1    0    0    0  501 -0.00000000000E+00 -0.00000000000E+00 -0.14589377033E+02  0.14589377033E+02  0.00000000000E+00 0.  1.
         36    2    1    2    0    0  0.71054273576E-14  0.00000000000E+00  0.12757523202E+04  0.13049310743E+04  0.27441050653E+03 0.  0.
         25    2    3    3    0    0 -0.29274147870E+02  0.62527070057E+01  0.75958968310E+03  0.77007036311E+03  0.12302766107E+03 0.  0.
         25    2    3    3    0    0  0.29274147870E+02 -0.62527070057E+01  0.51616263713E+03  0.53486071119E+03  0.13695269375E+03 0.  0.
          5    1    4    4  502    0 -0.65360605020E+02  0.27477698085E+02  0.62537934286E+03  0.62940324519E+03  0.47000000000E+01 0. -1.
         -5    1    4    4    0  502  0.36086457151E+02 -0.21224991080E+02  0.13421034024E+03  0.14066711792E+03  0.47000000000E+01 0. -1.
          5    1    5    5  503    0  0.81502255891E+02 -0.23513814845E+02  0.30815842006E+03  0.31965484364E+03  0.47000000000E+01 0. -1.
         -5    1    5    5    0  503 -0.52228108021E+02  0.17261107840E+02  0.20800421707E+03  0.21520586755E+03  0.47000000000E+01 0. -1.
<mgrwt>
<rscale>  0 0.27441051E+03</rscale>
<asrwt>0</asrwt>
<pdfrwt beam="1">  1        2 0.19851402E+00 0.27441051E+03</pdfrwt>
<pdfrwt beam="2">  1       -2 0.22445205E-02 0.27441051E+03</pdfrwt>
<totfact> 0.11572269E+04</totfact>
</mgrwt>
</event>
<event>
 9    1  0.2054950E-002  0.2748341E+03  0.7818608E-02  0.1098544E+00
         -2   -1    0    0    0  501 -0.00000000000E+00  0.00000000000E+00  0.15168213794E+03  0.15168213794E+03  0.00000000000E+00 0. -1.
          2   -1    0    0  501    0  0.00000000000E+00 -0.00000000000E+00 -0.12449350508E+03  0.12449350508E+03  0.00000000000E+00 0. -1.
         36    2    1    2    0    0  0.71054273576E-14  0.44408920985E-14  0.27188632865E+02  0.27617564302E+03  0.27483406637E+03 0.  0.
         25    2    3    3    0    0  0.54454223799E+02  0.63696085288E+01  0.45806275880E+02  0.14041933563E+03  0.12088647777E+03 0.  0.
         25    2    3    3    0    0 -0.54454223799E+02 -0.63696085288E+01 -0.18617643014E+02  0.13575630739E+03  0.12278975512E+03 0.  0.
          5    1    4    4  502    0 -0.36193080999E+02  0.13730888987E+02  0.11959889566E+01  0.39012777576E+02  0.47000000000E+01 0. -1.
         -5    1    4    4    0  502  0.90647304798E+02 -0.73612804580E+01  0.44610286923E+02  0.10140655805E+03  0.47000000000E+01 0. -1.
          5    1    5    5  503    0 -0.67410896820E+01  0.53830585171E+02 -0.21982120733E+02  0.58723741552E+02  0.47000000000E+01 0.  1.
         -5    1    5    5    0  503 -0.47713134117E+02 -0.60200193699E+02  0.33644777192E+01  0.77032565834E+02  0.47000000000E+01 0.  1.
<mgrwt>
<rscale>  0 0.27483407E+03</rscale>
<asrwt>0</asrwt>
<pdfrwt beam="1">  1        2 0.19152847E-01 0.27483407E+03</pdfrwt>
<pdfrwt beam="2">  1       -2 0.23335713E-01 0.27483407E+03</pdfrwt>
<totfact> 0.46590796E+03</totfact>
</mgrwt>
</event>
<event>
 9    1  0.2054950E-002  0.2751559E+03  0.7818608E-02  0.1098365E+00
          2   -1    0    0  501    0  0.00000000000E+00  0.00000000000E+00  0.11647248906E+03  0.11647248906E+03  0.00000000000E+00 0.  1.
         -2   -1    0    0    0  501 -0.00000000000E+00 -0.00000000000E+00 -0.16250780492E+03  0.16250780492E+03  0.00000000000E+00 0.  1.
         36    2    1    2    0    0 -0.17763568394E-14  0.00000000000E+00 -0.46035315866E+02  0.27898029398E+03  0.27515587241E+03 0.  0.
         25    2    3    3    0    0 -0.21313653361E+01  0.22630882261E+02 -0.68080749809E+02  0.14744020095E+03  0.12879023570E+03 0.  0.
         25    2    3    3    0    0  0.21313653361E+01 -0.22630882261E+02  0.22045433942E+02  0.13154009302E+03  0.12767182683E+03 0.  0.
          5    1    4    4  502    0  0.63468850445E+00  0.69294627550E+01 -0.10584621229E+03  0.10617876878E+03  0.47000000000E+01 0. -1.
         -5    1    4    4    0  502 -0.27660538406E+01  0.15701419506E+02  0.37765462483E+02  0.41261432173E+02  0.47000000000E+01 0. -1.
          5    1    5    5  503    0 -0.45913682588E+02 -0.40995079602E+02  0.43597530304E+02  0.75574449710E+02  0.47000000000E+01 0. -1.
         -5    1    5    5    0  503  0.48045047924E+02  0.18364197340E+02 -0.21552096362E+02  0.55965643314E+02  0.47000000000E+01 0. -1.
<mgrwt>
<rscale>  0 0.27515587E+03</rscale>
<asrwt>0</asrwt>
<pdfrwt beam="1">  1        2 0.17918844E-01 0.27515587E+03</pdfrwt>
<pdfrwt beam="2">  1       -2 0.25001201E-01 0.27515587E+03</pdfrwt>
<totfact> 0.44584725E+03</totfact>
</mgrwt>
</event>
<event>
 9    1  0.2054950E-002  0.2749153E+03  0.7818608E-02  0.1098499E+00
         -2   -1    0    0    0  501 -0.00000000000E+00  0.00000000000E+00  0.11433853905E+02  0.11433853905E+02  0.00000000000E+00 0. -1.
          2   -1    0    0  501    0  0.00000000000E+00 -0.00000000000E+00 -0.16525142429E+04  0.16525142429E+04  0.00000000000E+00 0. -1.
         36    2    1    2    0    0 -0.14210854715E-13 -0.35527136788E-14 -0.16410803890E+04  0.16639480968E+04  0.27491530645E+03 0.  0.
         25    2    3    3    0    0 -0.53781638927E+02  0.26195634007E+02 -0.78518646627E+03  0.79706112309E+03  0.12332871199E+03 0.  0.
         25    2    3    3    0    0  0.53781638927E+02 -0.26195634007E+02 -0.85589392274E+03  0.86688697374E+03  0.12393523435E+03 0.  0.
          5    1    4    4  502    0  0.27866028269E+02  0.29969383046E+01 -0.46226386976E+03  0.46313655918E+03  0.47000000000E+01 0. -1.
         -5    1    4    4    0  502 -0.81647667196E+02  0.23198695703E+02 -0.32292259651E+03  0.33392456391E+03  0.47000000000E+01 0. -1.
          5    1    5    5  503    0 -0.28148777405E+02 -0.45049679767E+02 -0.34694324937E+03  0.35101785652E+03  0.47000000000E+01 0. -1.
         -5    1    5    5    0  503  0.81930416333E+02  0.18854045760E+02 -0.50895067338E+03  0.51586911721E+03  0.47000000000E+01 0. -1.
<mgrwt>
<rscale>  0 0.27491531E+03</rscale>
<asrwt>0</asrwt>
<pdfrwt beam="1">  1        2 0.25423312E+00 0.27491531E+03</pdfrwt>
<pdfrwt beam="2">  1       -2 0.17590534E-02 0.27491531E+03</pdfrwt>
<totfact> 0.10569813E+04</totfact>
</mgrwt>
</event>
<event>
 9    1  0.2054950E-002  0.2754504E+03  0.7818608E-02  0.1098200E+00
          4   -1    0    0  501    0  0.00000000000E+00  0.00000000000E+00  0.16120732349E+03  0.16120732349E+03  0.00000000000E+00 0.  1.
         -4   -1    0    0    0  501 -0.00000000000E+00 -0.00000000000E+00 -0.11766355109E+03  0.11766355109E+03  0.00000000000E+00 0.  1.
         36    2    1    2    0    0 -0.35527136788E-14  0.00000000000E+00  0.43543772400E+02  0.27887087458E+03  0.27545036681E+03 0.  0.
         25    2    3    3    0    0 -0.28119788479E+02 -0.26870797393E+02 -0.21461473652E+02  0.13265323196E+03  0.12499409123E+03 0.  0.
         25    2    3    3    0    0  0.28119788479E+02  0.26870797393E+02  0.65005246052E+02  0.14621764262E+03  0.12506460228E+03 0.  0.
          5    1    4    4  502    0  0.13721598499E+02  0.15722727433E+02 -0.58463042126E+02  0.62253543818E+02  0.47000000000E+01 0.  1.
         -5    1    4    4    0  502 -0.41841386977E+02 -0.42593524826E+02  0.37001568475E+02  0.70399688145E+02  0.47000000000E+01 0.  1.
          5    1    5    5  503    0 -0.47775334765E+02 -0.50221631600E+01  0.28366353035E+02  0.55986111842E+02  0.47000000000E+01 0.  1.
         -5    1    5    5    0  503  0.75895123244E+02  0.31892960553E+02  0.36638893017E+02  0.90231530778E+02  0.47000000000E+01 0.  1.
<mgrwt>
<rscale>  0 0.27545037E+03</rscale>
<asrwt>0</asrwt>
<pdfrwt beam="1">  1        4 0.24801127E-01 0.27545037E+03</pdfrwt>
<pdfrwt beam="2">  1       -4 0.18102085E-01 0.27545037E+03</pdfrwt>
<totfact> 0.77018419E+02</totfact>
</mgrwt>
</event>
<event>
 9    1  0.2054950E-002  0.2755036E+03  0.7818608E-02  0.1098170E+00
          1   -1    0    0  501    0  0.00000000000E+00  0.00000000000E+00  0.10322825842E+04  0.10322825842E+04  0.00000000000E+00 0. -1.
         -1   -1    0    0    0  501 -0.00000000000E+00 -0.00000000000E+00 -0.18382134127E+02  0.18382134127E+02  0.00000000000E+00 0. -1.
         36    2    1    2    0    0 -0.35527136788E-14  0.00000000000E+00  0.10139004501E+04  0.10506647183E+04  0.27550358923E+03 0.  0.
         25    2    3    3    0    0  0.25022617959E+01 -0.29846410400E+01  0.48474567132E+03  0.50406995024E+03  0.13817734792E+03 0.  0.
         25    2    3    3    0    0 -0.25022617959E+01  0.29846410400E+01  0.52915477876E+03  0.54659476809E+03  0.13691563542E+03 0.  0.
          5    1    4    4  502    0 -0.24967465444E+02 -0.53181097556E+02  0.10855075962E+03  0.12351907092E+03  0.47000000000E+01 0. -1.
         -5    1    4    4    0  502  0.27469727240E+02  0.50196456516E+02  0.37619491170E+03  0.38055087932E+03  0.47000000000E+01 0. -1.
          5    1    5    5  503    0 -0.56694341677E+02 -0.29096235506E+02  0.16379271402E+03  0.17581519407E+03  0.47000000000E+01 0.  1.
         -5    1    5    5    0  503  0.54192079881E+02  0.32080876546E+02  0.36536206474E+03  0.37077957402E+03  0.47000000000E+01 0.  1.
<mgrwt>
<rscale>  0 0.27550359E+03</rscale>
<asrwt>0</asrwt>
<pdfrwt beam="1">  1        1 0.15881266E+00 0.27550359E+03</pdfrwt>
<pdfrwt beam="2">  1       -1 0.28280214E-02 0.27550359E+03</pdfrwt>
<totfact> 0.62235101E+03</totfact>
</mgrwt>
</event>
<event>
 9    1  0.2054950E-002  0.2750880E+03  0.7818608E-02  0.1098402E+00
          2   -1    0    0  501    0  0.00000000000E+00  0.00000000000E+00  0.52293907823E+03  0.52293907823E+03  0.00000000000E+00 0. -1.
         -2   -1    0    0    0  501 -0.00000000000E+00 -0.00000000000E+00 -0.36176969857E+02  0.36176969857E+02  0.00000000000E+00 0. -1.
         36    2    1    2    0    0 -0.71054273576E-14 -0.35527136788E-14  0.48676210837E+03  0.55911604808E+03  0.27508799516E+03 0.  0.
         25    2    3    3    0    0  0.41926796649E+02 -0.14495991230E+02  0.14755852198E+03  0.19713886746E+03  0.12297245876E+03 0.  0.
         25    2    3    3    0    0 -0.41926796649E+02  0.14495991230E+02  0.33920358639E+03  0.36197718063E+03  0.11832335457E+03 0.  0.
          5    1    4    4  502    0  0.50495443707E+02 -0.13373805837E+02  0.33062822551E+01  0.52551593887E+02  0.47000000000E+01 0.  1.
         -5    1    4    4    0  502 -0.85686470583E+01 -0.11221853934E+01  0.14425223973E+03  0.14458727357E+03  0.47000000000E+01 0.  1.
          5    1    5    5  503    0 -0.16140776138E+02  0.60982536396E+02  0.25132462762E+03  0.25916317803E+03  0.47000000000E+01 0. -1.
         -5    1    5    5    0  503 -0.25786020511E+02 -0.46486545166E+02  0.87878958772E+02  0.10281400260E+03  0.47000000000E+01 0. -1.
<mgrwt>
<rscale>  0 0.27508800E+03</rscale>
<asrwt>0</asrwt>
<pdfrwt beam="1">  1        2 0.80452161E-01 0.27508800E+03</pdfrwt>
<pdfrwt beam="2">  1       -2 0.55656880E-02 0.27508800E+03</pdfrwt>
<totfact> 0.97751088E+03</totfact>
</mgrwt>
</event>
<event>
 9    1  0.2054950E-002  0.2748973E+03  0.7818608E-02  0.1098509E+00
          3   -1    0    0  501    0  0.00000000000E+00  0.00000000000E+00  0.29222140551E+04  0.29222140551E+04  0.00000000000E+00 0.  1.
         -3   -1    0    0    0  501 -0.00000000000E+00 -0.00000000000E+00 -0.64650070233E+01  0.64650070233E+01  0.00000000000E+00 0.  1.
         36    2    1    2    0    0  0.00000000000E+00 -0.71054273576E-14  0.29157490481E+04  0.29286790621E+04  0.27489732185E+03 0.  0.
         25    2    3    3    0    0 -0.21885059377E+02 -0.60331277457E+02  0.15320273325E+04  0.15378873354E+04  0.11777474264E+03 0.  0.
         25    2    3    3    0    0  0.21885059377E+02  0.60331277457E+02  0.13837217156E+04  0.13907917267E+04  0.12448703583E+03 0.  0.
          5    1    4    4  502    0  0.32955447801E+02 -0.70658255611E+02  0.88033505466E+03  0.88379327283E+03  0.47000000000E+01 0.  1.
         -5    1    4    4    0  502 -0.54840507178E+02  0.10326978154E+02  0.65169227786E+03  0.65409406259E+03  0.47000000000E+01 0.  1.
          5    1    5    5  503    0 -0.43084198266E+02 -0.97017459414E+01  0.43714984416E+03  0.43940010043E+03  0.47000000000E+01 0. -1.
         -5    1    5    5    0  503  0.64969257643E+02  0.70033023398E+02  0.94657187142E+03  0.95139162628E+03  0.47000000000E+01 0. -1.
<mgrwt>
<rscale>  0 0.27489732E+03</rscale>
<asrwt>0</asrwt>
<pdfrwt beam="1">  1        3 0.44957034E+00 0.27489732E+03</pdfrwt>
<pdfrwt beam="2">  1       -3 0.99461880E-03 0.27489732E+03</pdfrwt>
<totfact> 0.52574012E+01</totfact>
</mgrwt>
</event>
<event>
 9    1  0.2054950E-002  0.2746325E+03  0.7818608E-02  0.1098657E+00
         -2   -1    0    0    0  501 -0.00000000000E+00  0.00000000000E+00  0.11259947872E+03  0.11259947872E+03  0.00000000000E+00 0. -1.
          2   -1    0    0  501    0  0.00000000000E+00 -0.00000000000E+00 -0.16745859749E+03  0.16745859749E+03  0.00000000000E+00 0. -1.
         36    2    1    2    0    0 -0.35527136788E-14  0.71054273576E-14 -0.54859118767E+02  0.28005807622E+03  0.27463248741E+03 0.  0.
         25    2    3    3    0    0  0.30512386752E+02  0.61289456168E+02 -0.48318662995E+02  0.14923625124E+03  0.12348830838E+03 0.  0.
         25    2    3    3    0    0 -0.30512386752E+02 -0.61289456168E+02 -0.65404557720E+01  0.13082182498E+03  0.11128418192E+03 0.  0.
          5    1    4    4  502    0  0.16115451419E+02 -0.10769599277E+02  0.33609297636E+02  0.39081542071E+02  0.47000000000E+01 0.  1.
         -5    1    4    4    0  502  0.14396935334E+02  0.72059055445E+02 -0.81927960632E+02  0.11015470917E+03  0.47000000000E+01 0.  1.
          5    1    5    5  503    0 -0.64236714549E+02 -0.38371408205E+02 -0.33078611435E+02  0.81945134073E+02  0.47000000000E+01 0.  1.
         -5    1    5    5    0  503  0.33724327797E+02 -0.22918047963E+02  0.26538155663E+02  0.48876690905E+02  0.47000000000E+01 0.  1.
<mgrwt>
<rscale>  0 0.27463249E+03</rscale>
<asrwt>0</asrwt>
<pdfrwt beam="1">  1        2 0.25762861E-01 0.27463249E+03</pdfrwt>
<pdfrwt beam="2">  1       -2 0.17322997E-01 0.27463249E+03</pdfrwt>
<totfact> 0.55474523E+03</totfact>
</mgrwt>
</event>
<event>
 9    1  0.2054950E-002  0.2752416E+03  0.7818608E-02  0.1098317E+00
         -1   -1    0    0    0  501 -0.00000000000E+00  0.00000000000E+00  0.87081585562E+02  0.87081585562E+02  0.00000000000E+00 0.  1.
          1   -1    0    0  501    0  0.00000000000E+00 -0.00000000000E+00 -0.21749132817E+03  0.21749132817E+03  0.00000000000E+00 0.  1.
         36    2    1    2    0    0 -0.71054273576E-14 -0.71054273576E-14 -0.13040974261E+03  0.30457291373E+03  0.27524163713E+03 0.  0.
         25    2    3    3    0    0 -0.19205933808E+02  0.38999566531E+02 -0.10891254893E+03  0.17046548921E+03  0.12372027163E+03 0.  0.
         25    2    3    3    0    0  0.19205933808E+02 -0.38999566531E+02 -0.21497193670E+02  0.13410742452E+03  0.12503134764E+03 0.  0.
          5    1    4    4  502    0 -0.71881380127E+02  0.25265681355E+02 -0.67599085265E+02  0.10196574813E+03  0.47000000000E+01 0. -1.
         -5    1    4    4    0  502  0.52675446319E+02  0.13733885175E+02 -0.41313463670E+02  0.68499741075E+02  0.47000000000E+01 0. -1.
          5    1    5    5  503    0  0.68174809875E+02  0.11927107889E+00 -0.20133962007E+02  0.71241037003E+02  0.47000000000E+01 0. -1.
         -5    1    5    5    0  503 -0.48968876067E+02 -0.39118837610E+02 -0.13632316632E+01  0.62866387520E+02  0.47000000000E+01 0. -1.
<mgrwt>
<rscale>  0 0.27524164E+03</rscale>
<asrwt>0</asrwt>
<pdfrwt beam="1">  1        1 0.33460203E-01 0.27524164E+03</pdfrwt>
<pdfrwt beam="2">  1       -1 0.13397167E-01 0.27524164E+03</pdfrwt>
<totfact> 0.50385265E+03</totfact>
</mgrwt>
</event>
<event>
 9    1  0.2054950E-002  0.2743983E+03  0.7818608E-02  0.1098788E+00
          2   -1    0    0  501    0  0.00000000000E+00  0.00000000000E+00  0.11020769752E+03  0.11020769752E+03  0.00000000000E+00 0.  1.
         -2   -1    0    0    0  501 -0.00000000000E+00 -0.00000000000E+00 -0.17080120750E+03  0.17080120750E+03  0.00000000000E+00 0.  1.
         36    2    1    2    0    0 -0.35527136788E-14  0.00000000000E+00 -0.60593509986E+02  0.28100890502E+03  0.27439830766E+03 0.  0.
         25    2    3    3    0    0  0.15582326857E+02 -0.38541214405E+02  0.34901629020E+01  0.13411796123E+03  0.12746455260E+03 0.  0.
         25    2    3    3    0    0 -0.15582326857E+02  0.38541214405E+02 -0.64083672888E+02  0.14689094379E+03  0.12546711967E+03 0.  0.
          5    1    4    4  502    0 -0.43933603964E+01 -0.83139954305E+02  0.12142407015E+02  0.84267915991E+02  0.47000000000E+01 0.  1.
         -5    1    4    4    0  502  0.19975687253E+02  0.44598739900E+02 -0.86522441131E+01  0.49850045237E+02  0.47000000000E+01 0.  1.
          5    1    5    5  503    0  0.95769588529E+01  0.72274270811E+02 -0.73370852018E+02  0.10354062144E+03  0.47000000000E+01 0. -1.
         -5    1    5    5    0  503 -0.25159285710E+02 -0.33733056406E+02  0.92871791298E+01  0.43350322353E+02  0.47000000000E+01 0. -1.
<mgrwt>
<rscale>  0 0.27439831E+03</rscale>
<asrwt>0</asrwt>
<pdfrwt beam="1">  1        2 0.16955030E-01 0.27439831E+03</pdfrwt>
<pdfrwt beam="2">  1       -2 0.26277109E-01 0.27439831E+03</pdfrwt>
<totfact> 0.43533475E+03</totfact>
</mgrwt>
</event>
<event>
 9    1  0.2054950E-002  0.2739729E+03  0.7818608E-02  0.1099027E+00
          2   -1    0    0  501    0  0.00000000000E+00  0.00000000000E+00  0.57373460367E+02  0.57373460367E+02  0.00000000000E+00 0. -1.
         -2   -1    0    0    0  501 -0.00000000000E+00 -0.00000000000E+00 -0.32707268804E+03  0.32707268804E+03  0.00000000000E+00 0. -1.
         36    2    1    2    0    0  0.35527136788E-14 -0.71054273576E-14 -0.26969922768E+03  0.38444614841E+03  0.27397293227E+03 0.  0.
         25    2    3    3    0    0  0.16251120617E+02 -0.51291907813E+02 -0.73361066389E+02  0.14464859164E+03  0.11245625938E+03 0.  0.
         25    2    3    3    0    0 -0.16251120617E+02  0.51291907813E+02 -0.19633816129E+03  0.23979755677E+03  0.12672504064E+03 0.  0.
          5    1    4    4  502    0  0.36276764159E+02 -0.15076724231E+02  0.18582447369E+02  0.43711652698E+02  0.47000000000E+01 0. -1.
         -5    1    4    4    0  502 -0.20025643541E+02 -0.36215183582E+02 -0.91943513758E+02  0.10093693894E+03  0.47000000000E+01 0. -1.
          5    1    5    5  503    0  0.30363744653E+02  0.50797053994E+02 -0.29090443060E+02  0.66110827867E+02  0.47000000000E+01 0. -1.
         -5    1    5    5    0  503 -0.46614865270E+02  0.49485381901E+00 -0.16724771823E+03  0.17368672890E+03  0.47000000000E+01 0. -1.
<mgrwt>
<rscale>  0 0.27397293E+03</rscale>
<asrwt>0</asrwt>
<pdfrwt beam="1">  1        2 0.88266862E-02 0.27397293E+03</pdfrwt>
<pdfrwt beam="2">  1       -2 0.50318875E-01 0.27397293E+03</pdfrwt>
<totfact> 0.28339242E+03</totfact>
</mgrwt>
</event>
<event>
 9    1  0.2054950E-002  0.2755132E+03  0.7818608E-02  0.1098165E+00
         -2   -1    0    0    0  501 -0.00000000000E+00  0.00000000000E+00  0.96780791909E+01  0.96780791909E+01  0.00000000000E+00 0. -1.
          2   -1    0    0  501    0  0.00000000000E+00 -0.00000000000E+00 -0.19608107828E+04  0.19608107828E+04  0.00000000000E+00 0. -1.
         36    2    1    2    0    0  0.71054273576E-14  0.00000000000E+00 -0.19511327036E+04  0.19704888620E+04  0.27551320865E+03 0.  0.
         25    2    3    3    0    0 -0.23272630607E+02 -0.38355163716E+02 -0.68169281935E+03  0.69416105858E+03  0.12305178332E+03 0.  0.
         25    2    3    3    0    0  0.23272630607E+02  0.38355163716E+02 -0.12694398843E+04  0.12763278034E+04  0.12458855521E+03 0.  0.
          5    1    4    4  502    0  0.43787014705E+02 -0.44628419462E+02 -0.29105896036E+03  0.29773546461E+03  0.47000000000E+01 0. -1.
         -5    1    4    4    0  502 -0.67059645311E+02  0.62732557461E+01 -0.39063385899E+03  0.39642559397E+03  0.47000000000E+01 0. -1.
          5    1    5    5  503    0 -0.76121007323E+01 -0.17290125725E+02 -0.33531347454E+02  0.38772848583E+02  0.47000000000E+01 0.  1.
         -5    1    5    5    0  503  0.30884731339E+02  0.55645289441E+02 -0.12359085368E+04  0.12375549548E+04  0.47000000000E+01 0.  1.
<mgrwt>
<rscale>  0 0.27551321E+03</rscale>
<asrwt>0</asrwt>
<pdfrwt beam="1">  1        2 0.30166312E+00 0.27551321E+03</pdfrwt>
<pdfrwt beam="2">  1       -2 0.14889357E-02 0.27551321E+03</pdfrwt>
<totfact> 0.92918681E+03</totfact>
</mgrwt>
</event>
<event>
 9    1  0.2054950E-002  0.2743174E+03  0.7818608E-02  0.1098834E+00
          1   -1    0    0  501    0  0.00000000000E+00  0.00000000000E+00  0.42454061148E+03  0.42454061148E+03  0.00000000000E+00 0.  1.
         -1   -1    0    0    0  501 -0.00000000000E+00 -0.00000000000E+00 -0.44312638790E+02  0.44312638790E+02  0.00000000000E+00 0.  1.
         36    2    1    2    0    0  0.14210854715E-13  0.00000000000E+00  0.38022797269E+03  0.46885325027E+03  0.27431744216E+03 0.  0.
         25    2    3    3    0    0 -0.37938627789E+02  0.43532047846E+02  0.14954075622E+03  0.20029332309E+03  0.12008579780E+03 0.  0.
         25    2    3    3    0    0  0.37938627789E+02 -0.43532047846E+02  0.23068721647E+03  0.26855992718E+03  0.12479368566E+03 0.  0.
          5    1    4    4  502    0 -0.70778653094E+02  0.57201798835E+02  0.13188474791E+03  0.16030389969E+03  0.47000000000E+01 0.  1.
         -5    1    4    4    0  502  0.32840025304E+02 -0.13669750989E+02  0.17656008308E+02  0.39989423395E+02  0.47000000000E+01 0.  1.
          5    1    5    5  503    0  0.83352030283E+02 -0.26512950133E+02  0.13077418102E+03  0.15739909116E+03  0.47000000000E+01 0. -1.
         -5    1    5    5    0  503 -0.45413402493E+02 -0.17019097713E+02  0.99913035445E+02  0.11116083602E+03  0.47000000000E+01 0. -1.
<mgrwt>
<rscale>  0 0.27431744E+03</rscale>
<asrwt>0</asrwt>
<pdfrwt beam="1">  1        1 0.65313937E-01 0.27431744E+03</pdfrwt>
<pdfrwt beam="2">  1       -1 0.68173293E-02 0.27431744E+03</pdfrwt>
<totfact> 0.61337434E+03</totfact>
</mgrwt>
</event>
<event>
 9    1  0.2054950E-002  0.2751249E+03  0.7818608E-02  0.1098382E+00
          2   -1    0    0  501    0  0.00000000000E+00  0.00000000000E+00  0.76452419932E+03  0.76452419932E+03  0.00000000000E+00 0. -1.
         -2   -1    0    0    0  501 -0.00000000000E+00 -0.00000000000E+00 -0.24751899954E+02  0.24751899954E+02  0.00000000000E+00 0. -1.
         36    2    1    2    0    0  0.35527136788E-14 -0.88817841970E-15  0.73977229936E+03  0.78927609927E+03  0.27512489160E+03 0.  0.
         25    2    3    3    0    0  0.25071222322E+02 -0.32316678569E+01  0.51809404761E+03  0.53381600615E+03  0.12609153973E+03 0.  0.
         25    2    3    3    0    0 -0.25071222322E+02  0.32316678569E+01  0.22167825176E+03  0.25546009312E+03  0.12441704871E+03 0.  0.
          5    1    4    4  502    0  0.28111838612E+02  0.72835446827E+01  0.19984343504E+02  0.35563878846E+02  0.47000000000E+01 0.  1.
         -5    1    4    4    0  502 -0.30406162893E+01 -0.10515212540E+02  0.49810970411E+03  0.49825212731E+03  0.47000000000E+01 0.  1.
          5    1    5    5  503    0 -0.23386173109E+02  0.37763998210E+02  0.21543223319E+03  0.22001402171E+03  0.47000000000E+01 0.  1.
         -5    1    5    5    0  503 -0.16850492131E+01 -0.34532330353E+02  0.62460185698E+01  0.35446071411E+02  0.47000000000E+01 0.  1.
<mgrwt>
<rscale>  0 0.27512489E+03</rscale>
<asrwt>0</asrwt>
<pdfrwt beam="1">  1        2 0.11761909E+00 0.27512489E+03</pdfrwt>
<pdfrwt beam="2">  1       -2 0.38079852E-02 0.27512489E+03</pdfrwt>
<totfact> 0.11086759E+04</totfact>
</mgrwt>
</event>
<event>
 9    1  0.2054950E-002  0.2754748E+03  0.7818608E-02  0.1098186E+00
         -2   -1    0    0    0  501 -0.00000000000E+00  0.00000000000E+00  0.14634409558E+02  0.14634409558E+02  0.00000000000E+00 0. -1.
          2   -1    0    0  501    0  0.00000000000E+00 -0.00000000000E+00 -0.12963689781E+04  0.12963689781E+04  0.00000000000E+00 0. -1.
         36    2    1    2    0    0  0.00000000000E+00  0.35527136788E-14 -0.12817345686E+04  0.13110033877E+04  0.27547482327E+03 0.  0.
         25    2    3    3    0    0  0.18037773935E+02 -0.13906491883E+02 -0.85729208900E+03  0.86766613129E+03  0.13181819953E+03 0.  0.
         25    2    3    3    0    0 -0.18037773935E+02  0.13906491883E+02 -0.42444247957E+03  0.44333725640E+03  0.12600695471E+03 0.  0.
          5    1    4    4  502    0  0.32269646552E+02 -0.25911082688E+01 -0.47605179276E+02  0.57761466607E+02  0.47000000000E+01 0.  1.
         -5    1    4    4    0  502 -0.14231872616E+02 -0.11315383614E+02 -0.80968690972E+03  0.80990466468E+03  0.47000000000E+01 0.  1.
          5    1    5    5  503    0 -0.57986326120E+02 -0.32145788818E+02 -0.20274416754E+03  0.21336132083E+03  0.47000000000E+01 0. -1.
         -5    1    5    5    0  503  0.39948552184E+02  0.46052280701E+02 -0.22169831204E+03  0.22997593557E+03  0.47000000000E+01 0. -1.
<mgrwt>
<rscale>  0 0.27547482E+03</rscale>
<asrwt>0</asrwt>
<pdfrwt beam="1">  1        2 0.19944135E+00 0.27547482E+03</pdfrwt>
<pdfrwt beam="2">  1       -2 0.22514479E-02 0.27547482E+03</pdfrwt>
<totfact> 0.11432558E+04</totfact>
</mgrwt>
</event>
<event>
 9    1  0.2054950E-002  0.2758574E+03  0.7818608E-02  0.1097973E+00
         -1   -1    0    0    0  501 -0.00000000000E+00  0.00000000000E+00  0.17607793715E+02  0.17607793715E+02  0.00000000000E+00 0.  1.
          1   -1    0    0  501    0  0.00000000000E+00 -0.00000000000E+00 -0.10804494272E+04  0.10804494272E+04  0.00000000000E+00 0.  1.
         36    2    1    2    0    0 -0.17763568394E-14  0.00000000000E+00 -0.10628416335E+04  0.10980572209E+04  0.27585743154E+03 0.  0.
         25    2    3    3    0    0 -0.15107980244E+02  0.41671529279E+02 -0.51166634093E+03  0.53198752685E+03  0.13872100367E+03 0.  0.
         25    2    3    3    0    0  0.15107980244E+02 -0.41671529279E+02 -0.55117529258E+03  0.56606969409E+03  0.12114424461E+03 0.  0.
          5    1    4    4  502    0 -0.17567407753E+02 -0.22675247406E+02 -0.41332275286E+03  0.41434353946E+03  0.47000000000E+01 0. -1.
         -5    1    4    4    0  502  0.24594275091E+01  0.64346776685E+02 -0.98343588070E+02  0.11764398739E+03  0.47000000000E+01 0. -1.
          5    1    5    5  503    0 -0.79587702992E+01  0.14928906177E+02 -0.42917989840E+03  0.42953892659E+03  0.47000000000E+01 0. -1.
         -5    1    5    5    0  503  0.23066750543E+02 -0.56600435456E+02 -0.12199539418E+03  0.13653076750E+03  0.47000000000E+01 0. -1.
<mgrwt>
<rscale>  0 0.27585743E+03</rscale>
<asrwt>0</asrwt>
<pdfrwt beam="1">  1        1 0.16622300E+00 0.27585743E+03</pdfrwt>
<pdfrwt beam="2">  1       -1 0.27088911E-02 0.27585743E+03</pdfrwt>
<totfact> 0.61137095E+03</totfact>
</mgrwt>
</event>
<event>
 9    1  0.2054950E-002  0.2760771E+03  0.7818608E-02  0.1097851E+00
          1   -1    0    0  501    0  0.00000000000E+00  0.00000000000E+00  0.11701032471E+04  0.11701032471E+04  0.00000000000E+00 0. -1.
         -1   -1    0    0    0  501 -0.00000000000E+00 -0.00000000000E+00 -0.16284585029E+02  0.16284585029E+02  0.00000000000E+00 0. -1.
         36    2    1    2    0    0  0.00000000000E+00  0.00000000000E+00  0.11538186621E+04  0.11863878321E+04  0.27607713284E+03 0.  0.
         25    2    3    3    0    0  0.23611929669E+01  0.22023579691E+02  0.39502767288E+03  0.41726336597E+03  0.13255655752E+03 0.  0.
         25    2    3    3    0    0 -0.23611929669E+01 -0.22023579691E+02  0.75879098920E+03  0.76912446617E+03  0.12368535029E+03 0.  0.
          5    1    4    4  502    0  0.44586196820E+02  0.58761141875E+02  0.27474635922E+03  0.28451441553E+03  0.47000000000E+01 0.  1.
         -5    1    4    4    0  502 -0.42225003853E+02 -0.36737562184E+02  0.12028131367E+03  0.13274895044E+03  0.47000000000E+01 0.  1.
          5    1    5    5  503    0  0.38923044209E+02 -0.42513579762E+01  0.83725418608E+02  0.92547896444E+02  0.47000000000E+01 0.  1.
         -5    1    5    5    0  503 -0.41284237176E+02 -0.17772221714E+02  0.67506557060E+03  0.67657656973E+03  0.47000000000E+01 0.  1.
<mgrwt>
<rscale>  0 0.27607713E+03</rscale>
<asrwt>0</asrwt>
<pdfrwt beam="1">  1        1 0.18001582E+00 0.27607713E+03</pdfrwt>
<pdfrwt beam="2">  1       -1 0.25053217E-02 0.27607713E+03</pdfrwt>
<totfact> 0.59167592E+03</totfact>
</mgrwt>
</event>
<event>
 9    1  0.2054950E-002  0.2750311E+03  0.7818608E-02  0.1098434E+00
         -1   -1    0    0    0  501 -0.00000000000E+00  0.00000000000E+00  0.60166410156E+02  0.60166410156E+02  0.00000000000E+00 0.  1.
          1   -1    0    0  501    0  0.00000000000E+00 -0.00000000000E+00 -0.31430366764E+03  0.31430366764E+03  0.00000000000E+00 0.  1.
         36    2    1    2    0    0  0.00000000000E+00  0.71054273576E-14 -0.25413725748E+03  0.37447007779E+03  0.27503107738E+03 0.  0.
         25    2    3    3    0    0  0.54465088138E+02 -0.20376468210E+02 -0.11895331303E+03  0.17942961910E+03  0.12109273822E+03 0.  0.
         25    2    3    3    0    0 -0.54465088138E+02  0.20376468210E+02 -0.13518394445E+03  0.19504045869E+03  0.12800170079E+03 0.  0.
          5    1    4    4  502    0  0.23154707134E+02 -0.68841867420E+02 -0.45225547430E+02  0.85690042086E+02  0.47000000000E+01 0.  1.
         -5    1    4    4    0  502  0.31310381004E+02  0.48465399211E+02 -0.73727765598E+02  0.93739577018E+02  0.47000000000E+01 0.  1.
          5    1    5    5  503    0 -0.24050795320E+02  0.72932993381E+02 -0.94212112519E+02  0.12163747130E+03  0.47000000000E+01 0. -1.
         -5    1    5    5    0  503 -0.30414292819E+02 -0.52556525172E+02 -0.40971831935E+02  0.73402987391E+02  0.47000000000E+01 0. -1.
<mgrwt>
<rscale>  0 0.27503108E+03</rscale>
<asrwt>0</asrwt>
<pdfrwt beam="1">  1        1 0.48354410E-01 0.27503108E+03</pdfrwt>
<pdfrwt beam="2">  1       -1 0.92563709E-02 0.27503108E+03</pdfrwt>
<totfact> 0.56387063E+03</totfact>
</mgrwt>
</event>
<event>
 9    1  0.2054950E-002  0.2749716E+03  0.7818608E-02  0.1098467E+00
          1   -1    0    0  501    0  0.00000000000E+00  0.00000000000E+00  0.92795152229E+03  0.92795152229E+03  0.00000000000E+00 0. -1.
         -1   -1    0    0    0  501 -0.00000000000E+00 -0.00000000000E+00 -0.20369972398E+02  0.20369972398E+02  0.00000000000E+00 0. -1.
         36    2    1    2    0    0 -0.35527136788E-14 -0.71054273576E-14  0.90758154989E+03  0.94832149469E+03  0.27497161232E+03 0.  0.
         25    2    3    3    0    0 -0.29752367536E+02  0.20360435106E+02  0.66952245328E+03  0.67985394414E+03  0.11243362140E+03 0.  0.
         25    2    3    3    0    0  0.29752367536E+02 -0.20360435106E+02  0.23805909661E+03  0.26846755055E+03  0.11875580629E+03 0.  0.
          5    1    4    4  502    0 -0.13889870727E+02 -0.46243876667E+02  0.23619969725E+03  0.24113027935E+03  0.47000000000E+01 0. -1.
         -5    1    4    4    0  502 -0.15862496809E+02  0.66604311773E+02  0.43332275603E+03  0.43872366479E+03  0.47000000000E+01 0. -1.
          5    1    5    5  503    0 -0.16159716863E+02  0.42599278703E+02  0.96219773745E+02  0.10656533139E+03  0.47000000000E+01 0. -1.
         -5    1    5    5    0  503  0.45912084399E+02 -0.62959713809E+02  0.14183932286E+03  0.16190221915E+03  0.47000000000E+01 0. -1.
<mgrwt>
<rscale>  0 0.27497161E+03</rscale>
<asrwt>0</asrwt>
<pdfrwt beam="1">  1        1 0.14276174E+00 0.27497161E+03</pdfrwt>
<pdfrwt beam="2">  1       -1 0.31338426E-02 0.27497161E+03</pdfrwt>
<totfact> 0.64129971E+03</totfact>
</mgrwt>
</event>
<event>
 9    1  0.2054950E-002  0.2751028E+03  0.7818608E-02  0.1098394E+00
          2   -1    0    0  501    0  0.00000000000E+00  0.00000000000E+00  0.11282686899E+04  0.11282686899E+04  0.00000000000E+00 0.  1.
         -2   -1    0    0    0  501 -0.00000000000E+00 -0.00000000000E+00 -0.16769396225E+02  0.16769396225E+02  0.00000000000E+00 0.  1.
         36    2    1    2    0    0  0.71054273576E-14  0.71054273576E-14  0.11114992937E+04  0.11450380861E+04  0.27510277867E+03 0.  0.
         25    2    3    3    0    0  0.21284352996E+02 -0.31028173636E+02  0.38356404595E+03  0.40525172014E+03  0.12526694733E+03 0.  0.
         25    2    3    3    0    0 -0.21284352996E+02  0.31028173636E+02  0.72793524771E+03  0.73978636596E+03  0.12640558202E+03 0.  0.
          5    1    4    4  502    0 -0.32835843241E+02 -0.60206467918E+02  0.21778789801E+03  0.22837834814E+03  0.47000000000E+01 0.  1.
         -5    1    4    4    0  502  0.54120196237E+02  0.29178294282E+02  0.16577614794E+03  0.17687337200E+03  0.47000000000E+01 0.  1.
          5    1    5    5  503    0 -0.63260824101E+02 -0.16728086725E+01  0.21762810341E+03  0.22669100456E+03  0.47000000000E+01 0.  1.
         -5    1    5    5    0  503  0.41976471104E+02  0.32700982309E+02  0.51030714429E+03  0.51309536140E+03  0.47000000000E+01 0.  1.
<mgrwt>
<rscale>  0 0.27510278E+03</rscale>
<asrwt>0</asrwt>
<pdfrwt beam="1">  1        2 0.17357974E+00 0.27510278E+03</pdfrwt>
<pdfrwt beam="2">  1       -2 0.25799080E-02 0.27510278E+03</pdfrwt>
<totfact> 0.11640406E+04</totfact>
</mgrwt>
</event>
<event>
 9    1  0.2054950E-002  0.2755832E+03  0.7818608E-02  0.1098126E+00
          1   -1    0    0  501    0  0.00000000000E+00  0.00000000000E+00  0.34112225436E+03  0.34112225436E+03  0.00000000000E+00 0.  1.
         -1   -1    0    0    0  501 -0.00000000000E+00 -0.00000000000E+00 -0.55659012197E+02  0.55659012197E+02  0.00000000000E+00 0.  1.
         36    2    1    2    0    0  0.35527136788E-14  0.00000000000E+00  0.28546324216E+03  0.39678126655E+03  0.27558321949E+03 0.  0.
         25    2    3    3    0    0  0.65332084411E+01 -0.45387937738E+02  0.18905832454E+03  0.23266669982E+03  0.12762443115E+03 0.  0.
         25    2    3    3    0    0 -0.65332084411E+01  0.45387937738E+02  0.96404917623E+02  0.16411456673E+03  0.12464724291E+03 0.  0.
          5    1    4    4  502    0  0.61990030181E+02  0.24443185731E+01  0.85287203659E+02  0.10556863001E+03  0.47000000000E+01 0. -1.
         -5    1    4    4    0  502 -0.55456821740E+02 -0.47832256311E+02  0.10377112088E+03  0.12709806981E+03  0.47000000000E+01 0. -1.
          5    1    5    5  503    0  0.22666496754E+02  0.29706758729E+02  0.11827627058E+03  0.12412746582E+03  0.47000000000E+01 0. -1.
         -5    1    5    5    0  503 -0.29199705195E+02  0.15681179009E+02 -0.21871352958E+02  0.39987100905E+02  0.47000000000E+01 0. -1.
<mgrwt>
<rscale>  0 0.27558322E+03</rscale>
<asrwt>0</asrwt>
<pdfrwt beam="1">  1        1 0.52480345E-01 0.27558322E+03</pdfrwt>
<pdfrwt beam="2">  1       -1 0.85629252E-02 0.27558322E+03</pdfrwt>
<totfact> 0.57311084E+03</totfact>
</mgrwt>
</event>
<event>
 9    1  0.2054950E-002  0.2757980E+03  0.7818608E-02  0.1098006E+00
          1   -1    0    0  501    0  0.00000000000E+00  0.00000000000E+00  0.30991416230E+03  0.30991416230E+03  0.00000000000E+00 0. -1.
         -1   -1    0    0    0  501 -0.00000000000E+00 -0.00000000000E+00 -0.61359367547E+02  0.61359367547E+02  0.00000000000E+00 0. -1.
         36    2    1    2    0    0  0.00000000000E+00  0.00000000000E+00  0.24855479475E+03  0.37127352985E+03  0.27579802024E+03 0.  0.
         25    2    3    3    0    0 -0.71618480010E+01  0.53804912478E+02  0.15124482080E+03  0.20451627000E+03  0.12651343092E+03 0.  0.
         25    2    3    3    0    0  0.71618480010E+01 -0.53804912478E+02  0.97309973951E+02  0.16675725985E+03  0.12406648221E+03 0.  0.
          5    1    4    4  502    0 -0.45596867512E+01  0.92482961603E+02  0.76560326527E+02  0.12023918882E+03  0.47000000000E+01 0.  1.
         -5    1    4    4    0  502 -0.26021612498E+01 -0.38678049125E+02  0.74684494276E+02  0.84277081182E+02  0.47000000000E+01 0.  1.
          5    1    5    5  503    0  0.25408186206E+02 -0.72283697977E+02  0.11258506121E+03  0.13626443016E+03  0.47000000000E+01 0.  1.
         -5    1    5    5    0  503 -0.18246338205E+02  0.18478785499E+02 -0.15275087259E+02  0.30492829685E+02  0.47000000000E+01 0.  1.
<mgrwt>
<rscale>  0 0.27579802E+03</rscale>
<asrwt>0</asrwt>
<pdfrwt beam="1">  1        1 0.47679101E-01 0.27579802E+03</pdfrwt>
<pdfrwt beam="2">  1       -1 0.94399029E-02 0.27579802E+03</pdfrwt>
<totfact> 0.55690764E+03</totfact>
</mgrwt>
</event>
<event>
 9    1  0.2054950E-002  0.2751009E+03  0.7818608E-02  0.1098395E+00
         -1   -1    0    0    0  501 -0.00000000000E+00  0.00000000000E+00  0.99371379967E+02  0.99371379967E+02  0.00000000000E+00 0.  1.
          1   -1    0    0  501    0  0.00000000000E+00 -0.00000000000E+00 -0.19039807593E+03  0.19039807593E+03  0.00000000000E+00 0.  1.
         36    2    1    2    0    0  0.00000000000E+00 -0.14210854715E-13 -0.91026695968E+02  0.28976945590E+03  0.27510085095E+03 0.  0.
         25    2    3    3    0    0 -0.13706475188E+02  0.52357457855E+02 -0.61562075863E+02  0.15061146832E+03  0.12635170893E+03 0.  0.
         25    2    3    3    0    0  0.13706475188E+02 -0.52357457855E+02 -0.29464620105E+02  0.13915798758E+03  0.12477023208E+03 0.  0.
          5    1    4    4  502    0  0.15585763378E+02  0.54761762473E+02 -0.91836417709E+02  0.10815629555E+03  0.47000000000E+01 0.  1.
         -5    1    4    4    0  502 -0.29292238566E+02 -0.24043046180E+01  0.30274341846E+02  0.42455172772E+02  0.47000000000E+01 0.  1.
          5    1    5    5  503    0  0.54316738027E+02 -0.22513673866E+02 -0.56581915092E+02  0.81736018109E+02  0.47000000000E+01 0. -1.
         -5    1    5    5    0  503 -0.40610262838E+02 -0.29843783989E+02  0.27117294987E+02  0.57421969472E+02  0.47000000000E+01 0. -1.
<mgrwt>
<rscale>  0 0.27510085E+03</rscale>
<asrwt>0</asrwt>
<pdfrwt beam="1">  1        1 0.29292012E-01 0.27510085E+03</pdfrwt>
<pdfrwt beam="2">  1       -1 0.15287905E-01 0.27510085E+03</pdfrwt>
<totfact> 0.48355057E+03</totfact>
</mgrwt>
</event>
<event>
 9    1  0.2054950E-002  0.2743893E+03  0.7818608E-02  0.1098793E+00
          2   -1    0    0  501    0  0.00000000000E+00  0.00000000000E+00  0.28521917152E+02  0.28521917152E+02  0.00000000000E+00 0. -1.
         -2   -1    0    0    0  501 -0.00000000000E+00 -0.00000000000E+00 -0.65992657789E+03  0.65992657789E+03  0.00000000000E+00 0. -1.
         36    2    1    2    0    0  0.00000000000E+00 -0.14210854715E-13 -0.63140466074E+03  0.68844849504E+03  0.27438929411E+03 0.  0.
         25    2    3    3    0    0 -0.34603558403E+02  0.32348616389E+02 -0.27614290570E+03  0.31124587388E+03  0.13555534075E+03 0.  0.
         25    2    3    3    0    0  0.34603558403E+02 -0.32348616389E+02 -0.35526175504E+03  0.37720262116E+03  0.11758853506E+03 0.  0.
          5    1    4    4  502    0 -0.11097531751E+02 -0.32076790516E+01  0.13538789603E+02  0.18407423496E+02  0.47000000000E+01 0.  1.
         -5    1    4    4    0  502 -0.23506026652E+02  0.35556295440E+02 -0.28968169530E+03  0.29283845039E+03  0.47000000000E+01 0.  1.
          5    1    5    5  503    0  0.26143308887E+02 -0.70360959708E+02 -0.14532087000E+03  0.16362879486E+03  0.47000000000E+01 0.  1.
         -5    1    5    5    0  503  0.84602495152E+01  0.38012343319E+02 -0.20994088504E+03  0.21357382630E+03  0.47000000000E+01 0.  1.
<mgrwt>
<rscale>  0 0.27438929E+03</rscale>
<asrwt>0</asrwt>
<pdfrwt beam="1">  1        2 0.43879875E-02 0.27438929E+03</pdfrwt>
<pdfrwt beam="2">  1       -2 0.10152716E+00 0.27438929E+03</pdfrwt>
<totfact> 0.15477365E+03</totfact>
</mgrwt>
</event>
<event>
 9    1  0.2054950E-002  0.2736200E+03  0.7818608E-02  0.1099225E+00
         -4   -1    0    0    0  501 -0.00000000000E+00  0.00000000000E+00  0.11648269954E+04  0.11648269954E+04  0.00000000000E+00 0.  1.
          4   -1    0    0  501    0  0.00000000000E+00 -0.00000000000E+00 -0.16068459619E+02  0.16068459619E+02  0.00000000000E+00 0.  1.
         36    2    1    2    0    0 -0.71054273576E-14 -0.71054273576E-14  0.11487585358E+04  0.11808954550E+04  0.27361999589E+03 0.  0.
         25    2    3    3    0    0  0.33014503306E+02  0.30161618639E+02  0.63152819791E+03  0.64669079916E+03  0.13183870559E+03 0.  0.
         25    2    3    3    0    0 -0.33014503306E+02 -0.30161618639E+02  0.51723033784E+03  0.53420465583E+03  0.12588769305E+03 0.  0.
          5    1    4    4  502    0  0.37795380801E+02 -0.16248063383E+02  0.58083659142E+02  0.71332263618E+02  0.47000000000E+01 0.  1.
         -5    1    4    4    0  502 -0.47808774958E+01  0.46409682021E+02  0.57344453877E+03  0.57535853554E+03  0.47000000000E+01 0.  1.
          5    1    5    5  503    0  0.47069778854E+02  0.12566794130E+01  0.17274082436E+03  0.17910506895E+03  0.47000000000E+01 0.  1.
         -5    1    5    5    0  503 -0.80084282160E+02 -0.31418298052E+02  0.34448951348E+03  0.35509958688E+03  0.47000000000E+01 0.  1.
<mgrwt>
<rscale>  0 0.27362000E+03</rscale>
<asrwt>0</asrwt>
<pdfrwt beam="1">  1        4 0.24720716E-02 0.27362000E+03</pdfrwt>
<pdfrwt beam="2">  1       -4 0.17920409E+00 0.27362000E+03</pdfrwt>
<totfact> 0.26868163E+02</totfact>
</mgrwt>
</event>
<event>
 9    1  0.2054950E-002  0.2764604E+03  0.7818608E-02  0.1097638E+00
          2   -1    0    0  501    0  0.00000000000E+00  0.00000000000E+00  0.15468479684E+03  0.15468479684E+03  0.00000000000E+00 0.  1.
         -2   -1    0    0    0  501 -0.00000000000E+00 -0.00000000000E+00 -0.12352597087E+03  0.12352597087E+03  0.00000000000E+00 0.  1.
         36    2    1    2    0    0  0.71054273576E-14  0.71054273576E-14  0.31158825971E+02  0.27821076771E+03  0.27646041097E+03 0.  0.
         25    2    3    3    0    0 -0.23562243645E+02 -0.32653969471E+01  0.62688687925E+02  0.14464947201E+03  0.12817080798E+03 0.  0.
         25    2    3    3    0    0  0.23562243645E+02  0.32653969471E+01 -0.31529861954E+02  0.13356129570E+03  0.12758779476E+03 0.  0.
          5    1    4    4  502    0 -0.49268305013E+02 -0.48429549101E+02  0.90777548761E+01  0.69837545336E+02  0.47000000000E+01 0.  1.
         -5    1    4    4    0  502  0.25706061369E+02  0.45164152154E+02  0.53610933049E+02  0.74811926678E+02  0.47000000000E+01 0.  1.
          5    1    5    5  503    0 -0.35304461711E+02 -0.15104199941E+02 -0.55144270254E+02  0.67361134302E+02  0.47000000000E+01 0.  1.
         -5    1    5    5    0  503  0.58866705356E+02  0.18369596888E+02  0.23614408300E+02  0.66200161395E+02  0.47000000000E+01 0.  1.
<mgrwt>
<rscale>  0 0.27646041E+03</rscale>
<asrwt>0</asrwt>
<pdfrwt beam="1">  1        2 0.23797661E-01 0.27646041E+03</pdfrwt>
<pdfrwt beam="2">  1       -2 0.19003996E-01 0.27646041E+03</pdfrwt>
<totfact> 0.51857464E+03</totfact>
</mgrwt>
</event>
<event>
 9    1  0.2054950E-002  0.2757598E+03  0.7818608E-02  0.1098028E+00
         -1   -1    0    0    0  501 -0.00000000000E+00  0.00000000000E+00  0.53339770235E+02  0.53339770235E+02  0.00000000000E+00 0. -1.
          1   -1    0    0  501    0  0.00000000000E+00 -0.00000000000E+00 -0.35641081131E+03  0.35641081131E+03  0.00000000000E+00 0. -1.
         36    2    1    2    0    0  0.71054273576E-14  0.71054273576E-14 -0.30307104108E+03  0.40975058155E+03  0.27575982872E+03 0.  0.
         25    2    3    3    0    0 -0.32040242196E+02 -0.21616760355E+02 -0.13540404093E+03  0.18797359554E+03  0.12452291706E+03 0.  0.
         25    2    3    3    0    0  0.32040242196E+02  0.21616760355E+02 -0.16766700015E+03  0.22177698600E+03  0.13992479099E+03 0.  0.
          5    1    4    4  502    0 -0.40963312245E+02 -0.15937822607E+02  0.72974832550E+01  0.44803464168E+02  0.47000000000E+01 0.  1.
         -5    1    4    4    0  502  0.89230700492E+01 -0.56789377476E+01 -0.14270152419E+03  0.14317013138E+03  0.47000000000E+01 0.  1.
          5    1    5    5  503    0 -0.25415860168E+02 -0.47695155719E+02 -0.52198293861E+02  0.75283103743E+02  0.47000000000E+01 0.  1.
         -5    1    5    5    0  503  0.57456102364E+02  0.69311916074E+02 -0.11546870629E+03  0.14649388226E+03  0.47000000000E+01 0.  1.
<mgrwt>
<rscale>  0 0.27575983E+03</rscale>
<asrwt>0</asrwt>
<pdfrwt beam="1">  1        1 0.54832433E-01 0.27575983E+03</pdfrwt>
<pdfrwt beam="2">  1       -1 0.82061184E-02 0.27575983E+03</pdfrwt>
<totfact> 0.57863467E+03</totfact>
</mgrwt>
</event>
<event>
 9    1  0.2054950E-002  0.2750462E+03  0.7818608E-02  0.1098426E+00
         -3   -1    0    0    0  501 -0.00000000000E+00  0.00000000000E+00  0.12679558757E+03  0.12679558757E+03  0.00000000000E+00 0.  1.
          3   -1    0    0  501    0  0.00000000000E+00 -0.00000000000E+00 -0.14915823367E+03  0.14915823367E+03  0.00000000000E+00 0.  1.
         36    2    1    2    0    0 -0.35527136788E-14 -0.71054273576E-14 -0.22362646096E+02  0.27595382124E+03  0.27504622069E+03 0.  0.
         25    2    3    3    0    0 -0.14016588623E+02  0.57533780726E+02  0.14002079208E+02  0.13761159633E+03  0.12342727632E+03 0.  0.
         25    2    3    3    0    0  0.14016588623E+02 -0.57533780726E+02 -0.36364725304E+02  0.13834222491E+03  0.11962264529E+03 0.  0.
          5    1    4    4  502    0  0.14910216947E+02  0.71834553270E+02 -0.32855607725E+02  0.80523900625E+02  0.47000000000E+01 0.  1.
         -5    1    4    4    0  502 -0.28926805569E+02 -0.14300772544E+02  0.46857686933E+02  0.57087695702E+02  0.47000000000E+01 0.  1.
          5    1    5    5  503    0 -0.28311329810E+02 -0.76423493255E+02 -0.42271533948E+01  0.81743749258E+02  0.47000000000E+01 0. -1.
         -5    1    5    5    0  503  0.42327918433E+02  0.18889712529E+02 -0.32137571909E+02  0.56598475655E+02  0.47000000000E+01 0. -1.
<mgrwt>
<rscale>  0 0.27504622E+03</rscale>
<asrwt>0</asrwt>
<pdfrwt beam="1">  1        3 0.22947421E-01 0.27504622E+03</pdfrwt>
<pdfrwt beam="2">  1       -3 0.19507014E-01 0.27504622E+03</pdfrwt>
<totfact> 0.10469230E+03</totfact>
</mgrwt>
</event>
<event>
 9    1  0.2054950E-002  0.2751497E+03  0.7818608E-02  0.1098368E+00
         -2   -1    0    0    0  501 -0.00000000000E+00  0.00000000000E+00  0.24698455701E+02  0.24698455701E+02  0.00000000000E+00 0.  1.
          2   -1    0    0  501    0  0.00000000000E+00 -0.00000000000E+00 -0.76631666690E+03  0.76631666690E+03  0.00000000000E+00 0.  1.
         36    2    1    2    0    0  0.00000000000E+00  0.71054273576E-14 -0.74161821120E+03  0.79101512260E+03  0.27514969199E+03 0.  0.
         25    2    3    3    0    0  0.41709301642E+02  0.39616456465E+02 -0.41054797571E+03  0.43256785704E+03  0.12351591445E+03 0.  0.
         25    2    3    3    0    0 -0.41709301642E+02 -0.39616456465E+02 -0.33107023549E+03  0.35844726556E+03  0.12477103787E+03 0.  0.
          5    1    4    4  502    0  0.64412394821E+02  0.99250638932E+01 -0.98175587008E+02  0.11793218129E+03  0.47000000000E+01 0.  1.
         -5    1    4    4    0  502 -0.22703093179E+02  0.29691392572E+02 -0.31237238870E+03  0.31463567575E+03  0.47000000000E+01 0.  1.
          5    1    5    5  503    0 -0.33232087753E+02 -0.29345973511E+01 -0.10000777379E+02  0.35143833972E+02  0.47000000000E+01 0. -1.
         -5    1    5    5    0  503 -0.84772138886E+01 -0.36681859114E+02 -0.32106945811E+03  0.32330343159E+03  0.47000000000E+01 0. -1.
<mgrwt>
<rscale>  0 0.27514969E+03</rscale>
<asrwt>0</asrwt>
<pdfrwt beam="1">  1        2 0.11789488E+00 0.27514969E+03</pdfrwt>
<pdfrwt beam="2">  1       -2 0.37997622E-02 0.27514969E+03</pdfrwt>
<totfact> 0.11090279E+04</totfact>
</mgrwt>
</event>
<event>
 9    1  0.2054950E-002  0.2740181E+03  0.7818608E-02  0.1099002E+00
         -2   -1    0    0    0  501 -0.00000000000E+00  0.00000000000E+00  0.16431246373E+02  0.16431246373E+02  0.00000000000E+00 0.  1.
          2   -1    0    0  501    0  0.00000000000E+00 -0.00000000000E+00 -0.11424260695E+04  0.11424260695E+04  0.00000000000E+00 0.  1.
         36    2    1    2    0    0 -0.71054273576E-14  0.00000000000E+00 -0.11259948231E+04  0.11588573158E+04  0.27401813233E+03 0.  0.
         25    2    3    3    0    0 -0.22445405996E+02  0.68709866248E+02 -0.46412206627E+03  0.48279345484E+03  0.11160369914E+03 0.  0.
         25    2    3    3    0    0  0.22445405996E+02 -0.68709866248E+02 -0.66187275682E+03  0.67606386101E+03  0.11731136332E+03 0.  0.
          5    1    4    4  502    0 -0.57484550301E+01 -0.24577210029E+02 -0.20947764594E+03  0.21104515663E+03  0.47000000000E+01 0. -1.
         -5    1    4    4    0  502 -0.16696950966E+02  0.93287076277E+02 -0.25464442033E+03  0.27174829821E+03  0.47000000000E+01 0. -1.
          5    1    5    5  503    0  0.58376274617E+02 -0.52423921449E+02 -0.24494046151E+03  0.25724303035E+03  0.47000000000E+01 0. -1.
         -5    1    5    5    0  503 -0.35930868621E+02 -0.16285944799E+02 -0.41693229531E+03  0.41882083066E+03  0.47000000000E+01 0. -1.
<mgrwt>
<rscale>  0 0.27401813E+03</rscale>
<asrwt>0</asrwt>
<pdfrwt beam="1">  1        2 0.17575789E+00 0.27401813E+03</pdfrwt>
<pdfrwt beam="2">  1       -2 0.25278835E-02 0.27401813E+03</pdfrwt>
<totfact> 0.11770842E+04</totfact>
</mgrwt>
</event>
<event>
 9    1  0.2054950E-002  0.2745235E+03  0.7818608E-02  0.1098718E+00
         -3   -1    0    0    0  501 -0.00000000000E+00  0.00000000000E+00  0.62175579553E+02  0.62175579553E+02  0.00000000000E+00 0. -1.
          3   -1    0    0  501    0  0.00000000000E+00 -0.00000000000E+00 -0.30302561097E+03  0.30302561097E+03  0.00000000000E+00 0. -1.
         36    2    1    2    0    0  0.71054273576E-14  0.71054273576E-14 -0.24085003141E+03  0.36520119052E+03  0.27452353619E+03 0.  0.
         25    2    3    3    0    0  0.28135889860E+02 -0.77923608141E+01 -0.19037007004E+03  0.22924889397E+03  0.12434605999E+03 0.  0.
         25    2    3    3    0    0 -0.28135889860E+02  0.77923608141E+01 -0.50479961369E+02  0.13595229655E+03  0.12281063167E+03 0.  0.
          5    1    4    4  502    0 -0.31831998271E+02  0.17007599293E+02 -0.10359937904E+02  0.37841153009E+02  0.47000000000E+01 0.  1.
         -5    1    4    4    0  502  0.59967888131E+02 -0.24799960107E+02 -0.18001013214E+03  0.19140774096E+03  0.47000000000E+01 0.  1.
          5    1    5    5  503    0 -0.43880394508E+02  0.53004823704E+02 -0.40427501996E+01  0.69090044053E+02  0.47000000000E+01 0.  1.
         -5    1    5    5    0  503  0.15744504648E+02 -0.45212462890E+02 -0.46437211170E+02  0.66862252493E+02  0.47000000000E+01 0.  1.
<mgrwt>
<rscale>  0 0.27452354E+03</rscale>
<asrwt>0</asrwt>
<pdfrwt beam="1">  1        3 0.46619325E-01 0.27452354E+03</pdfrwt>
<pdfrwt beam="2">  1       -3 0.95654738E-02 0.27452354E+03</pdfrwt>
<totfact> 0.92844439E+02</totfact>
</mgrwt>
</event>
<event>
 9    1  0.2054950E-002  0.2746133E+03  0.7818608E-02  0.1098668E+00
          1   -1    0    0  501    0  0.00000000000E+00  0.00000000000E+00  0.11815413840E+04  0.11815413840E+04  0.00000000000E+00 0.  1.
         -1   -1    0    0    0  501 -0.00000000000E+00 -0.00000000000E+00 -0.15956378146E+02  0.15956378146E+02  0.00000000000E+00 0.  1.
         36    2    1    2    0    0  0.71054273576E-14 -0.35527136788E-14  0.11655850059E+04  0.11974977622E+04  0.27461333631E+03 0.  0.
         25    2    3    3    0    0  0.32542099623E+02  0.31241811729E+02  0.47150724564E+03  0.48977304237E+03  0.12459338385E+03 0.  0.
         25    2    3    3    0    0 -0.32542099623E+02 -0.31241811729E+02  0.69407776026E+03  0.70772471982E+03  0.13074900652E+03 0.  0.
          5    1    4    4  502    0  0.78679247224E+02  0.17720892244E+02  0.34560385577E+03  0.35492051095E+03  0.47000000000E+01 0.  1.
         -5    1    4    4    0  502 -0.46137147601E+02  0.13520919485E+02  0.12590338986E+03  0.13485253143E+03  0.47000000000E+01 0.  1.
          5    1    5    5  503    0 -0.47779856690E+02  0.21623508939E+02  0.56345927601E+03  0.56591424842E+03  0.47000000000E+01 0.  1.
         -5    1    5    5    0  503  0.15237757067E+02 -0.52865320669E+02  0.13061848425E+03  0.14181047139E+03  0.47000000000E+01 0.  1.
<mgrwt>
<rscale>  0 0.27461334E+03</rscale>
<asrwt>0</asrwt>
<pdfrwt beam="1">  1        1 0.18177553E+00 0.27461334E+03</pdfrwt>
<pdfrwt beam="2">  1       -1 0.24548283E-02 0.27461334E+03</pdfrwt>
<totfact> 0.59838110E+03</totfact>
</mgrwt>
</event>
<event>
 9    1  0.2054950E-002  0.2737073E+03  0.7818608E-02  0.1099176E+00
          2   -1    0    0  501    0  0.00000000000E+00  0.00000000000E+00  0.18348194248E+03  0.18348194248E+03  0.00000000000E+00 0.  1.
         -2   -1    0    0    0  501 -0.00000000000E+00 -0.00000000000E+00 -0.10207502700E+03  0.10207502700E+03  0.00000000000E+00 0.  1.
         36    2    1    2    0    0  0.00000000000E+00  0.00000000000E+00  0.81406915485E+02  0.28555696948E+03  0.27370731984E+03 0.  0.
         25    2    3    3    0    0  0.44001454635E+02  0.22739843513E+02  0.23310057295E+02  0.14000149034E+03  0.12885584982E+03 0.  0.
         25    2    3    3    0    0 -0.44001454635E+02 -0.22739843513E+02  0.58096858190E+02  0.14555547915E+03  0.12392709181E+03 0.  0.
          5    1    4    4  502    0  0.64022551416E+02 -0.27532242640E+02  0.43233264920E+02  0.82146921247E+02  0.47000000000E+01 0. -1.
         -5    1    4    4    0  502 -0.20021096781E+02  0.50272086153E+02 -0.19923207625E+02  0.57854569090E+02  0.47000000000E+01 0. -1.
          5    1    5    5  503    0 -0.66459649498E+02  0.29087789495E+02  0.50158028307E+02  0.88322716855E+02  0.47000000000E+01 0. -1.
         -5    1    5    5    0  503  0.22458194863E+02 -0.51827633009E+02  0.79388298829E+01  0.57232762293E+02  0.47000000000E+01 0. -1.
<mgrwt>
<rscale>  0 0.27370732E+03</rscale>
<asrwt>0</asrwt>
<pdfrwt beam="1">  1        2 0.28227991E-01 0.27370732E+03</pdfrwt>
<pdfrwt beam="2">  1       -2 0.15703850E-01 0.27370732E+03</pdfrwt>
<totfact> 0.59047130E+03</totfact>
</mgrwt>
</event>
<event>
 9    1  0.2054950E-002  0.2759212E+03  0.7818608E-02  0.1097938E+00
          1   -1    0    0  501    0  0.00000000000E+00  0.00000000000E+00  0.15917074431E+03  0.15917074431E+03  0.00000000000E+00 0.  1.
         -1   -1    0    0    0  501 -0.00000000000E+00 -0.00000000000E+00 -0.11957678101E+03  0.11957678101E+03  0.00000000000E+00 0.  1.
         36    2    1    2    0    0 -0.10658141036E-13 -0.14210854715E-13  0.39593963306E+02  0.27874752532E+03  0.27592118610E+03 0.  0.
         25    2    3    3    0    0  0.22343121410E+02  0.46697673342E+02  0.23771343865E+02  0.13941865948E+03  0.12725013969E+03 0.  0.
         25    2    3    3    0    0 -0.22343121410E+02 -0.46697673342E+02  0.15822619441E+02  0.13932886584E+03  0.12838337042E+03 0.  0.
          5    1    4    4  502    0 -0.22392209658E+02  0.75650081952E+02 -0.40198376365E+01  0.79136559486E+02  0.47000000000E+01 0.  1.
         -5    1    4    4    0  502  0.44735331068E+02 -0.28952408609E+02  0.27791181501E+02  0.60282099991E+02  0.47000000000E+01 0.  1.
          5    1    5    5  503    0  0.51407599224E+02 -0.31772038820E+02 -0.58110732305E+01  0.60893860781E+02  0.47000000000E+01 0. -1.
         -5    1    5    5    0  503 -0.73750720635E+02 -0.14925634523E+02  0.21633692672E+02  0.78435005059E+02  0.47000000000E+01 0. -1.
<mgrwt>
<rscale>  0 0.27592119E+03</rscale>
<asrwt>0</asrwt>
<pdfrwt beam="1">  1        1 0.24487807E-01 0.27592119E+03</pdfrwt>
<pdfrwt beam="2">  1       -1 0.18396428E-01 0.27592119E+03</pdfrwt>
<totfact> 0.45132186E+03</totfact>
</mgrwt>
</event>
<event>
 9    1  0.2054950E-002  0.2753398E+03  0.7818608E-02  0.1098262E+00
          1   -1    0    0  501    0  0.00000000000E+00  0.00000000000E+00  0.12487318946E+04  0.12487318946E+04  0.00000000000E+00 0.  1.
         -1   -1    0    0    0  501 -0.00000000000E+00 -0.00000000000E+00 -0.15177794625E+02  0.15177794625E+02  0.00000000000E+00 0.  1.
         36    2    1    2    0    0  0.00000000000E+00  0.00000000000E+00  0.12335541000E+04  0.12639096892E+04  0.27533976275E+03 0.  0.
         25    2    3    3    0    0  0.82241781581E+01 -0.13742314040E+02  0.87921177949E+03  0.88801527756E+03  0.12369838991E+03 0.  0.
         25    2    3    3    0    0 -0.82241781581E+01  0.13742314040E+02  0.35434232048E+03  0.37589441167E+03  0.12442523996E+03 0.  0.
          5    1    4    4  502    0  0.48646522754E+02 -0.24847789843E+02  0.75191778574E+03  0.75391401588E+03  0.47000000000E+01 0.  1.
         -5    1    4    4    0  502 -0.40422344596E+02  0.11105475803E+02  0.12729399376E+03  0.13410126167E+03  0.47000000000E+01 0.  1.
          5    1    5    5  503    0 -0.43519117105E+02 -0.39667102129E+02  0.20500132109E+03  0.21334250443E+03  0.47000000000E+01 0. -1.
         -5    1    5    5    0  503  0.35294938947E+02  0.53409416169E+02  0.14934099939E+03  0.16255190725E+03  0.47000000000E+01 0. -1.
<mgrwt>
<rscale>  0 0.27533976E+03</rscale>
<asrwt>0</asrwt>
<pdfrwt beam="1">  1        1 0.19211252E+00 0.27533976E+03</pdfrwt>
<pdfrwt beam="2">  1       -1 0.23350463E-02 0.27533976E+03</pdfrwt>
<totfact> 0.57815475E+03</totfact>
</mgrwt>
</event>
<event>
 9    1  0.2054950E-002  0.2742732E+03  0.7818608E-02  0.1098859E+00
          1   -1    0    0  501    0  0.00000000000E+00  0.00000000000E+00  0.14575880818E+04  0.14575880818E+04  0.00000000000E+00 0.  1.
         -1   -1    0    0    0  501 -0.00000000000E+00 -0.00000000000E+00 -0.12902440096E+02  0.12902440096E+02  0.00000000000E+00 0.  1.
         36    2    1    2    0    0  0.35527136788E-14 -0.71054273576E-14  0.14446856417E+04  0.14704905219E+04  0.27427316975E+03 0.  0.
         25    2    3    3    0    0 -0.13363807133E+02 -0.26356586208E+02  0.51195754629E+03  0.52820337638E+03  0.12658995471E+03 0.  0.
         25    2    3    3    0    0  0.13363807133E+02  0.26356586208E+02  0.93272809543E+03  0.94228714554E+03  0.13057604552E+03 0.  0.
          5    1    4    4  502    0 -0.29963015102E+02 -0.47066096257E+02  0.94251710153E+02  0.10962880350E+03  0.47000000000E+01 0.  1.
         -5    1    4    4    0  502  0.16599207969E+02  0.20709510048E+02  0.41770583614E+03  0.41857457287E+03  0.47000000000E+01 0.  1.
          5    1    5    5  503    0 -0.53865747875E+02 -0.12498184613E+02  0.43260866943E+03  0.43615372781E+03  0.47000000000E+01 0.  1.
         -5    1    5    5    0  503  0.67229555008E+02  0.38854770822E+02  0.50011942599E+03  0.50613341773E+03  0.47000000000E+01 0.  1.
<mgrwt>
<rscale>  0 0.27427317E+03</rscale>
<asrwt>0</asrwt>
<pdfrwt beam="1">  1        1 0.22424419E+00 0.27427317E+03</pdfrwt>
<pdfrwt beam="2">  1       -1 0.19849919E-02 0.27427317E+03</pdfrwt>
<totfact> 0.52943534E+03</totfact>
</mgrwt>
</event>
<event>
 9    1  0.2054950E-002  0.2748985E+03  0.7818608E-02  0.1098508E+00
          1   -1    0    0  501    0  0.00000000000E+00  0.00000000000E+00  0.12373679329E+03  0.12373679329E+03  0.00000000000E+00 0.  1.
         -1   -1    0    0    0  501 -0.00000000000E+00 -0.00000000000E+00 -0.15268135858E+03  0.15268135858E+03  0.00000000000E+00 0.  1.
         36    2    1    2    0    0 -0.71054273576E-14  0.00000000000E+00 -0.28944565283E+02  0.27641815187E+03  0.27489853914E+03 0.  0.
         25    2    3    3    0    0  0.61418560273E+02 -0.86760292068E+01 -0.27969291776E+02  0.13926861649E+03  0.12151523866E+03 0.  0.
         25    2    3    3    0    0 -0.61418560273E+02  0.86760292068E+01 -0.97527350713E+00  0.13714953538E+03  0.12231733674E+03 0.  0.
          5    1    4    4  502    0  0.46186880600E+02  0.53266580277E+02 -0.33651997509E+01  0.70738752345E+02  0.47000000000E+01 0. -1.
         -5    1    4    4    0  502  0.15231679674E+02 -0.61942609484E+02 -0.24604092025E+02  0.68529864145E+02  0.47000000000E+01 0. -1.
          5    1    5    5  503    0  0.25188472702E+02 -0.32118150561E+02  0.31868117908E+01  0.41210199246E+02  0.47000000000E+01 0. -1.
         -5    1    5    5    0  503 -0.86607032975E+02  0.40794179768E+02 -0.41620852980E+01  0.95939336133E+02  0.47000000000E+01 0. -1.
<mgrwt>
<rscale>  0 0.27489854E+03</rscale>
<asrwt>0</asrwt>
<pdfrwt beam="1">  1        1 0.19036430E-01 0.27489854E+03</pdfrwt>
<pdfrwt beam="2">  1       -1 0.23489440E-01 0.27489854E+03</pdfrwt>
<totfact> 0.41833343E+03</totfact>
</mgrwt>
</event>
<event>
 9    1  0.2054950E-002  0.2753216E+03  0.7818608E-02  0.1098272E+00
          2   -1    0    0  501    0  0.00000000000E+00  0.00000000000E+00  0.11675110763E+04  0.11675110763E+04  0.00000000000E+00 0. -1.
         -2   -1    0    0    0  501 -0.00000000000E+00 -0.00000000000E+00 -0.16231537076E+02  0.16231537076E+02  0.00000000000E+00 0. -1.
         36    2    1    2    0    0 -0.71054273576E-14 -0.35527136788E-14  0.11512795392E+04  0.11837426134E+04  0.27532162517E+03 0.  0.
         25    2    3    3    0    0  0.36666831956E+02 -0.22216993667E+02  0.75140019548E+03  0.76355100353E+03  0.12872385116E+03 0.  0.
         25    2    3    3    0    0 -0.36666831956E+02  0.22216993667E+02  0.39987934372E+03  0.42019160982E+03  0.12173515538E+03 0.  0.
          5    1    4    4  502    0  0.66022217018E+02 -0.54716021293E+02  0.38198930932E+03  0.39152356067E+03  0.47000000000E+01 0.  1.
         -5    1    4    4    0  502 -0.29355385062E+02  0.32499027627E+02  0.36941088616E+03  0.37202744287E+03  0.47000000000E+01 0.  1.
          5    1    5    5  503    0 -0.67351008175E+02 -0.20441857170E+02  0.16476326721E+03  0.17922904912E+03  0.47000000000E+01 0. -1.
         -5    1    5    5    0  503  0.30684176218E+02  0.42658850837E+02  0.23511607651E+03  0.24096256070E+03  0.47000000000E+01 0. -1.
<mgrwt>
<rscale>  0 0.27532163E+03</rscale>
<asrwt>0</asrwt>
<pdfrwt beam="1">  1        2 0.17961702E+00 0.27532163E+03</pdfrwt>
<pdfrwt beam="2">  1       -2 0.24971605E-02 0.27532163E+03</pdfrwt>
<totfact> 0.11595067E+04</totfact>
</mgrwt>
</event>
<event>
 9    1  0.2054950E-002  0.2679689E+03  0.7818608E-02  0.1102448E+00
          2   -1    0    0  501    0  0.00000000000E+00  0.00000000000E+00  0.10269445716E+03  0.10269445716E+03  0.00000000000E+00 0. -1.
         -2   -1    0    0    0  501 -0.00000000000E+00 -0.00000000000E+00 -0.17480814135E+03  0.17480814135E+03  0.00000000000E+00 0. -1.
         36    2    1    2    0    0 -0.35527136788E-14  0.00000000000E+00 -0.72113684182E+02  0.27750259851E+03  0.26796885777E+03 0.  0.
         25    2    3    3    0    0  0.17971524841E+01  0.44857612994E+02 -0.24461349678E+02  0.13510413550E+03  0.12505732526E+03 0.  0.
         25    2    3    3    0    0 -0.17971524841E+01 -0.44857612994E+02 -0.47652334503E+02  0.14239846301E+03  0.12645608757E+03 0.  0.
          5    1    4    4  502    0 -0.29601279778E+02  0.75468978504E+02 -0.37027693830E+02  0.89246527055E+02  0.47000000000E+01 0. -1.
         -5    1    4    4    0  502  0.31398432262E+02 -0.30611365510E+02  0.12566344152E+02  0.45857608445E+02  0.47000000000E+01 0. -1.
          5    1    5    5  503    0 -0.31508691196E+02  0.28532375401E+02  0.10514575424E+02  0.44040213025E+02  0.47000000000E+01 0.  1.
         -5    1    5    5    0  503  0.29711538712E+02 -0.73389988396E+02 -0.58166909928E+02  0.98358249984E+02  0.47000000000E+01 0.  1.
<mgrwt>
<rscale>  0 0.26796886E+03</rscale>
<asrwt>0</asrwt>
<pdfrwt beam="1">  1        2 0.15799147E-01 0.26796886E+03</pdfrwt>
<pdfrwt beam="2">  1       -2 0.26893560E-01 0.26796886E+03</pdfrwt>
<totfact> 0.45342745E+03</totfact>
</mgrwt>
</event>
<event>
 9    1  0.2054950E-002  0.2761648E+03  0.7818608E-02  0.1097802E+00
         -2   -1    0    0    0  501 -0.00000000000E+00  0.00000000000E+00  0.13360149685E+02  0.13360149685E+02  0.00000000000E+00 0. -1.
          2   -1    0    0  501    0  0.00000000000E+00 -0.00000000000E+00 -0.14271356958E+04  0.14271356958E+04  0.00000000000E+00 0. -1.
         36    2    1    2    0    0  0.35527136788E-14  0.00000000000E+00 -0.14137755462E+04  0.14404958455E+04  0.27616478064E+03 0.  0.
         25    2    3    3    0    0 -0.12276694147E+02  0.47036827544E+02 -0.53262629205E+03  0.54933821188E+03  0.12537353661E+03 0.  0.
         25    2    3    3    0    0  0.12276694147E+02 -0.47036827544E+02 -0.88114925411E+03  0.89115763365E+03  0.12399491776E+03 0.  0.
          5    1    4    4  502    0  0.26134859439E+02  0.79242897596E+02 -0.35585664398E+03  0.36553865563E+03  0.47000000000E+01 0.  1.
         -5    1    4    4    0  502 -0.38411553586E+02 -0.32206070052E+02 -0.17676964807E+03  0.18379955624E+03  0.47000000000E+01 0.  1.
          5    1    5    5  503    0 -0.54858553571E+02 -0.14653719495E+02 -0.31608152923E+03  0.32117567703E+03  0.47000000000E+01 0.  1.
         -5    1    5    5    0  503  0.67135247718E+02 -0.32383108049E+02 -0.56506772487E+03  0.56998195661E+03  0.47000000000E+01 0.  1.
<mgrwt>
<rscale>  0 0.27616478E+03</rscale>
<asrwt>0</asrwt>
<pdfrwt beam="1">  1        2 0.21955942E+00 0.27616478E+03</pdfrwt>
<pdfrwt beam="2">  1       -2 0.20554069E-02 0.27616478E+03</pdfrwt>
<totfact> 0.11090490E+04</totfact>
</mgrwt>
</event>
<event>
 9    1  0.2054950E-002  0.2747879E+03  0.7818608E-02  0.1098570E+00
         -2   -1    0    0    0  501 -0.00000000000E+00  0.00000000000E+00  0.55071995854E+03  0.55071995854E+03  0.00000000000E+00 0. -1.
          2   -1    0    0  501    0  0.00000000000E+00 -0.00000000000E+00 -0.34277128792E+02  0.34277128792E+02  0.00000000000E+00 0. -1.
         36    2    1    2    0    0  0.00000000000E+00 -0.35527136788E-14  0.51644282975E+03  0.58499708733E+03  0.27478791056E+03 0.  0.
         25    2    3    3    0    0  0.32973414013E+02  0.10474937584E+02  0.37276862395E+03  0.39226247791E+03  0.11711718160E+03 0.  0.
         25    2    3    3    0    0 -0.32973414013E+02 -0.10474937584E+02  0.14367420579E+03  0.19273460942E+03  0.12372300477E+03 0.  0.
          5    1    4    4  502    0 -0.55080754849E+00  0.36402295689E+02  0.32941328355E+03  0.33145230713E+03  0.47000000000E+01 0.  1.
         -5    1    4    4    0  502  0.33524221561E+02 -0.25927358105E+02  0.43355340401E+02  0.60810170785E+02  0.47000000000E+01 0.  1.
          5    1    5    5  503    0 -0.24926804075E+02  0.34199044853E+02  0.62672464706E+00  0.42584069956E+02  0.47000000000E+01 0. -1.
         -5    1    5    5    0  503 -0.80466099375E+01 -0.44673982437E+02  0.14304748115E+03  0.15015053946E+03  0.47000000000E+01 0. -1.
<mgrwt>
<rscale>  0 0.27478791E+03</rscale>
<asrwt>0</asrwt>
<pdfrwt beam="1">  1        2 0.52734048E-02 0.27478791E+03</pdfrwt>
<pdfrwt beam="2">  1       -2 0.84726141E-01 0.27478791E+03</pdfrwt>
<totfact> 0.18325723E+03</totfact>
</mgrwt>
</event>
<event>
 9    1  0.2054950E-002  0.2754560E+03  0.7818608E-02  0.1098197E+00
          2   -1    0    0  501    0  0.00000000000E+00  0.00000000000E+00  0.25446725864E+03  0.25446725864E+03  0.00000000000E+00 0.  1.
         -2   -1    0    0    0  501 -0.00000000000E+00 -0.00000000000E+00 -0.74543993143E+02  0.74543993143E+02  0.00000000000E+00 0.  1.
         36    2    1    2    0    0  0.71054273576E-14  0.00000000000E+00  0.17992326550E+03  0.32901125179E+03  0.27545602613E+03 0.  0.
         25    2    3    3    0    0  0.36098946217E+02  0.84441540860E+01  0.42593289004E+02  0.13873334381E+03  0.12672140608E+03 0.  0.
         25    2    3    3    0    0 -0.36098946217E+02 -0.84441540860E+01  0.13732997650E+03  0.19027790798E+03  0.12637927902E+03 0.  0.
          5    1    4    4  502    0  0.24876886907E+02 -0.42046886389E+02 -0.23712513032E+02  0.54508471191E+02  0.47000000000E+01 0.  1.
         -5    1    4    4    0  502  0.11222059310E+02  0.50491040475E+02  0.66305802037E+02  0.84224872616E+02  0.47000000000E+01 0.  1.
          5    1    5    5  503    0  0.35663795551E+02  0.11443741605E+02  0.99912844867E+02  0.10680604901E+03  0.47000000000E+01 0.  1.
         -5    1    5    5    0  503 -0.71762741768E+02 -0.19887895691E+02  0.37417131628E+02  0.83471858973E+02  0.47000000000E+01 0.  1.
<mgrwt>
<rscale>  0 0.27545603E+03</rscale>
<asrwt>0</asrwt>
<pdfrwt beam="1">  1        2 0.39148809E-01 0.27545603E+03</pdfrwt>
<pdfrwt beam="2">  1       -2 0.11468307E-01 0.27545603E+03</pdfrwt>
<totfact> 0.69090696E+03</totfact>
</mgrwt>
</event>
<event>
 9    1  0.2054950E-002  0.2753248E+03  0.7818608E-02  0.1098270E+00
          2   -1    0    0  501    0  0.00000000000E+00  0.00000000000E+00  0.36491106232E+03  0.36491106232E+03  0.00000000000E+00 0.  1.
         -2   -1    0    0    0  501 -0.00000000000E+00 -0.00000000000E+00 -0.51933013784E+02  0.51933013784E+02  0.00000000000E+00 0.  1.
         36    2    1    2    0    0  0.10658141036E-13  0.00000000000E+00  0.31297804853E+03  0.41684407610E+03  0.27532476263E+03 0.  0.
         25    2    3    3    0    0  0.22640941095E+02  0.11224091809E+02  0.96440600492E+02  0.16429180409E+03  0.13058489582E+03 0.  0.
         25    2    3    3    0    0 -0.22640941095E+02 -0.11224091809E+02  0.21653744804E+03  0.25255227201E+03  0.12749741662E+03 0.  0.
          5    1    4    4  502    0  0.98725975141E+01 -0.39351295423E+02 -0.13085902294E+02  0.42887334633E+02  0.47000000000E+01 0. -1.
         -5    1    4    4    0  502  0.12768343581E+02  0.50575387231E+02  0.10952650279E+03  0.12140446946E+03  0.47000000000E+01 0. -1.
          5    1    5    5  503    0  0.43046728111E+02 -0.36174138408E+02  0.12427343983E+03  0.13648284485E+03  0.47000000000E+01 0.  1.
         -5    1    5    5    0  503 -0.65687669206E+02  0.24950046600E+02  0.92264008206E+02  0.11606942716E+03  0.47000000000E+01 0.  1.
<mgrwt>
<rscale>  0 0.27532476E+03</rscale>
<asrwt>0</asrwt>
<pdfrwt beam="1">  1        2 0.56140162E-01 0.27532476E+03</pdfrwt>
<pdfrwt beam="2">  1       -2 0.79896946E-02 0.27532476E+03</pdfrwt>
<totfact> 0.83073669E+03</totfact>
</mgrwt>
</event>
<event>
 9    1  0.2054950E-002  0.2765884E+03  0.7818608E-02  0.1097567E+00
          1   -1    0    0  501    0  0.00000000000E+00  0.00000000000E+00  0.20573295866E+04  0.20573295866E+04  0.00000000000E+00 0. -1.
         -1   -1    0    0    0  501 -0.00000000000E+00 -0.00000000000E+00 -0.92961704494E+01  0.92961704494E+01  0.00000000000E+00 0. -1.
         36    2    1    2    0    0  0.71054273576E-14  0.71054273576E-14  0.20480334162E+04  0.20666257571E+04  0.27658840545E+03 0.  0.
         25    2    3    3    0    0  0.48666573288E+02 -0.38664822551E+02  0.11217723939E+04  0.11309024679E+04  0.12924273404E+03 0.  0.
         25    2    3    3    0    0 -0.48666573288E+02  0.38664822551E+02  0.92626102226E+03  0.93572328917E+03  0.11728251651E+03 0.  0.
          5    1    4    4  502    0  0.68561517284E+01 -0.42105923474E+02  0.10175590478E+04  0.10184637556E+04  0.47000000000E+01 0. -1.
         -5    1    4    4    0  502  0.41810421559E+02  0.34411009228E+01  0.10421334607E+03  0.11243871231E+03  0.47000000000E+01 0. -1.
          5    1    5    5  503    0  0.23062211738E+02 -0.73671090319E+01  0.54823532196E+02  0.60115302446E+02  0.47000000000E+01 0.  1.
         -5    1    5    5    0  503 -0.71728785026E+02  0.46031931583E+02  0.87143749007E+03  0.87560798673E+03  0.47000000000E+01 0.  1.
<mgrwt>
<rscale>  0 0.27658841E+03</rscale>
<asrwt>0</asrwt>
<pdfrwt beam="1">  1        1 0.31651188E+00 0.27658841E+03</pdfrwt>
<pdfrwt beam="2">  1       -1 0.14301817E-02 0.27658841E+03</pdfrwt>
<totfact> 0.34640209E+03</totfact>
</mgrwt>
</event>
<event>
 9    1  0.2054950E-002  0.2750974E+03  0.7818608E-02  0.1098397E+00
          2   -1    0    0  501    0  0.00000000000E+00  0.00000000000E+00  0.17268712076E+04  0.17268712076E+04  0.00000000000E+00 0. -1.
         -2   -1    0    0    0  501 -0.00000000000E+00 -0.00000000000E+00 -0.10956029326E+02  0.10956029326E+02  0.00000000000E+00 0. -1.
         36    2    1    2    0    0  0.00000000000E+00 -0.71054273576E-14  0.17159151782E+04  0.17378272369E+04  0.27509744886E+03 0.  0.
         25    2    3    3    0    0 -0.22676265336E+02 -0.35200271865E+02  0.77659107624E+03  0.78974840661E+03  0.13731559967E+03 0.  0.
         25    2    3    3    0    0  0.22676265336E+02  0.35200271865E+02  0.93932410200E+03  0.94807883027E+03  0.12153364828E+03 0.  0.
          5    1    4    4  502    0 -0.75013317246E+02 -0.20732529198E+02  0.59698225697E+03  0.60205210793E+03  0.47000000000E+01 0.  1.
         -5    1    4    4    0  502  0.52337051910E+02 -0.14467742667E+02  0.17960881926E+03  0.18769629868E+03  0.47000000000E+01 0.  1.
          5    1    5    5  503    0  0.58785313647E+02  0.42373428123E+02  0.81770101170E+03  0.82091915257E+03  0.47000000000E+01 0. -1.
         -5    1    5    5    0  503 -0.36109048311E+02 -0.71731562586E+01  0.12162309029E+03  0.12715967770E+03  0.47000000000E+01 0. -1.
<mgrwt>
<rscale>  0 0.27509745E+03</rscale>
<asrwt>0</asrwt>
<pdfrwt beam="1">  1        2 0.26567228E+00 0.27509745E+03</pdfrwt>
<pdfrwt beam="2">  1       -2 0.16855443E-02 0.27509745E+03</pdfrwt>
<totfact> 0.10282029E+04</totfact>
</mgrwt>
</event>
<event>
 9    1  0.2054950E-002  0.2754882E+03  0.7818608E-02  0.1098179E+00
          1   -1    0    0  501    0  0.00000000000E+00  0.00000000000E+00  0.14844601194E+03  0.14844601194E+03  0.00000000000E+00 0. -1.
         -1   -1    0    0    0  501 -0.00000000000E+00 -0.00000000000E+00 -0.12781376574E+03  0.12781376574E+03  0.00000000000E+00 0. -1.
         36    2    1    2    0    0  0.00000000000E+00 -0.71054273576E-14  0.20632246201E+02  0.27625977768E+03  0.27548824871E+03 0.  0.
         25    2    3    3    0    0  0.45325014686E+02 -0.22522042588E+02 -0.39541418950E+01  0.13634987827E+03  0.12654665032E+03 0.  0.
         25    2    3    3    0    0 -0.45325014686E+02  0.22522042588E+02  0.24586388096E+02  0.13990989941E+03  0.12809640945E+03 0.  0.
          5    1    4    4  502    0  0.14618877279E+02  0.36058898816E+02 -0.43971393156E+02  0.58902709384E+02  0.47000000000E+01 0.  1.
         -5    1    4    4    0  502  0.30706137408E+02 -0.58580941404E+02  0.40017251261E+02  0.77447168888E+02  0.47000000000E+01 0.  1.
          5    1    5    5  503    0  0.38348018812E+01 -0.34422288489E+02  0.49435814123E+02  0.60544110929E+02  0.47000000000E+01 0.  1.
         -5    1    5    5    0  503 -0.49159816568E+02  0.56944331077E+02 -0.24849426026E+02  0.79365788477E+02  0.47000000000E+01 0.  1.
<mgrwt>
<rscale>  0 0.27548825E+03</rscale>
<asrwt>0</asrwt>
<pdfrwt beam="1">  1        1 0.22837848E-01 0.27548825E+03</pdfrwt>
<pdfrwt beam="2">  1       -1 0.19663656E-01 0.27548825E+03</pdfrwt>
<totfact> 0.44291379E+03</totfact>
</mgrwt>
</event>
<event>
 9    1  0.2054950E-002  0.2750593E+03  0.7818608E-02  0.1098418E+00
          2   -1    0    0  501    0  0.00000000000E+00  0.00000000000E+00  0.19956073485E+04  0.19956073485E+04  0.00000000000E+00 0. -1.
         -2   -1    0    0    0  501 -0.00000000000E+00 -0.00000000000E+00 -0.94780210582E+01  0.94780210582E+01  0.00000000000E+00 0. -1.
         36    2    1    2    0    0  0.00000000000E+00  0.00000000000E+00  0.19861293275E+04  0.20050853696E+04  0.27505932795E+03 0.  0.
         25    2    3    3    0    0 -0.54411979204E+02  0.11293567800E+01  0.12941477229E+04  0.13012565164E+04  0.12445181304E+03 0.  0.
         25    2    3    3    0    0  0.54411979204E+02 -0.11293567800E+01  0.69198160456E+03  0.70382885321E+03  0.11650997655E+03 0.  0.
          5    1    4    4  502    0 -0.41923825550E+01  0.49934413111E+02  0.86006150665E+03  0.86153288208E+03  0.47000000000E+01 0.  1.
         -5    1    4    4    0  502 -0.50219596649E+02 -0.48805056331E+02  0.43408621626E+03  0.43972363430E+03  0.47000000000E+01 0.  1.
          5    1    5    5  503    0 -0.36002067007E+02  0.91081988229E+01  0.21041436412E+03  0.21371804496E+03  0.47000000000E+01 0. -1.
         -5    1    5    5    0  503  0.90414046211E+02 -0.10237555603E+02  0.48156724043E+03  0.49011080824E+03  0.47000000000E+01 0. -1.
<mgrwt>
<rscale>  0 0.27505933E+03</rscale>
<asrwt>0</asrwt>
<pdfrwt beam="1">  1        2 0.30701618E+00 0.27505933E+03</pdfrwt>
<pdfrwt beam="2">  1       -2 0.14581587E-02 0.27505933E+03</pdfrwt>
<totfact> 0.91847500E+03</totfact>
</mgrwt>
</event>
<event>
 9    1  0.2054950E-002  0.2748172E+03  0.7818608E-02  0.1098554E+00
          1   -1    0    0  501    0  0.00000000000E+00  0.00000000000E+00  0.15471234744E+04  0.15471234744E+04  0.00000000000E+00 0.  1.
         -1   -1    0    0    0  501 -0.00000000000E+00 -0.00000000000E+00 -0.12204017760E+02  0.12204017760E+02  0.00000000000E+00 0.  1.
         36    2    1    2    0    0  0.71054273576E-14  0.00000000000E+00  0.15349194566E+04  0.15593274922E+04  0.27481719276E+03 0.  0.
         25    2    3    3    0    0 -0.34099052547E+02 -0.20744015390E+02  0.91148041109E+03  0.91971046928E+03  0.11609370330E+03 0.  0.
         25    2    3    3    0    0  0.34099052547E+02  0.20744015390E+02  0.62343904555E+03  0.63961702288E+03  0.13726118490E+03 0.  0.
          5    1    4    4  502    0 -0.18143678822E+02  0.37543801465E+02  0.64758853027E+03  0.64894662697E+03  0.47000000000E+01 0.  1.
         -5    1    4    4    0  502 -0.15955373725E+02 -0.58287816854E+02  0.26389188082E+03  0.27076384232E+03  0.47000000000E+01 0.  1.
          5    1    5    5  503    0 -0.50401033999E+02 -0.76500487616E+01  0.28736821992E+03  0.29189273937E+03  0.47000000000E+01 0. -1.
         -5    1    5    5    0  503  0.84500086545E+02  0.28394064151E+02  0.33607082562E+03  0.34772428351E+03  0.47000000000E+01 0. -1.
<mgrwt>
<rscale>  0 0.27481719E+03</rscale>
<asrwt>0</asrwt>
<pdfrwt beam="1">  1        1 0.23801884E+00 0.27481719E+03</pdfrwt>
<pdfrwt beam="2">  1       -1 0.18775424E-02 0.27481719E+03</pdfrwt>
<totfact> 0.50094502E+03</totfact>
</mgrwt>
</event>
<event>
 9    1  0.2054950E-002  0.2736359E+03  0.7818608E-02  0.1099217E+00
         -2   -1    0    0    0  501 -0.00000000000E+00  0.00000000000E+00  0.16011172894E+04  0.16011172894E+04  0.00000000000E+00 0.  1.
          2   -1    0    0  501    0  0.00000000000E+00 -0.00000000000E+00 -0.11691307405E+02  0.11691307405E+02  0.00000000000E+00 0.  1.
         36    2    1    2    0    0  0.71054273576E-14 -0.17763568394E-14  0.15894259819E+04  0.16128085968E+04  0.27363592178E+03 0.  0.
         25    2    3    3    0    0  0.25099184156E+02 -0.11467039048E+02  0.10178933923E+04  0.10261419516E+04  0.12688138030E+03 0.  0.
         25    2    3    3    0    0 -0.25099184156E+02  0.11467039048E+02  0.57153258967E+03  0.58666664520E+03  0.12948663835E+03 0.  0.
          5    1    4    4  502    0 -0.11547245061E+02 -0.62873562181E+02  0.61105477525E+03  0.61440739908E+03  0.47000000000E+01 0. -1.
         -5    1    4    4    0  502  0.36646429217E+02  0.51406523133E+02  0.40683861703E+03  0.41173455247E+03  0.47000000000E+01 0. -1.
          5    1    5    5  503    0  0.50006133078E+02  0.18284434336E+02  0.17430426569E+03  0.18231566286E+03  0.47000000000E+01 0. -1.
         -5    1    5    5    0  503 -0.75105317234E+02 -0.68173952873E+01  0.39722832398E+03  0.40435098235E+03  0.47000000000E+01 0. -1.
<mgrwt>
<rscale>  0 0.27363592E+03</rscale>
<asrwt>0</asrwt>
<pdfrwt beam="1">  1        2 0.17986639E-02 0.27363592E+03</pdfrwt>
<pdfrwt beam="2">  1       -2 0.24632556E+00 0.27363592E+03</pdfrwt>
<totfact> 0.47842414E+02</totfact>
</mgrwt>
</event>
<event>
 9    1  0.2054950E-002  0.2753800E+03  0.7818608E-02  0.1098239E+00
         -2   -1    0    0    0  501 -0.00000000000E+00  0.00000000000E+00  0.18353058035E+03  0.18353058035E+03  0.00000000000E+00 0. -1.
          2   -1    0    0  501    0  0.00000000000E+00 -0.00000000000E+00 -0.10329909365E+03  0.10329909365E+03  0.00000000000E+00 0. -1.
         36    2    1    2    0    0  0.00000000000E+00 -0.71054273576E-14  0.80231486705E+02  0.28682967400E+03  0.27538004726E+03 0.  0.
         25    2    3    3    0    0  0.75902772923E+01 -0.35577520301E+02  0.76776906955E+02  0.15466276211E+03  0.12923816883E+03 0.  0.
         25    2    3    3    0    0 -0.75902772923E+01  0.35577520301E+02  0.34545797502E+01  0.13216691190E+03  0.12701490550E+03 0.  0.
          5    1    4    4  502    0  0.30076384369E+02 -0.78359899265E+02  0.36811199066E+02  0.91771548348E+02  0.47000000000E+01 0. -1.
         -5    1    4    4    0  502 -0.22486107076E+02  0.42782378964E+02  0.39965707888E+02  0.62891213761E+02  0.47000000000E+01 0. -1.
          5    1    5    5  503    0 -0.17991366298E+02 -0.40332535504E+02 -0.24195259993E+02  0.50575718359E+02  0.47000000000E+01 0. -1.
         -5    1    5    5    0  503  0.10401089005E+02  0.75910055805E+02  0.27649839743E+02  0.81591193536E+02  0.47000000000E+01 0. -1.
<mgrwt>
<rscale>  0 0.27538005E+03</rscale>
<asrwt>0</asrwt>
<pdfrwt beam="1">  1        2 0.15892168E-01 0.27538005E+03</pdfrwt>
<pdfrwt beam="2">  1       -2 0.28235474E-01 0.27538005E+03</pdfrwt>
<totfact> 0.41307691E+03</totfact>
</mgrwt>
</event>
<event>
 9    1  0.2054950E-002  0.2734758E+03  0.7818608E-02  0.1099307E+00
          2   -1    0    0  501    0  0.00000000000E+00  0.00000000000E+00  0.36900982218E+03  0.36900982218E+03  0.00000000000E+00 0. -1.
         -2   -1    0    0    0  501 -0.00000000000E+00 -0.00000000000E+00 -0.50668711587E+02  0.50668711587E+02  0.00000000000E+00 0. -1.
         36    2    1    2    0    0  0.00000000000E+00  0.00000000000E+00  0.31834111059E+03  0.41967853377E+03  0.27347579237E+03 0.  0.
         25    2    3    3    0    0  0.60432205460E+02 -0.10735295532E+01  0.13938448507E+03  0.19296747962E+03  0.11897566807E+03 0.  0.
         25    2    3    3    0    0 -0.60432205460E+02  0.10735295532E+01  0.17895662552E+03  0.22671105414E+03  0.12537633082E+03 0.  0.
          5    1    4    4  502    0  0.22967975407E+02 -0.50239546341E+02  0.11245683073E+03  0.12538009686E+03  0.47000000000E+01 0.  1.
         -5    1    4    4    0  502  0.37464230054E+02  0.49166016788E+02  0.26927654336E+02  0.67587382760E+02  0.47000000000E+01 0.  1.
          5    1    5    5  503    0 -0.19156263647E+02  0.60972718279E+02  0.10396485311E+03  0.12212868415E+03  0.47000000000E+01 0.  1.
         -5    1    5    5    0  503 -0.41275941813E+02 -0.59899188726E+02  0.74991772415E+02  0.10458236999E+03  0.47000000000E+01 0.  1.
<mgrwt>
<rscale>  0 0.27347579E+03</rscale>
<asrwt>0</asrwt>
<pdfrwt beam="1">  1        2 0.56770740E-01 0.27347579E+03</pdfrwt>
<pdfrwt beam="2">  1       -2 0.77951866E-02 0.27347579E+03</pdfrwt>
<totfact> 0.85272074E+03</totfact>
</mgrwt>
</event>
<event>
 9    1  0.2054950E-002  0.2738836E+03  0.7818608E-02  0.1099077E+00
         -1   -1    0    0    0  501 -0.00000000000E+00  0.00000000000E+00  0.25801021880E+02  0.25801021880E+02  0.00000000000E+00 0.  1.
          1   -1    0    0  501    0  0.00000000000E+00 -0.00000000000E+00 -0.72683381087E+03  0.72683381087E+03  0.00000000000E+00 0.  1.
         36    2    1    2    0    0 -0.14210854715E-13  0.00000000000E+00 -0.70103278899E+03  0.75263483275E+03  0.27388358883E+03 0.  0.
         25    2    3    3    0    0  0.35601049188E+02 -0.36959692040E+02 -0.41721992271E+03  0.43895477033E+03  0.12639372196E+03 0.  0.
         25    2    3    3    0    0 -0.35601049188E+02  0.36959692040E+02 -0.28381286628E+03  0.31368006242E+03  0.12333687589E+03 0.  0.
          5    1    4    4  502    0  0.52038453182E+02 -0.20544588426E+02 -0.64801743046E+02  0.85740519155E+02  0.47000000000E+01 0.  1.
         -5    1    4    4    0  502 -0.16437403994E+02 -0.16415103614E+02 -0.35241817966E+03  0.35321425117E+03  0.47000000000E+01 0.  1.
          5    1    5    5  503    0 -0.63203676123E+02  0.43146623643E+01 -0.65781401440E+02  0.91447273126E+02  0.47000000000E+01 0. -1.
         -5    1    5    5    0  503  0.27602626934E+02  0.32645029676E+02 -0.21803146484E+03  0.22223278929E+03  0.47000000000E+01 0. -1.
<mgrwt>
<rscale>  0 0.27388359E+03</rscale>
<asrwt>0</asrwt>
<pdfrwt beam="1">  1        1 0.11182060E+00 0.27388359E+03</pdfrwt>
<pdfrwt beam="2">  1       -1 0.39693875E-02 0.27388359E+03</pdfrwt>
<totfact> 0.66145776E+03</totfact>
</mgrwt>
</event>
<event>
 9    1  0.2054950E-002  0.2748651E+03  0.7818608E-02  0.1098527E+00
          1   -1    0    0  501    0  0.00000000000E+00  0.00000000000E+00  0.92201845534E+03  0.92201845534E+03  0.00000000000E+00 0. -1.
         -1   -1    0    0    0  501 -0.00000000000E+00 -0.00000000000E+00 -0.20485173190E+02  0.20485173190E+02  0.00000000000E+00 0. -1.
         36    2    1    2    0    0 -0.71054273576E-14 -0.17763568394E-14  0.90153328215E+03  0.94250362852E+03  0.27486511413E+03 0.  0.
         25    2    3    3    0    0 -0.41043807387E+02 -0.11847087756E+02  0.29682943218E+03  0.32334602962E+03  0.12091317320E+03 0.  0.
         25    2    3    3    0    0  0.41043807387E+02  0.11847087756E+02  0.60470384997E+03  0.61915759890E+03  0.12595411268E+03 0.  0.
          5    1    4    4  502    0  0.14368153280E+01 -0.17052683281E+02 -0.50185841082E+01  0.18442739271E+02  0.47000000000E+01 0. -1.
         -5    1    4    4    0  502 -0.42480622715E+02  0.52055955252E+01  0.30184801629E+03  0.30490329035E+03  0.47000000000E+01 0. -1.
          5    1    5    5  503    0  0.32773948014E+01 -0.52093448710E+02  0.16264349541E+03  0.17087851040E+03  0.47000000000E+01 0. -1.
         -5    1    5    5    0  503  0.37766412586E+02  0.63940536466E+02  0.44206035455E+03  0.44827908851E+03  0.47000000000E+01 0. -1.
<mgrwt>
<rscale>  0 0.27486511E+03</rscale>
<asrwt>0</asrwt>
<pdfrwt beam="1">  1        1 0.14184896E+00 0.27486511E+03</pdfrwt>
<pdfrwt beam="2">  1       -1 0.31515658E-02 0.27486511E+03</pdfrwt>
<totfact> 0.64274642E+03</totfact>
</mgrwt>
</event>
<event>
 9    1  0.2054950E-002  0.2854810E+03  0.7818608E-02  0.1092732E+00
          2   -1    0    0  501    0  0.00000000000E+00  0.00000000000E+00  0.10590706532E+04  0.10590706532E+04  0.00000000000E+00 0. -1.
         -2   -1    0    0    0  501 -0.00000000000E+00 -0.00000000000E+00 -0.19238418453E+02  0.19238418453E+02  0.00000000000E+00 0. -1.
         36    2    1    2    0    0 -0.17763568394E-14 -0.71054273576E-14  0.10398322348E+04  0.10783090717E+04  0.28548095837E+03 0.  0.
         25    2    3    3    0    0  0.12430962626E+02  0.43754630813E+02  0.73595080223E+03  0.74793432192E+03  0.12535218409E+03 0.  0.
         25    2    3    3    0    0 -0.12430962626E+02 -0.43754630813E+02  0.30388143255E+03  0.33037474976E+03  0.12138596988E+03 0.  0.
          5    1    4    4  502    0  0.58282645617E+02 -0.90768938289E+01  0.43004311909E+03  0.43409495626E+03  0.47000000000E+01 0.  1.
         -5    1    4    4    0  502 -0.45851682992E+02  0.52831524642E+02  0.30590768314E+03  0.31383936565E+03  0.47000000000E+01 0.  1.
          5    1    5    5  503    0 -0.25446691485E+02 -0.76926058906E+02  0.26621122163E+03  0.27830856467E+03  0.47000000000E+01 0.  1.
         -5    1    5    5    0  503  0.13015728859E+02  0.33171428093E+02  0.37670210915E+02  0.52066185091E+02  0.47000000000E+01 0.  1.
<mgrwt>
<rscale>  0 0.28548096E+03</rscale>
<asrwt>0</asrwt>
<pdfrwt beam="1">  1        2 0.16293390E+00 0.28548096E+03</pdfrwt>
<pdfrwt beam="2">  1       -2 0.29597575E-02 0.28548096E+03</pdfrwt>
<totfact> 0.10437890E+04</totfact>
</mgrwt>
</event>
<event>
 9    1  0.2054950E-002  0.2753932E+03  0.7818608E-02  0.1098232E+00
         -1   -1    0    0    0  501 -0.00000000000E+00  0.00000000000E+00  0.16138822554E+02  0.16138822554E+02  0.00000000000E+00 0.  1.
          1   -1    0    0  501    0  0.00000000000E+00 -0.00000000000E+00 -0.11748288803E+04  0.11748288803E+04  0.00000000000E+00 0.  1.
         36    2    1    2    0    0  0.00000000000E+00 -0.71054273576E-14 -0.11586900577E+04  0.11909677028E+04  0.27539320856E+03 0.  0.
         25    2    3    3    0    0 -0.49063865322E+01 -0.49779236629E+02 -0.43744258250E+03  0.45823804607E+03  0.12698050580E+03 0.  0.
         25    2    3    3    0    0  0.49063865322E+01  0.49779236629E+02 -0.72124747523E+03  0.73272965677E+03  0.11913347285E+03 0.  0.
          5    1    4    4  502    0 -0.49776877246E+01  0.14917401184E+02 -0.34453773703E+03  0.34492846863E+03  0.47000000000E+01 0.  1.
         -5    1    4    4    0  502  0.71301192357E-01 -0.64696637813E+02 -0.92904845475E+02  0.11330957745E+03  0.47000000000E+01 0.  1.
          5    1    5    5  503    0 -0.14406596426E+01  0.82161443176E+02 -0.63420155245E+03  0.63952034946E+03  0.47000000000E+01 0. -1.
         -5    1    5    5    0  503  0.63470461748E+01 -0.32382206547E+02 -0.87045922787E+02  0.93209307313E+02  0.47000000000E+01 0. -1.
<mgrwt>
<rscale>  0 0.27539321E+03</rscale>
<asrwt>0</asrwt>
<pdfrwt beam="1">  1        1 0.18074292E+00 0.27539321E+03</pdfrwt>
<pdfrwt beam="2">  1       -1 0.24828956E-02 0.27539321E+03</pdfrwt>
<totfact> 0.59493706E+03</totfact>
</mgrwt>
</event>
<event>
 9    1  0.2054950E-002  0.2741911E+03  0.7818608E-02  0.1098905E+00
          2   -1    0    0  501    0  0.00000000000E+00  0.00000000000E+00  0.29469862167E+03  0.29469862167E+03  0.00000000000E+00 0. -1.
         -2   -1    0    0    0  501 -0.00000000000E+00 -0.00000000000E+00 -0.63777666967E+02  0.63777666967E+02  0.00000000000E+00 0. -1.
         36    2    1    2    0    0  0.35527136788E-14  0.00000000000E+00  0.23092095470E+03  0.35847628864E+03  0.27419110524E+03 0.  0.
         25    2    3    3    0    0 -0.29779163912E+02  0.32354749807E+02  0.66275597539E+02  0.14590372088E+03  0.12231848797E+03 0.  0.
         25    2    3    3    0    0  0.29779163912E+02 -0.32354749807E+02  0.16464535716E+03  0.21257256775E+03  0.12706445013E+03 0.  0.
          5    1    4    4  502    0  0.33229746777E+02 -0.25175404756E+02  0.35890778553E+02  0.55211004887E+02  0.47000000000E+01 0.  1.
         -5    1    4    4    0  502 -0.63008910689E+02  0.57530154562E+02  0.30384818986E+02  0.90692715997E+02  0.47000000000E+01 0.  1.
          5    1    5    5  503    0  0.59008324439E+02 -0.52704375799E+02  0.15695953472E+03  0.17583548880E+03  0.47000000000E+01 0.  1.
         -5    1    5    5    0  503 -0.29229160527E+02  0.20349625993E+02  0.76858224373E+01  0.36737078949E+02  0.47000000000E+01 0.  1.
<mgrwt>
<rscale>  0 0.27419111E+03</rscale>
<asrwt>0</asrwt>
<pdfrwt beam="1">  1        2 0.45338249E-01 0.27419111E+03</pdfrwt>
<pdfrwt beam="2">  1       -2 0.98119489E-02 0.27419111E+03</pdfrwt>
<totfact> 0.75671232E+03</totfact>
</mgrwt>
</event>
<event>
 9    1  0.2054950E-002  0.2715725E+03  0.7818608E-02  0.1100383E+00
         -1   -1    0    0    0  501 -0.00000000000E+00  0.00000000000E+00  0.63212381721E+02  0.63212381721E+02  0.00000000000E+00 0.  1.
          1   -1    0    0  501    0  0.00000000000E+00 -0.00000000000E+00 -0.29168185545E+03  0.29168185545E+03  0.00000000000E+00 0.  1.
         36    2    1    2    0    0  0.71054273576E-14  0.00000000000E+00 -0.22846947373E+03  0.35489423718E+03  0.27157249337E+03 0.  0.
         25    2    3    3    0    0  0.45096250626E+02 -0.24142527005E+02 -0.12157687382E+03  0.18227837604E+03  0.12580912802E+03 0.  0.
         25    2    3    3    0    0 -0.45096250626E+02  0.24142527005E+02 -0.10689259992E+03  0.17261586114E+03  0.12551364136E+03 0.  0.
          5    1    4    4  502    0 -0.24152705235E+02 -0.49341329724E+02 -0.24564392265E+02  0.60360743504E+02  0.47000000000E+01 0.  1.
         -5    1    4    4    0  502  0.69248955861E+02  0.25198802719E+02 -0.97012481551E+02  0.12191763254E+03  0.47000000000E+01 0.  1.
          5    1    5    5  503    0 -0.26288833653E+02 -0.25206549030E+02  0.15017843326E+02  0.39674910296E+02  0.47000000000E+01 0.  1.
         -5    1    5    5    0  503 -0.18807416973E+02  0.49349076035E+02 -0.12191044324E+03  0.13294095084E+03  0.47000000000E+01 0.  1.
<mgrwt>
<rscale>  0 0.27157249E+03</rscale>
<asrwt>0</asrwt>
<pdfrwt beam="1">  1        1 0.44874133E-01 0.27157249E+03</pdfrwt>
<pdfrwt beam="2">  1       -1 0.97249814E-02 0.27157249E+03</pdfrwt>
<totfact> 0.57379594E+03</totfact>
</mgrwt>
</event>
<event>
 9    1  0.2054950E-002  0.2759682E+03  0.7818608E-02  0.1097912E+00
          1   -1    0    0  501    0  0.00000000000E+00  0.00000000000E+00  0.85030966453E+03  0.85030966453E+03  0.00000000000E+00 0. -1.
         -1   -1    0    0    0  501 -0.00000000000E+00 -0.00000000000E+00 -0.22391378698E+02  0.22391378698E+02  0.00000000000E+00 0. -1.
         36    2    1    2    0    0  0.35527136788E-14  0.00000000000E+00  0.82791828584E+03  0.87270104323E+03  0.27596815547E+03 0.  0.
         25    2    3    3    0    0  0.31888931062E+02 -0.45055369093E+02  0.52432572899E+03  0.54048191106E+03  0.11898040133E+03 0.  0.
         25    2    3    3    0    0 -0.31888931062E+02  0.45055369093E+02  0.30359255685E+03  0.33221913217E+03  0.12310248168E+03 0.  0.
          5    1    4    4  502    0 -0.71653581956E+01 -0.46049721130E+02  0.68632008004E+02  0.83092488812E+02  0.47000000000E+01 0.  1.
         -5    1    4    4    0  502  0.39054289257E+02  0.99435203698E+00  0.45569372098E+03  0.45738942225E+03  0.47000000000E+01 0.  1.
          5    1    5    5  503    0  0.53838924998E+01  0.39767124787E+01 -0.10456199664E+02  0.13274888022E+02  0.47000000000E+01 0.  1.
         -5    1    5    5    0  503 -0.37272823561E+02  0.41078656614E+02  0.31404875651E+03  0.31894424415E+03  0.47000000000E+01 0.  1.
<mgrwt>
<rscale>  0 0.27596816E+03</rscale>
<asrwt>0</asrwt>
<pdfrwt beam="1">  1        1 0.13081685E+00 0.27596816E+03</pdfrwt>
<pdfrwt beam="2">  1       -1 0.34448282E-02 0.27596816E+03</pdfrwt>
<totfact> 0.64227170E+03</totfact>
</mgrwt>
</event>
<event>
 9    1  0.2054950E-002  0.2768988E+03  0.7818608E-02  0.1097395E+00
          1   -1    0    0  501    0  0.00000000000E+00  0.00000000000E+00  0.39657617741E+02  0.39657617741E+02  0.00000000000E+00 0. -1.
         -1   -1    0    0    0  501 -0.00000000000E+00 -0.00000000000E+00 -0.48334319251E+03  0.48334319251E+03  0.00000000000E+00 0. -1.
         36    2    1    2    0    0  0.71054273576E-14  0.00000000000E+00 -0.44368557477E+03  0.52300081025E+03  0.27689882316E+03 0.  0.
         25    2    3    3    0    0 -0.37091334681E+02 -0.43393944431E+01 -0.30894535563E+03  0.33500443247E+03  0.12404087856E+03 0.  0.
         25    2    3    3    0    0  0.37091334681E+02  0.43393944431E+01 -0.13474021913E+03  0.18799637778E+03  0.12567065670E+03 0.  0.
          5    1    4    4  502    0 -0.43082799774E+02  0.31232472282E+02 -0.48883164526E+02  0.72410280591E+02  0.47000000000E+01 0.  1.
         -5    1    4    4    0  502  0.59914650924E+01 -0.35571866725E+02 -0.26006219111E+03  0.26259415188E+03  0.47000000000E+01 0.  1.
          5    1    5    5  503    0  0.20845298421E+02 -0.42603601956E+02 -0.12929911268E+03  0.13780400541E+03  0.47000000000E+01 0.  1.
         -5    1    5    5    0  503  0.16246036261E+02  0.46942996399E+02 -0.54411064501E+01  0.50192372374E+02  0.47000000000E+01 0.  1.
<mgrwt>
<rscale>  0 0.27689882E+03</rscale>
<asrwt>0</asrwt>
<pdfrwt beam="1">  1        1 0.61011721E-02 0.27689882E+03</pdfrwt>
<pdfrwt beam="2">  1       -1 0.74360489E-01 0.27689882E+03</pdfrwt>
<totfact> 0.23904943E+03</totfact>
</mgrwt>
</event>
<event>
 9    1  0.2054950E-002  0.2729869E+03  0.7818608E-02  0.1099582E+00
          2   -1    0    0  501    0  0.00000000000E+00  0.00000000000E+00  0.59792727138E+03  0.59792727138E+03  0.00000000000E+00 0. -1.
         -2   -1    0    0    0  501 -0.00000000000E+00 -0.00000000000E+00 -0.31158406656E+02  0.31158406656E+02  0.00000000000E+00 0. -1.
         36    2    1    2    0    0 -0.14210854715E-13 -0.71054273576E-14  0.56676886472E+03  0.62908567803E+03  0.27298689399E+03 0.  0.
         25    2    3    3    0    0 -0.46335144589E+02  0.25028063842E+02  0.33223415385E+03  0.35789350853E+03  0.12220835019E+03 0.  0.
         25    2    3    3    0    0  0.46335144589E+02 -0.25028063842E+02  0.23453471087E+03  0.27119216950E+03  0.12555999600E+03 0.  0.
          5    1    4    4  502    0  0.20917931679E+02  0.34599338118E+02  0.37327828465E+02  0.55227989659E+02  0.47000000000E+01 0. -1.
         -5    1    4    4    0  502 -0.67253076268E+02 -0.95712742757E+01  0.29490632539E+03  0.30266551887E+03  0.47000000000E+01 0. -1.
          5    1    5    5  503    0  0.14187022112E+02  0.45223294239E+02  0.41332457655E+02  0.63062508625E+02  0.47000000000E+01 0. -1.
         -5    1    5    5    0  503  0.32148122477E+02 -0.70251358081E+02  0.19320225321E+03  0.20812966088E+03  0.47000000000E+01 0. -1.
<mgrwt>
<rscale>  0 0.27298689E+03</rscale>
<asrwt>0</asrwt>
<pdfrwt beam="1">  1        2 0.91988802E-01 0.27298689E+03</pdfrwt>
<pdfrwt beam="2">  1       -2 0.47936015E-02 0.27298689E+03</pdfrwt>
<totfact> 0.10524113E+04</totfact>
</mgrwt>
</event>
<event>
 9    1  0.2054950E-002  0.2751641E+03  0.7818608E-02  0.1098360E+00
          2   -1    0    0  501    0  0.00000000000E+00  0.00000000000E+00  0.21378123022E+03  0.21378123022E+03  0.00000000000E+00 0.  1.
         -2   -1    0    0    0  501 -0.00000000000E+00 -0.00000000000E+00 -0.88542971823E+02  0.88542971823E+02  0.00000000000E+00 0.  1.
         36    2    1    2    0    0  0.00000000000E+00  0.71054273576E-14  0.12523825840E+03  0.30232420204E+03  0.27516413606E+03 0.  0.
         25    2    3    3    0    0 -0.54569030529E+01 -0.55102870738E+02  0.56618973815E+02  0.14796410158E+03  0.12498625127E+03 0.  0.
         25    2    3    3    0    0  0.54569030529E+01  0.55102870738E+02  0.68619284580E+02  0.15436010046E+03  0.12669779100E+03 0.  0.
          5    1    4    4  502    0  0.25872788718E+02 -0.67758451982E+02  0.78855567695E+02  0.10724224712E+03  0.47000000000E+01 0.  1.
         -5    1    4    4    0  502 -0.31329691771E+02  0.12655581244E+02 -0.22236593880E+02  0.40721854457E+02  0.47000000000E+01 0.  1.
          5    1    5    5  503    0 -0.43668879055E+02  0.69694489857E+02  0.60620356887E+02  0.10228005956E+03  0.47000000000E+01 0.  1.
         -5    1    5    5    0  503  0.49125782108E+02 -0.14591619120E+02  0.79989276932E+01  0.52080040903E+02  0.47000000000E+01 0.  1.
<mgrwt>
<rscale>  0 0.27516414E+03</rscale>
<asrwt>0</asrwt>
<pdfrwt beam="1">  1        2 0.32889420E-01 0.27516414E+03</pdfrwt>
<pdfrwt beam="2">  1       -2 0.13621996E-01 0.27516414E+03</pdfrwt>
<totfact> 0.63137493E+03</totfact>
</mgrwt>
</event>
<event>
 9    1  0.2054950E-002  0.2746118E+03  0.7818608E-02  0.1098669E+00
          2   -1    0    0  501    0  0.00000000000E+00  0.00000000000E+00  0.22475204017E+04  0.22475204017E+04  0.00000000000E+00 0.  1.
         -2   -1    0    0    0  501 -0.00000000000E+00 -0.00000000000E+00 -0.83883155003E+01  0.83883155003E+01  0.00000000000E+00 0.  1.
         36    2    1    2    0    0  0.71054273576E-14  0.00000000000E+00  0.22391320862E+04  0.22559087172E+04  0.27461180035E+03 0.  0.
         25    2    3    3    0    0 -0.41320698367E+01 -0.66190068263E+01  0.69114246111E+03  0.70328252516E+03  0.12987502988E+03 0.  0.
         25    2    3    3    0    0  0.41320698367E+01  0.66190068263E+01  0.15479896251E+04  0.15526261921E+04  0.11964667814E+03 0.  0.
          5    1    4    4  502    0  0.34697710773E+02 -0.12160262888E+02  0.57510939289E+02  0.68420766324E+02  0.47000000000E+01 0.  1.
         -5    1    4    4    0  502 -0.38829780610E+02  0.55412560612E+01  0.63363152182E+03  0.63486175884E+03  0.47000000000E+01 0.  1.
          5    1    5    5  503    0  0.47696299567E+02  0.41823951106E+02  0.79297044090E+03  0.79551768681E+03  0.47000000000E+01 0. -1.
         -5    1    5    5    0  503 -0.43564229730E+02 -0.35204944280E+02  0.75501918422E+03  0.75710850527E+03  0.47000000000E+01 0. -1.
<mgrwt>
<rscale>  0 0.27461180E+03</rscale>
<asrwt>0</asrwt>
<pdfrwt beam="1">  1        2 0.34577189E+00 0.27461180E+03</pdfrwt>
<pdfrwt beam="2">  1       -2 0.12905119E-02 0.27461180E+03</pdfrwt>
<totfact> 0.80752628E+03</totfact>
</mgrwt>
</event>
<event>
 9    1  0.2054950E-002  0.2750367E+03  0.7818608E-02  0.1098431E+00
          2   -1    0    0  501    0  0.00000000000E+00  0.00000000000E+00  0.16748948466E+04  0.16748948466E+04  0.00000000000E+00 0.  1.
         -2   -1    0    0    0  501 -0.00000000000E+00 -0.00000000000E+00 -0.11291037673E+02  0.11291037673E+02  0.00000000000E+00 0.  1.
         36    2    1    2    0    0 -0.17763568394E-14  0.00000000000E+00  0.16636038089E+04  0.16861858842E+04  0.27503673072E+03 0.  0.
         25    2    3    3    0    0 -0.13772019032E+02 -0.55183718898E+02  0.76831695435E+03  0.78107713522E+03  0.12859096966E+03 0.  0.
         25    2    3    3    0    0  0.13772019032E+02  0.55183718898E+02  0.89528685455E+03  0.90510874903E+03  0.12020143218E+03 0.  0.
          5    1    4    4  502    0  0.45103451266E+02 -0.31688131997E+02  0.15695148551E+03  0.16641609847E+03  0.47000000000E+01 0. -1.
         -5    1    4    4    0  502 -0.58875470298E+02 -0.23495586900E+02  0.61136546884E+03  0.61466103675E+03  0.47000000000E+01 0. -1.
          5    1    5    5  503    0 -0.92237471844E+01 -0.24683345634E+02  0.52052859131E+03  0.52121631731E+03  0.47000000000E+01 0.  1.
         -5    1    5    5    0  503  0.22995766216E+02  0.79867064532E+02  0.37475826324E+03  0.38389243172E+03  0.47000000000E+01 0.  1.
<mgrwt>
<rscale>  0 0.27503673E+03</rscale>
<asrwt>0</asrwt>
<pdfrwt beam="1">  1        2 0.25767593E+00 0.27503673E+03</pdfrwt>
<pdfrwt beam="2">  1       -2 0.17370840E-02 0.27503673E+03</pdfrwt>
<totfact> 0.10477798E+04</totfact>
</mgrwt>
</event>
<event>
 9    1  0.2054950E-002  0.2749864E+03  0.7818608E-02  0.1098459E+00
         -1   -1    0    0    0  501 -0.00000000000E+00  0.00000000000E+00  0.28532707991E+03  0.28532707991E+03  0.00000000000E+00 0.  1.
          1   -1    0    0  501    0  0.00000000000E+00 -0.00000000000E+00 -0.66255126431E+02  0.66255126431E+02  0.00000000000E+00 0.  1.
         36    2    1    2    0    0  0.00000000000E+00  0.00000000000E+00  0.21907195348E+03  0.35158220634E+03  0.27498641242E+03 0.  0.
         25    2    3    3    0    0 -0.45115037763E+02  0.28744450201E+02  0.13789495939E+03  0.19308675771E+03  0.12412036951E+03 0.  0.
         25    2    3    3    0    0  0.45115037763E+02 -0.28744450201E+02  0.81176994086E+02  0.15849544863E+03  0.12517784475E+03 0.  0.
          5    1    4    4  502    0  0.19396178191E+02  0.43264819459E+02  0.11236385695E+03  0.12204828012E+03  0.47000000000E+01 0.  1.
         -5    1    4    4    0  502 -0.64511215954E+02 -0.14520369258E+02  0.25531102448E+02  0.71038477598E+02  0.47000000000E+01 0.  1.
          5    1    5    5  503    0  0.47174208689E+02  0.32574039371E+02  0.77954080196E+02  0.96878287688E+02  0.47000000000E+01 0.  1.
         -5    1    5    5    0  503 -0.20591709253E+01 -0.61318489571E+02  0.32229138900E+01  0.61617160939E+02  0.47000000000E+01 0.  1.
<mgrwt>
<rscale>  0 0.27498641E+03</rscale>
<asrwt>0</asrwt>
<pdfrwt beam="1">  1        1 0.10193097E-01 0.27498641E+03</pdfrwt>
<pdfrwt beam="2">  1       -1 0.43896473E-01 0.27498641E+03</pdfrwt>
<totfact> 0.32500653E+03</totfact>
</mgrwt>
</event>
<event>
 9    1  0.2054950E-002  0.2673404E+03  0.7818608E-02  0.1102812E+00
         -1   -1    0    0    0  501 -0.00000000000E+00  0.00000000000E+00  0.13468279101E+02  0.13468279101E+02  0.00000000000E+00 0. -1.
          1   -1    0    0  501    0  0.00000000000E+00 -0.00000000000E+00 -0.13266517884E+04  0.13266517884E+04  0.00000000000E+00 0. -1.
         36    2    1    2    0    0  0.71054273576E-14 -0.35527136788E-14 -0.13131835093E+04  0.13401200675E+04  0.26734035652E+03 0.  0.
         25    2    3    3    0    0  0.39355257257E+02  0.41337322280E+01 -0.50107857440E+03  0.51798079424E+03  0.12513369435E+03 0.  0.
         25    2    3    3    0    0 -0.39355257257E+02 -0.41337322280E+01 -0.81210493491E+03  0.82213927327E+03  0.12178930715E+03 0.  0.
          5    1    4    4  502    0  0.29966610194E+02 -0.59165358144E+02 -0.27947957616E+03  0.28727941246E+03  0.47000000000E+01 0.  1.
         -5    1    4    4    0  502  0.93886470634E+01  0.63299090372E+02 -0.22159899824E+03  0.23070138178E+03  0.47000000000E+01 0.  1.
          5    1    5    5  503    0 -0.35966864334E+02 -0.34662836027E+02 -0.13028495281E+03  0.13961155561E+03  0.47000000000E+01 0.  1.
         -5    1    5    5    0  503 -0.33883929235E+01  0.30529103799E+02 -0.68181998210E+03  0.68252771766E+03  0.47000000000E+01 0.  1.
<mgrwt>
<rscale>  0 0.26734036E+03</rscale>
<asrwt>0</asrwt>
<pdfrwt beam="1">  1        1 0.20410032E+00 0.26734036E+03</pdfrwt>
<pdfrwt beam="2">  1       -1 0.20720425E-02 0.26734036E+03</pdfrwt>
<totfact> 0.60879248E+03</totfact>
</mgrwt>
</event>
<event>
 9    1  0.2054950E-002  0.2738958E+03  0.7818608E-02  0.1099070E+00
          4   -1    0    0  501    0  0.00000000000E+00  0.00000000000E+00  0.12063536416E+04  0.12063536416E+04  0.00000000000E+00 0. -1.
         -4   -1    0    0    0  501 -0.00000000000E+00 -0.00000000000E+00 -0.15546623062E+02  0.15546623062E+02  0.00000000000E+00 0. -1.
         36    2    1    2    0    0  0.00000000000E+00  0.00000000000E+00  0.11908070185E+04  0.12219002646E+04  0.27389578562E+03 0.  0.
         25    2    3    3    0    0  0.28018697085E+02 -0.40921639978E+02  0.43140499831E+03  0.45135954968E+03  0.12310784912E+03 0.  0.
         25    2    3    3    0    0 -0.28018697085E+02  0.40921639978E+02  0.75940202020E+03  0.77054071496E+03  0.12075569185E+03 0.  0.
          5    1    4    4  502    0 -0.19918201041E+02  0.11542551789E+02  0.30786209175E+03  0.30875738497E+03  0.47000000000E+01 0. -1.
         -5    1    4    4    0  502  0.47936898126E+02 -0.52464191768E+02  0.12354290656E+03  0.14260216472E+03  0.47000000000E+01 0. -1.
          5    1    5    5  503    0  0.43513417220E+02  0.22652534744E+01  0.17090047328E+03  0.17643018625E+03  0.47000000000E+01 0. -1.
         -5    1    5    5    0  503 -0.71532114305E+02  0.38656386504E+02  0.58850154692E+03  0.59411052871E+03  0.47000000000E+01 0. -1.
<mgrwt>
<rscale>  0 0.27389579E+03</rscale>
<asrwt>0</asrwt>
<pdfrwt beam="1">  1        4 0.18559279E+00 0.27389579E+03</pdfrwt>
<pdfrwt beam="2">  1       -4 0.23917891E-02 0.27389579E+03</pdfrwt>
<totfact> 0.25656179E+02</totfact>
</mgrwt>
</event>
<event>
 9    1  0.2054950E-002  0.2747758E+03  0.7818608E-02  0.1098577E+00
         -1   -1    0    0    0  501 -0.00000000000E+00  0.00000000000E+00  0.16881359274E+03  0.16881359274E+03  0.00000000000E+00 0. -1.
          1   -1    0    0  501    0  0.00000000000E+00 -0.00000000000E+00 -0.11181228577E+03  0.11181228577E+03  0.00000000000E+00 0. -1.
         36    2    1    2    0    0 -0.14210854715E-13 -0.71054273576E-14  0.57001306968E+02  0.28062587850E+03  0.27477578985E+03 0.  0.
         25    2    3    3    0    0 -0.52379886745E+02 -0.42181286098E+02  0.24206971231E+02  0.15254646565E+03  0.13476473313E+03 0.  0.
         25    2    3    3    0    0  0.52379886745E+02  0.42181286098E+02  0.32794335737E+02  0.12807941285E+03  0.10395169122E+03 0.  0.
          5    1    4    4  502    0  0.30323414563E+02 -0.78415186664E+01 -0.33349235666E+02  0.45991960224E+02  0.47000000000E+01 0.  1.
         -5    1    4    4    0  502 -0.82703301308E+02 -0.34339767432E+02  0.57556206897E+02  0.10655450543E+03  0.47000000000E+01 0.  1.
          5    1    5    5  503    0  0.82231697396E+02  0.16192438357E+02  0.21490655761E+02  0.86649785929E+02  0.47000000000E+01 0. -1.
         -5    1    5    5    0  503 -0.29851810651E+02  0.25988847741E+02  0.11303679976E+02  0.41429626924E+02  0.47000000000E+01 0. -1.
<mgrwt>
<rscale>  0 0.27477579E+03</rscale>
<asrwt>0</asrwt>
<pdfrwt beam="1">  1        1 0.17201890E-01 0.27477579E+03</pdfrwt>
<pdfrwt beam="2">  1       -1 0.25971322E-01 0.27477579E+03</pdfrwt>
<totfact> 0.40376577E+03</totfact>
</mgrwt>
</event>
<event>
 9    1  0.2054950E-002  0.2751577E+03  0.7818608E-02  0.1098363E+00
         -2   -1    0    0    0  501 -0.00000000000E+00  0.00000000000E+00  0.28505353789E+02  0.28505353789E+02  0.00000000000E+00 0.  1.
          2   -1    0    0  501    0  0.00000000000E+00 -0.00000000000E+00 -0.66401364562E+03  0.66401364562E+03  0.00000000000E+00 0.  1.
         36    2    1    2    0    0  0.71054273576E-14 -0.71054273576E-14 -0.63550829184E+03  0.69251899941E+03  0.27515772851E+03 0.  0.
         25    2    3    3    0    0  0.54702467945E+02  0.14880555707E+02 -0.35707830990E+03  0.38214340108E+03  0.12375325714E+03 0.  0.
         25    2    3    3    0    0 -0.54702467945E+02 -0.14880555707E+02 -0.27842998194E+03  0.31037559833E+03  0.12488381104E+03 0.  0.
          5    1    4    4  502    0  0.26142227451E+02  0.69100403846E+02 -0.21320957481E+03  0.22569602270E+03  0.47000000000E+01 0.  1.
         -5    1    4    4    0  502  0.28560240494E+02 -0.54219848139E+02 -0.14386873509E+03  0.15644737839E+03  0.47000000000E+01 0.  1.
          5    1    5    5  503    0 -0.18860656417E+02 -0.67245965533E+02 -0.11062126710E+03  0.13090797904E+03  0.47000000000E+01 0. -1.
         -5    1    5    5    0  503 -0.35841811528E+02  0.52365409825E+02 -0.16780871484E+03  0.17946761929E+03  0.47000000000E+01 0. -1.
<mgrwt>
<rscale>  0 0.27515773E+03</rscale>
<asrwt>0</asrwt>
<pdfrwt beam="1">  1        2 0.10215595E+00 0.27515773E+03</pdfrwt>
<pdfrwt beam="2">  1       -2 0.43854387E-02 0.27515773E+03</pdfrwt>
<totfact> 0.10647233E+04</totfact>
</mgrwt>
</event>
<event>
 9    1  0.2054950E-002  0.2749782E+03  0.7818608E-02  0.1098464E+00
          1   -1    0    0  501    0  0.00000000000E+00  0.00000000000E+00  0.75078711283E+03  0.75078711283E+03  0.00000000000E+00 0. -1.
         -1   -1    0    0    0  501 -0.00000000000E+00 -0.00000000000E+00 -0.25177911822E+02  0.25177911822E+02  0.00000000000E+00 0. -1.
         36    2    1    2    0    0  0.14210854715E-13 -0.71054273576E-14  0.72560920101E+03  0.77596502465E+03  0.27497819349E+03 0.  0.
         25    2    3    3    0    0  0.38895092608E+02 -0.31877316845E+02  0.48765122104E+03  0.50548590686E+03  0.12322052222E+03 0.  0.
         25    2    3    3    0    0 -0.38895092608E+02  0.31877316845E+02  0.23795797997E+03  0.27047911779E+03  0.11834678437E+03 0.  0.
          5    1    4    4  502    0  0.54481559234E+02 -0.71081911847E+02  0.30148712391E+03  0.31454324722E+03  0.47000000000E+01 0.  1.
         -5    1    4    4    0  502 -0.15586466626E+02  0.39204595002E+02  0.18616409712E+03  0.19094265964E+03  0.47000000000E+01 0.  1.
          5    1    5    5  503    0 -0.76055977023E+02  0.20678914461E+02  0.10186750216E+03  0.12888447207E+03  0.47000000000E+01 0.  1.
         -5    1    5    5    0  503  0.37160884415E+02  0.11198402384E+02  0.13609047781E+03  0.14159464572E+03  0.47000000000E+01 0.  1.
<mgrwt>
<rscale>  0 0.27497819E+03</rscale>
<asrwt>0</asrwt>
<pdfrwt beam="1">  1        1 0.11550569E+00 0.27497819E+03</pdfrwt>
<pdfrwt beam="2">  1       -1 0.38735255E-02 0.27497819E+03</pdfrwt>
<totfact> 0.65367456E+03</totfact>
</mgrwt>
</event>
<event>
 9    1  0.2054950E-002  0.2848499E+03  0.7818608E-02  0.1093069E+00
          2   -1    0    0  501    0  0.00000000000E+00  0.00000000000E+00  0.51971463464E+02  0.51971463464E+02  0.00000000000E+00 0.  1.
         -2   -1    0    0    0  501 -0.00000000000E+00 -0.00000000000E+00 -0.39030777371E+03  0.39030777371E+03  0.00000000000E+00 0.  1.
         36    2    1    2    0    0 -0.71054273576E-14  0.71054273576E-14 -0.33833631024E+03  0.44227923717E+03  0.28484989872E+03 0.  0.
         25    2    3    3    0    0 -0.39878733788E+02  0.47805705239E+02 -0.12616166531E+03  0.19654220949E+03  0.13724567555E+03 0.  0.
         25    2    3    3    0    0  0.39878733788E+02 -0.47805705239E+02 -0.21217464493E+03  0.24573702768E+03  0.10720498103E+03 0.  0.
          5    1    4    4  502    0 -0.50325887733E+02  0.38527578948E+02 -0.15313711563E+03  0.16580149426E+03  0.47000000000E+01 0.  1.
         -5    1    4    4    0  502  0.10447153945E+02  0.92781262906E+01  0.26975450320E+02  0.30740715232E+02  0.47000000000E+01 0.  1.
          5    1    5    5  503    0  0.32014112392E+01 -0.10973340135E+02 -0.18767478270E+03  0.18808130500E+03  0.47000000000E+01 0. -1.
         -5    1    5    5    0  503  0.36677322549E+02 -0.36832365104E+02 -0.24499862232E+02  0.57655722681E+02  0.47000000000E+01 0. -1.
<mgrwt>
<rscale>  0 0.28484990E+03</rscale>
<asrwt>0</asrwt>
<pdfrwt beam="1">  1        2 0.79956094E-02 0.28484990E+03</pdfrwt>
<pdfrwt beam="2">  1       -2 0.60047352E-01 0.28484990E+03</pdfrwt>
<totfact> 0.22439222E+03</totfact>
</mgrwt>
</event>
<event>
 9    1  0.2054950E-002  0.2723662E+03  0.7818608E-02  0.1099933E+00
          1   -1    0    0  501    0  0.00000000000E+00  0.00000000000E+00  0.35288255767E+03  0.35288255767E+03  0.00000000000E+00 0. -1.
         -1   -1    0    0    0  501 -0.00000000000E+00 -0.00000000000E+00 -0.52555247231E+02  0.52555247231E+02  0.00000000000E+00 0. -1.
         36    2    1    2    0    0  0.00000000000E+00  0.00000000000E+00  0.30032731044E+03  0.40543780490E+03  0.27236615107E+03 0.  0.
         25    2    3    3    0    0 -0.50038496236E+02 -0.23602773819E+02  0.14126299061E+03  0.19634202947E+03  0.12463554062E+03 0.  0.
         25    2    3    3    0    0  0.50038496236E+02  0.23602773819E+02  0.15906431984E+03  0.20909577543E+03  0.12392999403E+03 0.  0.
          5    1    4    4  502    0 -0.64965773142E+02 -0.61085001760E+02  0.66788335355E+02  0.11151098986E+03  0.47000000000E+01 0. -1.
         -5    1    4    4    0  502  0.14927276906E+02  0.37482227941E+02  0.74474655251E+02  0.84831039614E+02  0.47000000000E+01 0. -1.
          5    1    5    5  503    0 -0.14065448112E+02  0.47515344797E+02  0.19251661840E+02  0.53369104408E+02  0.47000000000E+01 0.  1.
         -5    1    5    5    0  503  0.64103944348E+02 -0.23912570977E+02  0.13981265800E+03  0.15572667102E+03  0.47000000000E+01 0.  1.
<mgrwt>
<rscale>  0 0.27236615E+03</rscale>
<asrwt>0</asrwt>
<pdfrwt beam="1">  1        1 0.54289623E-01 0.27236615E+03</pdfrwt>
<pdfrwt beam="2">  1       -1 0.80854229E-02 0.27236615E+03</pdfrwt>
<totfact> 0.59917042E+03</totfact>
</mgrwt>
</event>
<event>
 9    1  0.2054950E-002  0.2756837E+03  0.7818608E-02  0.1098070E+00
          1   -1    0    0  501    0  0.00000000000E+00  0.00000000000E+00  0.15304462683E+04  0.15304462683E+04  0.00000000000E+00 0.  1.
         -1   -1    0    0    0  501 -0.00000000000E+00 -0.00000000000E+00 -0.12414921447E+02  0.12414921447E+02  0.00000000000E+00 0.  1.
         36    2    1    2    0    0  0.35527136788E-14  0.71054273576E-14  0.15180313468E+04  0.15428611897E+04  0.27568366074E+03 0.  0.
         25    2    3    3    0    0 -0.16732845219E+02  0.47488489195E+02  0.59476835508E+03  0.60967329912E+03  0.12416517524E+03 0.  0.
         25    2    3    3    0    0  0.16732845219E+02 -0.47488489195E+02  0.92326299174E+03  0.93318789059E+03  0.12605531530E+03 0.  0.
          5    1    4    4  502    0  0.20711575656E+02  0.12572356445E+02  0.50954767815E+03  0.51014503802E+03  0.47000000000E+01 0.  1.
         -5    1    4    4    0  502 -0.37444420875E+02  0.34916132750E+02  0.85220676934E+02  0.99528261102E+02  0.47000000000E+01 0.  1.
          5    1    5    5  503    0  0.57850850794E+01 -0.72931441883E+02  0.28405842693E+03  0.29336622562E+03  0.47000000000E+01 0. -1.
         -5    1    5    5    0  503  0.10947760140E+02  0.25442952687E+02  0.63920456481E+03  0.63982166498E+03  0.47000000000E+01 0. -1.
<mgrwt>
<rscale>  0 0.27568366E+03</rscale>
<asrwt>0</asrwt>
<pdfrwt beam="1">  1        1 0.23545312E+00 0.27568366E+03</pdfrwt>
<pdfrwt beam="2">  1       -1 0.19099891E-02 0.27568366E+03</pdfrwt>
<totfact> 0.50111963E+03</totfact>
</mgrwt>
</event>
<event>
 9    1  0.2054950E-002  0.2748517E+03  0.7818608E-02  0.1098535E+00
         -2   -1    0    0    0  501 -0.00000000000E+00  0.00000000000E+00  0.10856888750E+02  0.10856888750E+02  0.00000000000E+00 0.  1.
          2   -1    0    0  501    0  0.00000000000E+00 -0.00000000000E+00 -0.17395281498E+04  0.17395281498E+04  0.00000000000E+00 0.  1.
         36    2    1    2    0    0  0.00000000000E+00  0.00000000000E+00 -0.17286712610E+04  0.17503850385E+04  0.27485169528E+03 0.  0.
         25    2    3    3    0    0  0.85452465837E+02  0.39942061722E+02 -0.65875429070E+03  0.66871903280E+03  0.65806056670E+02 0.  0.
         25    2    3    3    0    0 -0.85452465837E+02 -0.39942061722E+02 -0.10699169703E+04  0.10816660058E+04  0.12799036038E+03 0.  0.
          5    1    4    4  502    0  0.49096677408E+02  0.67278145182E+01 -0.16117199687E+03  0.16868387532E+03  0.47000000000E+01 0.  1.
         -5    1    4    4    0  502  0.36355788430E+02  0.33214247204E+02 -0.49758229384E+03  0.50003515747E+03  0.47000000000E+01 0.  1.
          5    1    5    5  503    0 -0.11270916395E+03 -0.31677740465E+01 -0.77929829756E+03  0.78742702329E+03  0.47000000000E+01 0.  1.
         -5    1    5    5    0  503  0.27256698113E+02 -0.36774287676E+02 -0.29061867279E+03  0.29423898246E+03  0.47000000000E+01 0.  1.
<mgrwt>
<rscale>  0 0.27485170E+03</rscale>
<asrwt>0</asrwt>
<pdfrwt beam="1">  1        2 0.26761999E+00 0.27485170E+03</pdfrwt>
<pdfrwt beam="2">  1       -2 0.16702889E-02 0.27485170E+03</pdfrwt>
<totfact> 0.10261303E+04</totfact>
</mgrwt>
</event>
<event>
 9    1  0.2054950E-002  0.2759822E+03  0.7818608E-02  0.1097904E+00
         -2   -1    0    0    0  501 -0.00000000000E+00  0.00000000000E+00  0.13792024473E+03  0.13792024473E+03  0.00000000000E+00 0. -1.
          2   -1    0    0  501    0  0.00000000000E+00 -0.00000000000E+00 -0.13806201640E+03  0.13806201640E+03  0.00000000000E+00 0. -1.
         36    2    1    2    0    0  0.00000000000E+00  0.00000000000E+00 -0.14177166266E+00  0.27598226113E+03  0.27598222471E+03 0.  0.
         25    2    3    3    0    0 -0.60135095799E+02 -0.63250852581E+02  0.18621689614E+02  0.12177539412E+03  0.82858790669E+02 0.  0.
         25    2    3    3    0    0  0.60135095799E+02  0.63250852581E+02 -0.18763461277E+02  0.15420686700E+03  0.12574096490E+03 0.  0.
          5    1    4    4  502    0 -0.53550284840E+01 -0.64902895495E+02  0.84620462990E+01  0.65838882139E+02  0.47000000000E+01 0. -1.
         -5    1    4    4    0  502 -0.54780067315E+02  0.16520429145E+01  0.10159643315E+02  0.55936511986E+02  0.47000000000E+01 0. -1.
          5    1    5    5  503    0  0.98849408623E+02  0.50294128839E+02 -0.21303843337E+02  0.11303383884E+03  0.47000000000E+01 0.  1.
         -5    1    5    5    0  503 -0.38714312824E+02  0.12956723742E+02  0.25403820601E+01  0.41173028168E+02  0.47000000000E+01 0.  1.
<mgrwt>
<rscale>  0 0.27598222E+03</rscale>
<asrwt>0</asrwt>
<pdfrwt beam="1">  1        2 0.21240310E-01 0.27598222E+03</pdfrwt>
<pdfrwt beam="2">  1       -2 0.21218499E-01 0.27598222E+03</pdfrwt>
<totfact> 0.48825786E+03</totfact>
</mgrwt>
</event>
<event>
 9    1  0.2054950E-002  0.2753658E+03  0.7818608E-02  0.1098247E+00
         -2   -1    0    0    0  501 -0.00000000000E+00  0.00000000000E+00  0.33136122702E+02  0.33136122702E+02  0.00000000000E+00 0. -1.
          2   -1    0    0  501    0  0.00000000000E+00 -0.00000000000E+00 -0.57208209106E+03  0.57208209106E+03  0.00000000000E+00 0. -1.
         36    2    1    2    0    0  0.00000000000E+00  0.00000000000E+00 -0.53894596836E+03  0.60521821376E+03  0.27536581026E+03 0.  0.
         25    2    3    3    0    0  0.57180928097E+02  0.89845846307E+01 -0.28399735513E+03  0.31544156205E+03  0.12449297187E+03 0.  0.
         25    2    3    3    0    0 -0.57180928097E+02 -0.89845846307E+01 -0.25494861322E+03  0.28977665171E+03  0.12498532392E+03 0.  0.
          5    1    4    4  502    0  0.23943112841E+02 -0.49206514674E+02 -0.58906361799E+02  0.80539451198E+02  0.47000000000E+01 0.  1.
         -5    1    4    4    0  502  0.33237815256E+02  0.58191099305E+02 -0.22509099333E+03  0.23490211085E+03  0.47000000000E+01 0.  1.
          5    1    5    5  503    0 -0.74740206425E+02  0.32184565322E+02 -0.10327081122E+03  0.13156327432E+03  0.47000000000E+01 0.  1.
         -5    1    5    5    0  503  0.17559278328E+02 -0.41169149953E+02 -0.15167780201E+03  0.15821337739E+03  0.47000000000E+01 0.  1.
<mgrwt>
<rscale>  0 0.27536581E+03</rscale>
<asrwt>0</asrwt>
<pdfrwt beam="1">  1        2 0.88012626E-01 0.27536581E+03</pdfrwt>
<pdfrwt beam="2">  1       -2 0.50978652E-02 0.27536581E+03</pdfrwt>
<totfact> 0.10089969E+04</totfact>
</mgrwt>
</event>
<event>
 9    1  0.2054950E-002  0.2745806E+03  0.7818608E-02  0.1098686E+00
          1   -1    0    0  501    0  0.00000000000E+00  0.00000000000E+00  0.99806605122E+02  0.99806605122E+02  0.00000000000E+00 0.  1.
         -1   -1    0    0    0  501 -0.00000000000E+00 -0.00000000000E+00 -0.18885144148E+03  0.18885144148E+03  0.00000000000E+00 0.  1.
         36    2    1    2    0    0  0.71054273576E-14  0.00000000000E+00 -0.89044836360E+02  0.28865804660E+03  0.27458056192E+03 0.  0.
         25    2    3    3    0    0 -0.35566373585E+02  0.41487796890E+02 -0.81259226493E+02  0.16422895588E+03  0.13184037257E+03 0.  0.
         25    2    3    3    0    0  0.35566373585E+02 -0.41487796890E+02 -0.77856098672E+01  0.12442909072E+03  0.11151582254E+03 0.  0.
          5    1    4    4  502    0 -0.40470825281E+02  0.27546870489E+02 -0.11610293124E+03  0.12609004090E+03  0.47000000000E+01 0. -1.
         -5    1    4    4    0  502  0.49044516957E+01  0.13940926400E+02  0.34843704747E+02  0.38138914980E+02  0.47000000000E+01 0. -1.
          5    1    5    5  503    0  0.33386232195E+02 -0.53296816572E+02 -0.49877877616E+02  0.80405745021E+02  0.47000000000E+01 0. -1.
         -5    1    5    5    0  503  0.21801413905E+01  0.11809019682E+02  0.42092267749E+02  0.44023345700E+02  0.47000000000E+01 0. -1.
<mgrwt>
<rscale>  0 0.27458056E+03</rscale>
<asrwt>0</asrwt>
<pdfrwt beam="1">  1        1 0.15354862E-01 0.27458056E+03</pdfrwt>
<pdfrwt beam="2">  1       -1 0.29054068E-01 0.27458056E+03</pdfrwt>
<totfact> 0.38777646E+03</totfact>
</mgrwt>
</event>
<event>
 9    1  0.2054950E-002  0.2745142E+03  0.7818608E-02  0.1098723E+00
         -1   -1    0    0    0  501 -0.00000000000E+00  0.00000000000E+00  0.45671794968E+02  0.45671794968E+02  0.00000000000E+00 0. -1.
          1   -1    0    0  501    0  0.00000000000E+00 -0.00000000000E+00 -0.41249760558E+03  0.41249760558E+03  0.00000000000E+00 0. -1.
         36    2    1    2    0    0  0.35527136788E-14 -0.35527136788E-14 -0.36682581061E+03  0.45816940055E+03  0.27451416041E+03 0.  0.
         25    2    3    3    0    0 -0.17774889857E+02  0.91683675707E+01 -0.31282012283E+03  0.33645151573E+03  0.12224233112E+03 0.  0.
         25    2    3    3    0    0  0.17774889857E+02 -0.91683675707E+01 -0.54005687787E+02  0.12171788482E+03  0.10723163478E+03 0.  0.
          5    1    4    4  502    0 -0.35998710638E+02 -0.48780250641E+02 -0.12518005138E+03  0.13916736429E+03  0.47000000000E+01 0. -1.
         -5    1    4    4    0  502  0.18223820780E+02  0.57948618212E+02 -0.18764007145E+03  0.19728415144E+03  0.47000000000E+01 0. -1.
          5    1    5    5  503    0  0.61893352912E+02 -0.11733046832E+02 -0.21773775522E+02  0.66817952851E+02  0.47000000000E+01 0. -1.
         -5    1    5    5    0  503 -0.44118463055E+02  0.25646792608E+01 -0.32231912265E+02  0.54899931970E+02  0.47000000000E+01 0. -1.
<mgrwt>
<rscale>  0 0.27451416E+03</rscale>
<asrwt>0</asrwt>
<pdfrwt beam="1">  1        1 0.63461171E-01 0.27451416E+03</pdfrwt>
<pdfrwt beam="2">  1       -1 0.70264299E-02 0.27451416E+03</pdfrwt>
<totfact> 0.60806283E+03</totfact>
</mgrwt>
</event>
<event>
 9    1  0.2054950E-002  0.2752553E+03  0.7818608E-02  0.1098309E+00
         -2   -1    0    0    0  501 -0.00000000000E+00  0.00000000000E+00  0.78015624256E+01  0.78015624256E+01  0.00000000000E+00 0. -1.
          2   -1    0    0  501    0  0.00000000000E+00 -0.00000000000E+00 -0.24278945189E+04  0.24278945189E+04  0.00000000000E+00 0. -1.
         36    2    1    2    0    0  0.71054273576E-14  0.00000000000E+00 -0.24200929565E+04  0.24356960813E+04  0.27525530441E+03 0.  0.
         25    2    3    3    0    0  0.35570977800E+02  0.20923688490E+02 -0.16595482828E+04  0.16650293701E+04  0.12852706000E+03 0.  0.
         25    2    3    3    0    0 -0.35570977800E+02 -0.20923688490E+02 -0.76054467366E+03  0.77066671121E+03  0.11745588080E+03 0.  0.
          5    1    4    4  502    0  0.70316074778E+02  0.39448751154E+02 -0.14135625430E+04  0.14158678283E+04  0.47000000000E+01 0. -1.
         -5    1    4    4    0  502 -0.34745096979E+02 -0.18525062664E+02 -0.24598573986E+03  0.24916154183E+03  0.47000000000E+01 0. -1.
          5    1    5    5  503    0 -0.57868597455E+02 -0.49515174622E+02 -0.33623977214E+03  0.34478950311E+03  0.47000000000E+01 0.  1.
         -5    1    5    5    0  503  0.22297619656E+02  0.28591486132E+02 -0.42430490152E+03  0.42587720810E+03  0.47000000000E+01 0.  1.
<mgrwt>
<rscale>  0 0.27525530E+03</rscale>
<asrwt>0</asrwt>
<pdfrwt beam="1">  1        2 0.37352265E+00 0.27525530E+03</pdfrwt>
<pdfrwt beam="2">  1       -2 0.12002390E-02 0.27525530E+03</pdfrwt>
<totfact> 0.71770733E+03</totfact>
</mgrwt>
</event>
<event>
 9    1  0.2054950E-002  0.2698038E+03  0.7818608E-02  0.1101392E+00
          2   -1    0    0  501    0  0.00000000000E+00  0.00000000000E+00  0.16353383468E+04  0.16353383468E+04  0.00000000000E+00 0. -1.
         -2   -1    0    0    0  501 -0.00000000000E+00 -0.00000000000E+00 -0.11128291965E+02  0.11128291965E+02  0.00000000000E+00 0. -1.
         36    2    1    2    0    0 -0.14210854715E-13  0.00000000000E+00  0.16242100548E+04  0.16464666387E+04  0.26980379971E+03 0.  0.
         25    2    3    3    0    0 -0.49445091656E+02  0.14750440031E+02  0.88311531536E+03  0.89320019772E+03  0.12349712716E+03 0.  0.
         25    2    3    3    0    0  0.49445091656E+02 -0.14750440031E+02  0.74109473945E+03  0.75326644102E+03  0.12460548043E+03 0.  0.
          5    1    4    4  502    0  0.54400554865E+01 -0.30643687424E+02  0.67618218875E+02  0.74585141325E+02  0.47000000000E+01 0.  1.
         -5    1    4    4    0  502 -0.54885147142E+02  0.45394127455E+02  0.81549709649E+03  0.81861505640E+03  0.47000000000E+01 0.  1.
          5    1    5    5  503    0  0.41348819878E+00  0.32525436915E+02  0.53800834304E+03  0.53901126351E+03  0.47000000000E+01 0. -1.
         -5    1    5    5    0  503  0.49031603457E+02 -0.47275876946E+02  0.20308639642E+03  0.21425517750E+03  0.47000000000E+01 0. -1.
<mgrwt>
<rscale>  0 0.26980380E+03</rscale>
<asrwt>0</asrwt>
<pdfrwt beam="1">  1        2 0.25159032E+00 0.26980380E+03</pdfrwt>
<pdfrwt beam="2">  1       -2 0.17120462E-02 0.26980380E+03</pdfrwt>
<totfact> 0.11226296E+04</totfact>
</mgrwt>
</event>
<event>
 9    1  0.2054950E-002  0.2742015E+03  0.7818608E-02  0.1098899E+00
         -2   -1    0    0    0  501 -0.00000000000E+00  0.00000000000E+00  0.25397428289E+02  0.25397428289E+02  0.00000000000E+00 0.  1.
          2   -1    0    0  501    0  0.00000000000E+00 -0.00000000000E+00 -0.74009933108E+03  0.74009933108E+03  0.00000000000E+00 0.  1.
         36    2    1    2    0    0 -0.35527136788E-14 -0.71054273576E-14 -0.71470190279E+03  0.76549675937E+03  0.27420152945E+03 0.  0.
         25    2    3    3    0    0  0.26866021200E+02  0.53595004558E+02 -0.41859957083E+03  0.43961699420E+03  0.12018025330E+03 0.  0.
         25    2    3    3    0    0 -0.26866021200E+02 -0.53595004558E+02 -0.29610233196E+03  0.32587976516E+03  0.12217537699E+03 0.  0.
          5    1    4    4  502    0  0.32925109868E+02 -0.31350077984E+02 -0.19545989939E+03  0.20073253977E+03  0.47000000000E+01 0.  1.
         -5    1    4    4    0  502 -0.60590886682E+01  0.84945082542E+02 -0.22313967143E+03  0.23888445444E+03  0.47000000000E+01 0.  1.
          5    1    5    5  503    0 -0.62044877904E+01 -0.42839119098E+02 -0.29880773062E+03  0.30196330186E+03  0.47000000000E+01 0.  1.
         -5    1    5    5    0  503 -0.20661533410E+02 -0.10755885460E+02  0.27053986612E+01  0.23916463300E+02  0.47000000000E+01 0.  1.
<mgrwt>
<rscale>  0 0.27420153E+03</rscale>
<asrwt>0</asrwt>
<pdfrwt beam="1">  1        2 0.11386144E+00 0.27420153E+03</pdfrwt>
<pdfrwt beam="2">  1       -2 0.39072964E-02 0.27420153E+03</pdfrwt>
<totfact> 0.11104359E+04</totfact>
</mgrwt>
</event>
<event>
 9    1  0.2054950E-002  0.2748516E+03  0.7818608E-02  0.1098535E+00
          2   -1    0    0  501    0  0.00000000000E+00  0.00000000000E+00  0.82131700040E+03  0.82131700040E+03  0.00000000000E+00 0.  1.
         -2   -1    0    0    0  501 -0.00000000000E+00 -0.00000000000E+00 -0.22994586553E+02  0.22994586553E+02  0.00000000000E+00 0.  1.
         36    2    1    2    0    0  0.71054273576E-14 -0.88817841970E-15  0.79832241385E+03  0.84431158696E+03  0.27485155887E+03 0.  0.
         25    2    3    3    0    0 -0.57226668130E+02  0.29639045142E+01  0.43695500744E+03  0.45801323472E+03  0.12475082517E+03 0.  0.
         25    2    3    3    0    0  0.57226668130E+02 -0.29639045142E+01  0.36136740641E+03  0.38629835224E+03  0.12392069338E+03 0.  0.
          5    1    4    4  502    0 -0.57328829099E+02  0.53223673533E+01  0.68864282153E+02  0.89884935315E+02  0.47000000000E+01 0. -1.
         -5    1    4    4    0  502  0.10216096881E+00 -0.23584628391E+01  0.36809072528E+03  0.36812829941E+03  0.47000000000E+01 0. -1.
          5    1    5    5  503    0  0.64188995673E+02  0.50859168944E+02  0.22065313490E+03  0.23540768503E+03  0.47000000000E+01 0. -1.
         -5    1    5    5    0  503 -0.69623275431E+01 -0.53823073459E+02  0.14071427152E+03  0.15089066721E+03  0.47000000000E+01 0. -1.
<mgrwt>
<rscale>  0 0.27485156E+03</rscale>
<asrwt>0</asrwt>
<pdfrwt beam="1">  1        2 0.12635644E+00 0.27485156E+03</pdfrwt>
<pdfrwt beam="2">  1       -2 0.35376293E-02 0.27485156E+03</pdfrwt>
<totfact> 0.11304781E+04</totfact>
</mgrwt>
</event>
<event>
 9    1  0.2054950E-002  0.2734228E+03  0.7818608E-02  0.1099336E+00
          2   -1    0    0  501    0  0.00000000000E+00  0.00000000000E+00  0.45708403325E+03  0.45708403325E+03  0.00000000000E+00 0. -1.
         -2   -1    0    0    0  501 -0.00000000000E+00 -0.00000000000E+00 -0.40889643766E+02  0.40889643766E+02  0.00000000000E+00 0. -1.
         36    2    1    2    0    0  0.00000000000E+00  0.71054273576E-14  0.41619438948E+03  0.49797367701E+03  0.27342277367E+03 0.  0.
         25    2    3    3    0    0  0.36840031972E+02  0.35588176256E+02  0.22219505779E+03  0.25998025805E+03  0.12488148232E+03 0.  0.
         25    2    3    3    0    0 -0.36840031972E+02 -0.35588176256E+02  0.19399933169E+03  0.23799341896E+03  0.12798992354E+03 0.  0.
          5    1    4    4  502    0  0.84811401076E+01  0.58963203009E+02  0.21379658228E+03  0.22199021969E+03  0.47000000000E+01 0. -1.
         -5    1    4    4    0  502  0.28358891864E+02 -0.23375026753E+02  0.83984755126E+01  0.37990038358E+02  0.47000000000E+01 0. -1.
          5    1    5    5  503    0 -0.27093974307E+02  0.34380258811E+02  0.14590686951E+03  0.15240403606E+03  0.47000000000E+01 0. -1.
         -5    1    5    5    0  503 -0.97460576650E+01 -0.69968435067E+02  0.48092462188E+02  0.85589382899E+02  0.47000000000E+01 0. -1.
<mgrwt>
<rscale>  0 0.27342277E+03</rscale>
<asrwt>0</asrwt>
<pdfrwt beam="1">  1        2 0.70320617E-01 0.27342277E+03</pdfrwt>
<pdfrwt beam="2">  1       -2 0.62907147E-02 0.27342277E+03</pdfrwt>
<totfact> 0.94116254E+03</totfact>
</mgrwt>
</event>
<event>
 9    1  0.2054950E-002  0.2747533E+03  0.7818608E-02  0.1098590E+00
         -3   -1    0    0    0  501 -0.00000000000E+00  0.00000000000E+00  0.10847384611E+03  0.10847384611E+03  0.00000000000E+00 0.  1.
          3   -1    0    0  501    0  0.00000000000E+00 -0.00000000000E+00 -0.17398053946E+03  0.17398053946E+03  0.00000000000E+00 0.  1.
         36    2    1    2    0    0  0.00000000000E+00  0.00000000000E+00 -0.65506693351E+02  0.28245438557E+03  0.27475325849E+03 0.  0.
         25    2    3    3    0    0  0.35799486636E+02 -0.39504898578E+02  0.88244454825E+01  0.13186065360E+03  0.12027934517E+03 0.  0.
         25    2    3    3    0    0 -0.35799486636E+02  0.39504898578E+02 -0.74331138834E+02  0.15059373197E+03  0.11962906692E+03 0.  0.
          5    1    4    4  502    0  0.54598568750E+02 -0.36205679597E+00  0.48254474420E+02  0.73018621572E+02  0.47000000000E+01 0.  1.
         -5    1    4    4    0  502 -0.18799082114E+02 -0.39142841782E+02 -0.39430028937E+02  0.58842032027E+02  0.47000000000E+01 0.  1.
          5    1    5    5  503    0 -0.51507787622E+02  0.48142956236E+02  0.33429168553E+01  0.70739391529E+02  0.47000000000E+01 0. -1.
         -5    1    5    5    0  503  0.15708300986E+02 -0.86380576580E+01 -0.77674055689E+02  0.79854340440E+02  0.47000000000E+01 0. -1.
<mgrwt>
<rscale>  0 0.27475326E+03</rscale>
<asrwt>0</asrwt>
<pdfrwt beam="1">  1        3 0.26766237E-01 0.27475326E+03</pdfrwt>
<pdfrwt beam="2">  1       -3 0.16688284E-01 0.27475326E+03</pdfrwt>
<totfact> 0.10404921E+03</totfact>
</mgrwt>
</event>
<event>
 9    1  0.2054950E-002  0.2756482E+03  0.7818608E-02  0.1098090E+00
          2   -1    0    0  501    0  0.00000000000E+00  0.00000000000E+00  0.69370594135E+03  0.69370594135E+03  0.00000000000E+00 0. -1.
         -2   -1    0    0    0  501 -0.00000000000E+00 -0.00000000000E+00 -0.27382612007E+02  0.27382612007E+02  0.00000000000E+00 0. -1.
         36    2    1    2    0    0  0.00000000000E+00  0.71054273576E-14  0.66632332935E+03  0.72108855336E+03  0.27564818620E+03 0.  0.
         25    2    3    3    0    0 -0.26337712876E+02 -0.43692659894E+01  0.22349309712E+03  0.25853845400E+03  0.12720142346E+03 0.  0.
         25    2    3    3    0    0  0.26337712876E+02  0.43692659894E+01  0.44283023222E+03  0.46255009936E+03  0.13092446005E+03 0.  0.
          5    1    4    4  502    0 -0.43133206345E+01 -0.62358601917E+02  0.14792694137E+03  0.16066010690E+03  0.47000000000E+01 0. -1.
         -5    1    4    4    0  502 -0.22024392242E+02  0.57989335927E+02  0.75566155755E+02  0.97878347097E+02  0.47000000000E+01 0. -1.
          5    1    5    5  503    0 -0.48698316336E+02 -0.21406279252E+02  0.20224039983E+03  0.20917223556E+03  0.47000000000E+01 0.  1.
         -5    1    5    5    0  503  0.75036029212E+02  0.25775545241E+02  0.24058983239E+03  0.25337786380E+03  0.47000000000E+01 0.  1.
<mgrwt>
<rscale>  0 0.27564819E+03</rscale>
<asrwt>0</asrwt>
<pdfrwt beam="1">  1        2 0.10672398E+00 0.27564819E+03</pdfrwt>
<pdfrwt beam="2">  1       -2 0.42127101E-02 0.27564819E+03</pdfrwt>
<totfact> 0.10734096E+04</totfact>
</mgrwt>
</event>
<event>
 9    1  0.2054950E-002  0.2754725E+03  0.7818608E-02  0.1098188E+00
          2   -1    0    0  501    0  0.00000000000E+00  0.00000000000E+00  0.15096306370E+04  0.15096306370E+04  0.00000000000E+00 0.  1.
         -2   -1    0    0    0  501 -0.00000000000E+00 -0.00000000000E+00 -0.12566833456E+02  0.12566833456E+02  0.00000000000E+00 0.  1.
         36    2    1    2    0    0  0.00000000000E+00  0.88817841970E-14  0.14970638035E+04  0.15221974704E+04  0.27547251619E+03 0.  0.
         25    2    3    3    0    0  0.43063988165E+02  0.15933426150E+02  0.62038127040E+03  0.63485560681E+03  0.12672939552E+03 0.  0.
         25    2    3    3    0    0 -0.43063988165E+02 -0.15933426150E+02  0.87668253310E+03  0.88734186360E+03  0.12920889255E+03 0.  0.
          5    1    4    4  502    0  0.10483887510E+02 -0.19213746650E+01  0.57872177341E+03  0.57883899712E+03  0.47000000000E+01 0. -1.
         -5    1    4    4    0  502  0.32580100656E+02  0.17854800815E+02  0.41659496998E+02  0.56016609688E+02  0.47000000000E+01 0. -1.
          5    1    5    5  503    0 -0.23081818304E+01 -0.67802707029E+02  0.35209138273E+03  0.35859861486E+03  0.47000000000E+01 0. -1.
         -5    1    5    5    0  503 -0.40755806335E+02  0.51869280879E+02  0.52459115037E+03  0.52874324874E+03  0.47000000000E+01 0. -1.
<mgrwt>
<rscale>  0 0.27547252E+03</rscale>
<asrwt>0</asrwt>
<pdfrwt beam="1">  1        2 0.23225072E+00 0.27547252E+03</pdfrwt>
<pdfrwt beam="2">  1       -2 0.19333602E-02 0.27547252E+03</pdfrwt>
<totfact> 0.10957024E+04</totfact>
</mgrwt>
</event>
<event>
 9    1  0.2054950E-002  0.2746781E+03  0.7818608E-02  0.1098632E+00
          2   -1    0    0  501    0  0.00000000000E+00  0.00000000000E+00  0.34463479879E+02  0.34463479879E+02  0.00000000000E+00 0.  1.
         -2   -1    0    0    0  501 -0.00000000000E+00 -0.00000000000E+00 -0.54730425750E+03  0.54730425750E+03  0.00000000000E+00 0.  1.
         36    2    1    2    0    0  0.71054273576E-14 -0.71054273576E-14 -0.51284077763E+03  0.58176773738E+03  0.27467806076E+03 0.  0.
         25    2    3    3    0    0  0.17281703346E+02 -0.42483085892E+02 -0.29224790031E+03  0.32184998184E+03  0.12678764023E+03 0.  0.
         25    2    3    3    0    0 -0.17281703346E+02  0.42483085892E+02 -0.22059287732E+03  0.25991775555E+03  0.12958608054E+03 0.  0.
          5    1    4    4  502    0 -0.53433035641E+02 -0.31399625091E+02 -0.11687634629E+03  0.13237520944E+03  0.47000000000E+01 0. -1.
         -5    1    4    4    0  502  0.70714738986E+02 -0.11083460801E+02 -0.17537155402E+03  0.18947477239E+03  0.47000000000E+01 0. -1.
          5    1    5    5  503    0  0.12223986077E+02 -0.17760885949E+02 -0.18004640096E+03  0.18139369174E+03  0.47000000000E+01 0. -1.
         -5    1    5    5    0  503 -0.29505689422E+02  0.60243971842E+02 -0.40546476356E+02  0.78524063805E+02  0.47000000000E+01 0. -1.
<mgrwt>
<rscale>  0 0.27467806E+03</rscale>
<asrwt>0</asrwt>
<pdfrwt beam="1">  1        2 0.53020737E-02 0.27467806E+03</pdfrwt>
<pdfrwt beam="2">  1       -2 0.84200656E-01 0.27467806E+03</pdfrwt>
<totfact> 0.18449415E+03</totfact>
</mgrwt>
</event>
<event>
 9    1  0.2054950E-002  0.2753300E+03  0.7818608E-02  0.1098267E+00
          2   -1    0    0  501    0  0.00000000000E+00  0.00000000000E+00  0.24876962077E+03  0.24876962077E+03  0.00000000000E+00 0.  1.
         -2   -1    0    0    0  501 -0.00000000000E+00 -0.00000000000E+00 -0.76181551300E+02  0.76181551300E+02  0.00000000000E+00 0.  1.
         36    2    1    2    0    0  0.00000000000E+00  0.88817841970E-15  0.17258806947E+03  0.32495117207E+03  0.27533002471E+03 0.  0.
         25    2    3    3    0    0 -0.56293245977E+02  0.60565044919E+01  0.63453274368E+02  0.15199415974E+03  0.12597736216E+03 0.  0.
         25    2    3    3    0    0  0.56293245977E+02 -0.60565044919E+01  0.10913479510E+03  0.17295701233E+03  0.12164749822E+03 0.  0.
          5    1    4    4  502    0 -0.64622013922E+02  0.54368587509E+01  0.97183708620E+02  0.11692872760E+03  0.47000000000E+01 0. -1.
         -5    1    4    4    0  502  0.83287679445E+01  0.61964574091E+00 -0.33730434252E+02  0.35065432140E+02  0.47000000000E+01 0. -1.
          5    1    5    5  503    0  0.30050411339E+02 -0.63862445379E+01  0.13335954317E+03  0.13693308254E+03  0.47000000000E+01 0. -1.
         -5    1    5    5    0  503  0.26242834638E+02  0.32974004600E+00 -0.24224748068E+02  0.36023929787E+02  0.47000000000E+01 0. -1.
<mgrwt>
<rscale>  0 0.27533002E+03</rscale>
<asrwt>0</asrwt>
<pdfrwt beam="1">  1        2 0.38272249E-01 0.27533002E+03</pdfrwt>
<pdfrwt beam="2">  1       -2 0.11720239E-01 0.27533002E+03</pdfrwt>
<totfact> 0.68367378E+03</totfact>
</mgrwt>
</event>
<event>
 9    1  0.2054950E-002  0.2751545E+03  0.7818608E-02  0.1098365E+00
          1   -1    0    0  501    0  0.00000000000E+00  0.00000000000E+00  0.93377091818E+03  0.93377091818E+03  0.00000000000E+00 0.  1.
         -1   -1    0    0    0  501 -0.00000000000E+00 -0.00000000000E+00 -0.20269954916E+02  0.20269954916E+02  0.00000000000E+00 0.  1.
         36    2    1    2    0    0 -0.88817841970E-15  0.00000000000E+00  0.91350096327E+03  0.95404087310E+03  0.27515446144E+03 0.  0.
         25    2    3    3    0    0 -0.20867791065E+01 -0.38906088252E+02  0.32272428415E+03  0.34897799436E+03  0.12695132381E+03 0.  0.
         25    2    3    3    0    0  0.20867791065E+01  0.38906088252E+02  0.59077667912E+03  0.60506287874E+03  0.12476363368E+03 0.  0.
          5    1    4    4  502    0  0.70543154100E+01 -0.78124050845E+02  0.12894860383E+03  0.15100650024E+03  0.47000000000E+01 0.  1.
         -5    1    4    4    0  502 -0.91410945165E+01  0.39217962593E+02  0.19377568032E+03  0.19797149411E+03  0.47000000000E+01 0.  1.
          5    1    5    5  503    0  0.50421930940E+00  0.49016547558E+02  0.59171688453E+03  0.59376244207E+03  0.47000000000E+01 0.  1.
         -5    1    5    5    0  503  0.15825597971E+01 -0.10110459306E+02 -0.94020540670E+00  0.11300436677E+02  0.47000000000E+01 0.  1.
<mgrwt>
<rscale>  0 0.27515446E+03</rscale>
<asrwt>0</asrwt>
<pdfrwt beam="1">  1        1 0.14365703E+00 0.27515446E+03</pdfrwt>
<pdfrwt beam="2">  1       -1 0.31184553E-02 0.27515446E+03</pdfrwt>
<totfact> 0.63933145E+03</totfact>
</mgrwt>
</event>
<event>
 9    1  0.2054950E-002  0.2750530E+03  0.7818608E-02  0.1098422E+00
          1   -1    0    0  501    0  0.00000000000E+00  0.00000000000E+00  0.22097777140E+02  0.22097777140E+02  0.00000000000E+00 0. -1.
         -1   -1    0    0    0  501 -0.00000000000E+00 -0.00000000000E+00 -0.85590251217E+03  0.85590251217E+03  0.00000000000E+00 0. -1.
         36    2    1    2    0    0  0.17763568394E-14  0.00000000000E+00 -0.83380473503E+03  0.87800028931E+03  0.27505303465E+03 0.  0.
         25    2    3    3    0    0  0.11778933498E+02  0.67378863866E+01 -0.25115075332E+03  0.28033911880E+03  0.12381105867E+03 0.  0.
         25    2    3    3    0    0 -0.11778933498E+02 -0.67378863866E+01 -0.58265398172E+03  0.59766117052E+03  0.13239739402E+03 0.  0.
          5    1    4    4  502    0 -0.43167859745E+02  0.34168514030E+02 -0.71107004625E+02  0.90051360749E+02  0.47000000000E+01 0.  1.
         -5    1    4    4    0  502  0.54946793243E+02 -0.27430627644E+02 -0.18004374869E+03  0.19028775805E+03  0.47000000000E+01 0.  1.
          5    1    5    5  503    0 -0.25880882435E+02 -0.60817520744E+02 -0.42908383268E+03  0.43417003163E+03  0.47000000000E+01 0.  1.
         -5    1    5    5    0  503  0.14101948937E+02  0.54079634358E+02 -0.15357014904E+03  0.16349113888E+03  0.47000000000E+01 0.  1.
<mgrwt>
<rscale>  0 0.27505303E+03</rscale>
<asrwt>0</asrwt>
<pdfrwt beam="1">  1        1 0.33996584E-02 0.27505303E+03</pdfrwt>
<pdfrwt beam="2">  1       -1 0.13167730E+00 0.27505303E+03</pdfrwt>
<totfact> 0.15063952E+03</totfact>
</mgrwt>
</event>
<event>
 9    1  0.2054950E-002  0.2754091E+03  0.7818608E-02  0.1098223E+00
          2   -1    0    0  501    0  0.00000000000E+00  0.00000000000E+00  0.38706245363E+02  0.38706245363E+02  0.00000000000E+00 0.  1.
         -2   -1    0    0    0  501 -0.00000000000E+00 -0.00000000000E+00 -0.48990930907E+03  0.48990930907E+03  0.00000000000E+00 0.  1.
         36    2    1    2    0    0  0.00000000000E+00  0.00000000000E+00 -0.45120306370E+03  0.52861555443E+03  0.27540914961E+03 0.  0.
         25    2    3    3    0    0 -0.14913195068E+02 -0.55814989016E+02 -0.18723698082E+03  0.23287030759E+03  0.12582995184E+03 0.  0.
         25    2    3    3    0    0  0.14913195068E+02  0.55814989016E+02 -0.26396608288E+03  0.29574524684E+03  0.12020583070E+03 0.  0.
          5    1    4    4  502    0  0.14699347415E+02 -0.77298996369E+02 -0.17825690313E+03  0.19490720656E+03  0.47000000000E+01 0.  1.
         -5    1    4    4    0  502 -0.29612542483E+02  0.21484007353E+02 -0.89800776913E+01  0.37963101027E+02  0.47000000000E+01 0.  1.
          5    1    5    5  503    0 -0.53834079590E+01  0.23937013530E+02 -0.25551939297E+03  0.25673763238E+03  0.47000000000E+01 0. -1.
         -5    1    5    5    0  503  0.20296603027E+02  0.31877975486E+02 -0.84466899103E+01  0.39007614462E+02  0.47000000000E+01 0. -1.
<mgrwt>
<rscale>  0 0.27540915E+03</rscale>
<asrwt>0</asrwt>
<pdfrwt beam="1">  1        2 0.59548071E-02 0.27540915E+03</pdfrwt>
<pdfrwt beam="2">  1       -2 0.75370662E-01 0.27540915E+03</pdfrwt>
<totfact> 0.20228170E+03</totfact>
</mgrwt>
</event>
<event>
 9    1  0.2054950E-002  0.2705623E+03  0.7818608E-02  0.1100958E+00
          2   -1    0    0  501    0  0.00000000000E+00  0.00000000000E+00  0.92286952644E+03  0.92286952644E+03  0.00000000000E+00 0. -1.
         -2   -1    0    0    0  501 -0.00000000000E+00 -0.00000000000E+00 -0.19830534705E+02  0.19830534705E+02  0.00000000000E+00 0. -1.
         36    2    1    2    0    0  0.28421709430E-13 -0.35527136788E-14  0.90303899173E+03  0.94270006114E+03  0.27056234898E+03 0.  0.
         25    2    3    3    0    0  0.67840888178E+02 -0.74603950576E+01  0.40299786541E+03  0.42766512113E+03  0.12582580298E+03 0.  0.
         25    2    3    3    0    0 -0.67840888178E+02  0.74603950576E+01  0.50004112632E+03  0.51503494002E+03  0.10277070509E+03 0.  0.
          5    1    4    4  502    0  0.60951182865E+02  0.51233578485E+02  0.27977810002E+03  0.29092576632E+03  0.47000000000E+01 0. -1.
         -5    1    4    4    0  502  0.68897053128E+01 -0.58693973542E+02  0.12321976539E+03  0.13673935480E+03  0.47000000000E+01 0. -1.
          5    1    5    5  503    0 -0.25125307823E+02  0.28530113783E+02  0.42023784835E+03  0.42198007971E+03  0.47000000000E+01 0. -1.
         -5    1    5    5    0  503 -0.42715580355E+02 -0.21069718725E+02  0.79803277970E+02  0.93054860308E+02  0.47000000000E+01 0. -1.
<mgrwt>
<rscale>  0 0.27056235E+03</rscale>
<asrwt>0</asrwt>
<pdfrwt beam="1">  1        2 0.14197989E+00 0.27056235E+03</pdfrwt>
<pdfrwt beam="2">  1       -2 0.30508522E-02 0.27056235E+03</pdfrwt>
<totfact> 0.12084184E+04</totfact>
</mgrwt>
</event>
<event>
 9    1  0.2054950E-002  0.2746604E+03  0.7818608E-02  0.1098642E+00
         -2   -1    0    0    0  501 -0.00000000000E+00  0.00000000000E+00  0.43961772358E+02  0.43961772358E+02  0.00000000000E+00 0.  1.
          2   -1    0    0  501    0  0.00000000000E+00 -0.00000000000E+00 -0.42899959221E+03  0.42899959221E+03  0.00000000000E+00 0.  1.
         36    2    1    2    0    0  0.00000000000E+00  0.71054273576E-14 -0.38503781985E+03  0.47296136457E+03  0.27466038968E+03 0.  0.
         25    2    3    3    0    0 -0.12593882153E+02  0.44088400375E+02 -0.25783102784E+03  0.29034037085E+03  0.12537264100E+03 0.  0.
         25    2    3    3    0    0  0.12593882153E+02 -0.44088400375E+02 -0.12720679201E+03  0.18262099372E+03  0.12274553555E+03 0.  0.
          5    1    4    4  502    0  0.54486441697E+02  0.33862298873E+02 -0.10634947067E+03  0.12428888738E+03  0.47000000000E+01 0.  1.
         -5    1    4    4    0  502 -0.67080323850E+02  0.10226101502E+02 -0.15148155717E+03  0.16605148347E+03  0.47000000000E+01 0.  1.
          5    1    5    5  503    0  0.43205621811E+01 -0.75375134985E+02 -0.12935427522E+03  0.14984891307E+03  0.47000000000E+01 0. -1.
         -5    1    5    5    0  503  0.82733199721E+01  0.31286734610E+02  0.21474832072E+01  0.32772080649E+02  0.47000000000E+01 0. -1.
<mgrwt>
<rscale>  0 0.27466039E+03</rscale>
<asrwt>0</asrwt>
<pdfrwt beam="1">  1        2 0.65999935E-01 0.27466039E+03</pdfrwt>
<pdfrwt beam="2">  1       -2 0.67633498E-02 0.27466039E+03</pdfrwt>
<totfact> 0.90259438E+03</totfact>
</mgrwt>
</event>
<event>
 9    1  0.2054950E-002  0.2746742E+03  0.7818608E-02  0.1098634E+00
          2   -1    0    0  501    0  0.00000000000E+00  0.00000000000E+00  0.23183218354E+03  0.23183218354E+03  0.00000000000E+00 0. -1.
         -2   -1    0    0    0  501 -0.00000000000E+00 -0.00000000000E+00 -0.81358313649E+02  0.81358313649E+02  0.00000000000E+00 0. -1.
         36    2    1    2    0    0  0.35527136788E-14 -0.71054273576E-14  0.15047386989E+03  0.31319049719E+03  0.27467417427E+03 0.  0.
         25    2    3    3    0    0  0.10362693445E+02  0.33964118393E+02  0.12307454193E+03  0.17974894743E+03  0.12610073147E+03 0.  0.
         25    2    3    3    0    0 -0.10362693445E+02 -0.33964118393E+02  0.27399327957E+02  0.13344154975E+03  0.12567806998E+03 0.  0.
          5    1    4    4  502    0 -0.35754651010E+01  0.79700747000E+02  0.57485405827E+02  0.98446203107E+02  0.47000000000E+01 0. -1.
         -5    1    4    4    0  502  0.13938158546E+02 -0.45736628607E+02  0.65589136104E+02  0.81302744326E+02  0.47000000000E+01 0. -1.
          5    1    5    5  503    0  0.36650041037E+02  0.29285440202E+02 -0.63659616754E+01  0.47576023204E+02  0.47000000000E+01 0. -1.
         -5    1    5    5    0  503 -0.47012734482E+02 -0.63249558595E+02  0.33765289632E+02  0.85865526551E+02  0.47000000000E+01 0. -1.
<mgrwt>
<rscale>  0 0.27467417E+03</rscale>
<asrwt>0</asrwt>
<pdfrwt beam="1">  1        2 0.35666490E-01 0.27467417E+03</pdfrwt>
<pdfrwt beam="2">  1       -2 0.12516664E-01 0.27467417E+03</pdfrwt>
<totfact> 0.66347740E+03</totfact>
</mgrwt>
</event>
<event>
 9    1  0.2054950E-002  0.2739778E+03  0.7818608E-02  0.1099024E+00
          1   -1    0    0  501    0  0.00000000000E+00  0.00000000000E+00  0.15365440499E+03  0.15365440499E+03  0.00000000000E+00 0.  1.
         -1   -1    0    0    0  501 -0.00000000000E+00 -0.00000000000E+00 -0.12213093594E+03  0.12213093594E+03  0.00000000000E+00 0.  1.
         36    2    1    2    0    0 -0.71054273576E-14 -0.14210854715E-13  0.31523469053E+02  0.27578534093E+03  0.27397778226E+03 0.  0.
         25    2    3    3    0    0  0.25755862336E+02  0.43585692306E+02 -0.10750841310E+02  0.13704426327E+03  0.12689551800E+03 0.  0.
         25    2    3    3    0    0 -0.25755862336E+02 -0.43585692306E+02  0.42274310363E+02  0.13874107766E+03  0.12206101874E+03 0.  0.
          5    1    4    4  502    0  0.19964772352E+02 -0.14709699158E+02 -0.56947726833E+02  0.62290456539E+02  0.47000000000E+01 0.  1.
         -5    1    4    4    0  502  0.57910899847E+01  0.58295391463E+02  0.46196885523E+02  0.74753806733E+02  0.47000000000E+01 0.  1.
          5    1    5    5  503    0 -0.56289686685E+01  0.25416074331E+02 -0.27711153292E+02  0.38310052720E+02  0.47000000000E+01 0.  1.
         -5    1    5    5    0  503 -0.20126893668E+02 -0.69001766636E+02  0.69985463655E+02  0.10043102494E+03  0.47000000000E+01 0.  1.
<mgrwt>
<rscale>  0 0.27397778E+03</rscale>
<asrwt>0</asrwt>
<pdfrwt beam="1">  1        1 0.23639139E-01 0.27397778E+03</pdfrwt>
<pdfrwt beam="2">  1       -1 0.18789375E-01 0.27397778E+03</pdfrwt>
<totfact> 0.45614758E+03</totfact>
</mgrwt>
</event>
<event>
 9    1  0.2054950E-002  0.2735769E+03  0.7818608E-02  0.1099250E+00
          2   -1    0    0  501    0  0.00000000000E+00  0.00000000000E+00  0.75188611511E+03  0.75188611511E+03  0.00000000000E+00 0. -1.
         -2   -1    0    0    0  501 -0.00000000000E+00 -0.00000000000E+00 -0.24885528691E+02  0.24885528691E+02  0.00000000000E+00 0. -1.
         36    2    1    2    0    0  0.00000000000E+00  0.17763568394E-14  0.72700058642E+03  0.77677164380E+03  0.27357692512E+03 0.  0.
         25    2    3    3    0    0  0.39259949411E+02 -0.23459099236E+01  0.44775704069E+03  0.46760818532E+03  0.12893486949E+03 0.  0.
         25    2    3    3    0    0 -0.39259949411E+02  0.23459099236E+01  0.27924354573E+03  0.30916345848E+03  0.12672110837E+03 0.  0.
          5    1    4    4  502    0 -0.35221828149E+02  0.61157170432E+01  0.29696717662E+03  0.29914807899E+03  0.47000000000E+01 0.  1.
         -5    1    4    4    0  502  0.74481777560E+02 -0.84616269668E+01  0.15078986407E+03  0.16846010633E+03  0.47000000000E+01 0.  1.
          5    1    5    5  503    0  0.31546632433E+02 -0.34764010364E+02  0.14880161533E+03  0.15610168852E+03  0.47000000000E+01 0. -1.
         -5    1    5    5    0  503 -0.70806581844E+02  0.37109920288E+02  0.13044193040E+03  0.15306176996E+03  0.47000000000E+01 0. -1.
<mgrwt>
<rscale>  0 0.27357693E+03</rscale>
<asrwt>0</asrwt>
<pdfrwt beam="1">  1        2 0.11567477E+00 0.27357693E+03</pdfrwt>
<pdfrwt beam="2">  1       -2 0.38285435E-02 0.27357693E+03</pdfrwt>
<totfact> 0.11226207E+04</totfact>
</mgrwt>
</event>
<event>
 9    1  0.2054950E-002  0.2770096E+03  0.7818608E-02  0.1097334E+00
          1   -1    0    0  501    0  0.00000000000E+00  0.00000000000E+00  0.16995762697E+04  0.16995762697E+04  0.00000000000E+00 0. -1.
         -1   -1    0    0    0  501 -0.00000000000E+00 -0.00000000000E+00 -0.11287270913E+02  0.11287270913E+02  0.00000000000E+00 0. -1.
         36    2    1    2    0    0  0.00000000000E+00  0.71054273576E-14  0.16882889988E+04  0.17108635406E+04  0.27700958679E+03 0.  0.
         25    2    3    3    0    0 -0.48321406207E+02  0.21731833977E+02  0.93687781152E+03  0.94706908025E+03  0.12803350398E+03 0.  0.
         25    2    3    3    0    0  0.48321406207E+02 -0.21731833977E+02  0.75141118727E+03  0.76379446037E+03  0.12631696017E+03 0.  0.
          5    1    4    4  502    0 -0.77629537573E+01  0.36846058217E+02  0.74636441276E+02  0.83729229206E+02  0.47000000000E+01 0.  1.
         -5    1    4    4    0  502 -0.40558452450E+02 -0.15114224240E+02  0.86224137024E+03  0.86333985104E+03  0.47000000000E+01 0.  1.
          5    1    5    5  503    0  0.70540957667E+02 -0.59508621988E+02  0.47753624466E+03  0.48639516626E+03  0.47000000000E+01 0. -1.
         -5    1    5    5    0  503 -0.22219551460E+02  0.37776788011E+02  0.27387494261E+03  0.27739929410E+03  0.47000000000E+01 0. -1.
<mgrwt>
<rscale>  0 0.27700959E+03</rscale>
<asrwt>0</asrwt>
<pdfrwt beam="1">  1        1 0.26147307E+00 0.27700959E+03</pdfrwt>
<pdfrwt beam="2">  1       -1 0.17365046E-02 0.27700959E+03</pdfrwt>
<totfact> 0.44599666E+03</totfact>
</mgrwt>
</event>
<event>
 9    1  0.2054950E-002  0.2743531E+03  0.7818608E-02  0.1098814E+00
         -2   -1    0    0    0  501 -0.00000000000E+00  0.00000000000E+00  0.19518112830E+03  0.19518112830E+03  0.00000000000E+00 0.  1.
          2   -1    0    0  501    0  0.00000000000E+00 -0.00000000000E+00 -0.96409999608E+02  0.96409999608E+02  0.00000000000E+00 0.  1.
         36    2    1    2    0    0  0.00000000000E+00  0.00000000000E+00  0.98771128690E+02  0.29159112790E+03  0.27435314835E+03 0.  0.
         25    2    3    3    0    0 -0.51829868695E+02 -0.56090041823E+01  0.26363084347E+02  0.13811915399E+03  0.12515627138E+03 0.  0.
         25    2    3    3    0    0  0.51829868695E+02  0.56090041823E+01  0.72408044342E+02  0.15347197392E+03  0.12487163679E+03 0.  0.
          5    1    4    4  502    0 -0.18010294028E+02 -0.61225405009E+02 -0.77843161593E+01  0.64463993729E+02  0.47000000000E+01 0. -1.
         -5    1    4    4    0  502 -0.33819574667E+02  0.55616400827E+02  0.34147400507E+02  0.73655160260E+02  0.47000000000E+01 0. -1.
          5    1    5    5  503    0  0.57448384818E+02  0.50731961659E+02  0.75457467020E+02  0.10765671452E+03  0.47000000000E+01 0. -1.
         -5    1    5    5    0  503 -0.56185161225E+01 -0.45122957477E+02 -0.30494226776E+01  0.45815259396E+02  0.47000000000E+01 0. -1.
<mgrwt>
<rscale>  0 0.27435315E+03</rscale>
<asrwt>0</asrwt>
<pdfrwt beam="1">  1        2 0.14832308E-01 0.27435315E+03</pdfrwt>
<pdfrwt beam="2">  1       -2 0.30027866E-01 0.27435315E+03</pdfrwt>
<totfact> 0.40096001E+03</totfact>
</mgrwt>
</event>
<event>
 9    1  0.2054950E-002  0.2749579E+03  0.7818608E-02  0.1098475E+00
          4   -1    0    0  501    0  0.00000000000E+00  0.00000000000E+00  0.21984188589E+02  0.21984188589E+02  0.00000000000E+00 0. -1.
         -4   -1    0    0    0  501 -0.00000000000E+00 -0.00000000000E+00 -0.85972971147E+03  0.85972971147E+03  0.00000000000E+00 0. -1.
         36    2    1    2    0    0  0.22204460493E-14  0.00000000000E+00 -0.83774552289E+03  0.88171390006E+03  0.27495788850E+03 0.  0.
         25    2    3    3    0    0  0.19085007778E+01  0.35447346115E+01 -0.62483374491E+03  0.63656368136E+03  0.12157262906E+03 0.  0.
         25    2    3    3    0    0 -0.19085007778E+01 -0.35447346115E+01 -0.21291177798E+03  0.24515021870E+03  0.12145368256E+03 0.  0.
          5    1    4    4  502    0  0.46902209279E+01  0.61098912926E+02 -0.38406592238E+03  0.38895217966E+03  0.47000000000E+01 0.  1.
         -5    1    4    4    0  502 -0.27817201501E+01 -0.57554178315E+02 -0.24076782253E+03  0.24761150170E+03  0.47000000000E+01 0.  1.
          5    1    5    5  503    0  0.25619254504E+02 -0.41543018929E+02 -0.18265413309E+03  0.18912110130E+03  0.47000000000E+01 0.  1.
         -5    1    5    5    0  503 -0.27527755282E+02  0.37998284317E+02 -0.30257644886E+02  0.56029117394E+02  0.47000000000E+01 0.  1.
<mgrwt>
<rscale>  0 0.27495789E+03</rscale>
<asrwt>0</asrwt>
<pdfrwt beam="1">  1        4 0.33821833E-02 0.27495789E+03</pdfrwt>
<pdfrwt beam="2">  1       -4 0.13226609E+00 0.27495789E+03</pdfrwt>
<totfact> 0.36368327E+02</totfact>
</mgrwt>
</event>
<event>
 9    1  0.2054950E-002  0.2751082E+03  0.7818608E-02  0.1098391E+00
         -2   -1    0    0    0  501 -0.00000000000E+00  0.00000000000E+00  0.93957126987E+02  0.93957126987E+02  0.00000000000E+00 0. -1.
          2   -1    0    0  501    0  0.00000000000E+00 -0.00000000000E+00 -0.20138050949E+03  0.20138050949E+03  0.00000000000E+00 0. -1.
         36    2    1    2    0    0  0.71054273576E-14 -0.71054273576E-14 -0.10742338250E+03  0.29533763647E+03  0.27510822672E+03 0.  0.
         25    2    3    3    0    0  0.50770539676E+01  0.46302514391E+02 -0.40673131864E+02  0.14801652100E+03  0.13448006365E+03 0.  0.
         25    2    3    3    0    0 -0.50770539676E+01 -0.46302514391E+02 -0.66750250636E+02  0.14732111547E+03  0.12279338658E+03 0.  0.
          5    1    4    4  502    0 -0.63997446795E+02  0.29543225227E+02 -0.14431565995E+02  0.72102950357E+02  0.47000000000E+01 0. -1.
         -5    1    4    4    0  502  0.69074500763E+02  0.16759289164E+02 -0.26241565869E+02  0.75913570646E+02  0.47000000000E+01 0. -1.
          5    1    5    5  503    0 -0.27461421116E+02 -0.70547734963E+02 -0.36250522148E+01  0.75936444226E+02  0.47000000000E+01 0. -1.
         -5    1    5    5    0  503  0.22384367148E+02  0.24245220571E+02 -0.63125198421E+02  0.71384671246E+02  0.47000000000E+01 0. -1.
<mgrwt>
<rscale>  0 0.27510823E+03</rscale>
<asrwt>0</asrwt>
<pdfrwt beam="1">  1        2 0.30981617E-01 0.27510823E+03</pdfrwt>
<pdfrwt beam="2">  1       -2 0.14454943E-01 0.27510823E+03</pdfrwt>
<totfact> 0.61143123E+03</totfact>
</mgrwt>
</event>
<event>
 9    1  0.2054950E-002  0.2756843E+03  0.7818608E-02  0.1098070E+00
          2   -1    0    0  501    0  0.00000000000E+00  0.00000000000E+00  0.13076958833E+04  0.13076958833E+04  0.00000000000E+00 0. -1.
         -2   -1    0    0    0  501 -0.00000000000E+00 -0.00000000000E+00 -0.14529722061E+02  0.14529722061E+02  0.00000000000E+00 0. -1.
         36    2    1    2    0    0 -0.14210854715E-13 -0.35527136788E-14  0.12931661612E+04  0.13222256053E+04  0.27568429570E+03 0.  0.
         25    2    3    3    0    0 -0.55720222109E+02 -0.25920011726E+02  0.70604267250E+03  0.71897365674E+03  0.12103831430E+03 0.  0.
         25    2    3    3    0    0  0.55720222109E+02  0.25920011726E+02  0.58712348873E+03  0.60325194861E+03  0.12418668338E+03 0.  0.
          5    1    4    4  502    0 -0.63090805102E+02 -0.13294707148E+02  0.69916532257E+03  0.70214773176E+03  0.47000000000E+01 0. -1.
         -5    1    4    4    0  502  0.73705829932E+01 -0.12625304578E+02  0.68773499303E+01  0.16825924979E+02  0.47000000000E+01 0. -1.
          5    1    5    5  503    0 -0.18175779903E+02  0.24744938932E+02  0.37641067358E+02  0.48801751297E+02  0.47000000000E+01 0. -1.
         -5    1    5    5    0  503  0.73896002011E+02  0.11750727947E+01  0.54948242137E+03  0.55445019732E+03  0.47000000000E+01 0. -1.
<mgrwt>
<rscale>  0 0.27568430E+03</rscale>
<asrwt>0</asrwt>
<pdfrwt beam="1">  1        2 0.20118389E+00 0.27568430E+03</pdfrwt>
<pdfrwt beam="2">  1       -2 0.22353429E-02 0.27568430E+03</pdfrwt>
<totfact> 0.11388905E+04</totfact>
</mgrwt>
</event>
<event>
 9    1  0.2054950E-002  0.2746862E+03  0.7818608E-02  0.1098627E+00
          2   -1    0    0  501    0  0.00000000000E+00  0.00000000000E+00  0.42509707478E+02  0.42509707478E+02  0.00000000000E+00 0.  1.
         -2   -1    0    0    0  501 -0.00000000000E+00 -0.00000000000E+00 -0.44373697406E+03  0.44373697406E+03  0.00000000000E+00 0.  1.
         36    2    1    2    0    0  0.71054273576E-14 -0.35527136788E-14 -0.40122726659E+03  0.48624668154E+03  0.27468621345E+03 0.  0.
         25    2    3    3    0    0 -0.50621232500E+02  0.92035038502E+01 -0.21490227876E+03  0.25538612530E+03  0.12803073817E+03 0.  0.
         25    2    3    3    0    0  0.50621232500E+02 -0.92035038502E+01 -0.18632498783E+03  0.23086055624E+03  0.12622353852E+03 0.  0.
          5    1    4    4  502    0 -0.79988184499E+02  0.17087441119E+01 -0.67367816701E+02  0.10469738389E+03  0.47000000000E+01 0. -1.
         -5    1    4    4    0  502  0.29366951999E+02  0.74947597383E+01 -0.14753446206E+03  0.15068874141E+03  0.47000000000E+01 0. -1.
          5    1    5    5  503    0  0.28632126156E+02 -0.25253000438E+02  0.38790778684E+01  0.38660702586E+02  0.47000000000E+01 0.  1.
         -5    1    5    5    0  503  0.21989106344E+02  0.16049496588E+02 -0.19020406570E+03  0.19219985366E+03  0.47000000000E+01 0.  1.
<mgrwt>
<rscale>  0 0.27468621E+03</rscale>
<asrwt>0</asrwt>
<pdfrwt beam="1">  1        2 0.65399553E-02 0.27468621E+03</pdfrwt>
<pdfrwt beam="2">  1       -2 0.68267223E-01 0.27468621E+03</pdfrwt>
<totfact> 0.22160400E+03</totfact>
</mgrwt>
</event>
<event>
 9    1  0.2054950E-002  0.2754122E+03  0.7818608E-02  0.1098221E+00
          1   -1    0    0  501    0  0.00000000000E+00  0.00000000000E+00  0.57038276024E+02  0.57038276024E+02  0.00000000000E+00 0. -1.
         -1   -1    0    0    0  501 -0.00000000000E+00 -0.00000000000E+00 -0.33246052690E+03  0.33246052690E+03  0.00000000000E+00 0. -1.
         36    2    1    2    0    0  0.35527136788E-14  0.35527136788E-14 -0.27542225087E+03  0.38949880292E+03  0.27541223865E+03 0.  0.
         25    2    3    3    0    0 -0.18765193920E+02 -0.20009394947E+02 -0.20893185424E+03  0.24400349406E+03  0.12301494628E+03 0.  0.
         25    2    3    3    0    0  0.18765193920E+02  0.20009394947E+02 -0.66490396638E+02  0.14549530887E+03  0.12647293650E+03 0.  0.
          5    1    4    4  502    0  0.14779761643E+01 -0.49620730339E+02 -0.20083445000E+03  0.20693227781E+03  0.47000000000E+01 0.  1.
         -5    1    4    4    0  502 -0.20243170084E+02  0.29611335392E+02 -0.80974042395E+01  0.37071216249E+02  0.47000000000E+01 0.  1.
          5    1    5    5  503    0  0.21414876297E+02  0.28259154894E+02  0.31106856266E+02  0.47401511252E+02  0.47000000000E+01 0. -1.
         -5    1    5    5    0  503 -0.26496823772E+01 -0.82497599472E+01 -0.97597252905E+02  0.98093797614E+02  0.47000000000E+01 0. -1.
<mgrwt>
<rscale>  0 0.27541224E+03</rscale>
<asrwt>0</asrwt>
<pdfrwt beam="1">  1        1 0.87751195E-02 0.27541224E+03</pdfrwt>
<pdfrwt beam="2">  1       -1 0.51147773E-01 0.27541224E+03</pdfrwt>
<totfact> 0.30067068E+03</totfact>
</mgrwt>
</event>
<event>
 9    1  0.2054950E-002  0.2755070E+03  0.7818608E-02  0.1098169E+00
         -1   -1    0    0    0  501 -0.00000000000E+00  0.00000000000E+00  0.12104212087E+02  0.12104212087E+02  0.00000000000E+00 0. -1.
          1   -1    0    0  501    0  0.00000000000E+00 -0.00000000000E+00 -0.15677208437E+04  0.15677208437E+04  0.00000000000E+00 0. -1.
         36    2    1    2    0    0  0.71054273576E-14  0.00000000000E+00 -0.15556166316E+04  0.15798250558E+04  0.27550699146E+03 0.  0.
         25    2    3    3    0    0 -0.22073628986E+02  0.32451148998E+02 -0.53528146858E+03  0.55139534630E+03  0.12637347484E+03 0.  0.
         25    2    3    3    0    0  0.22073628986E+02 -0.32451148998E+02 -0.10203351630E+04  0.10284297095E+04  0.12265194771E+03 0.  0.
          5    1    4    4  502    0  0.49207790105E+02  0.15526186343E+02 -0.13839095133E+03  0.14777217085E+03  0.47000000000E+01 0.  1.
         -5    1    4    4    0  502 -0.71281419091E+02  0.16924962654E+02 -0.39689051726E+03  0.40362317544E+03  0.47000000000E+01 0.  1.
          5    1    5    5  503    0  0.44576808869E+02 -0.91533449128E+01 -0.94720570201E+03  0.94830986894E+03  0.47000000000E+01 0.  1.
         -5    1    5    5    0  503 -0.22503179884E+02 -0.23297804085E+02 -0.73129460999E+02  0.80119840527E+02  0.47000000000E+01 0.  1.
<mgrwt>
<rscale>  0 0.27550699E+03</rscale>
<asrwt>0</asrwt>
<pdfrwt beam="1">  1        1 0.24118778E+00 0.27550699E+03</pdfrwt>
<pdfrwt beam="2">  1       -1 0.18621868E-02 0.27550699E+03</pdfrwt>
<totfact> 0.49139415E+03</totfact>
</mgrwt>
</event>
<event>
 9    1  0.2054950E-002  0.2751739E+03  0.7818608E-02  0.1098354E+00
         -1   -1    0    0    0  501 -0.00000000000E+00  0.00000000000E+00  0.40464898004E+02  0.40464898004E+02  0.00000000000E+00 0. -1.
          1   -1    0    0  501    0  0.00000000000E+00 -0.00000000000E+00 -0.46781706663E+03  0.46781706663E+03  0.00000000000E+00 0. -1.
         36    2    1    2    0    0  0.00000000000E+00 -0.35527136788E-14 -0.42735216863E+03  0.50828196464E+03  0.27517390782E+03 0.  0.
         25    2    3    3    0    0 -0.11639339203E+02 -0.30604059139E+02 -0.31648675471E+03  0.34481437299E+03  0.13289470743E+03 0.  0.
         25    2    3    3    0    0  0.11639339203E+02  0.30604059139E+02 -0.11086541392E+03  0.16346759165E+03  0.11557867823E+03 0.  0.
          5    1    4    4  502    0  0.26474145550E+02 -0.34906053232E+02 -0.29929390170E+03  0.30251982171E+03  0.47000000000E+01 0.  1.
         -5    1    4    4    0  502 -0.38113484753E+02  0.43019940931E+01 -0.17192853009E+02  0.42294551278E+02  0.47000000000E+01 0.  1.
          5    1    5    5  503    0  0.39192634853E+02  0.22827733113E+02  0.32569577215E+01  0.45715050032E+02  0.47000000000E+01 0. -1.
         -5    1    5    5    0  503 -0.27553295651E+02  0.77763260262E+01 -0.11412237164E+03  0.11775254162E+03  0.47000000000E+01 0. -1.
<mgrwt>
<rscale>  0 0.27517391E+03</rscale>
<asrwt>0</asrwt>
<pdfrwt beam="1">  1        1 0.71971860E-01 0.27517391E+03</pdfrwt>
<pdfrwt beam="2">  1       -1 0.62253686E-02 0.27517391E+03</pdfrwt>
<totfact> 0.62028808E+03</totfact>
</mgrwt>
</event>
<event>
 9    1  0.2054950E-002  0.2809179E+03  0.7818608E-02  0.1095189E+00
         -1   -1    0    0    0  501 -0.00000000000E+00  0.00000000000E+00  0.19066932578E+02  0.19066932578E+02  0.00000000000E+00 0. -1.
          1   -1    0    0  501    0  0.00000000000E+00 -0.00000000000E+00 -0.10347083150E+04  0.10347083150E+04  0.00000000000E+00 0. -1.
         36    2    1    2    0    0  0.71054273576E-14  0.00000000000E+00 -0.10156413825E+04  0.10537752476E+04  0.28091787897E+03 0.  0.
         25    2    3    3    0    0 -0.45943129035E+02 -0.32988687325E+02 -0.65537863648E+03  0.66765152835E+03  0.11418573276E+03 0.  0.
         25    2    3    3    0    0  0.45943129035E+02  0.32988687325E+02 -0.36026274598E+03  0.38612371926E+03  0.12689860455E+03 0.  0.
          5    1    4    4  502    0  0.14374790393E+02 -0.57441941999E+02 -0.24379256419E+03  0.25092452183E+03  0.47000000000E+01 0. -1.
         -5    1    4    4    0  502 -0.60317919427E+02  0.24453254674E+02 -0.41158607229E+03  0.41672700653E+03  0.47000000000E+01 0. -1.
          5    1    5    5  503    0 -0.15622346745E+02 -0.23314645674E+01 -0.27320053041E+03  0.27369711957E+03  0.47000000000E+01 0.  1.
         -5    1    5    5    0  503  0.61565475780E+02  0.35320151892E+02 -0.87062215571E+02  0.11242659969E+03  0.47000000000E+01 0.  1.
<mgrwt>
<rscale>  0 0.28091788E+03</rscale>
<asrwt>0</asrwt>
<pdfrwt beam="1">  1        1 0.15918588E+00 0.28091788E+03</pdfrwt>
<pdfrwt beam="2">  1       -1 0.29333746E-02 0.28091788E+03</pdfrwt>
<totfact> 0.58747024E+03</totfact>
</mgrwt>
</event>
<event>
 9    1  0.2054950E-002  0.2734576E+03  0.7818608E-02  0.1099317E+00
         -1   -1    0    0    0  501 -0.00000000000E+00  0.00000000000E+00  0.55580300196E+03  0.55580300196E+03  0.00000000000E+00 0.  1.
          1   -1    0    0  501    0  0.00000000000E+00 -0.00000000000E+00 -0.33635598776E+02  0.33635598776E+02  0.00000000000E+00 0.  1.
         36    2    1    2    0    0  0.35527136788E-14 -0.71054273576E-14  0.52216740318E+03  0.58943860074E+03  0.27345761480E+03 0.  0.
         25    2    3    3    0    0  0.18663035731E+01 -0.36329222454E+02  0.21864771226E+03  0.25914337044E+03  0.13425784473E+03 0.  0.
         25    2    3    3    0    0 -0.18663035731E+01  0.36329222454E+02  0.30351969092E+03  0.33029523030E+03  0.12508973134E+03 0.  0.
          5    1    4    4  502    0 -0.18495103543E+02 -0.66791174716E+02  0.21001885988E+03  0.22120836643E+03  0.47000000000E+01 0.  1.
         -5    1    4    4    0  502  0.20361407116E+02  0.30461952262E+02  0.86288523823E+01  0.37935004004E+02  0.47000000000E+01 0.  1.
          5    1    5    5  503    0 -0.37404200865E+02 -0.33629584154E+02  0.97990124914E+02  0.11024598747E+03  0.47000000000E+01 0. -1.
         -5    1    5    5    0  503  0.35537897292E+02  0.69958806608E+02  0.20552956601E+03  0.22004924283E+03  0.47000000000E+01 0. -1.
<mgrwt>
<rscale>  0 0.27345761E+03</rscale>
<asrwt>0</asrwt>
<pdfrwt beam="1">  1        1 0.51747079E-02 0.27345761E+03</pdfrwt>
<pdfrwt beam="2">  1       -1 0.85508148E-01 0.27345761E+03</pdfrwt>
<totfact> 0.22458741E+03</totfact>
</mgrwt>
</event>
<event>
 9    1  0.2054950E-002  0.2749180E+03  0.7818608E-02  0.1098497E+00
         -1   -1    0    0    0  501 -0.00000000000E+00  0.00000000000E+00  0.17750855664E+02  0.17750855664E+02  0.00000000000E+00 0. -1.
          1   -1    0    0  501    0  0.00000000000E+00 -0.00000000000E+00 -0.10644545273E+04  0.10644545273E+04  0.00000000000E+00 0. -1.
         36    2    1    2    0    0 -0.17763568394E-14  0.00000000000E+00 -0.10467036717E+04  0.10822053830E+04  0.27491801451E+03 0.  0.
         25    2    3    3    0    0  0.16126630088E+01 -0.30876159807E+01 -0.30924869610E+03  0.33418571215E+03  0.12662227337E+03 0.  0.
         25    2    3    3    0    0 -0.16126630088E+01  0.30876159807E+01 -0.73745497556E+03  0.74801967083E+03  0.12522560810E+03 0.  0.
          5    1    4    4  502    0 -0.12953467059E+02  0.53955575606E+02 -0.22163759213E+03  0.22852638511E+03  0.47000000000E+01 0. -1.
         -5    1    4    4    0  502  0.14566130068E+02 -0.57043191587E+02 -0.87611103973E+02  0.10565932704E+03  0.47000000000E+01 0. -1.
          5    1    5    5  503    0  0.33081640996E+02 -0.20017642360E+02 -0.77546747843E+02  0.86779542968E+02  0.47000000000E+01 0.  1.
         -5    1    5    5    0  503 -0.34694304005E+02  0.23105258340E+02 -0.65990822772E+03  0.66124012787E+03  0.47000000000E+01 0.  1.
<mgrwt>
<rscale>  0 0.27491801E+03</rscale>
<asrwt>0</asrwt>
<pdfrwt beam="1">  1        1 0.16376223E+00 0.27491801E+03</pdfrwt>
<pdfrwt beam="2">  1       -1 0.27309010E-02 0.27491801E+03</pdfrwt>
<totfact> 0.62050326E+03</totfact>
</mgrwt>
</event>
<event>
 9    1  0.2054950E-002  0.2748535E+03  0.7818608E-02  0.1098534E+00
          1   -1    0    0  501    0  0.00000000000E+00  0.00000000000E+00  0.33370211408E+03  0.33370211408E+03  0.00000000000E+00 0.  1.
         -1   -1    0    0    0  501 -0.00000000000E+00 -0.00000000000E+00 -0.56595725296E+02  0.56595725296E+02  0.00000000000E+00 0.  1.
         36    2    1    2    0    0  0.10658141036E-13  0.00000000000E+00  0.27710638878E+03  0.39029783937E+03  0.27485351138E+03 0.  0.
         25    2    3    3    0    0  0.18039481498E+02  0.58189059757E+02  0.17645402144E+03  0.22346386145E+03  0.12283601314E+03 0.  0.
         25    2    3    3    0    0 -0.18039481498E+02 -0.58189059757E+02  0.10065236734E+03  0.16683397792E+03  0.11828477319E+03 0.  0.
          5    1    4    4  502    0  0.35493287543E+02  0.18062217928E+02  0.17488722054E+03  0.17942588187E+03  0.47000000000E+01 0.  1.
         -5    1    4    4    0  502 -0.17453806046E+02  0.40126841830E+02  0.15668009033E+01  0.44037979583E+02  0.47000000000E+01 0.  1.
          5    1    5    5  503    0  0.50344609049E+02 -0.31001358901E+02  0.45061977051E+02  0.74487151172E+02  0.47000000000E+01 0. -1.
         -5    1    5    5    0  503 -0.68384090547E+02 -0.27187700857E+02  0.55590390286E+02  0.92346826745E+02  0.47000000000E+01 0. -1.
<mgrwt>
<rscale>  0 0.27485351E+03</rscale>
<asrwt>0</asrwt>
<pdfrwt beam="1">  1        1 0.51338785E-01 0.27485351E+03</pdfrwt>
<pdfrwt beam="2">  1       -1 0.87070349E-02 0.27485351E+03</pdfrwt>
<totfact> 0.57434204E+03</totfact>
</mgrwt>
</event>
<event>
 9    1  0.2054950E-002  0.2739756E+03  0.7818608E-02  0.1099026E+00
         -1   -1    0    0    0  501 -0.00000000000E+00  0.00000000000E+00  0.68400095829E+01  0.68400095829E+01  0.00000000000E+00 0. -1.
          1   -1    0    0  501    0  0.00000000000E+00 -0.00000000000E+00 -0.27435123124E+04  0.27435123124E+04  0.00000000000E+00 0. -1.
         36    2    1    2    0    0 -0.17763568394E-14  0.71054273576E-14 -0.27366723028E+04  0.27503523220E+04  0.27397555006E+03 0.  0.
         25    2    3    3    0    0  0.48832171011E+01 -0.47061727666E+02 -0.10582232995E+04  0.10663896984E+04  0.12293000119E+03 0.  0.
         25    2    3    3    0    0 -0.48832171011E+01  0.47061727666E+02 -0.16784490033E+04  0.16839626236E+04  0.12767305481E+03 0.  0.
          5    1    4    4  502    0 -0.28026340745E+02  0.21248497123E+02 -0.12108122822E+03  0.12617340541E+03  0.47000000000E+01 0.  1.
         -5    1    4    4    0  502  0.32909557846E+02 -0.68310224789E+02 -0.93714207130E+03  0.94021629300E+03  0.47000000000E+01 0.  1.
          5    1    5    5  503    0 -0.11236321624E+02  0.41109633650E+02 -0.16495241316E+03  0.17043369828E+03  0.47000000000E+01 0.  1.
         -5    1    5    5    0  503  0.63531045233E+01  0.59520940161E+01 -0.15134965901E+04  0.15135289253E+04  0.47000000000E+01 0.  1.
<mgrwt>
<rscale>  0 0.27397555E+03</rscale>
<asrwt>0</asrwt>
<pdfrwt beam="1">  1        1 0.42207883E+00 0.27397555E+03</pdfrwt>
<pdfrwt beam="2">  1       -1 0.10523091E-02 0.27397555E+03</pdfrwt>
<totfact> 0.19004271E+03</totfact>
</mgrwt>
</event>
<event>
 9    1  0.2054950E-002  0.2752095E+03  0.7818608E-02  0.1098335E+00
          2   -1    0    0  501    0  0.00000000000E+00  0.00000000000E+00  0.13283949183E+04  0.13283949183E+04  0.00000000000E+00 0. -1.
         -2   -1    0    0    0  501 -0.00000000000E+00 -0.00000000000E+00 -0.14254098870E+02  0.14254098870E+02  0.00000000000E+00 0. -1.
         36    2    1    2    0    0  0.00000000000E+00  0.35527136788E-14  0.13141408194E+04  0.13426490172E+04  0.27520953838E+03 0.  0.
         25    2    3    3    0    0 -0.51089382461E+02 -0.21795882402E+02  0.51948052974E+03  0.53661190297E+03  0.12250358422E+03 0.  0.
         25    2    3    3    0    0  0.51089382461E+02  0.21795882402E+02  0.79466028968E+03  0.80603711418E+03  0.12298645437E+03 0.  0.
          5    1    4    4  502    0 -0.65953956656E+02 -0.61895568468E+02  0.32173558590E+03  0.33424072616E+03  0.47000000000E+01 0. -1.
         -5    1    4    4    0  502  0.14864574195E+02  0.40099686067E+02  0.19774494384E+03  0.20237117681E+03  0.47000000000E+01 0. -1.
          5    1    5    5  503    0 -0.22920139862E+02  0.28595912444E+02  0.87698938013E+02  0.95164345994E+02  0.47000000000E+01 0.  1.
         -5    1    5    5    0  503  0.74009522323E+02 -0.68000300429E+01  0.70696135167E+03  0.71087276819E+03  0.47000000000E+01 0.  1.
<mgrwt>
<rscale>  0 0.27520954E+03</rscale>
<asrwt>0</asrwt>
<pdfrwt beam="1">  1        2 0.20436835E+00 0.27520954E+03</pdfrwt>
<pdfrwt beam="2">  1       -2 0.21929393E-02 0.27520954E+03</pdfrwt>
<totfact> 0.11410737E+04</totfact>
</mgrwt>
</event>
<event>
 9    1  0.2054950E-002  0.2722616E+03  0.7818608E-02  0.1099992E+00
         -1   -1    0    0    0  501 -0.00000000000E+00  0.00000000000E+00  0.19312422561E+02  0.19312422561E+02  0.00000000000E+00 0.  1.
          1   -1    0    0  501    0  0.00000000000E+00 -0.00000000000E+00 -0.95956830221E+03  0.95956830221E+03  0.00000000000E+00 0.  1.
         36    2    1    2    0    0  0.00000000000E+00  0.00000000000E+00 -0.94025587965E+03  0.97888072477E+03  0.27226155460E+03 0.  0.
         25    2    3    3    0    0  0.28557496807E+02  0.57959810963E+01 -0.43992471893E+03  0.46015047460E+03  0.13174056673E+03 0.  0.
         25    2    3    3    0    0 -0.28557496807E+02 -0.57959810963E+01 -0.50033116072E+03  0.51873025017E+03  0.13379341553E+03 0.  0.
          5    1    4    4  502    0  0.49226482852E+02  0.15510712516E+02 -0.59068651714E+02  0.78581323685E+02  0.47000000000E+01 0. -1.
         -5    1    4    4    0  502 -0.20668986045E+02 -0.97147314199E+01 -0.38085606722E+03  0.38156915091E+03  0.47000000000E+01 0. -1.
          5    1    5    5  503    0 -0.17243921137E+02  0.14578430743E+02 -0.49343845604E+03  0.49397720935E+03  0.47000000000E+01 0.  1.
         -5    1    5    5    0  503 -0.11313575670E+02 -0.20374411840E+02 -0.68927046777E+01  0.24753040824E+02  0.47000000000E+01 0.  1.
<mgrwt>
<rscale>  0 0.27226155E+03</rscale>
<asrwt>0</asrwt>
<pdfrwt beam="1">  1        1 0.14762593E+00 0.27226155E+03</pdfrwt>
<pdfrwt beam="2">  1       -1 0.29711411E-02 0.27226155E+03</pdfrwt>
<totfact> 0.65592902E+03</totfact>
</mgrwt>
</event>
<event>
 9    1  0.2054950E-002  0.2745300E+03  0.7818608E-02  0.1098715E+00
         -2   -1    0    0    0  501 -0.00000000000E+00  0.00000000000E+00  0.83878789418E+01  0.83878789418E+01  0.00000000000E+00 0.  1.
          2   -1    0    0  501    0  0.00000000000E+00 -0.00000000000E+00 -0.22462985373E+04  0.22462985373E+04  0.00000000000E+00 0.  1.
         36    2    1    2    0    0  0.00000000000E+00  0.00000000000E+00 -0.22379106583E+04  0.22546864162E+04  0.27452999980E+03 0.  0.
         25    2    3    3    0    0 -0.13987915844E+01 -0.80987543922E+01 -0.60268473443E+03  0.61463851320E+03  0.12034976672E+03 0.  0.
         25    2    3    3    0    0  0.13987915844E+01  0.80987543922E+01 -0.16352259239E+04  0.16400479030E+04  0.12540237461E+03 0.  0.
          5    1    4    4  502    0  0.41861717492E+02  0.38349133987E+02 -0.28975116009E+03  0.29529795841E+03  0.47000000000E+01 0. -1.
         -5    1    4    4    0  502 -0.43260509077E+02 -0.46447888379E+02 -0.31293357435E+03  0.31934055479E+03  0.47000000000E+01 0. -1.
          5    1    5    5  503    0 -0.31268104643E+02 -0.49605464463E+02 -0.83075354486E+03  0.83283368014E+03  0.47000000000E+01 0.  1.
         -5    1    5    5    0  503  0.32666896227E+02  0.57704218855E+02 -0.80447237905E+03  0.80721422289E+03  0.47000000000E+01 0.  1.
<mgrwt>
<rscale>  0 0.27453000E+03</rscale>
<asrwt>0</asrwt>
<pdfrwt beam="1">  1        2 0.34558453E+00 0.27453000E+03</pdfrwt>
<pdfrwt beam="2">  1       -2 0.12904424E-02 0.27453000E+03</pdfrwt>
<totfact> 0.80879901E+03</totfact>
</mgrwt>
</event>
<event>
 9    1  0.2054950E-002  0.2830075E+03  0.7818608E-02  0.1094058E+00
          2   -1    0    0  501    0  0.00000000000E+00  0.00000000000E+00  0.74943829173E+03  0.74943829173E+03  0.00000000000E+00 0.  1.
         -2   -1    0    0    0  501 -0.00000000000E+00 -0.00000000000E+00 -0.26717753782E+02  0.26717753782E+02  0.00000000000E+00 0.  1.
         36    2    1    2    0    0  0.00000000000E+00  0.71054273576E-14  0.72272053795E+03  0.77615604551E+03  0.28300747519E+03 0.  0.
         25    2    3    3    0    0 -0.49861798348E+02 -0.32301318643E+02  0.30557468075E+03  0.33548655804E+03  0.12508305637E+03 0.  0.
         25    2    3    3    0    0  0.49861798348E+02  0.32301318643E+02  0.41714585720E+03  0.44066948747E+03  0.12903238697E+03 0.  0.
          5    1    4    4  502    0 -0.49890299102E+02 -0.41969415162E+02  0.31468096920E+03  0.32139800269E+03  0.47000000000E+01 0.  1.
         -5    1    4    4    0  502  0.28500753757E-01  0.96680965188E+01 -0.91062884533E+01  0.14088555355E+02  0.47000000000E+01 0.  1.
          5    1    5    5  503    0 -0.68872746252E+01 -0.26964841014E+02  0.18751795960E+02  0.33885941840E+02  0.47000000000E+01 0. -1.
         -5    1    5    5    0  503  0.56749072973E+02  0.59266159657E+02  0.39839406124E+03  0.40678354563E+03  0.47000000000E+01 0. -1.
<mgrwt>
<rscale>  0 0.28300748E+03</rscale>
<asrwt>0</asrwt>
<pdfrwt beam="1">  1        2 0.11529818E+00 0.28300748E+03</pdfrwt>
<pdfrwt beam="2">  1       -2 0.41104242E-02 0.28300748E+03</pdfrwt>
<totfact> 0.10141362E+04</totfact>
</mgrwt>
</event>
<event>
 9    1  0.2054950E-002  0.2780297E+03  0.7818608E-02  0.1096770E+00
         -2   -1    0    0    0  501 -0.00000000000E+00  0.00000000000E+00  0.20284944306E+02  0.20284944306E+02  0.00000000000E+00 0. -1.
          2   -1    0    0  501    0  0.00000000000E+00 -0.00000000000E+00 -0.95268309402E+03  0.95268309402E+03  0.00000000000E+00 0. -1.
         36    2    1    2    0    0  0.71054273576E-14 -0.53290705182E-14 -0.93239814972E+03  0.97296803833E+03  0.27802966391E+03 0.  0.
         25    2    3    3    0    0 -0.38075457313E+02  0.12683328430E+02 -0.52815119015E+03  0.54352059274E+03  0.12190302624E+03 0.  0.
         25    2    3    3    0    0  0.38075457313E+02 -0.12683328430E+02 -0.40424695957E+03  0.42944744559E+03  0.13927992294E+03 0.  0.
          5    1    4    4  502    0  0.18997531817E+02 -0.28454963443E+02 -0.53618705896E+02  0.63778105817E+02  0.47000000000E+01 0. -1.
         -5    1    4    4    0  502 -0.57072989130E+02  0.41138291873E+02 -0.47453248425E+03  0.47974248692E+03  0.47000000000E+01 0. -1.
          5    1    5    5  503    0 -0.10777347808E+01  0.10843590731E+02  0.82175161309E+01  0.14434768567E+02  0.47000000000E+01 0. -1.
         -5    1    5    5    0  503  0.39153192094E+02 -0.23526919162E+02 -0.41246447570E+03  0.41501267702E+03  0.47000000000E+01 0. -1.
<mgrwt>
<rscale>  0 0.27802966E+03</rscale>
<asrwt>0</asrwt>
<pdfrwt beam="1">  1        2 0.14656662E+00 0.27802966E+03</pdfrwt>
<pdfrwt beam="2">  1       -2 0.31207608E-02 0.27802966E+03</pdfrwt>
<totfact> 0.11196975E+04</totfact>
</mgrwt>
</event>
<event>
 9    1  0.2054950E-002  0.2751981E+03  0.7818608E-02  0.1098341E+00
         -2   -1    0    0    0  501 -0.00000000000E+00  0.00000000000E+00  0.11455017875E+03  0.11455017875E+03  0.00000000000E+00 0. -1.
          2   -1    0    0  501    0  0.00000000000E+00 -0.00000000000E+00 -0.16528567057E+03  0.16528567057E+03  0.00000000000E+00 0. -1.
         36    2    1    2    0    0  0.00000000000E+00 -0.35527136788E-14 -0.50735491821E+02  0.27983584932E+03  0.27519813305E+03 0.  0.
         25    2    3    3    0    0 -0.48469011019E+02  0.12217535444E+02 -0.44347677047E+02  0.13645883926E+03  0.11897808685E+03 0.  0.
         25    2    3    3    0    0  0.48469011019E+02 -0.12217535444E+02 -0.63878147741E+01  0.14337701006E+03  0.13422983884E+03 0.  0.
          5    1    4    4  502    0  0.34901360391E+02 -0.18672857244E+02 -0.16852007028E+02  0.43276560580E+02  0.47000000000E+01 0. -1.
         -5    1    4    4    0  502 -0.83370371410E+02  0.30890392687E+02 -0.27495670020E+02  0.93182278676E+02  0.47000000000E+01 0. -1.
          5    1    5    5  503    0  0.69705793003E+01  0.25156722654E+02  0.54506318376E+02  0.60617476138E+02  0.47000000000E+01 0. -1.
         -5    1    5    5    0  503  0.41498431719E+02 -0.37374258098E+02 -0.60894133150E+02  0.82759533925E+02  0.47000000000E+01 0. -1.
<mgrwt>
<rscale>  0 0.27519813E+03</rscale>
<asrwt>0</asrwt>
<pdfrwt beam="1">  1        2 0.25428564E-01 0.27519813E+03</pdfrwt>
<pdfrwt beam="2">  1       -2 0.17623105E-01 0.27519813E+03</pdfrwt>
<totfact> 0.54690246E+03</totfact>
</mgrwt>
</event>
<event>
 9    1  0.2054950E-002  0.2741397E+03  0.7818608E-02  0.1098933E+00
         -1   -1    0    0    0  501 -0.00000000000E+00  0.00000000000E+00  0.86635806828E+02  0.86635806828E+02  0.00000000000E+00 0.  1.
          1   -1    0    0  501    0  0.00000000000E+00 -0.00000000000E+00 -0.21686351828E+03  0.21686351828E+03  0.00000000000E+00 0.  1.
         36    2    1    2    0    0 -0.35527136788E-14  0.00000000000E+00 -0.13022771145E+03  0.30349932511E+03  0.27413971531E+03 0.  0.
         25    2    3    3    0    0  0.16072064744E+02  0.58530258641E+02 -0.13754025296E+03  0.19327881965E+03  0.12147130730E+03 0.  0.
         25    2    3    3    0    0 -0.16072064744E+02 -0.58530258641E+02  0.73125415124E+01  0.11022050546E+03  0.91711417600E+02 0.  0.
          5    1    4    4  502    0  0.73868770868E+01  0.96274647212E+02 -0.94509528117E+02  0.13519435844E+03  0.47000000000E+01 0. -1.
         -5    1    4    4    0  502  0.86851876569E+01 -0.37744388570E+02 -0.43030724847E+02  0.58084461210E+02  0.47000000000E+01 0. -1.
          5    1    5    5  503    0 -0.29141654760E-01 -0.48075907204E+02 -0.37571668923E+02  0.61196519577E+02  0.47000000000E+01 0.  1.
         -5    1    5    5    0  503 -0.16042923089E+02 -0.10454351438E+02  0.44884210435E+02  0.49023985881E+02  0.47000000000E+01 0.  1.
<mgrwt>
<rscale>  0 0.27413972E+03</rscale>
<asrwt>0</asrwt>
<pdfrwt beam="1">  1        1 0.33363618E-01 0.27413972E+03</pdfrwt>
<pdfrwt beam="2">  1       -1 0.13328586E-01 0.27413972E+03</pdfrwt>
<totfact> 0.50972227E+03</totfact>
</mgrwt>
</event>
<event>
 9    1  0.2054950E-002  0.2727876E+03  0.7818608E-02  0.1099695E+00
          2   -1    0    0  501    0  0.00000000000E+00  0.00000000000E+00  0.65654108224E+02  0.65654108224E+02  0.00000000000E+00 0.  1.
         -2   -1    0    0    0  501 -0.00000000000E+00 -0.00000000000E+00 -0.28335268990E+03  0.28335268990E+03  0.00000000000E+00 0.  1.
         36    2    1    2    0    0 -0.35527136788E-14 -0.35527136788E-14 -0.21769858168E+03  0.34900679813E+03  0.27278759626E+03 0.  0.
         25    2    3    3    0    0  0.21230275932E+02  0.30024370860E+02 -0.12188596092E+03  0.18029355077E+03  0.12766122950E+03 0.  0.
         25    2    3    3    0    0 -0.21230275932E+02 -0.30024370860E+02 -0.95812620753E+02  0.16871324735E+03  0.13391009699E+03 0.  0.
          5    1    4    4  502    0 -0.39767831307E+02  0.46562804459E+02 -0.91021519603E+02  0.10980246899E+03  0.47000000000E+01 0.  1.
         -5    1    4    4    0  502  0.60998107239E+02 -0.16538433599E+02 -0.30864441322E+02  0.70491081781E+02  0.47000000000E+01 0.  1.
          5    1    5    5  503    0  0.18356414112E+02 -0.55724976985E+02  0.31798106148E+01  0.58944314353E+02  0.47000000000E+01 0. -1.
         -5    1    5    5    0  503 -0.39586690044E+02  0.25700606125E+02 -0.98992431368E+02  0.10976893300E+03  0.47000000000E+01 0. -1.
<mgrwt>
<rscale>  0 0.27278760E+03</rscale>
<asrwt>0</asrwt>
<pdfrwt beam="1">  1        2 0.10100632E-01 0.27278760E+03</pdfrwt>
<pdfrwt beam="2">  1       -2 0.43592721E-01 0.27278760E+03</pdfrwt>
<totfact> 0.31758417E+03</totfact>
</mgrwt>
</event>
<event>
 9    1  0.2054950E-002  0.2746573E+03  0.7818608E-02  0.1098643E+00
          1   -1    0    0  501    0  0.00000000000E+00  0.00000000000E+00  0.14867135091E+04  0.14867135091E+04  0.00000000000E+00 0.  1.
         -1   -1    0    0    0  501 -0.00000000000E+00 -0.00000000000E+00 -0.12685130452E+02  0.12685130452E+02  0.00000000000E+00 0.  1.
         36    2    1    2    0    0 -0.35527136788E-14 -0.71054273576E-14  0.14740283786E+04  0.14993986395E+04  0.27465727595E+03 0.  0.
         25    2    3    3    0    0 -0.24342757736E+02  0.51774955733E+02  0.69918725373E+03  0.71273346822E+03  0.12590855826E+03 0.  0.
         25    2    3    3    0    0  0.24342757736E+02 -0.51774955733E+02  0.77484112491E+03  0.78666517133E+03  0.12324815225E+03 0.  0.
          5    1    4    4  502    0 -0.36705098086E+02  0.40336351681E+02  0.69144800144E+03  0.69361135673E+03  0.47000000000E+01 0.  1.
         -5    1    4    4    0  502  0.12362340350E+02  0.11438604052E+02  0.77392522879E+01  0.19122111483E+02  0.47000000000E+01 0.  1.
          5    1    5    5  503    0  0.58122495134E+02 -0.12373431418E+02  0.18146482232E+03  0.19100496848E+03  0.47000000000E+01 0. -1.
         -5    1    5    5    0  503 -0.33779737398E+02 -0.39401524315E+02  0.59337630259E+03  0.59566020285E+03  0.47000000000E+01 0. -1.
<mgrwt>
<rscale>  0 0.27465728E+03</rscale>
<asrwt>0</asrwt>
<pdfrwt beam="1">  1        1 0.22872502E+00 0.27465728E+03</pdfrwt>
<pdfrwt beam="2">  1       -1 0.19515597E-02 0.27465728E+03</pdfrwt>
<totfact> 0.51907466E+03</totfact>
</mgrwt>
</event>
<event>
 9    1  0.2054950E-002  0.2771210E+03  0.7818608E-02  0.1097272E+00
         -3   -1    0    0    0  501 -0.00000000000E+00  0.00000000000E+00  0.36173830294E+02  0.36173830294E+02  0.00000000000E+00 0.  1.
          3   -1    0    0  501    0  0.00000000000E+00 -0.00000000000E+00 -0.53074314651E+03  0.53074314651E+03  0.00000000000E+00 0.  1.
         36    2    1    2    0    0  0.71054273576E-14 -0.14210854715E-13 -0.49456931621E+03  0.56691697680E+03  0.27712100253E+03 0.  0.
         25    2    3    3    0    0  0.40802131729E+01  0.36647730841E+02 -0.31311155171E+03  0.34307968084E+03  0.13529641266E+03 0.  0.
         25    2    3    3    0    0 -0.40802131729E+01 -0.36647730841E+02 -0.18145776450E+03  0.22383729596E+03  0.12576370879E+03 0.  0.
          5    1    4    4  502    0  0.53042321930E+02 -0.26323040591E+02 -0.15328639321E+03  0.16439342665E+03  0.47000000000E+01 0. -1.
         -5    1    4    4    0  502 -0.48962108757E+02  0.62970771432E+02 -0.15982515850E+03  0.17868625419E+03  0.47000000000E+01 0. -1.
          5    1    5    5  503    0 -0.37484966173E+02  0.29316041336E+02 -0.11406350907E+03  0.12368155509E+03  0.47000000000E+01 0. -1.
         -5    1    5    5    0  503  0.33404753000E+02 -0.65963772178E+02 -0.67394255429E+02  0.10015574086E+03  0.47000000000E+01 0. -1.
<mgrwt>
<rscale>  0 0.27712100E+03</rscale>
<asrwt>0</asrwt>
<pdfrwt beam="1">  1        3 0.81652788E-01 0.27712100E+03</pdfrwt>
<pdfrwt beam="2">  1       -3 0.55652049E-02 0.27712100E+03</pdfrwt>
<totfact> 0.69691722E+02</totfact>
</mgrwt>
</event>
<event>
 9    1  0.2054950E-002  0.2753428E+03  0.7818608E-02  0.1098260E+00
         -1   -1    0    0    0  501 -0.00000000000E+00  0.00000000000E+00  0.19663648031E+04  0.19663648031E+04  0.00000000000E+00 0. -1.
          1   -1    0    0  501    0  0.00000000000E+00 -0.00000000000E+00 -0.96388081272E+01  0.96388081272E+01  0.00000000000E+00 0. -1.
         36    2    1    2    0    0  0.00000000000E+00  0.00000000000E+00  0.19567259950E+04  0.19760036112E+04  0.27534279032E+03 0.  0.
         25    2    3    3    0    0  0.19542841218E+02 -0.75272525038E+02  0.85511295152E+03  0.86778818881E+03  0.12565948080E+03 0.  0.
         25    2    3    3    0    0 -0.19542841218E+02  0.75272525038E+02  0.11016130434E+04  0.11082154224E+04  0.92424289591E+02 0.  0.
          5    1    4    4  502    0  0.17741599908E+02 -0.58824111712E+02  0.84615189452E+03  0.84839269155E+03  0.47000000000E+01 0. -1.
         -5    1    4    4    0  502  0.18012413099E+01 -0.16448413326E+02  0.89610569990E+01  0.19395497254E+02  0.47000000000E+01 0. -1.
          5    1    5    5  503    0 -0.22891071371E+02  0.52931586265E+02  0.10509922408E+04  0.10525837421E+04  0.47000000000E+01 0. -1.
         -5    1    5    5    0  503  0.33482301536E+01  0.22340938773E+02  0.50620802667E+02  0.55631680301E+02  0.47000000000E+01 0. -1.
<mgrwt>
<rscale>  0 0.27534279E+03</rscale>
<asrwt>0</asrwt>
<pdfrwt beam="1">  1        1 0.14828951E-02 0.27534279E+03</pdfrwt>
<pdfrwt beam="2">  1       -1 0.30251734E+00 0.27534279E+03</pdfrwt>
<totfact> 0.34446013E+02</totfact>
</mgrwt>
</event>
<event>
 9    1  0.2054950E-002  0.2775613E+03  0.7818608E-02  0.1097028E+00
         -2   -1    0    0    0  501 -0.00000000000E+00  0.00000000000E+00  0.41546665026E+03  0.41546665026E+03  0.00000000000E+00 0.  1.
          2   -1    0    0  501    0  0.00000000000E+00 -0.00000000000E+00 -0.46357673086E+02  0.46357673086E+02  0.00000000000E+00 0.  1.
         36    2    1    2    0    0  0.71054273576E-14  0.71054273576E-14  0.36910897717E+03  0.46182432335E+03  0.27756128801E+03 0.  0.
         25    2    3    3    0    0 -0.61389707343E+02 -0.19617459817E+02  0.21152083878E+03  0.24948958773E+03  0.11554413984E+03 0.  0.
         25    2    3    3    0    0  0.61389707343E+02  0.19617459817E+02  0.15758813840E+03  0.21233473562E+03  0.12687977652E+03 0.  0.
          5    1    4    4  502    0 -0.44220666190E+02  0.10417420787E+02  0.12394305886E+02  0.47325456073E+02  0.47000000000E+01 0. -1.
         -5    1    4    4    0  502 -0.17169041152E+02 -0.30034880603E+02  0.19912653289E+03  0.20216413166E+03  0.47000000000E+01 0. -1.
          5    1    5    5  503    0  0.11941255608E+02 -0.33514799204E+02 -0.30301682563E+01  0.36015375479E+02  0.47000000000E+01 0.  1.
         -5    1    5    5    0  503  0.49448451734E+02  0.53132259021E+02  0.16061830665E+03  0.17631936014E+03  0.47000000000E+01 0.  1.
<mgrwt>
<rscale>  0 0.27756129E+03</rscale>
<asrwt>0</asrwt>
<pdfrwt beam="1">  1        2 0.71319500E-02 0.27756129E+03</pdfrwt>
<pdfrwt beam="2">  1       -2 0.63917944E-01 0.27756129E+03</pdfrwt>
<totfact> 0.22783041E+03</totfact>
</mgrwt>
</event>
<event>
 9    1  0.2054950E-002  0.2730099E+03  0.7818608E-02  0.1099569E+00
         -2   -1    0    0    0  501 -0.00000000000E+00  0.00000000000E+00  0.17238415891E+03  0.17238415891E+03  0.00000000000E+00 0. -1.
          2   -1    0    0  501    0  0.00000000000E+00 -0.00000000000E+00 -0.10809348229E+03  0.10809348229E+03  0.00000000000E+00 0. -1.
         36    2    1    2    0    0  0.00000000000E+00  0.71054273576E-14  0.64290676614E+02  0.28047764120E+03  0.27300991944E+03 0.  0.
         25    2    3    3    0    0  0.42513382971E+01 -0.35561368086E+02  0.69777436816E+02  0.14958961407E+03  0.12737926507E+03 0.  0.
         25    2    3    3    0    0 -0.42513382971E+01  0.35561368086E+02 -0.54867602016E+01  0.13088802713E+03  0.12577315426E+03 0.  0.
          5    1    4    4  502    0 -0.25551280794E+02 -0.61350998069E+02 -0.29997940585E+01  0.66692590882E+02  0.47000000000E+01 0.  1.
         -5    1    4    4    0  502  0.29802619091E+02  0.25789629982E+02  0.72777230875E+02  0.82897023186E+02  0.47000000000E+01 0.  1.
          5    1    5    5  503    0 -0.12089082128E+02 -0.38996969708E+02  0.26867049107E+02  0.49100283918E+02  0.47000000000E+01 0.  1.
         -5    1    5    5    0  503  0.78377438306E+01  0.74558337795E+02 -0.32353809309E+02  0.81787743213E+02  0.47000000000E+01 0.  1.
<mgrwt>
<rscale>  0 0.27300992E+03</rscale>
<asrwt>0</asrwt>
<pdfrwt beam="1">  1        2 0.16629767E-01 0.27300992E+03</pdfrwt>
<pdfrwt beam="2">  1       -2 0.26520640E-01 0.27300992E+03</pdfrwt>
<totfact> 0.43798724E+03</totfact>
</mgrwt>
</event>
<event>
 9    1  0.2054950E-002  0.2783609E+03  0.7818608E-02  0.1096588E+00
         -3   -1    0    0    0  501 -0.00000000000E+00  0.00000000000E+00  0.12187347081E+02  0.12187347081E+02  0.00000000000E+00 0.  1.
          3   -1    0    0  501    0  0.00000000000E+00 -0.00000000000E+00 -0.15894519379E+04  0.15894519379E+04  0.00000000000E+00 0.  1.
         36    2    1    2    0    0  0.71054273576E-14  0.00000000000E+00 -0.15772645909E+04  0.16016392850E+04  0.27836093430E+03 0.  0.
         25    2    3    3    0    0  0.46466130493E+02  0.23965501169E+02 -0.87079687086E+03  0.88158951866E+03  0.12719843781E+03 0.  0.
         25    2    3    3    0    0 -0.46466130493E+02 -0.23965501169E+02 -0.70646771999E+03  0.72004976635E+03  0.12900224846E+03 0.  0.
          5    1    4    4  502    0  0.58127840400E+02 -0.39873310431E+02 -0.52411774331E+03  0.52885747188E+03  0.47000000000E+01 0. -1.
         -5    1    4    4    0  502 -0.11661709907E+02  0.63838811600E+02 -0.34667912756E+03  0.35273204678E+03  0.47000000000E+01 0. -1.
          5    1    5    5  503    0 -0.72854696057E+02  0.16519572502E+02 -0.57594468923E+03  0.58078832466E+03  0.47000000000E+01 0.  1.
         -5    1    5    5    0  503  0.26388565564E+02 -0.40485073671E+02 -0.13052303076E+03  0.13926144169E+03  0.47000000000E+01 0.  1.
<mgrwt>
<rscale>  0 0.27836093E+03</rscale>
<asrwt>0</asrwt>
<pdfrwt beam="1">  1        3 0.24453104E+00 0.27836093E+03</pdfrwt>
<pdfrwt beam="2">  1       -3 0.18749767E-02 0.27836093E+03</pdfrwt>
<totfact> 0.23649365E+02</totfact>
</mgrwt>
</event>
<event>
 9    1  0.2054950E-002  0.2749325E+03  0.7818608E-02  0.1098489E+00
         -3   -1    0    0    0  501 -0.00000000000E+00  0.00000000000E+00  0.40164643301E+03  0.40164643301E+03  0.00000000000E+00 0.  1.
          3   -1    0    0  501    0  0.00000000000E+00 -0.00000000000E+00 -0.47048780867E+02  0.47048780867E+02  0.00000000000E+00 0.  1.
         36    2    1    2    0    0  0.00000000000E+00  0.71054273576E-14  0.35459765214E+03  0.44869521388E+03  0.27493253727E+03 0.  0.
         25    2    3    3    0    0 -0.38274147184E+02  0.31105453320E+02  0.14137167318E+03  0.19507236359E+03  0.12503926380E+03 0.  0.
         25    2    3    3    0    0  0.38274147184E+02 -0.31105453320E+02  0.21322597897E+03  0.25362285029E+03  0.12816697123E+03 0.  0.
          5    1    4    4  502    0 -0.88153765238E+01  0.78107635218E+02  0.82454681629E+02  0.11401481511E+03  0.47000000000E+01 0.  1.
         -5    1    4    4    0  502 -0.29458770660E+02 -0.47002181898E+02  0.58916991549E+02  0.81057548477E+02  0.47000000000E+01 0.  1.
          5    1    5    5  503    0 -0.47303098481E+02 -0.81052952751E+01  0.66377154268E+02  0.82044472977E+02  0.47000000000E+01 0. -1.
         -5    1    5    5    0  503  0.85577245665E+02 -0.23000158045E+02  0.14684882470E+03  0.17157837731E+03  0.47000000000E+01 0. -1.
<mgrwt>
<rscale>  0 0.27493254E+03</rscale>
<asrwt>0</asrwt>
<pdfrwt beam="1">  1        3 0.72382743E-02 0.27493254E+03</pdfrwt>
<pdfrwt beam="2">  1       -3 0.61791756E-01 0.27493254E+03</pdfrwt>
<totfact> 0.82650435E+02</totfact>
</mgrwt>
</event>
<event>
 9    1  0.2054950E-002  0.2737823E+03  0.7818608E-02  0.1099134E+00
          1   -1    0    0  501    0  0.00000000000E+00  0.00000000000E+00  0.24678973928E+04  0.24678973928E+04  0.00000000000E+00 0. -1.
         -1   -1    0    0    0  501 -0.00000000000E+00 -0.00000000000E+00 -0.75931813184E+01  0.75931813184E+01  0.00000000000E+00 0. -1.
         36    2    1    2    0    0 -0.71054273576E-14  0.00000000000E+00  0.24603042115E+04  0.24754905741E+04  0.27378233967E+03 0.  0.
         25    2    3    3    0    0  0.25720726163E+02  0.32525264263E+02  0.92502212263E+03  0.93453350555E+03  0.12636256199E+03 0.  0.
         25    2    3    3    0    0 -0.25720726163E+02 -0.32525264263E+02  0.15352820889E+04  0.15409570686E+04  0.12545176862E+03 0.  0.
          5    1    4    4  502    0 -0.33116168250E+02 -0.30036841487E+02  0.39918715390E+03  0.40171055038E+03  0.47000000000E+01 0. -1.
         -5    1    4    4    0  502  0.58836894413E+02  0.62562105750E+02  0.52583496872E+03  0.53282295517E+03  0.47000000000E+01 0. -1.
          5    1    5    5  503    0 -0.13643582284E+02 -0.15829783604E+01  0.17212883481E+02  0.22517249294E+02  0.47000000000E+01 0. -1.
         -5    1    5    5    0  503 -0.12077143879E+02 -0.30942285903E+02  0.15180692054E+04  0.15184398193E+04  0.47000000000E+01 0. -1.
<mgrwt>
<rscale>  0 0.27378234E+03</rscale>
<asrwt>0</asrwt>
<pdfrwt beam="1">  1        1 0.37967588E+00 0.27378234E+03</pdfrwt>
<pdfrwt beam="2">  1       -1 0.11681837E-02 0.27378234E+03</pdfrwt>
<totfact> 0.25009122E+03</totfact>
</mgrwt>
</event>
<event>
 9    1  0.2054950E-002  0.2747945E+03  0.7818608E-02  0.1098567E+00
          2   -1    0    0  501    0  0.00000000000E+00  0.00000000000E+00  0.36862657685E+02  0.36862657685E+02  0.00000000000E+00 0. -1.
         -2   -1    0    0    0  501 -0.00000000000E+00 -0.00000000000E+00 -0.51211718300E+03  0.51211718300E+03  0.00000000000E+00 0. -1.
         36    2    1    2    0    0  0.00000000000E+00  0.00000000000E+00 -0.47525452532E+03  0.54897984068E+03  0.27479447164E+03 0.  0.
         25    2    3    3    0    0 -0.49649232956E+02 -0.53022235352E+01 -0.21935578825E+03  0.25768893306E+03  0.12567205131E+03 0.  0.
         25    2    3    3    0    0  0.49649232956E+02  0.53022235352E+01 -0.25589873707E+03  0.29129090762E+03  0.12989637917E+03 0.  0.
          5    1    4    4  502    0 -0.56047188437E+02 -0.50939261740E+02 -0.18517778961E+03  0.20012246121E+03  0.47000000000E+01 0.  1.
         -5    1    4    4    0  502  0.63979554812E+01  0.45637038205E+02 -0.34177998641E+02  0.57566471853E+02  0.47000000000E+01 0.  1.
          5    1    5    5  503    0  0.89590390715E+02 -0.18790993953E+02 -0.18194702294E+03  0.20373106960E+03  0.47000000000E+01 0.  1.
         -5    1    5    5    0  503 -0.39941157759E+02  0.24093217488E+02 -0.73951714130E+02  0.87559838024E+02  0.47000000000E+01 0.  1.
<mgrwt>
<rscale>  0 0.27479447E+03</rscale>
<asrwt>0</asrwt>
<pdfrwt beam="1">  1        2 0.56711780E-02 0.27479447E+03</pdfrwt>
<pdfrwt beam="2">  1       -2 0.78787260E-01 0.27479447E+03</pdfrwt>
<totfact> 0.19566567E+03</totfact>
</mgrwt>
</event>
<event>
 9    1  0.2054950E-002  0.2757135E+03  0.7818608E-02  0.1098053E+00
          2   -1    0    0  501    0  0.00000000000E+00  0.00000000000E+00  0.44658731022E+03  0.44658731022E+03  0.00000000000E+00 0. -1.
         -2   -1    0    0    0  501 -0.00000000000E+00 -0.00000000000E+00 -0.42554898360E+02  0.42554898360E+02  0.00000000000E+00 0. -1.
         36    2    1    2    0    0 -0.14210854715E-13  0.00000000000E+00  0.40403241186E+03  0.48914220858E+03  0.27571345702E+03 0.  0.
         25    2    3    3    0    0 -0.57760957556E+02  0.21489314940E+02  0.15360909214E+03  0.20378552117E+03  0.11888930388E+03 0.  0.
         25    2    3    3    0    0  0.57760957556E+02 -0.21489314940E+02  0.25042331972E+03  0.28535668741E+03  0.12214123429E+03 0.  0.
          5    1    4    4  502    0  0.23072207601E+02  0.39879774785E+02  0.31084684346E+02  0.55776973756E+02  0.47000000000E+01 0. -1.
         -5    1    4    4    0  502 -0.80833165157E+02 -0.18390459845E+02  0.12252440779E+03  0.14800854741E+03  0.47000000000E+01 0. -1.
          5    1    5    5  503    0  0.84239166676E+02 -0.46879695164E+02  0.15032058254E+03  0.17864017061E+03  0.47000000000E+01 0.  1.
         -5    1    5    5    0  503 -0.26478209121E+02  0.25390380223E+02  0.10010273719E+03  0.10671651680E+03  0.47000000000E+01 0.  1.
<mgrwt>
<rscale>  0 0.27571346E+03</rscale>
<asrwt>0</asrwt>
<pdfrwt beam="1">  1        2 0.68705737E-01 0.27571346E+03</pdfrwt>
<pdfrwt beam="2">  1       -2 0.65469077E-02 0.27571346E+03</pdfrwt>
<totfact> 0.90827216E+03</totfact>
</mgrwt>
</event>
<event>
 9    1  0.2054950E-002  0.2745284E+03  0.7818608E-02  0.1098715E+00
          1   -1    0    0  501    0  0.00000000000E+00  0.00000000000E+00  0.39954668289E+03  0.39954668289E+03  0.00000000000E+00 0. -1.
         -1   -1    0    0    0  501 -0.00000000000E+00 -0.00000000000E+00 -0.47157101120E+02  0.47157101120E+02  0.00000000000E+00 0. -1.
         36    2    1    2    0    0 -0.71054273576E-14  0.35527136788E-14  0.35238958177E+03  0.44670378401E+03  0.27452841986E+03 0.  0.
         25    2    3    3    0    0 -0.51667442200E+02  0.18100646782E+02  0.22179956366E+03  0.25902981896E+03  0.12208293361E+03 0.  0.
         25    2    3    3    0    0  0.51667442200E+02 -0.18100646782E+02  0.13059001811E+03  0.18767396504E+03  0.12316901529E+03 0.  0.
          5    1    4    4  502    0 -0.48473745399E+02 -0.30308296788E+02  0.19530191100E+03  0.20355152489E+03  0.47000000000E+01 0.  1.
         -5    1    4    4    0  502 -0.31936968010E+01  0.48408943570E+02  0.26497652660E+02  0.55478294073E+02  0.47000000000E+01 0.  1.
          5    1    5    5  503    0 -0.22085119581E+02 -0.79705294360E+01  0.10669200173E+03  0.10934603367E+03  0.47000000000E+01 0. -1.
         -5    1    5    5    0  503  0.73752561781E+02 -0.10130117346E+02  0.23898016389E+02  0.78327931379E+02  0.47000000000E+01 0. -1.
<mgrwt>
<rscale>  0 0.27452842E+03</rscale>
<asrwt>0</asrwt>
<pdfrwt beam="1">  1        1 0.61468718E-01 0.27452842E+03</pdfrwt>
<pdfrwt beam="2">  1       -1 0.72549389E-02 0.27452842E+03</pdfrwt>
<totfact> 0.60343889E+03</totfact>
</mgrwt>
</event>
<event>
 9    1  0.2054950E-002  0.2734814E+03  0.7818608E-02  0.1099303E+00
          3   -1    0    0  501    0  0.00000000000E+00  0.00000000000E+00  0.17985249858E+03  0.17985249858E+03  0.00000000000E+00 0.  1.
         -3   -1    0    0    0  501 -0.00000000000E+00 -0.00000000000E+00 -0.10396310338E+03  0.10396310338E+03  0.00000000000E+00 0.  1.
         36    2    1    2    0    0  0.00000000000E+00  0.71054273576E-14  0.75889395198E+02  0.28381560197E+03  0.27348143560E+03 0.  0.
         25    2    3    3    0    0 -0.41451569179E+02  0.40915865069E+02  0.16421313969E+02  0.13364113171E+03  0.11915515906E+03 0.  0.
         25    2    3    3    0    0  0.41451569179E+02 -0.40915865069E+02  0.59468081229E+02  0.15017447026E+03  0.12499431279E+03 0.  0.
          5    1    4    4  502    0 -0.78617923341E+02  0.50375138016E+02  0.63185500085E+01  0.93704036598E+02  0.47000000000E+01 0. -1.
         -5    1    4    4    0  502  0.37166354162E+02 -0.94592729472E+01  0.10102763961E+02  0.39937095113E+02  0.47000000000E+01 0. -1.
          5    1    5    5  503    0  0.40787704967E+02 -0.34887017991E+02 -0.29127392212E+02  0.61247333639E+02  0.47000000000E+01 0. -1.
         -5    1    5    5    0  503  0.66386421199E+00 -0.60288470779E+01  0.88595473441E+02  0.88927136617E+02  0.47000000000E+01 0. -1.
<mgrwt>
<rscale>  0 0.27348144E+03</rscale>
<asrwt>0</asrwt>
<pdfrwt beam="1">  1        3 0.27669615E-01 0.27348144E+03</pdfrwt>
<pdfrwt beam="2">  1       -3 0.15994324E-01 0.27348144E+03</pdfrwt>
<totfact> 0.10533200E+03</totfact>
</mgrwt>
</event>
<event>
 9    1  0.2054950E-002  0.2750069E+03  0.7818608E-02  0.1098448E+00
          3   -1    0    0  501    0  0.00000000000E+00  0.00000000000E+00  0.35992676406E+03  0.35992676406E+03  0.00000000000E+00 0. -1.
         -3   -1    0    0    0  501 -0.00000000000E+00 -0.00000000000E+00 -0.52530701430E+02  0.52530701430E+02  0.00000000000E+00 0. -1.
         36    2    1    2    0    0  0.10658141036E-13  0.35527136788E-14  0.30739606263E+03  0.41245746549E+03  0.27500694813E+03 0.  0.
         25    2    3    3    0    0  0.20517686002E+02 -0.39260221253E+01  0.74829265630E+02  0.14868360815E+03  0.12677147648E+03 0.  0.
         25    2    3    3    0    0 -0.20517686002E+02  0.39260221253E+01  0.23256679700E+03  0.26377385735E+03  0.12269043835E+03 0.  0.
          5    1    4    4  502    0 -0.51558446184E+02  0.10137910517E+02  0.44782825469E+02  0.69200014881E+02  0.47000000000E+01 0. -1.
         -5    1    4    4    0  502  0.72076132186E+02 -0.14063932642E+02  0.30046440162E+02  0.79483593267E+02  0.47000000000E+01 0. -1.
          5    1    5    5  503    0 -0.24861963270E+02 -0.22682652542E+02  0.47409727966E+01  0.34310155450E+02  0.47000000000E+01 0. -1.
         -5    1    5    5    0  503  0.43442772677E+01  0.26608674667E+02  0.22782582421E+03  0.22946370190E+03  0.47000000000E+01 0. -1.
<mgrwt>
<rscale>  0 0.27500695E+03</rscale>
<asrwt>0</asrwt>
<pdfrwt beam="1">  1        3 0.55373347E-01 0.27500695E+03</pdfrwt>
<pdfrwt beam="2">  1       -3 0.80816466E-02 0.27500695E+03</pdfrwt>
<totfact> 0.86663789E+02</totfact>
</mgrwt>
</event>
<event>
 9    1  0.2054950E-002  0.2750159E+03  0.7818608E-02  0.1098443E+00
          4   -1    0    0  501    0  0.00000000000E+00  0.00000000000E+00  0.28874430583E+02  0.28874430583E+02  0.00000000000E+00 0. -1.
         -4   -1    0    0    0  501 -0.00000000000E+00 -0.00000000000E+00 -0.65485067545E+03  0.65485067545E+03  0.00000000000E+00 0. -1.
         36    2    1    2    0    0  0.00000000000E+00  0.00000000000E+00 -0.62597624487E+03  0.68372510603E+03  0.27501592951E+03 0.  0.
         25    2    3    3    0    0 -0.26914930802E+02  0.81099106410E+01 -0.42232059850E+03  0.44379877054E+03  0.13346339073E+03 0.  0.
         25    2    3    3    0    0  0.26914930802E+02 -0.81099106410E+01 -0.20365564636E+03  0.23992633549E+03  0.12368847972E+03 0.  0.
          5    1    4    4  502    0 -0.60039711046E+01 -0.50681142397E+02 -0.74703513191E+02  0.90594319616E+02  0.47000000000E+01 0.  1.
         -5    1    4    4    0  502 -0.20910959697E+02  0.58791053038E+02 -0.34761708531E+03  0.35320445093E+03  0.47000000000E+01 0.  1.
          5    1    5    5  503    0 -0.12925156838E+02  0.35101743916E+02 -0.16539685510E+03  0.16963903378E+03  0.47000000000E+01 0.  1.
         -5    1    5    5    0  503  0.39840087640E+02 -0.43211654557E+02 -0.38258791264E+02  0.70287301710E+02  0.47000000000E+01 0.  1.
<mgrwt>
<rscale>  0 0.27501593E+03</rscale>
<asrwt>0</asrwt>
<pdfrwt beam="1">  1        4 0.44422197E-02 0.27501593E+03</pdfrwt>
<pdfrwt beam="2">  1       -4 0.10074627E+00 0.27501593E+03</pdfrwt>
<totfact> 0.45418840E+02</totfact>
</mgrwt>
</event>
<event>
 9    1  0.2054950E-002  0.2753732E+03  0.7818608E-02  0.1098243E+00
         -1   -1    0    0    0  501 -0.00000000000E+00  0.00000000000E+00  0.15135676121E+03  0.15135676121E+03  0.00000000000E+00 0. -1.
          1   -1    0    0  501    0  0.00000000000E+00 -0.00000000000E+00 -0.12525106290E+03  0.12525106290E+03  0.00000000000E+00 0. -1.
         36    2    1    2    0    0  0.71054273576E-14  0.71054273576E-14  0.26105698312E+02  0.27660782411E+03  0.27537316658E+03 0.  0.
         25    2    3    3    0    0  0.42768333607E+02  0.59203726489E+01 -0.19132744426E+02  0.13697492215E+03  0.12857638281E+03 0.  0.
         25    2    3    3    0    0 -0.42768333607E+02 -0.59203726489E+01  0.45238442738E+02  0.13963290195E+03  0.12484650349E+03 0.  0.
          5    1    4    4  502    0  0.20767592752E+02  0.52032943747E+02  0.31873513627E+02  0.64627633522E+02  0.47000000000E+01 0.  1.
         -5    1    4    4    0  502  0.22000740855E+02 -0.46112571098E+02 -0.51006258054E+02  0.72347288630E+02  0.47000000000E+01 0.  1.
          5    1    5    5  503    0 -0.43541905427E+02 -0.49222537021E+02 -0.12746639272E+02  0.67106799147E+02  0.47000000000E+01 0.  1.
         -5    1    5    5    0  503  0.77357182014E+00  0.43302164372E+02  0.57985082011E+02  0.72526102807E+02  0.47000000000E+01 0.  1.
<mgrwt>
<rscale>  0 0.27537317E+03</rscale>
<asrwt>0</asrwt>
<pdfrwt beam="1">  1        1 0.19269394E-01 0.27537317E+03</pdfrwt>
<pdfrwt beam="2">  1       -1 0.23285656E-01 0.27537317E+03</pdfrwt>
<totfact> 0.41780078E+03</totfact>
</mgrwt>
</event>
<event>
 9    1  0.2054950E-002  0.2749309E+03  0.7818608E-02  0.1098490E+00
          1   -1    0    0  501    0  0.00000000000E+00  0.00000000000E+00  0.62469472694E+02  0.62469472694E+02  0.00000000000E+00 0. -1.
         -1   -1    0    0    0  501 -0.00000000000E+00 -0.00000000000E+00 -0.30249581662E+03  0.30249581662E+03  0.00000000000E+00 0. -1.
         36    2    1    2    0    0  0.00000000000E+00  0.00000000000E+00 -0.24002634392E+03  0.36496528931E+03  0.27493093064E+03 0.  0.
         25    2    3    3    0    0  0.27181737902E+02 -0.42995336718E+02 -0.15840134206E+03  0.20766157814E+03  0.12427751210E+03 0.  0.
         25    2    3    3    0    0 -0.27181737902E+02  0.42995336718E+02 -0.81625001861E+02  0.15730371117E+03  0.12447638637E+03 0.  0.
          5    1    4    4  502    0 -0.40725369233E+02  0.31769706728E+01 -0.17880197975E+02  0.44837933957E+02  0.47000000000E+01 0. -1.
         -5    1    4    4    0  502  0.67907107135E+02 -0.46172307390E+02 -0.14052114409E+03  0.16282364418E+03  0.47000000000E+01 0. -1.
          5    1    5    5  503    0 -0.70349609087E+02  0.42079582945E+02 -0.78761036984E+02  0.11377675398E+03  0.47000000000E+01 0.  1.
         -5    1    5    5    0  503  0.43167871185E+02  0.91575377290E+00 -0.28639648777E+01  0.43526957193E+02  0.47000000000E+01 0.  1.
<mgrwt>
<rscale>  0 0.27493093E+03</rscale>
<asrwt>0</asrwt>
<pdfrwt beam="1">  1        1 0.96106878E-02 0.27493093E+03</pdfrwt>
<pdfrwt beam="2">  1       -1 0.46537819E-01 0.27493093E+03</pdfrwt>
<totfact> 0.31639013E+03</totfact>
</mgrwt>
</event>
<event>
 9    1  0.2054950E-002  0.2750429E+03  0.7818608E-02  0.1098428E+00
         -2   -1    0    0    0  501 -0.00000000000E+00  0.00000000000E+00  0.87724979997E+01  0.87724979997E+01  0.00000000000E+00 0. -1.
          2   -1    0    0  501    0  0.00000000000E+00 -0.00000000000E+00 -0.21558451892E+04  0.21558451892E+04  0.00000000000E+00 0. -1.
         36    2    1    2    0    0  0.00000000000E+00  0.00000000000E+00 -0.21470726912E+04  0.21646176872E+04  0.27504288836E+03 0.  0.
         25    2    3    3    0    0 -0.49368686251E+02  0.26401037717E+02 -0.91496047637E+03  0.92463156924E+03  0.12106437770E+03 0.  0.
         25    2    3    3    0    0  0.49368686251E+02 -0.26401037717E+02 -0.12321122148E+04  0.12399861179E+04  0.12779194347E+03 0.  0.
          5    1    4    4  502    0 -0.21186888324E+02  0.70719097611E+02 -0.66931405646E+03  0.67338953895E+03  0.47000000000E+01 0.  1.
         -5    1    4    4    0  502 -0.28181797927E+02 -0.44318059894E+02 -0.24564641992E+03  0.25124203029E+03  0.47000000000E+01 0.  1.
          5    1    5    5  503    0  0.49701632252E+02 -0.22153531529E+02 -0.18596742217E+03  0.19382209192E+03  0.47000000000E+01 0. -1.
         -5    1    5    5    0  503 -0.33294600094E+00 -0.42475061884E+01 -0.10461447926E+04  0.10461640260E+04  0.47000000000E+01 0. -1.
<mgrwt>
<rscale>  0 0.27504289E+03</rscale>
<asrwt>0</asrwt>
<pdfrwt beam="1">  1        2 0.33166850E+00 0.27504289E+03</pdfrwt>
<pdfrwt beam="2">  1       -2 0.13496150E-02 0.27504289E+03</pdfrwt>
<totfact> 0.84635389E+03</totfact>
</mgrwt>
</event>
<event>
 9    1  0.2054950E-002  0.2752453E+03  0.7818608E-02  0.1098315E+00
          2   -1    0    0  501    0  0.00000000000E+00  0.00000000000E+00  0.18310235806E+04  0.18310235806E+04  0.00000000000E+00 0.  1.
         -2   -1    0    0    0  501 -0.00000000000E+00 -0.00000000000E+00 -0.10343937579E+02  0.10343937579E+02  0.00000000000E+00 0.  1.
         36    2    1    2    0    0 -0.35527136788E-14  0.00000000000E+00  0.18206796430E+04  0.18413675182E+04  0.27524529877E+03 0.  0.
         25    2    3    3    0    0  0.23623465279E+02  0.47864785408E+02  0.73832404492E+03  0.75051667232E+03  0.12370842467E+03 0.  0.
         25    2    3    3    0    0 -0.23623465279E+02 -0.47864785408E+02  0.10823555981E+04  0.10908508459E+04  0.12495127599E+03 0.  0.
          5    1    4    4  502    0  0.55510068876E+02  0.60844889030E+02  0.31011162045E+03  0.32089682985E+03  0.47000000000E+01 0.  1.
         -5    1    4    4    0  502 -0.31886603596E+02 -0.12980103622E+02  0.42821242446E+03  0.42961984247E+03  0.47000000000E+01 0.  1.
          5    1    5    5  503    0  0.16954989500E+02 -0.12032825827E+02  0.28469827100E+02  0.35565174278E+02  0.47000000000E+01 0. -1.
         -5    1    5    5    0  503 -0.40578454779E+02 -0.35831959580E+02  0.10538857710E+04  0.10552856716E+04  0.47000000000E+01 0. -1.
<mgrwt>
<rscale>  0 0.27524530E+03</rscale>
<asrwt>0</asrwt>
<pdfrwt beam="1">  1        2 0.28169568E+00 0.27524530E+03</pdfrwt>
<pdfrwt beam="2">  1       -2 0.15913765E-02 0.27524530E+03</pdfrwt>
<totfact> 0.98616435E+03</totfact>
</mgrwt>
</event>
<event>
 9    1  0.2054950E-002  0.2770013E+03  0.7818608E-02  0.1097338E+00
         -2   -1    0    0    0  501 -0.00000000000E+00  0.00000000000E+00  0.40352229910E+02  0.40352229910E+02  0.00000000000E+00 0. -1.
          2   -1    0    0  501    0  0.00000000000E+00 -0.00000000000E+00 -0.47537479501E+03  0.47537479501E+03  0.00000000000E+00 0. -1.
         36    2    1    2    0    0  0.00000000000E+00 -0.35527136788E-14 -0.43502256510E+03  0.51572702492E+03  0.27700132145E+03 0.  0.
         25    2    3    3    0    0 -0.38389252488E+02 -0.15907456382E+02 -0.13206590005E+03  0.16841874213E+03  0.95899368458E+02 0.  0.
         25    2    3    3    0    0  0.38389252488E+02  0.15907456382E+02 -0.30295666505E+03  0.34730828278E+03  0.16466183686E+03 0.  0.
          5    1    4    4  502    0 -0.15498969236E+02 -0.51489477546E+02 -0.40630817196E+02  0.67559881967E+02  0.47000000000E+01 0.  1.
         -5    1    4    4    0  502 -0.22890283252E+02  0.35582021165E+02 -0.91435082855E+02  0.10085886017E+03  0.47000000000E+01 0.  1.
          5    1    5    5  503    0 -0.31248437400E+02 -0.15491039370E+02 -0.37190324243E+00  0.35194679324E+02  0.47000000000E+01 0.  1.
         -5    1    5    5    0  503  0.69637689888E+02  0.31398495752E+02 -0.30258476180E+03  0.31211360346E+03  0.47000000000E+01 0.  1.
<mgrwt>
<rscale>  0 0.27700132E+03</rscale>
<asrwt>0</asrwt>
<pdfrwt beam="1">  1        2 0.73134584E-01 0.27700132E+03</pdfrwt>
<pdfrwt beam="2">  1       -2 0.62080354E-02 0.27700132E+03</pdfrwt>
<totfact> 0.92016172E+03</totfact>
</mgrwt>
</event>
<event>
 9    1  0.2054950E-002  0.2762219E+03  0.7818608E-02  0.1097771E+00
          2   -1    0    0  501    0  0.00000000000E+00  0.00000000000E+00  0.79943875756E+02  0.79943875756E+02  0.00000000000E+00 0.  1.
         -2   -1    0    0    0  501 -0.00000000000E+00 -0.00000000000E+00 -0.23860024932E+03  0.23860024932E+03  0.00000000000E+00 0.  1.
         36    2    1    2    0    0  0.14210854715E-13 -0.17763568394E-14 -0.15865637356E+03  0.31854412507E+03  0.27622185784E+03 0.  0.
         25    2    3    3    0    0  0.32941639007E+02 -0.13134997086E+02 -0.14310666500E+03  0.18925831718E+03  0.11866555239E+03 0.  0.
         25    2    3    3    0    0 -0.32941639007E+02  0.13134997086E+02 -0.15549708560E+02  0.12928580789E+03  0.12335050449E+03 0.  0.
          5    1    4    4  502    0 -0.17539855620E+02 -0.47687653908E+02 -0.26507797032E+02  0.57502279728E+02  0.47000000000E+01 0. -1.
         -5    1    4    4    0  502  0.50481494627E+02  0.34552656822E+02 -0.11659886797E+03  0.13175603745E+03  0.47000000000E+01 0. -1.
          5    1    5    5  503    0 -0.59423761767E+02 -0.88613189817E+00  0.35878388662E+02  0.69579576496E+02  0.47000000000E+01 0.  1.
         -5    1    5    5    0  503  0.26482122760E+02  0.14021128985E+02 -0.51428097223E+02  0.59706231399E+02  0.47000000000E+01 0.  1.
<mgrwt>
<rscale>  0 0.27622186E+03</rscale>
<asrwt>0</asrwt>
<pdfrwt beam="1">  1        2 0.12299058E-01 0.27622186E+03</pdfrwt>
<pdfrwt beam="2">  1       -2 0.36707729E-01 0.27622186E+03</pdfrwt>
<totfact> 0.34646468E+03</totfact>
</mgrwt>
</event>
<event>
 9    1  0.2054950E-002  0.2744982E+03  0.7818608E-02  0.1098732E+00
          1   -1    0    0  501    0  0.00000000000E+00  0.00000000000E+00  0.54386298277E+03  0.54386298277E+03  0.00000000000E+00 0.  1.
         -1   -1    0    0    0  501 -0.00000000000E+00 -0.00000000000E+00 -0.34636149801E+02  0.34636149801E+02  0.00000000000E+00 0.  1.
         36    2    1    2    0    0  0.00000000000E+00  0.00000000000E+00  0.50922683297E+03  0.57849913257E+03  0.27449823127E+03 0.  0.
         25    2    3    3    0    0  0.26824478902E+02  0.16383175199E+02  0.36394584737E+03  0.38629402012E+03  0.12561261510E+03 0.  0.
         25    2    3    3    0    0 -0.26824478902E+02 -0.16383175199E+02  0.14528098561E+03  0.19220511245E+03  0.12185351606E+03 0.  0.
          5    1    4    4  502    0  0.59517361468E+02 -0.33642749349E+02  0.16991138389E+03  0.18321058724E+03  0.47000000000E+01 0.  1.
         -5    1    4    4    0  502 -0.32692882567E+02  0.50025924548E+02  0.19403446347E+03  0.20308343289E+03  0.47000000000E+01 0.  1.
          5    1    5    5  503    0 -0.34716405725E+02 -0.63805741179E+02  0.11188966276E+03  0.13348328759E+03  0.47000000000E+01 0. -1.
         -5    1    5    5    0  503  0.78919268231E+01  0.47422565980E+02  0.33391322843E+02  0.58721824855E+02  0.47000000000E+01 0. -1.
<mgrwt>
<rscale>  0 0.27449823E+03</rscale>
<asrwt>0</asrwt>
<pdfrwt beam="1">  1        1 0.83671222E-01 0.27449823E+03</pdfrwt>
<pdfrwt beam="2">  1       -1 0.53286388E-02 0.27449823E+03</pdfrwt>
<totfact> 0.64147302E+03</totfact>
</mgrwt>
</event>
<event>
 9    1  0.2054950E-002  0.2749127E+03  0.7818608E-02  0.1098500E+00
          2   -1    0    0  501    0  0.00000000000E+00  0.00000000000E+00  0.24327181788E+04  0.24327181788E+04  0.00000000000E+00 0. -1.
         -2   -1    0    0    0  501 -0.00000000000E+00 -0.00000000000E+00 -0.77667206106E+01  0.77667206106E+01  0.00000000000E+00 0. -1.
         36    2    1    2    0    0  0.00000000000E+00 -0.71054273576E-14  0.24249514582E+04  0.24404848994E+04  0.27491265827E+03 0.  0.
         25    2    3    3    0    0 -0.14289754821E+02  0.47905995081E+02  0.11628506098E+04  0.11705902889E+04  0.12474334580E+03 0.  0.
         25    2    3    3    0    0  0.14289754821E+02 -0.47905995081E+02  0.12621008484E+04  0.12698946105E+04  0.13128057287E+03 0.  0.
          5    1    4    4  502    0  0.13338760788E+02  0.53029520614E+02  0.11023700863E+04  0.11037354528E+04  0.47000000000E+01 0.  1.
         -5    1    4    4    0  502 -0.27628515608E+02 -0.51235255332E+01  0.60480523495E+02  0.66854836106E+02  0.47000000000E+01 0.  1.
          5    1    5    5  503    0  0.53618379188E+02 -0.49717457786E+02  0.38575317996E+03  0.39265043238E+03  0.47000000000E+01 0.  1.
         -5    1    5    5    0  503 -0.39328624368E+02  0.18114627051E+01  0.87634766841E+03  0.87724417811E+03  0.47000000000E+01 0.  1.
<mgrwt>
<rscale>  0 0.27491266E+03</rscale>
<asrwt>0</asrwt>
<pdfrwt beam="1">  1        2 0.37426373E+00 0.27491266E+03</pdfrwt>
<pdfrwt beam="2">  1       -2 0.11948820E-02 0.27491266E+03</pdfrwt>
<totfact> 0.71806021E+03</totfact>
</mgrwt>
</event>
<event>
 9    1  0.2054950E-002  0.2748730E+03  0.7818608E-02  0.1098523E+00
          1   -1    0    0  501    0  0.00000000000E+00  0.00000000000E+00  0.51762390322E+02  0.51762390322E+02  0.00000000000E+00 0.  1.
         -1   -1    0    0    0  501 -0.00000000000E+00 -0.00000000000E+00 -0.36491346657E+03  0.36491346657E+03  0.00000000000E+00 0.  1.
         36    2    1    2    0    0 -0.35527136788E-14  0.00000000000E+00 -0.31315107624E+03  0.41667585689E+03  0.27487301279E+03 0.  0.
         25    2    3    3    0    0  0.51651275640E+01 -0.68557335519E+02 -0.14245801055E+03  0.19786253915E+03  0.11886342092E+03 0.  0.
         25    2    3    3    0    0 -0.51651275640E+01  0.68557335519E+02 -0.17069306570E+03  0.21881331774E+03  0.11839070296E+03 0.  0.
          5    1    4    4  502    0  0.18544358862E+02 -0.35003640156E+02 -0.15444531710E+03  0.15951361712E+03  0.47000000000E+01 0. -1.
         -5    1    4    4    0  502 -0.13379231298E+02 -0.33553695363E+02  0.11987306557E+02  0.38348922033E+02  0.47000000000E+01 0. -1.
          5    1    5    5  503    0  0.11259609244E+02  0.81550195111E+02 -0.50444196169E+02  0.96663954244E+02  0.47000000000E+01 0. -1.
         -5    1    5    5    0  503 -0.16424736808E+02 -0.12992859592E+02 -0.12024886953E+03  0.12214936349E+03  0.47000000000E+01 0. -1.
<mgrwt>
<rscale>  0 0.27487301E+03</rscale>
<asrwt>0</asrwt>
<pdfrwt beam="1">  1        1 0.79634445E-02 0.27487301E+03</pdfrwt>
<pdfrwt beam="2">  1       -1 0.56140534E-01 0.27487301E+03</pdfrwt>
<totfact> 0.28800317E+03</totfact>
</mgrwt>
</event>
<event>
 9    1  0.2054950E-002  0.2817023E+03  0.7818608E-02  0.1094763E+00
         -2   -1    0    0    0  501 -0.00000000000E+00  0.00000000000E+00  0.18620639854E+03  0.18620639854E+03  0.00000000000E+00 0. -1.
          2   -1    0    0  501    0  0.00000000000E+00 -0.00000000000E+00 -0.10654329185E+03  0.10654329185E+03  0.00000000000E+00 0. -1.
         36    2    1    2    0    0  0.71054273576E-14 -0.71054273576E-14  0.79663106688E+02  0.29274969039E+03  0.28170227307E+03 0.  0.
         25    2    3    3    0    0  0.47157061443E+02  0.17678872031E+02  0.97885665249E+02  0.16656640472E+03  0.12500573090E+03 0.  0.
         25    2    3    3    0    0 -0.47157061443E+02 -0.17678872031E+02 -0.18222558561E+02  0.12618328567E+03  0.11425335436E+03 0.  0.
          5    1    4    4  502    0 -0.11230547021E+02 -0.20468653047E+02  0.93544685982E+02  0.96528696352E+02  0.47000000000E+01 0.  1.
         -5    1    4    4    0  502  0.58387608465E+02  0.38147525078E+02  0.43409792666E+01  0.70037708364E+02  0.47000000000E+01 0.  1.
          5    1    5    5  503    0 -0.43507320730E+02  0.25062354309E+02 -0.51205381338E+02  0.71868558067E+02  0.47000000000E+01 0.  1.
         -5    1    5    5    0  503 -0.36497407130E+01 -0.42741226340E+02  0.32982822778E+02  0.54314727604E+02  0.47000000000E+01 0.  1.
<mgrwt>
<rscale>  0 0.28170227E+03</rscale>
<asrwt>0</asrwt>
<pdfrwt beam="1">  1        2 0.16391276E-01 0.28170227E+03</pdfrwt>
<pdfrwt beam="2">  1       -2 0.28647138E-01 0.28170227E+03</pdfrwt>
<totfact> 0.38836068E+03</totfact>
</mgrwt>
</event>
<event>
 9    1  0.2054950E-002  0.2763231E+03  0.7818608E-02  0.1097714E+00
         -1   -1    0    0    0  501 -0.00000000000E+00  0.00000000000E+00  0.42158412974E+02  0.42158412974E+02  0.00000000000E+00 0. -1.
          1   -1    0    0  501    0  0.00000000000E+00 -0.00000000000E+00 -0.45278313612E+03  0.45278313612E+03  0.00000000000E+00 0. -1.
         36    2    1    2    0    0  0.00000000000E+00 -0.14210854715E-13 -0.41062472314E+03  0.49494154909E+03  0.27632313287E+03 0.  0.
         25    2    3    3    0    0 -0.46318164274E+02  0.33357132955E+02 -0.15714338906E+03  0.20687252943E+03  0.12183648078E+03 0.  0.
         25    2    3    3    0    0  0.46318164274E+02 -0.33357132955E+02 -0.25348133409E+03  0.28806901966E+03  0.12439012299E+03 0.  0.
          5    1    4    4  502    0  0.32001627094E+01  0.51732918294E+01 -0.14891439879E+03  0.14911268275E+03  0.47000000000E+01 0. -1.
         -5    1    4    4    0  502 -0.49518326983E+02  0.28183841126E+02 -0.82289902657E+01  0.57759846681E+02  0.47000000000E+01 0. -1.
          5    1    5    5  503    0  0.31980871012E+02  0.45524493017E+02 -0.89711102392E+02  0.10566658633E+03  0.47000000000E+01 0.  1.
         -5    1    5    5    0  503  0.14337293262E+02 -0.78881625972E+02 -0.16377023170E+03  0.18240243333E+03  0.47000000000E+01 0.  1.
<mgrwt>
<rscale>  0 0.27632313E+03</rscale>
<asrwt>0</asrwt>
<pdfrwt beam="1">  1        1 0.69658944E-01 0.27632313E+03</pdfrwt>
<pdfrwt beam="2">  1       -1 0.64859097E-02 0.27632313E+03</pdfrwt>
<totfact> 0.60853989E+03</totfact>
</mgrwt>
</event>
<event>
 9    1  0.2054950E-002  0.2854339E+03  0.7818608E-02  0.1092758E+00
          2   -1    0    0  501    0  0.00000000000E+00  0.00000000000E+00  0.15839617765E+04  0.15839617765E+04  0.00000000000E+00 0.  1.
         -2   -1    0    0    0  501 -0.00000000000E+00 -0.00000000000E+00 -0.12858980548E+02  0.12858980548E+02  0.00000000000E+00 0.  1.
         36    2    1    2    0    0  0.00000000000E+00 -0.35527136788E-14  0.15711027960E+04  0.15968207570E+04  0.28543394102E+03 0.  0.
         25    2    3    3    0    0  0.68378589105E+02 -0.14491132474E+02  0.79207965002E+03  0.80482557822E+03  0.12437208296E+03 0.  0.
         25    2    3    3    0    0 -0.68378589105E+02  0.14491132474E+02  0.77902314594E+03  0.79199517883E+03  0.12447359966E+03 0.  0.
          5    1    4    4  502    0  0.30337490896E+02  0.22965797733E+02  0.67471626720E+03  0.67580464814E+03  0.47000000000E+01 0.  1.
         -5    1    4    4    0  502  0.38041098209E+02 -0.37456930207E+02  0.11736338282E+03  0.12902093008E+03  0.47000000000E+01 0.  1.
          5    1    5    5  503    0 -0.73119632216E+02 -0.42921380801E+02  0.47270914248E+03  0.48027570095E+03  0.47000000000E+01 0. -1.
         -5    1    5    5    0  503  0.47410431115E+01  0.57412513275E+02  0.30631400346E+03  0.31171947787E+03  0.47000000000E+01 0. -1.
<mgrwt>
<rscale>  0 0.28543394E+03</rscale>
<asrwt>0</asrwt>
<pdfrwt beam="1">  1        2 0.24368627E+00 0.28543394E+03</pdfrwt>
<pdfrwt beam="2">  1       -2 0.19783059E-02 0.28543394E+03</pdfrwt>
<totfact> 0.96754883E+03</totfact>
</mgrwt>
</event>
<event>
 9    1  0.2054950E-002  0.2745521E+03  0.7818608E-02  0.1098702E+00
         -2   -1    0    0    0  501 -0.00000000000E+00  0.00000000000E+00  0.23040402022E+02  0.23040402022E+02  0.00000000000E+00 0. -1.
          2   -1    0    0  501    0  0.00000000000E+00 -0.00000000000E+00 -0.81789881664E+03  0.81789881664E+03  0.00000000000E+00 0. -1.
         36    2    1    2    0    0  0.00000000000E+00  0.00000000000E+00 -0.79485841462E+03  0.84093921867E+03  0.27455212655E+03 0.  0.
         25    2    3    3    0    0  0.30557062683E+02  0.11186769930E+02 -0.46503488262E+03  0.48433538244E+03  0.13139422638E+03 0.  0.
         25    2    3    3    0    0 -0.30557062683E+02 -0.11186769930E+02 -0.32982353200E+03  0.35660383623E+03  0.13162011947E+03 0.  0.
          5    1    4    4  502    0  0.57109705307E+02  0.57792668723E+02 -0.26924929469E+03  0.28128061378E+03  0.47000000000E+01 0. -1.
         -5    1    4    4    0  502 -0.26552642623E+02 -0.46605898793E+02 -0.19578558794E+03  0.20305476866E+03  0.47000000000E+01 0. -1.
          5    1    5    5  503    0  0.46339455577E+02  0.18667835030E+02 -0.16114769681E+03  0.16877945194E+03  0.47000000000E+01 0.  1.
         -5    1    5    5    0  503 -0.76896518261E+02 -0.29854604960E+02 -0.16867583519E+03  0.18782438429E+03  0.47000000000E+01 0.  1.
<mgrwt>
<rscale>  0 0.27455213E+03</rscale>
<asrwt>0</asrwt>
<pdfrwt beam="1">  1        2 0.12583060E+00 0.27455213E+03</pdfrwt>
<pdfrwt beam="2">  1       -2 0.35446769E-02 0.27455213E+03</pdfrwt>
<totfact> 0.11331297E+04</totfact>
</mgrwt>
</event>
<event>
 9    1  0.2054950E-002  0.2750344E+03  0.7818608E-02  0.1098432E+00
         -3   -1    0    0    0  501 -0.00000000000E+00  0.00000000000E+00  0.10890499831E+03  0.10890499831E+03  0.00000000000E+00 0.  1.
          3   -1    0    0  501    0  0.00000000000E+00 -0.00000000000E+00 -0.17364659737E+03  0.17364659737E+03  0.00000000000E+00 0.  1.
         36    2    1    2    0    0  0.00000000000E+00  0.00000000000E+00 -0.64741599054E+02  0.28255159568E+03  0.27503441525E+03 0.  0.
         25    2    3    3    0    0 -0.16491627907E+02  0.17412486364E+02  0.23950664283E+01  0.14044875712E+03  0.13836527224E+03 0.  0.
         25    2    3    3    0    0  0.16491627907E+02 -0.17412486364E+02 -0.67136665482E+02  0.14210283856E+03  0.12292565396E+03 0.  0.
          5    1    4    4  502    0 -0.71704162664E+02  0.15728698418E+02  0.28859767719E+02  0.79018068124E+02  0.47000000000E+01 0. -1.
         -5    1    4    4    0  502  0.55212534757E+02  0.16837879463E+01 -0.26464701291E+02  0.61430688996E+02  0.47000000000E+01 0. -1.
          5    1    5    5  503    0 -0.11947984882E+02 -0.65825654747E+02 -0.24334788995E+02  0.71344538131E+02  0.47000000000E+01 0.  1.
         -5    1    5    5    0  503  0.28439612789E+02  0.48413168383E+02 -0.42801876488E+02  0.70758300427E+02  0.47000000000E+01 0.  1.
<mgrwt>
<rscale>  0 0.27503442E+03</rscale>
<asrwt>0</asrwt>
<pdfrwt beam="1">  1        3 0.26714861E-01 0.27503442E+03</pdfrwt>
<pdfrwt beam="2">  1       -3 0.16754615E-01 0.27503442E+03</pdfrwt>
<totfact> 0.10370855E+03</totfact>
</mgrwt>
</event>
<event>
 9    1  0.2054950E-002  0.2744256E+03  0.7818608E-02  0.1098773E+00
          2   -1    0    0  501    0  0.00000000000E+00  0.00000000000E+00  0.32571526654E+04  0.32571526654E+04  0.00000000000E+00 0. -1.
         -2   -1    0    0    0  501 -0.00000000000E+00 -0.00000000000E+00 -0.57803109381E+01  0.57803109381E+01  0.00000000000E+00 0. -1.
         36    2    1    2    0    0  0.00000000000E+00  0.71054273576E-14  0.32513723544E+04  0.32629329763E+04  0.27442561964E+03 0.  0.
         25    2    3    3    0    0  0.59920388560E+01  0.54320232366E+02  0.15678332027E+04  0.15736798471E+04  0.12401902035E+03 0.  0.
         25    2    3    3    0    0 -0.59920388560E+01 -0.54320232366E+02  0.16835391517E+04  0.16892531292E+04  0.12761452526E+03 0.  0.
          5    1    4    4  502    0  0.32755647510E+02 -0.26059264850E+02  0.81350621473E+03  0.81459589315E+03  0.47000000000E+01 0.  1.
         -5    1    4    4    0  502 -0.26763608654E+02  0.80379497216E+02  0.75432698801E+03  0.75908395396E+03  0.47000000000E+01 0.  1.
          5    1    5    5  503    0 -0.56404228396E+02 -0.36349165904E+02  0.13254788328E+04  0.13271845859E+04  0.47000000000E+01 0.  1.
         -5    1    5    5    0  503  0.50412189540E+02 -0.17971066462E+02  0.35806031888E+03  0.36206854329E+03  0.47000000000E+01 0.  1.
<mgrwt>
<rscale>  0 0.27442562E+03</rscale>
<asrwt>0</asrwt>
<pdfrwt beam="1">  1        2 0.50109894E+00 0.27442562E+03</pdfrwt>
<pdfrwt beam="2">  1       -2 0.88928121E-03 0.27442562E+03</pdfrwt>
<totfact> 0.36742802E+03</totfact>
</mgrwt>
</event>
<event>
 9    1  0.2054950E-002  0.2740978E+03  0.7818608E-02  0.1098957E+00
          1   -1    0    0  501    0  0.00000000000E+00  0.00000000000E+00  0.51982307882E+02  0.51982307882E+02  0.00000000000E+00 0. -1.
         -1   -1    0    0    0  501 -0.00000000000E+00 -0.00000000000E+00 -0.36132291231E+03  0.36132291231E+03  0.00000000000E+00 0. -1.
         36    2    1    2    0    0 -0.71054273576E-14 -0.71054273576E-14 -0.30934060443E+03  0.41330522019E+03  0.27409778454E+03 0.  0.
         25    2    3    3    0    0 -0.41436296806E+02 -0.19193369137E+02 -0.17463090472E+03  0.22340582401E+03  0.13163911732E+03 0.  0.
         25    2    3    3    0    0  0.41436296806E+02  0.19193369137E+02 -0.13470969971E+03  0.18989939618E+03  0.12581623648E+03 0.  0.
          5    1    4    4  502    0  0.16598129559E+02  0.46300358238E+02 -0.83161667857E+02  0.96732487193E+02  0.47000000000E+01 0. -1.
         -5    1    4    4    0  502 -0.58034426366E+02 -0.65493727376E+02 -0.91469236859E+02  0.12667333682E+03  0.47000000000E+01 0. -1.
          5    1    5    5  503    0 -0.38414352084E+02  0.17447099901E+02 -0.86848831160E+02  0.96668884419E+02  0.47000000000E+01 0.  1.
         -5    1    5    5    0  503  0.79850648891E+02  0.17462692364E+01 -0.47860868553E+02  0.93230511761E+02  0.47000000000E+01 0.  1.
<mgrwt>
<rscale>  0 0.27409778E+03</rscale>
<asrwt>0</asrwt>
<pdfrwt beam="1">  1        1 0.79972782E-02 0.27409778E+03</pdfrwt>
<pdfrwt beam="2">  1       -1 0.55588140E-01 0.27409778E+03</pdfrwt>
<totfact> 0.29173371E+03</totfact>
</mgrwt>
</event>
<event>
 9    1  0.2054950E-002  0.2752497E+03  0.7818608E-02  0.1098312E+00
         -4   -1    0    0    0  501 -0.00000000000E+00  0.00000000000E+00  0.66518642996E+02  0.66518642996E+02  0.00000000000E+00 0.  1.
          4   -1    0    0  501    0  0.00000000000E+00 -0.00000000000E+00 -0.28474112292E+03  0.28474112292E+03  0.00000000000E+00 0.  1.
         36    2    1    2    0    0  0.00000000000E+00  0.13322676296E-14 -0.21822247992E+03  0.35125976591E+03  0.27524965469E+03 0.  0.
         25    2    3    3    0    0 -0.52229765221E+02 -0.36890799216E+01 -0.13811103301E+03  0.19173627587E+03  0.12225622421E+03 0.  0.
         25    2    3    3    0    0  0.52229765221E+02  0.36890799216E+01 -0.80111446912E+02  0.15952349005E+03  0.12762578997E+03 0.  0.
          5    1    4    4  502    0  0.35193635677E+02  0.33014567075E+01 -0.11158864668E+02  0.37364446593E+02  0.47000000000E+01 0.  1.
         -5    1    4    4    0  502 -0.87423400898E+02 -0.69905366291E+01 -0.12695216834E+03  0.15437182927E+03  0.47000000000E+01 0.  1.
          5    1    5    5  503    0  0.59397545839E+02  0.44667164685E+02 -0.89692322591E+02  0.11657627025E+03  0.47000000000E+01 0. -1.
         -5    1    5    5    0  503 -0.71677806176E+01 -0.40978084763E+02  0.95808756782E+01  0.42947219801E+02  0.47000000000E+01 0. -1.
<mgrwt>
<rscale>  0 0.27524965E+03</rscale>
<asrwt>0</asrwt>
<pdfrwt beam="1">  1        4 0.43806327E-01 0.27524965E+03</pdfrwt>
<pdfrwt beam="2">  1       -4 0.10233637E-01 0.27524965E+03</pdfrwt>
<totfact> 0.69406254E+02</totfact>
</mgrwt>
</event>
<event>
 9    1  0.2054950E-002  0.2733375E+03  0.7818608E-02  0.1099385E+00
          2   -1    0    0  501    0  0.00000000000E+00  0.00000000000E+00  0.71069205908E+03  0.71069205908E+03  0.00000000000E+00 0. -1.
         -2   -1    0    0    0  501 -0.00000000000E+00 -0.00000000000E+00 -0.26281906325E+02  0.26281906325E+02  0.00000000000E+00 0. -1.
         36    2    1    2    0    0  0.00000000000E+00  0.14210854715E-13  0.68441015275E+03  0.73697396540E+03  0.27333746265E+03 0.  0.
         25    2    3    3    0    0 -0.35988631121E+01 -0.47906118066E+02  0.42003362268E+03  0.44099268571E+03  0.12545260743E+03 0.  0.
         25    2    3    3    0    0  0.35988631121E+01  0.47906118066E+02  0.26437653008E+03  0.29598127969E+03  0.12410487624E+03 0.  0.
          5    1    4    4  502    0  0.93848418213E+01 -0.56951698544E+01 -0.55003482197E+01  0.13147396937E+02  0.47000000000E+01 0.  1.
         -5    1    4    4    0  502 -0.12983704933E+02 -0.42210948212E+02  0.42553397090E+03  0.42784528878E+03  0.47000000000E+01 0.  1.
          5    1    5    5  503    0 -0.18369732561E+02  0.79012088873E+02  0.10909941959E+03  0.13603356431E+03  0.47000000000E+01 0. -1.
         -5    1    5    5    0  503  0.21968595673E+02 -0.31105970806E+02  0.15527711049E+03  0.15994771538E+03  0.47000000000E+01 0. -1.
<mgrwt>
<rscale>  0 0.27333746E+03</rscale>
<asrwt>0</asrwt>
<pdfrwt beam="1">  1        2 0.10933723E+00 0.27333746E+03</pdfrwt>
<pdfrwt beam="2">  1       -2 0.40433708E-02 0.27333746E+03</pdfrwt>
<totfact> 0.11084226E+04</totfact>
</mgrwt>
</event>
<event>
 9    1  0.2054950E-002  0.2749929E+03  0.7818608E-02  0.1098456E+00
          2   -1    0    0  501    0  0.00000000000E+00  0.00000000000E+00  0.26470672247E+04  0.26470672247E+04  0.00000000000E+00 0.  1.
         -2   -1    0    0    0  501 -0.00000000000E+00 -0.00000000000E+00 -0.71419715548E+01  0.71419715548E+01  0.00000000000E+00 0.  1.
         36    2    1    2    0    0  0.00000000000E+00 -0.71054273576E-14  0.26399252532E+04  0.26542091963E+04  0.27499293680E+03 0.  0.
         25    2    3    3    0    0 -0.38063011661E+02  0.28649038301E+02  0.10341009497E+04  0.10428548136E+04  0.12614209366E+03 0.  0.
         25    2    3    3    0    0  0.38063011661E+02 -0.28649038301E+02  0.16058243035E+04  0.16113543827E+04  0.12458608576E+03 0.  0.
          5    1    4    4  502    0 -0.22648382983E+02  0.76270178578E+02  0.49038050623E+03  0.49681507655E+03  0.47000000000E+01 0. -1.
         -5    1    4    4    0  502 -0.15414628678E+02 -0.47621140277E+02  0.54372044348E+03  0.54603973705E+03  0.47000000000E+01 0. -1.
          5    1    5    5  503    0  0.55806464778E+02  0.25157415489E+02  0.45458244133E+03  0.45870965003E+03  0.47000000000E+01 0.  1.
         -5    1    5    5    0  503 -0.17743453116E+02 -0.53806453790E+02  0.11512418622E+04  0.11526447327E+04  0.47000000000E+01 0.  1.
<mgrwt>
<rscale>  0 0.27499294E+03</rscale>
<asrwt>0</asrwt>
<pdfrwt beam="1">  1        2 0.40724033E+00 0.27499294E+03</pdfrwt>
<pdfrwt beam="2">  1       -2 0.10987670E-02 0.27499294E+03</pdfrwt>
<totfact> 0.61813044E+03</totfact>
</mgrwt>
</event>
<event>
 9    1  0.2054950E-002  0.2756310E+03  0.7818608E-02  0.1098099E+00
         -2   -1    0    0    0  501 -0.00000000000E+00  0.00000000000E+00  0.19595338594E+03  0.19595338594E+03  0.00000000000E+00 0. -1.
          2   -1    0    0  501    0  0.00000000000E+00 -0.00000000000E+00 -0.96926652061E+02  0.96926652061E+02  0.00000000000E+00 0. -1.
         36    2    1    2    0    0  0.00000000000E+00 -0.71054273576E-14  0.99026733882E+02  0.29288003800E+03  0.27563095370E+03 0.  0.
         25    2    3    3    0    0 -0.31797220361E+02 -0.26384366184E+02 -0.20875786816E+02  0.11975672472E+03  0.11044761944E+03 0.  0.
         25    2    3    3    0    0  0.31797220361E+02  0.26384366184E+02  0.11990252070E+03  0.17312331328E+03  0.11784680365E+03 0.  0.
          5    1    4    4  502    0 -0.42080342427E+02 -0.49288920036E+01 -0.60074617207E+02  0.73662058264E+02  0.47000000000E+01 0. -1.
         -5    1    4    4    0  502  0.10283122066E+02 -0.21455474180E+02  0.39198830391E+02  0.46094666457E+02  0.47000000000E+01 0. -1.
          5    1    5    5  503    0 -0.77079126519E+01 -0.36895410430E+02  0.84267703304E+01  0.38907373163E+02  0.47000000000E+01 0.  1.
         -5    1    5    5    0  503  0.39505133013E+02  0.63279776614E+02  0.11147575037E+03  0.13421594012E+03  0.47000000000E+01 0.  1.
<mgrwt>
<rscale>  0 0.27563095E+03</rscale>
<asrwt>0</asrwt>
<pdfrwt beam="1">  1        2 0.14911793E-01 0.27563095E+03</pdfrwt>
<pdfrwt beam="2">  1       -2 0.30146675E-01 0.27563095E+03</pdfrwt>
<totfact> 0.39563611E+03</totfact>
</mgrwt>
</event>
<event>
 9    1  0.2054950E-002  0.2756458E+03  0.7818608E-02  0.1098091E+00
          2   -1    0    0  501    0  0.00000000000E+00  0.00000000000E+00  0.18802899347E+03  0.18802899347E+03  0.00000000000E+00 0. -1.
         -2   -1    0    0    0  501 -0.00000000000E+00 -0.00000000000E+00 -0.10102246729E+03  0.10102246729E+03  0.00000000000E+00 0. -1.
         36    2    1    2    0    0 -0.71054273576E-14 -0.71054273576E-14  0.87006526178E+02  0.28905146076E+03  0.27564580783E+03 0.  0.
         25    2    3    3    0    0 -0.25271488289E+02  0.39471868926E+02  0.14935625600E+02  0.13543731588E+03  0.12618841890E+03 0.  0.
         25    2    3    3    0    0  0.25271488289E+02 -0.39471868926E+02  0.72070900579E+02  0.15361414488E+03  0.12730441563E+03 0.  0.
          5    1    4    4  502    0 -0.73227974505E+02  0.10815959080E+02 -0.85320517273E+01  0.74660612960E+02  0.47000000000E+01 0. -1.
         -5    1    4    4    0  502  0.47956486216E+02  0.28655909846E+02  0.23467677327E+02  0.60776702925E+02  0.47000000000E+01 0. -1.
          5    1    5    5  503    0 -0.15360139441E+02  0.47730080277E+01 -0.30416118757E+02  0.34726729899E+02  0.47000000000E+01 0.  1.
         -5    1    5    5    0  503  0.40631627730E+02 -0.44244876954E+02  0.10248701934E+03  0.11888741498E+03  0.47000000000E+01 0.  1.
<mgrwt>
<rscale>  0 0.27564581E+03</rscale>
<asrwt>0</asrwt>
<pdfrwt beam="1">  1        2 0.28927537E-01 0.27564581E+03</pdfrwt>
<pdfrwt beam="2">  1       -2 0.15541918E-01 0.27564581E+03</pdfrwt>
<totfact> 0.58487612E+03</totfact>
</mgrwt>
</event>
<event>
 9    1  0.2054950E-002  0.2746677E+03  0.7818608E-02  0.1098637E+00
          1   -1    0    0  501    0  0.00000000000E+00  0.00000000000E+00  0.40062032807E+03  0.40062032807E+03  0.00000000000E+00 0.  1.
         -1   -1    0    0    0  501 -0.00000000000E+00 -0.00000000000E+00 -0.47078471242E+02  0.47078471242E+02  0.00000000000E+00 0.  1.
         36    2    1    2    0    0  0.00000000000E+00  0.00000000000E+00  0.35354185683E+03  0.44769879931E+03  0.27466774542E+03 0.  0.
         25    2    3    3    0    0 -0.47744507575E+02  0.16808365409E+01  0.23289823042E+03  0.26845429155E+03  0.12467460730E+03 0.  0.
         25    2    3    3    0    0  0.47744507575E+02 -0.16808365409E+01  0.12064362641E+03  0.17924450776E+03  0.12365818110E+03 0.  0.
          5    1    4    4  502    0  0.22564669847E+02  0.32989834329E+02  0.14971492321E+03  0.15502948664E+03  0.47000000000E+01 0. -1.
         -5    1    4    4    0  502 -0.70309177423E+02 -0.31308997788E+02  0.83183307205E+02  0.11342480491E+03  0.47000000000E+01 0. -1.
          5    1    5    5  503    0  0.63962215624E+02  0.43300176340E+02  0.44662147561E+02  0.89346895432E+02  0.47000000000E+01 0.  1.
         -5    1    5    5    0  503 -0.16217708048E+02 -0.44981012881E+02  0.75981478847E+02  0.89897612326E+02  0.47000000000E+01 0.  1.
<mgrwt>
<rscale>  0 0.27466775E+03</rscale>
<asrwt>0</asrwt>
<pdfrwt beam="1">  1        1 0.61633894E-01 0.27466775E+03</pdfrwt>
<pdfrwt beam="2">  1       -1 0.72428420E-02 0.27466775E+03</pdfrwt>
<totfact> 0.60290270E+03</totfact>
</mgrwt>
</event>
<event>
 9    1  0.2054950E-002  0.2751329E+03  0.7818608E-02  0.1098377E+00
          1   -1    0    0  501    0  0.00000000000E+00  0.00000000000E+00  0.65367438786E+03  0.65367438786E+03  0.00000000000E+00 0.  1.
         -1   -1    0    0    0  501 -0.00000000000E+00 -0.00000000000E+00 -0.28950993425E+02  0.28950993425E+02  0.00000000000E+00 0.  1.
         36    2    1    2    0    0  0.00000000000E+00  0.00000000000E+00  0.62472339443E+03  0.68262538128E+03  0.27513286176E+03 0.  0.
         25    2    3    3    0    0 -0.28941093526E+02 -0.49312589078E+02  0.32734632687E+03  0.35517490580E+03  0.12539648186E+03 0.  0.
         25    2    3    3    0    0  0.28941093526E+02  0.49312589078E+02  0.29737706757E+03  0.32745047548E+03  0.12458481144E+03 0.  0.
          5    1    4    4  502    0 -0.13641774156E+02 -0.25499686791E+02  0.28772886018E+01  0.29439782918E+02  0.47000000000E+01 0. -1.
         -5    1    4    4    0  502 -0.15299319370E+02 -0.23812902287E+02  0.32446903827E+03  0.32573512289E+03  0.47000000000E+01 0. -1.
          5    1    5    5  503    0  0.29855386140E+02  0.18080951948E+02  0.29351316536E+03  0.29561856022E+03  0.47000000000E+01 0. -1.
         -5    1    5    5    0  503 -0.91429261463E+00  0.31231637129E+02  0.38639022006E+01  0.31831915258E+02  0.47000000000E+01 0. -1.
<mgrwt>
<rscale>  0 0.27513286E+03</rscale>
<asrwt>0</asrwt>
<pdfrwt beam="1">  1        1 0.10056528E+00 0.27513286E+03</pdfrwt>
<pdfrwt beam="2">  1       -1 0.44539995E-02 0.27513286E+03</pdfrwt>
<totfact> 0.65004469E+03</totfact>
</mgrwt>
</event>
<event>
 9    1  0.2054950E-002  0.2753227E+03  0.7818608E-02  0.1098271E+00
          3   -1    0    0  501    0  0.00000000000E+00  0.00000000000E+00  0.33023436732E+03  0.33023436732E+03  0.00000000000E+00 0. -1.
         -3   -1    0    0    0  501 -0.00000000000E+00 -0.00000000000E+00 -0.57385437965E+02  0.57385437965E+02  0.00000000000E+00 0. -1.
         36    2    1    2    0    0  0.00000000000E+00 -0.35527136788E-14  0.27284892935E+03  0.38761980528E+03  0.27532267469E+03 0.  0.
         25    2    3    3    0    0 -0.38136130609E+02  0.13799847561E+02  0.18943123167E+03  0.23132747281E+03  0.12642550333E+03 0.  0.
         25    2    3    3    0    0  0.38136130609E+02 -0.13799847561E+02  0.83417697678E+02  0.15629233247E+03  0.12579340465E+03 0.  0.
          5    1    4    4  502    0 -0.64689522879E+02 -0.65180119557E+01  0.36492567438E+02  0.74706200066E+02  0.47000000000E+01 0. -1.
         -5    1    4    4    0  502  0.26553392270E+02  0.20317859517E+02  0.15293866424E+03  0.15662127274E+03  0.47000000000E+01 0. -1.
          5    1    5    5  503    0  0.80522476125E+02  0.97532809384E+01  0.65578813403E+02  0.10441104548E+03  0.47000000000E+01 0. -1.
         -5    1    5    5    0  503 -0.42386345516E+02 -0.23553128500E+02  0.17838884275E+02  0.51881286997E+02  0.47000000000E+01 0. -1.
<mgrwt>
<rscale>  0 0.27532267E+03</rscale>
<asrwt>0</asrwt>
<pdfrwt beam="1">  1        3 0.50805286E-01 0.27532267E+03</pdfrwt>
<pdfrwt beam="2">  1       -3 0.88285291E-02 0.27532267E+03</pdfrwt>
<totfact> 0.89271760E+02</totfact>
</mgrwt>
</event>
<event>
 9    1  0.2054950E-002  0.2751093E+03  0.7818608E-02  0.1098391E+00
         -1   -1    0    0    0  501 -0.00000000000E+00  0.00000000000E+00  0.10291092056E+02  0.10291092056E+02  0.00000000000E+00 0.  1.
          1   -1    0    0  501    0  0.00000000000E+00 -0.00000000000E+00 -0.18386077345E+04  0.18386077345E+04  0.00000000000E+00 0.  1.
         36    2    1    2    0    0 -0.71054273576E-14  0.00000000000E+00 -0.18283166424E+04  0.18488988265E+04  0.27510929791E+03 0.  0.
         25    2    3    3    0    0  0.40430025381E+02 -0.39203791992E+02 -0.87794004413E+03  0.88841175048E+03  0.12379496372E+03 0.  0.
         25    2    3    3    0    0 -0.40430025381E+02  0.39203791992E+02 -0.95037659827E+03  0.96048707603E+03  0.12707564844E+03 0.  0.
          5    1    4    4  502    0 -0.25099398759E+01 -0.24721374233E+02 -0.77982443445E+03  0.78023437806E+03  0.47000000000E+01 0. -1.
         -5    1    4    4    0  502  0.42939965257E+02 -0.14482417760E+02 -0.98115609676E+02  0.10817737241E+03  0.47000000000E+01 0. -1.
          5    1    5    5  503    0  0.29726056598E+02  0.28238774828E+02 -0.11676595558E+03  0.12384443963E+03  0.47000000000E+01 0. -1.
         -5    1    5    5    0  503 -0.70156081979E+02  0.10965017165E+02 -0.83361064270E+03  0.83664263641E+03  0.47000000000E+01 0. -1.
<mgrwt>
<rscale>  0 0.27510930E+03</rscale>
<asrwt>0</asrwt>
<pdfrwt beam="1">  1        1 0.28286304E+00 0.27510930E+03</pdfrwt>
<pdfrwt beam="2">  1       -1 0.15832432E-02 0.27510930E+03</pdfrwt>
<totfact> 0.41431801E+03</totfact>
</mgrwt>
</event>
<event>
 9    1  0.2054950E-002  0.2752616E+03  0.7818608E-02  0.1098305E+00
         -2   -1    0    0    0  501 -0.00000000000E+00  0.00000000000E+00  0.33299220174E+02  0.33299220174E+02  0.00000000000E+00 0.  1.
          2   -1    0    0  501    0  0.00000000000E+00 -0.00000000000E+00 -0.56884930148E+03  0.56884930148E+03  0.00000000000E+00 0.  1.
         36    2    1    2    0    0 -0.71054273576E-14 -0.71054273576E-14 -0.53555008131E+03  0.60214852166E+03  0.27526160746E+03 0.  0.
         25    2    3    3    0    0 -0.31732522130E+02  0.49698870072E+02 -0.23496523103E+03  0.27178379286E+03  0.12321054996E+03 0.  0.
         25    2    3    3    0    0  0.31732522130E+02 -0.49698870072E+02 -0.30058485028E+03  0.33036472879E+03  0.12374437833E+03 0.  0.
          5    1    4    4  502    0 -0.47116136973E+02  0.84292565288E+02 -0.18683083197E+03  0.21036400999E+03  0.47000000000E+01 0.  1.
         -5    1    4    4    0  502  0.15383614843E+02 -0.34593695216E+02 -0.48134399063E+02  0.61419782868E+02  0.47000000000E+01 0.  1.
          5    1    5    5  503    0 -0.40786477497E+02 -0.13006378908E+02 -0.17853113304E+03  0.18365227498E+03  0.47000000000E+01 0.  1.
         -5    1    5    5    0  503  0.72518999627E+02 -0.36692491164E+02 -0.12205371723E+03  0.14671245382E+03  0.47000000000E+01 0.  1.
<mgrwt>
<rscale>  0 0.27526161E+03</rscale>
<asrwt>0</asrwt>
<pdfrwt beam="1">  1        2 0.87515272E-01 0.27526161E+03</pdfrwt>
<pdfrwt beam="2">  1       -2 0.51229573E-02 0.27526161E+03</pdfrwt>
<totfact> 0.10080087E+04</totfact>
</mgrwt>
</event>
<event>
 9    1  0.2054950E-002  0.2744413E+03  0.7818608E-02  0.1098764E+00
          2   -1    0    0  501    0  0.00000000000E+00  0.00000000000E+00  0.77661018903E+03  0.77661018903E+03  0.00000000000E+00 0. -1.
         -2   -1    0    0    0  501 -0.00000000000E+00 -0.00000000000E+00 -0.24245763381E+02  0.24245763381E+02  0.00000000000E+00 0. -1.
         36    2    1    2    0    0 -0.71054273576E-14  0.00000000000E+00  0.75236442565E+03  0.80085595241E+03  0.27444130070E+03 0.  0.
         25    2    3    3    0    0  0.41891912489E+02 -0.41436916355E+02  0.35577037353E+03  0.38212204630E+03  0.12638334233E+03 0.  0.
         25    2    3    3    0    0 -0.41891912489E+02  0.41436916355E+02  0.39659405212E+03  0.41873390611E+03  0.12074473729E+03 0.  0.
          5    1    4    4  502    0  0.83642393401E+02 -0.74892207728E+01  0.24152570127E+03  0.25575162321E+03  0.47000000000E+01 0.  1.
         -5    1    4    4    0  502 -0.41750480912E+02 -0.33947695582E+02  0.11424467226E+03  0.12637042308E+03  0.47000000000E+01 0.  1.
          5    1    5    5  503    0 -0.57417638815E+01  0.25685900508E+01  0.34322760729E+03  0.34331741277E+03  0.47000000000E+01 0. -1.
         -5    1    5    5    0  503 -0.36150148608E+02  0.38868326304E+02  0.53366444835E+02  0.75416493344E+02  0.47000000000E+01 0. -1.
<mgrwt>
<rscale>  0 0.27444130E+03</rscale>
<asrwt>0</asrwt>
<pdfrwt beam="1">  1        2 0.11947847E+00 0.27444130E+03</pdfrwt>
<pdfrwt beam="2">  1       -2 0.37301180E-02 0.27444130E+03</pdfrwt>
<totfact> 0.11212018E+04</totfact>
</mgrwt>
</event>
<event>
 9    1  0.2054950E-002  0.2749570E+03  0.7818608E-02  0.1098476E+00
         -2   -1    0    0    0  501 -0.00000000000E+00  0.00000000000E+00  0.27130183408E+02  0.27130183408E+02  0.00000000000E+00 0.  1.
          2   -1    0    0  501    0  0.00000000000E+00 -0.00000000000E+00 -0.69665353514E+03  0.69665353514E+03  0.00000000000E+00 0.  1.
         36    2    1    2    0    0  0.00000000000E+00  0.35527136788E-14 -0.66952335173E+03  0.72378371855E+03  0.27495700159E+03 0.  0.
         25    2    3    3    0    0 -0.37287813955E+02 -0.28908622689E+02 -0.24415642770E+03  0.27808189786E+03  0.12446321220E+03 0.  0.
         25    2    3    3    0    0  0.37287813955E+02  0.28908622689E+02 -0.42536692403E+03  0.44570182069E+03  0.12444678933E+03 0.  0.
          5    1    4    4  502    0 -0.38172887368E+02  0.22755486375E+02 -0.21744217091E+02  0.49697912100E+02  0.47000000000E+01 0.  1.
         -5    1    4    4    0  502  0.88507341296E+00 -0.51664109064E+02 -0.22241221061E+03  0.22838398576E+03  0.47000000000E+01 0.  1.
          5    1    5    5  503    0  0.72985808642E+02 -0.10747548673E+02 -0.30708386409E+03  0.31585602361E+03  0.47000000000E+01 0. -1.
         -5    1    5    5    0  503 -0.35697994687E+02  0.39656171362E+02 -0.11828305994E+03  0.12984579708E+03  0.47000000000E+01 0. -1.
<mgrwt>
<rscale>  0 0.27495700E+03</rscale>
<asrwt>0</asrwt>
<pdfrwt beam="1">  1        2 0.10717747E+00 0.27495700E+03</pdfrwt>
<pdfrwt beam="2">  1       -2 0.41738741E-02 0.27495700E+03</pdfrwt>
<totfact> 0.10828242E+04</totfact>
</mgrwt>
</event>
<event>
 9    1  0.2054950E-002  0.2736882E+03  0.7818608E-02  0.1099187E+00
         -2   -1    0    0    0  501 -0.00000000000E+00  0.00000000000E+00  0.45462048411E+03  0.45462048411E+03  0.00000000000E+00 0. -1.
          2   -1    0    0  501    0  0.00000000000E+00 -0.00000000000E+00 -0.41191076582E+02  0.41191076582E+02  0.00000000000E+00 0. -1.
         36    2    1    2    0    0  0.71054273576E-14  0.00000000000E+00  0.41342940753E+03  0.49581156070E+03  0.27368819614E+03 0.  0.
         25    2    3    3    0    0  0.88192002407E+01  0.16682444974E+02  0.15196677816E+03  0.20504286232E+03  0.13635465324E+03 0.  0.
         25    2    3    3    0    0 -0.88192002407E+01 -0.16682444974E+02  0.26146262937E+03  0.29076869837E+03  0.12580797723E+03 0.  0.
          5    1    4    4  502    0 -0.53955529347E+02  0.39519031142E+02  0.99461134540E+02  0.11994815652E+03  0.47000000000E+01 0. -1.
         -5    1    4    4    0  502  0.62774729588E+02 -0.22836586168E+02  0.52505643621E+02  0.85094705797E+02  0.47000000000E+01 0. -1.
          5    1    5    5  503    0  0.52854010849E+02  0.47174191783E+01  0.67059465358E+02  0.85643811222E+02  0.47000000000E+01 0.  1.
         -5    1    5    5    0  503 -0.61673211089E+02 -0.21399864152E+02  0.19440316401E+03  0.20512488715E+03  0.47000000000E+01 0.  1.
<mgrwt>
<rscale>  0 0.27368820E+03</rscale>
<asrwt>0</asrwt>
<pdfrwt beam="1">  1        2 0.63370890E-02 0.27368820E+03</pdfrwt>
<pdfrwt beam="2">  1       -2 0.69941610E-01 0.27368820E+03</pdfrwt>
<totfact> 0.21918114E+03</totfact>
</mgrwt>
</event>
<event>
 9    1  0.2054950E-002  0.2742950E+03  0.7818608E-02  0.1098846E+00
          2   -1    0    0  501    0  0.00000000000E+00  0.00000000000E+00  0.72420634341E+03  0.72420634341E+03  0.00000000000E+00 0.  1.
         -2   -1    0    0    0  501 -0.00000000000E+00 -0.00000000000E+00 -0.25972488667E+02  0.25972488667E+02  0.00000000000E+00 0.  1.
         36    2    1    2    0    0  0.00000000000E+00  0.35527136788E-14  0.69823385474E+03  0.75017883207E+03  0.27429503128E+03 0.  0.
         25    2    3    3    0    0 -0.36697038734E+02  0.15416151743E+02  0.28846021737E+03  0.31674829909E+03  0.12464292031E+03 0.  0.
         25    2    3    3    0    0  0.36697038734E+02 -0.15416151743E+02  0.40977363737E+03  0.43343053298E+03  0.13551111635E+03 0.  0.
          5    1    4    4  502    0 -0.64667541430E+02 -0.34441209622E+02  0.16691621069E+03  0.18234911359E+03  0.47000000000E+01 0. -1.
         -5    1    4    4    0  502  0.27970502696E+02  0.49857361365E+02  0.12154400668E+03  0.13439918550E+03  0.47000000000E+01 0. -1.
          5    1    5    5  503    0 -0.50335871944E+02 -0.10602518287E+01  0.18882613044E+03  0.19547946612E+03  0.47000000000E+01 0.  1.
         -5    1    5    5    0  503  0.87032910678E+02 -0.14355899914E+02  0.22094750693E+03  0.23795106686E+03  0.47000000000E+01 0.  1.
<mgrwt>
<rscale>  0 0.27429503E+03</rscale>
<asrwt>0</asrwt>
<pdfrwt beam="1">  1        2 0.11141635E+00 0.27429503E+03</pdfrwt>
<pdfrwt beam="2">  1       -2 0.39957680E-02 0.27429503E+03</pdfrwt>
<totfact> 0.11027880E+04</totfact>
</mgrwt>
</event>
<event>
 9    1  0.2054950E-002  0.2750560E+03  0.7818608E-02  0.1098420E+00
          1   -1    0    0  501    0  0.00000000000E+00  0.00000000000E+00  0.66499491191E+02  0.66499491191E+02  0.00000000000E+00 0.  1.
         -1   -1    0    0    0  501 -0.00000000000E+00 -0.00000000000E+00 -0.28442239256E+03  0.28442239256E+03  0.00000000000E+00 0.  1.
         36    2    1    2    0    0  0.71054273576E-14  0.00000000000E+00 -0.21792290137E+03  0.35092188375E+03  0.27505595350E+03 0.  0.
         25    2    3    3    0    0 -0.23853729569E+02  0.47559398927E+02 -0.14486947251E+03  0.19634323593E+03  0.12137794441E+03 0.  0.
         25    2    3    3    0    0  0.23853729569E+02 -0.47559398927E+02 -0.73053428862E+02  0.15457864783E+03  0.12540677037E+03 0.  0.
          5    1    4    4  502    0 -0.47958189632E+02 -0.62736182432E+01 -0.10775722831E+02  0.49775018243E+02  0.47000000000E+01 0.  1.
         -5    1    4    4    0  502  0.24104460062E+02  0.53833017170E+02 -0.13409374968E+03  0.14656821768E+03  0.47000000000E+01 0.  1.
          5    1    5    5  503    0  0.43022852836E+02  0.29839096749E+02 -0.11687099207E+02  0.53851795224E+02  0.47000000000E+01 0. -1.
         -5    1    5    5    0  503 -0.19169123267E+02 -0.77398495676E+02 -0.61366329656E+02  0.10072685260E+03  0.47000000000E+01 0. -1.
<mgrwt>
<rscale>  0 0.27505595E+03</rscale>
<asrwt>0</asrwt>
<pdfrwt beam="1">  1        1 0.10230691E-01 0.27505595E+03</pdfrwt>
<pdfrwt beam="2">  1       -1 0.43757290E-01 0.27505595E+03</pdfrwt>
<totfact> 0.32526429E+03</totfact>
</mgrwt>
</event>
<event>
 9    1  0.2054950E-002  0.2745009E+03  0.7818608E-02  0.1098731E+00
         -1   -1    0    0    0  501 -0.00000000000E+00  0.00000000000E+00  0.23173518334E+02  0.23173518334E+02  0.00000000000E+00 0. -1.
          1   -1    0    0  501    0  0.00000000000E+00 -0.00000000000E+00 -0.81289719899E+03  0.81289719899E+03  0.00000000000E+00 0. -1.
         36    2    1    2    0    0 -0.71054273576E-14 -0.71054273576E-14 -0.78972368066E+03  0.83607071733E+03  0.27450091544E+03 0.  0.
         25    2    3    3    0    0 -0.10248526873E+01 -0.20967955623E+02 -0.56506093353E+03  0.57969966008E+03  0.12773852907E+03 0.  0.
         25    2    3    3    0    0  0.10248526873E+01  0.20967955623E+02 -0.22466274712E+03  0.25637105724E+03  0.12170482143E+03 0.  0.
          5    1    4    4  502    0 -0.38984805893E+02 -0.29125200603E+02 -0.50901169772E+03  0.51135417356E+03  0.47000000000E+01 0.  1.
         -5    1    4    4    0  502  0.37959953205E+02  0.81572449804E+01 -0.56049235818E+02  0.68345486528E+02  0.47000000000E+01 0.  1.
          5    1    5    5  503    0 -0.41501755434E+02 -0.21740986332E+02 -0.39084611329E+02  0.61194468978E+02  0.47000000000E+01 0.  1.
         -5    1    5    5    0  503  0.42526608121E+02  0.42708941955E+02 -0.18557813579E+03  0.19517658826E+03  0.47000000000E+01 0.  1.
<mgrwt>
<rscale>  0 0.27450092E+03</rscale>
<asrwt>0</asrwt>
<pdfrwt beam="1">  1        1 0.12506112E+00 0.27450092E+03</pdfrwt>
<pdfrwt beam="2">  1       -1 0.35651562E-02 0.27450092E+03</pdfrwt>
<totfact> 0.65492124E+03</totfact>
</mgrwt>
</event>
<event>
 9    1  0.2054950E-002  0.2750763E+03  0.7818608E-02  0.1098409E+00
         -4   -1    0    0    0  501 -0.00000000000E+00  0.00000000000E+00  0.20071715172E+03  0.20071715172E+03  0.00000000000E+00 0. -1.
          4   -1    0    0  501    0  0.00000000000E+00 -0.00000000000E+00 -0.94245746301E+02  0.94245746301E+02  0.00000000000E+00 0. -1.
         36    2    1    2    0    0  0.00000000000E+00  0.71054273576E-14  0.10647140542E+03  0.29496289802E+03  0.27507626404E+03 0.  0.
         25    2    3    3    0    0  0.61695481630E+02  0.29740984086E+02  0.57712178492E+02  0.15303339375E+03  0.12408733001E+03 0.  0.
         25    2    3    3    0    0 -0.61695481630E+02 -0.29740984086E+02  0.48759226924E+02  0.14192950427E+03  0.11434886700E+03 0.  0.
          5    1    4    4  502    0  0.29351137486E+02 -0.21601042857E+02 -0.29196894003E+02  0.46932323016E+02  0.47000000000E+01 0. -1.
         -5    1    4    4    0  502  0.32344344144E+02  0.51342026943E+02  0.86909072495E+02  0.10610107073E+03  0.47000000000E+01 0. -1.
          5    1    5    5  503    0 -0.48661472013E+01  0.33054781028E+02 -0.13881097856E+02  0.36483870616E+02  0.47000000000E+01 0. -1.
         -5    1    5    5    0  503 -0.56829334429E+02 -0.62795765114E+02  0.62640324780E+02  0.10544563365E+03  0.47000000000E+01 0. -1.
<mgrwt>
<rscale>  0 0.27507626E+03</rscale>
<asrwt>0</asrwt>
<pdfrwt beam="1">  1        4 0.14499346E-01 0.27507626E+03</pdfrwt>
<pdfrwt beam="2">  1       -4 0.30879562E-01 0.27507626E+03</pdfrwt>
<totfact> 0.75494219E+02</totfact>
</mgrwt>
</event>
<event>
 9    1  0.2054950E-002  0.2756951E+03  0.7818608E-02  0.1098064E+00
          4   -1    0    0  501    0  0.00000000000E+00  0.00000000000E+00  0.11401113080E+03  0.11401113080E+03  0.00000000000E+00 0.  1.
         -4   -1    0    0    0  501 -0.00000000000E+00 -0.00000000000E+00 -0.16666747686E+03  0.16666747686E+03  0.00000000000E+00 0.  1.
         36    2    1    2    0    0  0.71054273576E-14  0.71054273576E-14 -0.52656346068E+02  0.28067860766E+03  0.27569510336E+03 0.  0.
         25    2    3    3    0    0 -0.47170288839E+02  0.19618523994E+02 -0.14131395914E+02  0.14127394892E+03  0.13095308190E+03 0.  0.
         25    2    3    3    0    0  0.47170288839E+02 -0.19618523994E+02 -0.38524950153E+02  0.13940465874E+03  0.12385299537E+03 0.  0.
          5    1    4    4  502    0  0.13847596868E+01  0.52390310231E+02 -0.49866338006E+02  0.72494164121E+02  0.47000000000E+01 0. -1.
         -5    1    4    4    0  502 -0.48555048526E+02 -0.32771786238E+02  0.35734942092E+02  0.68779784798E+02  0.47000000000E+01 0. -1.
          5    1    5    5  503    0 -0.76285572950E+01  0.18326889536E+02  0.34713968457E+02  0.40264368522E+02  0.47000000000E+01 0. -1.
         -5    1    5    5    0  503  0.54798846134E+02 -0.37945413530E+02 -0.73238918610E+02  0.99140290220E+02  0.47000000000E+01 0. -1.
<mgrwt>
<rscale>  0 0.27569510E+03</rscale>
<asrwt>0</asrwt>
<pdfrwt beam="1">  1        4 0.17540174E-01 0.27569510E+03</pdfrwt>
<pdfrwt beam="2">  1       -4 0.25641150E-01 0.27569510E+03</pdfrwt>
<totfact> 0.76597417E+02</totfact>
</mgrwt>
</event>
<event>
 9    1  0.2054950E-002  0.2748072E+03  0.7818608E-02  0.1098559E+00
          2   -1    0    0  501    0  0.00000000000E+00  0.00000000000E+00  0.88578225376E+03  0.88578225376E+03  0.00000000000E+00 0.  1.
         -2   -1    0    0    0  501 -0.00000000000E+00 -0.00000000000E+00 -0.21314213344E+02  0.21314213344E+02  0.00000000000E+00 0.  1.
         36    2    1    2    0    0  0.00000000000E+00  0.00000000000E+00  0.86446804041E+03  0.90709646710E+03  0.27480721921E+03 0.  0.
         25    2    3    3    0    0  0.52369855842E+02 -0.13156336606E+01  0.32573803672E+03  0.35234614201E+03  0.12368590271E+03 0.  0.
         25    2    3    3    0    0 -0.52369855842E+02  0.13156336606E+01  0.53873000369E+03  0.55475032509E+03  0.12154659031E+03 0.  0.
          5    1    4    4  502    0  0.60400284329E+02  0.42249097230E+02  0.27537663245E+03  0.28510973373E+03  0.47000000000E+01 0.  1.
         -5    1    4    4    0  502 -0.80304284874E+01 -0.43564730891E+02  0.50361404268E+02  0.67236408286E+02  0.47000000000E+01 0.  1.
          5    1    5    5  503    0 -0.72173702766E+02  0.31592951156E+02  0.21605796852E+03  0.23002237651E+03  0.47000000000E+01 0.  1.
         -5    1    5    5    0  503  0.19803846924E+02 -0.30277317495E+02  0.32267203517E+03  0.32472794858E+03  0.47000000000E+01 0.  1.
<mgrwt>
<rscale>  0 0.27480722E+03</rscale>
<asrwt>0</asrwt>
<pdfrwt beam="1">  1        2 0.13627416E+00 0.27480722E+03</pdfrwt>
<pdfrwt beam="2">  1       -2 0.32791104E-02 0.27480722E+03</pdfrwt>
<totfact> 0.11471704E+04</totfact>
</mgrwt>
</event>
<event>
 9    1  0.2054950E-002  0.2750937E+03  0.7818608E-02  0.1098399E+00
          2   -1    0    0  501    0  0.00000000000E+00  0.00000000000E+00  0.43653428585E+03  0.43653428585E+03  0.00000000000E+00 0. -1.
         -2   -1    0    0    0  501 -0.00000000000E+00 -0.00000000000E+00 -0.43339391132E+02  0.43339391132E+02  0.00000000000E+00 0. -1.
         36    2    1    2    0    0  0.00000000000E+00  0.00000000000E+00  0.39319489472E+03  0.47987367698E+03  0.27509365792E+03 0.  0.
         25    2    3    3    0    0  0.42417431897E+02 -0.34926123832E+02  0.18609165523E+03  0.23053335129E+03  0.12448473502E+03 0.  0.
         25    2    3    3    0    0 -0.42417431897E+02  0.34926123832E+02  0.20710323948E+03  0.24934032569E+03  0.12751381713E+03 0.  0.
          5    1    4    4  502    0 -0.21364239491E+02  0.29757135907E+02  0.94440986277E+02  0.10140565939E+03  0.47000000000E+01 0. -1.
         -5    1    4    4    0  502  0.63781671388E+02 -0.64683259739E+02  0.91650668955E+02  0.12912769190E+03  0.47000000000E+01 0. -1.
          5    1    5    5  503    0  0.13016726334E+02 -0.23383920011E+02  0.14519292297E+03  0.14771363430E+03  0.47000000000E+01 0.  1.
         -5    1    5    5    0  503 -0.55434158231E+02  0.58310043843E+02  0.61910316518E+02  0.10162669139E+03  0.47000000000E+01 0.  1.
<mgrwt>
<rscale>  0 0.27509366E+03</rscale>
<asrwt>0</asrwt>
<pdfrwt beam="1">  1        2 0.67159118E-01 0.27509366E+03</pdfrwt>
<pdfrwt beam="2">  1       -2 0.66675989E-02 0.27509366E+03</pdfrwt>
<totfact> 0.90531184E+03</totfact>
</mgrwt>
</event>
<event>
 9    1  0.2054950E-002  0.2747167E+03  0.7818608E-02  0.1098610E+00
         -2   -1    0    0    0  501 -0.00000000000E+00  0.00000000000E+00  0.28358706868E+02  0.28358706868E+02  0.00000000000E+00 0.  1.
          2   -1    0    0  501    0  0.00000000000E+00 -0.00000000000E+00 -0.66530925100E+03  0.66530925100E+03  0.00000000000E+00 0.  1.
         36    2    1    2    0    0  0.00000000000E+00  0.00000000000E+00 -0.63695054413E+03  0.69366795786E+03  0.27471665421E+03 0.  0.
         25    2    3    3    0    0  0.30163293633E+02 -0.35552799307E+02 -0.30302075529E+03  0.33106512824E+03  0.12493484372E+03 0.  0.
         25    2    3    3    0    0 -0.30163293633E+02  0.35552799307E+02 -0.33392978883E+03  0.36260282962E+03  0.13340870421E+03 0.  0.
          5    1    4    4  502    0  0.23160629133E+02 -0.15187854488E+02 -0.30732528873E+03  0.30860655981E+03  0.47000000000E+01 0. -1.
         -5    1    4    4    0  502  0.70026644997E+01 -0.20364944819E+02  0.43045334378E+01  0.22458568425E+02  0.47000000000E+01 0. -1.
          5    1    5    5  503    0 -0.52094795560E+02  0.77175858593E+02 -0.23925299021E+03  0.25677629212E+03  0.47000000000E+01 0. -1.
         -5    1    5    5    0  503  0.21931501927E+02 -0.41623059286E+02 -0.94676798628E+02  0.10582653750E+03  0.47000000000E+01 0. -1.
<mgrwt>
<rscale>  0 0.27471665E+03</rscale>
<asrwt>0</asrwt>
<pdfrwt beam="1">  1        2 0.10235526E+00 0.27471665E+03</pdfrwt>
<pdfrwt beam="2">  1       -2 0.43628784E-02 0.27471665E+03</pdfrwt>
<totfact> 0.10704904E+04</totfact>
</mgrwt>
</event>
<event>
 9    1  0.2054950E-002  0.2750992E+03  0.7818608E-02  0.1098396E+00
         -1   -1    0    0    0  501 -0.00000000000E+00  0.00000000000E+00  0.21267922700E+03  0.21267922700E+03  0.00000000000E+00 0.  1.
          1   -1    0    0  501    0  0.00000000000E+00 -0.00000000000E+00 -0.88959756661E+02  0.88959756661E+02  0.00000000000E+00 0.  1.
         36    2    1    2    0    0 -0.71054273576E-14 -0.14210854715E-13  0.12371947034E+03  0.30163898367E+03  0.27509919870E+03 0.  0.
         25    2    3    3    0    0  0.17441180633E+02  0.41275672682E+02  0.10297634878E+03  0.16740608971E+03  0.12414827638E+03 0.  0.
         25    2    3    3    0    0 -0.17441180633E+02 -0.41275672682E+02  0.20743121568E+02  0.13423289395E+03  0.12482113919E+03 0.  0.
          5    1    4    4  502    0 -0.25837872722E+02  0.64153408323E+02  0.22112642895E+02  0.72762039842E+02  0.47000000000E+01 0. -1.
         -5    1    4    4    0  502  0.43279053356E+02 -0.22877735640E+02  0.80863705880E+02  0.94644049871E+02  0.47000000000E+01 0. -1.
          5    1    5    5  503    0  0.30507219451E+01 -0.38827792792E+02  0.70210750110E+02  0.80427257994E+02  0.47000000000E+01 0.  1.
         -5    1    5    5    0  503 -0.20491902579E+02 -0.24478798908E+01 -0.49467628542E+02  0.53805635958E+02  0.47000000000E+01 0.  1.
<mgrwt>
<rscale>  0 0.27509920E+03</rscale>
<asrwt>0</asrwt>
<pdfrwt beam="1">  1        1 0.13686116E-01 0.27509920E+03</pdfrwt>
<pdfrwt beam="2">  1       -1 0.32719881E-01 0.27509920E+03</pdfrwt>
<totfact> 0.36829403E+03</totfact>
</mgrwt>
</event>
<event>
 9    1  0.2054950E-002  0.2752780E+03  0.7818608E-02  0.1098296E+00
          1   -1    0    0  501    0  0.00000000000E+00  0.00000000000E+00  0.82595312917E+03  0.82595312917E+03  0.00000000000E+00 0. -1.
         -1   -1    0    0    0  501 -0.00000000000E+00 -0.00000000000E+00 -0.22936529201E+02  0.22936529201E+02  0.00000000000E+00 0. -1.
         36    2    1    2    0    0  0.10658141036E-13  0.00000000000E+00  0.80301659996E+03  0.84888965837E+03  0.27527802721E+03 0.  0.
         25    2    3    3    0    0  0.14223637946E+02 -0.28334683372E+02  0.48456181678E+03  0.50337881380E+03  0.13260810587E+03 0.  0.
         25    2    3    3    0    0 -0.14223637946E+02  0.28334683372E+02  0.31845478319E+03  0.34551084457E+03  0.13022721921E+03 0.  0.
          5    1    4    4  502    0  0.69506101829E+02 -0.32088856537E+02  0.33870825978E+03  0.34728398775E+03  0.47000000000E+01 0.  1.
         -5    1    4    4    0  502 -0.55282463883E+02  0.37541731646E+01  0.14585355700E+03  0.15609482604E+03  0.47000000000E+01 0.  1.
          5    1    5    5  503    0  0.11450285243E+02 -0.95238782584E+01  0.29208570520E+03  0.29250292729E+03  0.47000000000E+01 0. -1.
         -5    1    5    5    0  503 -0.25673923189E+02  0.37858561631E+02  0.26369077985E+02  0.53007917281E+02  0.47000000000E+01 0. -1.
<mgrwt>
<rscale>  0 0.27527803E+03</rscale>
<asrwt>0</asrwt>
<pdfrwt beam="1">  1        1 0.12706969E+00 0.27527803E+03</pdfrwt>
<pdfrwt beam="2">  1       -1 0.35286974E-02 0.27527803E+03</pdfrwt>
<totfact> 0.64873231E+03</totfact>
</mgrwt>
</event>
<event>
 9    1  0.2054950E-002  0.2749411E+03  0.7818608E-02  0.1098485E+00
         -2   -1    0    0    0  501 -0.00000000000E+00  0.00000000000E+00  0.43032839826E+02  0.43032839826E+02  0.00000000000E+00 0.  1.
          2   -1    0    0  501    0  0.00000000000E+00 -0.00000000000E+00 -0.43915636132E+03  0.43915636132E+03  0.00000000000E+00 0.  1.
         36    2    1    2    0    0  0.00000000000E+00  0.14210854715E-13 -0.39612352149E+03  0.48218920114E+03  0.27494105081E+03 0.  0.
         25    2    3    3    0    0 -0.94836683895E+01 -0.51762682944E+02 -0.13730050195E+03  0.19128278842E+03  0.12234525737E+03 0.  0.
         25    2    3    3    0    0  0.94836683895E+01  0.51762682944E+02 -0.25882301955E+03  0.29090641272E+03  0.12193387636E+03 0.  0.
          5    1    4    4  502    0 -0.65210220912E+02 -0.25039621674E+02 -0.85492964298E+02  0.11050109732E+03  0.47000000000E+01 0.  1.
         -5    1    4    4    0  502  0.55726552522E+02 -0.26723061269E+02 -0.51807537648E+02  0.80781691099E+02  0.47000000000E+01 0.  1.
          5    1    5    5  503    0 -0.32971430927E+01  0.19033893503E+02 -0.25440820208E+03  0.25518382304E+03  0.47000000000E+01 0.  1.
         -5    1    5    5    0  503  0.12780811482E+02  0.32728789441E+02 -0.44148174642E+01  0.35722589683E+02  0.47000000000E+01 0.  1.
<mgrwt>
<rscale>  0 0.27494105E+03</rscale>
<asrwt>0</asrwt>
<pdfrwt beam="1">  1        2 0.67562518E-01 0.27494105E+03</pdfrwt>
<pdfrwt beam="2">  1       -2 0.66204368E-02 0.27494105E+03</pdfrwt>
<totfact> 0.90927164E+03</totfact>
</mgrwt>
</event>
<event>
 9    1  0.2054950E-002  0.2748946E+03  0.7818608E-02  0.1098511E+00
         -1   -1    0    0    0  501 -0.00000000000E+00  0.00000000000E+00  0.15834668675E+02  0.15834668675E+02  0.00000000000E+00 0. -1.
          1   -1    0    0  501    0  0.00000000000E+00 -0.00000000000E+00 -0.11930632246E+04  0.11930632246E+04  0.00000000000E+00 0. -1.
         36    2    1    2    0    0  0.35527136788E-14  0.00000000000E+00 -0.11772285560E+04  0.12088978933E+04  0.27489460431E+03 0.  0.
         25    2    3    3    0    0  0.15756125656E+02  0.40547753254E+02 -0.45344588106E+03  0.47294473099E+03  0.12716593777E+03 0.  0.
         25    2    3    3    0    0 -0.15756125656E+02 -0.40547753254E+02 -0.72378267491E+03  0.73595316233E+03  0.12598936804E+03 0.  0.
          5    1    4    4  502    0 -0.51088580352E+02 -0.40955426478E+00 -0.24215156782E+03  0.24752713503E+03  0.47000000000E+01 0. -1.
         -5    1    4    4    0  502  0.66844706007E+02  0.40957307519E+02 -0.21129431324E+03  0.22541759596E+03  0.47000000000E+01 0. -1.
          5    1    5    5  503    0  0.17837246767E+02  0.73878664833E+00 -0.60967227841E+03  0.60995171140E+03  0.47000000000E+01 0. -1.
         -5    1    5    5    0  503 -0.33593372423E+02 -0.41286539903E+02 -0.11411039650E+03  0.12600145093E+03  0.47000000000E+01 0. -1.
<mgrwt>
<rscale>  0 0.27489460E+03</rscale>
<asrwt>0</asrwt>
<pdfrwt beam="1">  1        1 0.18354819E+00 0.27489460E+03</pdfrwt>
<pdfrwt beam="2">  1       -1 0.24361028E-02 0.27489460E+03</pdfrwt>
<totfact> 0.59398938E+03</totfact>
</mgrwt>
</event>
<event>
 9    1  0.2054950E-002  0.2740723E+03  0.7818608E-02  0.1098971E+00
          2   -1    0    0  501    0  0.00000000000E+00  0.00000000000E+00  0.75372153594E+03  0.75372153594E+03  0.00000000000E+00 0.  1.
         -2   -1    0    0    0  501 -0.00000000000E+00 -0.00000000000E+00 -0.24914918381E+02  0.24914918381E+02  0.00000000000E+00 0.  1.
         36    2    1    2    0    0  0.14210854715E-13  0.35527136788E-14  0.72880661756E+03  0.77863645432E+03  0.27407233023E+03 0.  0.
         25    2    3    3    0    0 -0.41358707613E+02 -0.29233202009E+02  0.39747580981E+03  0.41901736149E+03  0.12257000880E+03 0.  0.
         25    2    3    3    0    0  0.41358707613E+02  0.29233202009E+02  0.33133080775E+03  0.35961909283E+03  0.13030988053E+03 0.  0.
          5    1    4    4  502    0 -0.20963941530E+02  0.27588708853E+02  0.31373003101E+03  0.31567268817E+03  0.47000000000E+01 0.  1.
         -5    1    4    4    0  502 -0.20394766083E+02 -0.56821910863E+02  0.83745778794E+02  0.10334467332E+03  0.47000000000E+01 0.  1.
          5    1    5    5  503    0  0.48777134149E+02  0.18561686370E+02  0.35109246681E+02  0.63075305938E+02  0.47000000000E+01 0. -1.
         -5    1    5    5    0  503 -0.74184265354E+01  0.10671515639E+02  0.29622156107E+03  0.29654378689E+03  0.47000000000E+01 0. -1.
<mgrwt>
<rscale>  0 0.27407233E+03</rscale>
<asrwt>0</asrwt>
<pdfrwt beam="1">  1        2 0.11595714E+00 0.27407233E+03</pdfrwt>
<pdfrwt beam="2">  1       -2 0.38330649E-02 0.27407233E+03</pdfrwt>
<totfact> 0.11173133E+04</totfact>
</mgrwt>
</event>
<event>
 9    1  0.2054950E-002  0.2695300E+03  0.7818608E-02  0.1101549E+00
         -2   -1    0    0    0  501 -0.00000000000E+00  0.00000000000E+00  0.29605307649E+03  0.29605307649E+03  0.00000000000E+00 0.  1.
          2   -1    0    0  501    0  0.00000000000E+00 -0.00000000000E+00 -0.61345764140E+02  0.61345764140E+02  0.00000000000E+00 0.  1.
         36    2    1    2    0    0 -0.71054273576E-14  0.71054273576E-14  0.23470731235E+03  0.35739884063E+03  0.26952997758E+03 0.  0.
         25    2    3    3    0    0  0.21638765612E+02  0.39142341269E+02  0.10122445720E+03  0.16915803726E+03  0.12793628014E+03 0.  0.
         25    2    3    3    0    0 -0.21638765612E+02 -0.39142341269E+02  0.13348285514E+03  0.18824080337E+03  0.12496626896E+03 0.  0.
          5    1    4    4  502    0 -0.10230442500E+02  0.61911182822E+02  0.26488903562E+01  0.62982244580E+02  0.47000000000E+01 0. -1.
         -5    1    4    4    0  502  0.31869208112E+02 -0.22768841553E+02  0.98575566847E+02  0.10617579268E+03  0.47000000000E+01 0. -1.
          5    1    5    5  503    0 -0.16127714445E+02  0.84365554145E+01  0.13857583443E+03  0.13984502326E+03  0.47000000000E+01 0.  1.
         -5    1    5    5    0  503 -0.55110511664E+01 -0.47578896684E+02 -0.50929792922E+01  0.48395780112E+02  0.47000000000E+01 0.  1.
<mgrwt>
<rscale>  0 0.26952998E+03</rscale>
<asrwt>0</asrwt>
<pdfrwt beam="1">  1        2 0.94378100E-02 0.26952998E+03</pdfrwt>
<pdfrwt beam="2">  1       -2 0.45546627E-01 0.26952998E+03</pdfrwt>
<totfact> 0.31715974E+03</totfact>
</mgrwt>
</event>
<event>
 9    1  0.2054950E-002  0.2753288E+03  0.7818608E-02  0.1098268E+00
         -4   -1    0    0    0  501 -0.00000000000E+00  0.00000000000E+00  0.83002590641E+02  0.83002590641E+02  0.00000000000E+00 0.  1.
          4   -1    0    0  501    0  0.00000000000E+00 -0.00000000000E+00 -0.22832407922E+03  0.22832407922E+03  0.00000000000E+00 0.  1.
         36    2    1    2    0    0  0.00000000000E+00 -0.53290705182E-14 -0.14532148858E+03  0.31132666986E+03  0.27532882218E+03 0.  0.
         25    2    3    3    0    0  0.44412470891E+02  0.47107742494E+01 -0.38173196545E+02  0.13987431103E+03  0.12693687796E+03 0.  0.
         25    2    3    3    0    0 -0.44412470891E+02 -0.47107742494E+01 -0.10714829203E+03  0.17145235883E+03  0.12617644748E+03 0.  0.
          5    1    4    4  502    0  0.13745959158E+02  0.63320726444E+02 -0.34255685009E+02  0.73443908843E+02  0.47000000000E+01 0. -1.
         -5    1    4    4    0  502  0.30666511733E+02 -0.58609952195E+02 -0.39175115358E+01  0.66430402188E+02  0.47000000000E+01 0. -1.
          5    1    5    5  503    0  0.10989678874E+02  0.15393996348E+02  0.22013637090E+02  0.29401333018E+02  0.47000000000E+01 0. -1.
         -5    1    5    5    0  503 -0.55402149765E+02 -0.20104770598E+02 -0.12916192912E+03  0.14205102581E+03  0.47000000000E+01 0. -1.
<mgrwt>
<rscale>  0 0.27532882E+03</rscale>
<asrwt>0</asrwt>
<pdfrwt beam="1">  1        4 0.35126782E-01 0.27532882E+03</pdfrwt>
<pdfrwt beam="2">  1       -4 0.12769629E-01 0.27532882E+03</pdfrwt>
<totfact> 0.73477930E+02</totfact>
</mgrwt>
</event>
<event>
 9    1  0.2054950E-002  0.2750566E+03  0.7818608E-02  0.1098420E+00
         -1   -1    0    0    0  501 -0.00000000000E+00  0.00000000000E+00  0.19539514451E+02  0.19539514451E+02  0.00000000000E+00 0. -1.
          1   -1    0    0  501    0  0.00000000000E+00 -0.00000000000E+00 -0.96798919087E+03  0.96798919087E+03  0.00000000000E+00 0. -1.
         36    2    1    2    0    0  0.35527136788E-14  0.00000000000E+00 -0.94844967642E+03  0.98752870532E+03  0.27505663986E+03 0.  0.
         25    2    3    3    0    0 -0.46208066787E+01  0.32241053320E+02 -0.29744467215E+03  0.32384184413E+03  0.12385220890E+03 0.  0.
         25    2    3    3    0    0  0.46208066787E+01 -0.32241053320E+02 -0.65100500427E+03  0.66368686118E+03  0.12494757602E+03 0.  0.
          5    1    4    4  502    0  0.14753879640E+02  0.15170859657E+02  0.33232409046E+01  0.21930934255E+02  0.47000000000E+01 0. -1.
         -5    1    4    4    0  502 -0.19374686319E+02  0.17070193663E+02 -0.30076791305E+03  0.30191090988E+03  0.47000000000E+01 0. -1.
          5    1    5    5  503    0 -0.17816880337E+02 -0.94680036826E+01 -0.61483966512E+03  0.61518857931E+03  0.47000000000E+01 0. -1.
         -5    1    5    5    0  503  0.22437687015E+02 -0.22773049637E+02 -0.36165339151E+02  0.48498281869E+02  0.47000000000E+01 0. -1.
<mgrwt>
<rscale>  0 0.27505664E+03</rscale>
<asrwt>0</asrwt>
<pdfrwt beam="1">  1        1 0.14892145E+00 0.27505664E+03</pdfrwt>
<pdfrwt beam="2">  1       -1 0.30060785E-02 0.27505664E+03</pdfrwt>
<totfact> 0.63541777E+03</totfact>
</mgrwt>
</event>
<event>
 9    1  0.2054950E-002  0.2754265E+03  0.7818608E-02  0.1098213E+00
          2   -1    0    0  501    0  0.00000000000E+00  0.00000000000E+00  0.42667531063E+03  0.42667531063E+03  0.00000000000E+00 0.  1.
         -2   -1    0    0    0  501 -0.00000000000E+00 -0.00000000000E+00 -0.44448188424E+02  0.44448188424E+02  0.00000000000E+00 0.  1.
         36    2    1    2    0    0 -0.35527136788E-14  0.71054273576E-14  0.38222712220E+03  0.47112349905E+03  0.27542653905E+03 0.  0.
         25    2    3    3    0    0 -0.11748086121E+01 -0.39935891559E+02  0.11489378054E+03  0.17391896820E+03  0.12430193515E+03 0.  0.
         25    2    3    3    0    0  0.11748086121E+01  0.39935891559E+02  0.26733334167E+03  0.29720453085E+03  0.12356035766E+03 0.  0.
          5    1    4    4  502    0 -0.41574613907E+02 -0.58827396188E+02  0.30535330621E+02  0.78381167891E+02  0.47000000000E+01 0.  1.
         -5    1    4    4    0  502  0.40399805295E+02  0.18891504629E+02  0.84358449916E+02  0.95537800305E+02  0.47000000000E+01 0.  1.
          5    1    5    5  503    0 -0.24750186108E+02  0.14752352654E+02  0.18733220606E+01  0.29254110083E+02  0.47000000000E+01 0. -1.
         -5    1    5    5    0  503  0.25924994720E+02  0.25183538905E+02  0.26546001960E+03  0.26795042077E+03  0.47000000000E+01 0. -1.
<mgrwt>
<rscale>  0 0.27542654E+03</rscale>
<asrwt>0</asrwt>
<pdfrwt beam="1">  1        2 0.65642353E-01 0.27542654E+03</pdfrwt>
<pdfrwt beam="2">  1       -2 0.68381831E-02 0.27542654E+03</pdfrwt>
<totfact> 0.89275873E+03</totfact>
</mgrwt>
</event>
<event>
 9    1  0.2054950E-002  0.2748396E+03  0.7818608E-02  0.1098541E+00
          1   -1    0    0  501    0  0.00000000000E+00  0.00000000000E+00  0.43798623956E+03  0.43798623956E+03  0.00000000000E+00 0. -1.
         -1   -1    0    0    0  501 -0.00000000000E+00 -0.00000000000E+00 -0.43115974760E+02  0.43115974760E+02  0.00000000000E+00 0. -1.
         36    2    1    2    0    0 -0.71054273576E-14  0.00000000000E+00  0.39487026480E+03  0.48110221432E+03  0.27483961614E+03 0.  0.
         25    2    3    3    0    0 -0.28723264121E+02  0.35164592044E+01  0.30669641604E+03  0.33127300752E+03  0.12182660838E+03 0.  0.
         25    2    3    3    0    0  0.28723264121E+02 -0.35164592044E+01  0.88173848758E+02  0.14982920681E+03  0.11762981008E+03 0.  0.
          5    1    4    4  502    0  0.19120326319E+02  0.44560292225E+02  0.63722971336E+02  0.80211679933E+02  0.47000000000E+01 0.  1.
         -5    1    4    4    0  502 -0.47843590441E+02 -0.41043833021E+02  0.24297344471E+03  0.25106132758E+03  0.47000000000E+01 0.  1.
          5    1    5    5  503    0  0.30334779030E+02 -0.53171133260E+02  0.18489956288E+02  0.64119706132E+02  0.47000000000E+01 0. -1.
         -5    1    5    5    0  503 -0.16115149087E+01  0.49654674055E+02  0.69683892470E+02  0.85709500673E+02  0.47000000000E+01 0. -1.
<mgrwt>
<rscale>  0 0.27483962E+03</rscale>
<asrwt>0</asrwt>
<pdfrwt beam="1">  1        1 0.67382495E-01 0.27483962E+03</pdfrwt>
<pdfrwt beam="2">  1       -1 0.66332272E-02 0.27483962E+03</pdfrwt>
<totfact> 0.61408801E+03</totfact>
</mgrwt>
</event>
<event>
 9    1  0.2054950E-002  0.2749502E+03  0.7818608E-02  0.1098479E+00
          4   -1    0    0  501    0  0.00000000000E+00  0.00000000000E+00  0.10005226829E+03  0.10005226829E+03  0.00000000000E+00 0.  1.
         -4   -1    0    0    0  501 -0.00000000000E+00 -0.00000000000E+00 -0.18889529520E+03  0.18889529520E+03  0.00000000000E+00 0.  1.
         36    2    1    2    0    0  0.00000000000E+00 -0.35527136788E-14 -0.88843026905E+02  0.28894756349E+03  0.27495019734E+03 0.  0.
         25    2    3    3    0    0 -0.49248323176E+02 -0.14484164611E+02 -0.26202308933E+02  0.13915960872E+03  0.12666352018E+03 0.  0.
         25    2    3    3    0    0  0.49248323176E+02  0.14484164611E+02 -0.62640717972E+02  0.14978795477E+03  0.12600548990E+03 0.  0.
          5    1    4    4  502    0 -0.68415847345E+02 -0.20793080984E+02  0.31181243118E+02  0.78150113929E+02  0.47000000000E+01 0.  1.
         -5    1    4    4    0  502  0.19167524170E+02  0.63089163725E+01 -0.57383552052E+02  0.61009494791E+02  0.47000000000E+01 0.  1.
          5    1    5    5  503    0  0.80275472242E+02  0.24423253017E+02 -0.76900917873E+02  0.11391438847E+03  0.47000000000E+01 0.  1.
         -5    1    5    5    0  503 -0.31027149066E+02 -0.99390884058E+01  0.14260199901E+02  0.35873566295E+02  0.47000000000E+01 0.  1.
<mgrwt>
<rscale>  0 0.27495020E+03</rscale>
<asrwt>0</asrwt>
<pdfrwt beam="1">  1        4 0.15392657E-01 0.27495020E+03</pdfrwt>
<pdfrwt beam="2">  1       -4 0.29060815E-01 0.27495020E+03</pdfrwt>
<totfact> 0.76285135E+02</totfact>
</mgrwt>
</event>
<event>
 9    1  0.2054950E-002  0.2753423E+03  0.7818608E-02  0.1098260E+00
          1   -1    0    0  501    0  0.00000000000E+00  0.00000000000E+00  0.11083802651E+04  0.11083802651E+04  0.00000000000E+00 0.  1.
         -1   -1    0    0    0  501 -0.00000000000E+00 -0.00000000000E+00 -0.17100037037E+02  0.17100037037E+02  0.00000000000E+00 0.  1.
         36    2    1    2    0    0  0.00000000000E+00  0.00000000000E+00  0.10912802281E+04  0.11254803022E+04  0.27534228578E+03 0.  0.
         25    2    3    3    0    0  0.82514192960E+01  0.55907992433E+02  0.46319173692E+03  0.48322325107E+03  0.12555610572E+03 0.  0.
         25    2    3    3    0    0 -0.82514192960E+01 -0.55907992433E+02  0.62808849117E+03  0.64225705109E+03  0.12167652774E+03 0.  0.
          5    1    4    4  502    0  0.54426069560E+01  0.50381073691E+02  0.47008325207E+03  0.47283002065E+03  0.47000000000E+01 0.  1.
         -5    1    4    4    0  502  0.28088123399E+01  0.55269187415E+01 -0.68915151442E+01  0.10393230418E+02  0.47000000000E+01 0.  1.
          5    1    5    5  503    0 -0.41047899259E+02 -0.73566541979E+02  0.53925348375E+03  0.54581441522E+03  0.47000000000E+01 0.  1.
         -5    1    5    5    0  503  0.32796479963E+02  0.17658549547E+02  0.88835007424E+02  0.96442635873E+02  0.47000000000E+01 0.  1.
<mgrwt>
<rscale>  0 0.27534229E+03</rscale>
<asrwt>0</asrwt>
<pdfrwt beam="1">  1        1 0.17051998E+00 0.27534229E+03</pdfrwt>
<pdfrwt beam="2">  1       -1 0.26307758E-02 0.27534229E+03</pdfrwt>
<totfact> 0.60927712E+03</totfact>
</mgrwt>
</event>
<event>
 9    1  0.2054950E-002  0.2752580E+03  0.7818608E-02  0.1098307E+00
          2   -1    0    0  501    0  0.00000000000E+00  0.00000000000E+00  0.11744483032E+04  0.11744483032E+04  0.00000000000E+00 0. -1.
         -2   -1    0    0    0  501 -0.00000000000E+00 -0.00000000000E+00 -0.16128200863E+02  0.16128200863E+02  0.00000000000E+00 0. -1.
         36    2    1    2    0    0  0.00000000000E+00  0.00000000000E+00  0.11583201024E+04  0.11905765041E+04  0.27525797455E+03 0.  0.
         25    2    3    3    0    0 -0.23676551554E+02 -0.16499688489E+02  0.37621757749E+03  0.39750653241E+03  0.12505582306E+03 0.  0.
         25    2    3    3    0    0  0.23676551554E+02  0.16499688489E+02  0.78210252488E+03  0.79306997169E+03  0.12822948865E+03 0.  0.
          5    1    4    4  502    0 -0.66461179543E+02 -0.10865515905E+02  0.31684920349E+03  0.32396088588E+03  0.47000000000E+01 0.  1.
         -5    1    4    4    0  502  0.42784627989E+02 -0.56341725838E+01  0.59368373995E+02  0.73545646531E+02  0.47000000000E+01 0.  1.
          5    1    5    5  503    0  0.62985812046E+00  0.39615443832E+02  0.73200874514E+03  0.73309526876E+03  0.47000000000E+01 0.  1.
         -5    1    5    5    0  503  0.23046693434E+02 -0.23115755344E+02  0.50093779740E+02  0.59974702934E+02  0.47000000000E+01 0.  1.
<mgrwt>
<rscale>  0 0.27525797E+03</rscale>
<asrwt>0</asrwt>
<pdfrwt beam="1">  1        2 0.18068429E+00 0.27525797E+03</pdfrwt>
<pdfrwt beam="2">  1       -2 0.24812626E-02 0.27525797E+03</pdfrwt>
<totfact> 0.11598393E+04</totfact>
</mgrwt>
</event>
<event>
 9    1  0.2054950E-002  0.2748266E+03  0.7818608E-02  0.1098549E+00
         -1   -1    0    0    0  501 -0.00000000000E+00  0.00000000000E+00  0.13424612910E+02  0.13424612910E+02  0.00000000000E+00 0.  1.
          1   -1    0    0  501    0  0.00000000000E+00 -0.00000000000E+00 -0.14065523560E+04  0.14065523560E+04  0.00000000000E+00 0.  1.
         36    2    1    2    0    0  0.00000000000E+00  0.71054273576E-14 -0.13931277431E+04  0.14199769689E+04  0.27482664294E+03 0.  0.
         25    2    3    3    0    0 -0.21582299411E+02  0.40920713620E+02 -0.61116953388E+03  0.62539250761E+03  0.12428712311E+03 0.  0.
         25    2    3    3    0    0  0.21582299411E+02 -0.40920713620E+02 -0.78195820918E+03  0.79458446128E+03  0.13328737656E+03 0.  0.
          5    1    4    4  502    0 -0.62764369709E+02  0.57887343895E+02 -0.34238730467E+03  0.35290433136E+03  0.47000000000E+01 0.  1.
         -5    1    4    4    0  502  0.41182070298E+02 -0.16966630275E+02 -0.26878222921E+03  0.27248817625E+03  0.47000000000E+01 0.  1.
          5    1    5    5  503    0  0.17727487499E+02  0.47052419996E+02 -0.35872055686E+03  0.36225781145E+03  0.47000000000E+01 0.  1.
         -5    1    5    5    0  503  0.38548119115E+01 -0.87973133616E+02 -0.42323765232E+03  0.43232664983E+03  0.47000000000E+01 0.  1.
<mgrwt>
<rscale>  0 0.27482664E+03</rscale>
<asrwt>0</asrwt>
<pdfrwt beam="1">  1        1 0.21639261E+00 0.27482664E+03</pdfrwt>
<pdfrwt beam="2">  1       -1 0.20653256E-02 0.27482664E+03</pdfrwt>
<totfact> 0.54043537E+03</totfact>
</mgrwt>
</event>
<event>
 9    1  0.2054950E-002  0.2748023E+03  0.7818608E-02  0.1098562E+00
         -2   -1    0    0    0  501 -0.00000000000E+00  0.00000000000E+00  0.12306021521E+02  0.12306021521E+02  0.00000000000E+00 0. -1.
          2   -1    0    0  501    0  0.00000000000E+00 -0.00000000000E+00 -0.15341336675E+04  0.15341336675E+04  0.00000000000E+00 0. -1.
         36    2    1    2    0    0 -0.71054273576E-14 -0.35527136788E-14 -0.15218276460E+04  0.15464396890E+04  0.27480234299E+03 0.  0.
         25    2    3    3    0    0 -0.50283790887E+02 -0.56722363776E+01 -0.65338352869E+03  0.66749666027E+03  0.12681136391E+03 0.  0.
         25    2    3    3    0    0  0.50283790887E+02  0.56722363776E+01 -0.86844411731E+03  0.87894302877E+03  0.12563848553E+03 0.  0.
          5    1    4    4  502    0 -0.82975872085E+02  0.24396159277E+02 -0.33594613153E+03  0.34693235829E+03  0.47000000000E+01 0.  1.
         -5    1    4    4    0  502  0.32692081198E+02 -0.30068395654E+02 -0.31743739716E+03  0.32056430199E+03  0.47000000000E+01 0.  1.
          5    1    5    5  503    0  0.16766771585E+02 -0.57834659788E+02 -0.30508304326E+03  0.31100438226E+03  0.47000000000E+01 0. -1.
         -5    1    5    5    0  503  0.33517019302E+02  0.63506896165E+02 -0.56336107405E+03  0.56793864651E+03  0.47000000000E+01 0. -1.
<mgrwt>
<rscale>  0 0.27480234E+03</rscale>
<asrwt>0</asrwt>
<pdfrwt beam="1">  1        2 0.23602038E+00 0.27480234E+03</pdfrwt>
<pdfrwt beam="2">  1       -2 0.18932355E-02 0.27480234E+03</pdfrwt>
<totfact> 0.10964140E+04</totfact>
</mgrwt>
</event>
<event>
 9    1  0.2054950E-002  0.2768543E+03  0.7818608E-02  0.1097420E+00
          2   -1    0    0  501    0  0.00000000000E+00  0.00000000000E+00  0.58779765593E+03  0.58779765593E+03  0.00000000000E+00 0. -1.
         -2   -1    0    0    0  501 -0.00000000000E+00 -0.00000000000E+00 -0.32599777996E+02  0.32599777996E+02  0.00000000000E+00 0. -1.
         36    2    1    2    0    0  0.00000000000E+00  0.35527136788E-14  0.55519787793E+03  0.62039743392E+03  0.27685428001E+03 0.  0.
         25    2    3    3    0    0  0.20313767365E+02  0.44450622262E+00  0.39636128781E+03  0.41705897855E+03  0.12815254342E+03 0.  0.
         25    2    3    3    0    0 -0.20313767365E+02 -0.44450622262E+00  0.15883659012E+03  0.20333845538E+03  0.12531806870E+03 0.  0.
          5    1    4    4  502    0 -0.41814608068E+02  0.14399189537E+02  0.28698176514E+03  0.29040733742E+03  0.47000000000E+01 0.  1.
         -5    1    4    4    0  502  0.62128375432E+02 -0.13954683314E+02  0.10937952267E+03  0.12665164112E+03  0.47000000000E+01 0.  1.
          5    1    5    5  503    0 -0.48971697551E+02  0.39427083741E+02  0.39982985278E+02  0.74655550397E+02  0.47000000000E+01 0.  1.
         -5    1    5    5    0  503  0.28657930187E+02 -0.39871589963E+02  0.11885360485E+03  0.12868290498E+03  0.47000000000E+01 0.  1.
<mgrwt>
<rscale>  0 0.27685428E+03</rscale>
<asrwt>0</asrwt>
<pdfrwt beam="1">  1        2 0.90430401E-01 0.27685428E+03</pdfrwt>
<pdfrwt beam="2">  1       -2 0.50153509E-02 0.27685428E+03</pdfrwt>
<totfact> 0.10027531E+04</totfact>
</mgrwt>
</event>
<event>
 9    1  0.2054950E-002  0.2753828E+03  0.7818608E-02  0.1098238E+00
          2   -1    0    0  501    0  0.00000000000E+00  0.00000000000E+00  0.43968463562E+03  0.43968463562E+03  0.00000000000E+00 0. -1.
         -2   -1    0    0    0  501 -0.00000000000E+00 -0.00000000000E+00 -0.43119353121E+02  0.43119353121E+02  0.00000000000E+00 0. -1.
         36    2    1    2    0    0  0.00000000000E+00  0.00000000000E+00  0.39656528250E+03  0.48280398874E+03  0.27538276682E+03 0.  0.
         25    2    3    3    0    0 -0.29170697280E+02 -0.48863486086E+02  0.21768957964E+03  0.25791216863E+03  0.12606095268E+03 0.  0.
         25    2    3    3    0    0  0.29170697280E+02  0.48863486086E+02  0.17887570286E+03  0.22489182011E+03  0.12385977485E+03 0.  0.
          5    1    4    4  502    0  0.28772874702E+02 -0.67869068748E+02  0.14641833544E+03  0.16399545044E+03  0.47000000000E+01 0.  1.
         -5    1    4    4    0  502 -0.57943571982E+02  0.19005582661E+02  0.71271244200E+02  0.93916718194E+02  0.47000000000E+01 0.  1.
          5    1    5    5  503    0  0.27873325949E+02  0.82591373980E+02  0.16764388990E+03  0.18901010866E+03  0.47000000000E+01 0. -1.
         -5    1    5    5    0  503  0.12973713308E+01 -0.33727887894E+02  0.11231812960E+02  0.35881711449E+02  0.47000000000E+01 0. -1.
<mgrwt>
<rscale>  0 0.27538277E+03</rscale>
<asrwt>0</asrwt>
<pdfrwt beam="1">  1        2 0.67643787E-01 0.27538277E+03</pdfrwt>
<pdfrwt beam="2">  1       -2 0.66337469E-02 0.27538277E+03</pdfrwt>
<totfact> 0.90531802E+03</totfact>
</mgrwt>
</event>
<event>
 9    1  0.2054950E-002  0.2754808E+03  0.7818608E-02  0.1098183E+00
          2   -1    0    0  501    0  0.00000000000E+00  0.00000000000E+00  0.31097355095E+03  0.31097355095E+03  0.00000000000E+00 0. -1.
         -2   -1    0    0    0  501 -0.00000000000E+00 -0.00000000000E+00 -0.61009742142E+02  0.61009742142E+02  0.00000000000E+00 0. -1.
         36    2    1    2    0    0  0.00000000000E+00  0.00000000000E+00  0.24996380881E+03  0.37198329309E+03  0.27548078812E+03 0.  0.
         25    2    3    3    0    0 -0.26227667665E+02 -0.29621157226E+02  0.14500832906E+03  0.20415178953E+03  0.13814931837E+03 0.  0.
         25    2    3    3    0    0  0.26227667665E+02  0.29621157226E+02  0.10495547975E+03  0.16783150356E+03  0.12484573422E+03 0.  0.
          5    1    4    4  502    0 -0.73393511523E+02 -0.10947366378E+02  0.33491105175E+02  0.81548736901E+02  0.47000000000E+01 0.  1.
         -5    1    4    4    0  502  0.47165843858E+02 -0.18673790848E+02  0.11151722388E+03  0.12260305263E+03  0.47000000000E+01 0.  1.
          5    1    5    5  503    0  0.27481767123E+02  0.66703744435E+02  0.20005513860E+02  0.75012983080E+02  0.47000000000E+01 0. -1.
         -5    1    5    5    0  503 -0.12540994575E+01 -0.37082587209E+02  0.84949965893E+02  0.92818520484E+02  0.47000000000E+01 0. -1.
<mgrwt>
<rscale>  0 0.27548079E+03</rscale>
<asrwt>0</asrwt>
<pdfrwt beam="1">  1        2 0.47842084E-01 0.27548079E+03</pdfrwt>
<pdfrwt beam="2">  1       -2 0.93861144E-02 0.27548079E+03</pdfrwt>
<totfact> 0.76635151E+03</totfact>
</mgrwt>
</event>
<event>
 9    1  0.2054950E-002  0.2748840E+03  0.7818608E-02  0.1098516E+00
          2   -1    0    0  501    0  0.00000000000E+00  0.00000000000E+00  0.13936018765E+04  0.13936018765E+04  0.00000000000E+00 0.  1.
         -2   -1    0    0    0  501 -0.00000000000E+00 -0.00000000000E+00 -0.13555019202E+02  0.13555019202E+02  0.00000000000E+00 0.  1.
         36    2    1    2    0    0  0.00000000000E+00 -0.35527136788E-14  0.13800468573E+04  0.14071568957E+04  0.27488397695E+03 0.  0.
         25    2    3    3    0    0  0.40920320509E+02  0.41633010595E+01  0.50525296639E+03  0.52261486183E+03  0.12709810405E+03 0.  0.
         25    2    3    3    0    0 -0.40920320509E+02 -0.41633010595E+01  0.87479389089E+03  0.88454203386E+03  0.12433202488E+03 0.  0.
          5    1    4    4  502    0  0.19114405813E+02  0.15152807292E+02  0.10063971843E+02  0.26801895598E+02  0.47000000000E+01 0.  1.
         -5    1    4    4    0  502  0.21805914697E+02 -0.10989506232E+02  0.49518899454E+03  0.49581296623E+03  0.47000000000E+01 0.  1.
          5    1    5    5  503    0 -0.32113249489E+02  0.47688256711E+02  0.21388911999E+03  0.22153120835E+03  0.47000000000E+01 0.  1.
         -5    1    5    5    0  503 -0.88070710200E+01 -0.51851557771E+02  0.66090477090E+03  0.66301082551E+03  0.47000000000E+01 0.  1.
<mgrwt>
<rscale>  0 0.27488398E+03</rscale>
<asrwt>0</asrwt>
<pdfrwt beam="1">  1        2 0.21440018E+00 0.27488398E+03</pdfrwt>
<pdfrwt beam="2">  1       -2 0.20853887E-02 0.27488398E+03</pdfrwt>
<totfact> 0.11319432E+04</totfact>
</mgrwt>
</event>
<event>
 9    1  0.2054950E-002  0.2741479E+03  0.7818608E-02  0.1098929E+00
          2   -1    0    0  501    0  0.00000000000E+00  0.00000000000E+00  0.10908183548E+04  0.10908183548E+04  0.00000000000E+00 0. -1.
         -2   -1    0    0    0  501 -0.00000000000E+00 -0.00000000000E+00 -0.17224925314E+02  0.17224925314E+02  0.00000000000E+00 0. -1.
         36    2    1    2    0    0  0.00000000000E+00  0.35527136788E-14  0.10735934295E+04  0.11080432801E+04  0.27414787756E+03 0.  0.
         25    2    3    3    0    0  0.41395860167E+02  0.17888753184E+02  0.56914485374E+03  0.58622590583E+03  0.13304632051E+03 0.  0.
         25    2    3    3    0    0 -0.41395860167E+02 -0.17888753184E+02  0.50444857574E+03  0.52181737427E+03  0.12566376487E+03 0.  0.
          5    1    4    4  502    0  0.83340169529E+02 -0.13547026230E+02  0.40915848122E+03  0.41780600586E+03  0.47000000000E+01 0.  1.
         -5    1    4    4    0  502 -0.41944309362E+02  0.31435779414E+02  0.15998637252E+03  0.16841989997E+03  0.47000000000E+01 0.  1.
          5    1    5    5  503    0 -0.44832346750E+02  0.47990130616E+02  0.21224613472E+03  0.22222399433E+03  0.47000000000E+01 0.  1.
         -5    1    5    5    0  503  0.34364865830E+01 -0.65878883800E+02  0.29220244101E+03  0.29959337994E+03  0.47000000000E+01 0.  1.
<mgrwt>
<rscale>  0 0.27414788E+03</rscale>
<asrwt>0</asrwt>
<pdfrwt beam="1">  1        2 0.16781815E+00 0.27414788E+03</pdfrwt>
<pdfrwt beam="2">  1       -2 0.26499894E-02 0.27414788E+03</pdfrwt>
<totfact> 0.11765136E+04</totfact>
</mgrwt>
</event>
<event>
 9    1  0.2054950E-002  0.2738260E+03  0.7818608E-02  0.1099110E+00
          1   -1    0    0  501    0  0.00000000000E+00  0.00000000000E+00  0.81208440434E+03  0.81208440434E+03  0.00000000000E+00 0.  1.
         -1   -1    0    0    0  501 -0.00000000000E+00 -0.00000000000E+00 -0.23082781247E+02  0.23082781247E+02  0.00000000000E+00 0.  1.
         36    2    1    2    0    0  0.00000000000E+00  0.71054273576E-14  0.78900162309E+03  0.83516718558E+03  0.27382597875E+03 0.  0.
         25    2    3    3    0    0 -0.79388174865E+02 -0.34444447391E+02  0.37099038683E+03  0.39124513364E+03  0.89162689580E+02 0.  0.
         25    2    3    3    0    0  0.79388174865E+02  0.34444447391E+02  0.41801123626E+03  0.44392205195E+03  0.12183797559E+03 0.  0.
          5    1    4    4  502    0 -0.94695450632E+02 -0.28571660878E+02  0.35225705415E+03  0.36591076832E+03  0.47000000000E+01 0.  1.
         -5    1    4    4    0  502  0.15307275766E+02 -0.58727865134E+01  0.18733332679E+02  0.25334365319E+02  0.47000000000E+01 0.  1.
          5    1    5    5  503    0  0.70439686819E+02  0.18484015730E+01  0.39829825618E+03  0.40451051525E+03  0.47000000000E+01 0.  1.
         -5    1    5    5    0  503  0.89484880468E+01  0.32596045818E+02  0.19712980083E+02  0.39411536700E+02  0.47000000000E+01 0.  1.
<mgrwt>
<rscale>  0 0.27382598E+03</rscale>
<asrwt>0</asrwt>
<pdfrwt beam="1">  1        1 0.12493604E+00 0.27382598E+03</pdfrwt>
<pdfrwt beam="2">  1       -1 0.35511978E-02 0.27382598E+03</pdfrwt>
<totfact> 0.65972188E+03</totfact>
</mgrwt>
</event>
<event>
 9    1  0.2054950E-002  0.2746623E+03  0.7818608E-02  0.1098641E+00
          1   -1    0    0  501    0  0.00000000000E+00  0.00000000000E+00  0.97849933286E+02  0.97849933286E+02  0.00000000000E+00 0.  1.
         -1   -1    0    0    0  501 -0.00000000000E+00 -0.00000000000E+00 -0.19274251075E+03  0.19274251075E+03  0.00000000000E+00 0.  1.
         36    2    1    2    0    0  0.35527136788E-14 -0.71054273576E-14 -0.94892577466E+02  0.29059244404E+03  0.27466227858E+03 0.  0.
         25    2    3    3    0    0 -0.12125514626E+02  0.32591070379E+02  0.98057656553E+01  0.12442358829E+03  0.11906246390E+03 0.  0.
         25    2    3    3    0    0  0.12125514626E+02 -0.32591070379E+02 -0.10469834312E+03  0.16616885575E+03  0.12426238206E+03 0.  0.
          5    1    4    4  502    0 -0.47996439077E+02  0.24781010992E+02  0.47144293485E+02  0.71850059695E+02  0.47000000000E+01 0.  1.
         -5    1    4    4    0  502  0.35870924452E+02  0.78100593865E+01 -0.37338527830E+02  0.52573528597E+02  0.47000000000E+01 0.  1.
          5    1    5    5  503    0 -0.40450084078E+01 -0.79167676039E+02 -0.67624441790E+02  0.10430262772E+03  0.47000000000E+01 0. -1.
         -5    1    5    5    0  503  0.16170523033E+02  0.46576605660E+02 -0.37073901331E+02  0.61866228024E+02  0.47000000000E+01 0. -1.
<mgrwt>
<rscale>  0 0.27466228E+03</rscale>
<asrwt>0</asrwt>
<pdfrwt beam="1">  1        1 0.15053836E-01 0.27466228E+03</pdfrwt>
<pdfrwt beam="2">  1       -1 0.29652694E-01 0.27466228E+03</pdfrwt>
<totfact> 0.38444428E+03</totfact>
</mgrwt>
</event>
<event>
 9    1  0.2054950E-002  0.2745191E+03  0.7818608E-02  0.1098721E+00
          2   -1    0    0  501    0  0.00000000000E+00  0.00000000000E+00  0.31694314961E+03  0.31694314961E+03  0.00000000000E+00 0.  1.
         -2   -1    0    0    0  501 -0.00000000000E+00 -0.00000000000E+00 -0.59443410453E+02  0.59443410453E+02  0.00000000000E+00 0.  1.
         36    2    1    2    0    0 -0.35527136788E-14  0.53290705182E-14  0.25749973916E+03  0.37638656007E+03  0.27451908300E+03 0.  0.
         25    2    3    3    0    0 -0.23562516592E+02 -0.12025756692E+02  0.59414277489E+02  0.14076333057E+03  0.12483768603E+03 0.  0.
         25    2    3    3    0    0  0.23562516592E+02  0.12025756692E+02  0.19808546167E+03  0.23562322949E+03  0.12482245447E+03 0.  0.
          5    1    4    4  502    0 -0.59279817793E+02  0.19110261066E+01 -0.10948209824E+02  0.60495471870E+02  0.47000000000E+01 0.  1.
         -5    1    4    4    0  502  0.35717301202E+02 -0.13936782799E+02  0.70362487313E+02  0.80267858704E+02  0.47000000000E+01 0.  1.
          5    1    5    5  503    0 -0.60024153172E+01 -0.53891235184E+02  0.72378148649E+02  0.90559265794E+02  0.47000000000E+01 0.  1.
         -5    1    5    5    0  503  0.29564931909E+02  0.65916991877E+02  0.12570731302E+03  0.14506396370E+03  0.47000000000E+01 0.  1.
<mgrwt>
<rscale>  0 0.27451908E+03</rscale>
<asrwt>0</asrwt>
<pdfrwt beam="1">  1        2 0.48760484E-01 0.27451908E+03</pdfrwt>
<pdfrwt beam="2">  1       -2 0.91451402E-02 0.27451908E+03</pdfrwt>
<totfact> 0.78222134E+03</totfact>
</mgrwt>
</event>
<event>
 9    1  0.2054950E-002  0.2764852E+03  0.7818608E-02  0.1097624E+00
          3   -1    0    0  501    0  0.00000000000E+00  0.00000000000E+00  0.16012405900E+03  0.16012405900E+03  0.00000000000E+00 0. -1.
         -3   -1    0    0    0  501 -0.00000000000E+00 -0.00000000000E+00 -0.11935134701E+03  0.11935134701E+03  0.00000000000E+00 0. -1.
         36    2    1    2    0    0  0.00000000000E+00 -0.71054273576E-14  0.40772711983E+02  0.27947540601E+03  0.27648524105E+03 0.  0.
         25    2    3    3    0    0 -0.43982134300E+02 -0.29084116675E+02  0.34245395641E+00  0.13814593237E+03  0.12768659826E+03 0.  0.
         25    2    3    3    0    0  0.43982134300E+02  0.29084116675E+02  0.40430258027E+02  0.14132947364E+03  0.12473612297E+03 0.  0.
          5    1    4    4  502    0 -0.79374782491E+02 -0.17254412575E+01 -0.28758938447E+02  0.84572452865E+02  0.47000000000E+01 0.  1.
         -5    1    4    4    0  502  0.35392648190E+02 -0.27358675417E+02  0.29101392404E+02  0.53573479506E+02  0.47000000000E+01 0.  1.
          5    1    5    5  503    0 -0.57775488422E+01 -0.43531886539E+02  0.28026778413E+02  0.52306744541E+02  0.47000000000E+01 0.  1.
         -5    1    5    5    0  503  0.49759683143E+02  0.72616003214E+02  0.12403479614E+02  0.89022729096E+02  0.47000000000E+01 0.  1.
<mgrwt>
<rscale>  0 0.27648524E+03</rscale>
<asrwt>0</asrwt>
<pdfrwt beam="1">  1        3 0.24634471E-01 0.27648524E+03</pdfrwt>
<pdfrwt beam="2">  1       -3 0.18361746E-01 0.27648524E+03</pdfrwt>
<totfact> 0.10250334E+03</totfact>
</mgrwt>
</event>
<event>
 8    1  0.2054950E-002  0.3026266E+03  0.7818608E-02  0.1083935E+00
         -2   -1    0    0    0  501 -0.00000000000E+00  0.00000000000E+00  0.19884613904E+03  0.19884613904E+03  0.00000000000E+00 0.  1.
          2   -1    0    0  501    0  0.00000000000E+00 -0.00000000000E+00 -0.11514290549E+03  0.11514290549E+03  0.00000000000E+00 0.  1.
         25    2    1    2    0    0  0.30972379023E+02 -0.79129797722E+02  0.34262248441E+02  0.15432579912E+03  0.12418428828E+03 0.  0.
         25    2    1    2    0    0 -0.30972379023E+02  0.79129797722E+02  0.49440985104E+02  0.15966324541E+03  0.12580591312E+03 0.  0.
          5    1    3    3  502    0 -0.89726724307E+01 -0.15605994069E+01 -0.38984603938E+02  0.40309225560E+02  0.47000000000E+01 0. -1.
         -5    1    3    3    0  502  0.39945051454E+02 -0.77569198315E+02  0.73246852379E+02  0.11401657356E+03  0.47000000000E+01 0. -1.
          5    1    4    4  503    0 -0.21192575037E+02  0.89127692265E+02 -0.15529673036E+02  0.93038333550E+02  0.47000000000E+01 0. -1.
         -5    1    4    4    0  503 -0.97798039859E+01 -0.99978945428E+01  0.64970658139E+02  0.66624911860E+02  0.47000000000E+01 0. -1.
<mgrwt>
<rscale>  0 0.30262665E+03</rscale>
<asrwt>0</asrwt>
<pdfrwt beam="1">  1        2 0.17714293E-01 0.30262665E+03</pdfrwt>
<pdfrwt beam="2">  1       -2 0.30591714E-01 0.30262665E+03</pdfrwt>
<totfact> 0.31540794E+03</totfact>
</mgrwt>
</event>
<event>
 9    1  0.2054950E-002  0.2756576E+03  0.7818608E-02  0.1098085E+00
          1   -1    0    0  501    0  0.00000000000E+00  0.00000000000E+00  0.79129934303E+02  0.79129934303E+02  0.00000000000E+00 0.  1.
         -1   -1    0    0    0  501 -0.00000000000E+00 -0.00000000000E+00 -0.24007076096E+03  0.24007076096E+03  0.00000000000E+00 0.  1.
         36    2    1    2    0    0  0.00000000000E+00 -0.71054273576E-14 -0.16094082666E+03  0.31920069527E+03  0.27565763942E+03 0.  0.
         25    2    3    3    0    0 -0.38216557412E+02 -0.36547949452E+02 -0.74740427348E+02  0.15571415908E+03  0.12595439646E+03 0.  0.
         25    2    3    3    0    0  0.38216557412E+02  0.36547949452E+02 -0.86200399312E+02  0.16348653619E+03  0.12845653274E+03 0.  0.
          5    1    4    4  502    0 -0.11949627167E+02  0.17374601774E+02  0.28776190555E+02  0.35983739648E+02  0.47000000000E+01 0. -1.
         -5    1    4    4    0  502 -0.26266930245E+02 -0.53922551226E+02 -0.10351661790E+03  0.11973041943E+03  0.47000000000E+01 0. -1.
          5    1    5    5  503    0  0.54434218083E+02  0.77043199207E+02 -0.65736263556E+02  0.11507425858E+03  0.47000000000E+01 0. -1.
         -5    1    5    5    0  503 -0.16217660671E+02 -0.40495249755E+02 -0.20464135756E+02  0.48412277602E+02  0.47000000000E+01 0. -1.
<mgrwt>
<rscale>  0 0.27565764E+03</rscale>
<asrwt>0</asrwt>
<pdfrwt beam="1">  1        1 0.12173836E-01 0.27565764E+03</pdfrwt>
<pdfrwt beam="2">  1       -1 0.36933962E-01 0.27565764E+03</pdfrwt>
<totfact> 0.34850888E+03</totfact>
</mgrwt>
</event>
<event>
 9    1  0.2054950E-002  0.2739395E+03  0.7818608E-02  0.1099046E+00
          1   -1    0    0  501    0  0.00000000000E+00  0.00000000000E+00  0.23051321198E+03  0.23051321198E+03  0.00000000000E+00 0.  1.
         -1   -1    0    0    0  501 -0.00000000000E+00 -0.00000000000E+00 -0.81386711187E+02  0.81386711187E+02  0.00000000000E+00 0.  1.
         36    2    1    2    0    0 -0.71054273576E-14  0.00000000000E+00  0.14912650080E+03  0.31189992317E+03  0.27393949849E+03 0.  0.
         25    2    3    3    0    0  0.17714377725E+02  0.20922674112E+02  0.12344557421E+03  0.18139087794E+03  0.13004723503E+03 0.  0.
         25    2    3    3    0    0 -0.17714377725E+02 -0.20922674112E+02  0.25680926582E+02  0.13050904523E+03  0.12498617294E+03 0.  0.
          5    1    4    4  502    0 -0.73847882632E+01 -0.41106281564E+02  0.10303185373E+03  0.11127405072E+03  0.47000000000E+01 0.  1.
         -5    1    4    4    0  502  0.25099165988E+02  0.62028955675E+02  0.20413720486E+02  0.70116827221E+02  0.47000000000E+01 0.  1.
          5    1    5    5  503    0  0.51540143233E+02  0.86475332644E+01  0.12060315707E+02  0.53839645346E+02  0.47000000000E+01 0.  1.
         -5    1    5    5    0  503 -0.69254520958E+02 -0.29570207376E+02  0.13620610875E+02  0.76669399880E+02  0.47000000000E+01 0.  1.
<mgrwt>
<rscale>  0 0.27393950E+03</rscale>
<asrwt>0</asrwt>
<pdfrwt beam="1">  1        1 0.35463571E-01 0.27393950E+03</pdfrwt>
<pdfrwt beam="2">  1       -1 0.12521033E-01 0.27393950E+03</pdfrwt>
<totfact> 0.52072601E+03</totfact>
</mgrwt>
</event>
<event>
 9    1  0.2054950E-002  0.2737773E+03  0.7818608E-02  0.1099137E+00
         -1   -1    0    0    0  501 -0.00000000000E+00  0.00000000000E+00  0.83652846221E+02  0.83652846221E+02  0.00000000000E+00 0. -1.
          1   -1    0    0  501    0  0.00000000000E+00 -0.00000000000E+00 -0.22400322107E+03  0.22400322107E+03  0.00000000000E+00 0. -1.
         36    2    1    2    0    0  0.00000000000E+00 -0.71054273576E-14 -0.14035037485E+03  0.30765606729E+03  0.27377733292E+03 0.  0.
         25    2    3    3    0    0 -0.14494202958E+02  0.22519932780E+02 -0.12585378404E+03  0.17984046484E+03  0.12564309988E+03 0.  0.
         25    2    3    3    0    0  0.14494202958E+02 -0.22519932780E+02 -0.14496590814E+02  0.12781560245E+03  0.12413479687E+03 0.  0.
          5    1    4    4  502    0 -0.41129123717E+02  0.64228919606E+02 -0.59052665088E+02  0.96572595416E+02  0.47000000000E+01 0.  1.
         -5    1    4    4    0  502  0.26634920760E+02 -0.41708986826E+02 -0.66801118951E+02  0.83267869427E+02  0.47000000000E+01 0.  1.
          5    1    5    5  503    0  0.57717193126E+02 -0.24174501865E+02  0.26422573513E+02  0.68087614981E+02  0.47000000000E+01 0.  1.
         -5    1    5    5    0  503 -0.43222990168E+02  0.16545690853E+01 -0.40919164327E+02  0.59727987470E+02  0.47000000000E+01 0.  1.
<mgrwt>
<rscale>  0 0.27377733E+03</rscale>
<asrwt>0</asrwt>
<pdfrwt beam="1">  1        1 0.34462033E-01 0.27377733E+03</pdfrwt>
<pdfrwt beam="2">  1       -1 0.12869669E-01 0.27377733E+03</pdfrwt>
<totfact> 0.51705527E+03</totfact>
</mgrwt>
</event>
<event>
 9    1  0.2054950E-002  0.2750033E+03  0.7818608E-02  0.1098450E+00
          1   -1    0    0  501    0  0.00000000000E+00  0.00000000000E+00  0.37702084256E+03  0.37702084256E+03  0.00000000000E+00 0. -1.
         -1   -1    0    0    0  501 -0.00000000000E+00 -0.00000000000E+00 -0.50147622579E+02  0.50147622579E+02  0.00000000000E+00 0. -1.
         36    2    1    2    0    0  0.00000000000E+00 -0.17763568394E-14  0.32687321998E+03  0.42716846514E+03  0.27500326483E+03 0.  0.
         25    2    3    3    0    0 -0.40243886545E+02 -0.11457908028E+02  0.78650112908E+02  0.14589451953E+03  0.11553578021E+03 0.  0.
         25    2    3    3    0    0  0.40243886545E+02  0.11457908028E+02  0.24822310707E+03  0.28127394561E+03  0.12549688255E+03 0.  0.
          5    1    4    4  502    0 -0.71427188553E+02 -0.22081375147E+02  0.83599678137E+02  0.11225162171E+03  0.47000000000E+01 0. -1.
         -5    1    4    4    0  502  0.31183302008E+02  0.10623467119E+02 -0.49495652284E+01  0.33642897820E+02  0.47000000000E+01 0. -1.
          5    1    5    5  503    0  0.18872998358E+02  0.11878089377E+02 -0.79734811761E+01  0.24144263839E+02  0.47000000000E+01 0. -1.
         -5    1    5    5    0  503  0.21370888186E+02 -0.42018134913E+00  0.25619658825E+03  0.25712968177E+03  0.47000000000E+01 0. -1.
<mgrwt>
<rscale>  0 0.27500326E+03</rscale>
<asrwt>0</asrwt>
<pdfrwt beam="1">  1        1 0.58003205E-01 0.27500326E+03</pdfrwt>
<pdfrwt beam="2">  1       -1 0.77150191E-02 0.27500326E+03</pdfrwt>
<totfact> 0.59186352E+03</totfact>
</mgrwt>
</event>
<event>
 9    1  0.2054950E-002  0.2750711E+03  0.7818608E-02  0.1098412E+00
          2   -1    0    0  501    0  0.00000000000E+00  0.00000000000E+00  0.94100972755E+03  0.94100972755E+03  0.00000000000E+00 0.  1.
         -2   -1    0    0    0  501 -0.00000000000E+00 -0.00000000000E+00 -0.20101847040E+02  0.20101847040E+02  0.00000000000E+00 0.  1.
         36    2    1    2    0    0  0.00000000000E+00  0.71054273576E-14  0.92090788051E+03  0.96111157459E+03  0.27507114430E+03 0.  0.
         25    2    3    3    0    0  0.56166921930E+02 -0.15506987443E+01  0.52288593596E+03  0.54066032585E+03  0.12548608744E+03 0.  0.
         25    2    3    3    0    0 -0.56166921930E+02  0.15506987443E+01  0.39802194455E+03  0.42045124874E+03  0.12329094223E+03 0.  0.
          5    1    4    4  502    0  0.43634154916E+02 -0.49668497506E+02  0.14429635583E+03  0.15879051428E+03  0.47000000000E+01 0.  1.
         -5    1    4    4    0  502  0.12532767014E+02  0.48117798761E+02  0.37858958013E+03  0.38186981157E+03  0.47000000000E+01 0.  1.
          5    1    5    5  503    0 -0.68650222660E+02 -0.33995879075E+02  0.35442380188E+03  0.36263879302E+03  0.47000000000E+01 0.  1.
         -5    1    5    5    0  503  0.12483300730E+02  0.35546577819E+02  0.43598142672E+02  0.57812455718E+02  0.47000000000E+01 0.  1.
<mgrwt>
<rscale>  0 0.27507114E+03</rscale>
<asrwt>0</asrwt>
<pdfrwt beam="1">  1        2 0.14477069E+00 0.27507114E+03</pdfrwt>
<pdfrwt beam="2">  1       -2 0.30925926E-02 0.27507114E+03</pdfrwt>
<totfact> 0.11538945E+04</totfact>
</mgrwt>
</event>
<event>
 8    1  0.2054950E-002  0.3023601E+03  0.7818608E-02  0.1084067E+00
          2   -1    0    0  501    0  0.00000000000E+00  0.00000000000E+00  0.64404930363E+02  0.64404930363E+02  0.00000000000E+00 0. -1.
         -2   -1    0    0    0  501 -0.00000000000E+00 -0.00000000000E+00 -0.35487058053E+03  0.35487058053E+03  0.00000000000E+00 0. -1.
         25    2    1    2    0    0 -0.58955297045E+01 -0.18067543836E+02 -0.63454499054E+02  0.15912323876E+03  0.14468081508E+03 0.  0.
         25    2    1    2    0    0  0.58955297045E+01  0.18067543836E+02 -0.22701115111E+03  0.26015227214E+03  0.12563418547E+03 0.  0.
          5    1    3    3  502    0 -0.38103755271E+02 -0.65955358609E+02 -0.66382002064E+02  0.10114675325E+03  0.47000000000E+01 0.  1.
         -5    1    3    3    0  502  0.32208225566E+02  0.47887814773E+02  0.29275030104E+01  0.57976485507E+02  0.47000000000E+01 0.  1.
          5    1    4    4  503    0  0.23257503107E+02  0.12107191279E+02 -0.23716377613E+03  0.23865506958E+03  0.47000000000E+01 0. -1.
         -5    1    4    4    0  503 -0.17361973402E+02  0.59603525573E+01  0.10152625012E+02  0.21497202554E+02  0.47000000000E+01 0. -1.
<mgrwt>
<rscale>  0 0.30236015E+03</rscale>
<asrwt>0</asrwt>
<pdfrwt beam="1">  1        2 0.99084508E-02 0.30236015E+03</pdfrwt>
<pdfrwt beam="2">  1       -2 0.54595474E-01 0.30236015E+03</pdfrwt>
<totfact> 0.20851116E+03</totfact>
</mgrwt>
</event>
<event>
 9    1  0.2054950E-002  0.2822545E+03  0.7818608E-02  0.1094464E+00
          2   -1    0    0  501    0  0.00000000000E+00  0.00000000000E+00  0.37150658871E+02  0.37150658871E+02  0.00000000000E+00 0. -1.
         -2   -1    0    0    0  501 -0.00000000000E+00 -0.00000000000E+00 -0.53611170448E+03  0.53611170448E+03  0.00000000000E+00 0. -1.
         36    2    1    2    0    0  0.00000000000E+00 -0.35527136788E-14 -0.49896104561E+03  0.57326236335E+03  0.28225451670E+03 0.  0.
         25    2    3    3    0    0  0.39978242044E+02  0.85568509711E+01 -0.14085840408E+03  0.19174647459E+03  0.12350765557E+03 0.  0.
         25    2    3    3    0    0 -0.39978242044E+02 -0.85568509711E+01 -0.35810264153E+03  0.38151588876E+03  0.12508154128E+03 0.  0.
          5    1    4    4  502    0 -0.25778327228E+02 -0.13047615358E+02 -0.11343138052E+03  0.11714747333E+03  0.47000000000E+01 0.  1.
         -5    1    4    4    0  502  0.65756569272E+02  0.21604466329E+02 -0.27427023558E+02  0.74599001261E+02  0.47000000000E+01 0.  1.
          5    1    5    5  503    0 -0.79656169743E+02  0.79882293908E+01 -0.28965671784E+03  0.30055285954E+03  0.47000000000E+01 0.  1.
         -5    1    5    5    0  503  0.39677927699E+02 -0.16545080362E+02 -0.68445923687E+02  0.80963029217E+02  0.47000000000E+01 0.  1.
<mgrwt>
<rscale>  0 0.28225452E+03</rscale>
<asrwt>0</asrwt>
<pdfrwt beam="1">  1        2 0.57154856E-02 0.28225452E+03</pdfrwt>
<pdfrwt beam="2">  1       -2 0.82478729E-01 0.28225452E+03</pdfrwt>
<totfact> 0.17516253E+03</totfact>
</mgrwt>
</event>
<event>
 9    1  0.2054950E-002  0.2749561E+03  0.7818608E-02  0.1098476E+00
         -2   -1    0    0    0  501 -0.00000000000E+00  0.00000000000E+00  0.26566010902E+02  0.26566010902E+02  0.00000000000E+00 0.  1.
          2   -1    0    0  501    0  0.00000000000E+00 -0.00000000000E+00 -0.71144365382E+03  0.71144365382E+03  0.00000000000E+00 0.  1.
         36    2    1    2    0    0 -0.35527136788E-14 -0.35527136788E-14 -0.68487764292E+03  0.73800966472E+03  0.27495614096E+03 0.  0.
         25    2    3    3    0    0  0.31936129291E+02  0.27297361363E+01 -0.47194648073E+03  0.48915597307E+03  0.12455006021E+03 0.  0.
         25    2    3    3    0    0 -0.31936129291E+02 -0.27297361363E+01 -0.21293116219E+03  0.24885369166E+03  0.12474418707E+03 0.  0.
          5    1    4    4  502    0  0.26049228461E+02 -0.32360560521E+01 -0.12227540981E+02  0.29336617402E+02  0.47000000000E+01 0. -1.
         -5    1    4    4    0  502  0.58869008302E+01  0.59657921884E+01 -0.45971893975E+03  0.45981935567E+03  0.47000000000E+01 0. -1.
          5    1    5    5  503    0 -0.37033110900E+02  0.55549083584E+02 -0.14052620139E+03  0.15564978403E+03  0.47000000000E+01 0.  1.
         -5    1    5    5    0  503  0.50969816089E+01 -0.58278819720E+02 -0.72404960796E+02  0.93203907629E+02  0.47000000000E+01 0.  1.
<mgrwt>
<rscale>  0 0.27495614E+03</rscale>
<asrwt>0</asrwt>
<pdfrwt beam="1">  1        2 0.10945285E+00 0.27495614E+03</pdfrwt>
<pdfrwt beam="2">  1       -2 0.40870793E-02 0.27495614E+03</pdfrwt>
<totfact> 0.10894607E+04</totfact>
</mgrwt>
</event>
<event>
 9    1  0.2054950E-002  0.2751773E+03  0.7818608E-02  0.1098353E+00
          3   -1    0    0  501    0  0.00000000000E+00  0.00000000000E+00  0.18337507853E+03  0.18337507853E+03  0.00000000000E+00 0.  1.
         -3   -1    0    0    0  501 -0.00000000000E+00 -0.00000000000E+00 -0.10323450362E+03  0.10323450362E+03  0.00000000000E+00 0.  1.
         36    2    1    2    0    0  0.00000000000E+00  0.00000000000E+00  0.80140574910E+02  0.28660958216E+03  0.27517728983E+03 0.  0.
         25    2    3    3    0    0  0.39223096401E+02 -0.44603953462E+02  0.28089947741E+02  0.13842484323E+03  0.12183771216E+03 0.  0.
         25    2    3    3    0    0 -0.39223096401E+02  0.44603953462E+02  0.52050627169E+02  0.14818473893E+03  0.12538534646E+03 0.  0.
          5    1    4    4  502    0 -0.36521705981E+02 -0.37065950832E+02 -0.99716376523E+01  0.53190631471E+02  0.47000000000E+01 0. -1.
         -5    1    4    4    0  502  0.75744802382E+02 -0.75380026302E+01  0.38061585393E+02  0.85234211759E+02  0.47000000000E+01 0. -1.
          5    1    5    5  503    0 -0.68511201030E+02  0.91627376838E+01 -0.10855531653E+02  0.70126122066E+02  0.47000000000E+01 0. -1.
         -5    1    5    5    0  503  0.29288104630E+02  0.35441215778E+02  0.62906158822E+02  0.78058616862E+02  0.47000000000E+01 0. -1.
<mgrwt>
<rscale>  0 0.27517729E+03</rscale>
<asrwt>0</asrwt>
<pdfrwt beam="1">  1        3 0.28211550E-01 0.27517729E+03</pdfrwt>
<pdfrwt beam="2">  1       -3 0.15882231E-01 0.27517729E+03</pdfrwt>
<totfact> 0.10293583E+03</totfact>
</mgrwt>
</event>
<event>
 9    1  0.2054950E-002  0.2756790E+03  0.7818608E-02  0.1098073E+00
         -2   -1    0    0    0  501 -0.00000000000E+00  0.00000000000E+00  0.17784902552E+02  0.17784902552E+02  0.00000000000E+00 0.  1.
          2   -1    0    0  501    0  0.00000000000E+00 -0.00000000000E+00 -0.10683064424E+04  0.10683064424E+04  0.00000000000E+00 0.  1.
         36    2    1    2    0    0  0.00000000000E+00  0.14210854715E-13 -0.10505215398E+04  0.10860913449E+04  0.27567898704E+03 0.  0.
         25    2    3    3    0    0  0.11659633350E+02 -0.53586408132E+02 -0.48724798094E+03  0.50599562691E+03  0.12495410889E+03 0.  0.
         25    2    3    3    0    0 -0.11659633350E+02  0.53586408132E+02 -0.56327355890E+03  0.58009571804E+03  0.12738323966E+03 0.  0.
          5    1    4    4  502    0  0.52518303139E+02 -0.40367255685E+02 -0.12839057410E+03  0.14454728297E+03  0.47000000000E+01 0. -1.
         -5    1    4    4    0  502 -0.40858669790E+02 -0.13219152447E+02 -0.35885740684E+03  0.36144834393E+03  0.47000000000E+01 0. -1.
          5    1    5    5  503    0  0.16176828900E+02 -0.16323082730E+02 -0.39509546709E+03  0.39579117087E+03  0.47000000000E+01 0.  1.
         -5    1    5    5    0  503 -0.27836462249E+02  0.69909490862E+02 -0.16817809181E+03  0.18430454717E+03  0.47000000000E+01 0.  1.
<mgrwt>
<rscale>  0 0.27567899E+03</rscale>
<asrwt>0</asrwt>
<pdfrwt beam="1">  1        2 0.16435490E+00 0.27567899E+03</pdfrwt>
<pdfrwt beam="2">  1       -2 0.27361379E-02 0.27567899E+03</pdfrwt>
<totfact> 0.11571522E+04</totfact>
</mgrwt>
</event>
<event>
 9    1  0.2054950E-002  0.2762617E+03  0.7818608E-02  0.1097748E+00
         -4   -1    0    0    0  501 -0.00000000000E+00  0.00000000000E+00  0.39656148379E+02  0.39656148379E+02  0.00000000000E+00 0.  1.
          4   -1    0    0  501    0  0.00000000000E+00 -0.00000000000E+00 -0.48113918740E+03  0.48113918740E+03  0.00000000000E+00 0.  1.
         36    2    1    2    0    0 -0.71054273576E-14  0.00000000000E+00 -0.44148303902E+03  0.52079533578E+03  0.27626166586E+03 0.  0.
         25    2    3    3    0    0 -0.54190106361E+02 -0.15146418504E+02 -0.28640552112E+03  0.31609490481E+03  0.12133377394E+03 0.  0.
         25    2    3    3    0    0  0.54190106361E+02  0.15146418504E+02 -0.15507751789E+03  0.20470043096E+03  0.12119095783E+03 0.  0.
          5    1    4    4  502    0 -0.32609298247E+01 -0.48934854835E+02 -0.43988911179E+02  0.66048224713E+02  0.47000000000E+01 0.  1.
         -5    1    4    4    0  502 -0.50929176536E+02  0.33788436330E+02 -0.24241660995E+03  0.25004668010E+03  0.47000000000E+01 0.  1.
          5    1    5    5  503    0  0.34702167996E+02 -0.51430384551E+02 -0.56337335724E+02  0.83936346806E+02  0.47000000000E+01 0.  1.
         -5    1    5    5    0  503  0.19487938365E+02  0.66576803056E+02 -0.98740182171E+02  0.12076408416E+03  0.47000000000E+01 0.  1.
<mgrwt>
<rscale>  0 0.27626167E+03</rscale>
<asrwt>0</asrwt>
<pdfrwt beam="1">  1        4 0.74021413E-01 0.27626167E+03</pdfrwt>
<pdfrwt beam="2">  1       -4 0.61009460E-02 0.27626167E+03</pdfrwt>
<totfact> 0.54628422E+02</totfact>
</mgrwt>
</event>
<event>
 9    1  0.2054950E-002  0.2751496E+03  0.7818608E-02  0.1098368E+00
         -2   -1    0    0    0  501 -0.00000000000E+00  0.00000000000E+00  0.28903679544E+03  0.28903679544E+03  0.00000000000E+00 0.  1.
          2   -1    0    0  501    0  0.00000000000E+00 -0.00000000000E+00 -0.65482426300E+02  0.65482426300E+02  0.00000000000E+00 0.  1.
         36    2    1    2    0    0 -0.71054273576E-14  0.00000000000E+00  0.22355436914E+03  0.35451922174E+03  0.27514963678E+03 0.  0.
         25    2    3    3    0    0 -0.43597050022E+02 -0.20112012285E+02  0.54284555841E+02  0.14286180273E+03  0.12311574175E+03 0.  0.
         25    2    3    3    0    0  0.43597050022E+02  0.20112012285E+02  0.16926981330E+03  0.21165741901E+03  0.11764946885E+03 0.  0.
          5    1    4    4  502    0 -0.11141480890E+02  0.26086498352E+02  0.76716596924E+02  0.81927798922E+02  0.47000000000E+01 0.  1.
         -5    1    4    4    0  502 -0.32455569132E+02 -0.46198510637E+02 -0.22432041082E+02  0.60934003806E+02  0.47000000000E+01 0.  1.
          5    1    5    5  503    0  0.75895744411E+02  0.23940855664E+01  0.62006152346E+02  0.98146566899E+02  0.47000000000E+01 0. -1.
         -5    1    5    5    0  503 -0.32298694388E+02  0.17717926718E+02  0.10726366095E+03  0.11351085211E+03  0.47000000000E+01 0. -1.
<mgrwt>
<rscale>  0 0.27514964E+03</rscale>
<asrwt>0</asrwt>
<pdfrwt beam="1">  1        2 0.10074220E-01 0.27514964E+03</pdfrwt>
<pdfrwt beam="2">  1       -2 0.44467198E-01 0.27514964E+03</pdfrwt>
<totfact> 0.30662387E+03</totfact>
</mgrwt>
</event>
<event>
 9    1  0.2054950E-002  0.2745502E+03  0.7818608E-02  0.1098703E+00
          2   -1    0    0  501    0  0.00000000000E+00  0.00000000000E+00  0.47343404085E+02  0.47343404085E+02  0.00000000000E+00 0. -1.
         -2   -1    0    0    0  501 -0.00000000000E+00 -0.00000000000E+00 -0.39803763522E+03  0.39803763522E+03  0.00000000000E+00 0. -1.
         36    2    1    2    0    0 -0.35527136788E-14  0.00000000000E+00 -0.35069423113E+03  0.44538103930E+03  0.27455022568E+03 0.  0.
         25    2    3    3    0    0  0.27040833264E+02 -0.48473153566E+02 -0.16736520613E+03  0.21662398251E+03  0.12583316056E+03 0.  0.
         25    2    3    3    0    0 -0.27040833264E+02  0.48473153566E+02 -0.18332902501E+03  0.22875705679E+03  0.12505761209E+03 0.  0.
          5    1    4    4  502    0 -0.24631288610E+02 -0.73875588752E+02 -0.11286039860E+03  0.13720008223E+03  0.47000000000E+01 0. -1.
         -5    1    4    4    0  502  0.51672121874E+02  0.25402435185E+02 -0.54504807524E+02  0.79423900279E+02  0.47000000000E+01 0. -1.
          5    1    5    5  503    0 -0.43800233259E+02 -0.83561802679E+01 -0.15784356424E+03  0.16408829012E+03  0.47000000000E+01 0.  1.
         -5    1    5    5    0  503  0.16759399995E+02  0.56829333834E+02 -0.25485460765E+02  0.64668766670E+02  0.47000000000E+01 0.  1.
<mgrwt>
<rscale>  0 0.27455023E+03</rscale>
<asrwt>0</asrwt>
<pdfrwt beam="1">  1        2 0.72836004E-02 0.27455023E+03</pdfrwt>
<pdfrwt beam="2">  1       -2 0.61236562E-01 0.27455023E+03</pdfrwt>
<totfact> 0.24245944E+03</totfact>
</mgrwt>
</event>
<event>
 9    1  0.2054950E-002  0.2747512E+03  0.7818608E-02  0.1098591E+00
          1   -1    0    0  501    0  0.00000000000E+00  0.00000000000E+00  0.85183183534E+02  0.85183183534E+02  0.00000000000E+00 0. -1.
         -1   -1    0    0    0  501 -0.00000000000E+00 -0.00000000000E+00 -0.22154673725E+03  0.22154673725E+03  0.00000000000E+00 0. -1.
         36    2    1    2    0    0  0.00000000000E+00  0.00000000000E+00 -0.13636355372E+03  0.30672992079E+03  0.27475120659E+03 0.  0.
         25    2    3    3    0    0 -0.31179970277E+00 -0.56991656929E+02 -0.66617984136E+02  0.15341345439E+03  0.12589513890E+03 0.  0.
         25    2    3    3    0    0  0.31179970277E+00  0.56991656929E+02 -0.69745569582E+02  0.15331646640E+03  0.12406993275E+03 0.  0.
          5    1    4    4  502    0 -0.31878975452E+02 -0.87550221794E+02 -0.52375618514E+02  0.10698881169E+03  0.47000000000E+01 0. -1.
         -5    1    4    4    0  502  0.31567175749E+02  0.30558564865E+02 -0.14242365622E+02  0.46424642701E+02  0.47000000000E+01 0. -1.
          5    1    5    5  503    0  0.26153142116E+02  0.29712302169E+02 -0.98178493893E+02  0.10596185354E+03  0.47000000000E+01 0. -1.
         -5    1    5    5    0  503 -0.25841342413E+02  0.27279354760E+02  0.28432924311E+02  0.47354612855E+02  0.47000000000E+01 0. -1.
<mgrwt>
<rscale>  0 0.27475121E+03</rscale>
<asrwt>0</asrwt>
<pdfrwt beam="1">  1        1 0.13105105E-01 0.27475121E+03</pdfrwt>
<pdfrwt beam="2">  1       -1 0.34084113E-01 0.27475121E+03</pdfrwt>
<totfact> 0.36345471E+03</totfact>
</mgrwt>
</event>
<event>
 9    1  0.2054950E-002  0.2752632E+03  0.7818608E-02  0.1098305E+00
         -2   -1    0    0    0  501 -0.00000000000E+00  0.00000000000E+00  0.55373296499E+01  0.55373296499E+01  0.00000000000E+00 0.  1.
          2   -1    0    0  501    0  0.00000000000E+00 -0.00000000000E+00 -0.34208650369E+04  0.34208650369E+04  0.00000000000E+00 0.  1.
         36    2    1    2    0    0 -0.26645352591E-14  0.14210854715E-13 -0.34153277073E+04  0.34264023666E+04  0.27526320057E+03 0.  0.
         25    2    3    3    0    0 -0.16514858991E+01 -0.57596395731E+02 -0.13479377377E+04  0.13545406020E+04  0.12051566548E+03 0.  0.
         25    2    3    3    0    0  0.16514858991E+01  0.57596395731E+02 -0.20673899696E+04  0.20718617646E+04  0.12324695889E+03 0.  0.
          5    1    4    4  502    0 -0.41622637060E+02 -0.77787848214E+02 -0.92773806435E+03  0.93193529780E+03  0.47000000000E+01 0. -1.
         -5    1    4    4    0  502  0.39971151161E+02  0.20191452483E+02 -0.42019967334E+03  0.42260530422E+03  0.47000000000E+01 0. -1.
          5    1    5    5  503    0  0.46419374844E+01  0.51086004509E+02 -0.20597136845E+04  0.20603577067E+04  0.47000000000E+01 0. -1.
         -5    1    5    5    0  503 -0.29904515853E+01  0.65103912219E+01 -0.76762851018E+01  0.11504057871E+02  0.47000000000E+01 0. -1.
<mgrwt>
<rscale>  0 0.27526320E+03</rscale>
<asrwt>0</asrwt>
<pdfrwt beam="1">  1        2 0.52628831E+00 0.27526320E+03</pdfrwt>
<pdfrwt beam="2">  1       -2 0.85189463E-03 0.27526320E+03</pdfrwt>
<totfact> 0.30751345E+03</totfact>
</mgrwt>
</event>
<event>
 9    1  0.2054950E-002  0.2764305E+03  0.7818608E-02  0.1097655E+00
         -1   -1    0    0    0  501 -0.00000000000E+00  0.00000000000E+00  0.12148920151E+02  0.12148920151E+02  0.00000000000E+00 0. -1.
          1   -1    0    0  501    0  0.00000000000E+00 -0.00000000000E+00 -0.15724408721E+04  0.15724408721E+04  0.00000000000E+00 0. -1.
         36    2    1    2    0    0 -0.71054273576E-14  0.35527136788E-14 -0.15602919519E+04  0.15845897923E+04  0.27643052362E+03 0.  0.
         25    2    3    3    0    0 -0.49175190053E+02  0.37645513356E+01 -0.10078064929E+04  0.10163704516E+04  0.12207619184E+03 0.  0.
         25    2    3    3    0    0  0.49175190053E+02 -0.37645513356E+01 -0.55248545904E+03  0.56821934063E+03  0.12329097879E+03 0.  0.
          5    1    4    4  502    0 -0.79642926749E+02  0.34621129165E+02 -0.72966179120E+03  0.73482653593E+03  0.47000000000E+01 0. -1.
         -5    1    4    4    0  502  0.30467736697E+02 -0.30856577830E+02 -0.27814470171E+03  0.28154391569E+03  0.47000000000E+01 0. -1.
          5    1    5    5  503    0  0.62559627040E+02  0.39301637395E+02 -0.20838060492E+03  0.22113998314E+03  0.47000000000E+01 0.  1.
         -5    1    5    5    0  503 -0.13384436987E+02 -0.43066188731E+02 -0.34410485412E+03  0.34707935749E+03  0.47000000000E+01 0.  1.
<mgrwt>
<rscale>  0 0.27643052E+03</rscale>
<asrwt>0</asrwt>
<pdfrwt beam="1">  1        1 0.24191386E+00 0.27643052E+03</pdfrwt>
<pdfrwt beam="2">  1       -1 0.18690656E-02 0.27643052E+03</pdfrwt>
<totfact> 0.48528059E+03</totfact>
</mgrwt>
</event>
<event>
 9    1  0.2054950E-002  0.2754196E+03  0.7818608E-02  0.1098217E+00
          2   -1    0    0  501    0  0.00000000000E+00  0.00000000000E+00  0.17861651606E+03  0.17861651606E+03  0.00000000000E+00 0. -1.
         -2   -1    0    0    0  501 -0.00000000000E+00 -0.00000000000E+00 -0.10617154931E+03  0.10617154931E+03  0.00000000000E+00 0. -1.
         36    2    1    2    0    0  0.00000000000E+00  0.00000000000E+00  0.72444966749E+02  0.28478806536E+03  0.27541962342E+03 0.  0.
         25    2    3    3    0    0 -0.59637115785E+02 -0.34143414344E+01  0.35491316284E+02  0.14318716878E+03  0.12519859610E+03 0.  0.
         25    2    3    3    0    0  0.59637115785E+02  0.34143414344E+01  0.36953650465E+02  0.14160089658E+03  0.12295120301E+03 0.  0.
          5    1    4    4  502    0  0.31720037423E+02  0.20263312318E+02 -0.86296426565E+01  0.38901456689E+02  0.47000000000E+01 0. -1.
         -5    1    4    4    0  502 -0.91357153207E+02 -0.23677653752E+02  0.44120958941E+02  0.10428571210E+03  0.47000000000E+01 0. -1.
          5    1    5    5  503    0  0.54772672012E+02  0.28480019813E+02 -0.30721776270E+02  0.69116384925E+02  0.47000000000E+01 0.  1.
         -5    1    5    5    0  503  0.48644437729E+01 -0.25065678379E+02  0.67675426735E+02  0.72484511653E+02  0.47000000000E+01 0.  1.
<mgrwt>
<rscale>  0 0.27541962E+03</rscale>
<asrwt>0</asrwt>
<pdfrwt beam="1">  1        2 0.27479464E-01 0.27541962E+03</pdfrwt>
<pdfrwt beam="2">  1       -2 0.16334085E-01 0.27541962E+03</pdfrwt>
<totfact> 0.56983916E+03</totfact>
</mgrwt>
</event>
<event>
 9    1  0.2054950E-002  0.2747091E+03  0.7818608E-02  0.1098614E+00
         -1   -1    0    0    0  501 -0.00000000000E+00  0.00000000000E+00  0.13858853447E+02  0.13858853447E+02  0.00000000000E+00 0.  1.
          1   -1    0    0  501    0  0.00000000000E+00 -0.00000000000E+00 -0.13613153128E+04  0.13613153128E+04  0.00000000000E+00 0.  1.
         36    2    1    2    0    0  0.00000000000E+00  0.00000000000E+00 -0.13474564593E+04  0.13751741662E+04  0.27470907822E+03 0.  0.
         25    2    3    3    0    0  0.38515996209E+02  0.10442814838E+02 -0.64335269824E+03  0.65686890193E+03  0.12641805901E+03 0.  0.
         25    2    3    3    0    0 -0.38515996209E+02 -0.10442814838E+02 -0.70410376107E+03  0.71830526428E+03  0.13641045409E+03 0.  0.
          5    1    4    4  502    0  0.74659666438E+01  0.38583596567E+02 -0.57631170100E+03  0.57766919711E+03  0.47000000000E+01 0.  1.
         -5    1    4    4    0  502  0.31050029565E+02 -0.28140781729E+02 -0.67040997236E+02  0.79199704815E+02  0.47000000000E+01 0.  1.
          5    1    5    5  503    0 -0.69148761122E+02  0.27457759180E+02 -0.58195241246E+03  0.58670791717E+03  0.47000000000E+01 0.  1.
         -5    1    5    5    0  503  0.30632764914E+02 -0.37900574018E+02 -0.12215134862E+03  0.13159734711E+03  0.47000000000E+01 0.  1.
<mgrwt>
<rscale>  0 0.27470908E+03</rscale>
<asrwt>0</asrwt>
<pdfrwt beam="1">  1        1 0.20943314E+00 0.27470908E+03</pdfrwt>
<pdfrwt beam="2">  1       -1 0.21321312E-02 0.27470908E+03</pdfrwt>
<totfact> 0.55331083E+03</totfact>
</mgrwt>
</event>
<event>
 9    1  0.2054950E-002  0.2753196E+03  0.7818608E-02  0.1098273E+00
         -1   -1    0    0    0  501 -0.00000000000E+00  0.00000000000E+00  0.88445796014E+03  0.88445796014E+03  0.00000000000E+00 0.  1.
          1   -1    0    0  501    0  0.00000000000E+00 -0.00000000000E+00 -0.21425803374E+02  0.21425803374E+02  0.00000000000E+00 0.  1.
         36    2    1    2    0    0  0.00000000000E+00  0.71054273576E-14  0.86303215676E+03  0.90588376351E+03  0.27531961315E+03 0.  0.
         25    2    3    3    0    0 -0.39262818938E+02  0.30640855612E+02  0.50314610247E+03  0.52152938117E+03  0.12789239230E+03 0.  0.
         25    2    3    3    0    0  0.39262818938E+02 -0.30640855612E+02  0.35988605429E+03  0.38435438234E+03  0.12541885093E+03 0.  0.
          5    1    4    4  502    0  0.19042959036E+02 -0.38776146246E+02  0.21777423833E+03  0.22206740573E+03  0.47000000000E+01 0. -1.
         -5    1    4    4    0  502 -0.58305777974E+02  0.69417001859E+02  0.28537186415E+03  0.29946197545E+03  0.47000000000E+01 0. -1.
          5    1    5    5  503    0  0.31831045480E+02 -0.75844055887E+02  0.28284212897E+03  0.29459683669E+03  0.47000000000E+01 0. -1.
         -5    1    5    5    0  503  0.74317734581E+01  0.45203200274E+02  0.77043925323E+02  0.89757545649E+02  0.47000000000E+01 0. -1.
<mgrwt>
<rscale>  0 0.27531961E+03</rscale>
<asrwt>0</asrwt>
<pdfrwt beam="1">  1        1 0.32962781E-02 0.27531961E+03</pdfrwt>
<pdfrwt beam="2">  1       -1 0.13607043E+00 0.27531961E+03</pdfrwt>
<totfact> 0.14496941E+03</totfact>
</mgrwt>
</event>
<event>
 9    1  0.2054950E-002  0.2770204E+03  0.7818608E-02  0.1097328E+00
          1   -1    0    0  501    0  0.00000000000E+00  0.00000000000E+00  0.72704847574E+02  0.72704847574E+02  0.00000000000E+00 0.  1.
         -1   -1    0    0    0  501 -0.00000000000E+00 -0.00000000000E+00 -0.26387616062E+03  0.26387616062E+03  0.00000000000E+00 0.  1.
         36    2    1    2    0    0 -0.35527136788E-14 -0.71054273576E-14 -0.19117131304E+03  0.33658100819E+03  0.27702040384E+03 0.  0.
         25    2    3    3    0    0 -0.17380173348E+02 -0.29703419804E+02 -0.34812829914E+02  0.13490140062E+03  0.12570636893E+03 0.  0.
         25    2    3    3    0    0  0.17380173348E+02  0.29703419804E+02 -0.15635848313E+03  0.20167960757E+03  0.12264715769E+03 0.  0.
          5    1    4    4  502    0 -0.28388588986E+02 -0.53778693829E+02  0.27597434194E+02  0.66946010102E+02  0.47000000000E+01 0.  1.
         -5    1    4    4    0  502  0.11008415638E+02  0.24075274025E+02 -0.62410264108E+02  0.67955390516E+02  0.47000000000E+01 0.  1.
          5    1    5    5  503    0  0.55008785884E+02 -0.24949485287E+02 -0.67883110905E+02  0.90987087472E+02  0.47000000000E+01 0. -1.
         -5    1    5    5    0  503 -0.37628612535E+02  0.54652905091E+02 -0.88475372223E+02  0.11069252010E+03  0.47000000000E+01 0. -1.
<mgrwt>
<rscale>  0 0.27702040E+03</rscale>
<asrwt>0</asrwt>
<pdfrwt beam="1">  1        1 0.11185361E-01 0.27702040E+03</pdfrwt>
<pdfrwt beam="2">  1       -1 0.40596333E-01 0.27702040E+03</pdfrwt>
<totfact> 0.33020045E+03</totfact>
</mgrwt>
</event>
<event>
 9    1  0.2054950E-002  0.2737989E+03  0.7818608E-02  0.1099125E+00
          2   -1    0    0  501    0  0.00000000000E+00  0.00000000000E+00  0.60123628977E+03  0.60123628977E+03  0.00000000000E+00 0.  1.
         -2   -1    0    0    0  501 -0.00000000000E+00 -0.00000000000E+00 -0.31171527014E+02  0.31171527014E+02  0.00000000000E+00 0.  1.
         36    2    1    2    0    0 -0.71054273576E-14  0.00000000000E+00  0.57006476276E+03  0.63240781679E+03  0.27379885499E+03 0.  0.
         25    2    3    3    0    0  0.42433164393E+02 -0.28314957242E+02  0.27832995715E+03  0.31079006898E+03  0.12853245384E+03 0.  0.
         25    2    3    3    0    0 -0.42433164393E+02  0.28314957242E+02  0.29173480561E+03  0.32161774780E+03  0.12540521781E+03 0.  0.
          5    1    4    4  502    0  0.18743871985E+02  0.13843711214E+02 -0.41771236671E+01  0.24135439488E+02  0.47000000000E+01 0. -1.
         -5    1    4    4    0  502  0.23689292408E+02 -0.42158668455E+02  0.28250708081E+03  0.28665462950E+03  0.47000000000E+01 0. -1.
          5    1    5    5  503    0 -0.20380191257E+02  0.62665483288E+02  0.26376313261E+03  0.27191063811E+03  0.47000000000E+01 0.  1.
         -5    1    5    5    0  503 -0.22052973136E+02 -0.34350526046E+02  0.27971672998E+02  0.49707109693E+02  0.47000000000E+01 0.  1.
<mgrwt>
<rscale>  0 0.27379885E+03</rscale>
<asrwt>0</asrwt>
<pdfrwt beam="1">  1        2 0.92497882E-01 0.27379885E+03</pdfrwt>
<pdfrwt beam="2">  1       -2 0.47956200E-02 0.27379885E+03</pdfrwt>
<totfact> 0.10451404E+04</totfact>
</mgrwt>
</event>
<event>
 9    1  0.2054950E-002  0.2773376E+03  0.7818608E-02  0.1097152E+00
          3   -1    0    0  501    0  0.00000000000E+00  0.00000000000E+00  0.14671851830E+02  0.14671851830E+02  0.00000000000E+00 0. -1.
         -3   -1    0    0    0  501 -0.00000000000E+00 -0.00000000000E+00 -0.13106070305E+04  0.13106070305E+04  0.00000000000E+00 0. -1.
         36    2    1    2    0    0  0.00000000000E+00  0.71054273576E-14 -0.12959351787E+04  0.13252788823E+04  0.27733757162E+03 0.  0.
         25    2    3    3    0    0  0.12163427078E+02 -0.15004548679E+02 -0.89571084375E+03  0.90543718489E+03  0.13094080623E+03 0.  0.
         25    2    3    3    0    0 -0.12163427078E+02  0.15004548679E+02 -0.40022433491E+03  0.41984169742E+03  0.12535727823E+03 0.  0.
          5    1    4    4  502    0 -0.26357664852E+01  0.48322344583E+02 -0.17038988496E+03  0.17719141951E+03  0.47000000000E+01 0.  1.
         -5    1    4    4    0  502  0.14799193563E+02 -0.63326893262E+02 -0.72532095879E+03  0.72824576539E+03  0.47000000000E+01 0.  1.
          5    1    5    5  503    0  0.83096515009E+01 -0.25224282587E+02 -0.35413039943E+03  0.35515594397E+03  0.47000000000E+01 0.  1.
         -5    1    5    5    0  503 -0.20473078578E+02  0.40228831266E+02 -0.46093935478E+02  0.64685753450E+02  0.47000000000E+01 0.  1.
<mgrwt>
<rscale>  0 0.27733757E+03</rscale>
<asrwt>0</asrwt>
<pdfrwt beam="1">  1        3 0.22572079E-02 0.27733757E+03</pdfrwt>
<pdfrwt beam="2">  1       -3 0.20163186E+00 0.27733757E+03</pdfrwt>
<totfact> 0.31238935E+02</totfact>
</mgrwt>
</event>
<event>
 9    1  0.2054950E-002  0.2764396E+03  0.7818608E-02  0.1097650E+00
         -1   -1    0    0    0  501 -0.00000000000E+00  0.00000000000E+00  0.42378223394E+03  0.42378223394E+03  0.00000000000E+00 0. -1.
          1   -1    0    0  501    0  0.00000000000E+00 -0.00000000000E+00 -0.45081437783E+02  0.45081437783E+02  0.00000000000E+00 0. -1.
         36    2    1    2    0    0  0.00000000000E+00  0.00000000000E+00  0.37870079616E+03  0.46886367172E+03  0.27643959494E+03 0.  0.
         25    2    3    3    0    0 -0.46365586548E+02 -0.16725680239E+02  0.18982025528E+03  0.23315958579E+03  0.12610371578E+03 0.  0.
         25    2    3    3    0    0  0.46365586548E+02  0.16725680239E+02  0.18888054087E+03  0.23570408593E+03  0.13210238987E+03 0.  0.
          5    1    4    4  502    0 -0.61376087942E+02 -0.53263253214E+02  0.71542519956E+02  0.10837167746E+03  0.47000000000E+01 0. -1.
         -5    1    4    4    0  502  0.15010501395E+02  0.36537572975E+02  0.11827773533E+03  0.12478790833E+03  0.47000000000E+01 0. -1.
          5    1    5    5  503    0  0.70498942836E+01  0.61141990330E+02  0.35547672652E+02  0.71230407987E+02  0.47000000000E+01 0.  1.
         -5    1    5    5    0  503  0.39315692264E+02 -0.44416310091E+02  0.15333286822E+03  0.16447367795E+03  0.47000000000E+01 0.  1.
<mgrwt>
<rscale>  0 0.27643959E+03</rscale>
<asrwt>0</asrwt>
<pdfrwt beam="1">  1        1 0.69356061E-02 0.27643959E+03</pdfrwt>
<pdfrwt beam="2">  1       -1 0.65197264E-01 0.27643959E+03</pdfrwt>
<totfact> 0.26066831E+03</totfact>
</mgrwt>
</event>
<event>
 9    1  0.2054950E-002  0.2747869E+03  0.7818608E-02  0.1098571E+00
          1   -1    0    0  501    0  0.00000000000E+00  0.00000000000E+00  0.16950327795E+04  0.16950327795E+04  0.00000000000E+00 0. -1.
         -1   -1    0    0    0  501 -0.00000000000E+00 -0.00000000000E+00 -0.11136633087E+02  0.11136633087E+02  0.00000000000E+00 0. -1.
         36    2    1    2    0    0 -0.71054273576E-14  0.00000000000E+00  0.16838961464E+04  0.17061694126E+04  0.27478688568E+03 0.  0.
         25    2    3    3    0    0  0.29165215081E+02  0.46977027016E+02  0.93361280008E+03  0.94360868761E+03  0.12532774645E+03 0.  0.
         25    2    3    3    0    0 -0.29165215081E+02 -0.46977027016E+02  0.75028334635E+03  0.76256072499E+03  0.12456447586E+03 0.  0.
          5    1    4    4  502    0  0.53545457556E+02 -0.18828340040E+02  0.25092229251E+03  0.25730470126E+03  0.47000000000E+01 0.  1.
         -5    1    4    4    0  502 -0.24380242475E+02  0.65805367056E+02  0.68269050757E+03  0.68630398635E+03  0.47000000000E+01 0.  1.
          5    1    5    5  503    0 -0.43549816047E+02 -0.20261103024E+02  0.94977705202E+02  0.10653615940E+03  0.47000000000E+01 0.  1.
         -5    1    5    5    0  503  0.14384600965E+02 -0.26715923992E+02  0.65530564115E+03  0.65602456559E+03  0.47000000000E+01 0.  1.
<mgrwt>
<rscale>  0 0.27478689E+03</rscale>
<asrwt>0</asrwt>
<pdfrwt beam="1">  1        1 0.26077407E+00 0.27478689E+03</pdfrwt>
<pdfrwt beam="2">  1       -1 0.17133295E-02 0.27478689E+03</pdfrwt>
<totfact> 0.45792827E+03</totfact>
</mgrwt>
</event>
<event>
 9    1  0.2054950E-002  0.2753800E+03  0.7818608E-02  0.1098239E+00
         -2   -1    0    0    0  501 -0.00000000000E+00  0.00000000000E+00  0.86978627233E+01  0.86978627233E+01  0.00000000000E+00 0.  1.
          2   -1    0    0  501    0  0.00000000000E+00 -0.00000000000E+00 -0.21796781377E+04  0.21796781377E+04  0.00000000000E+00 0.  1.
         36    2    1    2    0    0  0.88817841970E-15 -0.14210854715E-13 -0.21709802749E+04  0.21883760004E+04  0.27538003720E+03 0.  0.
         25    2    3    3    0    0  0.29373422252E+01  0.51340097966E+02 -0.14005593664E+04  0.14060187487E+04  0.11259551197E+03 0.  0.
         25    2    3    3    0    0 -0.29373422252E+01 -0.51340097966E+02 -0.77042090854E+03  0.78235725166E+03  0.12605577842E+03 0.  0.
          5    1    4    4  502    0 -0.16304625175E+02  0.47191258467E+02 -0.23535130683E+03  0.24063495861E+03  0.47000000000E+01 0. -1.
         -5    1    4    4    0  502  0.19241967400E+02  0.41488394996E+01 -0.11652080596E+04  0.11653837901E+04  0.47000000000E+01 0. -1.
          5    1    5    5  503    0 -0.59202686307E+01 -0.53574552126E+02 -0.11695340035E+03  0.12886221351E+03  0.47000000000E+01 0. -1.
         -5    1    5    5    0  503  0.29829264055E+01  0.22344541598E+01 -0.65346750819E+03  0.65349503816E+03  0.47000000000E+01 0. -1.
<mgrwt>
<rscale>  0 0.27538004E+03</rscale>
<asrwt>0</asrwt>
<pdfrwt beam="1">  1        2 0.33533520E+00 0.27538004E+03</pdfrwt>
<pdfrwt beam="2">  1       -2 0.13381323E-02 0.27538004E+03</pdfrwt>
<totfact> 0.83238024E+03</totfact>
</mgrwt>
</event>
<event>
 9    1  0.2054950E-002  0.2749874E+03  0.7818608E-02  0.1098459E+00
          3   -1    0    0  501    0  0.00000000000E+00  0.00000000000E+00  0.10324855758E+03  0.10324855758E+03  0.00000000000E+00 0. -1.
         -3   -1    0    0    0  501 -0.00000000000E+00 -0.00000000000E+00 -0.18309712387E+03  0.18309712387E+03  0.00000000000E+00 0. -1.
         36    2    1    2    0    0 -0.71054273576E-14  0.71054273576E-14 -0.79848566285E+02  0.28634568145E+03  0.27498737380E+03 0.  0.
         25    2    3    3    0    0 -0.84347640003E+01 -0.10785004098E+02 -0.95701148411E+02  0.15756427872E+03  0.12441997655E+03 0.  0.
         25    2    3    3    0    0  0.84347640003E+01  0.10785004098E+02  0.15852582126E+02  0.12878140273E+03  0.12706645416E+03 0.  0.
          5    1    4    4  502    0  0.38632802506E+02 -0.47575742144E+02 -0.67635853210E+02  0.91392796814E+02  0.47000000000E+01 0. -1.
         -5    1    4    4    0  502 -0.47067566506E+02  0.36790738046E+02 -0.28065295201E+02  0.66171481905E+02  0.47000000000E+01 0. -1.
          5    1    5    5  503    0 -0.45762701746E+02  0.41701383758E+02 -0.62851939264E+01  0.62408524587E+02  0.47000000000E+01 0.  1.
         -5    1    5    5    0  503  0.54197465746E+02 -0.30916379660E+02  0.22137776053E+02  0.66372878144E+02  0.47000000000E+01 0.  1.
<mgrwt>
<rscale>  0 0.27498737E+03</rscale>
<asrwt>0</asrwt>
<pdfrwt beam="1">  1        3 0.15884394E-01 0.27498737E+03</pdfrwt>
<pdfrwt beam="2">  1       -3 0.28168788E-01 0.27498737E+03</pdfrwt>
<totfact> 0.10318135E+03</totfact>
</mgrwt>
</event>
<event>
 9    1  0.2054950E-002  0.2750561E+03  0.7818608E-02  0.1098420E+00
          2   -1    0    0  501    0  0.00000000000E+00  0.00000000000E+00  0.21774018764E+03  0.21774018764E+03  0.00000000000E+00 0.  1.
         -2   -1    0    0    0  501 -0.00000000000E+00 -0.00000000000E+00 -0.86864821943E+02  0.86864821943E+02  0.00000000000E+00 0.  1.
         36    2    1    2    0    0 -0.17763568394E-14  0.00000000000E+00  0.13087536570E+03  0.30460500959E+03  0.27505608613E+03 0.  0.
         25    2    3    3    0    0 -0.10722039380E+02  0.31300559465E+02  0.57976851300E+01  0.12624476730E+03  0.12169404655E+03 0.  0.
         25    2    3    3    0    0  0.10722039380E+02 -0.31300559465E+02  0.12507768057E+03  0.17836024229E+03  0.12277321655E+03 0.  0.
          5    1    4    4  502    0  0.10230223813E+02  0.72293349782E+02  0.23275721220E+02  0.76777829484E+02  0.47000000000E+01 0. -1.
         -5    1    4    4    0  502 -0.20952263192E+02 -0.40992790317E+02 -0.17478036090E+02  0.49466937811E+02  0.47000000000E+01 0. -1.
          5    1    5    5  503    0 -0.41031574986E+01  0.42666456151E+02  0.16726877192E+02  0.46250846506E+02  0.47000000000E+01 0.  1.
         -5    1    5    5    0  503  0.14825196878E+02 -0.73967015616E+02  0.10835080338E+03  0.13210939578E+03  0.47000000000E+01 0.  1.
<mgrwt>
<rscale>  0 0.27505609E+03</rscale>
<asrwt>0</asrwt>
<pdfrwt beam="1">  1        2 0.33498490E-01 0.27505609E+03</pdfrwt>
<pdfrwt beam="2">  1       -2 0.13363819E-01 0.27505609E+03</pdfrwt>
<totfact> 0.63852466E+03</totfact>
</mgrwt>
</event>
<event>
 9    1  0.2054950E-002  0.2753744E+03  0.7818608E-02  0.1098243E+00
          2   -1    0    0  501    0  0.00000000000E+00  0.00000000000E+00  0.67038360074E+02  0.67038360074E+02  0.00000000000E+00 0.  1.
         -2   -1    0    0    0  501 -0.00000000000E+00 -0.00000000000E+00 -0.28278971573E+03  0.28278971573E+03  0.00000000000E+00 0.  1.
         36    2    1    2    0    0  0.00000000000E+00  0.00000000000E+00 -0.21575135566E+03  0.34982807581E+03  0.27537435457E+03 0.  0.
         25    2    3    3    0    0  0.34763274807E+02  0.92644163405E+01 -0.95420248149E+02  0.17358733273E+03  0.14047499295E+03 0.  0.
         25    2    3    3    0    0 -0.34763274807E+02 -0.92644163405E+01 -0.12033110751E+03  0.17624074307E+03  0.12364024183E+03 0.  0.
          5    1    4    4  502    0  0.38928188914E+02  0.28668650589E+02  0.22773270091E+02  0.53647061889E+02  0.47000000000E+01 0.  1.
         -5    1    4    4    0  502 -0.41649141069E+01 -0.19404234249E+02 -0.11819351824E+03  0.11994027084E+03  0.47000000000E+01 0.  1.
          5    1    5    5  503    0 -0.53654459807E+02  0.46377814920E+01 -0.51674575241E+00  0.54061697166E+02  0.47000000000E+01 0. -1.
         -5    1    5    5    0  503  0.18891185000E+02 -0.13902197833E+02 -0.11981436176E+03  0.12217904591E+03  0.47000000000E+01 0. -1.
<mgrwt>
<rscale>  0 0.27537435E+03</rscale>
<asrwt>0</asrwt>
<pdfrwt beam="1">  1        2 0.10313594E-01 0.27537435E+03</pdfrwt>
<pdfrwt beam="2">  1       -2 0.43506111E-01 0.27537435E+03</pdfrwt>
<totfact> 0.31076293E+03</totfact>
</mgrwt>
</event>
<event>
 9    1  0.2054950E-002  0.2752185E+03  0.7818608E-02  0.1098330E+00
          2   -1    0    0  501    0  0.00000000000E+00  0.00000000000E+00  0.17718463874E+04  0.17718463874E+04  0.00000000000E+00 0.  1.
         -2   -1    0    0    0  501 -0.00000000000E+00 -0.00000000000E+00 -0.10687326964E+02  0.10687326964E+02  0.00000000000E+00 0.  1.
         36    2    1    2    0    0  0.00000000000E+00  0.00000000000E+00  0.17611590605E+04  0.17825337144E+04  0.27521847084E+03 0.  0.
         25    2    3    3    0    0 -0.21258175398E+02 -0.84791959877E+01  0.10979896690E+04  0.11049905020E+04  0.12206100769E+03 0.  0.
         25    2    3    3    0    0  0.21258175398E+02  0.84791959877E+01  0.66316939148E+03  0.67754321236E+03  0.13692098464E+03 0.  0.
          5    1    4    4  502    0  0.38182826679E+02 -0.40632962723E+02  0.54583897026E+03  0.54869958754E+03  0.47000000000E+01 0. -1.
         -5    1    4    4    0  502 -0.59441002078E+02  0.32153766735E+02  0.55215069873E+03  0.55629091450E+03  0.47000000000E+01 0. -1.
          5    1    5    5  503    0 -0.33384632254E+02  0.55065541646E+02  0.37546604425E+03  0.38097714883E+03  0.47000000000E+01 0. -1.
         -5    1    5    5    0  503  0.54642807652E+02 -0.46586345658E+02  0.28770334723E+03  0.29656606353E+03  0.47000000000E+01 0. -1.
<mgrwt>
<rscale>  0 0.27521847E+03</rscale>
<asrwt>0</asrwt>
<pdfrwt beam="1">  1        2 0.27259152E+00 0.27521847E+03</pdfrwt>
<pdfrwt beam="2">  1       -2 0.16442056E-02 0.27521847E+03</pdfrwt>
<totfact> 0.10098231E+04</totfact>
</mgrwt>
</event>
<event>
 9    1  0.2054950E-002  0.2736473E+03  0.7818608E-02  0.1099210E+00
          2   -1    0    0  501    0  0.00000000000E+00  0.00000000000E+00  0.16665119820E+03  0.16665119820E+03  0.00000000000E+00 0. -1.
         -2   -1    0    0    0  501 -0.00000000000E+00 -0.00000000000E+00 -0.11233470358E+03  0.11233470358E+03  0.00000000000E+00 0. -1.
         36    2    1    2    0    0  0.00000000000E+00 -0.71054273576E-14  0.54316494618E+02  0.27898590177E+03  0.27364731280E+03 0.  0.
         25    2    3    3    0    0 -0.24055176519E+02  0.21311186355E+01 -0.23990545799E+02  0.12957133450E+03  0.12501996342E+03 0.  0.
         25    2    3    3    0    0  0.24055176519E+02 -0.21311186355E+01  0.78307040417E+02  0.14941456727E+03  0.12493809327E+03 0.  0.
          5    1    4    4  502    0 -0.19340507778E+02 -0.60531679841E+02 -0.18320328445E+02  0.66301311750E+02  0.47000000000E+01 0.  1.
         -5    1    4    4    0  502 -0.47146687402E+01  0.62662798476E+02 -0.56702173543E+01  0.63270022752E+02  0.47000000000E+01 0.  1.
          5    1    5    5  503    0 -0.25899942027E+02 -0.37430879689E+02 -0.49161255187E+01  0.46023211985E+02  0.47000000000E+01 0.  1.
         -5    1    5    5    0  503  0.49955118546E+02  0.35299761054E+02  0.83223165936E+02  0.10339135529E+03  0.47000000000E+01 0.  1.
<mgrwt>
<rscale>  0 0.27364731E+03</rscale>
<asrwt>0</asrwt>
<pdfrwt beam="1">  1        2 0.25638646E-01 0.27364731E+03</pdfrwt>
<pdfrwt beam="2">  1       -2 0.17282262E-01 0.27364731E+03</pdfrwt>
<totfact> 0.55987762E+03</totfact>
</mgrwt>
</event>
<event>
 9    1  0.2054950E-002  0.2742872E+03  0.7818608E-02  0.1098851E+00
         -1   -1    0    0    0  501 -0.00000000000E+00  0.00000000000E+00  0.24422972286E+03  0.24422972286E+03  0.00000000000E+00 0. -1.
          1   -1    0    0  501    0  0.00000000000E+00 -0.00000000000E+00 -0.77010985094E+02  0.77010985094E+02  0.00000000000E+00 0. -1.
         36    2    1    2    0    0  0.00000000000E+00  0.00000000000E+00  0.16721873777E+03  0.32124070796E+03  0.27428723300E+03 0.  0.
         25    2    3    3    0    0  0.46170403181E+02  0.23045814718E+02  0.58186457741E+02  0.14804580060E+03  0.12597253472E+03 0.  0.
         25    2    3    3    0    0 -0.46170403181E+02 -0.23045814718E+02  0.10903228003E+03  0.17319490736E+03  0.12428041737E+03 0.  0.
          5    1    4    4  502    0  0.33715791963E+02  0.19494192348E+01  0.96488904661E+02  0.10233647241E+03  0.47000000000E+01 0. -1.
         -5    1    4    4    0  502  0.12454611219E+02  0.21096395483E+02 -0.38302446920E+02  0.45709328184E+02  0.47000000000E+01 0. -1.
          5    1    5    5  503    0 -0.74849476488E+01 -0.59050018528E+02  0.95746934623E+01  0.60470603473E+02  0.47000000000E+01 0. -1.
         -5    1    5    5    0  503 -0.38685455533E+02  0.36004203811E+02  0.99457586567E+02  0.11272430389E+03  0.47000000000E+01 0. -1.
<mgrwt>
<rscale>  0 0.27428723E+03</rscale>
<asrwt>0</asrwt>
<pdfrwt beam="1">  1        1 0.11847844E-01 0.27428723E+03</pdfrwt>
<pdfrwt beam="2">  1       -1 0.37573803E-01 0.27428723E+03</pdfrwt>
<totfact> 0.35054752E+03</totfact>
</mgrwt>
</event>
<event>
 9    1  0.2054950E-002  0.2754487E+03  0.7818608E-02  0.1098201E+00
          1   -1    0    0  501    0  0.00000000000E+00  0.00000000000E+00  0.39371745529E+03  0.39371745529E+03  0.00000000000E+00 0.  1.
         -1   -1    0    0    0  501 -0.00000000000E+00 -0.00000000000E+00 -0.48176660368E+02  0.48176660368E+02  0.00000000000E+00 0.  1.
         36    2    1    2    0    0  0.00000000000E+00  0.00000000000E+00  0.34554079492E+03  0.44189411566E+03  0.27544866763E+03 0.  0.
         25    2    3    3    0    0 -0.11173223188E+02 -0.50214889898E+02  0.22422190315E+03  0.26265433412E+03  0.12674960079E+03 0.  0.
         25    2    3    3    0    0  0.11173223188E+02  0.50214889898E+02  0.12131889177E+03  0.17923978153E+03  0.12149999876E+03 0.  0.
          5    1    4    4  502    0  0.14351354280E+02 -0.64045416156E+02  0.22376768384E+03  0.23324202672E+03  0.47000000000E+01 0.  1.
         -5    1    4    4    0  502 -0.25524577468E+02  0.13830526258E+02  0.45421931110E+00  0.29412307401E+02  0.47000000000E+01 0.  1.
          5    1    5    5  503    0 -0.20275304858E+02 -0.35039743653E+02  0.33089765057E+02  0.52496611070E+02  0.47000000000E+01 0.  1.
         -5    1    5    5    0  503  0.31448528046E+02  0.85254633551E+02  0.88229126716E+02  0.12674317046E+03  0.47000000000E+01 0.  1.
<mgrwt>
<rscale>  0 0.27544867E+03</rscale>
<asrwt>0</asrwt>
<pdfrwt beam="1">  1        1 0.60571914E-01 0.27544867E+03</pdfrwt>
<pdfrwt beam="2">  1       -1 0.74117941E-02 0.27544867E+03</pdfrwt>
<totfact> 0.59528885E+03</totfact>
</mgrwt>
</event>
<event>
 9    1  0.2054950E-002  0.2728554E+03  0.7818608E-02  0.1099656E+00
          1   -1    0    0  501    0  0.00000000000E+00  0.00000000000E+00  0.14712038820E+03  0.14712038820E+03  0.00000000000E+00 0.  1.
         -1   -1    0    0    0  501 -0.00000000000E+00 -0.00000000000E+00 -0.12651211480E+03  0.12651211480E+03  0.00000000000E+00 0.  1.
         36    2    1    2    0    0  0.00000000000E+00  0.00000000000E+00  0.20608273405E+02  0.27363250300E+03  0.27285535686E+03 0.  0.
         25    2    3    3    0    0 -0.61364743554E+02 -0.45611282350E+02  0.10085140091E+02  0.14258139408E+03  0.11992382189E+03 0.  0.
         25    2    3    3    0    0  0.61364743554E+02  0.45611282350E+02  0.10523133314E+02  0.13105110892E+03  0.10591334187E+03 0.  0.
          5    1    4    4  502    0 -0.80981885854E+02  0.80842423480E+01  0.21025322415E+02  0.84187736598E+02  0.47000000000E+01 0.  1.
         -5    1    4    4    0  502  0.19617142300E+02 -0.53695524698E+02 -0.10940182324E+02  0.58393657480E+02  0.47000000000E+01 0.  1.
          5    1    5    5  503    0  0.51165085513E+02  0.78447489828E+02  0.18157134216E+02  0.95517779281E+02  0.47000000000E+01 0.  1.
         -5    1    5    5    0  503  0.10199658041E+02 -0.32836207478E+02 -0.76340009028E+01  0.35533329642E+02  0.47000000000E+01 0.  1.
<mgrwt>
<rscale>  0 0.27285536E+03</rscale>
<asrwt>0</asrwt>
<pdfrwt beam="1">  1        1 0.22633906E-01 0.27285536E+03</pdfrwt>
<pdfrwt beam="2">  1       -1 0.19463402E-01 0.27285536E+03</pdfrwt>
<totfact> 0.45539034E+03</totfact>
</mgrwt>
</event>
<event>
 9    1  0.2054950E-002  0.2746438E+03  0.7818608E-02  0.1098651E+00
          1   -1    0    0  501    0  0.00000000000E+00  0.00000000000E+00  0.59581332761E+02  0.59581332761E+02  0.00000000000E+00 0. -1.
         -1   -1    0    0    0  501 -0.00000000000E+00 -0.00000000000E+00 -0.31649682006E+03  0.31649682006E+03  0.00000000000E+00 0. -1.
         36    2    1    2    0    0  0.00000000000E+00  0.00000000000E+00 -0.25691548730E+03  0.37607815282E+03  0.27464378641E+03 0.  0.
         25    2    3    3    0    0  0.26279982771E+02  0.36285351301E+02 -0.15035774025E+03  0.20002710608E+03  0.12408113836E+03 0.  0.
         25    2    3    3    0    0 -0.26279982771E+02 -0.36285351301E+02 -0.10655774705E+03  0.17605104675E+03  0.13278611897E+03 0.  0.
          5    1    4    4  502    0  0.15225017142E+02  0.50867997983E+02 -0.51031193319E+01  0.53548914020E+02  0.47000000000E+01 0.  1.
         -5    1    4    4    0  502  0.11054965628E+02 -0.14582646682E+02 -0.14525462092E+03  0.14647819206E+03  0.47000000000E+01 0.  1.
          5    1    5    5  503    0 -0.20718996067E+02  0.21449949132E+02 -0.11349921508E+03  0.11744589793E+03  0.47000000000E+01 0. -1.
         -5    1    5    5    0  503 -0.55609867034E+01 -0.57735300434E+02  0.69414680366E+01  0.58605148817E+02  0.47000000000E+01 0. -1.
<mgrwt>
<rscale>  0 0.27464379E+03</rscale>
<asrwt>0</asrwt>
<pdfrwt beam="1">  1        1 0.91663588E-02 0.27464379E+03</pdfrwt>
<pdfrwt beam="2">  1       -1 0.48691819E-01 0.27464379E+03</pdfrwt>
<totfact> 0.31041918E+03</totfact>
</mgrwt>
</event>
<event>
 9    1  0.2054950E-002  0.2751363E+03  0.7818608E-02  0.1098375E+00
         -2   -1    0    0    0  501 -0.00000000000E+00  0.00000000000E+00  0.21150468454E+02  0.21150468454E+02  0.00000000000E+00 0. -1.
          2   -1    0    0  501    0  0.00000000000E+00 -0.00000000000E+00 -0.89477926087E+03  0.89477926087E+03  0.00000000000E+00 0. -1.
         36    2    1    2    0    0  0.00000000000E+00  0.00000000000E+00 -0.87362879242E+03  0.91592972933E+03  0.27513633370E+03 0.  0.
         25    2    3    3    0    0 -0.10480322345E+02  0.28246605619E+02 -0.51065589458E+03  0.52902227882E+03  0.13486074646E+03 0.  0.
         25    2    3    3    0    0  0.10480322345E+02 -0.28246605619E+02 -0.36297289784E+03  0.38690745051E+03  0.13053866402E+03 0.  0.
          5    1    4    4  502    0  0.53667964991E+02  0.57663695277E+01 -0.35494669206E+03  0.35905813692E+03  0.47000000000E+01 0.  1.
         -5    1    4    4    0  502 -0.64148287337E+02  0.22480236092E+02 -0.15570920252E+03  0.16996414190E+03  0.47000000000E+01 0.  1.
          5    1    5    5  503    0 -0.45232790054E+02 -0.14471536111E+02 -0.29025128357E+03  0.29414847997E+03  0.47000000000E+01 0.  1.
         -5    1    5    5    0  503  0.55713112399E+02 -0.13775069509E+02 -0.72721614268E+02  0.92758970536E+02  0.47000000000E+01 0.  1.
<mgrwt>
<rscale>  0 0.27513633E+03</rscale>
<asrwt>0</asrwt>
<pdfrwt beam="1">  1        2 0.13765831E+00 0.27513633E+03</pdfrwt>
<pdfrwt beam="2">  1       -2 0.32539190E-02 0.27513633E+03</pdfrwt>
<totfact> 0.11449812E+04</totfact>
</mgrwt>
</event>
<event>
 9    1  0.2054950E-002  0.2744548E+03  0.7818608E-02  0.1098757E+00
          3   -1    0    0  501    0  0.00000000000E+00  0.00000000000E+00  0.10467954575E+04  0.10467954575E+04  0.00000000000E+00 0.  1.
         -3   -1    0    0    0  501 -0.00000000000E+00 -0.00000000000E+00 -0.17989530373E+02  0.17989530373E+02  0.00000000000E+00 0.  1.
         36    2    1    2    0    0 -0.71054273576E-14  0.00000000000E+00  0.10288059271E+04  0.10647849879E+04  0.27445479538E+03 0.  0.
         25    2    3    3    0    0  0.23514512450E+01  0.45939521894E+02  0.48485700220E+03  0.50407758990E+03  0.12996897731E+03 0.  0.
         25    2    3    3    0    0 -0.23514512450E+01 -0.45939521894E+02  0.54394892491E+03  0.56070739796E+03  0.12804836671E+03 0.  0.
          5    1    4    4  502    0 -0.63004462863E+02  0.24748923465E+02  0.27313685848E+03  0.28143898986E+03  0.47000000000E+01 0. -1.
         -5    1    4    4    0  502  0.65355914108E+02  0.21190598429E+02  0.21172014372E+03  0.22263860004E+03  0.47000000000E+01 0. -1.
          5    1    5    5  503    0  0.13004739922E+02  0.43114027750E+02  0.16445287470E+03  0.17057192221E+03  0.47000000000E+01 0.  1.
         -5    1    5    5    0  503 -0.15356191167E+02 -0.89053549644E+02  0.37949605022E+03  0.39013547575E+03  0.47000000000E+01 0.  1.
<mgrwt>
<rscale>  0 0.27445480E+03</rscale>
<asrwt>0</asrwt>
<pdfrwt beam="1">  1        3 0.16104541E+00 0.27445480E+03</pdfrwt>
<pdfrwt beam="2">  1       -3 0.27676209E-02 0.27445480E+03</pdfrwt>
<totfact> 0.41931772E+02</totfact>
</mgrwt>
</event>
<event>
 9    1  0.2054950E-002  0.2771364E+03  0.7818608E-02  0.1097263E+00
         -1   -1    0    0    0  501 -0.00000000000E+00  0.00000000000E+00  0.27735800833E+03  0.27735800833E+03  0.00000000000E+00 0.  1.
          1   -1    0    0  501    0  0.00000000000E+00 -0.00000000000E+00 -0.69228730441E+02  0.69228730441E+02  0.00000000000E+00 0.  1.
         36    2    1    2    0    0  0.00000000000E+00  0.00000000000E+00  0.20812927789E+03  0.34658673877E+03  0.27713637650E+03 0.  0.
         25    2    3    3    0    0 -0.19068808219E+02  0.36631837064E+02  0.53450843880E+02  0.14207933431E+03  0.12499613432E+03 0.  0.
         25    2    3    3    0    0  0.19068808219E+02 -0.36631837064E+02  0.15467843401E+03  0.20450740446E+03  0.12724916344E+03 0.  0.
          5    1    4    4  502    0 -0.52665772582E+02 -0.15391741310E+02 -0.68746544622E+01  0.55497208724E+02  0.47000000000E+01 0.  1.
         -5    1    4    4    0  502  0.33596964363E+02  0.52023578374E+02  0.60325498342E+02  0.86582125589E+02  0.47000000000E+01 0.  1.
          5    1    5    5  503    0  0.38747528655E+02 -0.34651821151E+02  0.38724615028E+01  0.52337421068E+02  0.47000000000E+01 0.  1.
         -5    1    5    5    0  503 -0.19678720436E+02 -0.19800159128E+01  0.15080597251E+03  0.15216998339E+03  0.47000000000E+01 0.  1.
<mgrwt>
<rscale>  0 0.27713638E+03</rscale>
<asrwt>0</asrwt>
<pdfrwt beam="1">  1        1 0.10650574E-01 0.27713638E+03</pdfrwt>
<pdfrwt beam="2">  1       -1 0.42670462E-01 0.27713638E+03</pdfrwt>
<totfact> 0.32251877E+03</totfact>
</mgrwt>
</event>
<event>
 9    1  0.2054950E-002  0.2748001E+03  0.7818608E-02  0.1098563E+00
          2   -1    0    0  501    0  0.00000000000E+00  0.00000000000E+00  0.13292747757E+04  0.13292747757E+04  0.00000000000E+00 0.  1.
         -2   -1    0    0    0  501 -0.00000000000E+00 -0.00000000000E+00 -0.14202308896E+02  0.14202308896E+02  0.00000000000E+00 0.  1.
         36    2    1    2    0    0 -0.71054273576E-14  0.00000000000E+00  0.13150724669E+04  0.13434770846E+04  0.27480007986E+03 0.  0.
         25    2    3    3    0    0 -0.48400453925E+02 -0.35609354535E+02  0.74490798293E+03  0.75679734135E+03  0.11934690095E+03 0.  0.
         25    2    3    3    0    0  0.48400453925E+02  0.35609354535E+02  0.57016448392E+03  0.58667974329E+03  0.12447872267E+03 0.  0.
          5    1    4    4  502    0 -0.48515636321E+02 -0.17508994577E+02  0.10967374725E+03  0.12128789179E+03  0.47000000000E+01 0.  1.
         -5    1    4    4    0  502  0.11518239630E+00 -0.18100359958E+02  0.63523423568E+03  0.63550944956E+03  0.47000000000E+01 0.  1.
          5    1    5    5  503    0 -0.20859058250E+01 -0.30725408014E+02  0.43883900599E+02  0.53817176000E+02  0.47000000000E+01 0.  1.
         -5    1    5    5    0  503  0.50486359750E+02  0.66334762550E+02  0.52628058332E+03  0.53286256729E+03  0.47000000000E+01 0.  1.
<mgrwt>
<rscale>  0 0.27480008E+03</rscale>
<asrwt>0</asrwt>
<pdfrwt beam="1">  1        2 0.20450371E+00 0.27480008E+03</pdfrwt>
<pdfrwt beam="2">  1       -2 0.21849717E-02 0.27480008E+03</pdfrwt>
<totfact> 0.11458943E+04</totfact>
</mgrwt>
</event>
<event>
 9    1  0.2054950E-002  0.2740314E+03  0.7818608E-02  0.1098994E+00
         -2   -1    0    0    0  501 -0.00000000000E+00  0.00000000000E+00  0.31939665194E+02  0.31939665194E+02  0.00000000000E+00 0. -1.
          2   -1    0    0  501    0  0.00000000000E+00 -0.00000000000E+00 -0.58777391841E+03  0.58777391841E+03  0.00000000000E+00 0. -1.
         36    2    1    2    0    0 -0.71054273576E-14  0.71054273576E-14 -0.55583425322E+03  0.61971358361E+03  0.27403140086E+03 0.  0.
         25    2    3    3    0    0 -0.54620716222E+02  0.23278918156E+02 -0.38308932336E+03  0.39851676222E+03  0.92373423820E+02 0.  0.
         25    2    3    3    0    0  0.54620716222E+02 -0.23278918156E+02 -0.17274492986E+03  0.22119682139E+03  0.12474731391E+03 0.  0.
          5    1    4    4  502    0 -0.34934511100E+01 -0.27731951516E+02 -0.48374466912E+02  0.56066428320E+02  0.47000000000E+01 0. -1.
         -5    1    4    4    0  502 -0.51127265112E+02  0.51010869672E+02 -0.33471485644E+03  0.34245033390E+03  0.47000000000E+01 0. -1.
          5    1    5    5  503    0 -0.16522740231E+02  0.16623475964E+01 -0.13619386778E+03  0.13728300684E+03  0.47000000000E+01 0. -1.
         -5    1    5    5    0  503  0.71143456453E+02 -0.24941265752E+02 -0.36551062077E+02  0.83913814550E+02  0.47000000000E+01 0. -1.
<mgrwt>
<rscale>  0 0.27403140E+03</rscale>
<asrwt>0</asrwt>
<pdfrwt beam="1">  1        2 0.90426747E-01 0.27403140E+03</pdfrwt>
<pdfrwt beam="2">  1       -2 0.49137952E-02 0.27403140E+03</pdfrwt>
<totfact> 0.10340531E+04</totfact>
</mgrwt>
</event>
<event>
 9    1  0.2054950E-002  0.2750112E+03  0.7818608E-02  0.1098445E+00
          2   -1    0    0  501    0  0.00000000000E+00  0.00000000000E+00  0.10508083142E+04  0.10508083142E+04  0.00000000000E+00 0. -1.
         -2   -1    0    0    0  501 -0.00000000000E+00 -0.00000000000E+00 -0.17993564442E+02  0.17993564442E+02  0.00000000000E+00 0. -1.
         36    2    1    2    0    0  0.00000000000E+00  0.71054273576E-14  0.10328147498E+04  0.10688018786E+04  0.27501117881E+03 0.  0.
         25    2    3    3    0    0  0.44053594809E+02 -0.17992740072E+02  0.43986390170E+03  0.46076154829E+03  0.12867204223E+03 0.  0.
         25    2    3    3    0    0 -0.44053594809E+02  0.17992740072E+02  0.59295084806E+03  0.60804033036E+03  0.12592806364E+03 0.  0.
          5    1    4    4  502    0  0.51919432509E+02 -0.59875472666E+02  0.37283617375E+03  0.38119496607E+03  0.47000000000E+01 0. -1.
         -5    1    4    4    0  502 -0.78658377005E+01  0.41882732594E+02  0.67027727951E+02  0.79566582222E+02  0.47000000000E+01 0. -1.
          5    1    5    5  503    0 -0.12089819527E+02 -0.41925547892E+02  0.86110399656E+02  0.96648881168E+02  0.47000000000E+01 0. -1.
         -5    1    5    5    0  503 -0.31963775281E+02  0.59918287964E+02  0.50684044840E+03  0.51139144919E+03  0.47000000000E+01 0. -1.
<mgrwt>
<rscale>  0 0.27501118E+03</rscale>
<asrwt>0</asrwt>
<pdfrwt beam="1">  1        2 0.16166277E+00 0.27501118E+03</pdfrwt>
<pdfrwt beam="2">  1       -2 0.27682415E-02 0.27501118E+03</pdfrwt>
<totfact> 0.11648843E+04</totfact>
</mgrwt>
</event>
<event>
 9    1  0.2054950E-002  0.2747266E+03  0.7818608E-02  0.1098605E+00
         -1   -1    0    0    0  501 -0.00000000000E+00  0.00000000000E+00  0.25310381539E+02  0.25310381539E+02  0.00000000000E+00 0. -1.
          1   -1    0    0  501    0  0.00000000000E+00 -0.00000000000E+00 -0.74549155524E+03  0.74549155524E+03  0.00000000000E+00 0. -1.
         36    2    1    2    0    0  0.00000000000E+00  0.00000000000E+00 -0.72018117370E+03  0.77080193677E+03  0.27472659644E+03 0.  0.
         25    2    3    3    0    0 -0.47415507801E+02 -0.12043342403E+01 -0.29893951203E+03  0.32854576410E+03  0.12778030542E+03 0.  0.
         25    2    3    3    0    0  0.47415507801E+02  0.12043342403E+01 -0.42124166167E+03  0.44225617268E+03  0.12608054547E+03 0.  0.
          5    1    4    4  502    0  0.20660097523E+02 -0.23455905581E+02 -0.13761720306E+02  0.34474542522E+02  0.47000000000E+01 0. -1.
         -5    1    4    4    0  502 -0.68075605324E+02  0.22251571341E+02 -0.28517779172E+03  0.29407122157E+03  0.47000000000E+01 0. -1.
          5    1    5    5  503    0  0.50596232979E+02  0.52406848320E+02 -0.32497000626E+03  0.33306763805E+03  0.47000000000E+01 0.  1.
         -5    1    5    5    0  503 -0.31807251778E+01 -0.51202514080E+02 -0.96271655407E+02  0.10918853463E+03  0.47000000000E+01 0.  1.
<mgrwt>
<rscale>  0 0.27472660E+03</rscale>
<asrwt>0</asrwt>
<pdfrwt beam="1">  1        1 0.11469101E+00 0.27472660E+03</pdfrwt>
<pdfrwt beam="2">  1       -1 0.38939047E-02 0.27472660E+03</pdfrwt>
<totfact> 0.65548780E+03</totfact>
</mgrwt>
</event>
<event>
 9    1  0.2054950E-002  0.2751761E+03  0.7818608E-02  0.1098353E+00
         -3   -1    0    0    0  501 -0.00000000000E+00  0.00000000000E+00  0.41932449549E+02  0.41932449549E+02  0.00000000000E+00 0.  1.
          3   -1    0    0  501    0  0.00000000000E+00 -0.00000000000E+00 -0.45145147642E+03  0.45145147642E+03  0.00000000000E+00 0.  1.
         36    2    1    2    0    0  0.00000000000E+00  0.00000000000E+00 -0.40951902687E+03  0.49338392597E+03  0.27517606188E+03 0.  0.
         25    2    3    3    0    0 -0.62159251137E+02  0.13293277628E+02 -0.19114915096E+03  0.23746217694E+03  0.12573704240E+03 0.  0.
         25    2    3    3    0    0  0.62159251137E+02 -0.13293277628E+02 -0.21836987590E+03  0.25592174903E+03  0.11734587846E+03 0.  0.
          5    1    4    4  502    0  0.37433386666E+02 -0.47708889997E+01 -0.68726919418E+02  0.78546160134E+02  0.47000000000E+01 0.  1.
         -5    1    4    4    0  502 -0.99592637803E+02  0.18064166628E+02 -0.12242223155E+03  0.15891601681E+03  0.47000000000E+01 0.  1.
          5    1    5    5  503    0  0.90453309920E+02  0.14944395699E+02 -0.13382282351E+03  0.16228300691E+03  0.47000000000E+01 0. -1.
         -5    1    5    5    0  503 -0.28294058783E+02 -0.28237673328E+02 -0.84547052391E+02  0.93638742118E+02  0.47000000000E+01 0. -1.
<mgrwt>
<rscale>  0 0.27517606E+03</rscale>
<asrwt>0</asrwt>
<pdfrwt beam="1">  1        3 0.69454071E-01 0.27517606E+03</pdfrwt>
<pdfrwt beam="2">  1       -3 0.64511463E-02 0.27517606E+03</pdfrwt>
<totfact> 0.77931646E+02</totfact>
</mgrwt>
</event>
<event>
 9    1  0.2054950E-002  0.2752102E+03  0.7818608E-02  0.1098334E+00
          1   -1    0    0  501    0  0.00000000000E+00  0.00000000000E+00  0.20188927693E+03  0.20188927693E+03  0.00000000000E+00 0.  1.
         -1   -1    0    0    0  501 -0.00000000000E+00 -0.00000000000E+00 -0.93789857265E+02  0.93789857265E+02  0.00000000000E+00 0.  1.
         36    2    1    2    0    0 -0.71054273576E-14 -0.71054273576E-14  0.10809941967E+03  0.29567913420E+03  0.27521022123E+03 0.  0.
         25    2    3    3    0    0  0.39525575039E+02 -0.19411048524E+02  0.99998941726E+02  0.16096033443E+03  0.11819213606E+03 0.  0.
         25    2    3    3    0    0 -0.39525575039E+02  0.19411048524E+02  0.81004779430E+01  0.13471879977E+03  0.12706091996E+03 0.  0.
          5    1    4    4  502    0  0.50742000716E-01 -0.61877178999E+02  0.27145616588E+02  0.67733022637E+02  0.47000000000E+01 0. -1.
         -5    1    4    4    0  502  0.39474833038E+02  0.42466130475E+02  0.72853325138E+02  0.93227311795E+02  0.47000000000E+01 0. -1.
          5    1    5    5  503    0  0.66755610334E+01 -0.44364570752E+02  0.28338412225E+02  0.53272261643E+02  0.47000000000E+01 0.  1.
         -5    1    5    5    0  503 -0.46201136072E+02  0.63775619276E+02 -0.20237934282E+02  0.81446538124E+02  0.47000000000E+01 0.  1.
<mgrwt>
<rscale>  0 0.27521022E+03</rscale>
<asrwt>0</asrwt>
<pdfrwt beam="1">  1        1 0.31059889E-01 0.27521022E+03</pdfrwt>
<pdfrwt beam="2">  1       -1 0.14429209E-01 0.27521022E+03</pdfrwt>
<totfact> 0.49220438E+03</totfact>
</mgrwt>
</event>
<event>
 9    1  0.2054950E-002  0.2732245E+03  0.7818608E-02  0.1099448E+00
          1   -1    0    0  501    0  0.00000000000E+00  0.00000000000E+00  0.11005646515E+04  0.11005646515E+04  0.00000000000E+00 0.  1.
         -1   -1    0    0    0  501 -0.00000000000E+00 -0.00000000000E+00 -0.16957572713E+02  0.16957572713E+02  0.00000000000E+00 0.  1.
         36    2    1    2    0    0 -0.71054273576E-14 -0.35527136788E-14  0.10836070788E+04  0.11175222242E+04  0.27322448722E+03 0.  0.
         25    2    3    3    0    0 -0.41731582472E+02  0.24814103978E+02  0.57187363979E+03  0.58828194956E+03  0.12914692236E+03 0.  0.
         25    2    3    3    0    0  0.41731582472E+02 -0.24814103978E+02  0.51173343902E+03  0.52924027468E+03  0.12596384799E+03 0.  0.
          5    1    4    4  502    0 -0.47996069255E+01  0.39197661702E-01 -0.58029186669E+01  0.88770281148E+01  0.47000000000E+01 0. -1.
         -5    1    4    4    0  502 -0.36931975546E+02  0.24774906316E+02  0.57767655846E+03  0.57940492144E+03  0.47000000000E+01 0. -1.
          5    1    5    5  503    0  0.59576467266E+02 -0.58863229314E+02  0.43794482052E+03  0.44590580960E+03  0.47000000000E+01 0. -1.
         -5    1    5    5    0  503 -0.17844884795E+02  0.34049125336E+02  0.73788618502E+02  0.83334465078E+02  0.47000000000E+01 0. -1.
<mgrwt>
<rscale>  0 0.27322449E+03</rscale>
<asrwt>0</asrwt>
<pdfrwt beam="1">  1        1 0.16931758E+00 0.27322449E+03</pdfrwt>
<pdfrwt beam="2">  1       -1 0.26088582E-02 0.27322449E+03</pdfrwt>
<totfact> 0.62476968E+03</totfact>
</mgrwt>
</event>
<event>
 9    1  0.2054950E-002  0.2755293E+03  0.7818608E-02  0.1098156E+00
          1   -1    0    0  501    0  0.00000000000E+00  0.00000000000E+00  0.10716757389E+03  0.10716757389E+03  0.00000000000E+00 0. -1.
         -1   -1    0    0    0  501 -0.00000000000E+00 -0.00000000000E+00 -0.17709738234E+03  0.17709738234E+03  0.00000000000E+00 0. -1.
         36    2    1    2    0    0  0.00000000000E+00  0.00000000000E+00 -0.69929808453E+02  0.28426495622E+03  0.27552928561E+03 0.  0.
         25    2    3    3    0    0  0.45289030026E+02 -0.45212054568E+02 -0.21948312133E+02  0.14375991581E+03  0.12684620163E+03 0.  0.
         25    2    3    3    0    0 -0.45289030026E+02  0.45212054568E+02 -0.47981496321E+02  0.14050504041E+03  0.11551716874E+03 0.  0.
          5    1    4    4  502    0  0.51474715084E+02  0.26849364498E+02  0.18047128132E+02  0.60978057535E+02  0.47000000000E+01 0.  1.
         -5    1    4    4    0  502 -0.61856850582E+01 -0.72061419066E+02 -0.39995440265E+02  0.82781858275E+02  0.47000000000E+01 0.  1.
          5    1    5    5  503    0 -0.54983687191E+02 -0.11228044100E+02  0.11853119100E+02  0.57548772913E+02  0.47000000000E+01 0. -1.
         -5    1    5    5    0  503  0.96946571652E+01  0.56440098668E+02 -0.59834615421E+02  0.82956267501E+02  0.47000000000E+01 0. -1.
<mgrwt>
<rscale>  0 0.27552929E+03</rscale>
<asrwt>0</asrwt>
<pdfrwt beam="1">  1        1 0.16487319E-01 0.27552929E+03</pdfrwt>
<pdfrwt beam="2">  1       -1 0.27245751E-01 0.27552929E+03</pdfrwt>
<totfact> 0.39383603E+03</totfact>
</mgrwt>
</event>
<event>
 9    1  0.2054950E-002  0.2747681E+03  0.7818608E-02  0.1098581E+00
         -1   -1    0    0    0  501 -0.00000000000E+00  0.00000000000E+00  0.24879359933E+02  0.24879359933E+02  0.00000000000E+00 0.  1.
          1   -1    0    0  501    0  0.00000000000E+00 -0.00000000000E+00 -0.75863578943E+03  0.75863578943E+03  0.00000000000E+00 0.  1.
         36    2    1    2    0    0  0.00000000000E+00  0.00000000000E+00 -0.73375642950E+03  0.78351514937E+03  0.27476806847E+03 0.  0.
         25    2    3    3    0    0  0.15058409558E+02  0.14717793054E+02 -0.43147823692E+03  0.44950576547E+03  0.12425214331E+03 0.  0.
         25    2    3    3    0    0 -0.15058409558E+02 -0.14717793054E+02 -0.30227819258E+03  0.33400938390E+03  0.14052328524E+03 0.  0.
          5    1    4    4  502    0 -0.30373367210E+02  0.40615224885E+02 -0.85154866359E+02  0.99224892001E+02  0.47000000000E+01 0. -1.
         -5    1    4    4    0  502  0.45431776768E+02 -0.25897431831E+02 -0.34632337056E+03  0.35028087346E+03  0.47000000000E+01 0. -1.
          5    1    5    5  503    0  0.33072355449E+02 -0.12753703986E+02 -0.27720355544E+03  0.27950015887E+03  0.47000000000E+01 0.  1.
         -5    1    5    5    0  503 -0.48130765006E+02 -0.19640890676E+01 -0.25074637141E+02  0.54509225033E+02  0.47000000000E+01 0.  1.
<mgrwt>
<rscale>  0 0.27476807E+03</rscale>
<asrwt>0</asrwt>
<pdfrwt beam="1">  1        1 0.11671320E+00 0.27476807E+03</pdfrwt>
<pdfrwt beam="2">  1       -1 0.38275937E-02 0.27476807E+03</pdfrwt>
<totfact> 0.65503846E+03</totfact>
</mgrwt>
</event>
<event>
 9    1  0.2054950E-002  0.2753671E+03  0.7818608E-02  0.1098247E+00
         -1   -1    0    0    0  501 -0.00000000000E+00  0.00000000000E+00  0.81104170000E+02  0.81104170000E+02  0.00000000000E+00 0.  1.
          1   -1    0    0  501    0  0.00000000000E+00 -0.00000000000E+00 -0.23373342287E+03  0.23373342287E+03  0.00000000000E+00 0.  1.
         36    2    1    2    0    0 -0.71054273576E-14  0.00000000000E+00 -0.15262925287E+03  0.31483759287E+03  0.27536706603E+03 0.  0.
         25    2    3    3    0    0 -0.24653812946E+02 -0.91804754813E+01 -0.13442719987E+03  0.18552286197E+03  0.12512381318E+03 0.  0.
         25    2    3    3    0    0  0.24653812946E+02  0.91804754813E+01 -0.18202053003E+02  0.12931473090E+03  0.12529522446E+03 0.  0.
          5    1    4    4  502    0  0.15953806281E+02  0.19674394094E+02 -0.13299337120E+03  0.13546561372E+03  0.47000000000E+01 0. -1.
         -5    1    4    4    0  502 -0.40607619227E+02 -0.28854869575E+02 -0.14338286691E+01  0.50057248247E+02  0.47000000000E+01 0. -1.
          5    1    5    5  503    0  0.57287926283E+02 -0.35027081213E+02  0.88450478585E+01  0.67890557427E+02  0.47000000000E+01 0.  1.
         -5    1    5    5    0  503 -0.32634113337E+02  0.44207556695E+02 -0.27047100861E+02  0.61424173476E+02  0.47000000000E+01 0.  1.
<mgrwt>
<rscale>  0 0.27536707E+03</rscale>
<asrwt>0</asrwt>
<pdfrwt beam="1">  1        1 0.35958988E-01 0.27536707E+03</pdfrwt>
<pdfrwt beam="2">  1       -1 0.12477565E-01 0.27536707E+03</pdfrwt>
<totfact> 0.51461081E+03</totfact>
</mgrwt>
</event>
<event>
 9    1  0.2054950E-002  0.2769708E+03  0.7818608E-02  0.1097355E+00
         -2   -1    0    0    0  501 -0.00000000000E+00  0.00000000000E+00  0.98297496196E+01  0.98297496196E+01  0.00000000000E+00 0. -1.
          2   -1    0    0  501    0  0.00000000000E+00 -0.00000000000E+00 -0.19510373868E+04  0.19510373868E+04  0.00000000000E+00 0. -1.
         36    2    1    2    0    0  0.71054273576E-14 -0.71054273576E-14 -0.19412076372E+04  0.19608671364E+04  0.27697082165E+03 0.  0.
         25    2    3    3    0    0 -0.40415265671E+02  0.41574218525E+02 -0.11472486476E+04  0.11552434620E+04  0.12266290355E+03 0.  0.
         25    2    3    3    0    0  0.40415265671E+02 -0.41574218525E+02 -0.79395898963E+03  0.80562367439E+03  0.12368030636E+03 0.  0.
          5    1    4    4  502    0 -0.13489840035E+02 -0.43623319928E+02 -0.35352628722E+03  0.35649389277E+03  0.47000000000E+01 0. -1.
         -5    1    4    4    0  502 -0.26925425636E+02  0.85197538453E+02 -0.79372236034E+03  0.79874956927E+03  0.47000000000E+01 0. -1.
          5    1    5    5  503    0 -0.41860720356E+02 -0.36132849717E+01 -0.17413553091E+03  0.17919444429E+03  0.47000000000E+01 0. -1.
         -5    1    5    5    0  503  0.82275986027E+02 -0.37960933554E+02 -0.61982345872E+03  0.62642923011E+03  0.47000000000E+01 0. -1.
<mgrwt>
<rscale>  0 0.27697082E+03</rscale>
<asrwt>0</asrwt>
<pdfrwt beam="1">  1        2 0.30015923E+00 0.27697082E+03</pdfrwt>
<pdfrwt beam="2">  1       -2 0.15122710E-02 0.27697082E+03</pdfrwt>
<totfact> 0.91914197E+03</totfact>
</mgrwt>
</event>
<event>
 9    1  0.2054950E-002  0.2753237E+03  0.7818608E-02  0.1098271E+00
         -2   -1    0    0    0  501 -0.00000000000E+00  0.00000000000E+00  0.22119977401E+02  0.22119977401E+02  0.00000000000E+00 0. -1.
          2   -1    0    0  501    0  0.00000000000E+00 -0.00000000000E+00 -0.85672701224E+03  0.85672701224E+03  0.00000000000E+00 0. -1.
         36    2    1    2    0    0 -0.35527136788E-14 -0.35527136788E-14 -0.83460703484E+03  0.87884698964E+03  0.27532367969E+03 0.  0.
         25    2    3    3    0    0 -0.24883687975E+02  0.18361471194E+02 -0.62017514229E+03  0.63346993733E+03  0.12534198350E+03 0.  0.
         25    2    3    3    0    0  0.24883687975E+02 -0.18361471194E+02 -0.21443189255E+03  0.24537705231E+03  0.11520642217E+03 0.  0.
          5    1    4    4  502    0  0.34816397096E+02 -0.30798311181E+02 -0.15505514068E+03  0.16194105140E+03  0.47000000000E+01 0.  1.
         -5    1    4    4    0  502 -0.59700085071E+02  0.49159782375E+02 -0.46512000161E+03  0.47152888592E+03  0.47000000000E+01 0.  1.
          5    1    5    5  503    0  0.14391883436E+02  0.48821620885E+02 -0.93463590689E+02  0.10652797641E+03  0.47000000000E+01 0.  1.
         -5    1    5    5    0  503  0.10491804538E+02 -0.67183092078E+02 -0.12096830186E+03  0.13884907590E+03  0.47000000000E+01 0.  1.
<mgrwt>
<rscale>  0 0.27532368E+03</rscale>
<asrwt>0</asrwt>
<pdfrwt beam="1">  1        2 0.13180415E+00 0.27532368E+03</pdfrwt>
<pdfrwt beam="2">  1       -2 0.34030737E-02 0.27532368E+03</pdfrwt>
<totfact> 0.11341977E+04</totfact>
</mgrwt>
</event>
<event>
 9    1  0.2054950E-002  0.2764564E+03  0.7818608E-02  0.1097640E+00
          1   -1    0    0  501    0  0.00000000000E+00  0.00000000000E+00  0.20999439592E+03  0.20999439592E+03  0.00000000000E+00 0.  1.
         -1   -1    0    0    0  501 -0.00000000000E+00 -0.00000000000E+00 -0.90988278509E+02  0.90988278509E+02  0.00000000000E+00 0.  1.
         36    2    1    2    0    0  0.00000000000E+00 -0.35527136788E-14  0.11900611742E+03  0.30098267443E+03  0.27645635158E+03 0.  0.
         25    2    3    3    0    0 -0.23439094722E+02  0.22057817099E+01  0.11729407738E+03  0.16798680526E+03  0.11792968039E+03 0.  0.
         25    2    3    3    0    0  0.23439094722E+02 -0.22057817099E+01  0.17120400386E+01  0.13299586918E+03  0.13088435164E+03 0.  0.
          5    1    4    4  502    0 -0.49935711170E+02  0.46245820601E+02  0.59748356410E+02  0.90687415151E+02  0.47000000000E+01 0. -1.
         -5    1    4    4    0  502  0.26496616448E+02 -0.44040038891E+02  0.57545720968E+02  0.77299390104E+02  0.47000000000E+01 0. -1.
          5    1    5    5  503    0  0.40072824793E+02  0.26998727829E+02  0.52759864368E+02  0.71696972596E+02  0.47000000000E+01 0.  1.
         -5    1    5    5    0  503 -0.16633730071E+02 -0.29204509539E+02 -0.51047824329E+02  0.61298896583E+02  0.47000000000E+01 0.  1.
<mgrwt>
<rscale>  0 0.27645635E+03</rscale>
<asrwt>0</asrwt>
<pdfrwt beam="1">  1        1 0.32306830E-01 0.27645635E+03</pdfrwt>
<pdfrwt beam="2">  1       -1 0.13998197E-01 0.27645635E+03</pdfrwt>
<totfact> 0.49146330E+03</totfact>
</mgrwt>
</event>
<event>
 9    1  0.2054950E-002  0.2757277E+03  0.7818608E-02  0.1098046E+00
          2   -1    0    0  501    0  0.00000000000E+00  0.00000000000E+00  0.32361676553E+04  0.32361676553E+04  0.00000000000E+00 0.  1.
         -2   -1    0    0    0  501 -0.00000000000E+00 -0.00000000000E+00 -0.58731327980E+01  0.58731327980E+01  0.00000000000E+00 0.  1.
         36    2    1    2    0    0 -0.71054273576E-14 -0.53290705182E-14  0.32302945225E+04  0.32420407881E+04  0.27572770914E+03 0.  0.
         25    2    3    3    0    0 -0.40203468700E+02  0.50453496919E+01  0.14808589107E+04  0.14866846489E+04  0.12508540048E+03 0.  0.
         25    2    3    3    0    0  0.40203468700E+02 -0.50453496919E+01  0.17494356118E+04  0.17553561392E+04  0.13823328523E+03 0.  0.
          5    1    4    4  502    0 -0.62595417253E+02 -0.44466586162E+01  0.14137538219E+04  0.14151536729E+04  0.47000000000E+01 0.  1.
         -5    1    4    4    0  502  0.22391948553E+02  0.94920083081E+01  0.67105088813E+02  0.71530975992E+02  0.47000000000E+01 0.  1.
          5    1    5    5  503    0 -0.31192412771E+02 -0.44061603378E+02  0.42916509777E+03  0.43257272527E+03  0.47000000000E+01 0. -1.
         -5    1    5    5    0  503  0.71395881471E+02  0.39016253686E+02  0.13202705141E+04  0.13227834140E+04  0.47000000000E+01 0. -1.
<mgrwt>
<rscale>  0 0.27572771E+03</rscale>
<asrwt>0</asrwt>
<pdfrwt beam="1">  1        2 0.49787052E+00 0.27572771E+03</pdfrwt>
<pdfrwt beam="2">  1       -2 0.90356148E-03 0.27572771E+03</pdfrwt>
<totfact> 0.36996837E+03</totfact>
</mgrwt>
</event>
<event>
 9    1  0.2054950E-002  0.2736071E+03  0.7818608E-02  0.1099233E+00
         -2   -1    0    0    0  501 -0.00000000000E+00  0.00000000000E+00  0.79840384771E+02  0.79840384771E+02  0.00000000000E+00 0.  1.
          2   -1    0    0  501    0  0.00000000000E+00 -0.00000000000E+00 -0.23440787843E+03  0.23440787843E+03  0.00000000000E+00 0.  1.
         36    2    1    2    0    0  0.00000000000E+00 -0.71054273576E-14 -0.15456749366E+03  0.31424826321E+03  0.27360712862E+03 0.  0.
         25    2    3    3    0    0 -0.41012062078E+02  0.30822419963E+02 -0.72615851213E+02  0.15615397863E+03  0.12837052772E+03 0.  0.
         25    2    3    3    0    0  0.41012062078E+02 -0.30822419963E+02 -0.81951642451E+02  0.15809428458E+03  0.12508285377E+03 0.  0.
          5    1    4    4  502    0  0.55665771714E+01 -0.25069931539E+02 -0.78772674679E+02  0.82986218885E+02  0.47000000000E+01 0.  1.
         -5    1    4    4    0  502 -0.46578639249E+02  0.55892351502E+02  0.61568234656E+01  0.73167759744E+02  0.47000000000E+01 0.  1.
          5    1    5    5  503    0  0.30086725358E+02 -0.53437157439E+02  0.10307292325E+02  0.62362417472E+02  0.47000000000E+01 0.  1.
         -5    1    5    5    0  503  0.10925336720E+02  0.22614737475E+02 -0.92258934776E+02  0.95731867105E+02  0.47000000000E+01 0.  1.
<mgrwt>
<rscale>  0 0.27360713E+03</rscale>
<asrwt>0</asrwt>
<pdfrwt beam="1">  1        2 0.36062750E-01 0.27360713E+03</pdfrwt>
<pdfrwt beam="2">  1       -2 0.12283136E-01 0.27360713E+03</pdfrwt>
<totfact> 0.67578250E+03</totfact>
</mgrwt>
</event>
<event>
 9    1  0.2054950E-002  0.2748567E+03  0.7818608E-02  0.1098532E+00
         -2   -1    0    0    0  501 -0.00000000000E+00  0.00000000000E+00  0.14412460810E+02  0.14412460810E+02  0.00000000000E+00 0. -1.
          2   -1    0    0  501    0  0.00000000000E+00 -0.00000000000E+00 -0.13104323155E+04  0.13104323155E+04  0.00000000000E+00 0. -1.
         36    2    1    2    0    0  0.00000000000E+00  0.71054273576E-14 -0.12960198547E+04  0.13248447763E+04  0.27485672189E+03 0.  0.
         25    2    3    3    0    0 -0.44939901487E+02  0.19933920370E+02 -0.79124047352E+03  0.80242446840E+03  0.12412326379E+03 0.  0.
         25    2    3    3    0    0  0.44939901487E+02 -0.19933920370E+02 -0.50477938119E+03  0.52242030794E+03  0.12531479778E+03 0.  0.
          5    1    4    4  502    0 -0.59134297010E+02 -0.40122137389E+02 -0.42509730960E+03  0.43108753592E+03  0.47000000000E+01 0. -1.
         -5    1    4    4    0  502  0.14194395523E+02  0.60056057759E+02 -0.36614316392E+03  0.37133693248E+03  0.47000000000E+01 0. -1.
          5    1    5    5  503    0  0.27890664240E+02 -0.62650632191E+01 -0.49830960070E+03  0.49915096746E+03  0.47000000000E+01 0. -1.
         -5    1    5    5    0  503  0.17049237247E+02 -0.13668857151E+02 -0.64697804900E+01  0.23269340474E+02  0.47000000000E+01 0. -1.
<mgrwt>
<rscale>  0 0.27485672E+03</rscale>
<asrwt>0</asrwt>
<pdfrwt beam="1">  1        2 0.20160491E+00 0.27485672E+03</pdfrwt>
<pdfrwt beam="2">  1       -2 0.22173023E-02 0.27485672E+03</pdfrwt>
<totfact> 0.11484935E+04</totfact>
</mgrwt>
</event>
<event>
 9    1  0.2054950E-002  0.2758372E+03  0.7818608E-02  0.1097985E+00
          2   -1    0    0  501    0  0.00000000000E+00  0.00000000000E+00  0.85717664516E+03  0.85717664516E+03  0.00000000000E+00 0. -1.
         -2   -1    0    0    0  501 -0.00000000000E+00 -0.00000000000E+00 -0.22190923807E+02  0.22190923807E+02  0.00000000000E+00 0. -1.
         36    2    1    2    0    0  0.35527136788E-14 -0.71054273576E-14  0.83498572135E+03  0.87936756897E+03  0.27583721012E+03 0.  0.
         25    2    3    3    0    0  0.24655133193E+02  0.38909238883E+02  0.29016634838E+03  0.31863573528E+03  0.12333052177E+03 0.  0.
         25    2    3    3    0    0 -0.24655133193E+02 -0.38909238883E+02  0.54481937297E+03  0.56073183369E+03  0.12437940218E+03 0.  0.
          5    1    4    4  502    0 -0.45156478958E+02  0.59130928370E+00  0.15669837330E+03  0.16314388568E+03  0.47000000000E+01 0. -1.
         -5    1    4    4    0  502  0.69811612151E+02  0.38317929599E+02  0.13346797508E+03  0.15549184960E+03  0.47000000000E+01 0. -1.
          5    1    5    5  503    0  0.20765990658E+02  0.35207730080E+02  0.11381754173E+03  0.12102616837E+03  0.47000000000E+01 0. -1.
         -5    1    5    5    0  503 -0.45421123851E+02 -0.74116968963E+02  0.43100183124E+03  0.43970566532E+03  0.47000000000E+01 0. -1.
<mgrwt>
<rscale>  0 0.27583721E+03</rscale>
<asrwt>0</asrwt>
<pdfrwt beam="1">  1        2 0.13187330E+00 0.27583721E+03</pdfrwt>
<pdfrwt beam="2">  1       -2 0.34139889E-02 0.27583721E+03</pdfrwt>
<totfact> 0.11280768E+04</totfact>
</mgrwt>
</event>
<event>
 9    1  0.2054950E-002  0.2743870E+03  0.7818608E-02  0.1098795E+00
          1   -1    0    0  501    0  0.00000000000E+00  0.00000000000E+00  0.17723443594E+03  0.17723443594E+03  0.00000000000E+00 0.  1.
         -1   -1    0    0    0  501 -0.00000000000E+00 -0.00000000000E+00 -0.10619863984E+03  0.10619863984E+03  0.00000000000E+00 0.  1.
         36    2    1    2    0    0  0.00000000000E+00  0.00000000000E+00  0.71035796092E+02  0.28343307578E+03  0.27438699699E+03 0.  0.
         25    2    3    3    0    0 -0.32264545747E+02  0.65196529928E+02  0.67776134515E+02  0.15919089466E+03  0.12432436650E+03 0.  0.
         25    2    3    3    0    0  0.32264545747E+02 -0.65196529928E+02  0.32596615767E+01  0.12424218112E+03  0.10066730229E+03 0.  0.
          5    1    4    4  502    0  0.19351947473E+02  0.80313262131E+02  0.15784347349E+02  0.84237483143E+02  0.47000000000E+01 0. -1.
         -5    1    4    4    0  502 -0.51616493220E+02 -0.15116732203E+02  0.51991787167E+02  0.74953411514E+02  0.47000000000E+01 0. -1.
          5    1    5    5  503    0 -0.96475320985E+01 -0.62822065578E+02 -0.30036762129E+02  0.70455545405E+02  0.47000000000E+01 0.  1.
         -5    1    5    5    0  503  0.41912077845E+02 -0.23744643506E+01  0.33296423706E+02  0.53786635718E+02  0.47000000000E+01 0.  1.
<mgrwt>
<rscale>  0 0.27438700E+03</rscale>
<asrwt>0</asrwt>
<pdfrwt beam="1">  1        1 0.27266836E-01 0.27438700E+03</pdfrwt>
<pdfrwt beam="2">  1       -1 0.16338252E-01 0.27438700E+03</pdfrwt>
<totfact> 0.47619598E+03</totfact>
</mgrwt>
</event>
<event>
 9    1  0.2054950E-002  0.2749815E+03  0.7818608E-02  0.1098462E+00
         -3   -1    0    0    0  501 -0.00000000000E+00  0.00000000000E+00  0.50584922471E+02  0.50584922471E+02  0.00000000000E+00 0.  1.
          3   -1    0    0  501    0  0.00000000000E+00 -0.00000000000E+00 -0.37370235967E+03  0.37370235967E+03  0.00000000000E+00 0.  1.
         36    2    1    2    0    0  0.00000000000E+00 -0.17763568394E-14 -0.32311743720E+03  0.42428728214E+03  0.27498148949E+03 0.  0.
         25    2    3    3    0    0  0.15166211110E+02 -0.44819071641E+01 -0.24776550048E+03  0.27742444786E+03  0.12380015990E+03 0.  0.
         25    2    3    3    0    0 -0.15166211110E+02  0.44819071641E+01 -0.75351936717E+02  0.14686283428E+03  0.12506268938E+03 0.  0.
          5    1    4    4  502    0 -0.16945442244E+02 -0.41420253663E+02 -0.21174159747E+03  0.21647027400E+03  0.47000000000E+01 0. -1.
         -5    1    4    4    0  502  0.32111653354E+02  0.36938346499E+02 -0.36023903012E+02  0.60954173864E+02  0.47000000000E+01 0. -1.
          5    1    5    5  503    0  0.47469389492E+01  0.48117908384E+01  0.34322348999E+02  0.35295897796E+02  0.47000000000E+01 0. -1.
         -5    1    5    5    0  503 -0.19913150059E+02 -0.32988367424E+00 -0.10967428572E+03  0.11156693648E+03  0.47000000000E+01 0. -1.
<mgrwt>
<rscale>  0 0.27498149E+03</rscale>
<asrwt>0</asrwt>
<pdfrwt beam="1">  1        3 0.57492672E-01 0.27498149E+03</pdfrwt>
<pdfrwt beam="2">  1       -3 0.77822956E-02 0.27498149E+03</pdfrwt>
<totfact> 0.85347116E+02</totfact>
</mgrwt>
</event>
<event>
 9    1  0.2054950E-002  0.2731230E+03  0.7818608E-02  0.1099505E+00
          2   -1    0    0  501    0  0.00000000000E+00  0.00000000000E+00  0.35994102888E+02  0.35994102888E+02  0.00000000000E+00 0. -1.
         -2   -1    0    0    0  501 -0.00000000000E+00 -0.00000000000E+00 -0.51811367531E+03  0.51811367531E+03  0.00000000000E+00 0. -1.
         36    2    1    2    0    0  0.00000000000E+00 -0.71054273576E-14 -0.48211957242E+03  0.55410777820E+03  0.27312295353E+03 0.  0.
         25    2    3    3    0    0 -0.38623822297E+02 -0.43027144298E+02 -0.27316169916E+03  0.30373939711E+03  0.11957078520E+03 0.  0.
         25    2    3    3    0    0  0.38623822297E+02  0.43027144298E+02 -0.20895787326E+03  0.25036838108E+03  0.12521101651E+03 0.  0.
          5    1    4    4  502    0 -0.27671653171E+02 -0.40820814115E+02 -0.28350789452E+03  0.28780353630E+03  0.47000000000E+01 0.  1.
         -5    1    4    4    0  502 -0.10952169126E+02 -0.22063301826E+01  0.10346195355E+02  0.15935860810E+02  0.47000000000E+01 0.  1.
          5    1    5    5  503    0  0.40074323880E+02 -0.90490571144E+01 -0.19044250122E+03  0.19488015071E+03  0.47000000000E+01 0.  1.
         -5    1    5    5    0  503 -0.14505015823E+01  0.52076201412E+02 -0.18515372035E+02  0.55488230373E+02  0.47000000000E+01 0.  1.
<mgrwt>
<rscale>  0 0.27312295E+03</rscale>
<asrwt>0</asrwt>
<pdfrwt beam="1">  1        2 0.55375539E-02 0.27312295E+03</pdfrwt>
<pdfrwt beam="2">  1       -2 0.79709801E-01 0.27312295E+03</pdfrwt>
<totfact> 0.19673674E+03</totfact>
</mgrwt>
</event>
<event>
 9    1  0.2054950E-002  0.2752440E+03  0.7818608E-02  0.1098315E+00
          2   -1    0    0  501    0  0.00000000000E+00  0.00000000000E+00  0.13972943149E+03  0.13972943149E+03  0.00000000000E+00 0.  1.
         -2   -1    0    0    0  501 -0.00000000000E+00 -0.00000000000E+00 -0.13554639353E+03  0.13554639353E+03  0.00000000000E+00 0.  1.
         36    2    1    2    0    0  0.00000000000E+00  0.10658141036E-13  0.41830379622E+01  0.27527582502E+03  0.27524404087E+03 0.  0.
         25    2    3    3    0    0 -0.35236780663E+02 -0.26218242687E+02  0.59897851899E+02  0.14403059253E+03  0.12340191231E+03 0.  0.
         25    2    3    3    0    0  0.35236780663E+02  0.26218242687E+02 -0.55714813937E+02  0.13124523249E+03  0.11041804019E+03 0.  0.
          5    1    4    4  502    0 -0.50692275053E+02 -0.67313541207E+02  0.25836103255E+02  0.88263320872E+02  0.47000000000E+01 0. -1.
         -5    1    4    4    0  502  0.15455494391E+02  0.41095298520E+02  0.34061748645E+02  0.55767271657E+02  0.47000000000E+01 0. -1.
          5    1    5    5  503    0  0.52231814502E+02  0.57144108784E+01 -0.79379400124E+02  0.95310000010E+02  0.47000000000E+01 0.  1.
         -5    1    5    5    0  503 -0.16995033839E+02  0.20503831809E+02  0.23664586187E+02  0.35935232481E+02  0.47000000000E+01 0.  1.
<mgrwt>
<rscale>  0 0.27524404E+03</rscale>
<asrwt>0</asrwt>
<pdfrwt beam="1">  1        2 0.21496836E-01 0.27524404E+03</pdfrwt>
<pdfrwt beam="2">  1       -2 0.20853291E-01 0.27524404E+03</pdfrwt>
<totfact> 0.49621365E+03</totfact>
</mgrwt>
</event>
<event>
 9    1  0.2054950E-002  0.2760265E+03  0.7818608E-02  0.1097879E+00
         -2   -1    0    0    0  501 -0.00000000000E+00  0.00000000000E+00  0.16202365551E+03  0.16202365551E+03  0.00000000000E+00 0. -1.
          2   -1    0    0  501    0  0.00000000000E+00 -0.00000000000E+00 -0.11756097930E+03  0.11756097930E+03  0.00000000000E+00 0. -1.
         36    2    1    2    0    0 -0.71054273576E-14  0.00000000000E+00  0.44462676205E+02  0.27958463481E+03  0.27602651765E+03 0.  0.
         25    2    3    3    0    0 -0.51137742528E+02 -0.18636455309E+02  0.19208574772E+02  0.13969269940E+03  0.12721122099E+03 0.  0.
         25    2    3    3    0    0  0.51137742528E+02  0.18636455309E+02  0.25254101433E+02  0.13989193540E+03  0.12637087391E+03 0.  0.
          5    1    4    4  502    0  0.18364070639E+02  0.25956131148E+02  0.42947379680E+02  0.53642588081E+02  0.47000000000E+01 0.  1.
         -5    1    4    4    0  502 -0.69501813167E+02 -0.44592586457E+02 -0.23738804908E+02  0.86050111324E+02  0.47000000000E+01 0.  1.
          5    1    5    5  503    0  0.40241238161E+01 -0.51274530508E+02  0.19693020917E+02  0.55273647647E+02  0.47000000000E+01 0. -1.
         -5    1    5    5    0  503  0.47113618712E+02  0.69910985817E+02  0.55610805159E+01  0.84618287755E+02  0.47000000000E+01 0. -1.
<mgrwt>
<rscale>  0 0.27602652E+03</rscale>
<asrwt>0</asrwt>
<pdfrwt beam="1">  1        2 0.18086305E-01 0.27602652E+03</pdfrwt>
<pdfrwt beam="2">  1       -2 0.24926716E-01 0.27602652E+03</pdfrwt>
<totfact> 0.44343658E+03</totfact>
</mgrwt>
</event>
<event>
 9    1  0.2054950E-002  0.2736624E+03  0.7818608E-02  0.1099202E+00
         -2   -1    0    0    0  501 -0.00000000000E+00  0.00000000000E+00  0.11374993895E+03  0.11374993895E+03  0.00000000000E+00 0. -1.
          2   -1    0    0  501    0  0.00000000000E+00 -0.00000000000E+00 -0.16459598756E+03  0.16459598756E+03  0.00000000000E+00 0. -1.
         36    2    1    2    0    0 -0.35527136788E-14  0.71054273576E-14 -0.50846048619E+02  0.27834592651E+03  0.27366244562E+03 0.  0.
         25    2    3    3    0    0  0.16279289049E+02 -0.22175309755E+02  0.23509942998E+02  0.13075887343E+03  0.12565192376E+03 0.  0.
         25    2    3    3    0    0 -0.16279289049E+02  0.22175309755E+02 -0.74355991617E+02  0.14758705308E+03  0.12448439715E+03 0.  0.
          5    1    4    4  502    0  0.48398791889E+02 -0.60851664952E+02  0.18158194440E+02  0.79982361862E+02  0.47000000000E+01 0. -1.
         -5    1    4    4    0  502 -0.32119502840E+02  0.38676355197E+02  0.53517485580E+01  0.50776511564E+02  0.47000000000E+01 0. -1.
          5    1    5    5  503    0 -0.41057965712E+02  0.26959100568E+02  0.17390522808E+02  0.52317013823E+02  0.47000000000E+01 0. -1.
         -5    1    5    5    0  503  0.24778676663E+02 -0.47837908128E+01 -0.91746514425E+02  0.95270039262E+02  0.47000000000E+01 0. -1.
<mgrwt>
<rscale>  0 0.27366245E+03</rscale>
<asrwt>0</asrwt>
<pdfrwt beam="1">  1        2 0.25322460E-01 0.27366245E+03</pdfrwt>
<pdfrwt beam="2">  1       -2 0.17499991E-01 0.27366245E+03</pdfrwt>
<totfact> 0.55586592E+03</totfact>
</mgrwt>
</event>
<event>
 9    1  0.2054950E-002  0.2758007E+03  0.7818608E-02  0.1098005E+00
          1   -1    0    0  501    0  0.00000000000E+00  0.00000000000E+00  0.17243975769E+03  0.17243975769E+03  0.00000000000E+00 0. -1.
         -1   -1    0    0    0  501 -0.00000000000E+00 -0.00000000000E+00 -0.11027915340E+03  0.11027915340E+03  0.00000000000E+00 0. -1.
         36    2    1    2    0    0  0.35527136788E-14  0.00000000000E+00  0.62160604295E+02  0.28271891109E+03  0.27580072872E+03 0.  0.
         25    2    3    3    0    0  0.28863562510E+02  0.18632461630E+01  0.92013748952E+02  0.15789785286E+03  0.12501449921E+03 0.  0.
         25    2    3    3    0    0 -0.28863562510E+02 -0.18632461630E+01 -0.29853144657E+02  0.12482105824E+03  0.11769668392E+03 0.  0.
          5    1    4    4  502    0 -0.31445823321E+02 -0.77812269704E+01 -0.13886671195E+02  0.35557234628E+02  0.47000000000E+01 0. -1.
         -5    1    4    4    0  502  0.60309385831E+02  0.96444731334E+01  0.10590042015E+03  0.12234061823E+03  0.47000000000E+01 0. -1.
          5    1    5    5  503    0 -0.40905208391E+02  0.53863915969E+01 -0.70353450630E+02  0.81694230540E+02  0.47000000000E+01 0.  1.
         -5    1    5    5    0  503  0.12041645881E+02 -0.72496377600E+01  0.40500305973E+02  0.43126827695E+02  0.47000000000E+01 0.  1.
<mgrwt>
<rscale>  0 0.27580073E+03</rscale>
<asrwt>0</asrwt>
<pdfrwt beam="1">  1        1 0.26529193E-01 0.27580073E+03</pdfrwt>
<pdfrwt beam="2">  1       -1 0.16966024E-01 0.27580073E+03</pdfrwt>
<totfact> 0.46426924E+03</totfact>
</mgrwt>
</event>
<event>
 9    1  0.2054950E-002  0.2747166E+03  0.7818608E-02  0.1098610E+00
          2   -1    0    0  501    0  0.00000000000E+00  0.00000000000E+00  0.19827481864E+04  0.19827481864E+04  0.00000000000E+00 0.  1.
         -2   -1    0    0    0  501 -0.00000000000E+00 -0.00000000000E+00 -0.95157318998E+01  0.95157318998E+01  0.00000000000E+00 0.  1.
         36    2    1    2    0    0  0.35527136788E-14 -0.71054273576E-14  0.19732324545E+04  0.19922639183E+04  0.27471658244E+03 0.  0.
         25    2    3    3    0    0  0.10480335280E+02 -0.57080954918E+02  0.93044450578E+03  0.94039289542E+03  0.12346556837E+03 0.  0.
         25    2    3    3    0    0 -0.10480335280E+02  0.57080954918E+02  0.10427879487E+04  0.10518710229E+04  0.12513141070E+03 0.  0.
          5    1    4    4  502    0 -0.22510011313E+02  0.21146970737E+02  0.82856103347E+02  0.88550092279E+02  0.47000000000E+01 0. -1.
         -5    1    4    4    0  502  0.32990346593E+02 -0.78227925655E+02  0.84758840244E+03  0.85184280314E+03  0.47000000000E+01 0. -1.
          5    1    5    5  503    0 -0.48246568726E+02  0.23132531112E+02  0.87146381795E+03  0.87311747284E+03  0.47000000000E+01 0.  1.
         -5    1    5    5    0  503  0.37766233446E+02  0.33948423806E+02  0.17132413079E+03  0.17875355006E+03  0.47000000000E+01 0.  1.
<mgrwt>
<rscale>  0 0.27471658E+03</rscale>
<asrwt>0</asrwt>
<pdfrwt beam="1">  1        2 0.30503785E+00 0.27471658E+03</pdfrwt>
<pdfrwt beam="2">  1       -2 0.14639603E-02 0.27471658E+03</pdfrwt>
<totfact> 0.92747796E+03</totfact>
</mgrwt>
</event>
<event>
 9    1  0.2054950E-002  0.2746665E+03  0.7818608E-02  0.1098638E+00
          2   -1    0    0  501    0  0.00000000000E+00  0.00000000000E+00  0.27362858377E+03  0.27362858377E+03  0.00000000000E+00 0.  1.
         -2   -1    0    0    0  501 -0.00000000000E+00 -0.00000000000E+00 -0.68927090070E+02  0.68927090070E+02  0.00000000000E+00 0.  1.
         36    2    1    2    0    0 -0.35527136788E-14 -0.71054273576E-14  0.20470149370E+03  0.34255567384E+03  0.27466650352E+03 0.  0.
         25    2    3    3    0    0  0.22719380854E+02  0.50741566616E+02  0.13617571795E+03  0.19115875092E+03  0.12209408277E+03 0.  0.
         25    2    3    3    0    0 -0.22719380854E+02 -0.50741566616E+02  0.68525775749E+02  0.15139692292E+03  0.12302182521E+03 0.  0.
          5    1    4    4  502    0  0.36217859790E+02 -0.21093360279E+02  0.71263193822E+01  0.42773094856E+02  0.47000000000E+01 0.  1.
         -5    1    4    4    0  502 -0.13498478936E+02  0.71834926895E+02  0.12904939857E+03  0.14838565607E+03  0.47000000000E+01 0.  1.
          5    1    5    5  503    0 -0.20539044133E+01  0.37835068481E+02  0.13116596690E+01  0.38203682825E+02  0.47000000000E+01 0.  1.
         -5    1    5    5    0  503 -0.20665476441E+02 -0.88576635098E+02  0.67214116080E+02  0.11319324009E+03  0.47000000000E+01 0.  1.
<mgrwt>
<rscale>  0 0.27466650E+03</rscale>
<asrwt>0</asrwt>
<pdfrwt beam="1">  1        2 0.42096705E-01 0.27466650E+03</pdfrwt>
<pdfrwt beam="2">  1       -2 0.10604168E-01 0.27466650E+03</pdfrwt>
<totfact> 0.72431597E+03</totfact>
</mgrwt>
</event>
<event>
 9    1  0.2054950E-002  0.2739516E+03  0.7818608E-02  0.1099039E+00
         -4   -1    0    0    0  501 -0.00000000000E+00  0.00000000000E+00  0.54268912174E+02  0.54268912174E+02  0.00000000000E+00 0. -1.
          4   -1    0    0  501    0  0.00000000000E+00 -0.00000000000E+00 -0.34572968227E+03  0.34572968227E+03  0.00000000000E+00 0. -1.
         36    2    1    2    0    0  0.00000000000E+00 -0.71054273576E-14 -0.29146077010E+03  0.39999859445E+03  0.27395162904E+03 0.  0.
         25    2    3    3    0    0  0.90710161239E+01 -0.48440525234E+02 -0.17014520132E+03  0.21816840308E+03  0.12735499500E+03 0.  0.
         25    2    3    3    0    0 -0.90710161239E+01  0.48440525234E+02 -0.12131556878E+03  0.18183019137E+03  0.12615856470E+03 0.  0.
          5    1    4    4  502    0  0.48472105163E+01  0.31572342427E+02 -0.26001103739E+01  0.32390721358E+02  0.47000000000E+01 0.  1.
         -5    1    4    4    0  502  0.42238056076E+01 -0.80012867661E+02 -0.16754509095E+03  0.18577768172E+03  0.47000000000E+01 0.  1.
          5    1    5    5  503    0  0.26829982866E+02  0.45902293176E+02  0.18702431801E+01  0.53408391747E+02  0.47000000000E+01 0. -1.
         -5    1    5    5    0  503 -0.35900998990E+02  0.25382320578E+01 -0.12318581196E+03  0.12842179962E+03  0.47000000000E+01 0. -1.
<mgrwt>
<rscale>  0 0.27395163E+03</rscale>
<asrwt>0</asrwt>
<pdfrwt beam="1">  1        4 0.53189182E-01 0.27395163E+03</pdfrwt>
<pdfrwt beam="2">  1       -4 0.83490635E-02 0.27395163E+03</pdfrwt>
<totfact> 0.65769134E+02</totfact>
</mgrwt>
</event>
<event>
 9    1  0.2054950E-002  0.2757408E+03  0.7818608E-02  0.1098038E+00
         -3   -1    0    0    0  501 -0.00000000000E+00  0.00000000000E+00  0.17254503035E+02  0.17254503035E+02  0.00000000000E+00 0. -1.
          3   -1    0    0  501    0  0.00000000000E+00 -0.00000000000E+00 -0.11016399296E+04  0.11016399296E+04  0.00000000000E+00 0. -1.
         36    2    1    2    0    0  0.00000000000E+00  0.35527136788E-14 -0.10843854266E+04  0.11188944327E+04  0.27574081678E+03 0.  0.
         25    2    3    3    0    0  0.15038269258E+02  0.18413496750E+02 -0.76020407800E+03  0.77063145422E+03  0.12408622650E+03 0.  0.
         25    2    3    3    0    0 -0.15038269258E+02 -0.18413496750E+02 -0.32418134858E+03  0.34826297844E+03  0.12501339520E+03 0.  0.
          5    1    4    4  502    0  0.62312067340E+02 -0.17516974215E+02 -0.46209277841E+03  0.46662775741E+03  0.47000000000E+01 0.  1.
         -5    1    4    4    0  502 -0.47273798082E+02  0.35930470965E+02 -0.29811129959E+03  0.30400369681E+03  0.47000000000E+01 0.  1.
          5    1    5    5  503    0  0.28183216581E+02  0.42873393779E+02 -0.11568290783E+03  0.12663746189E+03  0.47000000000E+01 0. -1.
         -5    1    5    5    0  503 -0.43221485838E+02 -0.61286890529E+02 -0.20849844076E+03  0.22162551655E+03  0.47000000000E+01 0. -1.
<mgrwt>
<rscale>  0 0.27574082E+03</rscale>
<asrwt>0</asrwt>
<pdfrwt beam="1">  1        3 0.16948305E+00 0.27574082E+03</pdfrwt>
<pdfrwt beam="2">  1       -3 0.26545391E-02 0.27574082E+03</pdfrwt>
<totfact> 0.39185442E+02</totfact>
</mgrwt>
</event>
<event>
 9    1  0.2054950E-002  0.2748629E+03  0.7818608E-02  0.1098528E+00
         -2   -1    0    0    0  501 -0.00000000000E+00  0.00000000000E+00  0.37104119958E+02  0.37104119958E+02  0.00000000000E+00 0.  1.
          2   -1    0    0  501    0  0.00000000000E+00 -0.00000000000E+00 -0.50903779312E+03  0.50903779312E+03  0.00000000000E+00 0.  1.
         36    2    1    2    0    0 -0.14210854715E-13  0.00000000000E+00 -0.47193367316E+03  0.54614191307E+03  0.27486287009E+03 0.  0.
         25    2    3    3    0    0  0.34096757778E+02 -0.11134759709E+02 -0.33141223047E+03  0.35624793553E+03  0.12566603876E+03 0.  0.
         25    2    3    3    0    0 -0.34096757778E+02  0.11134759709E+02 -0.14052144268E+03  0.18989397754E+03  0.12258415513E+03 0.  0.
          5    1    4    4  502    0  0.23183055635E+02 -0.34969587967E+02 -0.25800819575E+02  0.49478262317E+02  0.47000000000E+01 0. -1.
         -5    1    4    4    0  502  0.10913702142E+02  0.23834828257E+02 -0.30561141090E+03  0.30676967322E+03  0.47000000000E+01 0. -1.
          5    1    5    5  503    0  0.41652160421E+02 -0.17903732674E+02 -0.61475831497E+02  0.76529824054E+02  0.47000000000E+01 0.  1.
         -5    1    5    5    0  503 -0.75748918199E+02  0.29038492383E+02 -0.79045611186E+02  0.11336415349E+03  0.47000000000E+01 0.  1.
<mgrwt>
<rscale>  0 0.27486287E+03</rscale>
<asrwt>0</asrwt>
<pdfrwt beam="1">  1        2 0.78313504E-01 0.27486287E+03</pdfrwt>
<pdfrwt beam="2">  1       -2 0.57083263E-02 0.27486287E+03</pdfrwt>
<totfact> 0.96932515E+03</totfact>
</mgrwt>
</event>
<event>
 9    1  0.2054950E-002  0.2753917E+03  0.7818608E-02  0.1098233E+00
          1   -1    0    0  501    0  0.00000000000E+00  0.00000000000E+00  0.12918698549E+04  0.12918698549E+04  0.00000000000E+00 0. -1.
         -1   -1    0    0    0  501 -0.00000000000E+00 -0.00000000000E+00 -0.14676518379E+02  0.14676518379E+02  0.00000000000E+00 0. -1.
         36    2    1    2    0    0  0.35527136788E-14 -0.71054273576E-14  0.12771933365E+04  0.13065463732E+04  0.27539173312E+03 0.  0.
         25    2    3    3    0    0  0.72446103672E+01 -0.57382067431E+02  0.67607424734E+03  0.69013682878E+03  0.12596534635E+03 0.  0.
         25    2    3    3    0    0 -0.72446103672E+01  0.57382067431E+02  0.60111908913E+03  0.61640954445E+03  0.12357742968E+03 0.  0.
          5    1    4    4  502    0 -0.46573211525E+02 -0.26046127639E+02  0.50831279056E+03  0.51112762383E+03  0.47000000000E+01 0.  1.
         -5    1    4    4    0  502  0.53817821893E+02 -0.31335939792E+02  0.16776145679E+03  0.17900920496E+03  0.47000000000E+01 0.  1.
          5    1    5    5  503    0  0.18836229985E+02  0.90574756617E+02  0.36994817867E+03  0.38136902732E+03  0.47000000000E+01 0.  1.
         -5    1    5    5    0  503 -0.26080840352E+02 -0.33192689186E+02  0.23117091046E+03  0.23504051712E+03  0.47000000000E+01 0.  1.
<mgrwt>
<rscale>  0 0.27539173E+03</rscale>
<asrwt>0</asrwt>
<pdfrwt beam="1">  1        1 0.19874912E+00 0.27539173E+03</pdfrwt>
<pdfrwt beam="2">  1       -1 0.22579269E-02 0.27539173E+03</pdfrwt>
<totfact> 0.56722081E+03</totfact>
</mgrwt>
</event>
<event>
 9    1  0.2054950E-002  0.2759065E+03  0.7818608E-02  0.1097946E+00
          1   -1    0    0  501    0  0.00000000000E+00  0.00000000000E+00  0.35880550953E+03  0.35880550953E+03  0.00000000000E+00 0.  1.
         -1   -1    0    0    0  501 -0.00000000000E+00 -0.00000000000E+00 -0.53040165888E+02  0.53040165888E+02  0.00000000000E+00 0.  1.
         36    2    1    2    0    0  0.00000000000E+00  0.71054273576E-14  0.30576534364E+03  0.41184567541E+03  0.27590653306E+03 0.  0.
         25    2    3    3    0    0 -0.26978844856E+02  0.27381796603E+02  0.10931471224E+03  0.17545805300E+03  0.13175052637E+03 0.  0.
         25    2    3    3    0    0  0.26978844856E+02 -0.27381796603E+02  0.19645063140E+03  0.23638762241E+03  0.12573240074E+03 0.  0.
          5    1    4    4  502    0 -0.75157553906E+00  0.65566250134E+02  0.11084296406E+03  0.12887106232E+03  0.47000000000E+01 0. -1.
         -5    1    4    4    0  502 -0.26227269317E+02 -0.38184453530E+02 -0.15282518227E+01  0.46586990683E+02  0.47000000000E+01 0. -1.
          5    1    5    5  503    0 -0.24019851189E+02 -0.58846563868E+02  0.14045368485E+03  0.15423747572E+03  0.47000000000E+01 0.  1.
         -5    1    5    5    0  503  0.50998696045E+02  0.31464767265E+02  0.55996946553E+02  0.82150146687E+02  0.47000000000E+01 0.  1.
<mgrwt>
<rscale>  0 0.27590653E+03</rscale>
<asrwt>0</asrwt>
<pdfrwt beam="1">  1        1 0.55200846E-01 0.27590653E+03</pdfrwt>
<pdfrwt beam="2">  1       -1 0.81600258E-02 0.27590653E+03</pdfrwt>
<totfact> 0.57870621E+03</totfact>
</mgrwt>
</event>
<event>
 9    1  0.2054950E-002  0.2756571E+03  0.7818608E-02  0.1098085E+00
         -4   -1    0    0    0  501 -0.00000000000E+00  0.00000000000E+00  0.13815542855E+03  0.13815542855E+03  0.00000000000E+00 0.  1.
          4   -1    0    0  501    0  0.00000000000E+00 -0.00000000000E+00 -0.13750242443E+03  0.13750242443E+03  0.00000000000E+00 0.  1.
         36    2    1    2    0    0  0.00000000000E+00  0.35527136788E-14  0.65300412394E+00  0.27565785298E+03  0.27565707953E+03 0.  0.
         25    2    3    3    0    0  0.50287001555E+02 -0.18673268762E+02  0.47752778639E+01  0.13681493147E+03  0.12576982429E+03 0.  0.
         25    2    3    3    0    0 -0.50287001555E+02  0.18673268762E+02 -0.41222737399E+01  0.13884292152E+03  0.12799566486E+03 0.  0.
          5    1    4    4  502    0  0.91448853244E+02 -0.21903122275E+02 -0.44136011008E+01  0.94256084152E+02  0.47000000000E+01 0. -1.
         -5    1    4    4    0  502 -0.41161851688E+02  0.32298535127E+01  0.91888789647E+01  0.42558847315E+02  0.47000000000E+01 0. -1.
          5    1    5    5  503    0  0.12334080479E+02 -0.40500387223E+02  0.22982409249E+02  0.48401364044E+02  0.47000000000E+01 0.  1.
         -5    1    5    5    0  503 -0.62621082034E+02  0.59173655985E+02 -0.27104682989E+02  0.90441557471E+02  0.47000000000E+01 0.  1.
<mgrwt>
<rscale>  0 0.27565708E+03</rscale>
<asrwt>0</asrwt>
<pdfrwt beam="1">  1        4 0.21154219E-01 0.27565708E+03</pdfrwt>
<pdfrwt beam="2">  1       -4 0.21254681E-01 0.27565708E+03</pdfrwt>
<totfact> 0.77212957E+02</totfact>
</mgrwt>
</event>
<event>
 9    1  0.2054950E-002  0.2736284E+03  0.7818608E-02  0.1099221E+00
         -4   -1    0    0    0  501 -0.00000000000E+00  0.00000000000E+00  0.50182900404E+02  0.50182900404E+02  0.00000000000E+00 0.  1.
          4   -1    0    0  501    0  0.00000000000E+00 -0.00000000000E+00 -0.37299810109E+03  0.37299810109E+03  0.00000000000E+00 0.  1.
         36    2    1    2    0    0 -0.71054273576E-14  0.71054273576E-14 -0.32281520069E+03  0.42318100150E+03  0.27362840904E+03 0.  0.
         25    2    3    3    0    0  0.41131565974E+02 -0.36343837448E+02 -0.13847156565E+03  0.19487495133E+03  0.12565505131E+03 0.  0.
         25    2    3    3    0    0 -0.41131565974E+02  0.36343837448E+02 -0.18434363504E+03  0.22830605017E+03  0.12299754683E+03 0.  0.
          5    1    4    4  502    0 -0.28546038398E+01 -0.40546459013E+02  0.81034856677E+01  0.41712355263E+02  0.47000000000E+01 0.  1.
         -5    1    4    4    0  502  0.43986169814E+02  0.42026215654E+01 -0.14657505132E+03  0.15316259606E+03  0.47000000000E+01 0.  1.
          5    1    5    5  503    0  0.38719426226E+02 -0.26067363198E+01 -0.92576556203E+02  0.10049128221E+03  0.47000000000E+01 0. -1.
         -5    1    5    5    0  503 -0.79850992200E+02  0.38950573768E+02 -0.91767078834E+02  0.12781476796E+03  0.47000000000E+01 0. -1.
<mgrwt>
<rscale>  0 0.27362841E+03</rscale>
<asrwt>0</asrwt>
<pdfrwt beam="1">  1        4 0.57384325E-01 0.27362841E+03</pdfrwt>
<pdfrwt beam="2">  1       -4 0.77204460E-02 0.27362841E+03</pdfrwt>
<totfact> 0.63947215E+02</totfact>
</mgrwt>
</event>
<event>
 9    1  0.2054950E-002  0.2756276E+03  0.7818608E-02  0.1098101E+00
          1   -1    0    0  501    0  0.00000000000E+00  0.00000000000E+00  0.84792755028E+03  0.84792755028E+03  0.00000000000E+00 0. -1.
         -1   -1    0    0    0  501 -0.00000000000E+00 -0.00000000000E+00 -0.22398898474E+02  0.22398898474E+02  0.00000000000E+00 0. -1.
         36    2    1    2    0    0 -0.10658141036E-13  0.00000000000E+00  0.82552865181E+03  0.87032644876E+03  0.27562759740E+03 0.  0.
         25    2    3    3    0    0  0.23103264345E+02 -0.82247067056E+00  0.58485787461E+03  0.59827791823E+03  0.12386806154E+03 0.  0.
         25    2    3    3    0    0 -0.23103264345E+02  0.82247067056E+00  0.24067077720E+03  0.27204853053E+03  0.12471384319E+03 0.  0.
          5    1    4    4  502    0  0.66230037391E+02 -0.30882953264E+02  0.33933081743E+03  0.34714214425E+03  0.47000000000E+01 0.  1.
         -5    1    4    4    0  502 -0.43126773046E+02  0.30060482593E+02  0.24552705718E+03  0.25113577398E+03  0.47000000000E+01 0.  1.
          5    1    5    5  503    0  0.18158214763E+02 -0.24243100092E+02  0.45390622903E+01  0.30986154197E+02  0.47000000000E+01 0.  1.
         -5    1    5    5    0  503 -0.41261479107E+02  0.25065570762E+02  0.23613171491E+03  0.24106237633E+03  0.47000000000E+01 0.  1.
<mgrwt>
<rscale>  0 0.27562760E+03</rscale>
<asrwt>0</asrwt>
<pdfrwt beam="1">  1        1 0.13045037E+00 0.27562760E+03</pdfrwt>
<pdfrwt beam="2">  1       -1 0.34459850E-02 0.27562760E+03</pdfrwt>
<totfact> 0.64478919E+03</totfact>
</mgrwt>
</event>
<event>
 9    1  0.2054950E-002  0.2748029E+03  0.7818608E-02  0.1098562E+00
          2   -1    0    0  501    0  0.00000000000E+00  0.00000000000E+00  0.55781366532E+03  0.55781366532E+03  0.00000000000E+00 0.  1.
         -2   -1    0    0    0  501 -0.00000000000E+00 -0.00000000000E+00 -0.33844920204E+02  0.33844920204E+02  0.00000000000E+00 0.  1.
         36    2    1    2    0    0 -0.17763568394E-14  0.14210854715E-13  0.52396874512E+03  0.59165858553E+03  0.27480290385E+03 0.  0.
         25    2    3    3    0    0  0.27719141192E+01  0.43473843957E+02  0.35176597742E+03  0.37473420534E+03  0.12160905873E+03 0.  0.
         25    2    3    3    0    0 -0.27719141192E+01 -0.43473843957E+02  0.17220276770E+03  0.21692438019E+03  0.12451801034E+03 0.  0.
          5    1    4    4  502    0 -0.29451291515E+02 -0.23925239391E+02  0.45394533645E+02  0.59351068538E+02  0.47000000000E+01 0.  1.
         -5    1    4    4    0  502  0.32223205634E+02  0.67399083348E+02  0.30637144377E+03  0.31538313680E+03  0.47000000000E+01 0.  1.
          5    1    5    5  503    0  0.10799255503E+02 -0.43013029759E+02  0.18936236349E+03  0.19454289850E+03  0.47000000000E+01 0. -1.
         -5    1    5    5    0  503 -0.13571169622E+02 -0.46081419815E+00 -0.17159595796E+02  0.22381481687E+02  0.47000000000E+01 0. -1.
<mgrwt>
<rscale>  0 0.27480290E+03</rscale>
<asrwt>0</asrwt>
<pdfrwt beam="1">  1        2 0.85817480E-01 0.27480290E+03</pdfrwt>
<pdfrwt beam="2">  1       -2 0.52069112E-02 0.27480290E+03</pdfrwt>
<totfact> 0.10056081E+04</totfact>
</mgrwt>
</event>
<event>
 9    1  0.2054950E-002  0.2747319E+03  0.7818608E-02  0.1098602E+00
         -1   -1    0    0    0  501 -0.00000000000E+00  0.00000000000E+00  0.23502639510E+02  0.23502639510E+02  0.00000000000E+00 0. -1.
          1   -1    0    0  501    0  0.00000000000E+00 -0.00000000000E+00 -0.80286330023E+03  0.80286330023E+03  0.00000000000E+00 0. -1.
         36    2    1    2    0    0 -0.71054273576E-14 -0.10658141036E-13 -0.77936066072E+03  0.82636593974E+03  0.27473191821E+03 0.  0.
         25    2    3    3    0    0 -0.57094009280E+02 -0.16347025382E+02 -0.34739570999E+03  0.37270050628E+03  0.12122267498E+03 0.  0.
         25    2    3    3    0    0  0.57094009280E+02  0.16347025382E+02 -0.43196495074E+03  0.45366543346E+03  0.12526633913E+03 0.  0.
          5    1    4    4  502    0 -0.38485613799E+02  0.51331263946E+02 -0.15329932161E+03  0.16624925002E+03  0.47000000000E+01 0.  1.
         -5    1    4    4    0  502 -0.18608395481E+02 -0.67678289328E+02 -0.19409638838E+03  0.20645125626E+03  0.47000000000E+01 0.  1.
          5    1    5    5  503    0  0.86317914347E+02 -0.17499727351E+02 -0.34061855917E+03  0.35185240605E+03  0.47000000000E+01 0.  1.
         -5    1    5    5    0  503 -0.29223905067E+02  0.33846752733E+02 -0.91346391569E+02  0.10181302741E+03  0.47000000000E+01 0.  1.
<mgrwt>
<rscale>  0 0.27473192E+03</rscale>
<asrwt>0</asrwt>
<pdfrwt beam="1">  1        1 0.12351741E+00 0.27473192E+03</pdfrwt>
<pdfrwt beam="2">  1       -1 0.36157913E-02 0.27473192E+03</pdfrwt>
<totfact> 0.65382425E+03</totfact>
</mgrwt>
</event>
<event>
 9    1  0.2054950E-002  0.2750557E+03  0.7818608E-02  0.1098420E+00
         -2   -1    0    0    0  501 -0.00000000000E+00  0.00000000000E+00  0.61044067735E+02  0.61044067735E+02  0.00000000000E+00 0. -1.
          2   -1    0    0  501    0  0.00000000000E+00 -0.00000000000E+00 -0.30984019524E+03  0.30984019524E+03  0.00000000000E+00 0. -1.
         36    2    1    2    0    0  0.00000000000E+00  0.71054273576E-14 -0.24879612750E+03  0.37088426297E+03  0.27505567338E+03 0.  0.
         25    2    3    3    0    0 -0.49887814971E+02 -0.25427261593E+02 -0.15363067518E+03  0.20405549003E+03  0.12206932023E+03 0.  0.
         25    2    3    3    0    0  0.49887814971E+02  0.25427261593E+02 -0.95165452320E+02  0.16682877294E+03  0.12506013134E+03 0.  0.
          5    1    4    4  502    0  0.37121161297E+02 -0.18946316919E+02 -0.25883729616E+02  0.49284896263E+02  0.47000000000E+01 0. -1.
         -5    1    4    4    0  502 -0.87008976268E+02 -0.64809446736E+01 -0.12774694557E+03  0.15477059377E+03  0.47000000000E+01 0. -1.
          5    1    5    5  503    0  0.51119453994E+02  0.71886293216E+02 -0.75278176754E+02  0.11605917294E+03  0.47000000000E+01 0. -1.
         -5    1    5    5    0  503 -0.12316390232E+01 -0.46459031623E+02 -0.19887275566E+02  0.50769599994E+02  0.47000000000E+01 0. -1.
<mgrwt>
<rscale>  0 0.27505567E+03</rscale>
<asrwt>0</asrwt>
<pdfrwt beam="1">  1        2 0.47667722E-01 0.27505567E+03</pdfrwt>
<pdfrwt beam="2">  1       -2 0.93913951E-02 0.27505567E+03</pdfrwt>
<totfact> 0.76863781E+03</totfact>
</mgrwt>
</event>
<event>
 9    1  0.2054950E-002  0.2731704E+03  0.7818608E-02  0.1099479E+00
          2   -1    0    0  501    0  0.00000000000E+00  0.00000000000E+00  0.26347765763E+03  0.26347765763E+03  0.00000000000E+00 0.  1.
         -2   -1    0    0    0  501 -0.00000000000E+00 -0.00000000000E+00 -0.70804904601E+02  0.70804904601E+02  0.00000000000E+00 0.  1.
         36    2    1    2    0    0 -0.71054273576E-14  0.35527136788E-14  0.19267275303E+03  0.33428256223E+03  0.27317035280E+03 0.  0.
         25    2    3    3    0    0 -0.40179656148E+02  0.27859615726E+02  0.97391423676E+02  0.17233381437E+03  0.13350389962E+03 0.  0.
         25    2    3    3    0    0  0.40179656148E+02 -0.27859615726E+02  0.95281329350E+02  0.16194874786E+03  0.12148375304E+03 0.  0.
          5    1    4    4  502    0 -0.40179215796E+02  0.35071017161E+02  0.12894975421E+03  0.13962261542E+03  0.47000000000E+01 0. -1.
         -5    1    4    4    0  502 -0.44035164506E-03 -0.72114014354E+01 -0.31558330531E+02  0.32711198951E+02  0.47000000000E+01 0. -1.
          5    1    5    5  503    0  0.35472265563E+01  0.30025503479E+02 -0.13392677736E+02  0.33400112161E+02  0.47000000000E+01 0. -1.
         -5    1    5    5    0  503  0.36632429592E+02 -0.57885119205E+02  0.10867400709E+03  0.12854863570E+03  0.47000000000E+01 0. -1.
<mgrwt>
<rscale>  0 0.27317035E+03</rscale>
<asrwt>0</asrwt>
<pdfrwt beam="1">  1        2 0.40535024E-01 0.27317035E+03</pdfrwt>
<pdfrwt beam="2">  1       -2 0.10893062E-01 0.27317035E+03</pdfrwt>
<totfact> 0.72251536E+03</totfact>
</mgrwt>
</event>
<event>
 9    1  0.2054950E-002  0.2734824E+03  0.7818608E-02  0.1099303E+00
         -3   -1    0    0    0  501 -0.00000000000E+00  0.00000000000E+00  0.78096974008E+03  0.78096974008E+03  0.00000000000E+00 0.  1.
          3   -1    0    0  501    0  0.00000000000E+00 -0.00000000000E+00 -0.23942222774E+02  0.23942222774E+02  0.00000000000E+00 0.  1.
         36    2    1    2    0    0 -0.71054273576E-14  0.00000000000E+00  0.75702751730E+03  0.80491196285E+03  0.27348236870E+03 0.  0.
         25    2    3    3    0    0 -0.29808290230E+02  0.40832953514E+02  0.44074721684E+03  0.46044164928E+03  0.12325801790E+03 0.  0.
         25    2    3    3    0    0  0.29808290230E+02 -0.40832953514E+02  0.31628030046E+03  0.34447031357E+03  0.12677028128E+03 0.  0.
          5    1    4    4  502    0  0.13421059937E+02 -0.10511437173E+02  0.34731129359E+01  0.18021311682E+02  0.47000000000E+01 0.  1.
         -5    1    4    4    0  502 -0.43229350166E+02  0.51344390687E+02  0.43727410391E+03  0.44242033760E+03  0.47000000000E+01 0.  1.
          5    1    5    5  503    0 -0.15842805885E+02  0.31116520098E+02  0.18190989017E+03  0.18529039496E+03  0.47000000000E+01 0.  1.
         -5    1    5    5    0  503  0.45651096115E+02 -0.71949473612E+02  0.13437041029E+03  0.15917991861E+03  0.47000000000E+01 0.  1.
<mgrwt>
<rscale>  0 0.27348237E+03</rscale>
<asrwt>0</asrwt>
<pdfrwt beam="1">  1        3 0.36834195E-02 0.27348237E+03</pdfrwt>
<pdfrwt beam="2">  1       -3 0.12014917E+00 0.27348237E+03</pdfrwt>
<totfact> 0.55228702E+02</totfact>
</mgrwt>
</event>
<event>
 9    1  0.2054950E-002  0.2751765E+03  0.7818608E-02  0.1098353E+00
         -3   -1    0    0    0  501 -0.00000000000E+00  0.00000000000E+00  0.16043690556E+02  0.16043690556E+02  0.00000000000E+00 0.  1.
          3   -1    0    0  501    0  0.00000000000E+00 -0.00000000000E+00 -0.11799356355E+04  0.11799356355E+04  0.00000000000E+00 0.  1.
         36    2    1    2    0    0 -0.71054273576E-14 -0.71054273576E-14 -0.11638919449E+04  0.11959793260E+04  0.27517646855E+03 0.  0.
         25    2    3    3    0    0  0.13437353828E+02  0.49578115607E+02 -0.67902473898E+03  0.69298717739E+03  0.12852268225E+03 0.  0.
         25    2    3    3    0    0 -0.13437353828E+02 -0.49578115607E+02 -0.48486720592E+03  0.50299214862E+03  0.12355704016E+03 0.  0.
          5    1    4    4  502    0  0.39078655942E+02  0.76068238466E+02 -0.59469387695E+03  0.60082977251E+03  0.47000000000E+01 0. -1.
         -5    1    4    4    0  502 -0.25641302114E+02 -0.26490122859E+02 -0.84330862031E+02  0.92157404879E+02  0.47000000000E+01 0. -1.
          5    1    5    5  503    0 -0.61852870739E+02  0.27627506259E+01 -0.20980814843E+03  0.21880347245E+03  0.47000000000E+01 0.  1.
         -5    1    5    5    0  503  0.48415516911E+02 -0.52340866233E+02 -0.27505905749E+03  0.28418867617E+03  0.47000000000E+01 0.  1.
<mgrwt>
<rscale>  0 0.27517647E+03</rscale>
<asrwt>0</asrwt>
<pdfrwt beam="1">  1        3 0.18152853E+00 0.27517647E+03</pdfrwt>
<pdfrwt beam="2">  1       -3 0.24682604E-02 0.27517647E+03</pdfrwt>
<totfact> 0.36538704E+02</totfact>
</mgrwt>
</event>
<event>
 9    1  0.2054950E-002  0.2705386E+03  0.7818608E-02  0.1100972E+00
         -2   -1    0    0    0  501 -0.00000000000E+00  0.00000000000E+00  0.46388525211E+02  0.46388525211E+02  0.00000000000E+00 0.  1.
          2   -1    0    0  501    0  0.00000000000E+00 -0.00000000000E+00 -0.39444639260E+03  0.39444639260E+03  0.00000000000E+00 0.  1.
         36    2    1    2    0    0 -0.17763568394E-14 -0.71054273576E-14 -0.34805786739E+03  0.44083491781E+03  0.27053862148E+03 0.  0.
         25    2    3    3    0    0 -0.41586066182E+01  0.39035007835E+02 -0.11938577173E+03  0.17718260894E+03  0.12489871325E+03 0.  0.
         25    2    3    3    0    0  0.41586066182E+01 -0.39035007835E+02 -0.22867209566E+03  0.26365230888E+03  0.12522214979E+03 0.  0.
          5    1    4    4  502    0  0.17446572674E+02 -0.71039167294E+01 -0.12427861010E+03  0.12578597481E+03  0.47000000000E+01 0.  1.
         -5    1    4    4    0  502 -0.21605179292E+02  0.46138924564E+02  0.48928383674E+01  0.51396634126E+02  0.47000000000E+01 0.  1.
          5    1    5    5  503    0  0.33134293122E+01 -0.70003999929E+02 -0.60856290794E+02  0.92936090670E+02  0.47000000000E+01 0.  1.
         -5    1    5    5    0  503  0.84517730607E+00  0.30968992094E+02 -0.16781580487E+03  0.17071621821E+03  0.47000000000E+01 0.  1.
<mgrwt>
<rscale>  0 0.27053862E+03</rscale>
<asrwt>0</asrwt>
<pdfrwt beam="1">  1        2 0.60684059E-01 0.27053862E+03</pdfrwt>
<pdfrwt beam="2">  1       -2 0.71366964E-02 0.27053862E+03</pdfrwt>
<totfact> 0.90961870E+03</totfact>
</mgrwt>
</event>
<event>
 9    1  0.2054950E-002  0.2751478E+03  0.7818608E-02  0.1098369E+00
         -2   -1    0    0    0  501 -0.00000000000E+00  0.00000000000E+00  0.52591593705E+02  0.52591593705E+02  0.00000000000E+00 0.  1.
          2   -1    0    0  501    0  0.00000000000E+00 -0.00000000000E+00 -0.35987827931E+03  0.35987827931E+03  0.00000000000E+00 0.  1.
         36    2    1    2    0    0  0.00000000000E+00  0.00000000000E+00 -0.30728668561E+03  0.41246987302E+03  0.27514775848E+03 0.  0.
         25    2    3    3    0    0 -0.52104908982E+02 -0.32529049188E+02 -0.13732373320E+03  0.19259255270E+03  0.12025399400E+03 0.  0.
         25    2    3    3    0    0  0.52104908982E+02  0.32529049188E+02 -0.16996295241E+03  0.21987732032E+03  0.12524204653E+03 0.  0.
          5    1    4    4  502    0  0.17556935442E+02 -0.40118824672E+02 -0.70651595657E+01  0.44606866679E+02  0.47000000000E+01 0.  1.
         -5    1    4    4    0  502 -0.69661844425E+02  0.75897754841E+01 -0.13025857364E+03  0.14798568602E+03  0.47000000000E+01 0.  1.
          5    1    5    5  503    0  0.24547048559E+02  0.31003944912E+02  0.72401947462E+01  0.40476074575E+02  0.47000000000E+01 0. -1.
         -5    1    5    5    0  503  0.27557860424E+02  0.15251042764E+01 -0.17720314715E+03  0.17940124574E+03  0.47000000000E+01 0. -1.
<mgrwt>
<rscale>  0 0.27514776E+03</rscale>
<asrwt>0</asrwt>
<pdfrwt beam="1">  1        2 0.55365890E-01 0.27514776E+03</pdfrwt>
<pdfrwt beam="2">  1       -2 0.80910143E-02 0.27514776E+03</pdfrwt>
<totfact> 0.82683977E+03</totfact>
</mgrwt>
</event>
<event>
 9    1  0.2054950E-002  0.2779087E+03  0.7818608E-02  0.1096837E+00
         -1   -1    0    0    0  501 -0.00000000000E+00  0.00000000000E+00  0.11596659805E+02  0.11596659805E+02  0.00000000000E+00 0. -1.
          1   -1    0    0  501    0  0.00000000000E+00 -0.00000000000E+00 -0.16649890030E+04  0.16649890030E+04  0.00000000000E+00 0. -1.
         36    2    1    2    0    0 -0.71054273576E-14 -0.71054273576E-14 -0.16533923432E+04  0.16765856628E+04  0.27790869758E+03 0.  0.
         25    2    3    3    0    0 -0.10028363722E+02 -0.13140774205E+02 -0.87364975520E+03  0.88593309019E+03  0.14608318694E+03 0.  0.
         25    2    3    3    0    0  0.10028363722E+02  0.13140774205E+02 -0.77974258802E+03  0.79065257264E+03  0.12984505776E+03 0.  0.
          5    1    4    4  502    0 -0.63740610837E+02  0.32003842186E+02 -0.32320749799E+03  0.33101705113E+03  0.47000000000E+01 0.  1.
         -5    1    4    4    0  502  0.53712247115E+02 -0.45144616391E+02 -0.55044225721E+03  0.55491603906E+03  0.47000000000E+01 0.  1.
          5    1    5    5  503    0  0.50152168705E+02 -0.31915154709E+02 -0.23058635886E+03  0.23817215626E+03  0.47000000000E+01 0. -1.
         -5    1    5    5    0  503 -0.40123804983E+02  0.45055928913E+02 -0.54915622917E+03  0.55248041639E+03  0.47000000000E+01 0. -1.
<mgrwt>
<rscale>  0 0.27790870E+03</rscale>
<asrwt>0</asrwt>
<pdfrwt beam="1">  1        1 0.25615197E+00 0.27790870E+03</pdfrwt>
<pdfrwt beam="2">  1       -1 0.17841028E-02 0.27790870E+03</pdfrwt>
<totfact> 0.45164196E+03</totfact>
</mgrwt>
</event>
<event>
 9    1  0.2054950E-002  0.2750947E+03  0.7818608E-02  0.1098399E+00
          2   -1    0    0  501    0  0.00000000000E+00  0.00000000000E+00  0.28718511047E+04  0.28718511047E+04  0.00000000000E+00 0.  1.
         -2   -1    0    0    0  501 -0.00000000000E+00 -0.00000000000E+00 -0.65878318142E+01  0.65878318142E+01  0.00000000000E+00 0.  1.
         36    2    1    2    0    0 -0.71054273576E-14  0.00000000000E+00  0.28652632729E+04  0.28784389365E+04  0.27509468968E+03 0.  0.
         25    2    3    3    0    0 -0.89701988210E+00 -0.35087426286E+02  0.89767635917E+03  0.90733714761E+03  0.12730248030E+03 0.  0.
         25    2    3    3    0    0  0.89701988210E+00  0.35087426286E+02  0.19675869137E+04  0.19711017889E+04  0.11230345976E+03 0.  0.
          5    1    4    4  502    0 -0.46113240485E+02 -0.26901112657E+01  0.13777437223E+03  0.14538753485E+03  0.47000000000E+01 0. -1.
         -5    1    4    4    0  502  0.45216220603E+02 -0.32397315021E+02  0.75990198694E+03  0.76194961276E+03  0.47000000000E+01 0. -1.
          5    1    5    5  503    0  0.38994056953E+02  0.56350891552E+02  0.14625464627E+04  0.14641585313E+04  0.47000000000E+01 0. -1.
         -5    1    5    5    0  503 -0.38097037071E+02 -0.21263465266E+02  0.50504045102E+03  0.50694325753E+03  0.47000000000E+01 0. -1.
<mgrwt>
<rscale>  0 0.27509469E+03</rscale>
<asrwt>0</asrwt>
<pdfrwt beam="1">  1        2 0.44182225E+00 0.27509469E+03</pdfrwt>
<pdfrwt beam="2">  1       -2 0.10135149E-02 0.27509469E+03</pdfrwt>
<totfact> 0.51789949E+03</totfact>
</mgrwt>
</event>
<event>
 9    1  0.2054950E-002  0.2746378E+03  0.7818608E-02  0.1098654E+00
          2   -1    0    0  501    0  0.00000000000E+00  0.00000000000E+00  0.12591850314E+03  0.12591850314E+03  0.00000000000E+00 0. -1.
         -2   -1    0    0    0  501 -0.00000000000E+00 -0.00000000000E+00 -0.14975149790E+03  0.14975149790E+03  0.00000000000E+00 0. -1.
         36    2    1    2    0    0  0.00000000000E+00  0.00000000000E+00 -0.23832994757E+02  0.27567000104E+03  0.27463783030E+03 0.  0.
         25    2    3    3    0    0 -0.39492527721E+02 -0.65773323608E+01 -0.13268924242E+00  0.14476201541E+03  0.13911542852E+03 0.  0.
         25    2    3    3    0    0  0.39492527721E+02  0.65773323608E+01 -0.23700305515E+02  0.13090798563E+03  0.12236124866E+03 0.  0.
          5    1    4    4  502    0  0.50226143394E+02 -0.16841669331E+02 -0.88602173631E+01  0.53915681929E+02  0.47000000000E+01 0.  1.
         -5    1    4    4    0  502 -0.89718671115E+02  0.10264336971E+02  0.87275281207E+01  0.90846333482E+02  0.47000000000E+01 0.  1.
          5    1    5    5  503    0  0.26253295350E+01 -0.44218696761E+02 -0.46095313379E+02  0.64101898676E+02  0.47000000000E+01 0.  1.
         -5    1    5    5    0  503  0.36867198186E+02  0.50796029121E+02  0.22395007864E+02  0.66806086952E+02  0.47000000000E+01 0.  1.
<mgrwt>
<rscale>  0 0.27463783E+03</rscale>
<asrwt>0</asrwt>
<pdfrwt beam="1">  1        2 0.19372077E-01 0.27463783E+03</pdfrwt>
<pdfrwt beam="2">  1       -2 0.23038692E-01 0.27463783E+03</pdfrwt>
<totfact> 0.47023465E+03</totfact>
</mgrwt>
</event>
<event>
 9    1  0.2054950E-002  0.2761070E+03  0.7818608E-02  0.1097834E+00
          2   -1    0    0  501    0  0.00000000000E+00  0.00000000000E+00  0.50879006155E+03  0.50879006155E+03  0.00000000000E+00 0. -1.
         -2   -1    0    0    0  501 -0.00000000000E+00 -0.00000000000E+00 -0.37459000072E+02  0.37459000072E+02  0.00000000000E+00 0. -1.
         36    2    1    2    0    0  0.00000000000E+00  0.35527136788E-14  0.47133106148E+03  0.54624906162E+03  0.27610698616E+03 0.  0.
         25    2    3    3    0    0  0.42859141161E+02  0.18819450578E+02  0.15329008523E+03  0.20151972008E+03  0.12215264896E+03 0.  0.
         25    2    3    3    0    0 -0.42859141161E+02 -0.18819450578E+02  0.31804097625E+03  0.34472934155E+03  0.12448766464E+03 0.  0.
          5    1    4    4  502    0 -0.20365670760E+00 -0.12798307532E+02  0.14687592713E+03  0.14750751208E+03  0.47000000000E+01 0.  1.
         -5    1    4    4    0  502  0.43062797869E+02  0.31617758110E+02  0.64141581026E+01  0.54012207994E+02  0.47000000000E+01 0.  1.
          5    1    5    5  503    0  0.38641306677E+02 -0.20104135377E+02  0.61499323101E+02  0.75508831158E+02  0.47000000000E+01 0.  1.
         -5    1    5    5    0  503 -0.81500447838E+02  0.12846847990E+01  0.25654165315E+03  0.26922051039E+03  0.47000000000E+01 0.  1.
<mgrwt>
<rscale>  0 0.27610699E+03</rscale>
<asrwt>0</asrwt>
<pdfrwt beam="1">  1        2 0.78275389E-01 0.27610699E+03</pdfrwt>
<pdfrwt beam="2">  1       -2 0.57629234E-02 0.27610699E+03</pdfrwt>
<totfact> 0.95599430E+03</totfact>
</mgrwt>
</event>
<event>
 9    1  0.2054950E-002  0.2754646E+03  0.7818608E-02  0.1098192E+00
         -2   -1    0    0    0  501 -0.00000000000E+00  0.00000000000E+00  0.34659508035E+02  0.34659508035E+02  0.00000000000E+00 0. -1.
          2   -1    0    0  501    0  0.00000000000E+00 -0.00000000000E+00 -0.54732980043E+03  0.54732980043E+03  0.00000000000E+00 0. -1.
         36    2    1    2    0    0 -0.14210854715E-13  0.00000000000E+00 -0.51267029240E+03  0.58198930847E+03  0.27546456481E+03 0.  0.
         25    2    3    3    0    0 -0.50508440015E+02  0.41801291120E+01 -0.31194845898E+03  0.34022396734E+03  0.12598385175E+03 0.  0.
         25    2    3    3    0    0  0.50508440015E+02 -0.41801291120E+01 -0.20072183342E+03  0.24176534112E+03  0.12487053202E+03 0.  0.
          5    1    4    4  502    0 -0.56035342954E+02  0.36567349813E+02 -0.73616933357E+02  0.99592537919E+02  0.47000000000E+01 0. -1.
         -5    1    4    4    0  502  0.55269029387E+01 -0.32387220701E+02 -0.23833152562E+03  0.24063142943E+03  0.47000000000E+01 0. -1.
          5    1    5    5  503    0 -0.17770940300E+02 -0.20979618304E+02  0.11795438797E+01  0.27918309890E+02  0.47000000000E+01 0. -1.
         -5    1    5    5    0  503  0.68279380315E+02  0.16799489192E+02 -0.20190137730E+03  0.21384703123E+03  0.47000000000E+01 0. -1.
<mgrwt>
<rscale>  0 0.27546456E+03</rscale>
<asrwt>0</asrwt>
<pdfrwt beam="1">  1        2 0.84204585E-01 0.27546456E+03</pdfrwt>
<pdfrwt beam="2">  1       -2 0.53322320E-02 0.27546456E+03</pdfrwt>
<totfact> 0.99111143E+03</totfact>
</mgrwt>
</event>
<event>
 9    1  0.2054950E-002  0.2749467E+03  0.7818608E-02  0.1098481E+00
          1   -1    0    0  501    0  0.00000000000E+00  0.00000000000E+00  0.78523061734E+03  0.78523061734E+03  0.00000000000E+00 0.  1.
         -1   -1    0    0    0  501 -0.00000000000E+00 -0.00000000000E+00 -0.24067990487E+02  0.24067990487E+02  0.00000000000E+00 0.  1.
         36    2    1    2    0    0  0.71054273576E-14  0.35527136788E-14  0.76116262686E+03  0.80929860783E+03  0.27494670777E+03 0.  0.
         25    2    3    3    0    0  0.30954214797E+02 -0.56679474025E+00  0.51529546866E+03  0.53157036915E+03  0.12680359882E+03 0.  0.
         25    2    3    3    0    0 -0.30954214797E+02  0.56679474025E+00  0.24586715820E+03  0.27772823868E+03  0.12539469848E+03 0.  0.
          5    1    4    4  502    0 -0.28191139153E+02 -0.15323678767E+02  0.36247656946E+02  0.48636797713E+02  0.47000000000E+01 0.  1.
         -5    1    4    4    0  502  0.59145353950E+02  0.14756884026E+02  0.47904781171E+03  0.48293357144E+03  0.47000000000E+01 0.  1.
          5    1    5    5  503    0 -0.42468382805E+02  0.56948406559E+02  0.14391927546E+03  0.16056628661E+03  0.47000000000E+01 0. -1.
         -5    1    5    5    0  503  0.11514168008E+02 -0.56381611818E+02  0.10194788274E+03  0.11716195207E+03  0.47000000000E+01 0. -1.
<mgrwt>
<rscale>  0 0.27494671E+03</rscale>
<asrwt>0</asrwt>
<pdfrwt beam="1">  1        1 0.12080469E+00 0.27494671E+03</pdfrwt>
<pdfrwt beam="2">  1       -1 0.37027684E-02 0.27494671E+03</pdfrwt>
<totfact> 0.65307317E+03</totfact>
</mgrwt>
</event>
<event>
 9    1  0.2054950E-002  0.2744841E+03  0.7818608E-02  0.1098740E+00
         -1   -1    0    0    0  501 -0.00000000000E+00  0.00000000000E+00  0.61484667060E+01  0.61484667060E+01  0.00000000000E+00 0. -1.
          1   -1    0    0  501    0  0.00000000000E+00 -0.00000000000E+00 -0.30634280907E+04  0.30634280907E+04  0.00000000000E+00 0. -1.
         36    2    1    2    0    0  0.71054273576E-14 -0.35527136788E-14 -0.30572796240E+04  0.30695765574E+04  0.27448413886E+03 0.  0.
         25    2    3    3    0    0  0.35220339778E+02 -0.27388270965E+02 -0.19170091849E+04  0.19216285547E+04  0.12546512594E+03 0.  0.
         25    2    3    3    0    0 -0.35220339778E+02  0.27388270965E+02 -0.11402704391E+04  0.11479480026E+04  0.12480926546E+03 0.  0.
          5    1    4    4  502    0  0.54940516937E+02  0.10243086447E+01 -0.17566184392E+04  0.17574839802E+04  0.47000000000E+01 0. -1.
         -5    1    4    4    0  502 -0.19720177159E+02 -0.28412579610E+02 -0.16039074564E+03  0.16414457455E+03  0.47000000000E+01 0. -1.
          5    1    5    5  503    0 -0.69753694300E+02  0.49683932213E+02 -0.60047743542E+03  0.60657176941E+03  0.47000000000E+01 0. -1.
         -5    1    5    5    0  503  0.34533354521E+02 -0.22295661248E+02 -0.53979300369E+03  0.54137623324E+03  0.47000000000E+01 0. -1.
<mgrwt>
<rscale>  0 0.27448414E+03</rscale>
<asrwt>0</asrwt>
<pdfrwt beam="1">  1        1 0.47129800E+00 0.27448414E+03</pdfrwt>
<pdfrwt beam="2">  1       -1 0.94591521E-03 0.27448414E+03</pdfrwt>
<totfact> 0.13315892E+03</totfact>
</mgrwt>
</event>
<event>
 9    1  0.2054950E-002  0.2762662E+03  0.7818608E-02  0.1097746E+00
         -2   -1    0    0    0  501 -0.00000000000E+00  0.00000000000E+00  0.29515132874E+03  0.29515132874E+03  0.00000000000E+00 0.  1.
          2   -1    0    0  501    0  0.00000000000E+00 -0.00000000000E+00 -0.64647369495E+02  0.64647369495E+02  0.00000000000E+00 0.  1.
         36    2    1    2    0    0  0.71054273576E-14  0.00000000000E+00  0.23050395924E+03  0.35979869824E+03  0.27626622672E+03 0.  0.
         25    2    3    3    0    0 -0.40788101960E+02  0.34238122017E+02  0.15882241799E+03  0.21168425148E+03  0.12942080053E+03 0.  0.
         25    2    3    3    0    0  0.40788101960E+02 -0.34238122017E+02  0.71681541256E+02  0.14811444675E+03  0.11816821789E+03 0.  0.
          5    1    4    4  502    0 -0.16196160731E+02  0.82821747208E+02  0.85418231949E+02  0.12016705781E+03  0.47000000000E+01 0.  1.
         -5    1    4    4    0  502 -0.24591941229E+02 -0.48583625191E+02  0.73404186040E+02  0.91517193676E+02  0.47000000000E+01 0.  1.
          5    1    5    5  503    0 -0.27975196153E+02 -0.50429309304E+02  0.23369011180E+02  0.62401342295E+02  0.47000000000E+01 0. -1.
         -5    1    5    5    0  503  0.68763298113E+02  0.16191187287E+02  0.48312530076E+02  0.85713104457E+02  0.47000000000E+01 0. -1.
<mgrwt>
<rscale>  0 0.27626623E+03</rscale>
<asrwt>0</asrwt>
<pdfrwt beam="1">  1        2 0.99457493E-02 0.27626623E+03</pdfrwt>
<pdfrwt beam="2">  1       -2 0.45407896E-01 0.27626623E+03</pdfrwt>
<totfact> 0.29910671E+03</totfact>
</mgrwt>
</event>
<event>
 9    1  0.2054950E-002  0.2746787E+03  0.7818608E-02  0.1098631E+00
          2   -1    0    0  501    0  0.00000000000E+00  0.00000000000E+00  0.89914623434E+03  0.89914623434E+03  0.00000000000E+00 0. -1.
         -2   -1    0    0    0  501 -0.00000000000E+00 -0.00000000000E+00 -0.20977781990E+02  0.20977781990E+02  0.00000000000E+00 0. -1.
         36    2    1    2    0    0  0.00000000000E+00  0.00000000000E+00  0.87816845235E+03  0.92012401633E+03  0.27467867541E+03 0.  0.
         25    2    3    3    0    0  0.18879866736E+02  0.32910251558E+02  0.39152098919E+03  0.41351704252E+03  0.12754656191E+03 0.  0.
         25    2    3    3    0    0 -0.18879866736E+02 -0.32910251558E+02  0.48664746316E+03  0.50660697381E+03  0.13559254583E+03 0.  0.
          5    1    4    4  502    0 -0.25862518362E+01  0.45724165972E+02  0.38433671476E+03  0.38708421354E+03  0.47000000000E+01 0. -1.
         -5    1    4    4    0  502  0.21466118572E+02 -0.12813914414E+02  0.71842744233E+01  0.26432828985E+02  0.47000000000E+01 0. -1.
          5    1    5    5  503    0 -0.23805861242E+01 -0.23026718052E+02  0.44918625797E+01  0.24045036160E+02  0.47000000000E+01 0.  1.
         -5    1    5    5    0  503 -0.16499280612E+02 -0.98835335069E+01  0.48215560058E+03  0.48256193765E+03  0.47000000000E+01 0.  1.
<mgrwt>
<rscale>  0 0.27467868E+03</rscale>
<asrwt>0</asrwt>
<pdfrwt beam="1">  1        2 0.13833016E+00 0.27467868E+03</pdfrwt>
<pdfrwt beam="2">  1       -2 0.32273518E-02 0.27467868E+03</pdfrwt>
<totfact> 0.11514920E+04</totfact>
</mgrwt>
</event>
<event>
 9    1  0.2054950E-002  0.2753091E+03  0.7818608E-02  0.1098279E+00
          1   -1    0    0  501    0  0.00000000000E+00  0.00000000000E+00  0.16790184633E+04  0.16790184633E+04  0.00000000000E+00 0.  1.
         -1   -1    0    0    0  501 -0.00000000000E+00 -0.00000000000E+00 -0.11285626858E+02  0.11285626858E+02  0.00000000000E+00 0.  1.
         36    2    1    2    0    0  0.00000000000E+00 -0.35527136788E-14  0.16677328364E+04  0.16903040901E+04  0.27530910529E+03 0.  0.
         25    2    3    3    0    0 -0.36626277284E+02 -0.16386281572E+02  0.10983250035E+04  0.11050606432E+04  0.11502702905E+03 0.  0.
         25    2    3    3    0    0  0.36626277284E+02  0.16386281572E+02  0.56940783295E+03  0.58524344697E+03  0.12913023498E+03 0.  0.
          5    1    4    4  502    0 -0.77125626071E+02 -0.11314099126E+02  0.82148859450E+03  0.82519208183E+03  0.47000000000E+01 0.  1.
         -5    1    4    4    0  502  0.40499348787E+02 -0.50721824462E+01  0.27683640898E+03  0.27986856134E+03  0.47000000000E+01 0.  1.
          5    1    5    5  503    0  0.57423172976E+02  0.18912353055E+02  0.11225519532E+03  0.12758689889E+03  0.47000000000E+01 0.  1.
         -5    1    5    5    0  503 -0.20796895692E+02 -0.25260714828E+01  0.45715263763E+03  0.45765654808E+03  0.47000000000E+01 0.  1.
<mgrwt>
<rscale>  0 0.27530911E+03</rscale>
<asrwt>0</asrwt>
<pdfrwt beam="1">  1        1 0.25831033E+00 0.27530911E+03</pdfrwt>
<pdfrwt beam="2">  1       -1 0.17362516E-02 0.27530911E+03</pdfrwt>
<totfact> 0.46008614E+03</totfact>
</mgrwt>
</event>
<event>
 9    1  0.2054950E-002  0.2755452E+03  0.7818608E-02  0.1098147E+00
          2   -1    0    0  501    0  0.00000000000E+00  0.00000000000E+00  0.23832800360E+04  0.23832800360E+04  0.00000000000E+00 0. -1.
         -2   -1    0    0    0  501 -0.00000000000E+00 -0.00000000000E+00 -0.79643545096E+01  0.79643545096E+01  0.00000000000E+00 0. -1.
         36    2    1    2    0    0  0.35527136788E-14  0.00000000000E+00  0.23753156815E+04  0.23912443905E+04  0.27554518397E+03 0.  0.
         25    2    3    3    0    0 -0.21683845824E+02  0.19017558232E+02  0.16963594992E+04  0.17012478370E+04  0.12560571485E+03 0.  0.
         25    2    3    3    0    0  0.21683845824E+02 -0.19017558232E+02  0.67895618224E+03  0.68999655348E+03  0.11950686057E+03 0.  0.
          5    1    4    4  502    0  0.51585274153E+02  0.19388540993E+02  0.68913496341E+03  0.69135088329E+03  0.47000000000E+01 0. -1.
         -5    1    4    4    0  502 -0.73269119977E+02 -0.37098276139E+00  0.10072245358E+04  0.10098969537E+04  0.47000000000E+01 0. -1.
          5    1    5    5  503    0  0.50532893773E+02 -0.45542902749E+02  0.57088324960E+03  0.57494130485E+03  0.47000000000E+01 0. -1.
         -5    1    5    5    0  503 -0.28849047949E+02  0.26525344517E+02  0.10807293264E+03  0.11505524863E+03  0.47000000000E+01 0. -1.
<mgrwt>
<rscale>  0 0.27554518E+03</rscale>
<asrwt>0</asrwt>
<pdfrwt beam="1">  1        2 0.36665790E+00 0.27554518E+03</pdfrwt>
<pdfrwt beam="2">  1       -2 0.12252872E-02 0.27554518E+03</pdfrwt>
<totfact> 0.73631806E+03</totfact>
</mgrwt>
</event>
<event>
 9    1  0.2054950E-002  0.2757002E+03  0.7818608E-02  0.1098061E+00
          2   -1    0    0  501    0  0.00000000000E+00  0.00000000000E+00  0.21177526355E+03  0.21177526355E+03  0.00000000000E+00 0.  1.
         -2   -1    0    0    0  501 -0.00000000000E+00 -0.00000000000E+00 -0.89730235795E+02  0.89730235795E+02  0.00000000000E+00 0.  1.
         36    2    1    2    0    0 -0.35527136788E-14 -0.71054273576E-14  0.12204502776E+03  0.30150549935E+03  0.27570015839E+03 0.  0.
         25    2    3    3    0    0 -0.27374574866E+02  0.37049773794E+02  0.94319520096E+02  0.16485536713E+03  0.12711831935E+03 0.  0.
         25    2    3    3    0    0  0.27374574866E+02 -0.37049773794E+02  0.27725507665E+02  0.13665013222E+03  0.12562842741E+03 0.  0.
          5    1    4    4  502    0 -0.59344709142E+01  0.59285105950E+02  0.11344285727E+03  0.12822368579E+03  0.47000000000E+01 0. -1.
         -5    1    4    4    0  502 -0.21440103952E+02 -0.22235332157E+02 -0.19123337170E+02  0.36631681344E+02  0.47000000000E+01 0. -1.
          5    1    5    5  503    0 -0.16246408080E+02  0.28129623213E+02 -0.25657507591E+02  0.41660762995E+02  0.47000000000E+01 0.  1.
         -5    1    5    5    0  503  0.43620982946E+02 -0.65179397006E+02  0.53383015256E+02  0.94989369221E+02  0.47000000000E+01 0.  1.
<mgrwt>
<rscale>  0 0.27570016E+03</rscale>
<asrwt>0</asrwt>
<pdfrwt beam="1">  1        2 0.32580810E-01 0.27570016E+03</pdfrwt>
<pdfrwt beam="2">  1       -2 0.13804652E-01 0.27570016E+03</pdfrwt>
<totfact> 0.62418800E+03</totfact>
</mgrwt>
</event>
<event>
 9    1  0.2054950E-002  0.2746402E+03  0.7818608E-02  0.1098653E+00
         -2   -1    0    0    0  501 -0.00000000000E+00  0.00000000000E+00  0.32551377880E+02  0.32551377880E+02  0.00000000000E+00 0. -1.
          2   -1    0    0  501    0  0.00000000000E+00 -0.00000000000E+00 -0.57929376991E+03  0.57929376991E+03  0.00000000000E+00 0. -1.
         36    2    1    2    0    0  0.00000000000E+00 -0.35527136788E-14 -0.54674239203E+03  0.61184514779E+03  0.27464020396E+03 0.  0.
         25    2    3    3    0    0  0.19283418554E+01 -0.20475071705E+02 -0.33663888090E+03  0.36848481696E+03  0.14843307292E+03 0.  0.
         25    2    3    3    0    0 -0.19283418554E+01  0.20475071705E+02 -0.21010351113E+03  0.24336033082E+03  0.12106947661E+03 0.  0.
          5    1    4    4  502    0  0.26725336313E+02 -0.78844172329E+02 -0.22573169526E+03  0.24063984574E+03  0.47000000000E+01 0.  1.
         -5    1    4    4    0  502 -0.24796994457E+02  0.58369100624E+02 -0.11090718564E+03  0.12784497123E+03  0.47000000000E+01 0.  1.
          5    1    5    5  503    0  0.56564810468E+02 -0.62885497387E+01 -0.81853914492E+02  0.99806196996E+02  0.47000000000E+01 0. -1.
         -5    1    5    5    0  503 -0.58493152324E+02  0.26763621444E+02 -0.12824959664E+03  0.14355413383E+03  0.47000000000E+01 0. -1.
<mgrwt>
<rscale>  0 0.27464020E+03</rscale>
<asrwt>0</asrwt>
<pdfrwt beam="1">  1        2 0.89122115E-01 0.27464020E+03</pdfrwt>
<pdfrwt beam="2">  1       -2 0.50079045E-02 0.27464020E+03</pdfrwt>
<totfact> 0.10217524E+04</totfact>
</mgrwt>
</event>
<event>
 8    1  0.2054950E-002  0.2528589E+03  0.7818608E-02  0.1111511E+00
         -2   -1    0    0    0  501 -0.00000000000E+00  0.00000000000E+00  0.72567041941E+01  0.72567041941E+01  0.00000000000E+00 0.  1.
          2   -1    0    0  501    0  0.00000000000E+00 -0.00000000000E+00 -0.22027086896E+04  0.22027086896E+04  0.00000000000E+00 0.  1.
         25    2    1    2    0    0 -0.62803462981E+01 -0.77952080947E+01 -0.11294533642E+04  0.11361663033E+04  0.12291769119E+03 0.  0.
         25    2    1    2    0    0  0.62803462981E+01  0.77952080947E+01 -0.10659986212E+04  0.10737990905E+04  0.12880690330E+03 0.  0.
          5    1    3    3  502    0 -0.23629932430E+01 -0.40052318039E+02 -0.12906203676E+03  0.13523635328E+03  0.47000000000E+01 0.  1.
         -5    1    3    3    0  502 -0.39173530551E+01  0.32257109944E+02 -0.10003913274E+04  0.10009299500E+04  0.47000000000E+01 0.  1.
          5    1    4    4  503    0  0.13201036173E+02 -0.55972670517E+02 -0.33095590559E+03  0.33594807433E+03  0.47000000000E+01 0.  1.
         -5    1    4    4    0  503 -0.69206898745E+01  0.63767878611E+02 -0.73504271563E+03  0.73785101619E+03  0.47000000000E+01 0.  1.
<mgrwt>
<rscale>  0 0.25285890E+03</rscale>
<asrwt>0</asrwt>
<pdfrwt beam="1">  1        2 0.33887822E+00 0.25285890E+03</pdfrwt>
<pdfrwt beam="2">  1       -2 0.11164162E-02 0.25285890E+03</pdfrwt>
<totfact> 0.10527939E+04</totfact>
</mgrwt>
</event>
<event>
 9    1  0.2054950E-002  0.2749002E+03  0.7818608E-02  0.1098507E+00
          2   -1    0    0  501    0  0.00000000000E+00  0.00000000000E+00  0.40317529478E+02  0.40317529478E+02  0.00000000000E+00 0. -1.
         -2   -1    0    0    0  501 -0.00000000000E+00 -0.00000000000E+00 -0.46859342624E+03  0.46859342624E+03  0.00000000000E+00 0. -1.
         36    2    1    2    0    0  0.00000000000E+00  0.00000000000E+00 -0.42827589677E+03  0.50891095572E+03  0.27490019480E+03 0.  0.
         25    2    3    3    0    0 -0.42381645487E+02  0.17111212164E+01 -0.18748953647E+03  0.23322562741E+03  0.13207094756E+03 0.  0.
         25    2    3    3    0    0  0.42381645487E+02 -0.17111212164E+01 -0.24078636030E+03  0.27568532831E+03  0.12737816582E+03 0.  0.
          5    1    4    4  502    0 -0.69309216207E+01  0.59304560031E+02 -0.13432538599E+03  0.14707300173E+03  0.47000000000E+01 0. -1.
         -5    1    4    4    0  502 -0.35450723866E+02 -0.57593438815E+02 -0.53164150477E+02  0.86152625689E+02  0.47000000000E+01 0. -1.
          5    1    5    5  503    0  0.85612564046E+02 -0.15159916427E+02 -0.13661201551E+03  0.16200082398E+03  0.47000000000E+01 0.  1.
         -5    1    5    5    0  503 -0.43230918559E+02  0.13448795211E+02 -0.10417434478E+03  0.11368450432E+03  0.47000000000E+01 0.  1.
<mgrwt>
<rscale>  0 0.27490019E+03</rscale>
<asrwt>0</asrwt>
<pdfrwt beam="1">  1        2 0.62026973E-02 0.27490019E+03</pdfrwt>
<pdfrwt beam="2">  1       -2 0.72091291E-01 0.27490019E+03</pdfrwt>
<totfact> 0.21120806E+03</totfact>
</mgrwt>
</event>
<event>
 9    1  0.2054950E-002  0.2729747E+03  0.7818608E-02  0.1099589E+00
         -1   -1    0    0    0  501 -0.00000000000E+00  0.00000000000E+00  0.23307965544E+02  0.23307965544E+02  0.00000000000E+00 0. -1.
          1   -1    0    0  501    0  0.00000000000E+00 -0.00000000000E+00 -0.79924577214E+03  0.79924577214E+03  0.00000000000E+00 0. -1.
         36    2    1    2    0    0  0.00000000000E+00 -0.10658141036E-13 -0.77593780660E+03  0.82255373769E+03  0.27297467222E+03 0.  0.
         25    2    3    3    0    0 -0.95866042265E+01 -0.22320784122E+02 -0.55003726141E+03  0.56413266747E+03  0.12294127533E+03 0.  0.
         25    2    3    3    0    0  0.95866042265E+01  0.22320784122E+02 -0.22590054519E+03  0.25842107022E+03  0.12312705971E+03 0.  0.
          5    1    4    4  502    0  0.16088739723E+02  0.15104553086E+02 -0.14866590083E+02  0.27020373249E+02  0.47000000000E+01 0.  1.
         -5    1    4    4    0  502 -0.25675343950E+02 -0.37425337209E+02 -0.53517067133E+03  0.53711229422E+03  0.47000000000E+01 0.  1.
          5    1    5    5  503    0  0.38581069547E+02 -0.15424859189E+02 -0.18760172248E+02  0.45830767734E+02  0.47000000000E+01 0.  1.
         -5    1    5    5    0  503 -0.28994465320E+02  0.37745643312E+02 -0.20714037294E+03  0.21259030249E+03  0.47000000000E+01 0.  1.
<mgrwt>
<rscale>  0 0.27297467E+03</rscale>
<asrwt>0</asrwt>
<pdfrwt beam="1">  1        1 0.12296090E+00 0.27297467E+03</pdfrwt>
<pdfrwt beam="2">  1       -1 0.35858406E-02 0.27297467E+03</pdfrwt>
<totfact> 0.66644874E+03</totfact>
</mgrwt>
</event>
<event>
 9    1  0.2054950E-002  0.2760954E+03  0.7818608E-02  0.1097841E+00
         -2   -1    0    0    0  501 -0.00000000000E+00  0.00000000000E+00  0.72806020779E+01  0.72806020779E+01  0.00000000000E+00 0. -1.
          2   -1    0    0  501    0  0.00000000000E+00 -0.00000000000E+00 -0.26175271824E+04  0.26175271824E+04  0.00000000000E+00 0. -1.
         36    2    1    2    0    0  0.71054273576E-14 -0.35527136788E-14 -0.26102465804E+04  0.26248077845E+04  0.27609544613E+03 0.  0.
         25    2    3    3    0    0  0.22928713847E+02 -0.27939890567E+02 -0.16813233374E+04  0.16863463399E+04  0.12493778349E+03 0.  0.
         25    2    3    3    0    0 -0.22928713847E+02  0.27939890567E+02 -0.92892324295E+03  0.93846144462E+03  0.12847228631E+03 0.  0.
          5    1    4    4  502    0 -0.51481523778E+02 -0.17002326293E+02 -0.65062080428E+03  0.65289275333E+03  0.47000000000E+01 0. -1.
         -5    1    4    4    0  502  0.74410237625E+02 -0.10937564274E+02 -0.10307025331E+04  0.10334535866E+04  0.47000000000E+01 0. -1.
          5    1    5    5  503    0  0.52931979180E+02  0.84157862545E+01 -0.31808724771E+03  0.32260534254E+03  0.47000000000E+01 0.  1.
         -5    1    5    5    0  503 -0.75860693027E+02  0.19524104312E+02 -0.61083599524E+03  0.61585610208E+03  0.47000000000E+01 0.  1.
<mgrwt>
<rscale>  0 0.27609545E+03</rscale>
<asrwt>0</asrwt>
<pdfrwt beam="1">  1        2 0.40269599E+00 0.27609545E+03</pdfrwt>
<pdfrwt beam="2">  1       -2 0.11200940E-02 0.27609545E+03</pdfrwt>
<totfact> 0.62429592E+03</totfact>
</mgrwt>
</event>
<event>
 9    1  0.2054950E-002  0.2741698E+03  0.7818608E-02  0.1098917E+00
         -1   -1    0    0    0  501 -0.00000000000E+00  0.00000000000E+00  0.18816597008E+02  0.18816597008E+02  0.00000000000E+00 0. -1.
          1   -1    0    0  501    0  0.00000000000E+00 -0.00000000000E+00 -0.99870692257E+03  0.99870692257E+03  0.00000000000E+00 0. -1.
         36    2    1    2    0    0 -0.71054273576E-14 -0.71054273576E-14 -0.97989032556E+03  0.10175235196E+04  0.27416976997E+03 0.  0.
         25    2    3    3    0    0  0.18736611215E+02  0.59110854770E+02 -0.44325282497E+03  0.46463917485E+03  0.12478518428E+03 0.  0.
         25    2    3    3    0    0 -0.18736611215E+02 -0.59110854770E+02 -0.53663750059E+03  0.55288434472E+03  0.11771209727E+03 0.  0.
          5    1    4    4  502    0  0.51742713639E+02  0.48589080336E+02 -0.41088046975E+03  0.41699287472E+03  0.47000000000E+01 0.  1.
         -5    1    4    4    0  502 -0.33006102423E+02  0.10521774434E+02 -0.32372355213E+02  0.47646300134E+02  0.47000000000E+01 0.  1.
          5    1    5    5  503    0 -0.50896824495E+02  0.13681549890E+02 -0.19306858406E+03  0.20018801088E+03  0.47000000000E+01 0. -1.
         -5    1    5    5    0  503  0.32160213279E+02 -0.72792404659E+02 -0.34356891654E+03  0.35269633384E+03  0.47000000000E+01 0. -1.
<mgrwt>
<rscale>  0 0.27416977E+03</rscale>
<asrwt>0</asrwt>
<pdfrwt beam="1">  1        1 0.15364725E+00 0.27416977E+03</pdfrwt>
<pdfrwt beam="2">  1       -1 0.28948605E-02 0.27416977E+03</pdfrwt>
<totfact> 0.63681908E+03</totfact>
</mgrwt>
</event>
<event>
 9    1  0.2054950E-002  0.2739032E+03  0.7818608E-02  0.1099066E+00
         -1   -1    0    0    0  501 -0.00000000000E+00  0.00000000000E+00  0.19229335466E+02  0.19229335466E+02  0.00000000000E+00 0.  1.
          1   -1    0    0  501    0  0.00000000000E+00 -0.00000000000E+00 -0.97537154618E+03  0.97537154618E+03  0.00000000000E+00 0.  1.
         36    2    1    2    0    0  0.00000000000E+00 -0.35527136788E-14 -0.95614221071E+03  0.99460088164E+03  0.27390324325E+03 0.  0.
         25    2    3    3    0    0  0.10123772786E+02  0.22071895379E+02 -0.45669983501E+03  0.47427480629E+03  0.12558739288E+03 0.  0.
         25    2    3    3    0    0 -0.10123772786E+02 -0.22071895379E+02 -0.49944237570E+03  0.52032607535E+03  0.14389884884E+03 0.  0.
          5    1    4    4  502    0  0.32309276650E+02  0.34640322143E+02 -0.59355882638E+02  0.76085820489E+02  0.47000000000E+01 0.  1.
         -5    1    4    4    0  502 -0.22185503864E+02 -0.12568426764E+02 -0.39734395237E+03  0.39818898581E+03  0.47000000000E+01 0.  1.
          5    1    5    5  503    0  0.37202731673E+01 -0.23984057969E+02 -0.50422079920E+03  0.50482648486E+03  0.47000000000E+01 0. -1.
         -5    1    5    5    0  503 -0.13844045953E+02  0.19121625900E+01  0.47784234980E+01  0.15499590487E+02  0.47000000000E+01 0. -1.
<mgrwt>
<rscale>  0 0.27390324E+03</rscale>
<asrwt>0</asrwt>
<pdfrwt beam="1">  1        1 0.15005714E+00 0.27390324E+03</pdfrwt>
<pdfrwt beam="2">  1       -1 0.29583597E-02 0.27390324E+03</pdfrwt>
<totfact> 0.64221011E+03</totfact>
</mgrwt>
</event>
<event>
 9    1  0.2054950E-002  0.2758908E+03  0.7818608E-02  0.1097955E+00
         -2   -1    0    0    0  501 -0.00000000000E+00  0.00000000000E+00  0.13695688764E+02  0.13695688764E+02  0.00000000000E+00 0. -1.
          2   -1    0    0  501    0  0.00000000000E+00 -0.00000000000E+00 -0.13894109704E+04  0.13894109704E+04  0.00000000000E+00 0. -1.
         36    2    1    2    0    0 -0.17763568394E-14 -0.71054273576E-14 -0.13757152816E+04  0.14031066591E+04  0.27589084954E+03 0.  0.
         25    2    3    3    0    0  0.13807817458E+01  0.20909450518E+02 -0.76703965823E+03  0.77754571340E+03  0.12565185012E+03 0.  0.
         25    2    3    3    0    0 -0.13807817458E+01 -0.20909450518E+02 -0.60867562338E+03  0.62556094574E+03  0.14283336678E+03 0.  0.
          5    1    4    4  502    0 -0.84048715238E+01 -0.31056116131E+02 -0.57766758940E+02  0.66288857683E+02  0.47000000000E+01 0. -1.
         -5    1    4    4    0  502  0.97856532696E+01  0.51965566649E+02 -0.70927289929E+03  0.71125685571E+03  0.47000000000E+01 0. -1.
          5    1    5    5  503    0 -0.15896071132E+02  0.47105880382E+02 -0.96418733318E+02  0.10858319934E+03  0.47000000000E+01 0.  1.
         -5    1    5    5    0  503  0.14515289386E+02 -0.68015330900E+02 -0.51225689006E+03  0.51697774640E+03  0.47000000000E+01 0.  1.
<mgrwt>
<rscale>  0 0.27589085E+03</rscale>
<asrwt>0</asrwt>
<pdfrwt beam="1">  1        2 0.21375566E+00 0.27589085E+03</pdfrwt>
<pdfrwt beam="2">  1       -2 0.21070278E-02 0.27589085E+03</pdfrwt>
<totfact> 0.11208193E+04</totfact>
</mgrwt>
</event>
<event>
 9    1  0.2054950E-002  0.2723483E+03  0.7818608E-02  0.1099943E+00
          1   -1    0    0  501    0  0.00000000000E+00  0.00000000000E+00  0.53738673254E+02  0.53738673254E+02  0.00000000000E+00 0.  1.
         -1   -1    0    0    0  501 -0.00000000000E+00 -0.00000000000E+00 -0.34506622790E+03  0.34506622790E+03  0.00000000000E+00 0.  1.
         36    2    1    2    0    0  0.71054273576E-14  0.00000000000E+00 -0.29132755465E+03  0.39880490116E+03  0.27234831575E+03 0.  0.
         25    2    3    3    0    0  0.32130952245E+02 -0.20497308301E+02 -0.13011914866E+03  0.19060239970E+03  0.13396172656E+03 0.  0.
         25    2    3    3    0    0 -0.32130952245E+02  0.20497308301E+02 -0.16120840599E+03  0.20820250146E+03  0.12612530957E+03 0.  0.
          5    1    4    4  502    0  0.65078851682E+02  0.18251676511E+02 -0.22355725659E+02  0.71345981677E+02  0.47000000000E+01 0.  1.
         -5    1    4    4    0  502 -0.32947899437E+02 -0.38748984812E+02 -0.10776342300E+03  0.11925641802E+03  0.47000000000E+01 0.  1.
          5    1    5    5  503    0 -0.78178576315E+02  0.21925005627E+02 -0.76464730355E+02  0.11163127095E+03  0.47000000000E+01 0. -1.
         -5    1    5    5    0  503  0.46047624070E+02 -0.14276973254E+01 -0.84743675634E+02  0.96571230509E+02  0.47000000000E+01 0. -1.
<mgrwt>
<rscale>  0 0.27234832E+03</rscale>
<asrwt>0</asrwt>
<pdfrwt beam="1">  1        1 0.82674883E-02 0.27234832E+03</pdfrwt>
<pdfrwt beam="2">  1       -1 0.53087111E-01 0.27234832E+03</pdfrwt>
<totfact> 0.30402270E+03</totfact>
</mgrwt>
</event>
<event>
 9    1  0.2054950E-002  0.2813738E+03  0.7818608E-02  0.1094941E+00
          2   -1    0    0  501    0  0.00000000000E+00  0.00000000000E+00  0.54315484281E+03  0.54315484281E+03  0.00000000000E+00 0. -1.
         -2   -1    0    0    0  501 -0.00000000000E+00 -0.00000000000E+00 -0.36440435576E+02  0.36440435576E+02  0.00000000000E+00 0. -1.
         36    2    1    2    0    0  0.00000000000E+00 -0.71054273576E-14  0.50671440723E+03  0.57959527838E+03  0.28137376606E+03 0.  0.
         25    2    3    3    0    0  0.63431284404E+02  0.16764253393E+02  0.24042430945E+03  0.27885337214E+03  0.12510310366E+03 0.  0.
         25    2    3    3    0    0 -0.63431284404E+02 -0.16764253393E+02  0.26629009778E+03  0.30074190624E+03  0.12341276256E+03 0.  0.
          5    1    4    4  502    0  0.62456149055E+02  0.58253028429E+02  0.21124325256E+03  0.22790346120E+03  0.47000000000E+01 0. -1.
         -5    1    4    4    0  502  0.97513534838E+00 -0.41488775036E+02  0.29181056888E+02  0.50949910932E+02  0.47000000000E+01 0. -1.
          5    1    5    5  503    0 -0.33497989668E+02  0.41795292055E+02  0.20055504474E+03  0.20763761153E+03  0.47000000000E+01 0.  1.
         -5    1    5    5    0  503 -0.29933294736E+02 -0.58559545448E+02  0.65735053041E+02  0.93104294719E+02  0.47000000000E+01 0.  1.
<mgrwt>
<rscale>  0 0.28137377E+03</rscale>
<asrwt>0</asrwt>
<pdfrwt beam="1">  1        2 0.83562278E-01 0.28137377E+03</pdfrwt>
<pdfrwt beam="2">  1       -2 0.56062213E-02 0.28137377E+03</pdfrwt>
<totfact> 0.92687215E+03</totfact>
</mgrwt>
</event>
<event>
 9    1  0.2054950E-002  0.2748784E+03  0.7818608E-02  0.1098520E+00
         -1   -1    0    0    0  501 -0.00000000000E+00  0.00000000000E+00  0.96157019944E+02  0.96157019944E+02  0.00000000000E+00 0. -1.
          1   -1    0    0  501    0  0.00000000000E+00 -0.00000000000E+00 -0.19644473395E+03  0.19644473395E+03  0.00000000000E+00 0. -1.
         36    2    1    2    0    0  0.00000000000E+00  0.71054273576E-14 -0.10028771400E+03  0.29260175389E+03  0.27487844732E+03 0.  0.
         25    2    3    3    0    0  0.48432195443E+02 -0.32959693584E+02 -0.54726701981E+02  0.14659154783E+03  0.12272754796E+03 0.  0.
         25    2    3    3    0    0 -0.48432195443E+02  0.32959693584E+02 -0.45561012020E+02  0.14601020606E+03  0.12574241727E+03 0.  0.
          5    1    4    4  502    0  0.44630397768E+01  0.44277535756E+02 -0.60688682797E+01  0.45159052901E+02  0.47000000000E+01 0. -1.
         -5    1    4    4    0  502  0.43969155666E+02 -0.77237229341E+02 -0.48657833702E+02  0.10143249493E+03  0.47000000000E+01 0. -1.
          5    1    5    5  503    0  0.34920714165E+02  0.34631011048E+02 -0.37685984456E+02  0.62137642604E+02  0.47000000000E+01 0. -1.
         -5    1    5    5    0  503 -0.83352909608E+02 -0.16713174631E+01 -0.78750275639E+01  0.83872563460E+02  0.47000000000E+01 0. -1.
<mgrwt>
<rscale>  0 0.27487845E+03</rscale>
<asrwt>0</asrwt>
<pdfrwt beam="1">  1        1 0.30222267E-01 0.27487845E+03</pdfrwt>
<pdfrwt beam="2">  1       -1 0.14793388E-01 0.27487845E+03</pdfrwt>
<totfact> 0.48972938E+03</totfact>
</mgrwt>
</event>
<event>
 9    1  0.2054950E-002  0.2746438E+03  0.7818608E-02  0.1098651E+00
          1   -1    0    0  501    0  0.00000000000E+00  0.00000000000E+00  0.33942498859E+03  0.33942498859E+03  0.00000000000E+00 0. -1.
         -1   -1    0    0    0  501 -0.00000000000E+00 -0.00000000000E+00 -0.55556620363E+02  0.55556620363E+02  0.00000000000E+00 0. -1.
         36    2    1    2    0    0  0.00000000000E+00  0.00000000000E+00  0.28386836823E+03  0.39498160895E+03  0.27464380738E+03 0.  0.
         25    2    3    3    0    0 -0.23995723710E+02 -0.26854967243E+02  0.20756016183E+03  0.24459292084E+03  0.12428794039E+03 0.  0.
         25    2    3    3    0    0  0.23995723710E+02  0.26854967243E+02  0.76308206397E+02  0.15038868811E+03  0.12448626882E+03 0.  0.
          5    1    4    4  502    0 -0.48453188695E+02  0.35840679977E+02  0.79756397843E+02  0.10007716439E+03  0.47000000000E+01 0.  1.
         -5    1    4    4    0  502  0.24457464985E+02 -0.62695647219E+02  0.12780376399E+03  0.14451575645E+03  0.47000000000E+01 0.  1.
          5    1    5    5  503    0  0.47497479289E+02 -0.36432939868E+02  0.23229884829E+02  0.64382351584E+02  0.47000000000E+01 0.  1.
         -5    1    5    5    0  503 -0.23501755579E+02  0.63287907111E+02  0.53078321567E+02  0.86006336524E+02  0.47000000000E+01 0.  1.
<mgrwt>
<rscale>  0 0.27464381E+03</rscale>
<asrwt>0</asrwt>
<pdfrwt beam="1">  1        1 0.52219228E-01 0.27464381E+03</pdfrwt>
<pdfrwt beam="2">  1       -1 0.85471726E-02 0.27464381E+03</pdfrwt>
<totfact> 0.57830611E+03</totfact>
</mgrwt>
</event>
<event>
 9    1  0.2054950E-002  0.2765077E+03  0.7818608E-02  0.1097612E+00
          2   -1    0    0  501    0  0.00000000000E+00  0.00000000000E+00  0.26632660578E+02  0.26632660578E+02  0.00000000000E+00 0. -1.
         -2   -1    0    0    0  501 -0.00000000000E+00 -0.00000000000E+00 -0.71769507578E+03  0.71769507578E+03  0.00000000000E+00 0. -1.
         36    2    1    2    0    0  0.00000000000E+00 -0.35527136788E-14 -0.69106241520E+03  0.74432773636E+03  0.27650771672E+03 0.  0.
         25    2    3    3    0    0 -0.59033448539E+02 -0.28009526512E+02 -0.35872284219E+03  0.38506513912E+03  0.12378853838E+03 0.  0.
         25    2    3    3    0    0  0.59033448539E+02  0.28009526512E+02 -0.33233957301E+03  0.35926259724E+03  0.11979374092E+03 0.  0.
          5    1    4    4  502    0  0.34757364283E+02 -0.90609229983E+01 -0.49481558739E+02  0.61324459662E+02  0.47000000000E+01 0. -1.
         -5    1    4    4    0  502 -0.93790812822E+02 -0.18948603514E+02 -0.30924128345E+03  0.32374067946E+03  0.47000000000E+01 0. -1.
          5    1    5    5  503    0  0.16654167678E+02 -0.19256448886E+02 -0.26623656798E+03  0.26749237794E+03  0.47000000000E+01 0. -1.
         -5    1    5    5    0  503  0.42379280860E+02  0.47265975398E+02 -0.66103005031E+02  0.91770219302E+02  0.47000000000E+01 0. -1.
<mgrwt>
<rscale>  0 0.27650772E+03</rscale>
<asrwt>0</asrwt>
<pdfrwt beam="1">  1        2 0.40973333E-02 0.27650772E+03</pdfrwt>
<pdfrwt beam="2">  1       -2 0.11041460E+00 0.27650772E+03</pdfrwt>
<totfact> 0.13921318E+03</totfact>
</mgrwt>
</event>
<event>
 9    1  0.2054950E-002  0.2751507E+03  0.7818608E-02  0.1098367E+00
         -2   -1    0    0    0  501 -0.00000000000E+00  0.00000000000E+00  0.47810447415E+02  0.47810447415E+02  0.00000000000E+00 0. -1.
          2   -1    0    0  501    0  0.00000000000E+00 -0.00000000000E+00 -0.39587542480E+03  0.39587542480E+03  0.00000000000E+00 0. -1.
         36    2    1    2    0    0  0.71054273576E-14  0.17763568394E-14 -0.34806497739E+03  0.44368587222E+03  0.27515073091E+03 0.  0.
         25    2    3    3    0    0 -0.33963959051E+02 -0.73845880985E+01 -0.23083448321E+03  0.26439169470E+03  0.12413833790E+03 0.  0.
         25    2    3    3    0    0  0.33963959051E+02  0.73845880985E+01 -0.11723049418E+03  0.17929417751E+03  0.13113096762E+03 0.  0.
          5    1    4    4  502    0  0.21782363131E+02 -0.19845795068E+02 -0.19395405579E+03  0.19623606366E+03  0.47000000000E+01 0. -1.
         -5    1    4    4    0  502 -0.55746322182E+02  0.12461206970E+02 -0.36880427418E+02  0.68155631040E+02  0.47000000000E+01 0. -1.
          5    1    5    5  503    0  0.74789327089E+02 -0.90618141929E+01 -0.11151950355E+03  0.13466346793E+03  0.47000000000E+01 0. -1.
         -5    1    5    5    0  503 -0.40825368038E+02  0.16446402291E+02 -0.57109906281E+01  0.44630709581E+02  0.47000000000E+01 0. -1.
<mgrwt>
<rscale>  0 0.27515073E+03</rscale>
<asrwt>0</asrwt>
<pdfrwt beam="1">  1        2 0.60903912E-01 0.27515073E+03</pdfrwt>
<pdfrwt beam="2">  1       -2 0.73554533E-02 0.27515073E+03</pdfrwt>
<totfact> 0.86515968E+03</totfact>
</mgrwt>
</event>
<event>
 9    1  0.2054950E-002  0.2751403E+03  0.7818608E-02  0.1098373E+00
          2   -1    0    0  501    0  0.00000000000E+00  0.00000000000E+00  0.21675321317E+04  0.21675321317E+04  0.00000000000E+00 0.  1.
         -2   -1    0    0    0  501 -0.00000000000E+00 -0.00000000000E+00 -0.87313790293E+01  0.87313790293E+01  0.00000000000E+00 0.  1.
         36    2    1    2    0    0 -0.17763568394E-14  0.71054273576E-14  0.21588007527E+04  0.21762635108E+04  0.27514028858E+03 0.  0.
         25    2    3    3    0    0 -0.58562101615E+01 -0.26251046787E+02  0.65497987186E+03  0.66687612621E+03  0.12248151911E+03 0.  0.
         25    2    3    3    0    0  0.58562101615E+01  0.26251046787E+02  0.15038208808E+04  0.15093873845E+04  0.12668710394E+03 0.  0.
          5    1    4    4  502    0 -0.12772558273E+02 -0.61692468236E+02  0.18503885135E+03  0.19552638030E+03  0.47000000000E+01 0.  1.
         -5    1    4    4    0  502  0.69163481118E+01  0.35441421449E+02  0.46994102050E+03  0.47134974592E+03  0.47000000000E+01 0.  1.
          5    1    5    5  503    0  0.46433494073E+02 -0.90642081191E+00  0.23352164852E+03  0.23814143129E+03  0.47000000000E+01 0. -1.
         -5    1    5    5    0  503 -0.40577283912E+02  0.27157467599E+02  0.12702992323E+04  0.12712459533E+04  0.47000000000E+01 0. -1.
<mgrwt>
<rscale>  0 0.27514029E+03</rscale>
<asrwt>0</asrwt>
<pdfrwt beam="1">  1        2 0.33346605E+00 0.27514029E+03</pdfrwt>
<pdfrwt beam="2">  1       -2 0.13432908E-02 0.27514029E+03</pdfrwt>
<totfact> 0.84010181E+03</totfact>
</mgrwt>
</event>
<event>
 9    1  0.2054950E-002  0.2829506E+03  0.7818608E-02  0.1094088E+00
         -2   -1    0    0    0  501 -0.00000000000E+00  0.00000000000E+00  0.16956813715E+02  0.16956813715E+02  0.00000000000E+00 0.  1.
          2   -1    0    0  501    0  0.00000000000E+00 -0.00000000000E+00 -0.11803672099E+04  0.11803672099E+04  0.00000000000E+00 0.  1.
         36    2    1    2    0    0  0.71054273576E-14  0.71054273576E-14 -0.11634103962E+04  0.11973240236E+04  0.28295064512E+03 0.  0.
         25    2    3    3    0    0  0.20521025663E+02  0.22412425588E+02 -0.85231040578E+03  0.86190098664E+03  0.12456666352E+03 0.  0.
         25    2    3    3    0    0 -0.20521025663E+02 -0.22412425588E+02 -0.31109999041E+03  0.33542303698E+03  0.12166338968E+03 0.  0.
          5    1    4    4  502    0  0.71877754005E+02  0.35711428969E+00 -0.49581325090E+03  0.50101837174E+03  0.47000000000E+01 0. -1.
         -5    1    4    4    0  502 -0.51356728342E+02  0.22055311298E+02 -0.35649715487E+03  0.36088261490E+03  0.47000000000E+01 0. -1.
          5    1    5    5  503    0 -0.10787453692E+02 -0.13124223050E+02 -0.31875759674E+03  0.31924459254E+03  0.47000000000E+01 0.  1.
         -5    1    5    5    0  503 -0.97335719715E+01 -0.92882025379E+01  0.76576063291E+01  0.16178444437E+02  0.47000000000E+01 0.  1.
<mgrwt>
<rscale>  0 0.28295065E+03</rscale>
<asrwt>0</asrwt>
<pdfrwt beam="1">  1        2 0.18159498E+00 0.28295065E+03</pdfrwt>
<pdfrwt beam="2">  1       -2 0.26087402E-02 0.28295065E+03</pdfrwt>
<totfact> 0.10693021E+04</totfact>
</mgrwt>
</event>
<event>
 9    1  0.2054950E-002  0.2748715E+03  0.7818608E-02  0.1098523E+00
          4   -1    0    0  501    0  0.00000000000E+00  0.00000000000E+00  0.16426654639E+02  0.16426654639E+02  0.00000000000E+00 0.  1.
         -4   -1    0    0    0  501 -0.00000000000E+00 -0.00000000000E+00 -0.11498743439E+04  0.11498743439E+04  0.00000000000E+00 0.  1.
         36    2    1    2    0    0  0.71054273576E-14  0.00000000000E+00 -0.11334476892E+04  0.11663009985E+04  0.27487152435E+03 0.  0.
         25    2    3    3    0    0  0.39401134055E+02 -0.35512939413E+02 -0.70997586487E+03  0.72227462691E+03  0.12166055130E+03 0.  0.
         25    2    3    3    0    0 -0.39401134055E+02  0.35512939413E+02 -0.42347182434E+03  0.44402637159E+03  0.12254556059E+03 0.  0.
          5    1    4    4  502    0 -0.39016670561E+02  0.83574100441E+01 -0.28986274828E+03  0.29263398594E+03  0.47000000000E+01 0.  1.
         -5    1    4    4    0  502  0.78417804616E+02 -0.43870349457E+02 -0.42011311659E+03  0.42964064097E+03  0.47000000000E+01 0.  1.
          5    1    5    5  503    0 -0.29553339401E+02 -0.20715675747E+02 -0.34478383587E+03  0.34669947010E+03  0.47000000000E+01 0. -1.
         -5    1    5    5    0  503 -0.98477946547E+01  0.56228615160E+02 -0.78687988471E+02  0.97326901482E+02  0.47000000000E+01 0. -1.
<mgrwt>
<rscale>  0 0.27487152E+03</rscale>
<asrwt>0</asrwt>
<pdfrwt beam="1">  1        4 0.25271765E-02 0.27487152E+03</pdfrwt>
<pdfrwt beam="2">  1       -4 0.17690382E+00 0.27487152E+03</pdfrwt>
<totfact> 0.26914276E+02</totfact>
</mgrwt>
</event>
<event>
 9    1  0.2054950E-002  0.2746954E+03  0.7818608E-02  0.1098622E+00
         -1   -1    0    0    0  501 -0.00000000000E+00  0.00000000000E+00  0.16951021704E+02  0.16951021704E+02  0.00000000000E+00 0. -1.
          1   -1    0    0  501    0  0.00000000000E+00 -0.00000000000E+00 -0.11128759550E+04  0.11128759550E+04  0.00000000000E+00 0. -1.
         36    2    1    2    0    0  0.71054273576E-14  0.00000000000E+00 -0.10959249333E+04  0.11298269767E+04  0.27469535466E+03 0.  0.
         25    2    3    3    0    0  0.54668546612E+02  0.37263893557E+02 -0.70023350046E+03  0.71225523295E+03  0.11226448212E+03 0.  0.
         25    2    3    3    0    0 -0.54668546612E+02 -0.37263893557E+02 -0.39569143287E+03  0.41757174379E+03  0.11583265262E+03 0.  0.
          5    1    4    4  502    0  0.45590707177E+02 -0.17851219183E+02 -0.12549603425E+03  0.13479066444E+03  0.47000000000E+01 0. -1.
         -5    1    4    4    0  502  0.90778394351E+01  0.55115112739E+02 -0.57473746621E+03  0.57746456851E+03  0.47000000000E+01 0. -1.
          5    1    5    5  503    0  0.27655012626E+02  0.15703134653E+02 -0.62747071415E+02  0.70503000875E+02  0.47000000000E+01 0.  1.
         -5    1    5    5    0  503 -0.82323559237E+02 -0.52967028209E+02 -0.33294436145E+03  0.34706874291E+03  0.47000000000E+01 0.  1.
<mgrwt>
<rscale>  0 0.27469535E+03</rscale>
<asrwt>0</asrwt>
<pdfrwt beam="1">  1        1 0.17121172E+00 0.27469535E+03</pdfrwt>
<pdfrwt beam="2">  1       -1 0.26078490E-02 0.27469535E+03</pdfrwt>
<totfact> 0.61257197E+03</totfact>
</mgrwt>
</event>
<event>
 9    1  0.2054950E-002  0.2728412E+03  0.7818608E-02  0.1099664E+00
         -1   -1    0    0    0  501 -0.00000000000E+00  0.00000000000E+00  0.12266568022E+03  0.12266568022E+03  0.00000000000E+00 0.  1.
          1   -1    0    0  501    0  0.00000000000E+00 -0.00000000000E+00 -0.15171789869E+03  0.15171789869E+03  0.00000000000E+00 0.  1.
         36    2    1    2    0    0  0.00000000000E+00  0.71054273576E-14 -0.29052218463E+02  0.27438357891E+03  0.27284119370E+03 0.  0.
         25    2    3    3    0    0 -0.38128326970E+02  0.12004570698E+02  0.22298647285E+02  0.13381691902E+03  0.12574521506E+03 0.  0.
         25    2    3    3    0    0  0.38128326970E+02 -0.12004570698E+02 -0.51350865748E+02  0.14056665989E+03  0.12459612925E+03 0.  0.
          5    1    4    4  502    0  0.37823545027E+01  0.59341267553E+02 -0.13294054226E+02  0.61110671066E+02  0.47000000000E+01 0. -1.
         -5    1    4    4    0  502 -0.41910681473E+02 -0.47336696856E+02  0.35592701510E+02  0.72706247954E+02  0.47000000000E+01 0. -1.
          5    1    5    5  503    0  0.36142284715E+02  0.49899431921E+02 -0.48208569911E+02  0.78373300705E+02  0.47000000000E+01 0.  1.
         -5    1    5    5    0  503  0.19860422551E+01 -0.61904002618E+02 -0.31422958367E+01  0.62193359188E+02  0.47000000000E+01 0.  1.
<mgrwt>
<rscale>  0 0.27284119E+03</rscale>
<asrwt>0</asrwt>
<pdfrwt beam="1">  1        1 0.23341215E-01 0.27284119E+03</pdfrwt>
<pdfrwt beam="2">  1       -1 0.18871643E-01 0.27284119E+03</pdfrwt>
<totfact> 0.46027066E+03</totfact>
</mgrwt>
</event>
<event>
 9    1  0.2054950E-002  0.2744605E+03  0.7818608E-02  0.1098754E+00
          2   -1    0    0  501    0  0.00000000000E+00  0.00000000000E+00  0.31751636881E+04  0.31751636881E+04  0.00000000000E+00 0. -1.
         -2   -1    0    0    0  501 -0.00000000000E+00 -0.00000000000E+00 -0.59310778282E+01  0.59310778282E+01  0.00000000000E+00 0. -1.
         36    2    1    2    0    0  0.00000000000E+00  0.00000000000E+00  0.31692326103E+04  0.31810947659E+04  0.27446051047E+03 0.  0.
         25    2    3    3    0    0  0.19761003662E+02  0.60312577385E+01  0.21089886026E+04  0.21132779613E+04  0.13298098497E+03 0.  0.
         25    2    3    3    0    0 -0.19761003662E+02 -0.60312577385E+01  0.10602440076E+04  0.10678168046E+04  0.12525373913E+03 0.  0.
          5    1    4    4  502    0  0.43497457156E+02  0.20059064778E+02  0.28217562816E+03  0.28625088644E+03  0.47000000000E+01 0. -1.
         -5    1    4    4    0  502 -0.23736453493E+02 -0.14027807040E+02  0.18268129745E+04  0.18270270749E+04  0.47000000000E+01 0. -1.
          5    1    5    5  503    0 -0.65871612630E+02 -0.24239939756E+02  0.78147547863E+03  0.78463536609E+03  0.47000000000E+01 0.  1.
         -5    1    5    5    0  503  0.46110608968E+02  0.18208682017E+02  0.27876852899E+03  0.28318143851E+03  0.47000000000E+01 0.  1.
<mgrwt>
<rscale>  0 0.27446051E+03</rscale>
<asrwt>0</asrwt>
<pdfrwt beam="1">  1        2 0.48848536E+00 0.27446051E+03</pdfrwt>
<pdfrwt beam="2">  1       -2 0.91247605E-03 0.27446051E+03</pdfrwt>
<totfact> 0.39787395E+03</totfact>
</mgrwt>
</event>
<event>
 9    1  0.2054950E-002  0.2738200E+03  0.7818608E-02  0.1099113E+00
          2   -1    0    0  501    0  0.00000000000E+00  0.00000000000E+00  0.25503492539E+03  0.25503492539E+03  0.00000000000E+00 0. -1.
         -2   -1    0    0    0  501 -0.00000000000E+00 -0.00000000000E+00 -0.73497194895E+02  0.73497194895E+02  0.00000000000E+00 0. -1.
         36    2    1    2    0    0  0.00000000000E+00 -0.71054273576E-14  0.18153773049E+03  0.32853212028E+03  0.27382002568E+03 0.  0.
         25    2    3    3    0    0 -0.23255650657E+02 -0.45441870163E+02  0.85705806604E+02  0.16319395656E+03  0.12915491985E+03 0.  0.
         25    2    3    3    0    0  0.23255650657E+02  0.45441870163E+02  0.95831923888E+02  0.16533816372E+03  0.12468825885E+03 0.  0.
          5    1    4    4  502    0  0.39319193220E+02  0.13700700991E+02  0.60058006952E+02  0.73230883937E+02  0.47000000000E+01 0. -1.
         -5    1    4    4    0  502 -0.62574843878E+02 -0.59142571153E+02  0.25647799651E+02  0.89963072624E+02  0.47000000000E+01 0. -1.
          5    1    5    5  503    0 -0.76085693884E+01  0.84041046817E+02  0.52909663961E+02  0.99711134878E+02  0.47000000000E+01 0. -1.
         -5    1    5    5    0  503  0.30864220046E+02 -0.38599176655E+02  0.42922259928E+02  0.65627028843E+02  0.47000000000E+01 0. -1.
<mgrwt>
<rscale>  0 0.27382003E+03</rscale>
<asrwt>0</asrwt>
<pdfrwt beam="1">  1        2 0.39236142E-01 0.27382003E+03</pdfrwt>
<pdfrwt beam="2">  1       -2 0.11307261E-01 0.27382003E+03</pdfrwt>
<totfact> 0.70493145E+03</totfact>
</mgrwt>
</event>
<event>
 9    1  0.2054950E-002  0.2746768E+03  0.7818608E-02  0.1098632E+00
          2   -1    0    0  501    0  0.00000000000E+00  0.00000000000E+00  0.39326783014E+03  0.39326783014E+03  0.00000000000E+00 0.  1.
         -2   -1    0    0    0  501 -0.00000000000E+00 -0.00000000000E+00 -0.47961820399E+02  0.47961820399E+02  0.00000000000E+00 0.  1.
         36    2    1    2    0    0 -0.35527136788E-14  0.00000000000E+00  0.34530600974E+03  0.44122965054E+03  0.27467683585E+03 0.  0.
         25    2    3    3    0    0 -0.24173968333E+02 -0.39659302858E+02  0.12813516822E+03  0.18565858173E+03  0.12606842026E+03 0.  0.
         25    2    3    3    0    0  0.24173968333E+02  0.39659302858E+02  0.21717084152E+03  0.25557106881E+03  0.12647590979E+03 0.  0.
          5    1    4    4  502    0 -0.54489376963E+02 -0.71105387966E+02  0.76789355985E+02  0.11808371434E+03  0.47000000000E+01 0.  1.
         -5    1    4    4    0  502  0.30315408630E+02  0.31446085108E+02  0.51345812235E+02  0.67574867392E+02  0.47000000000E+01 0.  1.
          5    1    5    5  503    0 -0.85508784175E+00 -0.30863825044E+02  0.15515567434E+03  0.15826774829E+03  0.47000000000E+01 0. -1.
         -5    1    5    5    0  503  0.25029056175E+02  0.70523127902E+02  0.62015167187E+02  0.97303320515E+02  0.47000000000E+01 0. -1.
<mgrwt>
<rscale>  0 0.27467684E+03</rscale>
<asrwt>0</asrwt>
<pdfrwt beam="1">  1        2 0.60502741E-01 0.27467684E+03</pdfrwt>
<pdfrwt beam="2">  1       -2 0.73787418E-02 0.27467684E+03</pdfrwt>
<totfact> 0.86706258E+03</totfact>
</mgrwt>
</event>
<event>
 9    1  0.2054950E-002  0.2752267E+03  0.7818608E-02  0.1098325E+00
         -2   -1    0    0    0  501 -0.00000000000E+00  0.00000000000E+00  0.32183938185E+02  0.32183938185E+02  0.00000000000E+00 0. -1.
          2   -1    0    0  501    0  0.00000000000E+00 -0.00000000000E+00 -0.58841257458E+03  0.58841257458E+03  0.00000000000E+00 0. -1.
         36    2    1    2    0    0  0.00000000000E+00  0.00000000000E+00 -0.55622863639E+03  0.62059651276E+03  0.27522669876E+03 0.  0.
         25    2    3    3    0    0 -0.31545025883E+02 -0.20625857226E+02 -0.37721392024E+03  0.39920758231E+03  0.12512328921E+03 0.  0.
         25    2    3    3    0    0  0.31545025883E+02  0.20625857226E+02 -0.17901471615E+03  0.22138893046E+03  0.12468470349E+03 0.  0.
          5    1    4    4  502    0  0.12805068991E+02  0.11719234212E+01 -0.33131997584E+03  0.33160271348E+03  0.47000000000E+01 0. -1.
         -5    1    4    4    0  502 -0.44350094874E+02 -0.21797780648E+02 -0.45893944403E+02  0.67604868829E+02  0.47000000000E+01 0. -1.
          5    1    5    5  503    0  0.40427560952E+02 -0.27139840457E+02 -0.16381605892E+02  0.51588813092E+02  0.47000000000E+01 0.  1.
         -5    1    5    5    0  503 -0.88825350694E+01  0.47765697684E+02 -0.16263311026E+03  0.16980011736E+03  0.47000000000E+01 0.  1.
<mgrwt>
<rscale>  0 0.27522670E+03</rscale>
<asrwt>0</asrwt>
<pdfrwt beam="1">  1        2 0.90524997E-01 0.27522670E+03</pdfrwt>
<pdfrwt beam="2">  1       -2 0.49513759E-02 0.27522670E+03</pdfrwt>
<totfact> 0.10210447E+04</totfact>
</mgrwt>
</event>
<event>
 9    1  0.2054950E-002  0.2745898E+03  0.7818608E-02  0.1098681E+00
          2   -1    0    0  501    0  0.00000000000E+00  0.00000000000E+00  0.26238386272E+03  0.26238386272E+03  0.00000000000E+00 0.  1.
         -2   -1    0    0    0  501 -0.00000000000E+00 -0.00000000000E+00 -0.71840880231E+02  0.71840880231E+02  0.00000000000E+00 0.  1.
         36    2    1    2    0    0  0.00000000000E+00  0.00000000000E+00  0.19054298249E+03  0.33422474295E+03  0.27458978609E+03 0.  0.
         25    2    3    3    0    0  0.62015648264E+02 -0.25351594658E+01  0.84954831977E+02  0.16208013959E+03  0.12328941767E+03 0.  0.
         25    2    3    3    0    0 -0.62015648264E+02  0.25351594658E+01  0.10558815052E+03  0.17214460337E+03  0.12096503328E+03 0.  0.
          5    1    4    4  502    0  0.36580734496E+02 -0.53773634571E+01  0.11584358901E+03  0.12169179631E+03  0.47000000000E+01 0. -1.
         -5    1    4    4    0  502  0.25434913768E+02  0.28422039913E+01 -0.30888757031E+02  0.40388343279E+02  0.47000000000E+01 0. -1.
          5    1    5    5  503    0 -0.97634549312E+02  0.47380078287E+01  0.89870689743E+02  0.13286754612E+03  0.47000000000E+01 0.  1.
         -5    1    5    5    0  503  0.35618901048E+02 -0.22028483628E+01  0.15717460772E+02  0.39277057246E+02  0.47000000000E+01 0.  1.
<mgrwt>
<rscale>  0 0.27458979E+03</rscale>
<asrwt>0</asrwt>
<pdfrwt beam="1">  1        2 0.40366747E-01 0.27458979E+03</pdfrwt>
<pdfrwt beam="2">  1       -2 0.11052443E-01 0.27458979E+03</pdfrwt>
<totfact> 0.70920986E+03</totfact>
</mgrwt>
</event>
<event>
 9    1  0.2054950E-002  0.2739332E+03  0.7818608E-02  0.1099049E+00
         -1   -1    0    0    0  501 -0.00000000000E+00  0.00000000000E+00  0.29916810288E+02  0.29916810288E+02  0.00000000000E+00 0. -1.
          1   -1    0    0  501    0  0.00000000000E+00 -0.00000000000E+00 -0.62706720200E+03  0.62706720200E+03  0.00000000000E+00 0. -1.
         36    2    1    2    0    0  0.71054273576E-14  0.00000000000E+00 -0.59715039171E+03  0.65698401228E+03  0.27393320733E+03 0.  0.
         25    2    3    3    0    0 -0.60074662309E+02 -0.27243513838E+02 -0.24926478643E+03  0.28102567697E+03  0.11176458861E+03 0.  0.
         25    2    3    3    0    0  0.60074662309E+02  0.27243513838E+02 -0.34788560528E+03  0.37595833531E+03  0.12636891007E+03 0.  0.
          5    1    4    4  502    0  0.26016498317E+02  0.11125547913E+01 -0.12122729656E+03  0.12408159974E+03  0.47000000000E+01 0.  1.
         -5    1    4    4    0  502 -0.86091160626E+02 -0.28356068630E+02 -0.12803748987E+03  0.15694407723E+03  0.47000000000E+01 0.  1.
          5    1    5    5  503    0  0.39988793602E+02  0.12981373356E+01 -0.17512911953E+02  0.43926994655E+02  0.47000000000E+01 0. -1.
         -5    1    5    5    0  503  0.20085868707E+02  0.25945376503E+02 -0.33037269333E+03  0.33203134066E+03  0.47000000000E+01 0. -1.
<mgrwt>
<rscale>  0 0.27393321E+03</rscale>
<asrwt>0</asrwt>
<pdfrwt beam="1">  1        1 0.96471871E-01 0.27393321E+03</pdfrwt>
<pdfrwt beam="2">  1       -1 0.46025865E-02 0.27393321E+03</pdfrwt>
<totfact> 0.65639447E+03</totfact>
</mgrwt>
</event>
<event>
 9    1  0.2054950E-002  0.2752021E+03  0.7818608E-02  0.1098339E+00
          2   -1    0    0  501    0  0.00000000000E+00  0.00000000000E+00  0.53205676669E+03  0.53205676669E+03  0.00000000000E+00 0.  1.
         -2   -1    0    0    0  501 -0.00000000000E+00 -0.00000000000E+00 -0.35586526844E+02  0.35586526844E+02  0.00000000000E+00 0.  1.
         36    2    1    2    0    0 -0.35527136788E-14  0.00000000000E+00  0.49647023985E+03  0.56764329354E+03  0.27520212507E+03 0.  0.
         25    2    3    3    0    0  0.88245009385E+01  0.49450005876E+02  0.33219485080E+03  0.35866350710E+03  0.12555045812E+03 0.  0.
         25    2    3    3    0    0 -0.88245009385E+01 -0.49450005876E+02  0.16427538905E+03  0.20897978643E+03  0.11900828875E+03 0.  0.
          5    1    4    4  502    0 -0.42978491689E+02 -0.18162377946E+01  0.45414665402E+02  0.62729827843E+02  0.47000000000E+01 0. -1.
         -5    1    4    4    0  502  0.51802992628E+02  0.51266243671E+02  0.28678018539E+03  0.29593367926E+03  0.47000000000E+01 0. -1.
          5    1    5    5  503    0  0.18310450332E+02  0.32269558853E+02  0.80444261383E+02  0.88712830016E+02  0.47000000000E+01 0.  1.
         -5    1    5    5    0  503 -0.27134951271E+02 -0.81719564729E+02  0.83831127669E+02  0.12026695642E+03  0.47000000000E+01 0.  1.
<mgrwt>
<rscale>  0 0.27520213E+03</rscale>
<asrwt>0</asrwt>
<pdfrwt beam="1">  1        2 0.81854882E-01 0.27520213E+03</pdfrwt>
<pdfrwt beam="2">  1       -2 0.54748507E-02 0.27520213E+03</pdfrwt>
<totfact> 0.98302042E+03</totfact>
</mgrwt>
</event>
<event>
 9    1  0.2054950E-002  0.2754881E+03  0.7818608E-02  0.1098179E+00
          4   -1    0    0  501    0  0.00000000000E+00  0.00000000000E+00  0.42545398307E+03  0.42545398307E+03  0.00000000000E+00 0. -1.
         -4   -1    0    0    0  501 -0.00000000000E+00 -0.00000000000E+00 -0.44595698148E+02  0.44595698148E+02  0.00000000000E+00 0. -1.
         36    2    1    2    0    0 -0.35527136788E-14  0.14210854715E-13  0.38085828492E+03  0.47004968122E+03  0.27548805713E+03 0.  0.
         25    2    3    3    0    0  0.13775845014E+02 -0.48130566375E+02  0.26666673484E+03  0.29673460718E+03  0.12014139296E+03 0.  0.
         25    2    3    3    0    0 -0.13775845014E+02  0.48130566375E+02  0.11419155008E+03  0.17331507403E+03  0.12038305302E+03 0.  0.
          5    1    4    4  502    0 -0.19795021080E+02  0.23452617868E+02  0.16480155248E+03  0.16770065547E+03  0.47000000000E+01 0.  1.
         -5    1    4    4    0  502  0.33570866094E+02 -0.71583184243E+02  0.10186518236E+03  0.12903395171E+03  0.47000000000E+01 0.  1.
          5    1    5    5  503    0  0.17763797297E+02  0.55774112491E+02  0.12555641856E+03  0.13861027509E+03  0.47000000000E+01 0. -1.
         -5    1    5    5    0  503 -0.31539642311E+02 -0.76435461167E+01 -0.11364868482E+02  0.34704798947E+02  0.47000000000E+01 0. -1.
<mgrwt>
<rscale>  0 0.27548806E+03</rscale>
<asrwt>0</asrwt>
<pdfrwt beam="1">  1        4 0.65454456E-01 0.27548806E+03</pdfrwt>
<pdfrwt beam="2">  1       -4 0.68608769E-02 0.27548806E+03</pdfrwt>
<totfact> 0.58835962E+02</totfact>
</mgrwt>
</event>
<event>
 9    1  0.2054950E-002  0.2737318E+03  0.7818608E-02  0.1099163E+00
          1   -1    0    0  501    0  0.00000000000E+00  0.00000000000E+00  0.55588395089E+03  0.55588395089E+03  0.00000000000E+00 0.  1.
         -1   -1    0    0    0  501 -0.00000000000E+00 -0.00000000000E+00 -0.33698168714E+02  0.33698168714E+02  0.00000000000E+00 0.  1.
         36    2    1    2    0    0  0.00000000000E+00  0.00000000000E+00  0.52218578218E+03  0.58958211961E+03  0.27373177501E+03 0.  0.
         25    2    3    3    0    0 -0.24751366085E+02  0.47909032631E+02  0.29179871317E+03  0.32243823553E+03  0.12614286026E+03 0.  0.
         25    2    3    3    0    0  0.24751366085E+02 -0.47909032631E+02  0.23038706901E+03  0.26714388407E+03  0.12401511078E+03 0.  0.
          5    1    4    4  502    0 -0.61151714491E+02 -0.20444424882E+01  0.21585371678E+03  0.22440728370E+03  0.47000000000E+01 0. -1.
         -5    1    4    4    0  502  0.36400348406E+02  0.49953475119E+02  0.75944996391E+02  0.98030951834E+02  0.47000000000E+01 0. -1.
          5    1    5    5  503    0 -0.16385578012E+02  0.28286279108E+01  0.18875252234E+03  0.18954179748E+03  0.47000000000E+01 0. -1.
         -5    1    5    5    0  503  0.41136944097E+02 -0.50737660542E+02  0.41634546664E+02  0.77602086588E+02  0.47000000000E+01 0. -1.
<mgrwt>
<rscale>  0 0.27373178E+03</rscale>
<asrwt>0</asrwt>
<pdfrwt beam="1">  1        1 0.85520601E-01 0.27373178E+03</pdfrwt>
<pdfrwt beam="2">  1       -1 0.51843341E-02 0.27373178E+03</pdfrwt>
<totfact> 0.64885504E+03</totfact>
</mgrwt>
</event>
<event>
 9    1  0.2054950E-002  0.2755696E+03  0.7818608E-02  0.1098134E+00
         -2   -1    0    0    0  501 -0.00000000000E+00  0.00000000000E+00  0.16999135098E+02  0.16999135098E+02  0.00000000000E+00 0.  1.
          2   -1    0    0  501    0  0.00000000000E+00 -0.00000000000E+00 -0.11168010685E+04  0.11168010685E+04  0.00000000000E+00 0.  1.
         36    2    1    2    0    0  0.00000000000E+00  0.00000000000E+00 -0.10998019334E+04  0.11338002036E+04  0.27556960820E+03 0.  0.
         25    2    3    3    0    0 -0.43208311309E+02  0.26608777678E+01 -0.41375478268E+03  0.43459348403E+03  0.12571570202E+03 0.  0.
         25    2    3    3    0    0  0.43208311309E+02 -0.26608777678E+01 -0.68604715077E+03  0.69920671962E+03  0.12788786197E+03 0.  0.
          5    1    4    4  502    0 -0.57993344505E+02  0.42434567130E+02 -0.13905493692E+03  0.15659593218E+03  0.47000000000E+01 0.  1.
         -5    1    4    4    0  502  0.14785033196E+02 -0.39773689362E+02 -0.27469984576E+03  0.27799755184E+03  0.47000000000E+01 0.  1.
          5    1    5    5  503    0  0.66901615605E+02  0.38761130332E+02 -0.28630312651E+03  0.29659706951E+03  0.47000000000E+01 0.  1.
         -5    1    5    5    0  503 -0.23693304296E+02 -0.41422008100E+02 -0.39974402426E+03  0.40260965010E+03  0.47000000000E+01 0.  1.
<mgrwt>
<rscale>  0 0.27556961E+03</rscale>
<asrwt>0</asrwt>
<pdfrwt beam="1">  1        2 0.17181560E+00 0.27556961E+03</pdfrwt>
<pdfrwt beam="2">  1       -2 0.26152508E-02 0.27556961E+03</pdfrwt>
<totfact> 0.11585532E+04</totfact>
</mgrwt>
</event>
<event>
 9    1  0.2054950E-002  0.2761055E+03  0.7818608E-02  0.1097835E+00
          1   -1    0    0  501    0  0.00000000000E+00  0.00000000000E+00  0.14276668290E+04  0.14276668290E+04  0.00000000000E+00 0. -1.
         -1   -1    0    0    0  501 -0.00000000000E+00 -0.00000000000E+00 -0.13349447847E+02  0.13349447847E+02  0.00000000000E+00 0. -1.
         36    2    1    2    0    0  0.71054273576E-14  0.00000000000E+00  0.14143173812E+04  0.14410162768E+04  0.27610551517E+03 0.  0.
         25    2    3    3    0    0 -0.49853264081E+02 -0.41221885171E+01  0.80306588534E+03  0.81500573509E+03  0.12968111524E+03 0.  0.
         25    2    3    3    0    0  0.49853264081E+02  0.41221885171E+01  0.61125149581E+03  0.62601054176E+03  0.12553273232E+03 0.  0.
          5    1    4    4  502    0 -0.17659167559E+02 -0.45251645808E+02  0.11476942636E+03  0.12471434911E+03  0.47000000000E+01 0.  1.
         -5    1    4    4    0  502 -0.32194096523E+02  0.41129457291E+02  0.68829645898E+03  0.69029138597E+03  0.47000000000E+01 0.  1.
          5    1    5    5  503    0 -0.95434703749E+01 -0.11676707231E+02  0.48750906320E+03  0.48776490241E+03  0.47000000000E+01 0. -1.
         -5    1    5    5    0  503  0.59396734456E+02  0.15798895749E+02  0.12374243261E+03  0.13824563935E+03  0.47000000000E+01 0. -1.
<mgrwt>
<rscale>  0 0.27610552E+03</rscale>
<asrwt>0</asrwt>
<pdfrwt beam="1">  1        1 0.21964093E+00 0.27610552E+03</pdfrwt>
<pdfrwt beam="2">  1       -1 0.20537623E-02 0.27610552E+03</pdfrwt>
<totfact> 0.52745373E+03</totfact>
</mgrwt>
</event>
<event>
 9    1  0.2054950E-002  0.2745024E+03  0.7818608E-02  0.1098730E+00
         -2   -1    0    0    0  501 -0.00000000000E+00  0.00000000000E+00  0.12285622198E+02  0.12285622198E+02  0.00000000000E+00 0. -1.
          2   -1    0    0  501    0  0.00000000000E+00 -0.00000000000E+00 -0.15333284696E+04  0.15333284696E+04  0.00000000000E+00 0. -1.
         36    2    1    2    0    0  0.00000000000E+00  0.00000000000E+00 -0.15210428474E+04  0.15456140918E+04  0.27450241735E+03 0.  0.
         25    2    3    3    0    0  0.12092745887E+02  0.33866459406E+02 -0.99121596019E+03  0.99964930645E+03  0.12448487690E+03 0.  0.
         25    2    3    3    0    0 -0.12092745887E+02 -0.33866459406E+02 -0.52982688720E+03  0.54596478533E+03  0.12675900303E+03 0.  0.
          5    1    4    4  502    0  0.33872201047E+02  0.13500834772E+02 -0.93599205930E+03  0.93671384297E+03  0.47000000000E+01 0. -1.
         -5    1    4    4    0  502 -0.21779455160E+02  0.20365624634E+02 -0.55223900887E+02  0.62935463476E+02  0.47000000000E+01 0. -1.
          5    1    5    5  503    0 -0.35119233981E+02 -0.76178890783E+01 -0.49533722611E+03  0.49666130351E+03  0.47000000000E+01 0.  1.
         -5    1    5    5    0  503  0.23026488094E+02 -0.26248570328E+02 -0.34489661087E+02  0.49303481825E+02  0.47000000000E+01 0.  1.
<mgrwt>
<rscale>  0 0.27450242E+03</rscale>
<asrwt>0</asrwt>
<pdfrwt beam="1">  1        2 0.23589676E+00 0.27450242E+03</pdfrwt>
<pdfrwt beam="2">  1       -2 0.18900951E-02 0.27450242E+03</pdfrwt>
<totfact> 0.11001521E+04</totfact>
</mgrwt>
</event>
<event>
 9    1  0.2054950E-002  0.2750417E+03  0.7818608E-02  0.1098428E+00
          1   -1    0    0  501    0  0.00000000000E+00  0.00000000000E+00  0.65743473804E+03  0.65743473804E+03  0.00000000000E+00 0. -1.
         -1   -1    0    0    0  501 -0.00000000000E+00 -0.00000000000E+00 -0.28766321770E+02  0.28766321770E+02  0.00000000000E+00 0. -1.
         36    2    1    2    0    0 -0.71054273576E-14  0.00000000000E+00  0.62866841627E+03  0.68620105981E+03  0.27504166388E+03 0.  0.
         25    2    3    3    0    0  0.32971335276E+01  0.50482454313E+02  0.31996933111E+03  0.34955270567E+03  0.13132925001E+03 0.  0.
         25    2    3    3    0    0 -0.32971335276E+01 -0.50482454313E+02  0.30869908516E+03  0.33664835414E+03  0.12440916318E+03 0.  0.
          5    1    4    4  502    0 -0.52138673242E+02 -0.11132813242E+02  0.86019708273E+02  0.10131071508E+03  0.47000000000E+01 0.  1.
         -5    1    4    4    0  502  0.55435806770E+02  0.61615267555E+02  0.23394962284E+03  0.24824199059E+03  0.47000000000E+01 0.  1.
          5    1    5    5  503    0 -0.61432471880E+02 -0.30482496123E+02  0.12202366956E+03  0.14005355084E+03  0.47000000000E+01 0.  1.
         -5    1    5    5    0  503  0.58135338353E+02 -0.19999958190E+02  0.18667541560E+03  0.19659480330E+03  0.47000000000E+01 0.  1.
<mgrwt>
<rscale>  0 0.27504166E+03</rscale>
<asrwt>0</asrwt>
<pdfrwt beam="1">  1        1 0.10114379E+00 0.27504166E+03</pdfrwt>
<pdfrwt beam="2">  1       -1 0.44255884E-02 0.27504166E+03</pdfrwt>
<totfact> 0.65092389E+03</totfact>
</mgrwt>
</event>
<event>
 9    1  0.2054950E-002  0.2756389E+03  0.7818608E-02  0.1098095E+00
          2   -1    0    0  501    0  0.00000000000E+00  0.00000000000E+00  0.10821915985E+04  0.10821915985E+04  0.00000000000E+00 0.  1.
         -2   -1    0    0    0  501 -0.00000000000E+00 -0.00000000000E+00 -0.17551611841E+02  0.17551611841E+02  0.00000000000E+00 0.  1.
         36    2    1    2    0    0  0.14210854715E-13 -0.88817841970E-15  0.10646399867E+04  0.10997432103E+04  0.27563894409E+03 0.  0.
         25    2    3    3    0    0  0.45559511148E+02  0.58230912173E+00  0.68625313506E+03  0.69904683650E+03  0.12508839312E+03 0.  0.
         25    2    3    3    0    0 -0.45559511148E+02 -0.58230912173E+00  0.37838685160E+03  0.40069637385E+03  0.12371324266E+03 0.  0.
          5    1    4    4  502    0 -0.35654872975E+02 -0.25868588319E+02  0.16608091126E+03  0.17188779164E+03  0.47000000000E+01 0. -1.
         -5    1    4    4    0  502  0.81214384123E+02  0.26450897441E+02  0.52017222380E+03  0.52715904486E+03  0.47000000000E+01 0. -1.
          5    1    5    5  503    0 -0.68493986996E+02 -0.56805620327E+01  0.10088483740E+03  0.12216192311E+03  0.47000000000E+01 0.  1.
         -5    1    5    5    0  503  0.22934475848E+02  0.50982529110E+01  0.27750201420E+03  0.27853445074E+03  0.47000000000E+01 0.  1.
<mgrwt>
<rscale>  0 0.27563894E+03</rscale>
<asrwt>0</asrwt>
<pdfrwt beam="1">  1        2 0.16649096E+00 0.27563894E+03</pdfrwt>
<pdfrwt beam="2">  1       -2 0.27002488E-02 0.27563894E+03</pdfrwt>
<totfact> 0.11578751E+04</totfact>
</mgrwt>
</event>
<event>
 9    1  0.2054950E-002  0.2798789E+03  0.7818608E-02  0.1095755E+00
          2   -1    0    0  501    0  0.00000000000E+00  0.00000000000E+00  0.15856652017E+04  0.15856652017E+04  0.00000000000E+00 0.  1.
         -2   -1    0    0    0  501 -0.00000000000E+00 -0.00000000000E+00 -0.12350056341E+02  0.12350056341E+02  0.00000000000E+00 0.  1.
         36    2    1    2    0    0  0.00000000000E+00  0.00000000000E+00  0.15733151453E+04  0.15980152580E+04  0.27987893510E+03 0.  0.
         25    2    3    3    0    0  0.25598489202E+02  0.28957102040E+02  0.68254679125E+03  0.69776091264E+03  0.13966521602E+03 0.  0.
         25    2    3    3    0    0 -0.25598489202E+02 -0.28957102040E+02  0.89076835410E+03  0.90025434539E+03  0.12448224495E+03 0.  0.
          5    1    4    4  502    0  0.15582799734E+02 -0.21602390168E+02  0.59813118669E+03  0.59874242659E+03  0.47000000000E+01 0.  1.
         -5    1    4    4    0  502  0.10015689468E+02  0.50559492208E+02  0.84415604558E+02  0.99018486056E+02  0.47000000000E+01 0.  1.
          5    1    5    5  503    0 -0.67975886480E+01 -0.75784487096E+02  0.63101822421E+03  0.63560647022E+03  0.47000000000E+01 0. -1.
         -5    1    5    5    0  503 -0.18800900554E+02  0.46827385056E+02  0.25975012989E+03  0.26464787517E+03  0.47000000000E+01 0. -1.
<mgrwt>
<rscale>  0 0.27987894E+03</rscale>
<asrwt>0</asrwt>
<pdfrwt beam="1">  1        2 0.24394833E+00 0.27987894E+03</pdfrwt>
<pdfrwt beam="2">  1       -2 0.19000099E-02 0.27987894E+03</pdfrwt>
<totfact> 0.10243013E+04</totfact>
</mgrwt>
</event>
<event>
 9    1  0.2054950E-002  0.2749123E+03  0.7818608E-02  0.1098501E+00
         -2   -1    0    0    0  501 -0.00000000000E+00  0.00000000000E+00  0.62503819513E+01  0.62503819513E+01  0.00000000000E+00 0. -1.
          2   -1    0    0  501    0  0.00000000000E+00 -0.00000000000E+00 -0.30228855287E+04  0.30228855287E+04  0.00000000000E+00 0. -1.
         36    2    1    2    0    0 -0.53290705182E-14  0.00000000000E+00 -0.30166351468E+04  0.30291359107E+04  0.27491227073E+03 0.  0.
         25    2    3    3    0    0 -0.73725686746E+01 -0.35350102832E+01 -0.24735799617E+04  0.24759664192E+04  0.10837449535E+03 0.  0.
         25    2    3    3    0    0  0.73725686746E+01  0.35350102832E+01 -0.54305518507E+03  0.55316949142E+03  0.10497952728E+03 0.  0.
          5    1    4    4  502    0 -0.29253034125E+01 -0.43727931709E+02 -0.20407966080E+04  0.20412725381E+04  0.47000000000E+01 0. -1.
         -5    1    4    4    0  502 -0.44472652620E+01  0.40192921426E+02 -0.43278335370E+03  0.43469388118E+03  0.47000000000E+01 0. -1.
          5    1    5    5  503    0 -0.43327679323E+02  0.22811576288E+02 -0.30708302449E+03  0.31099795777E+03  0.47000000000E+01 0. -1.
         -5    1    5    5    0  503  0.50700247997E+02 -0.19276566005E+02 -0.23597216058E+03  0.24217153365E+03  0.47000000000E+01 0. -1.
<mgrwt>
<rscale>  0 0.27491227E+03</rscale>
<asrwt>0</asrwt>
<pdfrwt beam="1">  1        2 0.46505875E+00 0.27491227E+03</pdfrwt>
<pdfrwt beam="2">  1       -2 0.96159839E-03 0.27491227E+03</pdfrwt>
<totfact> 0.45576254E+03</totfact>
</mgrwt>
</event>
<event>
 9    1  0.2054950E-002  0.2754144E+03  0.7818608E-02  0.1098220E+00
         -1   -1    0    0    0  501 -0.00000000000E+00  0.00000000000E+00  0.24809165671E+02  0.24809165671E+02  0.00000000000E+00 0. -1.
          1   -1    0    0  501    0  0.00000000000E+00 -0.00000000000E+00 -0.76436557089E+03  0.76436557089E+03  0.00000000000E+00 0. -1.
         36    2    1    2    0    0  0.00000000000E+00 -0.71054273576E-14 -0.73955640522E+03  0.78917473656E+03  0.27541439382E+03 0.  0.
         25    2    3    3    0    0 -0.51669077068E+02  0.15309845811E+02 -0.35127443465E+03  0.37842962611E+03  0.13004294895E+03 0.  0.
         25    2    3    3    0    0  0.51669077068E+02 -0.15309845811E+02 -0.38828197057E+03  0.41074511046E+03  0.12265631737E+03 0.  0.
          5    1    4    4  502    0 -0.10681079830E+02  0.64784306674E+02 -0.10549148323E+03  0.12434482254E+03  0.47000000000E+01 0.  1.
         -5    1    4    4    0  502 -0.40987997238E+02 -0.49474460863E+02 -0.24578295142E+03  0.25408480357E+03  0.47000000000E+01 0.  1.
          5    1    5    5  503    0  0.90812888320E+02 -0.36783194086E+01 -0.29709250346E+03  0.31071941737E+03  0.47000000000E+01 0.  1.
         -5    1    5    5    0  503 -0.39143811252E+02 -0.11631526402E+02 -0.91189467106E+02  0.10002569308E+03  0.47000000000E+01 0.  1.
<mgrwt>
<rscale>  0 0.27541439E+03</rscale>
<asrwt>0</asrwt>
<pdfrwt beam="1">  1        1 0.11759469E+00 0.27541439E+03</pdfrwt>
<pdfrwt beam="2">  1       -1 0.38167951E-02 0.27541439E+03</pdfrwt>
<totfact> 0.65041614E+03</totfact>
</mgrwt>
</event>
<event>
 9    1  0.2054950E-002  0.2743945E+03  0.7818608E-02  0.1098791E+00
          1   -1    0    0  501    0  0.00000000000E+00  0.00000000000E+00  0.13930991377E+02  0.13930991377E+02  0.00000000000E+00 0. -1.
         -1   -1    0    0    0  501 -0.00000000000E+00 -0.00000000000E+00 -0.13511658558E+04  0.13511658558E+04  0.00000000000E+00 0. -1.
         36    2    1    2    0    0  0.00000000000E+00  0.00000000000E+00 -0.13372348644E+04  0.13650968472E+04  0.27439445975E+03 0.  0.
         25    2    3    3    0    0 -0.24792661322E+02 -0.11795210567E+02 -0.90485004342E+03  0.91461858622E+03  0.13045977975E+03 0.  0.
         25    2    3    3    0    0  0.24792661322E+02  0.11795210567E+02 -0.43238482099E+03  0.45047826094E+03  0.12337028456E+03 0.  0.
          5    1    4    4  502    0  0.39770647190E+02  0.13319612057E+02 -0.61973367879E+03  0.62116909056E+03  0.47000000000E+01 0. -1.
         -5    1    4    4    0  502 -0.64563308511E+02 -0.25114822625E+02 -0.28511636464E+03  0.29344949567E+03  0.47000000000E+01 0. -1.
          5    1    5    5  503    0 -0.40951073153E+01 -0.53040710546E+02 -0.14832204801E+03  0.15764392410E+03  0.47000000000E+01 0. -1.
         -5    1    5    5    0  503  0.28887768637E+02  0.64835921113E+02 -0.28406277298E+03  0.29283433684E+03  0.47000000000E+01 0. -1.
<mgrwt>
<rscale>  0 0.27439446E+03</rscale>
<asrwt>0</asrwt>
<pdfrwt beam="1">  1        1 0.21432296E-02 0.27439446E+03</pdfrwt>
<pdfrwt beam="2">  1       -1 0.20787166E+00 0.27439446E+03</pdfrwt>
<totfact> 0.81182089E+02</totfact>
</mgrwt>
</event>
<event>
 9    1  0.2054950E-002  0.2747291E+03  0.7818608E-02  0.1098603E+00
         -1   -1    0    0    0  501 -0.00000000000E+00  0.00000000000E+00  0.15061791969E+04  0.15061791969E+04  0.00000000000E+00 0. -1.
          1   -1    0    0  501    0  0.00000000000E+00 -0.00000000000E+00 -0.12527742460E+02  0.12527742460E+02  0.00000000000E+00 0. -1.
         36    2    1    2    0    0  0.71054273576E-14  0.00000000000E+00  0.14936514545E+04  0.15187069394E+04  0.27472913991E+03 0.  0.
         25    2    3    3    0    0  0.51249329963E+02  0.56827506310E+01  0.67942204567E+03  0.69347308740E+03  0.12896441108E+03 0.  0.
         25    2    3    3    0    0 -0.51249329963E+02 -0.56827506310E+01  0.81422940878E+03  0.82523385198E+03  0.12402658120E+03 0.  0.
          5    1    4    4  502    0  0.56445276901E+02 -0.22740259265E+02  0.13377015241E+03  0.14703650007E+03  0.47000000000E+01 0. -1.
         -5    1    4    4    0  502 -0.51959469386E+01  0.28423009896E+02  0.54565189326E+03  0.54643658733E+03  0.47000000000E+01 0. -1.
          5    1    5    5  503    0 -0.78803119702E+02  0.94374522797E+01  0.31098946242E+03  0.32099148419E+03  0.47000000000E+01 0. -1.
         -5    1    5    5    0  503  0.27553789740E+02 -0.15120202911E+02  0.50323994636E+03  0.50424236779E+03  0.47000000000E+01 0. -1.
<mgrwt>
<rscale>  0 0.27472914E+03</rscale>
<asrwt>0</asrwt>
<pdfrwt beam="1">  1        1 0.19273462E-02 0.27472914E+03</pdfrwt>
<pdfrwt beam="2">  1       -1 0.23171973E+00 0.27472914E+03</pdfrwt>
<totfact> 0.66075371E+02</totfact>
</mgrwt>
</event>
<event>
 9    1  0.2054950E-002  0.2747583E+03  0.7818608E-02  0.1098587E+00
         -1   -1    0    0    0  501 -0.00000000000E+00  0.00000000000E+00  0.33361607297E+03  0.33361607297E+03  0.00000000000E+00 0.  1.
          1   -1    0    0  501    0  0.00000000000E+00 -0.00000000000E+00 -0.56571126856E+02  0.56571126856E+02  0.00000000000E+00 0.  1.
         36    2    1    2    0    0  0.00000000000E+00 -0.71054273576E-14  0.27704494612E+03  0.39018719983E+03  0.27475834608E+03 0.  0.
         25    2    3    3    0    0  0.96049361850E+01 -0.26407676651E+02  0.22346928117E+03  0.25566000028E+03  0.12097064078E+03 0.  0.
         25    2    3    3    0    0 -0.96049361850E+01  0.26407676651E+02  0.53575664949E+02  0.13452719955E+03  0.12015654522E+03 0.  0.
          5    1    4    4  502    0 -0.31638944587E+02 -0.43098772391E+02  0.19587241689E+03  0.20309264067E+03  0.47000000000E+01 0.  1.
         -5    1    4    4    0  502  0.41243880772E+02  0.16691095741E+02  0.27596864278E+02  0.52567359608E+02  0.47000000000E+01 0.  1.
          5    1    5    5  503    0 -0.13622136609E+02 -0.67763522496E+01 -0.35696104353E+02  0.39086870194E+02  0.47000000000E+01 0. -1.
         -5    1    5    5    0  503  0.40172004235E+01  0.33184028900E+02  0.89271769302E+02  0.95440329356E+02  0.47000000000E+01 0. -1.
<mgrwt>
<rscale>  0 0.27475835E+03</rscale>
<asrwt>0</asrwt>
<pdfrwt beam="1">  1        1 0.87032505E-02 0.27475835E+03</pdfrwt>
<pdfrwt beam="2">  1       -1 0.51325549E-01 0.27475835E+03</pdfrwt>
<totfact> 0.30206398E+03</totfact>
</mgrwt>
</event>
<event>
 9    1  0.2054950E-002  0.2768478E+03  0.7818608E-02  0.1097423E+00
          1   -1    0    0  501    0  0.00000000000E+00  0.00000000000E+00  0.20854920896E+04  0.20854920896E+04  0.00000000000E+00 0. -1.
         -1   -1    0    0    0  501 -0.00000000000E+00 -0.00000000000E+00 -0.91878467166E+01  0.91878467166E+01  0.00000000000E+00 0. -1.
         36    2    1    2    0    0  0.14210854715E-13  0.71054273576E-14  0.20763042429E+04  0.20946799363E+04  0.27684784014E+03 0.  0.
         25    2    3    3    0    0  0.42185281565E+02  0.23499494779E+02  0.12019467827E+04  0.12096395135E+04  0.12735721464E+03 0.  0.
         25    2    3    3    0    0 -0.42185281565E+02 -0.23499494779E+02  0.87435746022E+03  0.88504042278E+03  0.12831117440E+03 0.  0.
          5    1    4    4  502    0  0.31004330644E+02 -0.35358628742E+02  0.92690652468E+03  0.92811060583E+03  0.47000000000E+01 0.  1.
         -5    1    4    4    0  502  0.11180950921E+02  0.58858123521E+02  0.27504025798E+03  0.28152890771E+03  0.47000000000E+01 0.  1.
          5    1    5    5  503    0  0.42828781874E+01 -0.66959902699E+02  0.31789809450E+03  0.32493577843E+03  0.47000000000E+01 0.  1.
         -5    1    5    5    0  503 -0.46468159752E+02  0.43460407921E+02  0.55645936572E+03  0.56010464435E+03  0.47000000000E+01 0.  1.
<mgrwt>
<rscale>  0 0.27684784E+03</rscale>
<asrwt>0</asrwt>
<pdfrwt beam="1">  1        1 0.32084456E+00 0.27684784E+03</pdfrwt>
<pdfrwt beam="2">  1       -1 0.14135165E-02 0.27684784E+03</pdfrwt>
<totfact> 0.33780563E+03</totfact>
</mgrwt>
</event>
<event>
 9    1  0.2054950E-002  0.2767447E+03  0.7818608E-02  0.1097480E+00
          4   -1    0    0  501    0  0.00000000000E+00  0.00000000000E+00  0.42798096145E+03  0.42798096145E+03  0.00000000000E+00 0.  1.
         -4   -1    0    0    0  501 -0.00000000000E+00 -0.00000000000E+00 -0.44737758147E+02  0.44737758147E+02  0.00000000000E+00 0.  1.
         36    2    1    2    0    0 -0.10658141036E-13  0.14210854715E-13  0.38324320330E+03  0.47271871960E+03  0.27674471084E+03 0.  0.
         25    2    3    3    0    0 -0.15120009137E+02  0.59885613688E+02  0.23406107770E+03  0.27102666915E+03  0.12188505197E+03 0.  0.
         25    2    3    3    0    0  0.15120009137E+02 -0.59885613688E+02  0.14918212561E+03  0.20169205045E+03  0.12086966208E+03 0.  0.
          5    1    4    4  502    0  0.25182248198E+02  0.14866073683E+02  0.38667660112E+00  0.29620690232E+02  0.47000000000E+01 0. -1.
         -5    1    4    4    0  502 -0.40302257335E+02  0.45019540006E+02  0.23367440110E+03  0.24140597892E+03  0.47000000000E+01 0. -1.
          5    1    5    5  503    0 -0.53107662610E+02 -0.23876465009E+02  0.62163763531E+02  0.85304940687E+02  0.47000000000E+01 0. -1.
         -5    1    5    5    0  503  0.68227671747E+02 -0.36009148679E+02  0.87018362074E+02  0.11638710976E+03  0.47000000000E+01 0. -1.
<mgrwt>
<rscale>  0 0.27674471E+03</rscale>
<asrwt>0</asrwt>
<pdfrwt beam="1">  1        4 0.65843222E-01 0.27674471E+03</pdfrwt>
<pdfrwt beam="2">  1       -4 0.68827323E-02 0.27674471E+03</pdfrwt>
<totfact> 0.57820425E+02</totfact>
</mgrwt>
</event>
<event>
 9    1  0.2054950E-002  0.2738298E+03  0.7818608E-02  0.1099108E+00
         -1   -1    0    0    0  501 -0.00000000000E+00  0.00000000000E+00  0.58759077841E+02  0.58759077841E+02  0.00000000000E+00 0. -1.
          1   -1    0    0  501    0  0.00000000000E+00 -0.00000000000E+00 -0.31902623311E+03  0.31902623311E+03  0.00000000000E+00 0. -1.
         36    2    1    2    0    0  0.71054273576E-14 -0.35527136788E-14 -0.26026715526E+03  0.37778531095E+03  0.27382978117E+03 0.  0.
         25    2    3    3    0    0 -0.52106837027E+02 -0.20656314505E+01 -0.12273189986E+03  0.18271822517E+03  0.12491373531E+03 0.  0.
         25    2    3    3    0    0  0.52106837027E+02  0.20656314505E+01 -0.13753525540E+03  0.19506708577E+03  0.12812428410E+03 0.  0.
          5    1    4    4  502    0  0.60822698836E+01  0.82792418453E+01  0.22870016648E+02  0.25508185234E+02  0.47000000000E+01 0. -1.
         -5    1    4    4    0  502 -0.58189106911E+02 -0.10344873296E+02 -0.14560191651E+03  0.15721003994E+03  0.47000000000E+01 0. -1.
          5    1    5    5  503    0  0.75281934711E+02  0.45214163219E+02 -0.10008917729E+03  0.13323521929E+03  0.47000000000E+01 0. -1.
         -5    1    5    5    0  503 -0.23175097684E+02 -0.43148531768E+02 -0.37446078111E+02  0.61831866479E+02  0.47000000000E+01 0. -1.
<mgrwt>
<rscale>  0 0.27382978E+03</rscale>
<asrwt>0</asrwt>
<pdfrwt beam="1">  1        1 0.49080958E-01 0.27382978E+03</pdfrwt>
<pdfrwt beam="2">  1       -1 0.90398583E-02 0.27382978E+03</pdfrwt>
<totfact> 0.57380247E+03</totfact>
</mgrwt>
</event>
<event>
 9    1  0.2054950E-002  0.2750383E+03  0.7818608E-02  0.1098430E+00
         -2   -1    0    0    0  501 -0.00000000000E+00  0.00000000000E+00  0.18272928025E+03  0.18272928025E+03  0.00000000000E+00 0.  1.
          2   -1    0    0  501    0  0.00000000000E+00 -0.00000000000E+00 -0.10349470921E+03  0.10349470921E+03  0.00000000000E+00 0.  1.
         36    2    1    2    0    0  0.00000000000E+00  0.00000000000E+00  0.79234571044E+02  0.28622398946E+03  0.27503827896E+03 0.  0.
         25    2    3    3    0    0 -0.28055384309E+02  0.38313700328E+02 -0.33491886323E+01  0.13212547864E+03  0.12325129136E+03 0.  0.
         25    2    3    3    0    0  0.28055384309E+02 -0.38313700328E+02  0.82583759676E+02  0.15409851081E+03  0.12112485068E+03 0.  0.
          5    1    4    4  502    0 -0.50177225357E+02  0.60291274414E+01 -0.49866089867E+02  0.71153504769E+02  0.47000000000E+01 0. -1.
         -5    1    4    4    0  502  0.22121841048E+02  0.32284572886E+02  0.46516901234E+02  0.60971973875E+02  0.47000000000E+01 0. -1.
          5    1    5    5  503    0  0.18927557413E+02 -0.53526681465E+02 -0.11604536801E+02  0.58138742098E+02  0.47000000000E+01 0.  1.
         -5    1    5    5    0  503  0.91278268959E+01  0.15212981138E+02  0.94188296477E+02  0.95959768717E+02  0.47000000000E+01 0.  1.
<mgrwt>
<rscale>  0 0.27503828E+03</rscale>
<asrwt>0</asrwt>
<pdfrwt beam="1">  1        2 0.15922263E-01 0.27503828E+03</pdfrwt>
<pdfrwt beam="2">  1       -2 0.28112197E-01 0.27503828E+03</pdfrwt>
<totfact> 0.41539631E+03</totfact>
</mgrwt>
</event>
<event>
 9    1  0.2054950E-002  0.2749210E+03  0.7818608E-02  0.1098496E+00
         -2   -1    0    0    0  501 -0.00000000000E+00  0.00000000000E+00  0.13439242781E+03  0.13439242781E+03  0.00000000000E+00 0.  1.
          2   -1    0    0  501    0  0.00000000000E+00 -0.00000000000E+00 -0.14059857358E+03  0.14059857358E+03  0.00000000000E+00 0.  1.
         36    2    1    2    0    0  0.00000000000E+00 -0.17763568394E-14 -0.62061457668E+01  0.27499100138E+03  0.27492096064E+03 0.  0.
         25    2    3    3    0    0 -0.23353757187E+02  0.13562194354E+02  0.54994760315E+02  0.13204717454E+03  0.11697308045E+03 0.  0.
         25    2    3    3    0    0  0.23353757187E+02 -0.13562194354E+02 -0.61200906082E+02  0.14294382685E+03  0.12632519795E+03 0.  0.
          5    1    4    4  502    0 -0.15920049637E+02  0.43604544392E+02 -0.20013971005E+02  0.50768625227E+02  0.47000000000E+01 0.  1.
         -5    1    4    4    0  502 -0.74337075503E+01 -0.30042350038E+02  0.75008731320E+02  0.81278549310E+02  0.47000000000E+01 0.  1.
          5    1    5    5  503    0  0.60238742682E+02 -0.25335136858E+02  0.54237407472E+01  0.65742545153E+02  0.47000000000E+01 0.  1.
         -5    1    5    5    0  503 -0.36884985495E+02  0.11772942504E+02 -0.66624646829E+02  0.77201281695E+02  0.47000000000E+01 0.  1.
<mgrwt>
<rscale>  0 0.27492096E+03</rscale>
<asrwt>0</asrwt>
<pdfrwt beam="1">  1        2 0.21630550E-01 0.27492096E+03</pdfrwt>
<pdfrwt beam="2">  1       -2 0.20675758E-01 0.27492096E+03</pdfrwt>
<totfact> 0.50000793E+03</totfact>
</mgrwt>
</event>
<event>
 9    1  0.2054950E-002  0.2750892E+03  0.7818608E-02  0.1098402E+00
          1   -1    0    0  501    0  0.00000000000E+00  0.00000000000E+00  0.40032296402E+02  0.40032296402E+02  0.00000000000E+00 0.  1.
         -1   -1    0    0    0  501 -0.00000000000E+00 -0.00000000000E+00 -0.47258144915E+03  0.47258144915E+03  0.00000000000E+00 0.  1.
         36    2    1    2    0    0  0.00000000000E+00  0.71054273576E-14 -0.43254915275E+03  0.51261374556E+03  0.27508922659E+03 0.  0.
         25    2    3    3    0    0  0.87010481331E+01 -0.56668281962E+02 -0.18477848532E+03  0.22873302895E+03  0.12201929141E+03 0.  0.
         25    2    3    3    0    0 -0.87010481331E+01  0.56668281962E+02 -0.24777066743E+03  0.28388071661E+03  0.12613863485E+03 0.  0.
          5    1    4    4  502    0 -0.44131247811E+02 -0.20158772306E+02 -0.14516886751E+03  0.15313403681E+03  0.47000000000E+01 0. -1.
         -5    1    4    4    0  502  0.52832295944E+02 -0.36509509656E+02 -0.39609617808E+02  0.75598992142E+02  0.47000000000E+01 0. -1.
          5    1    5    5  503    0  0.39330289486E+02  0.74840007264E+02 -0.12791722704E+03  0.15340405905E+03  0.47000000000E+01 0.  1.
         -5    1    5    5    0  503 -0.48031337619E+02 -0.18171725302E+02 -0.11985344039E+03  0.13047665756E+03  0.47000000000E+01 0.  1.
<mgrwt>
<rscale>  0 0.27508923E+03</rscale>
<asrwt>0</asrwt>
<pdfrwt beam="1">  1        1 0.61588151E-02 0.27508923E+03</pdfrwt>
<pdfrwt beam="2">  1       -1 0.72704835E-01 0.27508923E+03</pdfrwt>
<totfact> 0.24694860E+03</totfact>
</mgrwt>
</event>
<event>
 9    1  0.2054950E-002  0.2798209E+03  0.7818608E-02  0.1095787E+00
         -2   -1    0    0    0  501 -0.00000000000E+00  0.00000000000E+00  0.19533050201E+02  0.19533050201E+02  0.00000000000E+00 0.  1.
          2   -1    0    0  501    0  0.00000000000E+00 -0.00000000000E+00 -0.10021444483E+04  0.10021444483E+04  0.00000000000E+00 0.  1.
         36    2    1    2    0    0 -0.35527136788E-14  0.71054273576E-14 -0.98261139807E+03  0.10216774985E+04  0.27982092714E+03 0.  0.
         25    2    3    3    0    0  0.69164826655E+00 -0.43504575759E+02 -0.39148163971E+03  0.41366653419E+03  0.12636851186E+03 0.  0.
         25    2    3    3    0    0 -0.69164826655E+00  0.43504575759E+02 -0.59112975836E+03  0.60801096428E+03  0.13546148892E+03 0.  0.
          5    1    4    4  502    0 -0.37950737580E+02  0.28666206593E+02 -0.19477706645E+03  0.20055474439E+03  0.47000000000E+01 0.  1.
         -5    1    4    4    0  502  0.38642385846E+02 -0.72170782353E+02 -0.19670457326E+03  0.21311178980E+03  0.47000000000E+01 0.  1.
          5    1    5    5  503    0  0.81569809826E+01 -0.33630355452E+02 -0.40195606158E+03  0.40347032430E+03  0.47000000000E+01 0.  1.
         -5    1    5    5    0  503 -0.88486292492E+01  0.77134931212E+02 -0.18917369678E+03  0.20454063998E+03  0.47000000000E+01 0.  1.
<mgrwt>
<rscale>  0 0.27982093E+03</rscale>
<asrwt>0</asrwt>
<pdfrwt beam="1">  1        2 0.15417610E+00 0.27982093E+03</pdfrwt>
<pdfrwt beam="2">  1       -2 0.30050840E-02 0.27982093E+03</pdfrwt>
<totfact> 0.11040110E+04</totfact>
</mgrwt>
</event>
<event>
 9    1  0.2054950E-002  0.2751283E+03  0.7818608E-02  0.1098380E+00
          1   -1    0    0  501    0  0.00000000000E+00  0.00000000000E+00  0.44253863696E+03  0.44253863696E+03  0.00000000000E+00 0.  1.
         -1   -1    0    0    0  501 -0.00000000000E+00 -0.00000000000E+00 -0.42762129558E+02  0.42762129558E+02  0.00000000000E+00 0.  1.
         36    2    1    2    0    0  0.14210854715E-13 -0.35527136788E-14  0.39977650740E+03  0.48530076651E+03  0.27512829391E+03 0.  0.
         25    2    3    3    0    0  0.43647163607E+02  0.31879208345E+02  0.17703806275E+03  0.22224990657E+03  0.12300888786E+03 0.  0.
         25    2    3    3    0    0 -0.43647163607E+02 -0.31879208345E+02  0.22273844465E+03  0.26305085995E+03  0.12908129755E+03 0.  0.
          5    1    4    4  502    0  0.64450915523E+02  0.34583680104E+01  0.30640564225E+02  0.71601780684E+02  0.47000000000E+01 0. -1.
         -5    1    4    4    0  502 -0.20803751916E+02  0.28420840334E+02  0.14639749852E+03  0.15064812588E+03  0.47000000000E+01 0. -1.
          5    1    5    5  503    0 -0.65504302490E+02 -0.12371716472E+02  0.39926185416E+02  0.77846408363E+02  0.47000000000E+01 0. -1.
         -5    1    5    5    0  503  0.21857138883E+02 -0.19507491873E+02  0.18281225924E+03  0.18520445158E+03  0.47000000000E+01 0. -1.
<mgrwt>
<rscale>  0 0.27512829E+03</rscale>
<asrwt>0</asrwt>
<pdfrwt beam="1">  1        1 0.68082864E-01 0.27512829E+03</pdfrwt>
<pdfrwt beam="2">  1       -1 0.65787895E-02 0.27512829E+03</pdfrwt>
<totfact> 0.61352215E+03</totfact>
</mgrwt>
</event>
<event>
 9    1  0.2054950E-002  0.2749927E+03  0.7818608E-02  0.1098456E+00
          2   -1    0    0  501    0  0.00000000000E+00  0.00000000000E+00  0.11690721153E+03  0.11690721153E+03  0.00000000000E+00 0. -1.
         -2   -1    0    0    0  501 -0.00000000000E+00 -0.00000000000E+00 -0.16171160361E+03  0.16171160361E+03  0.00000000000E+00 0. -1.
         36    2    1    2    0    0  0.00000000000E+00  0.00000000000E+00 -0.44804392086E+02  0.27861881514E+03  0.27499274645E+03 0.  0.
         25    2    3    3    0    0  0.50659411416E+02 -0.32782363053E+02 -0.23049060128E+00  0.13970108940E+03  0.12599715060E+03 0.  0.
         25    2    3    3    0    0 -0.50659411416E+02  0.32782363053E+02 -0.44573901485E+02  0.13891772574E+03  0.11691981244E+03 0.  0.
          5    1    4    4  502    0  0.11584238962E+02  0.43092287487E+02 -0.24132819989E+02  0.50947255410E+02  0.47000000000E+01 0. -1.
         -5    1    4    4    0  502  0.39075172454E+02 -0.75874650541E+02  0.23902329388E+02  0.88753833986E+02  0.47000000000E+01 0. -1.
          5    1    5    5  503    0 -0.18288597058E+02 -0.40569495446E+02  0.42126310031E+01  0.44946557188E+02  0.47000000000E+01 0. -1.
         -5    1    5    5    0  503 -0.32370814358E+02  0.73351858500E+02 -0.48786532488E+02  0.93971168556E+02  0.47000000000E+01 0. -1.
<mgrwt>
<rscale>  0 0.27499275E+03</rscale>
<asrwt>0</asrwt>
<pdfrwt beam="1">  1        2 0.17985725E-01 0.27499275E+03</pdfrwt>
<pdfrwt beam="2">  1       -2 0.24878708E-01 0.27499275E+03</pdfrwt>
<totfact> 0.44777746E+03</totfact>
</mgrwt>
</event>
<event>
 9    1  0.2054950E-002  0.2748381E+03  0.7818608E-02  0.1098542E+00
         -2   -1    0    0    0  501 -0.00000000000E+00  0.00000000000E+00  0.25762439318E+03  0.25762439318E+03  0.00000000000E+00 0.  1.
          2   -1    0    0  501    0  0.00000000000E+00 -0.00000000000E+00 -0.73300468490E+02  0.73300468490E+02  0.00000000000E+00 0.  1.
         36    2    1    2    0    0 -0.35527136788E-14  0.00000000000E+00  0.18432392469E+03  0.33092486167E+03  0.27483805206E+03 0.  0.
         25    2    3    3    0    0  0.18798446088E+02 -0.53794558352E+02  0.12110202779E+03  0.18272684561E+03  0.12440322700E+03 0.  0.
         25    2    3    3    0    0 -0.18798446088E+02  0.53794558352E+02  0.63221896898E+02  0.14819801606E+03  0.12131944458E+03 0.  0.
          5    1    4    4  502    0  0.90733741709E+01 -0.94243607692E+02  0.88156461835E+02  0.12945205859E+03  0.47000000000E+01 0. -1.
         -5    1    4    4    0  502  0.97250719169E+01  0.40449049340E+02  0.32945565959E+02  0.53274787026E+02  0.47000000000E+01 0. -1.
          5    1    5    5  503    0  0.41600008139E+02 -0.93776389041E+01  0.52676563205E+01  0.43224287058E+02  0.47000000000E+01 0. -1.
         -5    1    5    5    0  503 -0.60398454227E+02  0.63172197256E+02  0.57954240577E+02  0.10497372900E+03  0.47000000000E+01 0. -1.
<mgrwt>
<rscale>  0 0.27483805E+03</rscale>
<asrwt>0</asrwt>
<pdfrwt beam="1">  1        2 0.11276995E-01 0.27483805E+03</pdfrwt>
<pdfrwt beam="2">  1       -2 0.39634522E-01 0.27483805E+03</pdfrwt>
<totfact> 0.33302916E+03</totfact>
</mgrwt>
</event>
<event>
 9    1  0.2054950E-002  0.2746088E+03  0.7818608E-02  0.1098670E+00
         -1   -1    0    0    0  501 -0.00000000000E+00  0.00000000000E+00  0.22342834975E+03  0.22342834975E+03  0.00000000000E+00 0. -1.
          1   -1    0    0  501    0  0.00000000000E+00 -0.00000000000E+00 -0.84378255864E+02  0.84378255864E+02  0.00000000000E+00 0. -1.
         36    2    1    2    0    0  0.00000000000E+00  0.00000000000E+00  0.13905009388E+03  0.30780660561E+03  0.27460877234E+03 0.  0.
         25    2    3    3    0    0 -0.20600953544E+02 -0.33622443644E+02  0.10207449356E+02  0.12935889015E+03  0.12277891690E+03 0.  0.
         25    2    3    3    0    0  0.20600953544E+02  0.33622443644E+02  0.12884264453E+03  0.17844771546E+03  0.11699697475E+03 0.  0.
          5    1    4    4  502    0 -0.52722676231E+02  0.10897030865E+01 -0.35240500961E+02  0.63599142681E+02  0.47000000000E+01 0.  1.
         -5    1    4    4    0  502  0.32121722686E+02 -0.34712146730E+02  0.45447950317E+02  0.65759747467E+02  0.47000000000E+01 0.  1.
          5    1    5    5  503    0  0.20462793987E+02  0.37342767659E+02  0.15023877426E+03  0.15622735844E+03  0.47000000000E+01 0.  1.
         -5    1    5    5    0  503  0.13815955730E+00 -0.37203240148E+01 -0.21396129730E+02  0.22220357024E+02  0.47000000000E+01 0.  1.
<mgrwt>
<rscale>  0 0.27460877E+03</rscale>
<asrwt>0</asrwt>
<pdfrwt beam="1">  1        1 0.12981270E-01 0.27460877E+03</pdfrwt>
<pdfrwt beam="2">  1       -1 0.34373592E-01 0.27460877E+03</pdfrwt>
<totfact> 0.36269250E+03</totfact>
</mgrwt>
</event>
<event>
 9    1  0.2054950E-002  0.2759950E+03  0.7818608E-02  0.1097897E+00
         -2   -1    0    0    0  501 -0.00000000000E+00  0.00000000000E+00  0.16474209575E+04  0.16474209575E+04  0.00000000000E+00 0.  1.
          2   -1    0    0  501    0  0.00000000000E+00 -0.00000000000E+00 -0.11559464422E+02  0.11559464422E+02  0.00000000000E+00 0.  1.
         36    2    1    2    0    0  0.71054273576E-14 -0.44408920985E-15  0.16358614931E+04  0.16589804219E+04  0.27599495609E+03 0.  0.
         25    2    3    3    0    0  0.29341097347E+02  0.15606272839E+01  0.51145526915E+03  0.52720224436E+03  0.12446838380E+03 0.  0.
         25    2    3    3    0    0 -0.29341097347E+02 -0.15606272839E+01  0.11244062240E+04  0.11317781776E+04  0.12557528118E+03 0.  0.
          5    1    4    4  502    0  0.63661648987E+02  0.16246436417E+02  0.15040192125E+03  0.16419372754E+03  0.47000000000E+01 0.  1.
         -5    1    4    4    0  502 -0.34320551639E+02 -0.14685809133E+02  0.36105334789E+03  0.36300851681E+03  0.47000000000E+01 0.  1.
          5    1    5    5  503    0 -0.69260521503E+02 -0.51720220354E+01  0.38302742425E+03  0.38930176904E+03  0.47000000000E+01 0.  1.
         -5    1    5    5    0  503  0.39919424155E+02  0.36113947515E+01  0.74137879970E+03  0.74247640855E+03  0.47000000000E+01 0.  1.
<mgrwt>
<rscale>  0 0.27599496E+03</rscale>
<asrwt>0</asrwt>
<pdfrwt beam="1">  1        2 0.17783804E-02 0.27599496E+03</pdfrwt>
<pdfrwt beam="2">  1       -2 0.25344919E+00 0.27599496E+03</pdfrwt>
<totfact> 0.44130772E+02</totfact>
</mgrwt>
</event>
<event>
 9    1  0.2054950E-002  0.2749762E+03  0.7818608E-02  0.1098465E+00
         -2   -1    0    0    0  501 -0.00000000000E+00  0.00000000000E+00  0.23956652373E+02  0.23956652373E+02  0.00000000000E+00 0.  1.
          2   -1    0    0  501    0  0.00000000000E+00 -0.00000000000E+00 -0.78904917386E+03  0.78904917386E+03  0.00000000000E+00 0.  1.
         36    2    1    2    0    0  0.00000000000E+00 -0.71054273576E-14 -0.76509252148E+03  0.81300582623E+03  0.27497619361E+03 0.  0.
         25    2    3    3    0    0  0.30968027145E+01  0.49571658626E+02 -0.43379831522E+03  0.45535702428E+03  0.12923661151E+03 0.  0.
         25    2    3    3    0    0 -0.30968027145E+01 -0.49571658626E+02 -0.33129420627E+03  0.35764880195E+03  0.12525923080E+03 0.  0.
          5    1    4    4  502    0 -0.19707955233E+02  0.87670608338E+02 -0.23576607189E+03  0.25235346187E+03  0.47000000000E+01 0.  1.
         -5    1    4    4    0  502  0.22804757947E+02 -0.38098949712E+02 -0.19803224333E+03  0.20300356241E+03  0.47000000000E+01 0.  1.
          5    1    5    5  503    0  0.51075393678E+02 -0.27954239873E+02 -0.25440934649E+03  0.26102938713E+03  0.47000000000E+01 0. -1.
         -5    1    5    5    0  503 -0.54172196393E+02 -0.21617418753E+02 -0.76884859782E+02  0.96619414815E+02  0.47000000000E+01 0. -1.
<mgrwt>
<rscale>  0 0.27497619E+03</rscale>
<asrwt>0</asrwt>
<pdfrwt beam="1">  1        2 0.12139217E+00 0.27497619E+03</pdfrwt>
<pdfrwt beam="2">  1       -2 0.36856390E-02 0.27497619E+03</pdfrwt>
<totfact> 0.11189626E+04</totfact>
</mgrwt>
</event>
<event>
 9    1  0.2054950E-002  0.2738742E+03  0.7818608E-02  0.1099083E+00
          2   -1    0    0  501    0  0.00000000000E+00  0.00000000000E+00  0.18112383765E+04  0.18112383765E+04  0.00000000000E+00 0.  1.
         -2   -1    0    0    0  501 -0.00000000000E+00 -0.00000000000E+00 -0.10353006820E+02  0.10353006820E+02  0.00000000000E+00 0.  1.
         36    2    1    2    0    0  0.00000000000E+00  0.35527136788E-14  0.18008853697E+04  0.18215913833E+04  0.27387415551E+03 0.  0.
         25    2    3    3    0    0 -0.75148983363E+01 -0.27722095987E+02  0.46580834221E+03  0.48004052237E+03  0.11241220193E+03 0.  0.
         25    2    3    3    0    0  0.75148983363E+01  0.27722095987E+02  0.13350770274E+04  0.13415508609E+04  0.12846421653E+03 0.  0.
          5    1    4    4  502    0  0.25043302246E+01 -0.10749252964E+02  0.45826168430E+03  0.45841867262E+03  0.47000000000E+01 0.  1.
         -5    1    4    4    0  502 -0.10019228561E+02 -0.16972843022E+02  0.75466579160E+01  0.21621849757E+02  0.47000000000E+01 0.  1.
          5    1    5    5  503    0  0.35351680818E+01  0.67310133239E+02  0.40390876221E+03  0.40952109792E+03  0.47000000000E+01 0.  1.
         -5    1    5    5    0  503  0.39797302545E+01 -0.39588037252E+02  0.93116826523E+03  0.93202976300E+03  0.47000000000E+01 0.  1.
<mgrwt>
<rscale>  0 0.27387416E+03</rscale>
<asrwt>0</asrwt>
<pdfrwt beam="1">  1        2 0.27865181E+00 0.27387416E+03</pdfrwt>
<pdfrwt beam="2">  1       -2 0.15927717E-02 0.27387416E+03</pdfrwt>
<totfact> 0.10086655E+04</totfact>
</mgrwt>
</event>
<event>
 9    1  0.2054950E-002  0.2704952E+03  0.7818608E-02  0.1100997E+00
         -2   -1    0    0    0  501 -0.00000000000E+00  0.00000000000E+00  0.20825119627E+02  0.20825119627E+02  0.00000000000E+00 0.  1.
          2   -1    0    0  501    0  0.00000000000E+00 -0.00000000000E+00 -0.87835786216E+03  0.87835786216E+03  0.00000000000E+00 0.  1.
         36    2    1    2    0    0  0.44408920985E-14  0.00000000000E+00 -0.85753274254E+03  0.89918298179E+03  0.27049515748E+03 0.  0.
         25    2    3    3    0    0  0.19503071880E+01  0.38593182565E+02 -0.49693125736E+03  0.51385045285E+03  0.12493348595E+03 0.  0.
         25    2    3    3    0    0 -0.19503071880E+01 -0.38593182565E+02 -0.36060148518E+03  0.38533252894E+03  0.13020940562E+03 0.  0.
          5    1    4    4  502    0 -0.39095058358E+02  0.49623961719E+02 -0.42850209034E+03  0.43315943091E+03  0.47000000000E+01 0. -1.
         -5    1    4    4    0  502  0.41045365546E+02 -0.11030779154E+02 -0.68429167022E+02  0.80691021935E+02  0.47000000000E+01 0. -1.
          5    1    5    5  503    0  0.10049448899E+01 -0.10899192040E+02 -0.35660766206E+03  0.35680655395E+03  0.47000000000E+01 0. -1.
         -5    1    5    5    0  503 -0.29552520779E+01 -0.27693990525E+02 -0.39938231120E+01  0.28525974989E+02  0.47000000000E+01 0. -1.
<mgrwt>
<rscale>  0 0.27049516E+03</rscale>
<asrwt>0</asrwt>
<pdfrwt beam="1">  1        2 0.13513198E+00 0.27049516E+03</pdfrwt>
<pdfrwt beam="2">  1       -2 0.32038646E-02 0.27049516E+03</pdfrwt>
<totfact> 0.12002751E+04</totfact>
</mgrwt>
</event>
<event>
 9    1  0.2054950E-002  0.2753352E+03  0.7818608E-02  0.1098264E+00
          2   -1    0    0  501    0  0.00000000000E+00  0.00000000000E+00  0.20480003157E+04  0.20480003157E+04  0.00000000000E+00 0.  1.
         -2   -1    0    0    0  501 -0.00000000000E+00 -0.00000000000E+00 -0.92540872043E+01  0.92540872043E+01  0.00000000000E+00 0.  1.
         36    2    1    2    0    0  0.00000000000E+00  0.71054273576E-14  0.20387462285E+04  0.20572544029E+04  0.27533523942E+03 0.  0.
         25    2    3    3    0    0 -0.36998009744E+02  0.24247576449E+02  0.87882612094E+03  0.88931424841E+03  0.12879318267E+03 0.  0.
         25    2    3    3    0    0  0.36998009744E+02 -0.24247576449E+02  0.11599201076E+04  0.11679401545E+04  0.12927780499E+03 0.  0.
          5    1    4    4  502    0  0.24002205403E+02 -0.38062160378E+02  0.21049309659E+03  0.21530041252E+03  0.47000000000E+01 0.  1.
         -5    1    4    4    0  502 -0.61000215147E+02  0.62309736828E+02  0.66833302435E+03  0.67401383590E+03  0.47000000000E+01 0.  1.
          5    1    5    5  503    0 -0.47283173818E+02 -0.98653597774E+00  0.49587848498E+03  0.49815081416E+03  0.47000000000E+01 0. -1.
         -5    1    5    5    0  503  0.84281183562E+02 -0.23261040472E+02  0.66404162259E+03  0.66978934034E+03  0.47000000000E+01 0. -1.
<mgrwt>
<rscale>  0 0.27533524E+03</rscale>
<asrwt>0</asrwt>
<pdfrwt beam="1">  1        2 0.31507661E+00 0.27533524E+03</pdfrwt>
<pdfrwt beam="2">  1       -2 0.14237074E-02 0.27533524E+03</pdfrwt>
<totfact> 0.89260958E+03</totfact>
</mgrwt>
</event>
<event>
 9    1  0.2054950E-002  0.2761371E+03  0.7818608E-02  0.1097818E+00
          2   -1    0    0  501    0  0.00000000000E+00  0.00000000000E+00  0.11332992863E+03  0.11332992863E+03  0.00000000000E+00 0.  1.
         -2   -1    0    0    0  501 -0.00000000000E+00 -0.00000000000E+00 -0.16820732391E+03  0.16820732391E+03  0.00000000000E+00 0.  1.
         36    2    1    2    0    0  0.00000000000E+00  0.88817841970E-15 -0.54877395278E+02  0.28153725254E+03  0.27613709648E+03 0.  0.
         25    2    3    3    0    0  0.52086684661E+02  0.13780616595E+01 -0.53266013194E+02  0.14793972149E+03  0.12780442582E+03 0.  0.
         25    2    3    3    0    0 -0.52086684661E+02 -0.13780616595E+01 -0.16113820837E+01  0.13359753105E+03  0.12300724360E+03 0.  0.
          5    1    4    4  502    0 -0.23511752573E+02 -0.13214174344E+02  0.25700416556E+02  0.37550210703E+02  0.47000000000E+01 0.  1.
         -5    1    4    4    0  502  0.75598437234E+02  0.14592236003E+02 -0.78966429750E+02  0.11038951079E+03  0.47000000000E+01 0.  1.
          5    1    5    5  503    0 -0.75080846144E+02  0.44608875265E+01 -0.42184189831E+02  0.86363353610E+02  0.47000000000E+01 0. -1.
         -5    1    5    5    0  503  0.22994161482E+02 -0.58389491860E+01  0.40572807747E+02  0.47234177439E+02  0.47000000000E+01 0. -1.
<mgrwt>
<rscale>  0 0.27613710E+03</rscale>
<asrwt>0</asrwt>
<pdfrwt beam="1">  1        2 0.17435374E-01 0.27613710E+03</pdfrwt>
<pdfrwt beam="2">  1       -2 0.25878050E-01 0.27613710E+03</pdfrwt>
<totfact> 0.43307600E+03</totfact>
</mgrwt>
</event>
<event>
 9    1  0.2054950E-002  0.2757412E+03  0.7818608E-02  0.1098038E+00
         -2   -1    0    0    0  501 -0.00000000000E+00  0.00000000000E+00  0.30341004831E+02  0.30341004831E+02  0.00000000000E+00 0.  1.
          2   -1    0    0  501    0  0.00000000000E+00 -0.00000000000E+00 -0.62648878856E+03  0.62648878856E+03  0.00000000000E+00 0.  1.
         36    2    1    2    0    0 -0.35527136788E-14 -0.71054273576E-14 -0.59614778373E+03  0.65682979339E+03  0.27574117836E+03 0.  0.
         25    2    3    3    0    0 -0.22104090275E+02  0.12792027652E+01 -0.14942233387E+03  0.19230868047E+03  0.11901834967E+03 0.  0.
         25    2    3    3    0    0  0.22104090275E+02 -0.12792027652E+01 -0.44672544986E+03  0.46452111292E+03  0.12540338764E+03 0.  0.
          5    1    4    4  502    0 -0.43611669602E+02  0.50042662356E+02 -0.95026940944E+02  0.11601058265E+03  0.47000000000E+01 0. -1.
         -5    1    4    4    0  502  0.21507579326E+02 -0.48763459591E+02 -0.54395392924E+02  0.76298097821E+02  0.47000000000E+01 0. -1.
          5    1    5    5  503    0  0.24243731449E+02  0.54571413273E+02 -0.13361994206E+03  0.14643147400E+03  0.47000000000E+01 0. -1.
         -5    1    5    5    0  503 -0.21396411731E+01 -0.55850616038E+02 -0.31310550780E+03  0.31808963893E+03  0.47000000000E+01 0. -1.
<mgrwt>
<rscale>  0 0.27574118E+03</rscale>
<asrwt>0</asrwt>
<pdfrwt beam="1">  1        2 0.96382884E-01 0.27574118E+03</pdfrwt>
<pdfrwt beam="2">  1       -2 0.46678472E-02 0.27574118E+03</pdfrwt>
<totfact> 0.10379859E+04</totfact>
</mgrwt>
</event>
<event>
 9    1  0.2054950E-002  0.2749035E+03  0.7818608E-02  0.1098506E+00
         -2   -1    0    0    0  501 -0.00000000000E+00  0.00000000000E+00  0.56033345025E+01  0.56033345025E+01  0.00000000000E+00 0.  1.
          2   -1    0    0  501    0  0.00000000000E+00 -0.00000000000E+00 -0.33717395445E+04  0.33717395445E+04  0.00000000000E+00 0.  1.
         36    2    1    2    0    0  0.00000000000E+00 -0.14210854715E-13 -0.33661362100E+04  0.33773428790E+04  0.27490350687E+03 0.  0.
         25    2    3    3    0    0 -0.28914629572E+02  0.49684833966E+02 -0.16263845438E+04  0.16323655582E+04  0.12722418364E+03 0.  0.
         25    2    3    3    0    0  0.28914629572E+02 -0.49684833966E+02 -0.17397516662E+04  0.17449773208E+04  0.12208747435E+03 0.  0.
          5    1    4    4  502    0 -0.61080836479E+02  0.11323034529E+02 -0.13504970901E+04  0.13519332676E+04  0.47000000000E+01 0. -1.
         -5    1    4    4    0  502  0.32166206908E+02  0.38361799437E+02 -0.27588745370E+03  0.28043229064E+03  0.47000000000E+01 0. -1.
          5    1    5    5  503    0  0.39035489026E+02 -0.39453363859E+02 -0.29886051761E+03  0.30400663859E+03  0.47000000000E+01 0. -1.
         -5    1    5    5    0  503 -0.10120859454E+02 -0.10231470107E+02 -0.14408911486E+04  0.14409706822E+04  0.47000000000E+01 0. -1.
<mgrwt>
<rscale>  0 0.27490351E+03</rscale>
<asrwt>0</asrwt>
<pdfrwt beam="1">  1        2 0.51872920E+00 0.27490351E+03</pdfrwt>
<pdfrwt beam="2">  1       -2 0.86205140E-03 0.27490351E+03</pdfrwt>
<totfact> 0.32519851E+03</totfact>
</mgrwt>
</event>
<event>
 9    1  0.2054950E-002  0.2748495E+03  0.7818608E-02  0.1098536E+00
         -1   -1    0    0    0  501 -0.00000000000E+00  0.00000000000E+00  0.39789520785E+02  0.39789520785E+02  0.00000000000E+00 0.  1.
          1   -1    0    0  501    0  0.00000000000E+00 -0.00000000000E+00 -0.47463661946E+03  0.47463661946E+03  0.00000000000E+00 0.  1.
         36    2    1    2    0    0  0.00000000000E+00  0.00000000000E+00 -0.43484709867E+03  0.51442614024E+03  0.27484951254E+03 0.  0.
         25    2    3    3    0    0 -0.27506699872E+02  0.84870185417E+00 -0.31559512461E+03  0.33856746760E+03  0.11945839697E+03 0.  0.
         25    2    3    3    0    0  0.27506699872E+02 -0.84870185417E+00 -0.11925197407E+03  0.17585867265E+03  0.12628499750E+03 0.  0.
          5    1    4    4  502    0  0.30407174116E+02 -0.23781532746E+02 -0.22391081931E+03  0.22726262900E+03  0.47000000000E+01 0. -1.
         -5    1    4    4    0  502 -0.57913873987E+02  0.24630234601E+02 -0.91684305299E+02  0.11130483860E+03  0.47000000000E+01 0. -1.
          5    1    5    5  503    0  0.15397983200E+02  0.40465794852E+02  0.54125315697E+01  0.43885805650E+02  0.47000000000E+01 0. -1.
         -5    1    5    5    0  503  0.12108716672E+02 -0.41314496706E+02 -0.12466450564E+03  0.13197286700E+03  0.47000000000E+01 0. -1.
<mgrwt>
<rscale>  0 0.27484951E+03</rscale>
<asrwt>0</asrwt>
<pdfrwt beam="1">  1        1 0.73021022E-01 0.27484951E+03</pdfrwt>
<pdfrwt beam="2">  1       -1 0.61214644E-02 0.27484951E+03</pdfrwt>
<totfact> 0.62425081E+03</totfact>
</mgrwt>
</event>
<event>
 9    1  0.2054950E-002  0.2749341E+03  0.7818608E-02  0.1098488E+00
         -3   -1    0    0    0  501 -0.00000000000E+00  0.00000000000E+00  0.26020549800E+04  0.26020549800E+04  0.00000000000E+00 0.  1.
          3   -1    0    0  501    0  0.00000000000E+00 -0.00000000000E+00 -0.72624118808E+01  0.72624118808E+01  0.00000000000E+00 0.  1.
         36    2    1    2    0    0  0.00000000000E+00  0.14210854715E-13  0.25947925681E+04  0.26093173919E+04  0.27493413758E+03 0.  0.
         25    2    3    3    0    0 -0.69863405406E+01 -0.59510578366E+02  0.11319123386E+04  0.11402851449E+04  0.12423506510E+03 0.  0.
         25    2    3    3    0    0  0.69863405406E+01  0.59510578366E+02  0.14628802295E+04  0.14690322470E+04  0.12019508727E+03 0.  0.
          5    1    4    4  502    0 -0.34508360896E+02 -0.45079760444E+02  0.20300416817E+03  0.21084542695E+03  0.47000000000E+01 0.  1.
         -5    1    4    4    0  502  0.27522020355E+02 -0.14430817922E+02  0.92890817047E+03  0.92943971793E+03  0.47000000000E+01 0.  1.
          5    1    5    5  503    0  0.38236273305E+02 -0.23590627506E+02  0.45370865904E+03  0.45595193562E+03  0.47000000000E+01 0. -1.
         -5    1    5    5    0  503 -0.31249932764E+02  0.83101205872E+02  0.10091715704E+04  0.10130803114E+04  0.47000000000E+01 0. -1.
<mgrwt>
<rscale>  0 0.27493414E+03</rscale>
<asrwt>0</asrwt>
<pdfrwt beam="1">  1        3 0.11172962E-02 0.27493414E+03</pdfrwt>
<pdfrwt beam="2">  1       -3 0.40031541E+00 0.27493414E+03</pdfrwt>
<totfact> 0.74867587E+01</totfact>
</mgrwt>
</event>
<event>
 9    1  0.2054950E-002  0.2748794E+03  0.7818608E-02  0.1098519E+00
          1   -1    0    0  501    0  0.00000000000E+00  0.00000000000E+00  0.14706111766E+02  0.14706111766E+02  0.00000000000E+00 0. -1.
         -1   -1    0    0    0  501 -0.00000000000E+00 -0.00000000000E+00 -0.12844775413E+04  0.12844775413E+04  0.00000000000E+00 0. -1.
         36    2    1    2    0    0  0.00000000000E+00  0.00000000000E+00 -0.12697714295E+04  0.12991836530E+04  0.27487939379E+03 0.  0.
         25    2    3    3    0    0  0.40977809068E+02 -0.27478193825E+02 -0.45911677766E+03  0.47815747831E+03  0.12414558617E+03 0.  0.
         25    2    3    3    0    0 -0.40977809068E+02  0.27478193825E+02 -0.81065465184E+03  0.82102617471E+03  0.12036936092E+03 0.  0.
          5    1    4    4  502    0  0.53145527313E+02  0.69368223089E+01 -0.75111889169E+02  0.92392924359E+02  0.47000000000E+01 0. -1.
         -5    1    4    4    0  502 -0.12167718245E+02 -0.34415016134E+02 -0.38400488849E+03  0.38576455395E+03  0.47000000000E+01 0. -1.
          5    1    5    5  503    0 -0.24159629522E+02 -0.19030812134E+02 -0.68785344279E+03  0.68855668486E+03  0.47000000000E+01 0. -1.
         -5    1    5    5    0  503 -0.16818179546E+02  0.46509005959E+02 -0.12280120905E+03  0.13246948985E+03  0.47000000000E+01 0. -1.
<mgrwt>
<rscale>  0 0.27487939E+03</rscale>
<asrwt>0</asrwt>
<pdfrwt beam="1">  1        1 0.22624795E-02 0.27487939E+03</pdfrwt>
<pdfrwt beam="2">  1       -1 0.19761186E+00 0.27487939E+03</pdfrwt>
<totfact> 0.87995875E+02</totfact>
</mgrwt>
</event>
<event>
 9    1  0.2054950E-002  0.2641375E+03  0.7818608E-02  0.1104683E+00
         -3   -1    0    0    0  501 -0.00000000000E+00  0.00000000000E+00  0.26340519914E+02  0.26340519914E+02  0.00000000000E+00 0. -1.
          3   -1    0    0  501    0  0.00000000000E+00 -0.00000000000E+00 -0.66217939947E+03  0.66217939947E+03  0.00000000000E+00 0. -1.
         36    2    1    2    0    0  0.71054273576E-14 -0.35527136788E-14 -0.63583887956E+03  0.68851991939E+03  0.26413746163E+03 0.  0.
         25    2    3    3    0    0  0.35356379462E+02 -0.25618736950E+02 -0.31157278680E+03  0.33870199003E+03  0.12543940100E+03 0.  0.
         25    2    3    3    0    0 -0.35356379462E+02  0.25618736950E+02 -0.32426609276E+03  0.34981792936E+03  0.12376466191E+03 0.  0.
          5    1    4    4  502    0  0.79626537646E+02  0.13034513504E+01 -0.20855886218E+03  0.22329570859E+03  0.47000000000E+01 0. -1.
         -5    1    4    4    0  502 -0.44270158185E+02 -0.26922188300E+02 -0.10301392462E+03  0.11540628143E+03  0.47000000000E+01 0. -1.
          5    1    5    5  503    0  0.23163129342E+02  0.43161328336E+02 -0.24359377654E+03  0.24851448407E+03  0.47000000000E+01 0. -1.
         -5    1    5    5    0  503 -0.58519508803E+02 -0.17542591386E+02 -0.80672316224E+02  0.10130344529E+03  0.47000000000E+01 0. -1.
<mgrwt>
<rscale>  0 0.26413746E+03</rscale>
<asrwt>0</asrwt>
<pdfrwt beam="1">  1        3 0.10187375E+00 0.26413746E+03</pdfrwt>
<pdfrwt beam="2">  1       -3 0.40523878E-02 0.26413746E+03</pdfrwt>
<totfact> 0.69881015E+02</totfact>
</mgrwt>
</event>
<event>
 9    1  0.2054950E-002  0.2762761E+03  0.7818608E-02  0.1097740E+00
          1   -1    0    0  501    0  0.00000000000E+00  0.00000000000E+00  0.52830120483E+03  0.52830120483E+03  0.00000000000E+00 0. -1.
         -1   -1    0    0    0  501 -0.00000000000E+00 -0.00000000000E+00 -0.36119767310E+02  0.36119767310E+02  0.00000000000E+00 0. -1.
         36    2    1    2    0    0  0.17763568394E-14  0.00000000000E+00  0.49218143751E+03  0.56442097214E+03  0.27627606909E+03 0.  0.
         25    2    3    3    0    0 -0.14042907977E+02  0.50290364254E+02  0.19961122027E+03  0.24197039777E+03  0.12640692283E+03 0.  0.
         25    2    3    3    0    0  0.14042907977E+02 -0.50290364254E+02  0.29257021724E+03  0.32245057436E+03  0.12510282526E+03 0.  0.
          5    1    4    4  502    0 -0.23741799019E+01 -0.14652360294E+01 -0.17545529320E+02  0.18377139221E+02  0.47000000000E+01 0. -1.
         -5    1    4    4    0  502 -0.11668728076E+02  0.51755600283E+02  0.21715674959E+03  0.22359325855E+03  0.47000000000E+01 0. -1.
          5    1    5    5  503    0 -0.57238581475E+00 -0.39808453114E+02  0.29982677514E+03  0.30249500105E+03  0.47000000000E+01 0.  1.
         -5    1    5    5    0  503  0.14615293792E+02 -0.10481911140E+02 -0.72565579026E+01  0.19955573316E+02  0.47000000000E+01 0.  1.
<mgrwt>
<rscale>  0 0.27627607E+03</rscale>
<asrwt>0</asrwt>
<pdfrwt beam="1">  1        1 0.81277103E-01 0.27627607E+03</pdfrwt>
<pdfrwt beam="2">  1       -1 0.55568877E-02 0.27627607E+03</pdfrwt>
<totfact> 0.62646732E+03</totfact>
</mgrwt>
</event>
<event>
 9    1  0.2054950E-002  0.2770307E+03  0.7818608E-02  0.1097322E+00
          1   -1    0    0  501    0  0.00000000000E+00  0.00000000000E+00  0.35559376466E+03  0.35559376466E+03  0.00000000000E+00 0.  1.
         -1   -1    0    0    0  501 -0.00000000000E+00 -0.00000000000E+00 -0.53956224523E+02  0.53956224523E+02  0.00000000000E+00 0.  1.
         36    2    1    2    0    0 -0.35527136788E-14  0.00000000000E+00  0.30163754013E+03  0.40954998918E+03  0.27703066260E+03 0.  0.
         25    2    3    3    0    0 -0.17371587969E+02  0.63123943261E+02  0.16632386356E+03  0.21790469139E+03  0.12462914049E+03 0.  0.
         25    2    3    3    0    0  0.17371587969E+02 -0.63123943261E+02  0.13531367657E+03  0.19164529778E+03  0.11887693138E+03 0.  0.
          5    1    4    4  502    0  0.23720574949E+02  0.82627142449E+02  0.68849614002E+02  0.11023733348E+03  0.47000000000E+01 0.  1.
         -5    1    4    4    0  502 -0.41092162918E+02 -0.19503199188E+02  0.97474249562E+02  0.10766735791E+03  0.47000000000E+01 0.  1.
          5    1    5    5  503    0  0.38203299590E+02 -0.18775246709E+02  0.13582852031E+03  0.14242007906E+03  0.47000000000E+01 0.  1.
         -5    1    5    5    0  503 -0.20831711621E+02 -0.44348696552E+02 -0.51484374147E+00  0.49225218730E+02  0.47000000000E+01 0.  1.
<mgrwt>
<rscale>  0 0.27703066E+03</rscale>
<asrwt>0</asrwt>
<pdfrwt beam="1">  1        1 0.54706732E-01 0.27703066E+03</pdfrwt>
<pdfrwt beam="2">  1       -1 0.83009578E-02 0.27703066E+03</pdfrwt>
<totfact> 0.57029457E+03</totfact>
</mgrwt>
</event>
<event>
 9    1  0.2054950E-002  0.2643492E+03  0.7818608E-02  0.1104558E+00
          1   -1    0    0  501    0  0.00000000000E+00  0.00000000000E+00  0.38235336886E+03  0.38235336886E+03  0.00000000000E+00 0.  1.
         -1   -1    0    0    0  501 -0.00000000000E+00 -0.00000000000E+00 -0.45691058885E+02  0.45691058885E+02  0.00000000000E+00 0.  1.
         36    2    1    2    0    0  0.00000000000E+00  0.00000000000E+00  0.33666230997E+03  0.42804442774E+03  0.26434924090E+03 0.  0.
         25    2    3    3    0    0  0.17006614621E+02 -0.32454698954E+02  0.19385721373E+03  0.23424376256E+03  0.12628138642E+03 0.  0.
         25    2    3    3    0    0 -0.17006614621E+02  0.32454698954E+02  0.14280509624E+03  0.19380066518E+03  0.12578898953E+03 0.  0.
          5    1    4    4  502    0  0.66658206572E+02 -0.91472319956E+01  0.14781918129E+03  0.16247950244E+03  0.47000000000E+01 0.  1.
         -5    1    4    4    0  502 -0.49651591951E+02 -0.23307466958E+02  0.46038032449E+02  0.71764260123E+02  0.47000000000E+01 0.  1.
          5    1    5    5  503    0  0.27360577199E+02  0.10995428041E+02 -0.11309298871E+02  0.31929467008E+02  0.47000000000E+01 0. -1.
         -5    1    5    5    0  503 -0.44367191820E+02  0.21459270913E+02  0.15411439511E+03  0.16187119817E+03  0.47000000000E+01 0. -1.
<mgrwt>
<rscale>  0 0.26434924E+03</rscale>
<asrwt>0</asrwt>
<pdfrwt beam="1">  1        1 0.58823593E-01 0.26434924E+03</pdfrwt>
<pdfrwt beam="2">  1       -1 0.70293939E-02 0.26434924E+03</pdfrwt>
<totfact> 0.66887290E+03</totfact>
</mgrwt>
</event>
<event>
 9    1  0.2054950E-002  0.2752701E+03  0.7818608E-02  0.1098301E+00
          2   -1    0    0  501    0  0.00000000000E+00  0.00000000000E+00  0.91275154841E+03  0.91275154841E+03  0.00000000000E+00 0.  1.
         -2   -1    0    0    0  501 -0.00000000000E+00 -0.00000000000E+00 -0.20754174333E+02  0.20754174333E+02  0.00000000000E+00 0.  1.
         36    2    1    2    0    0  0.00000000000E+00 -0.35527136788E-14  0.89199737408E+03  0.93350572274E+03  0.27527008380E+03 0.  0.
         25    2    3    3    0    0  0.32283791039E+02 -0.28283331719E+02  0.57589939896E+03  0.59067875979E+03  0.12409306802E+03 0.  0.
         25    2    3    3    0    0 -0.32283791039E+02  0.28283331719E+02  0.31609797512E+03  0.34282696295E+03  0.12557948334E+03 0.  0.
          5    1    4    4  502    0 -0.16863235348E+02 -0.40787000313E+02  0.48041306705E+03  0.48245906883E+03  0.47000000000E+01 0.  1.
         -5    1    4    4    0  502  0.49147026387E+02  0.12503668594E+02  0.95486331907E+02  0.10821969096E+03  0.47000000000E+01 0.  1.
          5    1    5    5  503    0 -0.57334181373E+02  0.23421416781E+02  0.63237948801E+02  0.88639152107E+02  0.47000000000E+01 0. -1.
         -5    1    5    5    0  503  0.25050390333E+02  0.48619149376E+01  0.25286002632E+03  0.25418781085E+03  0.47000000000E+01 0. -1.
<mgrwt>
<rscale>  0 0.27527008E+03</rscale>
<asrwt>0</asrwt>
<pdfrwt beam="1">  1        2 0.14042328E+00 0.27527008E+03</pdfrwt>
<pdfrwt beam="2">  1       -2 0.31929506E-02 0.27527008E+03</pdfrwt>
<totfact> 0.11467701E+04</totfact>
</mgrwt>
</event>
<event>
 9    1  0.2054950E-002  0.2749808E+03  0.7818608E-02  0.1098462E+00
          2   -1    0    0  501    0  0.00000000000E+00  0.00000000000E+00  0.24622332513E+04  0.24622332513E+04  0.00000000000E+00 0. -1.
         -2   -1    0    0    0  501 -0.00000000000E+00 -0.00000000000E+00 -0.76774234680E+01  0.76774234680E+01  0.00000000000E+00 0. -1.
         36    2    1    2    0    0  0.00000000000E+00  0.00000000000E+00  0.24545558279E+04  0.24699106748E+04  0.27498078004E+03 0.  0.
         25    2    3    3    0    0 -0.18088551361E+02 -0.50356870151E+02  0.10178146157E+04  0.10267436864E+04  0.12406851172E+03 0.  0.
         25    2    3    3    0    0  0.18088551361E+02  0.50356870151E+02  0.14367412122E+04  0.14431669884E+04  0.12507052238E+03 0.  0.
          5    1    4    4  502    0  0.29538959301E+02 -0.71593856279E+01  0.66730170471E+02  0.73476612403E+02  0.47000000000E+01 0.  1.
         -5    1    4    4    0  502 -0.47627510662E+02 -0.43197484523E+02  0.95108444519E+03  0.95326707398E+03  0.47000000000E+01 0.  1.
          5    1    5    5  503    0  0.42990961571E+02  0.74726872787E+02  0.12604782328E+04  0.12634317527E+04  0.47000000000E+01 0. -1.
         -5    1    5    5    0  503 -0.24902410210E+02 -0.24370002636E+02  0.17626297938E+03  0.17973523572E+03  0.47000000000E+01 0. -1.
<mgrwt>
<rscale>  0 0.27498078E+03</rscale>
<asrwt>0</asrwt>
<pdfrwt beam="1">  1        2 0.37880449E+00 0.27498078E+03</pdfrwt>
<pdfrwt beam="2">  1       -2 0.11811440E-02 0.27498078E+03</pdfrwt>
<totfact> 0.70372248E+03</totfact>
</mgrwt>
</event>
<event>
 9    1  0.2054950E-002  0.2750143E+03  0.7818608E-02  0.1098444E+00
          2   -1    0    0  501    0  0.00000000000E+00  0.00000000000E+00  0.75322793199E+03  0.75322793199E+03  0.00000000000E+00 0.  1.
         -2   -1    0    0    0  501 -0.00000000000E+00 -0.00000000000E+00 -0.25102908453E+02  0.25102908453E+02  0.00000000000E+00 0.  1.
         36    2    1    2    0    0  0.88817841970E-15  0.00000000000E+00  0.72812502353E+03  0.77833084044E+03  0.27501426742E+03 0.  0.
         25    2    3    3    0    0  0.39178083321E+00  0.78625115459E+01  0.50549185705E+03  0.52071599925E+03  0.12474438565E+03 0.  0.
         25    2    3    3    0    0 -0.39178083321E+00 -0.78625115459E+01  0.22263316648E+03  0.25761484119E+03  0.12937506330E+03 0.  0.
          5    1    4    4  502    0 -0.16312776530E+02  0.30026970943E+02  0.48418449563E+03  0.48541162066E+03  0.47000000000E+01 0.  1.
         -5    1    4    4    0  502  0.16704557363E+02 -0.22164459397E+02  0.21307361421E+02  0.35304378592E+02  0.47000000000E+01 0.  1.
          5    1    5    5  503    0  0.71252089965E+01  0.42656261490E+02  0.19411346324E+03  0.19892825807E+03  0.47000000000E+01 0. -1.
         -5    1    5    5    0  503 -0.75169898297E+01 -0.50518773036E+02  0.28519703242E+02  0.58686583119E+02  0.47000000000E+01 0. -1.
<mgrwt>
<rscale>  0 0.27501427E+03</rscale>
<asrwt>0</asrwt>
<pdfrwt beam="1">  1        2 0.11588120E+00 0.27501427E+03</pdfrwt>
<pdfrwt beam="2">  1       -2 0.38619865E-02 0.27501427E+03</pdfrwt>
<totfact> 0.11058084E+04</totfact>
</mgrwt>
</event>
<event>
 9    1  0.2054950E-002  0.2753449E+03  0.7818608E-02  0.1098259E+00
         -1   -1    0    0    0  501 -0.00000000000E+00  0.00000000000E+00  0.50921931835E+03  0.50921931835E+03  0.00000000000E+00 0. -1.
          1   -1    0    0  501    0  0.00000000000E+00 -0.00000000000E+00 -0.37221097839E+02  0.37221097839E+02  0.00000000000E+00 0. -1.
         36    2    1    2    0    0  0.00000000000E+00  0.53290705182E-14  0.47199822052E+03  0.54644041619E+03  0.27534488969E+03 0.  0.
         25    2    3    3    0    0 -0.52867712072E+02 -0.60119884675E+01  0.20254328515E+03  0.24475114693E+03  0.12668150055E+03 0.  0.
         25    2    3    3    0    0  0.52867712072E+02  0.60119884675E+01  0.26945493536E+03  0.30168926926E+03  0.12481712226E+03 0.  0.
          5    1    4    4  502    0 -0.61022389474E+02  0.45902616009E+02  0.15859887210E+03  0.17608655373E+03  0.47000000000E+01 0. -1.
         -5    1    4    4    0  502  0.81546774021E+01 -0.51914604477E+02  0.43944413053E+02  0.68664593206E+02  0.47000000000E+01 0. -1.
          5    1    5    5  503    0  0.91373051357E+02 -0.10638959464E+02  0.16395661077E+03  0.18805872005E+03  0.47000000000E+01 0. -1.
         -5    1    5    5    0  503 -0.38505339285E+02  0.16650947931E+02  0.10549832460E+03  0.11363054921E+03  0.47000000000E+01 0. -1.
<mgrwt>
<rscale>  0 0.27534489E+03</rscale>
<asrwt>0</asrwt>
<pdfrwt beam="1">  1        1 0.57263231E-02 0.27534489E+03</pdfrwt>
<pdfrwt beam="2">  1       -1 0.78341429E-01 0.27534489E+03</pdfrwt>
<totfact> 0.23443839E+03</totfact>
</mgrwt>
</event>
<event>
 9    1  0.2054950E-002  0.2748977E+03  0.7818608E-02  0.1098509E+00
          2   -1    0    0  501    0  0.00000000000E+00  0.00000000000E+00  0.20107435999E+03  0.20107435999E+03  0.00000000000E+00 0. -1.
         -2   -1    0    0    0  501 -0.00000000000E+00 -0.00000000000E+00 -0.93956193823E+02  0.93956193823E+02  0.00000000000E+00 0. -1.
         36    2    1    2    0    0  0.00000000000E+00  0.00000000000E+00  0.10711816617E+03  0.29503055381E+03  0.27489766489E+03 0.  0.
         25    2    3    3    0    0  0.33578497979E+02 -0.10041118439E+02  0.53118960446E+02  0.14703741958E+03  0.13255202455E+03 0.  0.
         25    2    3    3    0    0 -0.33578497979E+02  0.10041118439E+02  0.53999205722E+02  0.14799313423E+03  0.13325807283E+03 0.  0.
          5    1    4    4  502    0 -0.44361856655E+02 -0.32106305141E+02  0.12804461159E+02  0.56434328039E+02  0.47000000000E+01 0.  1.
         -5    1    4    4    0  502  0.77940354634E+02  0.22065186702E+02  0.40314499288E+02  0.90603091544E+02  0.47000000000E+01 0.  1.
          5    1    5    5  503    0  0.16465172716E+02 -0.49523832066E+02  0.45853229701E+02  0.69629882444E+02  0.47000000000E+01 0. -1.
         -5    1    5    5    0  503 -0.50043670695E+02  0.59564950506E+02  0.81459760215E+01  0.78363251787E+02  0.47000000000E+01 0. -1.
<mgrwt>
<rscale>  0 0.27489766E+03</rscale>
<asrwt>0</asrwt>
<pdfrwt beam="1">  1        2 0.30934517E-01 0.27489766E+03</pdfrwt>
<pdfrwt beam="2">  1       -2 0.14454799E-01 0.27489766E+03</pdfrwt>
<totfact> 0.61244337E+03</totfact>
</mgrwt>
</event>
<event>
 9    1  0.2054950E-002  0.2750808E+03  0.7818608E-02  0.1098406E+00
          2   -1    0    0  501    0  0.00000000000E+00  0.00000000000E+00  0.11857303274E+04  0.11857303274E+04  0.00000000000E+00 0.  1.
         -2   -1    0    0    0  501 -0.00000000000E+00 -0.00000000000E+00 -0.15954181026E+02  0.15954181026E+02  0.00000000000E+00 0.  1.
         36    2    1    2    0    0  0.00000000000E+00  0.35527136788E-14  0.11697761464E+04  0.12016845085E+04  0.27508076118E+03 0.  0.
         25    2    3    3    0    0 -0.22662874645E+02 -0.25040453438E+02  0.84694616967E+03  0.85711922119E+03  0.12725924263E+03 0.  0.
         25    2    3    3    0    0  0.22662874645E+02  0.25040453438E+02  0.32282997674E+03  0.34456528727E+03  0.11560887989E+03 0.  0.
          5    1    4    4  502    0  0.23491657213E+02 -0.53761871712E+02  0.21784535542E+03  0.22565656579E+03  0.47000000000E+01 0.  1.
         -5    1    4    4    0  502 -0.46154531858E+02  0.28721418273E+02  0.62910081425E+03  0.63146265540E+03  0.47000000000E+01 0.  1.
          5    1    5    5  503    0 -0.29441184400E+02  0.52779668638E+02  0.14599736404E+03  0.15808161521E+03  0.47000000000E+01 0. -1.
         -5    1    5    5    0  503  0.52104059045E+02 -0.27739215200E+02  0.17683261270E+03  0.18648367206E+03  0.47000000000E+01 0. -1.
<mgrwt>
<rscale>  0 0.27508076E+03</rscale>
<asrwt>0</asrwt>
<pdfrwt beam="1">  1        2 0.18241998E+00 0.27508076E+03</pdfrwt>
<pdfrwt beam="2">  1       -2 0.24544903E-02 0.27508076E+03</pdfrwt>
<totfact> 0.11612089E+04</totfact>
</mgrwt>
</event>
<event>
 9    1  0.2054950E-002  0.2739918E+03  0.7818608E-02  0.1099016E+00
         -3   -1    0    0    0  501 -0.00000000000E+00  0.00000000000E+00  0.37909102909E+03  0.37909102909E+03  0.00000000000E+00 0.  1.
          3   -1    0    0  501    0  0.00000000000E+00 -0.00000000000E+00 -0.49507581601E+02  0.49507581601E+02  0.00000000000E+00 0.  1.
         36    2    1    2    0    0  0.71054273576E-14 -0.71054273576E-14  0.32958344749E+03  0.42859861069E+03  0.27399182511E+03 0.  0.
         25    2    3    3    0    0 -0.55609792316E+02 -0.20128680140E+02  0.19625983775E+03  0.23632054646E+03  0.11760894524E+03 0.  0.
         25    2    3    3    0    0  0.55609792316E+02  0.20128680140E+02  0.13332360974E+03  0.19227806423E+03  0.12529188443E+03 0.  0.
          5    1    4    4  502    0 -0.58350653373E+02 -0.50058925401E+02  0.62635983789E+02  0.99277647165E+02  0.47000000000E+01 0. -1.
         -5    1    4    4    0  502  0.27408610571E+01  0.29930245262E+02  0.13362385396E+03  0.13704289930E+03  0.47000000000E+01 0. -1.
          5    1    5    5  503    0  0.16305641633E+02  0.49379266069E+02  0.22434196924E+01  0.52261924940E+02  0.47000000000E+01 0. -1.
         -5    1    5    5    0  503  0.39304150683E+02 -0.29250585929E+02  0.13108019005E+03  0.14001613929E+03  0.47000000000E+01 0. -1.
<mgrwt>
<rscale>  0 0.27399183E+03</rscale>
<asrwt>0</asrwt>
<pdfrwt beam="1">  1        3 0.76165512E-02 0.27399183E+03</pdfrwt>
<pdfrwt beam="2">  1       -3 0.58321695E-01 0.27399183E+03</pdfrwt>
<totfact> 0.85736629E+02</totfact>
</mgrwt>
</event>
<event>
 9    1  0.2054950E-002  0.2750716E+03  0.7818608E-02  0.1098412E+00
          2   -1    0    0  501    0  0.00000000000E+00  0.00000000000E+00  0.18947110242E+04  0.18947110242E+04  0.00000000000E+00 0. -1.
         -2   -1    0    0    0  501 -0.00000000000E+00 -0.00000000000E+00 -0.99836282143E+01  0.99836282143E+01  0.00000000000E+00 0. -1.
         36    2    1    2    0    0 -0.71054273576E-14  0.00000000000E+00  0.18847273960E+04  0.19046946524E+04  0.27507155752E+03 0.  0.
         25    2    3    3    0    0 -0.40916304891E+02 -0.40368668434E+02  0.73033766981E+03  0.74201184124E+03  0.11783330260E+03 0.  0.
         25    2    3    3    0    0  0.40916304891E+02  0.40368668434E+02  0.11543897262E+04  0.11626828112E+04  0.12614240405E+03 0.  0.
          5    1    4    4  502    0  0.33471021087E+02 -0.29523869141E+02  0.14333224456E+03  0.15019384285E+03  0.47000000000E+01 0. -1.
         -5    1    4    4    0  502 -0.74387325978E+02 -0.10844799293E+02  0.58700542525E+03  0.59181799839E+03  0.47000000000E+01 0. -1.
          5    1    5    5  503    0 -0.19951015341E+02 -0.56424975123E+01  0.36936513015E+02  0.42617798923E+02  0.47000000000E+01 0. -1.
         -5    1    5    5    0  503  0.60867320232E+02  0.46011165946E+02  0.11174532132E+04  0.11200650122E+04  0.47000000000E+01 0. -1.
<mgrwt>
<rscale>  0 0.27507156E+03</rscale>
<asrwt>0</asrwt>
<pdfrwt beam="1">  1        2 0.29149372E+00 0.27507156E+03</pdfrwt>
<pdfrwt beam="2">  1       -2 0.15359443E-02 0.27507156E+03</pdfrwt>
<totfact> 0.96174699E+03</totfact>
</mgrwt>
</event>
<event>
 9    1  0.2054950E-002  0.2730565E+03  0.7818608E-02  0.1099543E+00
          2   -1    0    0  501    0  0.00000000000E+00  0.00000000000E+00  0.10078853489E+04  0.10078853489E+04  0.00000000000E+00 0.  1.
         -2   -1    0    0    0  501 -0.00000000000E+00 -0.00000000000E+00 -0.18494128378E+02  0.18494128378E+02  0.00000000000E+00 0.  1.
         36    2    1    2    0    0  0.44408920985E-14  0.71054273576E-14  0.98939122055E+03  0.10263794773E+04  0.27305648524E+03 0.  0.
         25    2    3    3    0    0 -0.76521301559E+01  0.52960844765E+02  0.48328803046E+03  0.50225701167E+03  0.12582280879E+03 0.  0.
         25    2    3    3    0    0  0.76521301559E+01 -0.52960844765E+02  0.50610319008E+03  0.52412246563E+03  0.12530169109E+03 0.  0.
          5    1    4    4  502    0 -0.59347048546E+02  0.52644628030E+02  0.35657544758E+03  0.36532406005E+03  0.47000000000E+01 0. -1.
         -5    1    4    4    0  502  0.51694918390E+02  0.31621673455E+00  0.12671258288E+03  0.13693295163E+03  0.47000000000E+01 0. -1.
          5    1    5    5  503    0 -0.40669024516E+01  0.45623946438E+01 -0.52893624689E+01  0.93499997735E+01  0.47000000000E+01 0.  1.
         -5    1    5    5    0  503  0.11719032608E+02 -0.57523239409E+02  0.51139255255E+03  0.51477246586E+03  0.47000000000E+01 0.  1.
<mgrwt>
<rscale>  0 0.27305649E+03</rscale>
<asrwt>0</asrwt>
<pdfrwt beam="1">  1        2 0.15505924E+00 0.27305649E+03</pdfrwt>
<pdfrwt beam="2">  1       -2 0.28452513E-02 0.27305649E+03</pdfrwt>
<totfact> 0.11869557E+04</totfact>
</mgrwt>
</event>
<event>
 9    1  0.2054950E-002  0.2747397E+03  0.7818608E-02  0.1098597E+00
         -1   -1    0    0    0  501 -0.00000000000E+00  0.00000000000E+00  0.24695252122E+03  0.24695252122E+03  0.00000000000E+00 0. -1.
          1   -1    0    0  501    0  0.00000000000E+00 -0.00000000000E+00 -0.76413348136E+02  0.76413348136E+02  0.00000000000E+00 0. -1.
         36    2    1    2    0    0  0.00000000000E+00  0.00000000000E+00  0.17053917309E+03  0.32336586936E+03  0.27473965114E+03 0.  0.
         25    2    3    3    0    0  0.12818247199E+02  0.34037765299E+02  0.29481055099E+02  0.13371495108E+03  0.12525046349E+03 0.  0.
         25    2    3    3    0    0 -0.12818247199E+02 -0.34037765299E+02  0.14105811799E+03  0.18965091828E+03  0.12143805510E+03 0.  0.
          5    1    4    4  502    0  0.14587713340E+02  0.81079689690E+02  0.24867967330E+02  0.86181339395E+02  0.47000000000E+01 0. -1.
         -5    1    4    4    0  502 -0.17694661415E+01 -0.47041924391E+02  0.46130877693E+01  0.47533611683E+02  0.47000000000E+01 0. -1.
          5    1    5    5  503    0 -0.26189366534E+02 -0.34047230960E+02 -0.44633701521E+01  0.43440862430E+02  0.47000000000E+01 0. -1.
         -5    1    5    5    0  503  0.13371119335E+02  0.94656615962E-02  0.14552148814E+03  0.14621005585E+03  0.47000000000E+01 0. -1.
<mgrwt>
<rscale>  0 0.27473965E+03</rscale>
<asrwt>0</asrwt>
<pdfrwt beam="1">  1        1 0.11755900E-01 0.27473965E+03</pdfrwt>
<pdfrwt beam="2">  1       -1 0.37992695E-01 0.27473965E+03</pdfrwt>
<totfact> 0.34738153E+03</totfact>
</mgrwt>
</event>
<event>
 9    1  0.2054950E-002  0.2749963E+03  0.7818608E-02  0.1098454E+00
          2   -1    0    0  501    0  0.00000000000E+00  0.00000000000E+00  0.26392810545E+04  0.26392810545E+04  0.00000000000E+00 0. -1.
         -2   -1    0    0    0  501 -0.00000000000E+00 -0.00000000000E+00 -0.71632156973E+01  0.71632156973E+01  0.00000000000E+00 0. -1.
         36    2    1    2    0    0 -0.71054273576E-14  0.00000000000E+00  0.26321178388E+04  0.26464442702E+04  0.27499628709E+03 0.  0.
         25    2    3    3    0    0 -0.47745036639E+02  0.15877676576E+02  0.11041324330E+04  0.11125125809E+04  0.12666540129E+03 0.  0.
         25    2    3    3    0    0  0.47745036639E+02 -0.15877676576E+02  0.15279854058E+04  0.15339316893E+04  0.12520119009E+03 0.  0.
          5    1    4    4  502    0 -0.10796110068E+02  0.64970863283E+02  0.76358486532E+03  0.76643441051E+03  0.47000000000E+01 0.  1.
         -5    1    4    4    0  502 -0.36948926571E+02 -0.49093186707E+02  0.34054756767E+03  0.34607817036E+03  0.47000000000E+01 0.  1.
          5    1    5    5  503    0  0.39102669956E+02  0.39619521335E+02  0.11874612771E+04  0.11887746211E+04  0.47000000000E+01 0.  1.
         -5    1    5    5    0  503  0.86423666836E+01 -0.55497197911E+02  0.34052412870E+03  0.34515706817E+03  0.47000000000E+01 0.  1.
<mgrwt>
<rscale>  0 0.27499629E+03</rscale>
<asrwt>0</asrwt>
<pdfrwt beam="1">  1        2 0.40604246E+00 0.27499629E+03</pdfrwt>
<pdfrwt beam="2">  1       -2 0.11020353E-02 0.27499629E+03</pdfrwt>
<totfact> 0.62165986E+03</totfact>
</mgrwt>
</event>
<event>
 9    1  0.2054950E-002  0.2760809E+03  0.7818608E-02  0.1097849E+00
         -1   -1    0    0    0  501 -0.00000000000E+00  0.00000000000E+00  0.74473060028E+01  0.74473060028E+01  0.00000000000E+00 0.  1.
          1   -1    0    0  501    0  0.00000000000E+00 -0.00000000000E+00 -0.25586650664E+04  0.25586650664E+04  0.00000000000E+00 0.  1.
         36    2    1    2    0    0 -0.14210854715E-13  0.71054273576E-14 -0.25512177604E+04  0.25661123724E+04  0.27608087009E+03 0.  0.
         25    2    3    3    0    0 -0.49826832467E+02 -0.20801016915E+02 -0.11156661702E+04  0.11240317719E+04  0.12578165804E+03 0.  0.
         25    2    3    3    0    0  0.49826832467E+02  0.20801016915E+02 -0.14355515902E+04  0.14420806004E+04  0.12598688237E+03 0.  0.
          5    1    4    4  502    0  0.28307937972E+02  0.11313950402E+02 -0.95381628446E+02  0.10024514886E+03  0.47000000000E+01 0. -1.
         -5    1    4    4    0  502 -0.78134770439E+02 -0.32114967317E+02 -0.10202845417E+04  0.10237866231E+04  0.47000000000E+01 0. -1.
          5    1    5    5  503    0 -0.10306756961E+02  0.62176272732E+02 -0.73988883179E+03  0.74258312096E+03  0.47000000000E+01 0. -1.
         -5    1    5    5    0  503  0.60133589428E+02 -0.41375255817E+02 -0.69566275840E+03  0.69949747948E+03  0.47000000000E+01 0. -1.
<mgrwt>
<rscale>  0 0.27608087E+03</rscale>
<asrwt>0</asrwt>
<pdfrwt beam="1">  1        1 0.39364051E+00 0.27608087E+03</pdfrwt>
<pdfrwt beam="2">  1       -1 0.11457402E-02 0.27608087E+03</pdfrwt>
<totfact> 0.22377468E+03</totfact>
</mgrwt>
</event>
<event>
 9    1  0.2054950E-002  0.2754008E+03  0.7818608E-02  0.1098228E+00
         -1   -1    0    0    0  501 -0.00000000000E+00  0.00000000000E+00  0.10993707741E+02  0.10993707741E+02  0.00000000000E+00 0.  1.
          1   -1    0    0  501    0  0.00000000000E+00 -0.00000000000E+00 -0.17247504789E+04  0.17247504789E+04  0.00000000000E+00 0.  1.
         36    2    1    2    0    0  0.71054273576E-14  0.00000000000E+00 -0.17137567711E+04  0.17357441866E+04  0.27540081838E+03 0.  0.
         25    2    3    3    0    0 -0.49930993416E+02 -0.34869974919E+02 -0.79465217265E+03  0.80663446195E+03  0.12441085343E+03 0.  0.
         25    2    3    3    0    0  0.49930993416E+02  0.34869974919E+02 -0.91910459848E+03  0.92910972466E+03  0.12158370887E+03 0.  0.
          5    1    4    4  502    0 -0.85917363931E+02 -0.24228613426E+02 -0.38506445435E+03  0.39530436772E+03  0.47000000000E+01 0. -1.
         -5    1    4    4    0  502  0.35986370515E+02 -0.10641361493E+02 -0.40958771830E+03  0.41133009423E+03  0.47000000000E+01 0. -1.
          5    1    5    5  503    0  0.14808643040E+02 -0.42083036427E+02 -0.46589268475E+03  0.46804739244E+03  0.47000000000E+01 0. -1.
         -5    1    5    5    0  503  0.35122350376E+02  0.76953011346E+02 -0.45321191373E+03  0.46106233222E+03  0.47000000000E+01 0. -1.
<mgrwt>
<rscale>  0 0.27540082E+03</rscale>
<asrwt>0</asrwt>
<pdfrwt beam="1">  1        1 0.26534613E+00 0.27540082E+03</pdfrwt>
<pdfrwt beam="2">  1       -1 0.16913403E-02 0.27540082E+03</pdfrwt>
<totfact> 0.44626968E+03</totfact>
</mgrwt>
</event>
<event>
 9    1  0.2054950E-002  0.2748543E+03  0.7818608E-02  0.1098533E+00
         -1   -1    0    0    0  501 -0.00000000000E+00  0.00000000000E+00  0.12428831843E+02  0.12428831843E+02  0.00000000000E+00 0.  1.
          1   -1    0    0  501    0  0.00000000000E+00 -0.00000000000E+00 -0.15195492087E+04  0.15195492087E+04  0.00000000000E+00 0.  1.
         36    2    1    2    0    0  0.14210854715E-13  0.00000000000E+00 -0.15071203769E+04  0.15319780406E+04  0.27485430026E+03 0.  0.
         25    2    3    3    0    0  0.51095492024E+02 -0.26942713025E+02 -0.90811586742E+03  0.91770884544E+03  0.11907324321E+03 0.  0.
         25    2    3    3    0    0 -0.51095492024E+02  0.26942713025E+02 -0.59900450946E+03  0.61426919513E+03  0.12322168088E+03 0.  0.
          5    1    4    4  502    0  0.69800179880E+02 -0.53059996175E+02 -0.45265212662E+03  0.46108943388E+03  0.47000000000E+01 0.  1.
         -5    1    4    4    0  502 -0.18704687856E+02  0.26117283150E+02 -0.45546374080E+03  0.45661941156E+03  0.47000000000E+01 0.  1.
          5    1    5    5  503    0  0.32977370713E+02  0.25587588696E+02 -0.32251374644E+03  0.32523751062E+03  0.47000000000E+01 0. -1.
         -5    1    5    5    0  503 -0.84072862737E+02  0.13551243288E+01 -0.27649076302E+03  0.28903168450E+03  0.47000000000E+01 0. -1.
<mgrwt>
<rscale>  0 0.27485430E+03</rscale>
<asrwt>0</asrwt>
<pdfrwt beam="1">  1        1 0.23377673E+00 0.27485430E+03</pdfrwt>
<pdfrwt beam="2">  1       -1 0.19121286E-02 0.27485430E+03</pdfrwt>
<totfact> 0.50865781E+03</totfact>
</mgrwt>
</event>
<event>
 9    1  0.2054950E-002  0.2675223E+03  0.7818608E-02  0.1102706E+00
          2   -1    0    0  501    0  0.00000000000E+00  0.00000000000E+00  0.16675928013E+04  0.16675928013E+04  0.00000000000E+00 0. -1.
         -2   -1    0    0    0  501 -0.00000000000E+00 -0.00000000000E+00 -0.10729261420E+02  0.10729261420E+02  0.00000000000E+00 0. -1.
         36    2    1    2    0    0  0.00000000000E+00  0.00000000000E+00  0.16568635399E+04  0.16783220627E+04  0.26752225407E+03 0.  0.
         25    2    3    3    0    0  0.42360817192E+02  0.15458514598E+02  0.76643900793E+03  0.77773196608E+03  0.12411629097E+03 0.  0.
         25    2    3    3    0    0 -0.42360817192E+02 -0.15458514598E+02  0.89042453192E+03  0.90059009661E+03  0.12717417408E+03 0.  0.
          5    1    4    4  502    0  0.81018224912E+02  0.34817946690E+02  0.53584432754E+03  0.54307225628E+03  0.47000000000E+01 0. -1.
         -5    1    4    4    0  502 -0.38657407721E+02 -0.19359432092E+02  0.23059468039E+03  0.23465970981E+03  0.47000000000E+01 0. -1.
          5    1    5    5  503    0  0.24059372021E+02  0.26575830267E+02  0.54957292577E+03  0.55076094531E+03  0.47000000000E+01 0.  1.
         -5    1    5    5    0  503 -0.66420189213E+02 -0.42034344865E+02  0.34085160614E+03  0.34982915129E+03  0.47000000000E+01 0.  1.
<mgrwt>
<rscale>  0 0.26752225E+03</rscale>
<asrwt>0</asrwt>
<pdfrwt beam="1">  1        2 0.25655253E+00 0.26752225E+03</pdfrwt>
<pdfrwt beam="2">  1       -2 0.16506569E-02 0.26752225E+03</pdfrwt>
<totfact> 0.11386228E+04</totfact>
</mgrwt>
</event>
<event>
 9    1  0.2054950E-002  0.2738412E+03  0.7818608E-02  0.1099101E+00
          2   -1    0    0  501    0  0.00000000000E+00  0.00000000000E+00  0.11088570143E+04  0.11088570143E+04  0.00000000000E+00 0. -1.
         -2   -1    0    0    0  501 -0.00000000000E+00 -0.00000000000E+00 -0.16906821835E+02  0.16906821835E+02  0.00000000000E+00 0. -1.
         36    2    1    2    0    0  0.35527136788E-14  0.00000000000E+00  0.10919501925E+04  0.11257638362E+04  0.27384118012E+03 0.  0.
         25    2    3    3    0    0  0.44944411300E+01  0.91623838193E+01  0.76477023278E+03  0.77532328904E+03  0.12707692275E+03 0.  0.
         25    2    3    3    0    0 -0.44944411300E+01 -0.91623838193E+01  0.32717995971E+03  0.35044054713E+03  0.12513073865E+03 0.  0.
          5    1    4    4  502    0 -0.32004924040E+02 -0.42923072171E+02  0.50443927577E+03  0.50729456751E+03  0.47000000000E+01 0. -1.
         -5    1    4    4    0  502  0.36499365170E+02  0.52085455990E+02  0.26033095701E+03  0.26802872153E+03  0.47000000000E+01 0. -1.
          5    1    5    5  503    0  0.18210761024E+02  0.42211835583E+02  0.25347945641E+03  0.25765751629E+03  0.47000000000E+01 0.  1.
         -5    1    5    5    0  503 -0.22705202154E+02 -0.51374219402E+02  0.73700503304E+02  0.92783030837E+02  0.47000000000E+01 0.  1.
<mgrwt>
<rscale>  0 0.27384118E+03</rscale>
<asrwt>0</asrwt>
<pdfrwt beam="1">  1        2 0.17059333E+00 0.27384118E+03</pdfrwt>
<pdfrwt beam="2">  1       -2 0.26010504E-02 0.27384118E+03</pdfrwt>
<totfact> 0.11802757E+04</totfact>
</mgrwt>
</event>
<event>
 9    1  0.2054950E-002  0.2750775E+03  0.7818608E-02  0.1098408E+00
         -1   -1    0    0    0  501 -0.00000000000E+00  0.00000000000E+00  0.62436796575E+03  0.62436796575E+03  0.00000000000E+00 0.  1.
          1   -1    0    0  501    0  0.00000000000E+00 -0.00000000000E+00 -0.30297686792E+02  0.30297686792E+02  0.00000000000E+00 0.  1.
         36    2    1    2    0    0  0.71054273576E-14  0.35527136788E-14  0.59407027896E+03  0.65466565254E+03  0.27507748050E+03 0.  0.
         25    2    3    3    0    0 -0.35676061117E+02 -0.63987886802E+01  0.40987731118E+03  0.43059650985E+03  0.12688663542E+03 0.  0.
         25    2    3    3    0    0  0.35676061117E+02  0.63987886802E+01  0.18419296778E+03  0.22406914269E+03  0.12233644384E+03 0.  0.
          5    1    4    4  502    0 -0.78068412626E+02  0.18782435625E+02  0.21592225011E+03  0.23041693737E+03  0.47000000000E+01 0. -1.
         -5    1    4    4    0  502  0.42392351510E+02 -0.25181224306E+02  0.19395506107E+03  0.20017957248E+03  0.47000000000E+01 0. -1.
          5    1    5    5  503    0  0.40699571822E+02 -0.10071821964E+02  0.19740418120E+03  0.20186232313E+03  0.47000000000E+01 0. -1.
         -5    1    5    5    0  503 -0.50235107053E+01  0.16470610644E+02 -0.13211213419E+02  0.22206819556E+02  0.47000000000E+01 0. -1.
<mgrwt>
<rscale>  0 0.27507748E+03</rscale>
<asrwt>0</asrwt>
<pdfrwt beam="1">  1        1 0.46611830E-02 0.27507748E+03</pdfrwt>
<pdfrwt beam="2">  1       -1 0.96056601E-01 0.27507748E+03</pdfrwt>
<totfact> 0.20208726E+03</totfact>
</mgrwt>
</event>
<event>
 9    1  0.2054950E-002  0.2749642E+03  0.7818608E-02  0.1098472E+00
         -2   -1    0    0    0  501 -0.00000000000E+00  0.00000000000E+00  0.11365565912E+02  0.11365565912E+02  0.00000000000E+00 0.  1.
          2   -1    0    0  501    0  0.00000000000E+00 -0.00000000000E+00 -0.16630344855E+04  0.16630344855E+04  0.00000000000E+00 0.  1.
         36    2    1    2    0    0  0.00000000000E+00 -0.17763568394E-14 -0.16516689196E+04  0.16744000515E+04  0.27496420174E+03 0.  0.
         25    2    3    3    0    0  0.40631247643E+02 -0.50302310009E+01 -0.59790687894E+03  0.61250815036E+03  0.12648081618E+03 0.  0.
         25    2    3    3    0    0 -0.40631247643E+02  0.50302310009E+01 -0.10537620407E+04  0.10618919011E+04  0.12459442084E+03 0.  0.
          5    1    4    4  502    0  0.17404746679E+02 -0.15489972093E+02 -0.13122932318E+02  0.27150797319E+02  0.47000000000E+01 0.  1.
         -5    1    4    4    0  502  0.23226500964E+02  0.10459741092E+02 -0.58478394662E+03  0.58535735304E+03  0.47000000000E+01 0.  1.
          5    1    5    5  503    0 -0.14610909461E+02  0.64121424002E+02 -0.48634823721E+03  0.49079703904E+03  0.47000000000E+01 0.  1.
         -5    1    5    5    0  503 -0.26020338183E+02 -0.59091193001E+02 -0.56741380348E+03  0.57109486206E+03  0.47000000000E+01 0.  1.
<mgrwt>
<rscale>  0 0.27496420E+03</rscale>
<asrwt>0</asrwt>
<pdfrwt beam="1">  1        2 0.25585149E+00 0.27496420E+03</pdfrwt>
<pdfrwt beam="2">  1       -2 0.17485484E-02 0.27496420E+03</pdfrwt>
<totfact> 0.10527682E+04</totfact>
</mgrwt>
</event>
<event>
 8    1  0.2054950E-002  0.2957557E+03  0.7818608E-02  0.1087382E+00
         -2   -1    0    0    0  501 -0.00000000000E+00  0.00000000000E+00  0.82084272512E+02  0.82084272512E+02  0.00000000000E+00 0. -1.
          2   -1    0    0  501    0  0.00000000000E+00 -0.00000000000E+00 -0.26640748270E+03  0.26640748270E+03  0.00000000000E+00 0. -1.
         25    2    1    2    0    0 -0.56122534418E+02  0.18067226489E+02 -0.37597443408E+02  0.14612347661E+03  0.12830564728E+03 0.  0.
         25    2    1    2    0    0  0.56122534418E+02 -0.18067226489E+02 -0.14672576678E+03  0.20236827860E+03  0.12628660263E+03 0.  0.
          5    1    3    3  502    0 -0.34406689224E+02  0.71734673749E+02 -0.58102781631E+01  0.79909530180E+02  0.47000000000E+01 0.  1.
         -5    1    3    3    0  502 -0.21715845193E+02 -0.53667447260E+02 -0.31787165245E+02  0.66213946433E+02  0.47000000000E+01 0.  1.
          5    1    4    4  503    0 -0.28402810500E+02  0.22390843947E+02 -0.77867632172E+02  0.85985624827E+02  0.47000000000E+01 0. -1.
         -5    1    4    4    0  503  0.84525344917E+02 -0.40458070436E+02 -0.68858134605E+02  0.11638265377E+03  0.47000000000E+01 0. -1.
<mgrwt>
<rscale>  0 0.29575574E+03</rscale>
<asrwt>0</asrwt>
<pdfrwt beam="1">  1        2 0.40985766E-01 0.29575574E+03</pdfrwt>
<pdfrwt beam="2">  1       -2 0.12628350E-01 0.29575574E+03</pdfrwt>
<totfact> 0.56403340E+03</totfact>
</mgrwt>
</event>
<event>
 9    1  0.2054950E-002  0.2736951E+03  0.7818608E-02  0.1099183E+00
          1   -1    0    0  501    0  0.00000000000E+00  0.00000000000E+00  0.78785569463E+02  0.78785569463E+02  0.00000000000E+00 0. -1.
         -1   -1    0    0    0  501 -0.00000000000E+00 -0.00000000000E+00 -0.23769896321E+03  0.23769896321E+03  0.00000000000E+00 0. -1.
         36    2    1    2    0    0  0.71054273576E-14  0.71054273576E-14 -0.15891339374E+03  0.31648453267E+03  0.27369507249E+03 0.  0.
         25    2    3    3    0    0 -0.40244210205E+02 -0.23953771201E+02 -0.12067816524E+03  0.17784367368E+03  0.12194987943E+03 0.  0.
         25    2    3    3    0    0  0.40244210205E+02  0.23953771201E+02 -0.38235228505E+02  0.13864085899E+03  0.12476367850E+03 0.  0.
          5    1    4    4  502    0 -0.42922692868E+02 -0.51033777492E+02 -0.13202778997E+03  0.14798726747E+03  0.47000000000E+01 0.  1.
         -5    1    4    4    0  502  0.26784826629E+01  0.27080006291E+02  0.11349624737E+02  0.29856406210E+02  0.47000000000E+01 0.  1.
          5    1    5    5  503    0  0.79738944485E+01  0.31396144482E+02 -0.79233668496E+02  0.85728438131E+02  0.47000000000E+01 0. -1.
         -5    1    5    5    0  503  0.32270315757E+02 -0.74423732814E+01  0.40998439991E+02  0.52912420855E+02  0.47000000000E+01 0. -1.
<mgrwt>
<rscale>  0 0.27369507E+03</rscale>
<asrwt>0</asrwt>
<pdfrwt beam="1">  1        1 0.12120857E-01 0.27369507E+03</pdfrwt>
<pdfrwt beam="2">  1       -1 0.36569072E-01 0.27369507E+03</pdfrwt>
<totfact> 0.35660891E+03</totfact>
</mgrwt>
</event>
<event>
 9    1  0.2054950E-002  0.2747370E+03  0.7818608E-02  0.1098599E+00
         -2   -1    0    0    0  501 -0.00000000000E+00  0.00000000000E+00  0.20832595913E+02  0.20832595913E+02  0.00000000000E+00 0. -1.
          2   -1    0    0  501    0  0.00000000000E+00 -0.00000000000E+00 -0.90579707368E+03  0.90579707368E+03  0.00000000000E+00 0. -1.
         36    2    1    2    0    0  0.17763568394E-14  0.71054273576E-14 -0.88496447777E+03  0.92662966959E+03  0.27473699726E+03 0.  0.
         25    2    3    3    0    0 -0.11220667979E+02  0.19730725004E+02 -0.24166602971E+03  0.27114015396E+03  0.12082759732E+03 0.  0.
         25    2    3    3    0    0  0.11220667979E+02 -0.19730725004E+02 -0.64329844805E+03  0.65548951563E+03  0.12376755203E+03 0.  0.
          5    1    4    4  502    0  0.15346343208E+02 -0.46632637538E+02 -0.75384670831E+02  0.90083581910E+02  0.47000000000E+01 0. -1.
         -5    1    4    4    0  502 -0.26567011187E+02  0.66363362542E+02 -0.16628135888E+03  0.18105657205E+03  0.47000000000E+01 0. -1.
          5    1    5    5  503    0 -0.46419255236E+01  0.21116906335E+02 -0.17683772481E+02  0.28324494962E+02  0.47000000000E+01 0.  1.
         -5    1    5    5    0  503  0.15862593503E+02 -0.40847631339E+02 -0.62561467557E+03  0.62716502067E+03  0.47000000000E+01 0.  1.
<mgrwt>
<rscale>  0 0.27473700E+03</rscale>
<asrwt>0</asrwt>
<pdfrwt beam="1">  1        2 0.13935337E+00 0.27473700E+03</pdfrwt>
<pdfrwt beam="2">  1       -2 0.32050153E-02 0.27473700E+03</pdfrwt>
<totfact> 0.11520558E+04</totfact>
</mgrwt>
</event>
<event>
 9    1  0.2054950E-002  0.2753676E+03  0.7818608E-02  0.1098246E+00
         -1   -1    0    0    0  501 -0.00000000000E+00  0.00000000000E+00  0.11038251290E+03  0.11038251290E+03  0.00000000000E+00 0. -1.
          1   -1    0    0  501    0  0.00000000000E+00 -0.00000000000E+00 -0.17173759537E+03  0.17173759537E+03  0.00000000000E+00 0. -1.
         36    2    1    2    0    0  0.00000000000E+00  0.00000000000E+00 -0.61355082466E+02  0.28212010827E+03  0.27536758950E+03 0.  0.
         25    2    3    3    0    0  0.30991221241E+02 -0.45511099872E+02 -0.44844821114E+02  0.14063379265E+03  0.12138817755E+03 0.  0.
         25    2    3    3    0    0 -0.30991221241E+02  0.45511099872E+02 -0.16510261351E+02  0.14148631562E+03  0.12928291756E+03 0.  0.
          5    1    4    4  502    0 -0.41237844509E+02 -0.18061119450E+02  0.92425367027E+01  0.46198250402E+02  0.47000000000E+01 0.  1.
         -5    1    4    4    0  502  0.72229065750E+02 -0.27449980422E+02 -0.54087357817E+02  0.94435542249E+02  0.47000000000E+01 0.  1.
          5    1    5    5  503    0 -0.79459065640E+02  0.23330995889E+02  0.65817591561E+01  0.83207499873E+02  0.47000000000E+01 0.  1.
         -5    1    5    5    0  503  0.48467844400E+02  0.22180103983E+02 -0.23092020508E+02  0.58278815745E+02  0.47000000000E+01 0.  1.
<mgrwt>
<rscale>  0 0.27536759E+03</rscale>
<asrwt>0</asrwt>
<pdfrwt beam="1">  1        1 0.26421168E-01 0.27536759E+03</pdfrwt>
<pdfrwt beam="2">  1       -1 0.16981925E-01 0.27536759E+03</pdfrwt>
<totfact> 0.46595707E+03</totfact>
</mgrwt>
</event>
<event>
 9    1  0.2054950E-002  0.2747026E+03  0.7818608E-02  0.1098618E+00
          2   -1    0    0  501    0  0.00000000000E+00  0.00000000000E+00  0.73872040862E+03  0.73872040862E+03  0.00000000000E+00 0.  1.
         -2   -1    0    0    0  501 -0.00000000000E+00 -0.00000000000E+00 -0.25537916702E+02  0.25537916702E+02  0.00000000000E+00 0.  1.
         36    2    1    2    0    0  0.35527136788E-14 -0.71054273576E-14  0.71318249192E+03  0.76425832532E+03  0.27470260473E+03 0.  0.
         25    2    3    3    0    0 -0.27202103520E+02  0.28705500870E+02  0.48548339131E+03  0.50214387990E+03  0.12202619663E+03 0.  0.
         25    2    3    3    0    0  0.27202103520E+02 -0.28705500870E+02  0.22769910061E+03  0.26211444543E+03  0.12366544330E+03 0.  0.
          5    1    4    4  502    0  0.47512738927E+01 -0.32758754439E+02  0.33207916842E+03  0.33375795825E+03  0.47000000000E+01 0. -1.
         -5    1    4    4    0  502 -0.31953377413E+02  0.61464255309E+02  0.15340422289E+03  0.16838592165E+03  0.47000000000E+01 0. -1.
          5    1    5    5  503    0  0.69178329407E+02 -0.46169170775E+02  0.16073387633E+03  0.18103784850E+03  0.47000000000E+01 0. -1.
         -5    1    5    5    0  503 -0.41976225886E+02  0.17463669905E+02  0.66965224276E+02  0.81076596923E+02  0.47000000000E+01 0. -1.
<mgrwt>
<rscale>  0 0.27470260E+03</rscale>
<asrwt>0</asrwt>
<pdfrwt beam="1">  1        2 0.11364928E+00 0.27470260E+03</pdfrwt>
<pdfrwt beam="2">  1       -2 0.39289108E-02 0.27470260E+03</pdfrwt>
<totfact> 0.11038821E+04</totfact>
</mgrwt>
</event>
<event>
 9    1  0.2054950E-002  0.2741562E+03  0.7818608E-02  0.1098924E+00
         -3   -1    0    0    0  501 -0.00000000000E+00  0.00000000000E+00  0.19230932668E+02  0.19230932668E+02  0.00000000000E+00 0.  1.
          3   -1    0    0  501    0  0.00000000000E+00 -0.00000000000E+00 -0.97709276422E+03  0.97709276422E+03  0.00000000000E+00 0.  1.
         36    2    1    2    0    0  0.00000000000E+00  0.35527136788E-14 -0.95786183155E+03  0.99632369689E+03  0.27415619752E+03 0.  0.
         25    2    3    3    0    0  0.31722867839E+02 -0.91196825955E+01 -0.65654666073E+03  0.66879720998E+03  0.12307185464E+03 0.  0.
         25    2    3    3    0    0 -0.31722867839E+02  0.91196825955E+01 -0.30131517082E+03  0.32752648691E+03  0.12406957123E+03 0.  0.
          5    1    4    4  502    0 -0.24404507666E+02  0.86817588039E+01 -0.51159187515E+03  0.51226876700E+03  0.47000000000E+01 0.  1.
         -5    1    4    4    0  502  0.56127375505E+02 -0.17801441399E+02 -0.14495478558E+03  0.15652844298E+03  0.47000000000E+01 0.  1.
          5    1    5    5  503    0 -0.12577067509E+02 -0.12293264422E+02 -0.29763206222E+03  0.29818826509E+03  0.47000000000E+01 0. -1.
         -5    1    5    5    0  503 -0.19145800331E+02  0.21412947018E+02 -0.36831085981E+01  0.29338221814E+02  0.47000000000E+01 0. -1.
<mgrwt>
<rscale>  0 0.27415620E+03</rscale>
<asrwt>0</asrwt>
<pdfrwt beam="1">  1        3 0.15032197E+00 0.27415620E+03</pdfrwt>
<pdfrwt beam="2">  1       -3 0.29586049E-02 0.27415620E+03</pdfrwt>
<totfact> 0.45060969E+02</totfact>
</mgrwt>
</event>
<event>
 9    1  0.2054950E-002  0.2761595E+03  0.7818608E-02  0.1097805E+00
          1   -1    0    0  501    0  0.00000000000E+00  0.00000000000E+00  0.23046895484E+03  0.23046895484E+03  0.00000000000E+00 0. -1.
         -1   -1    0    0    0  501 -0.00000000000E+00 -0.00000000000E+00 -0.82727051190E+02  0.82727051190E+02  0.00000000000E+00 0. -1.
         36    2    1    2    0    0  0.00000000000E+00  0.71054273576E-14  0.14774190365E+03  0.31319600603E+03  0.27615949757E+03 0.  0.
         25    2    3    3    0    0 -0.15258115530E+02  0.52230107276E+02  0.10039222113E+03  0.16840623376E+03  0.12377910693E+03 0.  0.
         25    2    3    3    0    0  0.15258115530E+02 -0.52230107276E+02  0.47349682522E+02  0.14478977227E+03  0.12554398242E+03 0.  0.
          5    1    4    4  502    0 -0.58183288206E+02  0.66661111972E+02  0.76108088117E+02  0.11680552193E+03  0.47000000000E+01 0. -1.
         -5    1    4    4    0  502  0.42925172676E+02 -0.14431004696E+02  0.24284133011E+02  0.51600711835E+02  0.47000000000E+01 0. -1.
          5    1    5    5  503    0 -0.23783081725E+02  0.11241631536E+02  0.63060677511E+02  0.68489037839E+02  0.47000000000E+01 0.  1.
         -5    1    5    5    0  503  0.39041197255E+02 -0.63471738812E+02 -0.15710994989E+02  0.76300734429E+02  0.47000000000E+01 0.  1.
<mgrwt>
<rscale>  0 0.27615950E+03</rscale>
<asrwt>0</asrwt>
<pdfrwt beam="1">  1        1 0.35456762E-01 0.27615950E+03</pdfrwt>
<pdfrwt beam="2">  1       -1 0.12727239E-01 0.27615950E+03</pdfrwt>
<totfact> 0.50781959E+03</totfact>
</mgrwt>
</event>
<event>
 9    1  0.2054950E-002  0.2749339E+03  0.7818608E-02  0.1098489E+00
         -1   -1    0    0    0  501 -0.00000000000E+00  0.00000000000E+00  0.17292753890E+03  0.17292753890E+03  0.00000000000E+00 0.  1.
          1   -1    0    0  501    0  0.00000000000E+00 -0.00000000000E+00 -0.10927795223E+03  0.10927795223E+03  0.00000000000E+00 0.  1.
         36    2    1    2    0    0  0.00000000000E+00  0.35527136788E-14  0.63649586677E+02  0.28220549113E+03  0.27493393632E+03 0.  0.
         25    2    3    3    0    0  0.21513260619E+02  0.15797976987E+02  0.85142569061E+02  0.15335260847E+03  0.12472116500E+03 0.  0.
         25    2    3    3    0    0 -0.21513260619E+02 -0.15797976987E+02 -0.21492982384E+02  0.12885288266E+03  0.12421240123E+03 0.  0.
          5    1    4    4  502    0 -0.37623052982E+02  0.46552409081E+02  0.32394857380E+02  0.68221240766E+02  0.47000000000E+01 0. -1.
         -5    1    4    4    0  502  0.59136313601E+02 -0.30754432095E+02  0.52747711681E+02  0.85131367705E+02  0.47000000000E+01 0. -1.
          5    1    5    5  503    0  0.28955705309E+02  0.39217030955E+02  0.55971370048E+01  0.49293268603E+02  0.47000000000E+01 0. -1.
         -5    1    5    5    0  503 -0.50468965928E+02 -0.55015007942E+02 -0.27090119389E+02  0.79559614059E+02  0.47000000000E+01 0. -1.
<mgrwt>
<rscale>  0 0.27493394E+03</rscale>
<asrwt>0</asrwt>
<pdfrwt beam="1">  1        1 0.16811993E-01 0.27493394E+03</pdfrwt>
<pdfrwt beam="2">  1       -1 0.26604237E-01 0.27493394E+03</pdfrwt>
<totfact> 0.39958341E+03</totfact>
</mgrwt>
</event>
<event>
 9    1  0.2054950E-002  0.2744303E+03  0.7818608E-02  0.1098770E+00
          1   -1    0    0  501    0  0.00000000000E+00  0.00000000000E+00  0.78723050532E+03  0.78723050532E+03  0.00000000000E+00 0.  1.
         -1   -1    0    0    0  501 -0.00000000000E+00 -0.00000000000E+00 -0.23916745617E+02  0.23916745617E+02  0.00000000000E+00 0.  1.
         36    2    1    2    0    0  0.35527136788E-14 -0.71054273576E-14  0.76331375970E+03  0.81114725094E+03  0.27443025881E+03 0.  0.
         25    2    3    3    0    0 -0.30219530224E+02  0.23696937084E+02  0.25524860228E+03  0.28586243562E+03  0.12284428476E+03 0.  0.
         25    2    3    3    0    0  0.30219530224E+02 -0.23696937084E+02  0.50806515743E+03  0.52528481532E+03  0.12774649968E+03 0.  0.
          5    1    4    4  502    0 -0.33199192281E+02  0.70772965364E+02  0.18729142583E+03  0.20300533782E+03  0.47000000000E+01 0.  1.
         -5    1    4    4    0  502  0.29796620573E+01 -0.47076028279E+02  0.67957176447E+02  0.82857097796E+02  0.47000000000E+01 0.  1.
          5    1    5    5  503    0  0.67428019837E+02 -0.36314760181E+02  0.19218521744E+03  0.20693609513E+03  0.47000000000E+01 0. -1.
         -5    1    5    5    0  503 -0.37208489613E+02  0.12617823097E+02  0.31587993999E+03  0.31834872019E+03  0.47000000000E+01 0. -1.
<mgrwt>
<rscale>  0 0.27443026E+03</rscale>
<asrwt>0</asrwt>
<pdfrwt beam="1">  1        1 0.12111237E+00 0.27443026E+03</pdfrwt>
<pdfrwt beam="2">  1       -1 0.36794999E-02 0.27443026E+03</pdfrwt>
<totfact> 0.65662011E+03</totfact>
</mgrwt>
</event>
<event>
 9    1  0.2054950E-002  0.2748835E+03  0.7818608E-02  0.1098517E+00
         -1   -1    0    0    0  501 -0.00000000000E+00  0.00000000000E+00  0.12129239809E+02  0.12129239809E+02  0.00000000000E+00 0.  1.
          1   -1    0    0  501    0  0.00000000000E+00 -0.00000000000E+00 -0.15574128345E+04  0.15574128345E+04  0.00000000000E+00 0.  1.
         36    2    1    2    0    0  0.00000000000E+00  0.10658141036E-13 -0.15452835947E+04  0.15695420743E+04  0.27488349351E+03 0.  0.
         25    2    3    3    0    0  0.42958084545E+02  0.16942080819E+02 -0.71259110298E+03  0.72515412617E+03  0.12621408610E+03 0.  0.
         25    2    3    3    0    0 -0.42958084545E+02 -0.16942080819E+02 -0.83269249172E+03  0.84438794815E+03  0.13221872059E+03 0.  0.
          5    1    4    4  502    0  0.64896677084E+02  0.37097211642E+02 -0.23578946921E+03  0.24739956669E+03  0.47000000000E+01 0.  1.
         -5    1    4    4    0  502 -0.21938592540E+02 -0.20155130823E+02 -0.47680163376E+03  0.47775455948E+03  0.47000000000E+01 0.  1.
          5    1    5    5  503    0  0.11716406483E+01  0.47096561833E+02 -0.15077090895E+03  0.15802979423E+03  0.47000000000E+01 0. -1.
         -5    1    5    5    0  503 -0.44129725193E+02 -0.64038642652E+02 -0.68192158277E+03  0.68635815392E+03  0.47000000000E+01 0. -1.
<mgrwt>
<rscale>  0 0.27488349E+03</rscale>
<asrwt>0</asrwt>
<pdfrwt beam="1">  1        1 0.23960193E+00 0.27488349E+03</pdfrwt>
<pdfrwt beam="2">  1       -1 0.18660372E-02 0.27488349E+03</pdfrwt>
<totfact> 0.49762734E+03</totfact>
</mgrwt>
</event>
<event>
 9    1  0.2054950E-002  0.2756365E+03  0.7818608E-02  0.1098096E+00
         -1   -1    0    0    0  501 -0.00000000000E+00  0.00000000000E+00  0.28287064882E+03  0.28287064882E+03  0.00000000000E+00 0. -1.
          1   -1    0    0  501    0  0.00000000000E+00 -0.00000000000E+00 -0.67146816430E+02  0.67146816430E+02  0.00000000000E+00 0. -1.
         36    2    1    2    0    0  0.00000000000E+00  0.00000000000E+00  0.21572383240E+03  0.35001746525E+03  0.27563645281E+03 0.  0.
         25    2    3    3    0    0  0.36824134640E+02  0.36210883216E+02  0.13212725284E+03  0.18844931538E+03  0.12404954079E+03 0.  0.
         25    2    3    3    0    0 -0.36824134640E+02 -0.36210883216E+02  0.83596579551E+02  0.16156814987E+03  0.12825222799E+03 0.  0.
          5    1    4    4  502    0  0.17033674346E+02  0.81961805411E+02  0.75097940135E+02  0.11255964739E+03  0.47000000000E+01 0.  1.
         -5    1    4    4    0  502  0.19790460294E+02 -0.45750922196E+02  0.57029312709E+02  0.75889667995E+02  0.47000000000E+01 0.  1.
          5    1    5    5  503    0 -0.47778939142E+02 -0.14473176115E+02  0.11269102251E+03  0.12334365167E+03  0.47000000000E+01 0.  1.
         -5    1    5    5    0  503  0.10954804501E+02 -0.21737707101E+02 -0.29094442959E+02  0.38224498201E+02  0.47000000000E+01 0.  1.
<mgrwt>
<rscale>  0 0.27563645E+03</rscale>
<asrwt>0</asrwt>
<pdfrwt beam="1">  1        1 0.10330280E-01 0.27563645E+03</pdfrwt>
<pdfrwt beam="2">  1       -1 0.43518561E-01 0.27563645E+03</pdfrwt>
<totfact> 0.32426302E+03</totfact>
</mgrwt>
</event>
<event>
 9    1  0.2054950E-002  0.2763681E+03  0.7818608E-02  0.1097689E+00
          1   -1    0    0  501    0  0.00000000000E+00  0.00000000000E+00  0.21672691382E+04  0.21672691382E+04  0.00000000000E+00 0. -1.
         -1   -1    0    0    0  501 -0.00000000000E+00 -0.00000000000E+00 -0.88105497575E+01  0.88105497575E+01  0.00000000000E+00 0. -1.
         36    2    1    2    0    0 -0.71054273576E-14  0.71054273576E-14  0.21584585884E+04  0.21760796879E+04  0.27636810655E+03 0.  0.
         25    2    3    3    0    0  0.44142824235E+02 -0.27900335200E+02  0.98801618385E+03  0.99735426735E+03  0.12574791213E+03 0.  0.
         25    2    3    3    0    0 -0.44142824235E+02  0.27900335200E+02  0.11704424045E+04  0.11787254206E+04  0.12934905138E+03 0.  0.
          5    1    4    4  502    0  0.43892521413E+02  0.40655245246E+02  0.62630369760E+03  0.62917232459E+03  0.47000000000E+01 0. -1.
         -5    1    4    4    0  502  0.25030282153E+00 -0.68555580446E+02  0.36171248625E+03  0.36818194276E+03  0.47000000000E+01 0. -1.
          5    1    5    5  503    0 -0.66368984620E+01  0.77016807421E+02  0.66865039223E+03  0.67312040088E+03  0.47000000000E+01 0.  1.
         -5    1    5    5    0  503 -0.37505925773E+02 -0.49116472221E+02  0.50179201231E+03  0.50560501969E+03  0.47000000000E+01 0.  1.
<mgrwt>
<rscale>  0 0.27636811E+03</rscale>
<asrwt>0</asrwt>
<pdfrwt beam="1">  1        1 0.33342560E+00 0.27636811E+03</pdfrwt>
<pdfrwt beam="2">  1       -1 0.13554709E-02 0.27636811E+03</pdfrwt>
<totfact> 0.31760228E+03</totfact>
</mgrwt>
</event>
<event>
 9    1  0.2054950E-002  0.2769421E+03  0.7818608E-02  0.1097371E+00
          3   -1    0    0  501    0  0.00000000000E+00  0.00000000000E+00  0.10481542408E+02  0.10481542408E+02  0.00000000000E+00 0. -1.
         -3   -1    0    0    0  501 -0.00000000000E+00 -0.00000000000E+00 -0.18293329900E+04  0.18293329900E+04  0.00000000000E+00 0. -1.
         36    2    1    2    0    0  0.00000000000E+00  0.00000000000E+00 -0.18188514476E+04  0.18398145324E+04  0.27694209729E+03 0.  0.
         25    2    3    3    0    0  0.39404841009E+02  0.36824515211E+02 -0.75669475960E+03  0.76890437631E+03  0.12537222298E+03 0.  0.
         25    2    3    3    0    0 -0.39404841009E+02 -0.36824515211E+02 -0.10621566880E+04  0.10709101561E+04  0.12555057212E+03 0.  0.
          5    1    4    4  502    0  0.20944787664E+01  0.32210723402E+02 -0.69973520582E+03  0.70049508621E+03  0.47000000000E+01 0. -1.
         -5    1    4    4    0  502  0.37310362243E+02  0.46137918091E+01 -0.56959553775E+02  0.68409290098E+02  0.47000000000E+01 0. -1.
          5    1    5    5  503    0 -0.67030111315E+02  0.21423372904E+01 -0.30915447635E+03  0.31637984399E+03  0.47000000000E+01 0.  1.
         -5    1    5    5    0  503  0.27625270306E+02 -0.38966852501E+02 -0.75300221163E+03  0.75453031209E+03  0.47000000000E+01 0.  1.
<mgrwt>
<rscale>  0 0.27694210E+03</rscale>
<asrwt>0</asrwt>
<pdfrwt beam="1">  1        3 0.16125458E-02 0.27694210E+03</pdfrwt>
<pdfrwt beam="2">  1       -3 0.28143570E+00 0.27694210E+03</pdfrwt>
<totfact> 0.18500799E+02</totfact>
</mgrwt>
</event>
<event>
 9    1  0.2054950E-002  0.2719737E+03  0.7818608E-02  0.1100155E+00
         -2   -1    0    0    0  501 -0.00000000000E+00  0.00000000000E+00  0.30616321662E+03  0.30616321662E+03  0.00000000000E+00 0.  1.
          2   -1    0    0  501    0  0.00000000000E+00 -0.00000000000E+00 -0.60400531280E+02  0.60400531280E+02  0.00000000000E+00 0.  1.
         36    2    1    2    0    0  0.71054273576E-14 -0.71054273576E-14  0.24576268534E+03  0.36656374790E+03  0.27197368212E+03 0.  0.
         25    2    3    3    0    0 -0.47730318444E+02  0.28096197952E+02  0.11752918445E+03  0.17976234551E+03  0.12423289431E+03 0.  0.
         25    2    3    3    0    0  0.47730318444E+02 -0.28096197952E+02  0.12823350089E+03  0.18680140239E+03  0.12402964785E+03 0.  0.
          5    1    4    4  502    0 -0.14907295983E+02 -0.31456609996E+02 -0.88055591058E+01  0.36212893520E+02  0.47000000000E+01 0. -1.
         -5    1    4    4    0  502 -0.32823022461E+02  0.59552807948E+02  0.12633474355E+03  0.14354945199E+03  0.47000000000E+01 0. -1.
          5    1    5    5  503    0  0.75224874188E+02  0.21404340891E+02  0.83337247911E+02  0.11438581378E+03  0.47000000000E+01 0. -1.
         -5    1    5    5    0  503 -0.27494555744E+02 -0.49500538843E+02  0.44896252982E+02  0.72415588605E+02  0.47000000000E+01 0. -1.
<mgrwt>
<rscale>  0 0.27197368E+03</rscale>
<asrwt>0</asrwt>
<pdfrwt beam="1">  1        2 0.92923896E-02 0.27197368E+03</pdfrwt>
<pdfrwt beam="2">  1       -2 0.47102032E-01 0.27197368E+03</pdfrwt>
<totfact> 0.30282335E+03</totfact>
</mgrwt>
</event>
<event>
 9    1  0.2054950E-002  0.2756506E+03  0.7818608E-02  0.1098089E+00
          3   -1    0    0  501    0  0.00000000000E+00  0.00000000000E+00  0.22214707643E+03  0.22214707643E+03  0.00000000000E+00 0.  1.
         -3   -1    0    0    0  501 -0.00000000000E+00 -0.00000000000E+00 -0.85510044856E+02  0.85510044856E+02  0.00000000000E+00 0.  1.
         36    2    1    2    0    0 -0.53290705182E-14 -0.71054273576E-14  0.13663703157E+03  0.30765712128E+03  0.27565055030E+03 0.  0.
         25    2    3    3    0    0 -0.13229413904E+02  0.21932526404E+02  0.11801941173E+03  0.17845372400E+03  0.13138149396E+03 0.  0.
         25    2    3    3    0    0  0.13229413904E+02 -0.21932526404E+02  0.18617619839E+02  0.12920339729E+03  0.12526311905E+03 0.  0.
          5    1    4    4  502    0 -0.42316941738E+02  0.64217519383E+02  0.45485667706E+02  0.89474294188E+02  0.47000000000E+01 0. -1.
         -5    1    4    4    0  502  0.29087527835E+02 -0.42284992980E+02  0.72533744024E+02  0.88979429808E+02  0.47000000000E+01 0. -1.
          5    1    5    5  503    0  0.26029410451E+02 -0.59046354359E+02  0.47478271793E+02  0.80251345558E+02  0.47000000000E+01 0.  1.
         -5    1    5    5    0  503 -0.12799996547E+02  0.37113827955E+02 -0.28860651954E+02  0.48952051727E+02  0.47000000000E+01 0.  1.
<mgrwt>
<rscale>  0 0.27565055E+03</rscale>
<asrwt>0</asrwt>
<pdfrwt beam="1">  1        3 0.34176473E-01 0.27565055E+03</pdfrwt>
<pdfrwt beam="2">  1       -3 0.13155392E-01 0.27565055E+03</pdfrwt>
<totfact> 0.99349406E+02</totfact>
</mgrwt>
</event>
<event>
 9    1  0.2054950E-002  0.2763294E+03  0.7818608E-02  0.1097711E+00
          2   -1    0    0  501    0  0.00000000000E+00  0.00000000000E+00  0.72286764706E+03  0.72286764706E+03  0.00000000000E+00 0. -1.
         -2   -1    0    0    0  501 -0.00000000000E+00 -0.00000000000E+00 -0.26407991597E+02  0.26407991597E+02  0.00000000000E+00 0. -1.
         36    2    1    2    0    0 -0.17763568394E-14  0.00000000000E+00  0.69645965546E+03  0.74927563865E+03  0.27632938859E+03 0.  0.
         25    2    3    3    0    0  0.11462134780E+02 -0.40853242046E+02  0.26475648715E+03  0.29703081579E+03  0.12779256677E+03 0.  0.
         25    2    3    3    0    0 -0.11462134780E+02  0.40853242046E+02  0.43170316831E+03  0.45224482287E+03  0.12789599821E+03 0.  0.
          5    1    4    4  502    0 -0.58049414617E+00 -0.16476983312E+02  0.26862275702E+03  0.26916928417E+03  0.47000000000E+01 0.  1.
         -5    1    4    4    0  502  0.12042628926E+02 -0.24376258735E+02 -0.38662698720E+01  0.27861531617E+02  0.47000000000E+01 0.  1.
          5    1    5    5  503    0  0.44640093288E+02  0.11642878540E+02  0.63561214722E+02  0.78679174922E+02  0.47000000000E+01 0.  1.
         -5    1    5    5    0  503 -0.56102228068E+02  0.29210363507E+02  0.36814195359E+03  0.37356564795E+03  0.47000000000E+01 0.  1.
<mgrwt>
<rscale>  0 0.27632939E+03</rscale>
<asrwt>0</asrwt>
<pdfrwt beam="1">  1        2 0.11121039E+00 0.27632939E+03</pdfrwt>
<pdfrwt beam="2">  1       -2 0.40627685E-02 0.27632939E+03</pdfrwt>
<totfact> 0.10782698E+04</totfact>
</mgrwt>
</event>
<event>
 9    1  0.2054950E-002  0.2741707E+03  0.7818608E-02  0.1098916E+00
         -1   -1    0    0    0  501 -0.00000000000E+00  0.00000000000E+00  0.39835066742E+02  0.39835066742E+02  0.00000000000E+00 0.  1.
          1   -1    0    0  501    0  0.00000000000E+00 -0.00000000000E+00 -0.47175504325E+03  0.47175504325E+03  0.00000000000E+00 0.  1.
         36    2    1    2    0    0  0.00000000000E+00 -0.35527136788E-14 -0.43191997651E+03  0.51159010999E+03  0.27417070328E+03 0.  0.
         25    2    3    3    0    0  0.23703991165E+01 -0.23031624976E+02 -0.18234357130E+03  0.23454306872E+03  0.14568870426E+03 0.  0.
         25    2    3    3    0    0 -0.23703991165E+01  0.23031624976E+02 -0.24957640520E+03  0.27704704127E+03  0.11802799032E+03 0.  0.
          5    1    4    4  502    0  0.35523206385E+02 -0.49958666303E+02 -0.17114204301E+02  0.63818120620E+02  0.47000000000E+01 0.  1.
         -5    1    4    4    0  502 -0.33152807269E+02  0.26927041327E+02 -0.16522936700E+03  0.17072494810E+03  0.47000000000E+01 0.  1.
          5    1    5    5  503    0 -0.20718565812E+02 -0.26581889755E+02 -0.20472918060E+03  0.20753790791E+03  0.47000000000E+01 0.  1.
         -5    1    5    5    0  503  0.18348166696E+02  0.49613514731E+02 -0.44847224605E+02  0.69509133355E+02  0.47000000000E+01 0.  1.
<mgrwt>
<rscale>  0 0.27417070E+03</rscale>
<asrwt>0</asrwt>
<pdfrwt beam="1">  1        1 0.72577702E-01 0.27417070E+03</pdfrwt>
<pdfrwt beam="2">  1       -1 0.61284716E-02 0.27417070E+03</pdfrwt>
<totfact> 0.62813465E+03</totfact>
</mgrwt>
</event>
<event>
 9    1  0.2054950E-002  0.2750901E+03  0.7818608E-02  0.1098401E+00
          1   -1    0    0  501    0  0.00000000000E+00  0.00000000000E+00  0.79153259340E+03  0.79153259340E+03  0.00000000000E+00 0.  1.
         -1   -1    0    0    0  501 -0.00000000000E+00 -0.00000000000E+00 -0.23901278156E+02  0.23901278156E+02  0.00000000000E+00 0.  1.
         36    2    1    2    0    0  0.00000000000E+00 -0.35527136788E-14  0.76763131525E+03  0.81543387156E+03  0.27509009931E+03 0.  0.
         25    2    3    3    0    0  0.55551735055E+02  0.92938526946E+01  0.40708185733E+03  0.42967391638E+03  0.12542593386E+03 0.  0.
         25    2    3    3    0    0 -0.55551735055E+02 -0.92938526946E+01  0.36054945792E+03  0.38575995518E+03  0.12506982230E+03 0.  0.
          5    1    4    4  502    0  0.91176670305E+01  0.60245427354E+02  0.26122738572E+03  0.26828060016E+03  0.47000000000E+01 0. -1.
         -5    1    4    4    0  502  0.46434068024E+02 -0.50951574660E+02  0.14585447161E+03  0.16139331622E+03  0.47000000000E+01 0. -1.
          5    1    5    5  503    0 -0.67731206191E+02 -0.34833352955E+02  0.11178363494E+03  0.13534603730E+03  0.47000000000E+01 0. -1.
         -5    1    5    5    0  503  0.12179471137E+02  0.25539500260E+02  0.24876582297E+03  0.25041391788E+03  0.47000000000E+01 0. -1.
<mgrwt>
<rscale>  0 0.27509010E+03</rscale>
<asrwt>0</asrwt>
<pdfrwt beam="1">  1        1 0.12177422E+00 0.27509010E+03</pdfrwt>
<pdfrwt beam="2">  1       -1 0.36771203E-02 0.27509010E+03</pdfrwt>
<totfact> 0.65182879E+03</totfact>
</mgrwt>
</event>
<event>
 9    1  0.2054950E-002  0.2743688E+03  0.7818608E-02  0.1098805E+00
         -3   -1    0    0    0  501 -0.00000000000E+00  0.00000000000E+00  0.34055236651E+02  0.34055236651E+02  0.00000000000E+00 0.  1.
          3   -1    0    0  501    0  0.00000000000E+00 -0.00000000000E+00 -0.55261862400E+03  0.55261862400E+03  0.00000000000E+00 0.  1.
         36    2    1    2    0    0 -0.71054273576E-14  0.71054273576E-14 -0.51856338735E+03  0.58667386065E+03  0.27436878844E+03 0.  0.
         25    2    3    3    0    0  0.44783131142E+02 -0.31018324776E+02 -0.21561447862E+03  0.25356294051E+03  0.12180679826E+03 0.  0.
         25    2    3    3    0    0 -0.44783131142E+02  0.31018324776E+02 -0.30294890873E+03  0.33311092014E+03  0.12734668630E+03 0.  0.
          5    1    4    4  502    0  0.16824091260E+02  0.89998782927E+01 -0.20160145744E+03  0.20255686979E+03  0.47000000000E+01 0. -1.
         -5    1    4    4    0  502  0.27959039882E+02 -0.40018203069E+02 -0.14013021181E+02  0.51006070723E+02  0.47000000000E+01 0. -1.
          5    1    5    5  503    0 -0.46688520967E+02 -0.18804795192E+02 -0.26629255949E+03  0.27104843765E+03  0.47000000000E+01 0. -1.
         -5    1    5    5    0  503  0.19053898248E+01  0.49823119968E+02 -0.36656349243E+02  0.62062482495E+02  0.47000000000E+01 0. -1.
<mgrwt>
<rscale>  0 0.27436879E+03</rscale>
<asrwt>0</asrwt>
<pdfrwt beam="1">  1        3 0.85018249E-01 0.27436879E+03</pdfrwt>
<pdfrwt beam="2">  1       -3 0.52392672E-02 0.27436879E+03</pdfrwt>
<totfact> 0.70150206E+02</totfact>
</mgrwt>
</event>
<event>
 9    1  0.2054950E-002  0.2761850E+03  0.7818608E-02  0.1097791E+00
         -1   -1    0    0    0  501 -0.00000000000E+00  0.00000000000E+00  0.47495195234E+02  0.47495195234E+02  0.00000000000E+00 0. -1.
          1   -1    0    0  501    0  0.00000000000E+00 -0.00000000000E+00 -0.40150457880E+03  0.40150457880E+03  0.00000000000E+00 0. -1.
         36    2    1    2    0    0  0.71054273576E-14  0.17763568394E-14 -0.35400938357E+03  0.44899977403E+03  0.27618499856E+03 0.  0.
         25    2    3    3    0    0  0.19290145538E+02  0.12400326013E+02 -0.89510971796E+02  0.15532431195E+03  0.12485011017E+03 0.  0.
         25    2    3    3    0    0 -0.19290145538E+02 -0.12400326013E+02 -0.26449841177E+03  0.29367546209E+03  0.12553879641E+03 0.  0.
          5    1    4    4  502    0  0.57093486955E+02  0.15657814808E+02 -0.99438656678E+02  0.11582301092E+03  0.47000000000E+01 0. -1.
         -5    1    4    4    0  502 -0.37803341417E+02 -0.32574887949E+01  0.99276848815E+01  0.39501301025E+02  0.47000000000E+01 0. -1.
          5    1    5    5  503    0  0.49711642007E+02  0.18033332071E+01 -0.15952139070E+03  0.16716358291E+03  0.47000000000E+01 0. -1.
         -5    1    5    5    0  503 -0.69001787544E+02 -0.14203659220E+02 -0.10497702107E+03  0.12651187918E+03  0.47000000000E+01 0. -1.
<mgrwt>
<rscale>  0 0.27618500E+03</rscale>
<asrwt>0</asrwt>
<pdfrwt beam="1">  1        1 0.61769937E-01 0.27618500E+03</pdfrwt>
<pdfrwt beam="2">  1       -1 0.73069529E-02 0.27618500E+03</pdfrwt>
<totfact> 0.59329921E+03</totfact>
</mgrwt>
</event>
<event>
 9    1  0.2054950E-002  0.2749986E+03  0.7818608E-02  0.1098452E+00
         -1   -1    0    0    0  501 -0.00000000000E+00  0.00000000000E+00  0.55649489812E+03  0.55649489812E+03  0.00000000000E+00 0. -1.
          1   -1    0    0  501    0  0.00000000000E+00 -0.00000000000E+00 -0.33973463704E+02  0.33973463704E+02  0.00000000000E+00 0. -1.
         36    2    1    2    0    0  0.00000000000E+00  0.00000000000E+00  0.52252143442E+03  0.59046836182E+03  0.27499861253E+03 0.  0.
         25    2    3    3    0    0 -0.74983127448E+01  0.46237237461E+02  0.18600032887E+03  0.22871927856E+03  0.12458843936E+03 0.  0.
         25    2    3    3    0    0  0.74983127448E+01 -0.46237237461E+02  0.33652110555E+03  0.36174908327E+03  0.12418469287E+03 0.  0.
          5    1    4    4  502    0 -0.27522003602E+02 -0.19866100743E+02  0.46207145825E+01  0.34576923580E+02  0.47000000000E+01 0.  1.
         -5    1    4    4    0  502  0.20023690857E+02  0.66103338204E+02  0.18137961428E+03  0.19414235497E+03  0.47000000000E+01 0.  1.
          5    1    5    5  503    0  0.60040625878E+02 -0.27385410298E+02  0.10963767036E+03  0.12805212304E+03  0.47000000000E+01 0.  1.
         -5    1    5    5    0  503 -0.52542313134E+02 -0.18851827164E+02  0.22688343519E+03  0.23369696023E+03  0.47000000000E+01 0.  1.
<mgrwt>
<rscale>  0 0.27499861E+03</rscale>
<asrwt>0</asrwt>
<pdfrwt beam="1">  1        1 0.52266871E-02 0.27499861E+03</pdfrwt>
<pdfrwt beam="2">  1       -1 0.85614593E-01 0.27499861E+03</pdfrwt>
<totfact> 0.22094736E+03</totfact>
</mgrwt>
</event>
<event>
 9    1  0.2054950E-002  0.2751026E+03  0.7818608E-02  0.1098394E+00
          2   -1    0    0  501    0  0.00000000000E+00  0.00000000000E+00  0.21355816134E+04  0.21355816134E+04  0.00000000000E+00 0. -1.
         -2   -1    0    0    0  501 -0.00000000000E+00 -0.00000000000E+00 -0.88595787295E+01  0.88595787295E+01  0.00000000000E+00 0. -1.
         36    2    1    2    0    0 -0.71054273576E-14  0.00000000000E+00  0.21267220347E+04  0.21444411921E+04  0.27510255133E+03 0.  0.
         25    2    3    3    0    0  0.32379547222E+02 -0.48151595866E+02  0.10160120828E+04  0.10257675177E+04  0.12865238771E+03 0.  0.
         25    2    3    3    0    0 -0.32379547222E+02  0.48151595866E+02  0.11107099519E+04  0.11186736744E+04  0.11994657664E+03 0.  0.
          5    1    4    4  502    0 -0.33449067189E+02 -0.37523113733E+01  0.87712372893E+02  0.94066307969E+02  0.47000000000E+01 0.  1.
         -5    1    4    4    0  502  0.65828614411E+02 -0.44399284492E+02  0.92829970987E+03  0.93170120977E+03  0.47000000000E+01 0.  1.
          5    1    5    5  503    0  0.40780834469E+02  0.43370702951E+02  0.51482438371E+03  0.51827630700E+03  0.47000000000E+01 0. -1.
         -5    1    5    5    0  503 -0.73160381691E+02  0.47808929145E+01  0.59588556821E+03  0.60039736740E+03  0.47000000000E+01 0. -1.
<mgrwt>
<rscale>  0 0.27510255E+03</rscale>
<asrwt>0</asrwt>
<pdfrwt beam="1">  1        2 0.32855061E+00 0.27510255E+03</pdfrwt>
<pdfrwt beam="2">  1       -2 0.13630138E-02 0.27510255E+03</pdfrwt>
<totfact> 0.85512342E+03</totfact>
</mgrwt>
</event>
<event>
 9    1  0.2054950E-002  0.2739404E+03  0.7818608E-02  0.1099045E+00
         -2   -1    0    0    0  501 -0.00000000000E+00  0.00000000000E+00  0.20158979810E+02  0.20158979810E+02  0.00000000000E+00 0.  1.
          2   -1    0    0  501    0  0.00000000000E+00 -0.00000000000E+00 -0.93064408841E+03  0.93064408841E+03  0.00000000000E+00 0.  1.
         36    2    1    2    0    0 -0.71054273576E-14  0.00000000000E+00 -0.91048510860E+03  0.95080306822E+03  0.27394039781E+03 0.  0.
         25    2    3    3    0    0 -0.35449394139E+02 -0.21010713520E+02 -0.58891762061E+03  0.60359370891E+03  0.12571114486E+03 0.  0.
         25    2    3    3    0    0  0.35449394139E+02  0.21010713520E+02 -0.32156748799E+03  0.34720935931E+03  0.12430036296E+03 0.  0.
          5    1    4    4  502    0 -0.46583403996E+01 -0.71117311636E+02 -0.37206075768E+03  0.37885441736E+03  0.47000000000E+01 0.  1.
         -5    1    4    4    0  502 -0.30791053739E+02  0.50106598116E+02 -0.21685686293E+03  0.22473929155E+03  0.47000000000E+01 0.  1.
          5    1    5    5  503    0  0.34538540960E+02  0.67520450196E+02 -0.13544561276E+03  0.15530462331E+03  0.47000000000E+01 0.  1.
         -5    1    5    5    0  503  0.91085317906E+00 -0.46509736676E+02 -0.18612187523E+03  0.19190473600E+03  0.47000000000E+01 0.  1.
<mgrwt>
<rscale>  0 0.27394040E+03</rscale>
<asrwt>0</asrwt>
<pdfrwt beam="1">  1        2 0.14317599E+00 0.27394040E+03</pdfrwt>
<pdfrwt beam="2">  1       -2 0.31013819E-02 0.27394040E+03</pdfrwt>
<totfact> 0.11663556E+04</totfact>
</mgrwt>
</event>
<event>
 9    1  0.2054950E-002  0.2742479E+03  0.7818608E-02  0.1098873E+00
          1   -1    0    0  501    0  0.00000000000E+00  0.00000000000E+00  0.30723742954E+02  0.30723742954E+02  0.00000000000E+00 0. -1.
         -1   -1    0    0    0  501 -0.00000000000E+00 -0.00000000000E+00 -0.61200167634E+03  0.61200167634E+03  0.00000000000E+00 0. -1.
         36    2    1    2    0    0  0.35527136788E-14  0.00000000000E+00 -0.58127793339E+03  0.64272541930E+03  0.27424793302E+03 0.  0.
         25    2    3    3    0    0  0.17620814354E+02  0.50030412036E+02 -0.36609626123E+03  0.38879660846E+03  0.11967788030E+03 0.  0.
         25    2    3    3    0    0 -0.17620814354E+02 -0.50030412036E+02 -0.21518167216E+03  0.25392881084E+03  0.12394818964E+03 0.  0.
          5    1    4    4  502    0  0.42839153534E+02  0.77552777338E+02 -0.20518758664E+03  0.22354789657E+03  0.47000000000E+01 0. -1.
         -5    1    4    4    0  502 -0.25218339179E+02 -0.27522365302E+02 -0.16090867459E+03  0.16524871189E+03  0.47000000000E+01 0. -1.
          5    1    5    5  503    0 -0.64979814515E+01  0.23127148761E+02  0.18819892626E+01  0.24550369780E+02  0.47000000000E+01 0. -1.
         -5    1    5    5    0  503 -0.11122832903E+02 -0.73157560797E+02 -0.21706366142E+03  0.22937844106E+03  0.47000000000E+01 0. -1.
<mgrwt>
<rscale>  0 0.27424793E+03</rscale>
<asrwt>0</asrwt>
<pdfrwt beam="1">  1        1 0.47267297E-02 0.27424793E+03</pdfrwt>
<pdfrwt beam="2">  1       -1 0.94154103E-01 0.27424793E+03</pdfrwt>
<totfact> 0.20706192E+03</totfact>
</mgrwt>
</event>
<event>
 9    1  0.2054950E-002  0.2742377E+03  0.7818608E-02  0.1098878E+00
         -2   -1    0    0    0  501 -0.00000000000E+00  0.00000000000E+00  0.30170234625E+02  0.30170234625E+02  0.00000000000E+00 0.  1.
          2   -1    0    0  501    0  0.00000000000E+00 -0.00000000000E+00 -0.62318308261E+03  0.62318308261E+03  0.00000000000E+00 0.  1.
         36    2    1    2    0    0 -0.71054273576E-14  0.00000000000E+00 -0.59301284799E+03  0.65335331724E+03  0.27423770577E+03 0.  0.
         25    2    3    3    0    0 -0.97051312167E+01  0.54541720002E+02 -0.31880832489E+03  0.34692198649E+03  0.12508848025E+03 0.  0.
         25    2    3    3    0    0  0.97051312167E+01 -0.54541720002E+02 -0.27420452309E+03  0.30643133075E+03  0.12507218391E+03 0.  0.
          5    1    4    4  502    0  0.45095065561E+02  0.21852056746E+02 -0.24093093693E+03  0.24613184209E+03  0.47000000000E+01 0. -1.
         -5    1    4    4    0  502 -0.54800196778E+02  0.32689663255E+02 -0.77877387969E+02  0.10079014440E+03  0.47000000000E+01 0. -1.
          5    1    5    5  503    0 -0.85841309928E+01 -0.22634684353E+02  0.46741287434E+01  0.25098878863E+02  0.47000000000E+01 0. -1.
         -5    1    5    5    0  503  0.18289262210E+02 -0.31907035649E+02 -0.27887865184E+03  0.28133245189E+03  0.47000000000E+01 0. -1.
<mgrwt>
<rscale>  0 0.27423771E+03</rscale>
<asrwt>0</asrwt>
<pdfrwt beam="1">  1        2 0.95874315E-01 0.27423771E+03</pdfrwt>
<pdfrwt beam="2">  1       -2 0.46415748E-02 0.27423771E+03</pdfrwt>
<totfact> 0.10532021E+04</totfact>
</mgrwt>
</event>
<event>
 9    1  0.2054950E-002  0.2750767E+03  0.7818608E-02  0.1098409E+00
          1   -1    0    0  501    0  0.00000000000E+00  0.00000000000E+00  0.45710126005E+03  0.45710126005E+03  0.00000000000E+00 0.  1.
         -1   -1    0    0    0  501 -0.00000000000E+00 -0.00000000000E+00 -0.41384257264E+02  0.41384257264E+02  0.00000000000E+00 0.  1.
         36    2    1    2    0    0  0.35527136788E-14 -0.71054273576E-14  0.41571700278E+03  0.49848551731E+03  0.27507668852E+03 0.  0.
         25    2    3    3    0    0 -0.13383880854E+02  0.35573596581E+02  0.27790379570E+03  0.30798916366E+03  0.12720926157E+03 0.  0.
         25    2    3    3    0    0  0.13383880854E+02 -0.35573596581E+02  0.13781320708E+03  0.19049635365E+03  0.12590381911E+03 0.  0.
          5    1    4    4  502    0 -0.63493822688E+01 -0.46021400679E+02  0.66756872529E+02  0.81466889013E+02  0.47000000000E+01 0. -1.
         -5    1    4    4    0  502 -0.70344985848E+01  0.81594997261E+02  0.21114692317E+03  0.22652227465E+03  0.47000000000E+01 0. -1.
          5    1    5    5  503    0 -0.48787413566E+02 -0.42435763713E+02  0.46784807745E+02  0.79949446528E+02  0.47000000000E+01 0.  1.
         -5    1    5    5    0  503  0.62171294420E+02  0.68621671324E+01  0.91028399338E+02  0.11054690712E+03  0.47000000000E+01 0.  1.
<mgrwt>
<rscale>  0 0.27507669E+03</rscale>
<asrwt>0</asrwt>
<pdfrwt beam="1">  1        1 0.70323267E-01 0.27507669E+03</pdfrwt>
<pdfrwt beam="2">  1       -1 0.63668091E-02 0.27507669E+03</pdfrwt>
<totfact> 0.61804599E+03</totfact>
</mgrwt>
</event>
<event>
 9    1  0.2054950E-002  0.2749564E+03  0.7818608E-02  0.1098476E+00
         -1   -1    0    0    0  501 -0.00000000000E+00  0.00000000000E+00  0.96121958043E+02  0.96121958043E+02  0.00000000000E+00 0.  1.
          1   -1    0    0  501    0  0.00000000000E+00 -0.00000000000E+00 -0.19662785567E+03  0.19662785567E+03  0.00000000000E+00 0.  1.
         36    2    1    2    0    0  0.14210854715E-13  0.71054273576E-14 -0.10050589763E+03  0.29274981371E+03  0.27495639285E+03 0.  0.
         25    2    3    3    0    0  0.63761460512E+02  0.31696614289E+02 -0.80957081209E+02  0.16611546386E+03  0.12637285758E+03 0.  0.
         25    2    3    3    0    0 -0.63761460512E+02 -0.31696614289E+02 -0.19548816420E+02  0.12663434985E+03  0.10287809842E+03 0.  0.
          5    1    4    4  502    0 -0.25304685217E+02  0.13449637010E+02 -0.68280948429E+02  0.74199715283E+02  0.47000000000E+01 0. -1.
         -5    1    4    4    0  502  0.89066145729E+02  0.18246977279E+02 -0.12676132779E+02  0.91915748580E+02  0.47000000000E+01 0. -1.
          5    1    5    5  503    0 -0.22814969996E+02 -0.19114761961E+02  0.41882349240E+02  0.51595718414E+02  0.47000000000E+01 0.  1.
         -5    1    5    5    0  503 -0.40946490516E+02 -0.12581852328E+02 -0.61431165661E+02  0.75038631437E+02  0.47000000000E+01 0.  1.
<mgrwt>
<rscale>  0 0.27495639E+03</rscale>
<asrwt>0</asrwt>
<pdfrwt beam="1">  1        1 0.30250439E-01 0.27495639E+03</pdfrwt>
<pdfrwt beam="2">  1       -1 0.14787994E-01 0.27495639E+03</pdfrwt>
<totfact> 0.48944141E+03</totfact>
</mgrwt>
</event>
<event>
 9    1  0.2054950E-002  0.2744616E+03  0.7818608E-02  0.1098753E+00
          3   -1    0    0  501    0  0.00000000000E+00  0.00000000000E+00  0.72094115068E+01  0.72094115068E+01  0.00000000000E+00 0.  1.
         -3   -1    0    0    0  501 -0.00000000000E+00 -0.00000000000E+00 -0.26121817913E+04  0.26121817913E+04  0.00000000000E+00 0.  1.
         36    2    1    2    0    0  0.00000000000E+00 -0.35527136788E-14 -0.26049723798E+04  0.26193912028E+04  0.27446160725E+03 0.  0.
         25    2    3    3    0    0  0.47392078190E+02  0.73768170874E+01 -0.15576928094E+04  0.15639748674E+04  0.13156774280E+03 0.  0.
         25    2    3    3    0    0 -0.47392078190E+02 -0.73768170874E+01 -0.10472795704E+04  0.10554163354E+04  0.12169106763E+03 0.  0.
          5    1    4    4  502    0 -0.36394066277E+02 -0.28221600646E+02 -0.67569779804E+03  0.67728176638E+03  0.47000000000E+01 0. -1.
         -5    1    4    4    0  502  0.83786144466E+02  0.35598417734E+02 -0.88199501136E+03  0.88669310103E+03  0.47000000000E+01 0. -1.
          5    1    5    5  503    0 -0.53145200717E+02  0.23556475714E+02 -0.22228696418E+03  0.22981058363E+03  0.47000000000E+01 0. -1.
         -5    1    5    5    0  503  0.57531225268E+01 -0.30933292802E+02 -0.82499260620E+03  0.82560575174E+03  0.47000000000E+01 0. -1.
<mgrwt>
<rscale>  0 0.27446161E+03</rscale>
<asrwt>0</asrwt>
<pdfrwt beam="1">  1        3 0.11091398E-02 0.27446161E+03</pdfrwt>
<pdfrwt beam="2">  1       -3 0.40187429E+00 0.27446161E+03</pdfrwt>
<totfact> 0.74264546E+01</totfact>
</mgrwt>
</event>
<event>
 9    1  0.2054950E-002  0.2747343E+03  0.7818608E-02  0.1098600E+00
         -2   -1    0    0    0  501 -0.00000000000E+00  0.00000000000E+00  0.12595442432E+04  0.12595442432E+04  0.00000000000E+00 0. -1.
          2   -1    0    0  501    0  0.00000000000E+00 -0.00000000000E+00 -0.14981403596E+02  0.14981403596E+02  0.00000000000E+00 0. -1.
         36    2    1    2    0    0  0.35527136788E-14  0.71054273576E-14  0.12445628396E+04  0.12745256468E+04  0.27473434918E+03 0.  0.
         25    2    3    3    0    0  0.18523566200E+02 -0.29069734855E+02  0.79686087702E+03  0.80772617687E+03  0.12746037614E+03 0.  0.
         25    2    3    3    0    0 -0.18523566200E+02  0.29069734855E+02  0.44770196261E+03  0.46679946995E+03  0.12757948829E+03 0.  0.
          5    1    4    4  502    0 -0.36147236804E+02 -0.52419852338E+02  0.55327347672E+03  0.55694532379E+03  0.47000000000E+01 0.  1.
         -5    1    4    4    0  502  0.54670803004E+02  0.23350117483E+02  0.24358740030E+03  0.25078085308E+03  0.47000000000E+01 0.  1.
          5    1    5    5  503    0 -0.93147736446E+01 -0.50486986826E+02  0.19256498713E+03  0.19934659545E+03  0.47000000000E+01 0.  1.
         -5    1    5    5    0  503 -0.92087925550E+01  0.79556721681E+02  0.25513697548E+03  0.26745287450E+03  0.47000000000E+01 0.  1.
<mgrwt>
<rscale>  0 0.27473435E+03</rscale>
<asrwt>0</asrwt>
<pdfrwt beam="1">  1        2 0.23048323E-02 0.27473435E+03</pdfrwt>
<pdfrwt beam="2">  1       -2 0.19377595E+00 0.27473435E+03</pdfrwt>
<totfact> 0.71133109E+02</totfact>
</mgrwt>
</event>
<event>
 9    1  0.2054950E-002  0.2750419E+03  0.7818608E-02  0.1098428E+00
         -2   -1    0    0    0  501 -0.00000000000E+00  0.00000000000E+00  0.64799991749E+01  0.64799991749E+01  0.00000000000E+00 0. -1.
          2   -1    0    0  501    0  0.00000000000E+00 -0.00000000000E+00 -0.29185200197E+04  0.29185200197E+04  0.00000000000E+00 0. -1.
         36    2    1    2    0    0 -0.17763568394E-14  0.71054273576E-14 -0.29120400205E+04  0.29250000188E+04  0.27504186823E+03 0.  0.
         25    2    3    3    0    0 -0.98962998138E+01  0.39637627819E+02 -0.10894778154E+04  0.10976374908E+04  0.12718912218E+03 0.  0.
         25    2    3    3    0    0  0.98962998138E+01 -0.39637627819E+02 -0.18225622051E+04  0.18273625280E+04  0.12590368920E+03 0.  0.
          5    1    4    4  502    0  0.54690033895E+02  0.45219797033E+01 -0.32663148427E+03  0.33124260690E+03  0.47000000000E+01 0. -1.
         -5    1    4    4    0  502 -0.64586333709E+02  0.35115648115E+02 -0.76284633109E+03  0.76639488393E+03  0.47000000000E+01 0. -1.
          5    1    5    5  503    0 -0.12145232926E+02  0.33610780253E+02 -0.21708348202E+03  0.22005571884E+03  0.47000000000E+01 0. -1.
         -5    1    5    5    0  503  0.22041532739E+02 -0.73248408071E+02 -0.16054787231E+04  0.16073068092E+04  0.47000000000E+01 0. -1.
<mgrwt>
<rscale>  0 0.27504187E+03</rscale>
<asrwt>0</asrwt>
<pdfrwt beam="1">  1        2 0.44900348E+00 0.27504187E+03</pdfrwt>
<pdfrwt beam="2">  1       -2 0.99692206E-03 0.27504187E+03</pdfrwt>
<totfact> 0.49832682E+03</totfact>
</mgrwt>
</event>
<event>
 9    1  0.2054950E-002  0.2749159E+03  0.7818608E-02  0.1098499E+00
          4   -1    0    0  501    0  0.00000000000E+00  0.00000000000E+00  0.34432393340E+02  0.34432393340E+02  0.00000000000E+00 0.  1.
         -4   -1    0    0    0  501 -0.00000000000E+00 -0.00000000000E+00 -0.54874745013E+03  0.54874745013E+03  0.00000000000E+00 0.  1.
         36    2    1    2    0    0  0.00000000000E+00  0.00000000000E+00 -0.51431505679E+03  0.58317984347E+03  0.27491590021E+03 0.  0.
         25    2    3    3    0    0 -0.10044558757E+02  0.55712368587E+02 -0.21844773466E+03  0.25578050224E+03  0.12041383380E+03 0.  0.
         25    2    3    3    0    0  0.10044558757E+02 -0.55712368587E+02 -0.29586732213E+03  0.32739934123E+03  0.12825012734E+03 0.  0.
          5    1    4    4  502    0 -0.47128960488E+02  0.18928925854E+02 -0.18873244784E+03  0.19550312023E+03  0.47000000000E+01 0. -1.
         -5    1    4    4    0  502  0.37084401731E+02  0.36783442733E+02 -0.29715286819E+02  0.60277382008E+02  0.47000000000E+01 0. -1.
          5    1    5    5  503    0 -0.34133661395E+02 -0.53084778876E+02 -0.59452608287E+02  0.86832040289E+02  0.47000000000E+01 0. -1.
         -5    1    5    5    0  503  0.44178220151E+02 -0.26275897113E+01 -0.23641471384E+03  0.24056730094E+03  0.47000000000E+01 0. -1.
<mgrwt>
<rscale>  0 0.27491590E+03</rscale>
<asrwt>0</asrwt>
<pdfrwt beam="1">  1        4 0.52972913E-02 0.27491590E+03</pdfrwt>
<pdfrwt beam="2">  1       -4 0.84422684E-01 0.27491590E+03</pdfrwt>
<totfact> 0.51283236E+02</totfact>
</mgrwt>
</event>
<event>
 9    1  0.2054950E-002  0.2743326E+03  0.7818608E-02  0.1098825E+00
          2   -1    0    0  501    0  0.00000000000E+00  0.00000000000E+00  0.74697853804E+03  0.74697853804E+03  0.00000000000E+00 0. -1.
         -2   -1    0    0    0  501 -0.00000000000E+00 -0.00000000000E+00 -0.25187589377E+02  0.25187589377E+02  0.00000000000E+00 0. -1.
         36    2    1    2    0    0 -0.71054273576E-14  0.00000000000E+00  0.72179094866E+03  0.77216612742E+03  0.27433256234E+03 0.  0.
         25    2    3    3    0    0  0.35459664655E+02  0.32724434224E+02  0.32714481519E+03  0.35398930394E+03  0.12631872699E+03 0.  0.
         25    2    3    3    0    0 -0.35459664655E+02 -0.32724434224E+02  0.39464613347E+03  0.41817682347E+03  0.12960713180E+03 0.  0.
          5    1    4    4  502    0  0.14288830904E+01 -0.45970149164E+02  0.15289220273E+03  0.15972918324E+03  0.47000000000E+01 0. -1.
         -5    1    4    4    0  502  0.34030781565E+02  0.78694583389E+02  0.17425261246E+03  0.19426012071E+03  0.47000000000E+01 0. -1.
          5    1    5    5  503    0  0.34344583532E+02  0.15521007137E+00  0.26481684989E+03  0.26707607249E+03  0.47000000000E+01 0.  1.
         -5    1    5    5    0  503 -0.69804248187E+02 -0.32879644296E+02  0.12982928358E+03  0.15110075099E+03  0.47000000000E+01 0.  1.
<mgrwt>
<rscale>  0 0.27433256E+03</rscale>
<asrwt>0</asrwt>
<pdfrwt beam="1">  1        2 0.11491976E+00 0.27433256E+03</pdfrwt>
<pdfrwt beam="2">  1       -2 0.38750143E-02 0.27433256E+03</pdfrwt>
<totfact> 0.11115752E+04</totfact>
</mgrwt>
</event>
<event>
 9    1  0.2054950E-002  0.2742976E+03  0.7818608E-02  0.1098845E+00
         -2   -1    0    0    0  501 -0.00000000000E+00  0.00000000000E+00  0.53759329182E+02  0.53759329182E+02  0.00000000000E+00 0.  1.
          2   -1    0    0  501    0  0.00000000000E+00 -0.00000000000E+00 -0.34988900173E+03  0.34988900173E+03  0.00000000000E+00 0.  1.
         36    2    1    2    0    0  0.71054273576E-14  0.71054273576E-14 -0.29612967255E+03  0.40364833091E+03  0.27429763412E+03 0.  0.
         25    2    3    3    0    0 -0.28212659074E+02  0.38922204656E+02 -0.19253538553E+03  0.23382538520E+03  0.12366706891E+03 0.  0.
         25    2    3    3    0    0  0.28212659074E+02 -0.38922204656E+02 -0.10359428701E+03  0.16982294571E+03  0.12568677115E+03 0.  0.
          5    1    4    4  502    0  0.11853577062E+02  0.51905142730E+02 -0.21487809496E+02  0.57606137589E+02  0.47000000000E+01 0.  1.
         -5    1    4    4    0  502 -0.40066236135E+02 -0.12982938074E+02 -0.17104757604E+03  0.17621924761E+03  0.47000000000E+01 0.  1.
          5    1    5    5  503    0  0.71335717709E+02 -0.52744329152E+02 -0.72795708196E+02  0.11485666724E+03  0.47000000000E+01 0. -1.
         -5    1    5    5    0  503 -0.43123058635E+02  0.13822124496E+02 -0.30798578816E+02  0.54966278469E+02  0.47000000000E+01 0. -1.
<mgrwt>
<rscale>  0 0.27429763E+03</rscale>
<asrwt>0</asrwt>
<pdfrwt beam="1">  1        2 0.53829076E-01 0.27429763E+03</pdfrwt>
<pdfrwt beam="2">  1       -2 0.82706662E-02 0.27429763E+03</pdfrwt>
<totfact> 0.82347545E+03</totfact>
</mgrwt>
</event>
<event>
 9    1  0.2054950E-002  0.2753750E+03  0.7818608E-02  0.1098242E+00
         -1   -1    0    0    0  501 -0.00000000000E+00  0.00000000000E+00  0.18499603039E+02  0.18499603039E+02  0.00000000000E+00 0.  1.
          1   -1    0    0  501    0  0.00000000000E+00 -0.00000000000E+00 -0.10247707150E+04  0.10247707150E+04  0.00000000000E+00 0.  1.
         36    2    1    2    0    0  0.17763568394E-14  0.00000000000E+00 -0.10062711120E+04  0.10432703181E+04  0.27537502744E+03 0.  0.
         25    2    3    3    0    0 -0.69291893929E+01  0.48808954100E+02 -0.60343678202E+03  0.61829521604E+03  0.12539017750E+03 0.  0.
         25    2    3    3    0    0  0.69291893929E+01 -0.48808954100E+02 -0.40283432997E+03  0.42497510203E+03  0.12608732005E+03 0.  0.
          5    1    4    4  502    0  0.91757182269E+01 -0.26499627702E+02 -0.37182009428E+02  0.46808288779E+02  0.47000000000E+01 0. -1.
         -5    1    4    4    0  502 -0.16104907620E+02  0.75308581803E+02 -0.56625477259E+03  0.57148692726E+03  0.47000000000E+01 0. -1.
          5    1    5    5  503    0 -0.77237185445E+01 -0.73565949188E+02 -0.38205245369E+03  0.38917575988E+03  0.47000000000E+01 0. -1.
         -5    1    5    5    0  503  0.14652907937E+02  0.24756995088E+02 -0.20781876283E+02  0.35799342154E+02  0.47000000000E+01 0. -1.
<mgrwt>
<rscale>  0 0.27537503E+03</rscale>
<asrwt>0</asrwt>
<pdfrwt beam="1">  1        1 0.15765696E+00 0.27537503E+03</pdfrwt>
<pdfrwt beam="2">  1       -1 0.28460941E-02 0.27537503E+03</pdfrwt>
<totfact> 0.62447303E+03</totfact>
</mgrwt>
</event>
<event>
 9    1  0.2054950E-002  0.2724924E+03  0.7818608E-02  0.1099862E+00
          2   -1    0    0  501    0  0.00000000000E+00  0.00000000000E+00  0.15681390679E+04  0.15681390679E+04  0.00000000000E+00 0.  1.
         -2   -1    0    0    0  501 -0.00000000000E+00 -0.00000000000E+00 -0.11837613330E+02  0.11837613330E+02  0.00000000000E+00 0.  1.
         36    2    1    2    0    0  0.00000000000E+00  0.00000000000E+00  0.15563014546E+04  0.15799766813E+04  0.27249237739E+03 0.  0.
         25    2    3    3    0    0  0.14946509809E+01  0.36304162587E+02  0.99610080439E+03  0.10045443087E+04  0.12478873950E+03 0.  0.
         25    2    3    3    0    0 -0.14946509809E+01 -0.36304162587E+02  0.56020065021E+03  0.57543237252E+03  0.12640182218E+03 0.  0.
          5    1    4    4  502    0  0.19716876066E+02 -0.43417395898E+02  0.39062918860E+03  0.39355695706E+03  0.47000000000E+01 0. -1.
         -5    1    4    4    0  502 -0.18222225085E+02  0.79721558484E+02  0.60547161579E+03  0.61098735168E+03  0.47000000000E+01 0. -1.
          5    1    5    5  503    0 -0.63269864032E+02 -0.10076359644E+02  0.27129057456E+03  0.27879252961E+03  0.47000000000E+01 0.  1.
         -5    1    5    5    0  503  0.61775213051E+02 -0.26227802942E+02  0.28891007564E+03  0.29663984291E+03  0.47000000000E+01 0.  1.
<mgrwt>
<rscale>  0 0.27249238E+03</rscale>
<asrwt>0</asrwt>
<pdfrwt beam="1">  1        2 0.24125200E+00 0.27249238E+03</pdfrwt>
<pdfrwt beam="2">  1       -2 0.18211725E-02 0.27249238E+03</pdfrwt>
<totfact> 0.11131493E+04</totfact>
</mgrwt>
</event>
<event>
 9    1  0.2054950E-002  0.2757181E+03  0.7818608E-02  0.1098051E+00
          2   -1    0    0  501    0  0.00000000000E+00  0.00000000000E+00  0.54513172040E+03  0.54513172040E+03  0.00000000000E+00 0.  1.
         -2   -1    0    0    0  501 -0.00000000000E+00 -0.00000000000E+00 -0.34863348361E+02  0.34863348361E+02  0.00000000000E+00 0.  1.
         36    2    1    2    0    0 -0.14210854715E-13  0.71054273576E-14  0.51026837204E+03  0.57999506876E+03  0.27571809568E+03 0.  0.
         25    2    3    3    0    0  0.68126642224E+02 -0.17766035119E+02  0.22504880193E+03  0.25687059023E+03  0.10187573553E+03 0.  0.
         25    2    3    3    0    0 -0.68126642224E+02  0.17766035119E+02  0.28521957011E+03  0.32312447853E+03  0.13454498901E+03 0.  0.
          5    1    4    4  502    0  0.41477710864E+02 -0.60146298058E+02  0.12393353383E+03  0.14394300427E+03  0.47000000000E+01 0. -1.
         -5    1    4    4    0  502  0.26648931361E+02  0.42380262938E+02  0.10111526810E+03  0.11292758596E+03  0.47000000000E+01 0. -1.
          5    1    5    5  503    0 -0.73673311435E+00 -0.53297244825E+02  0.91237571328E+02  0.10577109011E+03  0.47000000000E+01 0. -1.
         -5    1    5    5    0  503 -0.67389909110E+02  0.71063279945E+02  0.19398199878E+03  0.21735338842E+03  0.47000000000E+01 0. -1.
<mgrwt>
<rscale>  0 0.27571810E+03</rscale>
<asrwt>0</asrwt>
<pdfrwt beam="1">  1        2 0.83866412E-01 0.27571810E+03</pdfrwt>
<pdfrwt beam="2">  1       -2 0.53635925E-02 0.27571810E+03</pdfrwt>
<totfact> 0.98682810E+03</totfact>
</mgrwt>
</event>
<event>
 9    1  0.2054950E-002  0.2756499E+03  0.7818608E-02  0.1098089E+00
          1   -1    0    0  501    0  0.00000000000E+00  0.00000000000E+00  0.50483892513E+03  0.50483892513E+03  0.00000000000E+00 0.  1.
         -1   -1    0    0    0  501 -0.00000000000E+00 -0.00000000000E+00 -0.37627288133E+02  0.37627288133E+02  0.00000000000E+00 0.  1.
         36    2    1    2    0    0  0.00000000000E+00  0.00000000000E+00  0.46721163700E+03  0.54246621327E+03  0.27564992071E+03 0.  0.
         25    2    3    3    0    0 -0.14927791131E+02 -0.25489658970E+02  0.13463923013E+03  0.18629466035E+03  0.12532125329E+03 0.  0.
         25    2    3    3    0    0  0.14927791131E+02  0.25489658970E+02  0.33257240687E+03  0.35617155291E+03  0.12402099672E+03 0.  0.
          5    1    4    4  502    0 -0.66401629662E+02  0.45687565152E+01  0.53612182635E+02  0.85594427884E+02  0.47000000000E+01 0. -1.
         -5    1    4    4    0  502  0.51473838531E+02 -0.30058415485E+02  0.81027047491E+02  0.10070023247E+03  0.47000000000E+01 0. -1.
          5    1    5    5  503    0 -0.80266837124E+01  0.58950981986E+02  0.29397508027E+03  0.29997180492E+03  0.47000000000E+01 0. -1.
         -5    1    5    5    0  503  0.22954474843E+02 -0.33461323016E+02  0.38597326608E+02  0.56199747994E+02  0.47000000000E+01 0. -1.
<mgrwt>
<rscale>  0 0.27564992E+03</rscale>
<asrwt>0</asrwt>
<pdfrwt beam="1">  1        1 0.77667522E-01 0.27564992E+03</pdfrwt>
<pdfrwt beam="2">  1       -1 0.57888139E-02 0.27564992E+03</pdfrwt>
<totfact> 0.62594329E+03</totfact>
</mgrwt>
</event>
<event>
 9    1  0.2054950E-002  0.2768931E+03  0.7818608E-02  0.1097398E+00
          1   -1    0    0  501    0  0.00000000000E+00  0.00000000000E+00  0.41718201221E+02  0.41718201221E+02  0.00000000000E+00 0. -1.
         -1   -1    0    0    0  501 -0.00000000000E+00 -0.00000000000E+00 -0.45945038559E+03  0.45945038559E+03  0.00000000000E+00 0. -1.
         36    2    1    2    0    0 -0.14210854715E-13 -0.71054273576E-14 -0.41773218437E+03  0.50116858681E+03  0.27689307422E+03 0.  0.
         25    2    3    3    0    0  0.33534056677E+02  0.39088302792E+02 -0.14236940513E+03  0.19478438270E+03  0.12255398751E+03 0.  0.
         25    2    3    3    0    0 -0.33534056677E+02 -0.39088302792E+02 -0.27536277924E+03  0.30638420411E+03  0.12407333301E+03 0.  0.
          5    1    4    4  502    0  0.60753377521E+02  0.66956730056E+02 -0.78511061675E+02  0.11983427467E+03  0.47000000000E+01 0. -1.
         -5    1    4    4    0  502 -0.27219320844E+02 -0.27868427264E+02 -0.63858343455E+02  0.74950108033E+02  0.47000000000E+01 0. -1.
          5    1    5    5  503    0  0.85505297862E+01  0.35947368794E+02 -0.14800135436E+03  0.15261656456E+03  0.47000000000E+01 0. -1.
         -5    1    5    5    0  503 -0.42084586463E+02 -0.75035671586E+02 -0.12736142487E+03  0.15376763955E+03  0.47000000000E+01 0. -1.
<mgrwt>
<rscale>  0 0.27689307E+03</rscale>
<asrwt>0</asrwt>
<pdfrwt beam="1">  1        1 0.64181852E-02 0.27689307E+03</pdfrwt>
<pdfrwt beam="2">  1       -1 0.70684670E-01 0.27689307E+03</pdfrwt>
<totfact> 0.24698206E+03</totfact>
</mgrwt>
</event>
<event>
 9    1  0.2054950E-002  0.2839340E+03  0.7818608E-02  0.1093559E+00
         -4   -1    0    0    0  501 -0.00000000000E+00  0.00000000000E+00  0.77330093989E+02  0.77330093989E+02  0.00000000000E+00 0.  1.
          4   -1    0    0  501    0  0.00000000000E+00 -0.00000000000E+00 -0.26063108976E+03  0.26063108976E+03  0.00000000000E+00 0.  1.
         36    2    1    2    0    0  0.00000000000E+00  0.00000000000E+00 -0.18330099577E+03  0.33796118375E+03  0.28393398294E+03 0.  0.
         25    2    3    3    0    0  0.49850704739E+02  0.43984898171E+02 -0.82837191415E+02  0.16213796403E+03  0.12250287780E+03 0.  0.
         25    2    3    3    0    0 -0.49850704739E+02 -0.43984898171E+02 -0.10046380435E+03  0.17582321971E+03  0.12806664115E+03 0.  0.
          5    1    4    4  502    0  0.71063515308E+02 -0.38975459231E+01 -0.95832967596E+01  0.71966267438E+02  0.47000000000E+01 0. -1.
         -5    1    4    4    0  502 -0.21212810569E+02  0.47882444094E+02 -0.73253894655E+02  0.90171696595E+02  0.47000000000E+01 0. -1.
          5    1    5    5  503    0 -0.40345500093E+02  0.93234970659E+01 -0.11265819310E+03  0.12011929674E+03  0.47000000000E+01 0. -1.
         -5    1    5    5    0  503 -0.95052046460E+01 -0.53308395237E+02  0.12194388749E+02  0.55703922978E+02  0.47000000000E+01 0. -1.
<mgrwt>
<rscale>  0 0.28393398E+03</rscale>
<asrwt>0</asrwt>
<pdfrwt beam="1">  1        4 0.40097090E-01 0.28393398E+03</pdfrwt>
<pdfrwt beam="2">  1       -4 0.11896938E-01 0.28393398E+03</pdfrwt>
<totfact> 0.64271672E+02</totfact>
</mgrwt>
</event>
<event>
 9    1  0.2054950E-002  0.2753695E+03  0.7818608E-02  0.1098245E+00
         -2   -1    0    0    0  501 -0.00000000000E+00  0.00000000000E+00  0.17705255297E+02  0.17705255297E+02  0.00000000000E+00 0. -1.
          2   -1    0    0  501    0  0.00000000000E+00 -0.00000000000E+00 -0.10707040756E+04  0.10707040756E+04  0.00000000000E+00 0. -1.
         36    2    1    2    0    0  0.00000000000E+00  0.00000000000E+00 -0.10529988203E+04  0.10884093309E+04  0.27536949000E+03 0.  0.
         25    2    3    3    0    0 -0.49567262894E+02 -0.25010917776E+01 -0.62670547621E+03  0.64047480378E+03  0.12241344435E+03 0.  0.
         25    2    3    3    0    0  0.49567262894E+02  0.25010917776E+01 -0.42629334408E+03  0.44793452710E+03  0.12828155109E+03 0.  0.
          5    1    4    4  502    0 -0.56675612837E+01 -0.56506831944E+02 -0.19447957973E+03  0.20265621195E+03  0.47000000000E+01 0.  1.
         -5    1    4    4    0  502 -0.43899701610E+02  0.54005740167E+02 -0.43222589648E+03  0.43781859184E+03  0.47000000000E+01 0.  1.
          5    1    5    5  503    0 -0.83756349690E+01  0.34646020986E+02 -0.32144816558E+02  0.48227349739E+02  0.47000000000E+01 0.  1.
         -5    1    5    5    0  503  0.57942897863E+02 -0.32144929209E+02 -0.39414852752E+03  0.39970717736E+03  0.47000000000E+01 0.  1.
<mgrwt>
<rscale>  0 0.27536949E+03</rscale>
<asrwt>0</asrwt>
<pdfrwt beam="1">  1        2 0.16472371E+00 0.27536949E+03</pdfrwt>
<pdfrwt beam="2">  1       -2 0.27238853E-02 0.27536949E+03</pdfrwt>
<totfact> 0.11610288E+04</totfact>
</mgrwt>
</event>
<event>
 9    1  0.2054950E-002  0.2750080E+03  0.7818608E-02  0.1098447E+00
          1   -1    0    0  501    0  0.00000000000E+00  0.00000000000E+00  0.62129931034E+03  0.62129931034E+03  0.00000000000E+00 0. -1.
         -1   -1    0    0    0  501 -0.00000000000E+00 -0.00000000000E+00 -0.30431948272E+02  0.30431948272E+02  0.00000000000E+00 0. -1.
         36    2    1    2    0    0  0.00000000000E+00 -0.71054273576E-14  0.59086736207E+03  0.65173125861E+03  0.27500798878E+03 0.  0.
         25    2    3    3    0    0  0.20350019144E+02 -0.25824513887E+02  0.45293623498E+03  0.46547938168E+03  0.10217041165E+03 0.  0.
         25    2    3    3    0    0 -0.20350019144E+02  0.25824513887E+02  0.13793112709E+03  0.18625187693E+03  0.12076314439E+03 0.  0.
          5    1    4    4  502    0  0.16750216834E+02 -0.14978393619E+02  0.45253427596E+03  0.45311619146E+03  0.47000000000E+01 0.  1.
         -5    1    4    4    0  502  0.35998023098E+01 -0.10846120268E+02  0.40195901948E+00  0.12363190227E+02  0.47000000000E+01 0.  1.
          5    1    5    5  503    0  0.33816801238E+02  0.30741032598E+01 -0.20782291416E+01  0.34342906010E+02  0.47000000000E+01 0. -1.
         -5    1    5    5    0  503 -0.54166820382E+02  0.22750410627E+02  0.14000935623E+03  0.15190897092E+03  0.47000000000E+01 0. -1.
<mgrwt>
<rscale>  0 0.27500799E+03</rscale>
<asrwt>0</asrwt>
<pdfrwt beam="1">  1        1 0.95584500E-01 0.27500799E+03</pdfrwt>
<pdfrwt beam="2">  1       -1 0.46818387E-02 0.27500799E+03</pdfrwt>
<totfact> 0.64829387E+03</totfact>
</mgrwt>
</event>
<event>
 9    1  0.2054950E-002  0.2751249E+03  0.7818608E-02  0.1098382E+00
         -2   -1    0    0    0  501 -0.00000000000E+00  0.00000000000E+00  0.78169059948E+01  0.78169059948E+01  0.00000000000E+00 0. -1.
          2   -1    0    0  501    0  0.00000000000E+00 -0.00000000000E+00 -0.24208330243E+04  0.24208330243E+04  0.00000000000E+00 0. -1.
         36    2    1    2    0    0 -0.35527136788E-14 -0.71054273576E-14 -0.24130161183E+04  0.24286499303E+04  0.27512487477E+03 0.  0.
         25    2    3    3    0    0 -0.19328904753E+02 -0.48549015617E+02 -0.13665789857E+04  0.13735651526E+04  0.12811124321E+03 0.  0.
         25    2    3    3    0    0  0.19328904753E+02  0.48549015617E+02 -0.10464371325E+04  0.10550847777E+04  0.12426826739E+03 0.  0.
          5    1    4    4  502    0 -0.44252085790E+02 -0.73634688066E+02 -0.12063013351E+04  0.12093656665E+04  0.47000000000E+01 0. -1.
         -5    1    4    4    0  502  0.24923181037E+02  0.25085672449E+02 -0.16027765066E+03  0.16419948604E+03  0.47000000000E+01 0. -1.
          5    1    5    5  503    0  0.34340060635E+02  0.15103830996E+02 -0.96400561260E+03  0.96474674221E+03  0.47000000000E+01 0.  1.
         -5    1    5    5    0  503 -0.15011155882E+02  0.33445184622E+02 -0.82431519930E+02  0.90338035474E+02  0.47000000000E+01 0.  1.
<mgrwt>
<rscale>  0 0.27512487E+03</rscale>
<asrwt>0</asrwt>
<pdfrwt beam="1">  1        2 0.37243576E+00 0.27512487E+03</pdfrwt>
<pdfrwt beam="2">  1       -2 0.12026012E-02 0.27512487E+03</pdfrwt>
<totfact> 0.72200775E+03</totfact>
</mgrwt>
</event>
<event>
 9    1  0.2054950E-002  0.2750876E+03  0.7818608E-02  0.1098403E+00
          2   -1    0    0  501    0  0.00000000000E+00  0.00000000000E+00  0.13873149530E+02  0.13873149530E+02  0.00000000000E+00 0. -1.
         -2   -1    0    0    0  501 -0.00000000000E+00 -0.00000000000E+00 -0.13636623736E+04  0.13636623736E+04  0.00000000000E+00 0. -1.
         36    2    1    2    0    0  0.00000000000E+00  0.00000000000E+00 -0.13497892241E+04  0.13775355231E+04  0.27508756437E+03 0.  0.
         25    2    3    3    0    0 -0.21377272749E+02 -0.44242385139E+02 -0.66757131209E+03  0.68147328063E+03  0.12782800575E+03 0.  0.
         25    2    3    3    0    0  0.21377272749E+02  0.44242385139E+02 -0.68221791197E+03  0.69606224249E+03  0.12910069549E+03 0.  0.
          5    1    4    4  502    0 -0.58323461127E+02  0.15832714633E+02 -0.40683350581E+03  0.41132455849E+03  0.47000000000E+01 0.  1.
         -5    1    4    4    0  502  0.36946188378E+02 -0.60075099772E+02 -0.26073780628E+03  0.27014872214E+03  0.47000000000E+01 0.  1.
          5    1    5    5  503    0  0.72579384655E+02  0.14282030071E+02 -0.28834463500E+03  0.29771876325E+03  0.47000000000E+01 0.  1.
         -5    1    5    5    0  503 -0.51202111906E+02  0.29960355068E+02 -0.39387327697E+03  0.39834347924E+03  0.47000000000E+01 0.  1.
<mgrwt>
<rscale>  0 0.27508756E+03</rscale>
<asrwt>0</asrwt>
<pdfrwt beam="1">  1        2 0.21343306E-02 0.27508756E+03</pdfrwt>
<pdfrwt beam="2">  1       -2 0.20979422E+00 0.27508756E+03</pdfrwt>
<totfact> 0.62670641E+02</totfact>
</mgrwt>
</event>
<event>
 9    1  0.2054950E-002  0.2750184E+03  0.7818608E-02  0.1098441E+00
          2   -1    0    0  501    0  0.00000000000E+00  0.00000000000E+00  0.44789674503E+03  0.44789674503E+03  0.00000000000E+00 0.  1.
         -2   -1    0    0    0  501 -0.00000000000E+00 -0.00000000000E+00 -0.42216831948E+02  0.42216831948E+02  0.00000000000E+00 0.  1.
         36    2    1    2    0    0  0.35527136788E-14  0.00000000000E+00  0.40567991308E+03  0.49011357698E+03  0.27501841113E+03 0.  0.
         25    2    3    3    0    0  0.14288574862E+02  0.18203978195E+01  0.30836190317E+03  0.33152377175E+03  0.12088618898E+03 0.  0.
         25    2    3    3    0    0 -0.14288574862E+02 -0.18203978195E+01  0.97318009907E+02  0.15858980523E+03  0.12438831959E+03 0.  0.
          5    1    4    4  502    0  0.12688787667E+02 -0.34553083397E+02  0.28629783979E+03  0.28869268085E+03  0.47000000000E+01 0. -1.
         -5    1    4    4    0  502  0.15997871956E+01  0.36373481216E+02  0.22064063382E+02  0.42831090901E+02  0.47000000000E+01 0. -1.
          5    1    5    5  503    0  0.25236508059E+02 -0.36620902176E+02 -0.33861714026E+01  0.44850061003E+02  0.47000000000E+01 0. -1.
         -5    1    5    5    0  503 -0.39525082921E+02  0.34800504357E+02  0.10070418131E+03  0.11373974423E+03  0.47000000000E+01 0. -1.
<mgrwt>
<rscale>  0 0.27501841E+03</rscale>
<asrwt>0</asrwt>
<pdfrwt beam="1">  1        2 0.68907188E-01 0.27501841E+03</pdfrwt>
<pdfrwt beam="2">  1       -2 0.64948975E-02 0.27501841E+03</pdfrwt>
<totfact> 0.91646492E+03</totfact>
</mgrwt>
</event>
<event>
 9    1  0.2054950E-002  0.2752415E+03  0.7818608E-02  0.1098317E+00
          2   -1    0    0  501    0  0.00000000000E+00  0.00000000000E+00  0.35364224745E+04  0.35364224745E+04  0.00000000000E+00 0.  1.
         -2   -1    0    0    0  501 -0.00000000000E+00 -0.00000000000E+00 -0.53555440225E+01  0.53555440225E+01  0.00000000000E+00 0.  1.
         36    2    1    2    0    0  0.71054273576E-14  0.71054273576E-14  0.35310669305E+04  0.35417780185E+04  0.27524146668E+03 0.  0.
         25    2    3    3    0    0  0.38617450847E+02 -0.44302208842E+02  0.18153584873E+04  0.18203818317E+04  0.12169462820E+03 0.  0.
         25    2    3    3    0    0 -0.38617450847E+02  0.44302208842E+02  0.17157084432E+04  0.17213961869E+04  0.12686755621E+03 0.  0.
          5    1    4    4  502    0  0.79465722627E+02 -0.49403460305E+02  0.12438074340E+04  0.12473309608E+04  0.47000000000E+01 0. -1.
         -5    1    4    4    0  502 -0.40848271780E+02  0.51012514622E+01  0.57155105330E+03  0.57305087087E+03  0.47000000000E+01 0. -1.
          5    1    5    5  503    0  0.27202817163E+02  0.29864956131E+02  0.12650402005E+04  0.12656937654E+04  0.47000000000E+01 0.  1.
         -5    1    5    5    0  503 -0.65820268009E+02  0.14437252711E+02  0.45066824268E+03  0.45570242144E+03  0.47000000000E+01 0.  1.
<mgrwt>
<rscale>  0 0.27524147E+03</rscale>
<asrwt>0</asrwt>
<pdfrwt beam="1">  1        2 0.54406313E+00 0.27524147E+03</pdfrwt>
<pdfrwt beam="2">  1       -2 0.82393268E-03 0.27524147E+03</pdfrwt>
<totfact> 0.27084971E+03</totfact>
</mgrwt>
</event>
<event>
 9    1  0.2054950E-002  0.2750253E+03  0.7818608E-02  0.1098437E+00
         -2   -1    0    0    0  501 -0.00000000000E+00  0.00000000000E+00  0.73073486631E+02  0.73073486631E+02  0.00000000000E+00 0.  1.
          2   -1    0    0  501    0  0.00000000000E+00 -0.00000000000E+00 -0.25877694886E+03  0.25877694886E+03  0.00000000000E+00 0.  1.
         36    2    1    2    0    0  0.71054273576E-14  0.00000000000E+00 -0.18570346223E+03  0.33185043549E+03  0.27502533638E+03 0.  0.
         25    2    3    3    0    0  0.42739502384E+02 -0.97610049254E+01 -0.13851086430E+03  0.19133870182E+03  0.12451223636E+03 0.  0.
         25    2    3    3    0    0 -0.42739502384E+02  0.97610049254E+01 -0.47192597932E+02  0.14051173368E+03  0.12487779514E+03 0.  0.
          5    1    4    4  502    0  0.57807724325E+02 -0.56954663374E+02 -0.96823361040E+02  0.12642159592E+03  0.47000000000E+01 0. -1.
         -5    1    4    4    0  502 -0.15068221941E+02  0.47193658449E+02 -0.41687503258E+02  0.64917105898E+02  0.47000000000E+01 0. -1.
          5    1    5    5  503    0 -0.51687002820E+02 -0.19191639865E+02 -0.78920155733E+02  0.96386442419E+02  0.47000000000E+01 0. -1.
         -5    1    5    5    0  503  0.89475004364E+01  0.28952644791E+02  0.31727557801E+02  0.44125291256E+02  0.47000000000E+01 0. -1.
<mgrwt>
<rscale>  0 0.27502534E+03</rscale>
<asrwt>0</asrwt>
<pdfrwt beam="1">  1        2 0.39811838E-01 0.27502534E+03</pdfrwt>
<pdfrwt beam="2">  1       -2 0.11242075E-01 0.27502534E+03</pdfrwt>
<totfact> 0.70053108E+03</totfact>
</mgrwt>
</event>
<event>
 9    1  0.2054950E-002  0.2768163E+03  0.7818608E-02  0.1097441E+00
         -2   -1    0    0    0  501 -0.00000000000E+00  0.00000000000E+00  0.12887069646E+03  0.12887069646E+03  0.00000000000E+00 0.  1.
          2   -1    0    0  501    0  0.00000000000E+00 -0.00000000000E+00 -0.14865147308E+03  0.14865147308E+03  0.00000000000E+00 0.  1.
         36    2    1    2    0    0  0.71054273576E-14  0.35527136788E-14 -0.19780776619E+02  0.27752216953E+03  0.27681632079E+03 0.  0.
         25    2    3    3    0    0  0.34020482079E+02 -0.12177829889E+02  0.37744444766E+02  0.13473197517E+03  0.12418683215E+03 0.  0.
         25    2    3    3    0    0 -0.34020482079E+02  0.12177829889E+02 -0.57525221385E+02  0.14279019437E+03  0.12559536524E+03 0.  0.
          5    1    4    4  502    0 -0.29350073612E+02  0.18060541005E+02  0.52358763291E+02  0.62858094592E+02  0.47000000000E+01 0.  1.
         -5    1    4    4    0  502  0.63370555691E+02 -0.30238370894E+02 -0.14614318524E+02  0.71873880574E+02  0.47000000000E+01 0.  1.
          5    1    5    5  503    0  0.93825096959E+01  0.55141863850E+02 -0.59113121580E+02  0.81517530508E+02  0.47000000000E+01 0.  1.
         -5    1    5    5    0  503 -0.43402991775E+02 -0.42964033961E+02  0.15879001954E+01  0.61272663858E+02  0.47000000000E+01 0.  1.
<mgrwt>
<rscale>  0 0.27681632E+03</rscale>
<asrwt>0</asrwt>
<pdfrwt beam="1">  1        2 0.22869457E-01 0.27681632E+03</pdfrwt>
<pdfrwt beam="2">  1       -2 0.19826261E-01 0.27681632E+03</pdfrwt>
<totfact> 0.50458186E+03</totfact>
</mgrwt>
</event>
<event>
 9    1  0.2054950E-002  0.2755648E+03  0.7818608E-02  0.1098136E+00
          2   -1    0    0  501    0  0.00000000000E+00  0.00000000000E+00  0.21523899204E+03  0.21523899204E+03  0.00000000000E+00 0. -1.
         -2   -1    0    0    0  501 -0.00000000000E+00 -0.00000000000E+00 -0.88199565781E+02  0.88199565781E+02  0.00000000000E+00 0. -1.
         36    2    1    2    0    0  0.00000000000E+00  0.71054273576E-14  0.12703942626E+03  0.30343855782E+03  0.27556477015E+03 0.  0.
         25    2    3    3    0    0  0.43302468234E+01  0.48517941697E+02  0.10268244959E+03  0.16671116808E+03  0.12196797287E+03 0.  0.
         25    2    3    3    0    0 -0.43302468234E+01 -0.48517941697E+02  0.24356976669E+02  0.13672738974E+03  0.12541281868E+03 0.  0.
          5    1    4    4  502    0  0.45370964898E+02  0.69300579725E+02  0.51116074055E+02  0.97447615839E+02  0.47000000000E+01 0. -1.
         -5    1    4    4    0  502 -0.41040718074E+02 -0.20782638028E+02  0.51566375535E+02  0.69263552242E+02  0.47000000000E+01 0. -1.
          5    1    5    5  503    0  0.15611447666E+02 -0.48200325104E+02 -0.42814997951E+02  0.66499644269E+02  0.47000000000E+01 0. -1.
         -5    1    5    5    0  503 -0.19941694489E+02 -0.31761659261E+00  0.67171974619E+02  0.70227745469E+02  0.47000000000E+01 0. -1.
<mgrwt>
<rscale>  0 0.27556477E+03</rscale>
<asrwt>0</asrwt>
<pdfrwt beam="1">  1        2 0.33113691E-01 0.27556477E+03</pdfrwt>
<pdfrwt beam="2">  1       -2 0.13569164E-01 0.27556477E+03</pdfrwt>
<totfact> 0.63074479E+03</totfact>
</mgrwt>
</event>
<event>
 9    1  0.2054950E-002  0.2749700E+03  0.7818608E-02  0.1098468E+00
          1   -1    0    0  501    0  0.00000000000E+00  0.00000000000E+00  0.15454350897E+03  0.15454350897E+03  0.00000000000E+00 0.  1.
         -1   -1    0    0    0  501 -0.00000000000E+00 -0.00000000000E+00 -0.12230942861E+03  0.12230942861E+03  0.00000000000E+00 0.  1.
         36    2    1    2    0    0  0.00000000000E+00  0.00000000000E+00  0.32234080360E+02  0.27685293758E+03  0.27497002220E+03 0.  0.
         25    2    3    3    0    0  0.55635394777E+02 -0.33348382123E+02 -0.13155984559E+02  0.13968671293E+03  0.12301173155E+03 0.  0.
         25    2    3    3    0    0 -0.55635394777E+02  0.33348382123E+02  0.45390064919E+02  0.13716622465E+03  0.11201296107E+03 0.  0.
          5    1    4    4  502    0 -0.18401261309E+02 -0.81534841578E+01 -0.49260445413E+02  0.53420662706E+02  0.47000000000E+01 0.  1.
         -5    1    4    4    0  502  0.74036656087E+02 -0.25194897965E+02  0.36104460854E+02  0.86266050226E+02  0.47000000000E+01 0.  1.
          5    1    5    5  503    0 -0.49502505005E+02 -0.34842773846E+02  0.18707546287E+02  0.63534078880E+02  0.47000000000E+01 0.  1.
         -5    1    5    5    0  503 -0.61328897723E+01  0.68191155970E+02  0.26682518633E+02  0.73632145765E+02  0.47000000000E+01 0.  1.
<mgrwt>
<rscale>  0 0.27497002E+03</rscale>
<asrwt>0</asrwt>
<pdfrwt beam="1">  1        1 0.23775925E-01 0.27497002E+03</pdfrwt>
<pdfrwt beam="2">  1       -1 0.18816835E-01 0.27497002E+03</pdfrwt>
<totfact> 0.45178457E+03</totfact>
</mgrwt>
</event>
<event>
 9    1  0.2054950E-002  0.2627955E+03  0.7818608E-02  0.1105475E+00
         -1   -1    0    0    0  501 -0.00000000000E+00  0.00000000000E+00  0.27323716779E+02  0.27323716779E+02  0.00000000000E+00 0.  1.
          1   -1    0    0  501    0  0.00000000000E+00 -0.00000000000E+00 -0.63188195635E+03  0.63188195635E+03  0.00000000000E+00 0.  1.
         36    2    1    2    0    0  0.71054273576E-14 -0.44408920985E-14 -0.60455823957E+03  0.65920567313E+03  0.26279546125E+03 0.  0.
         25    2    3    3    0    0 -0.45896576219E+02 -0.21882874792E+01 -0.26346633642E+03  0.29547578613E+03  0.12561904894E+03 0.  0.
         25    2    3    3    0    0  0.45896576219E+02  0.21882874792E+01 -0.34109190316E+03  0.36372988700E+03  0.11766248334E+03 0.  0.
          5    1    4    4  502    0 -0.28131342923E+02 -0.23090520269E+00 -0.27313415059E+03  0.27461933652E+03  0.47000000000E+01 0.  1.
         -5    1    4    4    0  502 -0.17765233296E+02 -0.19573822765E+01  0.96678141757E+01  0.20856449611E+02  0.47000000000E+01 0.  1.
          5    1    5    5  503    0  0.35593882099E+02  0.56637378163E+02 -0.14236410001E+03  0.15736690891E+03  0.47000000000E+01 0.  1.
         -5    1    5    5    0  503  0.10302694120E+02 -0.54449090684E+02 -0.19872780315E+03  0.20636297809E+03  0.47000000000E+01 0.  1.
<mgrwt>
<rscale>  0 0.26279546E+03</rscale>
<asrwt>0</asrwt>
<pdfrwt beam="1">  1        1 0.97212605E-01 0.26279546E+03</pdfrwt>
<pdfrwt beam="2">  1       -1 0.42036489E-02 0.26279546E+03</pdfrwt>
<totfact> 0.74241518E+03</totfact>
</mgrwt>
</event>
<event>
 9    1  0.2054950E-002  0.2765343E+03  0.7818608E-02  0.1097597E+00
          2   -1    0    0  501    0  0.00000000000E+00  0.00000000000E+00  0.44500174967E+03  0.44500174967E+03  0.00000000000E+00 0. -1.
         -2   -1    0    0    0  501 -0.00000000000E+00 -0.00000000000E+00 -0.42961188704E+02  0.42961188704E+02  0.00000000000E+00 0. -1.
         36    2    1    2    0    0  0.00000000000E+00 -0.71054273576E-14  0.40204056097E+03  0.48796293838E+03  0.27653429546E+03 0.  0.
         25    2    3    3    0    0  0.52624113171E+02  0.11011921903E+02  0.25504118749E+03  0.28888420283E+03  0.12456932054E+03 0.  0.
         25    2    3    3    0    0 -0.52624113171E+02 -0.11011921903E+02  0.14699937348E+03  0.19907873554E+03  0.12301612671E+03 0.  0.
          5    1    4    4  502    0  0.24720104453E+02  0.66760636951E+02  0.15918268119E+03  0.17443991000E+03  0.47000000000E+01 0. -1.
         -5    1    4    4    0  502  0.27904008718E+02 -0.55748715048E+02  0.95858506301E+02  0.11444429283E+03  0.47000000000E+01 0. -1.
          5    1    5    5  503    0 -0.41505611550E+02  0.43556088632E+02  0.12539470774E+03  0.13916095493E+03  0.47000000000E+01 0.  1.
         -5    1    5    5    0  503 -0.11118501621E+02 -0.54568010535E+02  0.21604665738E+02  0.59917780614E+02  0.47000000000E+01 0.  1.
<mgrwt>
<rscale>  0 0.27653430E+03</rscale>
<asrwt>0</asrwt>
<pdfrwt beam="1">  1        2 0.68461805E-01 0.27653430E+03</pdfrwt>
<pdfrwt beam="2">  1       -2 0.66094139E-02 0.27653430E+03</pdfrwt>
<totfact> 0.89866462E+03</totfact>
</mgrwt>
</event>
<event>
 9    1  0.2054950E-002  0.2770732E+03  0.7818608E-02  0.1097298E+00
         -2   -1    0    0    0  501 -0.00000000000E+00  0.00000000000E+00  0.40902151031E+02  0.40902151031E+02  0.00000000000E+00 0.  1.
          2   -1    0    0  501    0  0.00000000000E+00 -0.00000000000E+00 -0.46922685000E+03  0.46922685000E+03  0.00000000000E+00 0.  1.
         36    2    1    2    0    0  0.71054273576E-14  0.00000000000E+00 -0.42832469897E+03  0.51012900103E+03  0.27707318518E+03 0.  0.
         25    2    3    3    0    0 -0.32964733455E-01 -0.62002593006E+02 -0.23227979616E+03  0.27011475732E+03  0.12314120267E+03 0.  0.
         25    2    3    3    0    0  0.32964733455E-01  0.62002593006E+02 -0.19604490281E+03  0.24001424371E+03  0.12380997795E+03 0.  0.
          5    1    4    4  502    0 -0.32059346226E+02 -0.75570790386E+02 -0.21658447259E+03  0.23166715306E+03  0.47000000000E+01 0.  1.
         -5    1    4    4    0  502  0.32026381492E+02  0.13568197380E+02 -0.15695323570E+02  0.38447604263E+02  0.47000000000E+01 0.  1.
          5    1    5    5  503    0 -0.16403138383E+02  0.84049420407E+02 -0.69379804414E+02  0.11031325977E+03  0.47000000000E+01 0. -1.
         -5    1    5    5    0  503  0.16436103117E+02 -0.22046827401E+02 -0.12666509840E+03  0.12970098395E+03  0.47000000000E+01 0. -1.
<mgrwt>
<rscale>  0 0.27707319E+03</rscale>
<asrwt>0</asrwt>
<pdfrwt beam="1">  1        2 0.72188752E-01 0.27707319E+03</pdfrwt>
<pdfrwt beam="2">  1       -2 0.62926381E-02 0.27707319E+03</pdfrwt>
<totfact> 0.91431154E+03</totfact>
</mgrwt>
</event>
<event>
 9    1  0.2054950E-002  0.2764409E+03  0.7818608E-02  0.1097649E+00
          2   -1    0    0  501    0  0.00000000000E+00  0.00000000000E+00  0.20206202932E+03  0.20206202932E+03  0.00000000000E+00 0.  1.
         -2   -1    0    0    0  501 -0.00000000000E+00 -0.00000000000E+00 -0.94549664413E+02  0.94549664413E+02  0.00000000000E+00 0.  1.
         36    2    1    2    0    0 -0.71054273576E-14  0.00000000000E+00  0.10751236490E+03  0.29661169373E+03  0.27644093085E+03 0.  0.
         25    2    3    3    0    0  0.52622061714E+02  0.22796508395E+02  0.36410961334E+02  0.14032342240E+03  0.12278494450E+03 0.  0.
         25    2    3    3    0    0 -0.52622061714E+02 -0.22796508395E+02  0.71101403571E+02  0.15628827133E+03  0.12681424206E+03 0.  0.
          5    1    4    4  502    0 -0.35333939303E+02  0.58765270886E+01  0.35467441991E+02  0.50626576802E+02  0.47000000000E+01 0. -1.
         -5    1    4    4    0  502  0.87956001016E+02  0.16919981307E+02  0.94351934265E+00  0.89696845602E+02  0.47000000000E+01 0. -1.
          5    1    5    5  503    0  0.39350160178E+02  0.10716323491E+02  0.17999805587E+02  0.44825859683E+02  0.47000000000E+01 0.  1.
         -5    1    5    5    0  503 -0.91972221891E+02 -0.33512831886E+02  0.53101597984E+02  0.11146241164E+03  0.47000000000E+01 0.  1.
<mgrwt>
<rscale>  0 0.27644093E+03</rscale>
<asrwt>0</asrwt>
<pdfrwt beam="1">  1        2 0.31086466E-01 0.27644093E+03</pdfrwt>
<pdfrwt beam="2">  1       -2 0.14546102E-01 0.27644093E+03</pdfrwt>
<totfact> 0.60300804E+03</totfact>
</mgrwt>
</event>
<event>
 9    1  0.2054950E-002  0.2754843E+03  0.7818608E-02  0.1098181E+00
          2   -1    0    0  501    0  0.00000000000E+00  0.00000000000E+00  0.10728716139E+04  0.10728716139E+04  0.00000000000E+00 0.  1.
         -2   -1    0    0    0  501 -0.00000000000E+00 -0.00000000000E+00 -0.17684221237E+02  0.17684221237E+02  0.00000000000E+00 0.  1.
         36    2    1    2    0    0  0.00000000000E+00  0.71054273576E-14  0.10551873927E+04  0.10905558351E+04  0.27548429341E+03 0.  0.
         25    2    3    3    0    0 -0.30422154786E+02 -0.37858268696E+02  0.60891554763E+03  0.62332955765E+03  0.12410816765E+03 0.  0.
         25    2    3    3    0    0  0.30422154786E+02  0.37858268696E+02  0.44627184502E+03  0.46722627748E+03  0.12954952219E+03 0.  0.
          5    1    4    4  502    0 -0.24609719940E+02 -0.35974530673E+01  0.57146166485E+03  0.57202194396E+03  0.47000000000E+01 0. -1.
         -5    1    4    4    0  502 -0.58124348461E+01 -0.34260815629E+02  0.37453882785E+02  0.51307613685E+02  0.47000000000E+01 0. -1.
          5    1    5    5  503    0  0.43121330036E+01 -0.21084345664E+02  0.68394346211E+01  0.23065385084E+02  0.47000000000E+01 0. -1.
         -5    1    5    5    0  503  0.26110021782E+02  0.58942614360E+02  0.43943241040E+03  0.44416089240E+03  0.47000000000E+01 0. -1.
<mgrwt>
<rscale>  0 0.27548429E+03</rscale>
<asrwt>0</asrwt>
<pdfrwt beam="1">  1        2 0.16505712E+00 0.27548429E+03</pdfrwt>
<pdfrwt beam="2">  1       -2 0.27206503E-02 0.27548429E+03</pdfrwt>
<totfact> 0.11596507E+04</totfact>
</mgrwt>
</event>
<event>
 9    1  0.2054950E-002  0.2754366E+03  0.7818608E-02  0.1098208E+00
         -1   -1    0    0    0  501 -0.00000000000E+00  0.00000000000E+00  0.18784435560E+02  0.18784435560E+02  0.00000000000E+00 0.  1.
          1   -1    0    0  501    0  0.00000000000E+00 -0.00000000000E+00 -0.10096830643E+04  0.10096830643E+04  0.00000000000E+00 0.  1.
         36    2    1    2    0    0  0.00000000000E+00  0.00000000000E+00 -0.99089862873E+03  0.10284674999E+04  0.27543657315E+03 0.  0.
         25    2    3    3    0    0 -0.70453116566E+01  0.45687132132E+01 -0.48414782193E+03  0.50035920265E+03  0.12605438763E+03 0.  0.
         25    2    3    3    0    0  0.70453116566E+01 -0.45687132132E+01 -0.50675080680E+03  0.52810829720E+03  0.14843006374E+03 0.  0.
          5    1    4    4  502    0  0.46977686265E+02  0.19881138940E+02 -0.10265060823E+03  0.11472314528E+03  0.47000000000E+01 0. -1.
         -5    1    4    4    0  502 -0.54022997922E+02 -0.15312425726E+02 -0.38149721370E+03  0.38563605737E+03  0.47000000000E+01 0. -1.
          5    1    5    5  503    0  0.57143135620E+02 -0.25083077084E+01 -0.44378538208E+03  0.44748093245E+03  0.47000000000E+01 0.  1.
         -5    1    5    5    0  503 -0.50097823964E+02 -0.20604055048E+01 -0.62965424722E+02  0.80627364754E+02  0.47000000000E+01 0.  1.
<mgrwt>
<rscale>  0 0.27543657E+03</rscale>
<asrwt>0</asrwt>
<pdfrwt beam="1">  1        1 0.15533589E+00 0.27543657E+03</pdfrwt>
<pdfrwt beam="2">  1       -1 0.28899125E-02 0.27543657E+03</pdfrwt>
<totfact> 0.62654377E+03</totfact>
</mgrwt>
</event>
<event>
 9    1  0.2054950E-002  0.2754843E+03  0.7818608E-02  0.1098181E+00
         -1   -1    0    0    0  501 -0.00000000000E+00  0.00000000000E+00  0.30047897526E+02  0.30047897526E+02  0.00000000000E+00 0.  1.
          1   -1    0    0  501    0  0.00000000000E+00 -0.00000000000E+00 -0.63142183658E+03  0.63142183658E+03  0.00000000000E+00 0.  1.
         36    2    1    2    0    0  0.00000000000E+00 -0.35527136788E-14 -0.60137393905E+03  0.66146973410E+03  0.27548429096E+03 0.  0.
         25    2    3    3    0    0 -0.95658229878E+01  0.21618428344E+02 -0.41832659996E+03  0.43674151706E+03  0.12323614355E+03 0.  0.
         25    2    3    3    0    0  0.95658229878E+01 -0.21618428344E+02 -0.18304733909E+03  0.22472821704E+03  0.12820913296E+03 0.  0.
          5    1    4    4  502    0 -0.59997695160E+02 -0.16046692930E+02 -0.21552168639E+03  0.22434105082E+03  0.47000000000E+01 0.  1.
         -5    1    4    4    0  502  0.50431872172E+02  0.37665121274E+02 -0.20280491357E+03  0.21240046624E+03  0.47000000000E+01 0.  1.
          5    1    5    5  503    0  0.12588654971E+01 -0.15396524479E+02 -0.20198397131E+03  0.20262836025E+03  0.47000000000E+01 0.  1.
         -5    1    5    5    0  503  0.83069574907E+01 -0.62219038655E+01  0.18936632223E+02  0.22099856796E+02  0.47000000000E+01 0.  1.
<mgrwt>
<rscale>  0 0.27548429E+03</rscale>
<asrwt>0</asrwt>
<pdfrwt beam="1">  1        1 0.97141815E-01 0.27548429E+03</pdfrwt>
<pdfrwt beam="2">  1       -1 0.46227537E-02 0.27548429E+03</pdfrwt>
<totfact> 0.64590027E+03</totfact>
</mgrwt>
</event>
<event>
 9    1  0.2054950E-002  0.2743369E+03  0.7818608E-02  0.1098823E+00
         -1   -1    0    0    0  501 -0.00000000000E+00  0.00000000000E+00  0.24483787774E+03  0.24483787774E+03  0.00000000000E+00 0.  1.
          1   -1    0    0  501    0  0.00000000000E+00 -0.00000000000E+00 -0.76847530256E+02  0.76847530256E+02  0.00000000000E+00 0.  1.
         36    2    1    2    0    0 -0.71054273576E-14  0.00000000000E+00  0.16799034748E+03  0.32168540800E+03  0.27433691853E+03 0.  0.
         25    2    3    3    0    0 -0.58998573070E+01  0.23684690816E+02  0.15833086057E+03  0.20352253485E+03  0.12552684129E+03 0.  0.
         25    2    3    3    0    0  0.58998573070E+01 -0.23684690816E+02  0.96594869091E+01  0.11816287315E+03  0.11521018188E+03 0.  0.
          5    1    4    4  502    0  0.37456273847E+02 -0.35771937002E+02  0.47687481163E+02  0.70560539873E+02  0.47000000000E+01 0. -1.
         -5    1    4    4    0  502 -0.43356131154E+02  0.59456627818E+02  0.11064337941E+03  0.13296199497E+03  0.47000000000E+01 0. -1.
          5    1    5    5  503    0 -0.37211546601E+02  0.18261895357E+02 -0.24948519271E+02  0.48607763127E+02  0.47000000000E+01 0.  1.
         -5    1    5    5    0  503  0.43111403907E+02 -0.41946586173E+02  0.34608006180E+02  0.69555110022E+02  0.47000000000E+01 0.  1.
<mgrwt>
<rscale>  0 0.27433692E+03</rscale>
<asrwt>0</asrwt>
<pdfrwt beam="1">  1        1 0.11822697E-01 0.27433692E+03</pdfrwt>
<pdfrwt beam="2">  1       -1 0.37667365E-01 0.27433692E+03</pdfrwt>
<totfact> 0.35000955E+03</totfact>
</mgrwt>
</event>
<event>
 9    1  0.2054950E-002  0.2753970E+03  0.7818608E-02  0.1098230E+00
          2   -1    0    0  501    0  0.00000000000E+00  0.00000000000E+00  0.31596890979E+02  0.31596890979E+02  0.00000000000E+00 0. -1.
         -2   -1    0    0    0  501 -0.00000000000E+00 -0.00000000000E+00 -0.60008699291E+03  0.60008699291E+03  0.00000000000E+00 0. -1.
         36    2    1    2    0    0 -0.71054273576E-14  0.00000000000E+00 -0.56849010193E+03  0.63168388389E+03  0.27539704641E+03 0.  0.
         25    2    3    3    0    0  0.25814488681E+02  0.14765421339E+02 -0.42427969301E+03  0.44275569462E+03  0.12302415099E+03 0.  0.
         25    2    3    3    0    0 -0.25814488681E+02 -0.14765421339E+02 -0.14421040893E+03  0.18892818927E+03  0.11837572879E+03 0.  0.
          5    1    4    4  502    0  0.55252835344E+02  0.53045602952E+02 -0.22797824784E+03  0.24054705006E+03  0.47000000000E+01 0.  1.
         -5    1    4    4    0  502 -0.29438346662E+02 -0.38280181613E+02 -0.19630144517E+03  0.20220864456E+03  0.47000000000E+01 0.  1.
          5    1    5    5  503    0 -0.19778243839E+02 -0.57870216560E+02 -0.12854900819E+03  0.14243271534E+03  0.47000000000E+01 0. -1.
         -5    1    5    5    0  503 -0.60362448426E+01  0.43104795220E+02 -0.15661400740E+02  0.46495473930E+02  0.47000000000E+01 0. -1.
<mgrwt>
<rscale>  0 0.27539705E+03</rscale>
<asrwt>0</asrwt>
<pdfrwt beam="1">  1        2 0.48610601E-02 0.27539705E+03</pdfrwt>
<pdfrwt beam="2">  1       -2 0.92321076E-01 0.27539705E+03</pdfrwt>
<totfact> 0.16816868E+03</totfact>
</mgrwt>
</event>
<event>
 9    1  0.2054950E-002  0.2746356E+03  0.7818608E-02  0.1098655E+00
         -2   -1    0    0    0  501 -0.00000000000E+00  0.00000000000E+00  0.39935837140E+02  0.39935837140E+02  0.00000000000E+00 0.  1.
          2   -1    0    0  501    0  0.00000000000E+00 -0.00000000000E+00 -0.47216169311E+03  0.47216169311E+03  0.00000000000E+00 0.  1.
         36    2    1    2    0    0  0.00000000000E+00  0.00000000000E+00 -0.43222585597E+03  0.51209753025E+03  0.27463555836E+03 0.  0.
         25    2    3    3    0    0  0.12199349734E+02 -0.30596763441E+02 -0.11190399209E+03  0.16822821473E+03  0.12121568676E+03 0.  0.
         25    2    3    3    0    0 -0.12199349734E+02  0.30596763441E+02 -0.32032186387E+03  0.34386931552E+03  0.12064420257E+03 0.  0.
          5    1    4    4  502    0 -0.51583946622E+02 -0.12007752653E+02 -0.75445370746E+02  0.92299423833E+02  0.47000000000E+01 0.  1.
         -5    1    4    4    0  502  0.63783296355E+02 -0.18589010788E+02 -0.36458621347E+02  0.75928790894E+02  0.47000000000E+01 0.  1.
          5    1    5    5  503    0 -0.50394971605E+02  0.30360916090E+02 -0.74465485129E+02  0.95019139464E+02  0.47000000000E+01 0. -1.
         -5    1    5    5    0  503  0.38195621871E+02  0.23584735154E+00 -0.24585637874E+03  0.24885017606E+03  0.47000000000E+01 0. -1.
<mgrwt>
<rscale>  0 0.27463556E+03</rscale>
<asrwt>0</asrwt>
<pdfrwt beam="1">  1        2 0.72640260E-01 0.27463556E+03</pdfrwt>
<pdfrwt beam="2">  1       -2 0.61439750E-02 0.27463556E+03</pdfrwt>
<totfact> 0.94170022E+03</totfact>
</mgrwt>
</event>
<event>
 9    1  0.2054950E-002  0.2768188E+03  0.7818608E-02  0.1097439E+00
         -2   -1    0    0    0  501 -0.00000000000E+00  0.00000000000E+00  0.17672190476E+02  0.17672190476E+02  0.00000000000E+00 0.  1.
          2   -1    0    0  501    0  0.00000000000E+00 -0.00000000000E+00 -0.10840289642E+04  0.10840289642E+04  0.00000000000E+00 0.  1.
         36    2    1    2    0    0  0.00000000000E+00  0.00000000000E+00 -0.10663567737E+04  0.11017011547E+04  0.27681883127E+03 0.  0.
         25    2    3    3    0    0  0.27206811191E+02 -0.48632505705E+02 -0.65146022768E+03  0.66528150516E+03  0.12285650846E+03 0.  0.
         25    2    3    3    0    0 -0.27206811191E+02  0.48632505705E+02 -0.41489654603E+03  0.43641964950E+03  0.12335978023E+03 0.  0.
          5    1    4    4  502    0  0.35293009331E+02  0.19305412137E+02 -0.46235019550E+03  0.46412076954E+03  0.47000000000E+01 0. -1.
         -5    1    4    4    0  502 -0.80861981409E+01 -0.67937917842E+02 -0.18911003218E+03  0.20116073562E+03  0.47000000000E+01 0. -1.
          5    1    5    5  503    0  0.13721165768E+02  0.78737003226E+02 -0.19739459534E+03  0.21301291589E+03  0.47000000000E+01 0. -1.
         -5    1    5    5    0  503 -0.40927976959E+02 -0.30104497521E+02 -0.21750195069E+03  0.22340673361E+03  0.47000000000E+01 0. -1.
<mgrwt>
<rscale>  0 0.27681883E+03</rscale>
<asrwt>0</asrwt>
<pdfrwt beam="1">  1        2 0.16677376E+00 0.27681883E+03</pdfrwt>
<pdfrwt beam="2">  1       -2 0.27187973E-02 0.27681883E+03</pdfrwt>
<totfact> 0.11434554E+04</totfact>
</mgrwt>
</event>
<event>
 9    1  0.2054950E-002  0.2754260E+03  0.7818608E-02  0.1098214E+00
          3   -1    0    0  501    0  0.00000000000E+00  0.00000000000E+00  0.53133218448E+03  0.53133218448E+03  0.00000000000E+00 0.  1.
         -3   -1    0    0    0  501 -0.00000000000E+00 -0.00000000000E+00 -0.35693057303E+02  0.35693057303E+02  0.00000000000E+00 0.  1.
         36    2    1    2    0    0  0.00000000000E+00 -0.35527136788E-14  0.49563912717E+03  0.56702524178E+03  0.27542599810E+03 0.  0.
         25    2    3    3    0    0 -0.15164028586E+00  0.13556079829E+02  0.35123579487E+03  0.37325004554E+03  0.12555963764E+03 0.  0.
         25    2    3    3    0    0  0.15164028586E+00 -0.13556079829E+02  0.14440333231E+03  0.19377519624E+03  0.12850180544E+03 0.  0.
          5    1    4    4  502    0  0.42826613106E+02  0.52490635732E+02  0.17865979973E+03  0.19113032117E+03  0.47000000000E+01 0.  1.
         -5    1    4    4    0  502 -0.42978253392E+02 -0.38934555903E+02  0.17257599513E+03  0.18211972437E+03  0.47000000000E+01 0.  1.
          5    1    5    5  503    0 -0.35802960804E+02  0.20111790375E+02  0.13778823467E+03  0.14385417522E+03  0.47000000000E+01 0. -1.
         -5    1    5    5    0  503  0.35954601089E+02 -0.33667870204E+02  0.66150976419E+01  0.49921021027E+02  0.47000000000E+01 0. -1.
<mgrwt>
<rscale>  0 0.27542600E+03</rscale>
<asrwt>0</asrwt>
<pdfrwt beam="1">  1        3 0.81743407E-01 0.27542600E+03</pdfrwt>
<pdfrwt beam="2">  1       -3 0.54912400E-02 0.27542600E+03</pdfrwt>
<totfact> 0.70987795E+02</totfact>
</mgrwt>
</event>
<event>
 9    1  0.2054950E-002  0.2744944E+03  0.7818608E-02  0.1098735E+00
          2   -1    0    0  501    0  0.00000000000E+00  0.00000000000E+00  0.43836253875E+03  0.43836253875E+03  0.00000000000E+00 0.  1.
         -2   -1    0    0    0  501 -0.00000000000E+00 -0.00000000000E+00 -0.42970826738E+02  0.42970826738E+02  0.00000000000E+00 0.  1.
         36    2    1    2    0    0  0.00000000000E+00 -0.14210854715E-13  0.39539171201E+03  0.48133336549E+03  0.27449444950E+03 0.  0.
         25    2    3    3    0    0  0.37507048372E+01 -0.25901856707E+02  0.29644676407E+03  0.31837835065E+03  0.11313317932E+03 0.  0.
         25    2    3    3    0    0 -0.37507048372E+01  0.25901856707E+02  0.98944947939E+02  0.16295501484E+03  0.12680402270E+03 0.  0.
          5    1    4    4  502    0  0.23066937884E+02 -0.64254871221E+02  0.22197934513E+03  0.23228795011E+03  0.47000000000E+01 0. -1.
         -5    1    4    4    0  502 -0.19316233047E+02  0.38353014514E+02  0.74467418938E+02  0.86090400538E+02  0.47000000000E+01 0. -1.
          5    1    5    5  503    0 -0.22225135301E+02 -0.47120021433E+02  0.27801067610E+02  0.59238859030E+02  0.47000000000E+01 0. -1.
         -5    1    5    5    0  503  0.18474430464E+02  0.73021878140E+02  0.71143880329E+02  0.10371615581E+03  0.47000000000E+01 0. -1.
<mgrwt>
<rscale>  0 0.27449445E+03</rscale>
<asrwt>0</asrwt>
<pdfrwt beam="1">  1        2 0.67440387E-01 0.27449445E+03</pdfrwt>
<pdfrwt beam="2">  1       -2 0.66108967E-02 0.27449445E+03</pdfrwt>
<totfact> 0.91305132E+03</totfact>
</mgrwt>
</event>
<event>
 9    1  0.2054950E-002  0.2744281E+03  0.7818608E-02  0.1098772E+00
         -3   -1    0    0    0  501 -0.00000000000E+00  0.00000000000E+00  0.92394258211E+02  0.92394258211E+02  0.00000000000E+00 0.  1.
          3   -1    0    0  501    0  0.00000000000E+00 -0.00000000000E+00 -0.20377560820E+03  0.20377560820E+03  0.00000000000E+00 0.  1.
         36    2    1    2    0    0  0.71054273576E-14  0.00000000000E+00 -0.11138134999E+03  0.29616986642E+03  0.27442810469E+03 0.  0.
         25    2    3    3    0    0 -0.39790479490E+02 -0.30930301746E+02 -0.52886894562E+02  0.14612213057E+03  0.12654915093E+03 0.  0.
         25    2    3    3    0    0  0.39790479490E+02  0.30930301746E+02 -0.58494455432E+02  0.15004773585E+03  0.12865751394E+03 0.  0.
          5    1    4    4  502    0  0.24622806245E+02 -0.53734012110E+02 -0.50013515372E+02  0.77569764501E+02  0.47000000000E+01 0. -1.
         -5    1    4    4    0  502 -0.64413285735E+02  0.22803710363E+02 -0.28733791899E+01  0.68552366068E+02  0.47000000000E+01 0. -1.
          5    1    5    5  503    0 -0.44933985144E+02  0.22918522934E+02 -0.35204369458E+02  0.61690836785E+02  0.47000000000E+01 0.  1.
         -5    1    5    5    0  503  0.84724464633E+02  0.80117788128E+01 -0.23290085974E+02  0.88356899062E+02  0.47000000000E+01 0.  1.
<mgrwt>
<rscale>  0 0.27442810E+03</rscale>
<asrwt>0</asrwt>
<pdfrwt beam="1">  1        3 0.31350093E-01 0.27442810E+03</pdfrwt>
<pdfrwt beam="2">  1       -3 0.14214501E-01 0.27442810E+03</pdfrwt>
<totfact> 0.10237813E+03</totfact>
</mgrwt>
</event>
<event>
 9    1  0.2054950E-002  0.2751692E+03  0.7818608E-02  0.1098357E+00
         -2   -1    0    0    0  501 -0.00000000000E+00  0.00000000000E+00  0.13830190434E+02  0.13830190434E+02  0.00000000000E+00 0.  1.
          2   -1    0    0  501    0  0.00000000000E+00 -0.00000000000E+00 -0.13687102770E+04  0.13687102770E+04  0.00000000000E+00 0.  1.
         36    2    1    2    0    0  0.17763568394E-14 -0.14210854715E-13 -0.13548800866E+04  0.13825404674E+04  0.27516921180E+03 0.  0.
         25    2    3    3    0    0  0.27886619586E+01 -0.15447140272E+02 -0.54377860529E+03  0.56234714829E+03  0.14245263369E+03 0.  0.
         25    2    3    3    0    0 -0.27886619586E+01  0.15447140272E+02 -0.81110148128E+03  0.82019331914E+03  0.12076869237E+03 0.  0.
          5    1    4    4  502    0  0.16648847359E+02 -0.77543662275E+02 -0.31011429380E+03  0.32012992502E+03  0.47000000000E+01 0. -1.
         -5    1    4    4    0  502 -0.13860185401E+02  0.62096522003E+02 -0.23366431149E+03  0.24221722327E+03  0.47000000000E+01 0. -1.
          5    1    5    5  503    0  0.20894800614E+02  0.54495552115E+02 -0.23200057590E+03  0.23927539595E+03  0.47000000000E+01 0. -1.
         -5    1    5    5    0  503 -0.23683462573E+02 -0.39048411843E+02 -0.57910090538E+03  0.58091792319E+03  0.47000000000E+01 0. -1.
<mgrwt>
<rscale>  0 0.27516921E+03</rscale>
<asrwt>0</asrwt>
<pdfrwt beam="1">  1        2 0.21057079E+00 0.27516921E+03</pdfrwt>
<pdfrwt beam="2">  1       -2 0.21277218E-02 0.27516921E+03</pdfrwt>
<totfact> 0.11338053E+04</totfact>
</mgrwt>
</event>
<event>
 9    1  0.2054950E-002  0.2739962E+03  0.7818608E-02  0.1099014E+00
          2   -1    0    0  501    0  0.00000000000E+00  0.00000000000E+00  0.90069821507E+01  0.90069821507E+01  0.00000000000E+00 0.  1.
         -2   -1    0    0    0  501 -0.00000000000E+00 -0.00000000000E+00 -0.20837692668E+04  0.20837692668E+04  0.00000000000E+00 0.  1.
         36    2    1    2    0    0  0.00000000000E+00  0.35527136788E-14 -0.20747622846E+04  0.20927762489E+04  0.27399615028E+03 0.  0.
         25    2    3    3    0    0  0.51180095672E+02  0.91863802536E+01 -0.84142153632E+03  0.85205150297E+03  0.12368415483E+03 0.  0.
         25    2    3    3    0    0 -0.51180095672E+02 -0.91863802536E+01 -0.12333407483E+04  0.12407247460E+04  0.12475857495E+03 0.  0.
          5    1    4    4  502    0  0.51967351916E+02  0.57337103586E+02 -0.36281554794E+03  0.37100587724E+03  0.47000000000E+01 0.  1.
         -5    1    4    4    0  502 -0.78725624416E+00 -0.48150723332E+02 -0.47860598837E+03  0.48104562573E+03  0.47000000000E+01 0.  1.
          5    1    5    5  503    0 -0.87346487271E+02  0.18173302438E+02 -0.85001749579E+03  0.85469966123E+03  0.47000000000E+01 0.  1.
         -5    1    5    5    0  503  0.36166391599E+02 -0.27359682692E+02 -0.38332325254E+03  0.38602508475E+03  0.47000000000E+01 0.  1.
<mgrwt>
<rscale>  0 0.27399615E+03</rscale>
<asrwt>0</asrwt>
<pdfrwt beam="1">  1        2 0.13856903E-02 0.27399615E+03</pdfrwt>
<pdfrwt beam="2">  1       -2 0.32057971E+00 0.27399615E+03</pdfrwt>
<totfact> 0.25289173E+02</totfact>
</mgrwt>
</event>
<event>
 9    1  0.2054950E-002  0.2751019E+03  0.7818608E-02  0.1098395E+00
         -2   -1    0    0    0  501 -0.00000000000E+00  0.00000000000E+00  0.23195289449E+02  0.23195289449E+02  0.00000000000E+00 0. -1.
          2   -1    0    0  501    0  0.00000000000E+00 -0.00000000000E+00 -0.81569441024E+03  0.81569441024E+03  0.00000000000E+00 0. -1.
         36    2    1    2    0    0 -0.35527136788E-14  0.00000000000E+00 -0.79249912079E+03  0.83888969969E+03  0.27510192982E+03 0.  0.
         25    2    3    3    0    0  0.23409684661E+02  0.30760334792E+02 -0.52176018818E+03  0.53855433681E+03  0.12772183915E+03 0.  0.
         25    2    3    3    0    0 -0.23409684661E+02 -0.30760334792E+02 -0.27073893261E+03  0.30033536288E+03  0.12412714865E+03 0.  0.
          5    1    4    4  502    0 -0.76602497240E+01  0.14999925568E+02 -0.49251624462E+03  0.49282656017E+03  0.47000000000E+01 0. -1.
         -5    1    4    4    0  502  0.31069934385E+02  0.15760409224E+02 -0.29243943557E+02  0.45727776639E+02  0.47000000000E+01 0. -1.
          5    1    5    5  503    0 -0.64693377294E+02  0.14761812198E+02 -0.11515711962E+03  0.13299021153E+03  0.47000000000E+01 0.  1.
         -5    1    5    5    0  503  0.41283692633E+02 -0.45522146991E+02 -0.15558181300E+03  0.16734515135E+03  0.47000000000E+01 0.  1.
<mgrwt>
<rscale>  0 0.27510193E+03</rscale>
<asrwt>0</asrwt>
<pdfrwt beam="1">  1        2 0.12549144E+00 0.27510193E+03</pdfrwt>
<pdfrwt beam="2">  1       -2 0.35685062E-02 0.27510193E+03</pdfrwt>
<totfact> 0.11257908E+04</totfact>
</mgrwt>
</event>
<event>
 9    1  0.2054950E-002  0.2749655E+03  0.7818608E-02  0.1098471E+00
         -3   -1    0    0    0  501 -0.00000000000E+00  0.00000000000E+00  0.97394144619E+01  0.97394144619E+01  0.00000000000E+00 0.  1.
          3   -1    0    0  501    0  0.00000000000E+00 -0.00000000000E+00 -0.19407228895E+04  0.19407228895E+04  0.00000000000E+00 0.  1.
         36    2    1    2    0    0  0.00000000000E+00  0.00000000000E+00 -0.19309834751E+04  0.19504623040E+04  0.27496548567E+03 0.  0.
         25    2    3    3    0    0  0.17744288054E+02 -0.23191286216E+02 -0.68260515915E+03  0.69460005245E+03  0.12516682491E+03 0.  0.
         25    2    3    3    0    0 -0.17744288054E+02  0.23191286216E+02 -0.12483783159E+04  0.12558622515E+04  0.13374931650E+03 0.  0.
          5    1    4    4  502    0 -0.54118220090E+02 -0.11605436358E+02 -0.28674953463E+03  0.29208021759E+03  0.47000000000E+01 0. -1.
         -5    1    4    4    0  502  0.71862508144E+02 -0.11585849858E+02 -0.39585562451E+03  0.40251983486E+03  0.47000000000E+01 0. -1.
          5    1    5    5  503    0  0.70089351761E+01 -0.13841973032E+02 -0.11158799484E+04  0.11159977037E+04  0.47000000000E+01 0.  1.
         -5    1    5    5    0  503 -0.24753223230E+02  0.37033259247E+02 -0.13249836753E+03  0.13986454787E+03  0.47000000000E+01 0.  1.
<mgrwt>
<rscale>  0 0.27496549E+03</rscale>
<asrwt>0</asrwt>
<pdfrwt beam="1">  1        3 0.29857289E+00 0.27496549E+03</pdfrwt>
<pdfrwt beam="2">  1       -3 0.14983708E-02 0.27496549E+03</pdfrwt>
<totfact> 0.17006293E+02</totfact>
</mgrwt>
</event>
<event>
 9    1  0.2054950E-002  0.2749235E+03  0.7818608E-02  0.1098494E+00
         -1   -1    0    0    0  501 -0.00000000000E+00  0.00000000000E+00  0.57005105374E+03  0.57005105374E+03  0.00000000000E+00 0.  1.
          1   -1    0    0  501    0  0.00000000000E+00 -0.00000000000E+00 -0.33147435807E+02  0.33147435807E+02  0.00000000000E+00 0.  1.
         36    2    1    2    0    0  0.00000000000E+00  0.00000000000E+00  0.53690361794E+03  0.60319848955E+03  0.27492348543E+03 0.  0.
         25    2    3    3    0    0 -0.43995883412E+02  0.26580825999E+02  0.23992610207E+03  0.27631670641E+03  0.12705986666E+03 0.  0.
         25    2    3    3    0    0  0.43995883412E+02 -0.26580825999E+02  0.29697751586E+03  0.32688178314E+03  0.12654594879E+03 0.  0.
          5    1    4    4  502    0 -0.37524843147E+02 -0.31009206105E+02  0.27563353166E+02  0.56138339432E+02  0.47000000000E+01 0. -1.
         -5    1    4    4    0  502 -0.64710402652E+01  0.57590032103E+02  0.21236274891E+03  0.22017836697E+03  0.47000000000E+01 0. -1.
          5    1    5    5  503    0  0.49594240136E+01 -0.48389394922E+02  0.32685368617E+02  0.58792454865E+02  0.47000000000E+01 0. -1.
         -5    1    5    5    0  503  0.39036459399E+02  0.21808568924E+02  0.26429214725E+03  0.26808932828E+03  0.47000000000E+01 0. -1.
<mgrwt>
<rscale>  0 0.27492349E+03</rscale>
<asrwt>0</asrwt>
<pdfrwt beam="1">  1        1 0.50996060E-02 0.27492349E+03</pdfrwt>
<pdfrwt beam="2">  1       -1 0.87700154E-01 0.27492349E+03</pdfrwt>
<totfact> 0.21721234E+03</totfact>
</mgrwt>
</event>
<event>
 9    1  0.2054950E-002  0.2719504E+03  0.7818608E-02  0.1100169E+00
          1   -1    0    0  501    0  0.00000000000E+00  0.00000000000E+00  0.28941459633E+03  0.28941459633E+03  0.00000000000E+00 0. -1.
         -1   -1    0    0    0  501 -0.00000000000E+00 -0.00000000000E+00 -0.63884993778E+02  0.63884993778E+02  0.00000000000E+00 0. -1.
         36    2    1    2    0    0  0.00000000000E+00 -0.35527136788E-14  0.22552960255E+03  0.35329959011E+03  0.27195036081E+03 0.  0.
         25    2    3    3    0    0 -0.15967417725E+02  0.64635090975E+01  0.76701341662E+02  0.14891610564E+03  0.12647598716E+03 0.  0.
         25    2    3    3    0    0  0.15967417725E+02 -0.64635090975E+01  0.14882826089E+03  0.20438348447E+03  0.13901806395E+03 0.  0.
          5    1    4    4  502    0 -0.50335924007E+02  0.28127267143E+02  0.89052251695E+02  0.10619435924E+03  0.47000000000E+01 0. -1.
         -5    1    4    4    0  502  0.34368506282E+02 -0.21663758046E+02 -0.12350910033E+02  0.42721746399E+02  0.47000000000E+01 0. -1.
          5    1    5    5  503    0  0.58604834238E+02  0.13544521060E+02  0.14628347609E+02  0.62081069583E+02  0.47000000000E+01 0. -1.
         -5    1    5    5    0  503 -0.42637416513E+02 -0.20008030157E+02  0.13419991328E+03  0.14230241489E+03  0.47000000000E+01 0. -1.
<mgrwt>
<rscale>  0 0.27195036E+03</rscale>
<asrwt>0</asrwt>
<pdfrwt beam="1">  1        1 0.44525322E-01 0.27195036E+03</pdfrwt>
<pdfrwt beam="2">  1       -1 0.98284608E-02 0.27195036E+03</pdfrwt>
<totfact> 0.57008689E+03</totfact>
</mgrwt>
</event>
<event>
 9    1  0.2054950E-002  0.2752332E+03  0.7818608E-02  0.1098321E+00
          1   -1    0    0  501    0  0.00000000000E+00  0.00000000000E+00  0.17658170223E+04  0.17658170223E+04  0.00000000000E+00 0.  1.
         -1   -1    0    0    0  501 -0.00000000000E+00 -0.00000000000E+00 -0.10724967219E+02  0.10724967219E+02  0.00000000000E+00 0.  1.
         36    2    1    2    0    0  0.00000000000E+00 -0.71054273576E-14  0.17550920551E+04  0.17765419895E+04  0.27523320788E+03 0.  0.
         25    2    3    3    0    0  0.45950178481E+02  0.19067131769E+02  0.11022714618E+04  0.11108228616E+04  0.12825786478E+03 0.  0.
         25    2    3    3    0    0 -0.45950178481E+02 -0.19067131769E+02  0.65282059329E+03  0.66571912795E+03  0.12054980666E+03 0.  0.
          5    1    4    4  502    0  0.90490269066E+02  0.19849893484E+02  0.75048843947E+03  0.75619937507E+03  0.47000000000E+01 0. -1.
         -5    1    4    4    0  502 -0.44540090585E+02 -0.78276171540E+00  0.35178302232E+03  0.35462348650E+03  0.47000000000E+01 0. -1.
          5    1    5    5  503    0 -0.27955440132E+02  0.40653558806E+02  0.46766003910E+03  0.47027887540E+03  0.47000000000E+01 0. -1.
         -5    1    5    5    0  503 -0.17994738349E+02 -0.59720690575E+02  0.18516055419E+03  0.19544025255E+03  0.47000000000E+01 0. -1.
<mgrwt>
<rscale>  0 0.27523321E+03</rscale>
<asrwt>0</asrwt>
<pdfrwt beam="1">  1        1 0.27166393E+00 0.27523321E+03</pdfrwt>
<pdfrwt beam="2">  1       -1 0.16499964E-02 0.27523321E+03</pdfrwt>
<totfact> 0.43503351E+03</totfact>
</mgrwt>
</event>
<event>
 9    1  0.2054950E-002  0.2752564E+03  0.7818608E-02  0.1098308E+00
          1   -1    0    0  501    0  0.00000000000E+00  0.00000000000E+00  0.47212921906E+03  0.47212921906E+03  0.00000000000E+00 0.  1.
         -1   -1    0    0    0  501 -0.00000000000E+00 -0.00000000000E+00 -0.40119368724E+02  0.40119368724E+02  0.00000000000E+00 0.  1.
         36    2    1    2    0    0 -0.71054273576E-14  0.00000000000E+00  0.43200985034E+03  0.51224858779E+03  0.27525643480E+03 0.  0.
         25    2    3    3    0    0 -0.36172485356E+02  0.14977500195E+02  0.13628360374E+03  0.18958182602E+03  0.12583828472E+03 0.  0.
         25    2    3    3    0    0  0.36172485356E+02 -0.14977500195E+02  0.29572624660E+03  0.32266676176E+03  0.12299208108E+03 0.  0.
          5    1    4    4  502    0 -0.38065170949E+02 -0.42251533709E+02  0.11487956581E+03  0.12827140750E+03  0.47000000000E+01 0.  1.
         -5    1    4    4    0  502  0.18926855929E+01  0.57229033904E+02  0.21404037924E+02  0.61310418526E+02  0.47000000000E+01 0.  1.
          5    1    5    5  503    0  0.38503138239E+02 -0.40564255248E+02  0.29070006529E+03  0.29606851980E+03  0.47000000000E+01 0. -1.
         -5    1    5    5    0  503 -0.23306528829E+01  0.25586755053E+02  0.50261813146E+01  0.26598241964E+02  0.47000000000E+01 0. -1.
<mgrwt>
<rscale>  0 0.27525643E+03</rscale>
<asrwt>0</asrwt>
<pdfrwt beam="1">  1        1 0.72635260E-01 0.27525643E+03</pdfrwt>
<pdfrwt beam="2">  1       -1 0.61722109E-02 0.27525643E+03</pdfrwt>
<totfact> 0.62085498E+03</totfact>
</mgrwt>
</event>
<event>
 9    1  0.2054950E-002  0.2753729E+03  0.7818608E-02  0.1098243E+00
         -2   -1    0    0    0  501 -0.00000000000E+00  0.00000000000E+00  0.11794615439E+02  0.11794615439E+02  0.00000000000E+00 0. -1.
          2   -1    0    0  501    0  0.00000000000E+00 -0.00000000000E+00 -0.16073061545E+04  0.16073061545E+04  0.00000000000E+00 0. -1.
         36    2    1    2    0    0  0.00000000000E+00  0.35527136788E-14 -0.15955115391E+04  0.16191007700E+04  0.27537289616E+03 0.  0.
         25    2    3    3    0    0 -0.37974205469E+02  0.28000790600E+01 -0.10324900468E+04  0.10406801967E+04  0.12461819429E+03 0.  0.
         25    2    3    3    0    0  0.37974205469E+02 -0.28000790600E+01 -0.56302149224E+03  0.57842057322E+03  0.12699322056E+03 0.  0.
          5    1    4    4  502    0 -0.11933485180E+02  0.63124250513E+02 -0.51933732923E+03  0.52331675934E+03  0.47000000000E+01 0.  1.
         -5    1    4    4    0  502 -0.26040720289E+02 -0.60324171453E+02 -0.51315271761E+03  0.51736343741E+03  0.47000000000E+01 0.  1.
          5    1    5    5  503    0  0.43541857599E+01  0.38537260595E+01  0.52254205926E+01  0.91216861677E+01  0.47000000000E+01 0. -1.
         -5    1    5    5    0  503  0.33620019709E+02 -0.66538051195E+01 -0.56824691284E+03  0.56929888705E+03  0.47000000000E+01 0. -1.
<mgrwt>
<rscale>  0 0.27537290E+03</rscale>
<asrwt>0</asrwt>
<pdfrwt beam="1">  1        2 0.24727786E+00 0.27537290E+03</pdfrwt>
<pdfrwt beam="2">  1       -2 0.18145563E-02 0.27537290E+03</pdfrwt>
<totfact> 0.10670520E+04</totfact>
</mgrwt>
</event>
<event>
 9    1  0.2054950E-002  0.2774609E+03  0.7818608E-02  0.1097084E+00
          2   -1    0    0  501    0  0.00000000000E+00  0.00000000000E+00  0.28797899503E+03  0.28797899503E+03  0.00000000000E+00 0. -1.
         -2   -1    0    0    0  501 -0.00000000000E+00 -0.00000000000E+00 -0.66831746562E+02  0.66831746562E+02  0.00000000000E+00 0. -1.
         36    2    1    2    0    0 -0.71054273576E-14  0.00000000000E+00  0.22114724847E+03  0.35481074159E+03  0.27746091048E+03 0.  0.
         25    2    3    3    0    0 -0.40809142481E+02 -0.34249792414E+02  0.71025116222E+02  0.15278727899E+03  0.12434207291E+03 0.  0.
         25    2    3    3    0    0  0.40809142481E+02  0.34249792414E+02  0.15012213225E+03  0.20202346261E+03  0.12425131976E+03 0.  0.
          5    1    4    4  502    0 -0.42206986153E+02 -0.60995024877E+02 -0.25311684453E+01  0.74366118317E+02  0.47000000000E+01 0. -1.
         -5    1    4    4    0  502  0.13978436713E+01  0.26745232463E+02  0.73556284668E+02  0.78421160668E+02  0.47000000000E+01 0. -1.
          5    1    5    5  503    0 -0.39182042369E+01  0.16155473559E+02 -0.19241370781E+02  0.25858692926E+02  0.47000000000E+01 0. -1.
         -5    1    5    5    0  503  0.44727346718E+02  0.18094318855E+02  0.16936350303E+03  0.17616476968E+03  0.47000000000E+01 0. -1.
<mgrwt>
<rscale>  0 0.27746091E+03</rscale>
<asrwt>0</asrwt>
<pdfrwt beam="1">  1        2 0.44304460E-01 0.27746091E+03</pdfrwt>
<pdfrwt beam="2">  1       -2 0.10281807E-01 0.27746091E+03</pdfrwt>
<totfact> 0.72044099E+03</totfact>
</mgrwt>
</event>
<event>
 9    1  0.2054950E-002  0.2746772E+03  0.7818608E-02  0.1098632E+00
          1   -1    0    0  501    0  0.00000000000E+00  0.00000000000E+00  0.19768642326E+03  0.19768642326E+03  0.00000000000E+00 0.  1.
         -1   -1    0    0    0  501 -0.00000000000E+00 -0.00000000000E+00 -0.95413175649E+02  0.95413175649E+02  0.00000000000E+00 0.  1.
         36    2    1    2    0    0  0.00000000000E+00  0.00000000000E+00  0.10227324761E+03  0.29309959891E+03  0.27467718817E+03 0.  0.
         25    2    3    3    0    0  0.97466633327E+01  0.22910565146E+02  0.10348350426E+03  0.16656014038E+03  0.12811539044E+03 0.  0.
         25    2    3    3    0    0 -0.97466633327E+01 -0.22910565146E+02 -0.12102566487E+01  0.12653945853E+03  0.12405997905E+03 0.  0.
          5    1    4    4  502    0  0.29935882000E+02  0.20362505269E+02  0.12872295949E+03  0.13380014556E+03  0.47000000000E+01 0. -1.
         -5    1    4    4    0  502 -0.20189218667E+02  0.25480598767E+01 -0.25239455237E+02  0.32759994814E+02  0.47000000000E+01 0. -1.
          5    1    5    5  503    0  0.16648062990E+02 -0.58998003065E+02 -0.34591560599E+02  0.70544939093E+02  0.47000000000E+01 0.  1.
         -5    1    5    5    0  503 -0.26394726323E+02  0.36087437920E+02  0.33381303950E+02  0.55994519434E+02  0.47000000000E+01 0.  1.
<mgrwt>
<rscale>  0 0.27467719E+03</rscale>
<asrwt>0</asrwt>
<pdfrwt beam="1">  1        1 0.30413296E-01 0.27467719E+03</pdfrwt>
<pdfrwt beam="2">  1       -1 0.14678950E-01 0.27467719E+03</pdfrwt>
<totfact> 0.49185680E+03</totfact>
</mgrwt>
</event>
<event>
 9    1  0.2054950E-002  0.2745714E+03  0.7818608E-02  0.1098691E+00
          2   -1    0    0  501    0  0.00000000000E+00  0.00000000000E+00  0.48295688157E+04  0.48295688157E+04  0.00000000000E+00 0.  1.
         -2   -1    0    0    0  501 -0.00000000000E+00 -0.00000000000E+00 -0.39024950560E+01  0.39024950560E+01  0.00000000000E+00 0.  1.
         36    2    1    2    0    0  0.71054273576E-14  0.00000000000E+00  0.48256663206E+04  0.48334713107E+04  0.27457143643E+03 0.  0.
         25    2    3    3    0    0 -0.38257670652E+02 -0.22436854639E+02  0.29881360797E+04  0.29911269703E+04  0.12615966187E+03 0.  0.
         25    2    3    3    0    0  0.38257670652E+02  0.22436854639E+02  0.18375302409E+04  0.18423443404E+04  0.12549191346E+03 0.  0.
          5    1    4    4  502    0 -0.24643461101E+02 -0.29000719720E+02  0.24816145139E+03  0.25110662650E+03  0.47000000000E+01 0.  1.
         -5    1    4    4    0  502 -0.13614209551E+02  0.65638650805E+01  0.27399746283E+04  0.27400203438E+04  0.47000000000E+01 0.  1.
          5    1    5    5  503    0  0.30623464643E+02  0.72029429117E+02  0.87904728422E+03  0.88253739475E+03  0.47000000000E+01 0. -1.
         -5    1    5    5    0  503  0.76342060091E+01 -0.49592574477E+02  0.95848295673E+03  0.95980694563E+03  0.47000000000E+01 0. -1.
<mgrwt>
<rscale>  0 0.27457144E+03</rscale>
<asrwt>0</asrwt>
<pdfrwt beam="1">  1        2 0.74300581E+00 0.27457144E+03</pdfrwt>
<pdfrwt beam="2">  1       -2 0.60038772E-03 0.27457144E+03</pdfrwt>
<totfact> 0.35374093E+02</totfact>
</mgrwt>
</event>
<event>
 9    1  0.2054950E-002  0.2747008E+03  0.7818608E-02  0.1098619E+00
         -2   -1    0    0    0  501 -0.00000000000E+00  0.00000000000E+00  0.12474589304E+02  0.12474589304E+02  0.00000000000E+00 0.  1.
          2   -1    0    0  501    0  0.00000000000E+00 -0.00000000000E+00 -0.15122853604E+04  0.15122853604E+04  0.00000000000E+00 0.  1.
         36    2    1    2    0    0 -0.71054273576E-14 -0.71054273576E-14 -0.14998107711E+04  0.15247599497E+04  0.27470084661E+03 0.  0.
         25    2    3    3    0    0  0.33361116771E+02  0.33734996993E+02 -0.90787410305E+03  0.91767604834E+03  0.12507169376E+03 0.  0.
         25    2    3    3    0    0 -0.33361116771E+02 -0.33734996993E+02 -0.59193666803E+03  0.60708390135E+03  0.12613813927E+03 0.  0.
          5    1    4    4  502    0  0.66813545662E+02 -0.28989233121E+00 -0.27700933240E+03  0.28499191946E+03  0.47000000000E+01 0. -1.
         -5    1    4    4    0  502 -0.33452428891E+02  0.34024889324E+02 -0.63086477065E+03  0.63268412888E+03  0.47000000000E+01 0. -1.
          5    1    5    5  503    0  0.38914809857E+02  0.89991925973E+01 -0.96253814760E+02  0.10431795027E+03  0.47000000000E+01 0. -1.
         -5    1    5    5    0  503 -0.72275926629E+02 -0.42734189590E+02 -0.49568285327E+03  0.50276595107E+03  0.47000000000E+01 0. -1.
<mgrwt>
<rscale>  0 0.27470085E+03</rscale>
<asrwt>0</asrwt>
<pdfrwt beam="1">  1        2 0.23265932E+00 0.27470085E+03</pdfrwt>
<pdfrwt beam="2">  1       -2 0.19191673E-02 0.27470085E+03</pdfrwt>
<totfact> 0.11039549E+04</totfact>
</mgrwt>
</event>
<event>
 9    1  0.2054950E-002  0.2750760E+03  0.7818608E-02  0.1098409E+00
         -2   -1    0    0    0  501 -0.00000000000E+00  0.00000000000E+00  0.59622720478E+02  0.59622720478E+02  0.00000000000E+00 0.  1.
          2   -1    0    0  501    0  0.00000000000E+00 -0.00000000000E+00 -0.31727346723E+03  0.31727346723E+03  0.00000000000E+00 0.  1.
         36    2    1    2    0    0  0.35527136788E-14 -0.71054273576E-14 -0.25765074675E+03  0.37689618771E+03  0.27507604223E+03 0.  0.
         25    2    3    3    0    0  0.24016161430E+02  0.38584518125E+02 -0.77750294776E+02  0.15395498885E+03  0.12486588487E+03 0.  0.
         25    2    3    3    0    0 -0.24016161430E+02 -0.38584518125E+02 -0.17990045198E+03  0.22294119886E+03  0.12358424041E+03 0.  0.
          5    1    4    4  502    0 -0.10618994264E+02  0.10767652655E+01  0.31328169958E+02  0.33428531160E+02  0.47000000000E+01 0. -1.
         -5    1    4    4    0  502  0.34635155694E+02  0.37507752859E+02 -0.10907846473E+03  0.12052645769E+03  0.47000000000E+01 0. -1.
          5    1    5    5  503    0 -0.75330711749E+01 -0.50664104619E+01  0.18426805487E+02  0.21072561229E+02  0.47000000000E+01 0. -1.
         -5    1    5    5    0  503 -0.16483090255E+02 -0.33518107663E+02 -0.19832725746E+03  0.20186863763E+03  0.47000000000E+01 0. -1.
<mgrwt>
<rscale>  0 0.27507604E+03</rscale>
<asrwt>0</asrwt>
<pdfrwt beam="1">  1        2 0.48811302E-01 0.27507604E+03</pdfrwt>
<pdfrwt beam="2">  1       -2 0.91727263E-02 0.27507604E+03</pdfrwt>
<totfact> 0.77770018E+03</totfact>
</mgrwt>
</event>
<event>
 9    1  0.2054950E-002  0.2751948E+03  0.7818608E-02  0.1098343E+00
         -2   -1    0    0    0  501 -0.00000000000E+00  0.00000000000E+00  0.21862410945E+02  0.21862410945E+02  0.00000000000E+00 0. -1.
          2   -1    0    0  501    0  0.00000000000E+00 -0.00000000000E+00 -0.86600898291E+03  0.86600898291E+03  0.00000000000E+00 0. -1.
         36    2    1    2    0    0 -0.71054273576E-14  0.17763568394E-14 -0.84414657197E+03  0.88787139386E+03  0.27519479840E+03 0.  0.
         25    2    3    3    0    0  0.45329138400E+02 -0.97531840564E+01 -0.42887896552E+03  0.44951375913E+03  0.12639460902E+03 0.  0.
         25    2    3    3    0    0 -0.45329138400E+02  0.97531840564E+01 -0.41526760644E+03  0.43835763473E+03  0.13251556730E+03 0.  0.
          5    1    4    4  502    0  0.48446757676E+02  0.74601902790E+01 -0.49913188787E+02  0.70115327733E+02  0.47000000000E+01 0. -1.
         -5    1    4    4    0  502 -0.31176192758E+01 -0.17213374335E+02 -0.37896577674E+03  0.37939843139E+03  0.47000000000E+01 0. -1.
          5    1    5    5  503    0  0.13567233905E+02 -0.50233248189E+02 -0.21198080628E+03  0.21832407400E+03  0.47000000000E+01 0. -1.
         -5    1    5    5    0  503 -0.58896372306E+02  0.59986432246E+02 -0.20328680016E+03  0.22003356073E+03  0.47000000000E+01 0. -1.
<mgrwt>
<rscale>  0 0.27519480E+03</rscale>
<asrwt>0</asrwt>
<pdfrwt beam="1">  1        2 0.13323215E+00 0.27519480E+03</pdfrwt>
<pdfrwt beam="2">  1       -2 0.33634479E-02 0.27519480E+03</pdfrwt>
<totfact> 0.11379971E+04</totfact>
</mgrwt>
</event>
<event>
 9    1  0.2054950E-002  0.2749053E+03  0.7818608E-02  0.1098505E+00
         -2   -1    0    0    0  501 -0.00000000000E+00  0.00000000000E+00  0.44232879697E+02  0.44232879697E+02  0.00000000000E+00 0. -1.
          2   -1    0    0  501    0  0.00000000000E+00 -0.00000000000E+00 -0.42713084392E+03  0.42713084392E+03  0.00000000000E+00 0. -1.
         36    2    1    2    0    0  0.71054273576E-14 -0.17763568394E-14 -0.38289796422E+03  0.47136372361E+03  0.27490527266E+03 0.  0.
         25    2    3    3    0    0 -0.33858190668E+02 -0.10666288600E+02 -0.12839325989E+03  0.18246663460E+03  0.12469601746E+03 0.  0.
         25    2    3    3    0    0  0.33858190668E+02  0.10666288600E+02 -0.25450470433E+03  0.28889708901E+03  0.13201794092E+03 0.  0.
          5    1    4    4  502    0 -0.64289582358E+02 -0.25593172153E+02 -0.13091758460E+03  0.14815419271E+03  0.47000000000E+01 0. -1.
         -5    1    4    4    0  502  0.30431391690E+02  0.14926883553E+02  0.25243247176E+01  0.34312441884E+02  0.47000000000E+01 0. -1.
          5    1    5    5  503    0  0.13913895748E+02  0.71231364722E+02 -0.13193501825E+03  0.15065338647E+03  0.47000000000E+01 0. -1.
         -5    1    5    5    0  503  0.19944294920E+02 -0.60565076122E+02 -0.12256968608E+03  0.13824370254E+03  0.47000000000E+01 0. -1.
<mgrwt>
<rscale>  0 0.27490527E+03</rscale>
<asrwt>0</asrwt>
<pdfrwt beam="1">  1        2 0.65712439E-01 0.27490527E+03</pdfrwt>
<pdfrwt beam="2">  1       -2 0.68050583E-02 0.27490527E+03</pdfrwt>
<totfact> 0.89837128E+03</totfact>
</mgrwt>
</event>
<event>
 9    1  0.2054950E-002  0.2761013E+03  0.7818608E-02  0.1097838E+00
          2   -1    0    0  501    0  0.00000000000E+00  0.00000000000E+00  0.33274150792E+03  0.33274150792E+03  0.00000000000E+00 0. -1.
         -2   -1    0    0    0  501 -0.00000000000E+00 -0.00000000000E+00 -0.57275617127E+02  0.57275617127E+02  0.00000000000E+00 0. -1.
         36    2    1    2    0    0 -0.35527136788E-14  0.00000000000E+00  0.27546589080E+03  0.39001712505E+03  0.27610125107E+03 0.  0.
         25    2    3    3    0    0 -0.15561923499E+02  0.30240193690E+02  0.70570754931E+02  0.14639559875E+03  0.12367213552E+03 0.  0.
         25    2    3    3    0    0  0.15561923499E+02 -0.30240193690E+02  0.20489513587E+03  0.24362152630E+03  0.12732944906E+03 0.  0.
          5    1    4    4  502    0 -0.19132705338E+02  0.75457543118E+02  0.24922397518E+02  0.81872566376E+02  0.47000000000E+01 0. -1.
         -5    1    4    4    0  502  0.35707818388E+01 -0.45217349428E+02  0.45648357413E+02  0.64523032373E+02  0.47000000000E+01 0. -1.
          5    1    5    5  503    0 -0.42281903381E+02 -0.49486293336E+02  0.71048927620E+02  0.96471201389E+02  0.47000000000E+01 0. -1.
         -5    1    5    5    0  503  0.57843826880E+02  0.19246099646E+02  0.13384620825E+03  0.14715032491E+03  0.47000000000E+01 0. -1.
<mgrwt>
<rscale>  0 0.27610125E+03</rscale>
<asrwt>0</asrwt>
<pdfrwt beam="1">  1        2 0.51191000E-01 0.27610125E+03</pdfrwt>
<pdfrwt beam="2">  1       -2 0.88116336E-02 0.27610125E+03</pdfrwt>
<totfact> 0.78723613E+03</totfact>
</mgrwt>
</event>
<event>
 9    1  0.2054950E-002  0.2748447E+03  0.7818608E-02  0.1098538E+00
         -3   -1    0    0    0  501 -0.00000000000E+00  0.00000000000E+00  0.18244553014E+02  0.18244553014E+02  0.00000000000E+00 0. -1.
          3   -1    0    0  501    0  0.00000000000E+00 -0.00000000000E+00 -0.10350977778E+04  0.10350977778E+04  0.00000000000E+00 0. -1.
         36    2    1    2    0    0  0.71054273576E-14  0.00000000000E+00 -0.10168532248E+04  0.10533423308E+04  0.27484465635E+03 0.  0.
         25    2    3    3    0    0  0.32706533386E+02 -0.40633868526E+02 -0.51618348564E+03  0.53439936402E+03  0.12812673735E+03 0.  0.
         25    2    3    3    0    0 -0.32706533386E+02  0.40633868526E+02 -0.50066973915E+03  0.51894296679E+03  0.12613796608E+03 0.  0.
          5    1    4    4  502    0  0.63946074388E+02 -0.19543934953E+02 -0.46928605985E+03  0.47404911327E+03  0.47000000000E+01 0.  1.
         -5    1    4    4    0  502 -0.31239541002E+02 -0.21089933573E+02 -0.46897425789E+02  0.60350250752E+02  0.47000000000E+01 0.  1.
          5    1    5    5  503    0  0.48175776753E+02  0.20037130826E+02 -0.21521662639E+03  0.22150096693E+03  0.47000000000E+01 0. -1.
         -5    1    5    5    0  503 -0.80882310138E+02  0.20596737700E+02 -0.28545311276E+03  0.29744199986E+03  0.47000000000E+01 0. -1.
<mgrwt>
<rscale>  0 0.27484466E+03</rscale>
<asrwt>0</asrwt>
<pdfrwt beam="1">  1        3 0.15924583E+00 0.27484466E+03</pdfrwt>
<pdfrwt beam="2">  1       -3 0.28068540E-02 0.27484466E+03</pdfrwt>
<totfact> 0.42235575E+02</totfact>
</mgrwt>
</event>
<event>
 9    1  0.2054950E-002  0.2747432E+03  0.7818608E-02  0.1098595E+00
          2   -1    0    0  501    0  0.00000000000E+00  0.00000000000E+00  0.20030499967E+04  0.20030499967E+04  0.00000000000E+00 0.  1.
         -2   -1    0    0    0  501 -0.00000000000E+00 -0.00000000000E+00 -0.94211119047E+01  0.94211119047E+01  0.00000000000E+00 0.  1.
         36    2    1    2    0    0  0.00000000000E+00  0.00000000000E+00  0.19936288848E+04  0.20124711086E+04  0.27474321225E+03 0.  0.
         25    2    3    3    0    0 -0.10926265176E+02 -0.81980792099E+02  0.12140714873E+04  0.12231469539E+04  0.12360688047E+03 0.  0.
         25    2    3    3    0    0  0.10926265176E+02  0.81980792099E+02  0.77955739749E+03  0.78932415475E+03  0.92101312378E+02 0.  0.
          5    1    4    4  502    0 -0.45317659486E+01 -0.70953625474E+02  0.12043142792E+04  0.12064202945E+04  0.47000000000E+01 0.  1.
         -5    1    4    4    0  502 -0.63944992275E+01 -0.11027166624E+02  0.97572081422E+01  0.16726659405E+02  0.47000000000E+01 0.  1.
          5    1    5    5  503    0 -0.28564209805E+02  0.71426337806E+02  0.60982506029E+03  0.61467579257E+03  0.47000000000E+01 0. -1.
         -5    1    5    5    0  503  0.39490474981E+02  0.10554454292E+02  0.16973233721E+03  0.17464836218E+03  0.47000000000E+01 0. -1.
<mgrwt>
<rscale>  0 0.27474321E+03</rscale>
<asrwt>0</asrwt>
<pdfrwt beam="1">  1        2 0.30816120E+00 0.27474321E+03</pdfrwt>
<pdfrwt beam="2">  1       -2 0.14494034E-02 0.27474321E+03</pdfrwt>
<totfact> 0.91827125E+03</totfact>
</mgrwt>
</event>
<event>
 9    1  0.2054950E-002  0.2753715E+03  0.7818608E-02  0.1098244E+00
          1   -1    0    0  501    0  0.00000000000E+00  0.00000000000E+00  0.31241025311E+03  0.31241025311E+03  0.00000000000E+00 0. -1.
         -1   -1    0    0    0  501 -0.00000000000E+00 -0.00000000000E+00 -0.60681011063E+02  0.60681011063E+02  0.00000000000E+00 0. -1.
         36    2    1    2    0    0  0.00000000000E+00 -0.71054273576E-14  0.25172924205E+03  0.37309126418E+03  0.27537153103E+03 0.  0.
         25    2    3    3    0    0 -0.13955301430E+02 -0.48004103456E+02  0.11450320665E+03  0.18210525574E+03  0.13248469892E+03 0.  0.
         25    2    3    3    0    0  0.13955301430E+02  0.48004103456E+02  0.13722603540E+03  0.19098600843E+03  0.12306716150E+03 0.  0.
          5    1    4    4  502    0 -0.11148607096E+01  0.46118740676E+02  0.34030849837E+02  0.57518430930E+02  0.47000000000E+01 0. -1.
         -5    1    4    4    0  502 -0.12840440720E+02 -0.94122844132E+02  0.80472356815E+02  0.12458682481E+03  0.47000000000E+01 0. -1.
          5    1    5    5  503    0 -0.21018939691E+02 -0.23464734065E+02  0.96210933589E+02  0.10134605721E+03  0.47000000000E+01 0.  1.
         -5    1    5    5    0  503  0.34974241121E+02  0.71468837521E+02  0.41015101808E+02  0.89639951221E+02  0.47000000000E+01 0.  1.
<mgrwt>
<rscale>  0 0.27537153E+03</rscale>
<asrwt>0</asrwt>
<pdfrwt beam="1">  1        1 0.48063115E-01 0.27537153E+03</pdfrwt>
<pdfrwt beam="2">  1       -1 0.93355403E-02 0.27537153E+03</pdfrwt>
<totfact> 0.56080194E+03</totfact>
</mgrwt>
</event>
<event>
 9    1  0.2054950E-002  0.2739958E+03  0.7818608E-02  0.1099014E+00
         -2   -1    0    0    0  501 -0.00000000000E+00  0.00000000000E+00  0.11997408560E+03  0.11997408560E+03  0.00000000000E+00 0.  1.
          2   -1    0    0  501    0  0.00000000000E+00 -0.00000000000E+00 -0.15643727553E+03  0.15643727553E+03  0.00000000000E+00 0.  1.
         36    2    1    2    0    0  0.71054273576E-14  0.35527136788E-14 -0.36463189935E+02  0.27641136113E+03  0.27399575972E+03 0.  0.
         25    2    3    3    0    0 -0.51194701896E+02 -0.30571101894E+02 -0.11406791677E+02  0.13708080212E+03  0.12290460382E+03 0.  0.
         25    2    3    3    0    0  0.51194701896E+02  0.30571101894E+02 -0.25056398258E+02  0.13933055901E+03  0.12340863749E+03 0.  0.
          5    1    4    4  502    0  0.35658217041E+02  0.13372403173E+02 -0.98583040553E+01  0.39618250441E+02  0.47000000000E+01 0. -1.
         -5    1    4    4    0  502 -0.86852918937E+02 -0.43943505067E+02 -0.15484876217E+01  0.97462551677E+02  0.47000000000E+01 0. -1.
          5    1    5    5  503    0  0.44518954465E+02 -0.43050156287E+02 -0.35945102365E+01  0.62211444019E+02  0.47000000000E+01 0. -1.
         -5    1    5    5    0  503  0.66757474309E+01  0.73621258182E+02 -0.21461888022E+02  0.77119114994E+02  0.47000000000E+01 0. -1.
<mgrwt>
<rscale>  0 0.27399576E+03</rscale>
<asrwt>0</asrwt>
<pdfrwt beam="1">  1        2 0.24067273E-01 0.27399576E+03</pdfrwt>
<pdfrwt beam="2">  1       -2 0.18457552E-01 0.27399576E+03</pdfrwt>
<totfact> 0.53786021E+03</totfact>
</mgrwt>
</event>
<event>
 9    1  0.2054950E-002  0.2754879E+03  0.7818608E-02  0.1098179E+00
          1   -1    0    0  501    0  0.00000000000E+00  0.00000000000E+00  0.26413158674E+03  0.26413158674E+03  0.00000000000E+00 0.  1.
         -1   -1    0    0    0  501 -0.00000000000E+00 -0.00000000000E+00 -0.71833144918E+02  0.71833144918E+02  0.00000000000E+00 0.  1.
         36    2    1    2    0    0  0.00000000000E+00 -0.71054273576E-14  0.19229844182E+03  0.33596473166E+03  0.27548794927E+03 0.  0.
         25    2    3    3    0    0 -0.44229944635E+00 -0.48559594390E+02  0.13432048288E+03  0.18853067378E+03  0.12305930684E+03 0.  0.
         25    2    3    3    0    0  0.44229944635E+00  0.48559594390E+02  0.57977958943E+02  0.14743405788E+03  0.12655879212E+03 0.  0.
          5    1    4    4  502    0 -0.60688906099E+02 -0.13226646895E+02  0.63793320472E+02  0.89161456070E+02  0.47000000000E+01 0.  1.
         -5    1    4    4    0  502  0.60246606653E+02 -0.35332947495E+02  0.70527162409E+02  0.99369217715E+02  0.47000000000E+01 0.  1.
          5    1    5    5  503    0  0.16951307153E+02  0.55201897639E+02  0.92017151039E+02  0.10873749309E+03  0.47000000000E+01 0. -1.
         -5    1    5    5    0  503 -0.16509007707E+02 -0.66423032489E+01 -0.34039192097E+02  0.38696564789E+02  0.47000000000E+01 0. -1.
<mgrwt>
<rscale>  0 0.27548795E+03</rscale>
<asrwt>0</asrwt>
<pdfrwt beam="1">  1        1 0.40635628E-01 0.27548795E+03</pdfrwt>
<pdfrwt beam="2">  1       -1 0.11051253E-01 0.27548795E+03</pdfrwt>
<totfact> 0.53341956E+03</totfact>
</mgrwt>
</event>
<event>
 9    1  0.2054950E-002  0.2753827E+03  0.7818608E-02  0.1098238E+00
          2   -1    0    0  501    0  0.00000000000E+00  0.00000000000E+00  0.16099773073E+04  0.16099773073E+04  0.00000000000E+00 0. -1.
         -2   -1    0    0    0  501 -0.00000000000E+00 -0.00000000000E+00 -0.11775886725E+02  0.11775886725E+02  0.00000000000E+00 0. -1.
         36    2    1    2    0    0 -0.71054273576E-14  0.00000000000E+00  0.15982014206E+04  0.16217531940E+04  0.27538271842E+03 0.  0.
         25    2    3    3    0    0 -0.76430104919E+01  0.51657800591E+02  0.58333173322E+03  0.59823139844E+03  0.12197520701E+03 0.  0.
         25    2    3    3    0    0  0.76430104919E+01 -0.51657800591E+02  0.10148696874E+04  0.10235217956E+04  0.12210421679E+03 0.  0.
          5    1    4    4  502    0  0.22334921828E+02  0.34433140451E+02  0.55190801325E+02  0.68939135803E+02  0.47000000000E+01 0. -1.
         -5    1    4    4    0  502 -0.29977932320E+02  0.17224660140E+02  0.52814093190E+03  0.52929226264E+03  0.47000000000E+01 0. -1.
          5    1    5    5  503    0  0.53401683567E+02 -0.23671838168E+02  0.79493272611E+03  0.79708984737E+03  0.47000000000E+01 0. -1.
         -5    1    5    5    0  503 -0.45758673075E+02 -0.27985962423E+02  0.21993696126E+03  0.22643194823E+03  0.47000000000E+01 0. -1.
<mgrwt>
<rscale>  0 0.27538272E+03</rscale>
<asrwt>0</asrwt>
<pdfrwt beam="1">  1        2 0.24768864E+00 0.27538272E+03</pdfrwt>
<pdfrwt beam="2">  1       -2 0.18116762E-02 0.27538272E+03</pdfrwt>
<totfact> 0.10660673E+04</totfact>
</mgrwt>
</event>
<event>
 9    1  0.2054950E-002  0.2750820E+03  0.7818608E-02  0.1098406E+00
         -1   -1    0    0    0  501 -0.00000000000E+00  0.00000000000E+00  0.57391695588E+01  0.57391695588E+01  0.00000000000E+00 0. -1.
          1   -1    0    0  501    0  0.00000000000E+00 -0.00000000000E+00 -0.32962143353E+04  0.32962143353E+04  0.00000000000E+00 0. -1.
         36    2    1    2    0    0  0.14210854715E-13 -0.35527136788E-14 -0.32904751657E+04  0.33019535048E+04  0.27508204574E+03 0.  0.
         25    2    3    3    0    0  0.47337559082E+02 -0.13592611678E+02 -0.21206355719E+04  0.21247370057E+04  0.12241940623E+03 0.  0.
         25    2    3    3    0    0 -0.47337559082E+02  0.13592611678E+02 -0.11698395939E+04  0.11772164992E+04  0.12201805999E+03 0.  0.
          5    1    4    4  502    0 -0.22878112520E+02  0.24269566932E+02 -0.23420905830E+03  0.23661866558E+03  0.47000000000E+01 0. -1.
         -5    1    4    4    0  502  0.70215671602E+02 -0.37862178611E+02 -0.18864265136E+04  0.18881183401E+04  0.47000000000E+01 0. -1.
          5    1    5    5  503    0 -0.38963356424E+01 -0.51950991281E+02 -0.51800175423E+03  0.52063614388E+03  0.47000000000E+01 0. -1.
         -5    1    5    5    0  503 -0.43441223440E+02  0.65543602959E+02 -0.65183783964E+03  0.65658035531E+03  0.47000000000E+01 0. -1.
<mgrwt>
<rscale>  0 0.27508205E+03</rscale>
<asrwt>0</asrwt>
<pdfrwt beam="1">  1        1 0.50711020E+00 0.27508205E+03</pdfrwt>
<pdfrwt beam="2">  1       -1 0.88294864E-03 0.27508205E+03</pdfrwt>
<totfact> 0.10012002E+03</totfact>
</mgrwt>
</event>
<event>
 9    1  0.2054950E-002  0.2736189E+03  0.7818608E-02  0.1099226E+00
          1   -1    0    0  501    0  0.00000000000E+00  0.00000000000E+00  0.34474648596E+02  0.34474648596E+02  0.00000000000E+00 0. -1.
         -1   -1    0    0    0  501 -0.00000000000E+00 -0.00000000000E+00 -0.54291553764E+03  0.54291553764E+03  0.00000000000E+00 0. -1.
         36    2    1    2    0    0 -0.21316282073E-13  0.71054273576E-14 -0.50844088904E+03  0.57739018623E+03  0.27361887638E+03 0.  0.
         25    2    3    3    0    0 -0.50363877638E+02  0.33788973541E+02 -0.15465720404E+03  0.19641817946E+03  0.10479997880E+03 0.  0.
         25    2    3    3    0    0  0.50363877638E+02 -0.33788973541E+02 -0.35378368501E+03  0.38097200678E+03  0.12766581088E+03 0.  0.
          5    1    4    4  502    0  0.25655960257E+02  0.22734914432E+02 -0.88160464066E+02  0.94707243943E+02  0.47000000000E+01 0.  1.
         -5    1    4    4    0  502 -0.76019837895E+02  0.11054059109E+02 -0.66496739970E+02  0.10171093551E+03  0.47000000000E+01 0.  1.
          5    1    5    5  503    0  0.33351957404E+02  0.94777891848E+01 -0.13513763796E+02  0.37508577185E+02  0.47000000000E+01 0. -1.
         -5    1    5    5    0  503  0.17011920234E+02 -0.43266762726E+02 -0.34026992121E+03  0.34346342959E+03  0.47000000000E+01 0. -1.
<mgrwt>
<rscale>  0 0.27361888E+03</rscale>
<asrwt>0</asrwt>
<pdfrwt beam="1">  1        1 0.53037927E-02 0.27361888E+03</pdfrwt>
<pdfrwt beam="2">  1       -1 0.83525458E-01 0.27361888E+03</pdfrwt>
<totfact> 0.22806556E+03</totfact>
</mgrwt>
</event>
<event>
 9    1  0.2054950E-002  0.2747494E+03  0.7818608E-02  0.1098592E+00
         -1   -1    0    0    0  501 -0.00000000000E+00  0.00000000000E+00  0.13897052742E+03  0.13897052742E+03  0.00000000000E+00 0. -1.
          1   -1    0    0  501    0  0.00000000000E+00 -0.00000000000E+00 -0.13579715413E+03  0.13579715413E+03  0.00000000000E+00 0. -1.
         36    2    1    2    0    0  0.71054273576E-14  0.00000000000E+00  0.31733732956E+01  0.27476768155E+03  0.27474935583E+03 0.  0.
         25    2    3    3    0    0  0.47939445849E+02  0.18727137007E+02 -0.29164588936E+02  0.13561046116E+03  0.12202756983E+03 0.  0.
         25    2    3    3    0    0 -0.47939445849E+02 -0.18727137007E+02  0.32337962232E+02  0.13915722040E+03  0.12518023829E+03 0.  0.
          5    1    4    4  502    0 -0.68577147498E+01 -0.39119212900E+02  0.16940594859E+02  0.43432877221E+02  0.47000000000E+01 0. -1.
         -5    1    4    4    0  502  0.54797160599E+02  0.57846349906E+02 -0.46105183796E+02  0.92177583935E+02  0.47000000000E+01 0. -1.
          5    1    5    5  503    0 -0.61477290619E+02 -0.21502592854E+02 -0.32328947354E+02  0.72863362524E+02  0.47000000000E+01 0. -1.
         -5    1    5    5    0  503  0.13537844769E+02  0.27754558474E+01  0.64666909586E+02  0.66293857872E+02  0.47000000000E+01 0. -1.
<mgrwt>
<rscale>  0 0.27474936E+03</rscale>
<asrwt>0</asrwt>
<pdfrwt beam="1">  1        1 0.20891870E-01 0.27474936E+03</pdfrwt>
<pdfrwt beam="2">  1       -1 0.21380081E-01 0.27474936E+03</pdfrwt>
<totfact> 0.43315023E+03</totfact>
</mgrwt>
</event>
<event>
 9    1  0.2054950E-002  0.2769367E+03  0.7818608E-02  0.1097374E+00
          3   -1    0    0  501    0  0.00000000000E+00  0.00000000000E+00  0.38047883383E+03  0.38047883383E+03  0.00000000000E+00 0. -1.
         -3   -1    0    0    0  501 -0.00000000000E+00 -0.00000000000E+00 -0.50393051482E+02  0.50393051482E+02  0.00000000000E+00 0. -1.
         36    2    1    2    0    0 -0.71054273576E-14  0.14210854715E-13  0.33008578234E+03  0.43087188531E+03  0.27693673979E+03 0.  0.
         25    2    3    3    0    0 -0.94045960644E+01 -0.56668411051E+02  0.15430245795E+03  0.20748457179E+03  0.12625705431E+03 0.  0.
         25    2    3    3    0    0  0.94045960644E+01  0.56668411051E+02  0.17578332439E+03  0.22338731351E+03  0.12530905580E+03 0.  0.
          5    1    4    4  502    0  0.38612581391E+02  0.23011131647E+02  0.43463923437E+02  0.62702840940E+02  0.47000000000E+01 0.  1.
         -5    1    4    4    0  502 -0.48017177456E+02 -0.79679542699E+02  0.11083853452E+03  0.14478173086E+03  0.47000000000E+01 0.  1.
          5    1    5    5  503    0  0.40805491363E+02  0.50512739664E+02  0.25922528405E+02  0.70076333185E+02  0.47000000000E+01 0. -1.
         -5    1    5    5    0  503 -0.31400895298E+02  0.61556713871E+01  0.14986079598E+03  0.15331098033E+03  0.47000000000E+01 0. -1.
<mgrwt>
<rscale>  0 0.27693674E+03</rscale>
<asrwt>0</asrwt>
<pdfrwt beam="1">  1        3 0.58535204E-01 0.27693674E+03</pdfrwt>
<pdfrwt beam="2">  1       -3 0.77527774E-02 0.27693674E+03</pdfrwt>
<totfact> 0.82809664E+02</totfact>
</mgrwt>
</event>
<event>
 9    1  0.2054950E-002  0.2744361E+03  0.7818608E-02  0.1098767E+00
          1   -1    0    0  501    0  0.00000000000E+00  0.00000000000E+00  0.98268141045E+03  0.98268141045E+03  0.00000000000E+00 0. -1.
         -1   -1    0    0    0  501 -0.00000000000E+00 -0.00000000000E+00 -0.19160632934E+02  0.19160632934E+02  0.00000000000E+00 0. -1.
         36    2    1    2    0    0 -0.71054273576E-14 -0.71054273576E-14  0.96352077752E+03  0.10018420434E+04  0.27443613317E+03 0.  0.
         25    2    3    3    0    0  0.16068159306E+02  0.49225040109E+02  0.61641394839E+03  0.63073407419E+03  0.12319913253E+03 0.  0.
         25    2    3    3    0    0 -0.16068159306E+02 -0.49225040109E+02  0.34710682913E+03  0.37110796920E+03  0.12065108229E+03 0.  0.
          5    1    4    4  502    0 -0.46253313695E+02 -0.56577785533E+01  0.15642978599E+03  0.16329037764E+03  0.47000000000E+01 0.  1.
         -5    1    4    4    0  502  0.62321473001E+02  0.54882818663E+02  0.45998416240E+03  0.46744369655E+03  0.47000000000E+01 0.  1.
          5    1    5    5  503    0 -0.21735045850E+02 -0.81121070060E+02  0.31186276447E+03  0.32300698768E+03  0.47000000000E+01 0. -1.
         -5    1    5    5    0  503  0.56668865441E+01  0.31896029951E+02  0.35244064664E+02  0.48100981526E+02  0.47000000000E+01 0. -1.
<mgrwt>
<rscale>  0 0.27443613E+03</rscale>
<asrwt>0</asrwt>
<pdfrwt beam="1">  1        1 0.15118172E+00 0.27443613E+03</pdfrwt>
<pdfrwt beam="2">  1       -1 0.29477905E-02 0.27443613E+03</pdfrwt>
<totfact> 0.63747954E+03</totfact>
</mgrwt>
</event>
<event>
 9    1  0.2054950E-002  0.2749707E+03  0.7818608E-02  0.1098468E+00
         -2   -1    0    0    0  501 -0.00000000000E+00  0.00000000000E+00  0.25410058419E+03  0.25410058419E+03  0.00000000000E+00 0. -1.
          2   -1    0    0  501    0  0.00000000000E+00 -0.00000000000E+00 -0.74388760844E+02  0.74388760844E+02  0.00000000000E+00 0. -1.
         36    2    1    2    0    0  0.00000000000E+00  0.00000000000E+00  0.17971182334E+03  0.32848934503E+03  0.27497074453E+03 0.  0.
         25    2    3    3    0    0 -0.57886441930E+02  0.50012612166E+01  0.88582903791E+02  0.16415190617E+03  0.12539164518E+03 0.  0.
         25    2    3    3    0    0  0.57886441930E+02 -0.50012612166E+01  0.91128919552E+02  0.16433743886E+03  0.12380008506E+03 0.  0.
          5    1    4    4  502    0 -0.54953093225E+02  0.34814947051E+02  0.10940211364E+03  0.12736889519E+03  0.47000000000E+01 0. -1.
         -5    1    4    4    0  502 -0.29333487052E+01 -0.29813685834E+02 -0.20819209850E+02  0.36783010976E+02  0.47000000000E+01 0. -1.
          5    1    5    5  503    0  0.33227079875E+02 -0.11533080206E+02 -0.26242443892E+02  0.44133962404E+02  0.47000000000E+01 0.  1.
         -5    1    5    5    0  503  0.24659362055E+02  0.65318189893E+01  0.11737136344E+03  0.12020347646E+03  0.47000000000E+01 0.  1.
<mgrwt>
<rscale>  0 0.27497074E+03</rscale>
<asrwt>0</asrwt>
<pdfrwt beam="1">  1        2 0.11444425E-01 0.27497074E+03</pdfrwt>
<pdfrwt beam="2">  1       -2 0.39092397E-01 0.27497074E+03</pdfrwt>
<totfact> 0.33576711E+03</totfact>
</mgrwt>
</event>
<event>
 9    1  0.2054950E-002  0.2748938E+03  0.7818608E-02  0.1098511E+00
          1   -1    0    0  501    0  0.00000000000E+00  0.00000000000E+00  0.23058422345E+03  0.23058422345E+03  0.00000000000E+00 0. -1.
         -1   -1    0    0    0  501 -0.00000000000E+00 -0.00000000000E+00 -0.81929504125E+02  0.81929504125E+02  0.00000000000E+00 0. -1.
         36    2    1    2    0    0  0.00000000000E+00  0.71054273576E-14  0.14865471932E+03  0.31251372757E+03  0.27489380558E+03 0.  0.
         25    2    3    3    0    0 -0.36982636293E+02  0.18503353036E+02  0.46096607034E+02  0.13958082303E+03  0.12509124476E+03 0.  0.
         25    2    3    3    0    0  0.36982636293E+02 -0.18503353036E+02  0.10255811229E+03  0.17293290455E+03  0.13295688631E+03 0.  0.
          5    1    4    4  502    0 -0.32978313489E+02  0.58117375498E+02  0.66676696861E+02  0.94514921572E+02  0.47000000000E+01 0.  1.
         -5    1    4    4    0  502 -0.40043228042E+01 -0.39614022462E+02 -0.20580089827E+02  0.45065901456E+02  0.47000000000E+01 0.  1.
          5    1    5    5  503    0  0.34760565539E+02  0.50773247741E+02  0.77527070791E+02  0.99089637743E+02  0.47000000000E+01 0. -1.
         -5    1    5    5    0  503  0.22220707544E+01 -0.69276600776E+02  0.25031041500E+02  0.73843266803E+02  0.47000000000E+01 0. -1.
<mgrwt>
<rscale>  0 0.27489381E+03</rscale>
<asrwt>0</asrwt>
<pdfrwt beam="1">  1        1 0.35474496E-01 0.27489381E+03</pdfrwt>
<pdfrwt beam="2">  1       -1 0.12604539E-01 0.27489381E+03</pdfrwt>
<totfact> 0.51519030E+03</totfact>
</mgrwt>
</event>
<event>
 9    1  0.2054950E-002  0.2750312E+03  0.7818608E-02  0.1098434E+00
         -2   -1    0    0    0  501 -0.00000000000E+00  0.00000000000E+00  0.75675605924E+01  0.75675605924E+01  0.00000000000E+00 0. -1.
          2   -1    0    0  501    0  0.00000000000E+00 -0.00000000000E+00 -0.24988953394E+04  0.24988953394E+04  0.00000000000E+00 0. -1.
         36    2    1    2    0    0 -0.35527136788E-14  0.14210854715E-13 -0.24913277788E+04  0.25064629000E+04  0.27503121201E+03 0.  0.
         25    2    3    3    0    0  0.10568746649E+02 -0.54779049558E+02 -0.12707825685E+04  0.12779895308E+04  0.12351705052E+03 0.  0.
         25    2    3    3    0    0 -0.10568746649E+02  0.54779049558E+02 -0.12205452103E+04  0.12284733691E+04  0.12768620020E+03 0.  0.
          5    1    4    4  502    0 -0.20990405376E+02 -0.81246284398E+02 -0.10493092343E+04  0.10526697084E+04  0.47000000000E+01 0. -1.
         -5    1    4    4    0  502  0.31559152025E+02  0.26467234839E+02 -0.22147333426E+03  0.22531982244E+03  0.47000000000E+01 0. -1.
          5    1    5    5  503    0  0.55983360175E+02  0.44042803927E+02 -0.67220744569E+03  0.67598731144E+03  0.47000000000E+01 0. -1.
         -5    1    5    5    0  503 -0.66552106824E+02  0.10736245632E+02 -0.54833776458E+03  0.55248605771E+03  0.47000000000E+01 0. -1.
<mgrwt>
<rscale>  0 0.27503121E+03</rscale>
<asrwt>0</asrwt>
<pdfrwt beam="1">  1        2 0.38444619E+00 0.27503121E+03</pdfrwt>
<pdfrwt beam="2">  1       -2 0.11642378E-02 0.27503121E+03</pdfrwt>
<totfact> 0.68622962E+03</totfact>
</mgrwt>
</event>
<event>
 9    1  0.2054950E-002  0.2750002E+03  0.7818608E-02  0.1098452E+00
          2   -1    0    0  501    0  0.00000000000E+00  0.00000000000E+00  0.20165645672E+03  0.20165645672E+03  0.00000000000E+00 0.  1.
         -2   -1    0    0    0  501 -0.00000000000E+00 -0.00000000000E+00 -0.93754851718E+02  0.93754851718E+02  0.00000000000E+00 0.  1.
         36    2    1    2    0    0 -0.17763568394E-14  0.71054273576E-14  0.10790160501E+03  0.29541130844E+03  0.27500015417E+03 0.  0.
         25    2    3    3    0    0  0.43426404681E+01 -0.16856102248E+02  0.12112173621E+03  0.16608801044E+03  0.11230211716E+03 0.  0.
         25    2    3    3    0    0 -0.43426404681E+01  0.16856102248E+02 -0.13220131206E+02  0.12932329800E+03  0.12746276644E+03 0.  0.
          5    1    4    4  502    0  0.76395644289E+01  0.47193010496E+02  0.39597685762E+02  0.62254396648E+02  0.47000000000E+01 0.  1.
         -5    1    4    4    0  502 -0.32969239608E+01 -0.64049112744E+02  0.81524050450E+02  0.10383361379E+03  0.47000000000E+01 0.  1.
          5    1    5    5  503    0  0.12695816920E+02 -0.39788352249E+02  0.33543459178E+02  0.53773138235E+02  0.47000000000E+01 0. -1.
         -5    1    5    5    0  503 -0.17038457388E+02  0.56644454497E+02 -0.46763590384E+02  0.75550159768E+02  0.47000000000E+01 0. -1.
<mgrwt>
<rscale>  0 0.27500015E+03</rscale>
<asrwt>0</asrwt>
<pdfrwt beam="1">  1        2 0.31024070E-01 0.27500015E+03</pdfrwt>
<pdfrwt beam="2">  1       -2 0.14423823E-01 0.27500015E+03</pdfrwt>
<totfact> 0.61267540E+03</totfact>
</mgrwt>
</event>
<event>
 9    1  0.2054950E-002  0.2718661E+03  0.7818608E-02  0.1100216E+00
         -3   -1    0    0    0  501 -0.00000000000E+00  0.00000000000E+00  0.13723332091E+03  0.13723332091E+03  0.00000000000E+00 0.  1.
          3   -1    0    0  501    0  0.00000000000E+00 -0.00000000000E+00 -0.13464507555E+03  0.13464507555E+03  0.00000000000E+00 0.  1.
         36    2    1    2    0    0 -0.71054273576E-14  0.00000000000E+00  0.25882453548E+01  0.27187839646E+03  0.27186607631E+03 0.  0.
         25    2    3    3    0    0  0.48285414018E+02 -0.20203017709E+02  0.12841173997E+02  0.13939548139E+03  0.12855567413E+03 0.  0.
         25    2    3    3    0    0 -0.48285414018E+02  0.20203017709E+02 -0.10252928642E+02  0.13248291507E+03  0.12127224377E+03 0.  0.
          5    1    4    4  502    0  0.29704635506E+02 -0.72515122061E+02  0.24966773583E+02  0.82378626361E+02  0.47000000000E+01 0.  1.
         -5    1    4    4    0  502  0.18580778513E+02  0.52312104352E+02 -0.12125599586E+02  0.57016855027E+02  0.47000000000E+01 0.  1.
          5    1    5    5  503    0  0.12442281747E+02  0.30123960190E+02  0.40771607953E+02  0.52408752778E+02  0.47000000000E+01 0. -1.
         -5    1    5    5    0  503 -0.60727695765E+02 -0.99209424812E+01 -0.51024536595E+02  0.80074162296E+02  0.47000000000E+01 0. -1.
<mgrwt>
<rscale>  0 0.27186608E+03</rscale>
<asrwt>0</asrwt>
<pdfrwt beam="1">  1        3 0.20714627E-01 0.27186608E+03</pdfrwt>
<pdfrwt beam="2">  1       -3 0.21112819E-01 0.27186608E+03</pdfrwt>
<totfact> 0.10914146E+03</totfact>
</mgrwt>
</event>
<event>
 9    1  0.2054950E-002  0.2744567E+03  0.7818608E-02  0.1098756E+00
          1   -1    0    0  501    0  0.00000000000E+00  0.00000000000E+00  0.22855858099E+04  0.22855858099E+04  0.00000000000E+00 0.  1.
         -1   -1    0    0    0  501 -0.00000000000E+00 -0.00000000000E+00 -0.82392975834E+01  0.82392975834E+01  0.00000000000E+00 0.  1.
         36    2    1    2    0    0 -0.71054273576E-14  0.00000000000E+00  0.22773465124E+04  0.22938251075E+04  0.27445671164E+03 0.  0.
         25    2    3    3    0    0  0.55614517004E+02  0.14971358005E+02  0.10831812423E+04  0.10918889071E+04  0.12499066268E+03 0.  0.
         25    2    3    3    0    0 -0.55614517004E+02 -0.14971358005E+02  0.11941652700E+04  0.12019362004E+04  0.12370457377E+03 0.  0.
          5    1    4    4  502    0  0.32503964409E+02  0.57736879498E+02  0.30369443740E+03  0.31087369825E+03  0.47000000000E+01 0.  1.
         -5    1    4    4    0  502  0.23110552595E+02 -0.42765521493E+02  0.77948680491E+03  0.78101520888E+03  0.47000000000E+01 0.  1.
          5    1    5    5  503    0 -0.36961622670E+02 -0.67720519879E+02  0.81166612485E+03  0.81533810078E+03  0.47000000000E+01 0.  1.
         -5    1    5    5    0  503 -0.18652894333E+02  0.52749161874E+02  0.38249914520E+03  0.38659809961E+03  0.47000000000E+01 0.  1.
<mgrwt>
<rscale>  0 0.27445671E+03</rscale>
<asrwt>0</asrwt>
<pdfrwt beam="1">  1        1 0.35162808E+00 0.27445671E+03</pdfrwt>
<pdfrwt beam="2">  1       -1 0.12675861E-02 0.27445671E+03</pdfrwt>
<totfact> 0.29297793E+03</totfact>
</mgrwt>
</event>
<event>
 9    1  0.2054950E-002  0.2747338E+03  0.7818608E-02  0.1098600E+00
         -3   -1    0    0    0  501 -0.00000000000E+00  0.00000000000E+00  0.34840964491E+03  0.34840964491E+03  0.00000000000E+00 0.  1.
          3   -1    0    0  501    0  0.00000000000E+00 -0.00000000000E+00 -0.54159425869E+02  0.54159425869E+02  0.00000000000E+00 0.  1.
         36    2    1    2    0    0  0.00000000000E+00  0.00000000000E+00  0.29425021904E+03  0.40256907077E+03  0.27473380815E+03 0.  0.
         25    2    3    3    0    0 -0.17442509333E+02 -0.55648625354E+01  0.56035052452E+02  0.13896723586E+03  0.12584417631E+03 0.  0.
         25    2    3    3    0    0  0.17442509333E+02  0.55648625354E+01  0.23821516658E+03  0.26360183492E+03  0.11137438195E+03 0.  0.
          5    1    4    4  502    0  0.49398314754E+02 -0.42337514256E+01  0.51735076197E+02  0.71810349260E+02  0.47000000000E+01 0.  1.
         -5    1    4    4    0  502 -0.66840824088E+02 -0.13311111098E+01  0.42999762553E+01  0.67156886596E+02  0.47000000000E+01 0.  1.
          5    1    5    5  503    0 -0.14906684726E+02 -0.27426878966E+02  0.13836799171E+02  0.34467230098E+02  0.47000000000E+01 0. -1.
         -5    1    5    5    0  503  0.32349194059E+02  0.32991741501E+02  0.22437836741E+03  0.22913460482E+03  0.47000000000E+01 0. -1.
<mgrwt>
<rscale>  0 0.27473381E+03</rscale>
<asrwt>0</asrwt>
<pdfrwt beam="1">  1        3 0.83322196E-02 0.27473381E+03</pdfrwt>
<pdfrwt beam="2">  1       -3 0.53601482E-01 0.27473381E+03</pdfrwt>
<totfact> 0.88019165E+02</totfact>
</mgrwt>
</event>
<event>
 9    1  0.2054950E-002  0.2765813E+03  0.7818608E-02  0.1097571E+00
          1   -1    0    0  501    0  0.00000000000E+00  0.00000000000E+00  0.31876024639E+02  0.31876024639E+02  0.00000000000E+00 0.  1.
         -1   -1    0    0    0  501 -0.00000000000E+00 -0.00000000000E+00 -0.59995903253E+03  0.59995903253E+03  0.00000000000E+00 0.  1.
         36    2    1    2    0    0 -0.35527136788E-14 -0.71054273576E-14 -0.56808300789E+03  0.63183505717E+03  0.27658133634E+03 0.  0.
         25    2    3    3    0    0  0.19912886914E+02 -0.34715690058E+02 -0.24957280215E+03  0.28218897822E+03  0.12546845681E+03 0.  0.
         25    2    3    3    0    0 -0.19912886914E+02  0.34715690058E+02 -0.31851020574E+03  0.34964607895E+03  0.13857101847E+03 0.  0.
          5    1    4    4  502    0 -0.35152134947E+02  0.10779876880E+02 -0.20855248428E+02  0.42531279358E+02  0.47000000000E+01 0.  1.
         -5    1    4    4    0  502  0.55065021861E+02 -0.45495566938E+02 -0.22871755372E+03  0.23965769886E+03  0.47000000000E+01 0.  1.
          5    1    5    5  503    0  0.62347382060E+01  0.71043674046E+02 -0.28421242057E+03  0.29306119768E+03  0.47000000000E+01 0. -1.
         -5    1    5    5    0  503 -0.26147625120E+02 -0.36327983988E+02 -0.34297785178E+02  0.56584881268E+02  0.47000000000E+01 0. -1.
<mgrwt>
<rscale>  0 0.27658134E+03</rscale>
<asrwt>0</asrwt>
<pdfrwt beam="1">  1        1 0.49040045E-02 0.27658134E+03</pdfrwt>
<pdfrwt beam="2">  1       -1 0.92301377E-01 0.27658134E+03</pdfrwt>
<totfact> 0.20547078E+03</totfact>
</mgrwt>
</event>
<event>
 9    1  0.2054950E-002  0.2749848E+03  0.7818608E-02  0.1098460E+00
         -4   -1    0    0    0  501 -0.00000000000E+00  0.00000000000E+00  0.13477765368E+03  0.13477765368E+03  0.00000000000E+00 0.  1.
          4   -1    0    0  501    0  0.00000000000E+00 -0.00000000000E+00 -0.14026178393E+03  0.14026178393E+03  0.00000000000E+00 0.  1.
         36    2    1    2    0    0  0.71054273576E-14 -0.35527136788E-14 -0.54841302510E+01  0.27503943761E+03  0.27498475695E+03 0.  0.
         25    2    3    3    0    0 -0.55520077603E+02  0.17493350018E+02 -0.22919623843E+02  0.13666134286E+03  0.12150109943E+03 0.  0.
         25    2    3    3    0    0  0.55520077603E+02 -0.17493350018E+02  0.17435493592E+02  0.13837809475E+03  0.12432217967E+03 0.  0.
          5    1    4    4  502    0 -0.72227485418E+02 -0.11836964885E+02  0.25326943426E+02  0.77591671272E+02  0.47000000000E+01 0.  1.
         -5    1    4    4    0  502  0.16707407815E+02  0.29330314904E+02 -0.48246567269E+02  0.59069671588E+02  0.47000000000E+01 0.  1.
          5    1    5    5  503    0  0.61301493421E+02 -0.58865839588E+02 -0.13502450559E+02  0.86182749650E+02  0.47000000000E+01 0. -1.
         -5    1    5    5    0  503 -0.57814158187E+01  0.41372489570E+02  0.30937944151E+02  0.52195345102E+02  0.47000000000E+01 0. -1.
<mgrwt>
<rscale>  0 0.27498476E+03</rscale>
<asrwt>0</asrwt>
<pdfrwt beam="1">  1        4 0.21578736E-01 0.27498476E+03</pdfrwt>
<pdfrwt beam="2">  1       -4 0.20735024E-01 0.27498476E+03</pdfrwt>
<totfact> 0.77872016E+02</totfact>
</mgrwt>
</event>
<event>
 9    1  0.2054950E-002  0.2764753E+03  0.7818608E-02  0.1097630E+00
          1   -1    0    0  501    0  0.00000000000E+00  0.00000000000E+00  0.13362430300E+03  0.13362430300E+03  0.00000000000E+00 0.  1.
         -1   -1    0    0    0  501 -0.00000000000E+00 -0.00000000000E+00 -0.14301025972E+03  0.14301025972E+03  0.00000000000E+00 0.  1.
         36    2    1    2    0    0  0.71054273576E-14  0.00000000000E+00 -0.93859567210E+01  0.27663456272E+03  0.27647528842E+03 0.  0.
         25    2    3    3    0    0  0.20486392561E+02  0.53255187770E+02  0.39625704663E+02  0.13699456825E+03  0.11807416294E+03 0.  0.
         25    2    3    3    0    0 -0.20486392561E+02 -0.53255187770E+02 -0.49011661384E+02  0.13963999447E+03  0.11764938504E+03 0.  0.
          5    1    4    4  502    0 -0.46396227091E+02  0.42523161891E+02  0.16076493677E+02  0.65125823100E+02  0.47000000000E+01 0. -1.
         -5    1    4    4    0  502  0.66882619653E+02  0.10732025879E+02  0.23549210986E+02  0.71868745148E+02  0.47000000000E+01 0. -1.
          5    1    5    5  503    0  0.10654335120E+02  0.10518043330E+02 -0.64892646474E+02  0.66762936265E+02  0.47000000000E+01 0. -1.
         -5    1    5    5    0  503 -0.31140727681E+02 -0.63773231100E+02  0.15880985090E+02  0.72877058207E+02  0.47000000000E+01 0. -1.
<mgrwt>
<rscale>  0 0.27647529E+03</rscale>
<asrwt>0</asrwt>
<pdfrwt beam="1">  1        1 0.20557585E-01 0.27647529E+03</pdfrwt>
<pdfrwt beam="2">  1       -1 0.22001578E-01 0.27647529E+03</pdfrwt>
<totfact> 0.42202437E+03</totfact>
</mgrwt>
</event>
<event>
 9    1  0.2054950E-002  0.2746141E+03  0.7818608E-02  0.1098668E+00
         -1   -1    0    0    0  501 -0.00000000000E+00  0.00000000000E+00  0.44048224876E+03  0.44048224876E+03  0.00000000000E+00 0. -1.
          1   -1    0    0  501    0  0.00000000000E+00 -0.00000000000E+00 -0.42801326701E+02  0.42801326701E+02  0.00000000000E+00 0. -1.
         36    2    1    2    0    0  0.00000000000E+00  0.35527136788E-14  0.39768092206E+03  0.48328357546E+03  0.27461409021E+03 0.  0.
         25    2    3    3    0    0 -0.44464354503E+02  0.20905344217E+02  0.25884385041E+03  0.29208261797E+03  0.12608728955E+03 0.  0.
         25    2    3    3    0    0  0.44464354503E+02 -0.20905344217E+02  0.13883707165E+03  0.19120095750E+03  0.12193425050E+03 0.  0.
          5    1    4    4  502    0 -0.39678113173E+02 -0.53638745421E+01  0.96954899368E+01  0.41463433772E+02  0.47000000000E+01 0.  1.
         -5    1    4    4    0  502 -0.47862413301E+01  0.26269218759E+02  0.24914836047E+03  0.25061918419E+03  0.47000000000E+01 0.  1.
          5    1    5    5  503    0  0.32129858284E+02  0.12102248381E+02  0.14999182645E+03  0.15394294466E+03  0.47000000000E+01 0.  1.
         -5    1    5    5    0  503  0.12334496219E+02 -0.33007592598E+02 -0.11154754795E+02  0.37258012838E+02  0.47000000000E+01 0.  1.
<mgrwt>
<rscale>  0 0.27461409E+03</rscale>
<asrwt>0</asrwt>
<pdfrwt beam="1">  1        1 0.65848198E-02 0.27461409E+03</pdfrwt>
<pdfrwt beam="2">  1       -1 0.67766496E-01 0.27461409E+03</pdfrwt>
<totfact> 0.25929449E+03</totfact>
</mgrwt>
</event>
<event>
 9    1  0.2054950E-002  0.2766155E+03  0.7818608E-02  0.1097552E+00
         -2   -1    0    0    0  501 -0.00000000000E+00  0.00000000000E+00  0.64467596857E+02  0.64467596857E+02  0.00000000000E+00 0.  1.
          2   -1    0    0  501    0  0.00000000000E+00 -0.00000000000E+00 -0.29672312499E+03  0.29672312499E+03  0.00000000000E+00 0.  1.
         36    2    1    2    0    0  0.00000000000E+00  0.35527136788E-14 -0.23225552813E+03  0.36119072184E+03  0.27661545004E+03 0.  0.
         25    2    3    3    0    0 -0.43001109629E+02 -0.30693823718E+02 -0.16546489687E+03  0.21473636309E+03  0.12626110759E+03 0.  0.
         25    2    3    3    0    0  0.43001109629E+02  0.30693823718E+02 -0.66790631259E+02  0.14645435876E+03  0.11914984067E+03 0.  0.
          5    1    4    4  502    0  0.69525716624E+01 -0.33462358197E+02  0.69120762210E+01  0.35184292894E+02  0.47000000000E+01 0. -1.
         -5    1    4    4    0  502 -0.49953681291E+02  0.27685344787E+01 -0.17237697309E+03  0.17955207019E+03  0.47000000000E+01 0. -1.
          5    1    5    5  503    0  0.15056037699E+02  0.67822089619E+02 -0.61379846975E+01  0.69901966837E+02  0.47000000000E+01 0. -1.
         -5    1    5    5    0  503  0.27945071930E+02 -0.37128265901E+02 -0.60652646562E+02  0.76552391921E+02  0.47000000000E+01 0. -1.
<mgrwt>
<rscale>  0 0.27661545E+03</rscale>
<asrwt>0</asrwt>
<pdfrwt beam="1">  1        2 0.45649711E-01 0.27661545E+03</pdfrwt>
<pdfrwt beam="2">  1       -2 0.99180919E-02 0.27661545E+03</pdfrwt>
<totfact> 0.73868654E+03</totfact>
</mgrwt>
</event>
<event>
 9    1  0.2054950E-002  0.2734596E+03  0.7818608E-02  0.1099316E+00
          3   -1    0    0  501    0  0.00000000000E+00  0.00000000000E+00  0.69004091650E+02  0.69004091650E+02  0.00000000000E+00 0. -1.
         -3   -1    0    0    0  501 -0.00000000000E+00 -0.00000000000E+00 -0.27092660697E+03  0.27092660697E+03  0.00000000000E+00 0. -1.
         36    2    1    2    0    0  0.17763568394E-14  0.00000000000E+00 -0.20192251532E+03  0.33993069862E+03  0.27345964541E+03 0.  0.
         25    2    3    3    0    0  0.35109691384E+01  0.22047713884E+02 -0.15499102213E+03  0.20590009706E+03  0.13369444429E+03 0.  0.
         25    2    3    3    0    0 -0.35109691384E+01 -0.22047713884E+02 -0.46931493186E+02  0.13403060156E+03  0.12354435847E+03 0.  0.
          5    1    4    4  502    0  0.23491465076E+02  0.74705275556E+02 -0.99342924490E+02  0.12658528261E+03  0.47000000000E+01 0. -1.
         -5    1    4    4    0  502 -0.19980495938E+02 -0.52657561672E+02 -0.55648097644E+02  0.79314814446E+02  0.47000000000E+01 0. -1.
          5    1    5    5  503    0  0.82757856960E+01  0.42587152728E+02  0.12415781087E+02  0.45369547345E+02  0.47000000000E+01 0.  1.
         -5    1    5    5    0  503 -0.11786754834E+02 -0.64634866612E+02 -0.59347274272E+02  0.88661054218E+02  0.47000000000E+01 0.  1.
<mgrwt>
<rscale>  0 0.27345965E+03</rscale>
<asrwt>0</asrwt>
<pdfrwt beam="1">  1        3 0.10616014E-01 0.27345965E+03</pdfrwt>
<pdfrwt beam="2">  1       -3 0.41681016E-01 0.27345965E+03</pdfrwt>
<totfact> 0.97247470E+02</totfact>
</mgrwt>
</event>
<event>
 9    1  0.2054950E-002  0.2757693E+03  0.7818608E-02  0.1098022E+00
         -1   -1    0    0    0  501 -0.00000000000E+00  0.00000000000E+00  0.96008690685E+02  0.96008690685E+02  0.00000000000E+00 0. -1.
          1   -1    0    0  501    0  0.00000000000E+00 -0.00000000000E+00 -0.19802555915E+03  0.19802555915E+03  0.00000000000E+00 0. -1.
         36    2    1    2    0    0 -0.10658141036E-13  0.00000000000E+00 -0.10201686846E+03  0.29403424983E+03  0.27576928513E+03 0.  0.
         25    2    3    3    0    0  0.28574086392E+02 -0.86546203383E+01 -0.10096850409E+03  0.16429746748E+03  0.12612548567E+03 0.  0.
         25    2    3    3    0    0 -0.28574086392E+02  0.86546203383E+01 -0.10483643728E+01  0.12973678235E+03  0.12625035747E+03 0.  0.
          5    1    4    4  502    0  0.50408423472E+02  0.30918188733E+02 -0.10294532331E+03  0.11881402755E+03  0.47000000000E+01 0.  1.
         -5    1    4    4    0  502 -0.21834337080E+02 -0.39572809072E+02  0.19768192213E+01  0.45483439929E+02  0.47000000000E+01 0.  1.
          5    1    5    5  503    0  0.15650916059E+02  0.33174421733E+02  0.47013159494E+02  0.59814886077E+02  0.47000000000E+01 0.  1.
         -5    1    5    5    0  503 -0.44225002452E+02 -0.24519801394E+02 -0.48061523867E+02  0.69921896275E+02  0.47000000000E+01 0.  1.
<mgrwt>
<rscale>  0 0.27576929E+03</rscale>
<asrwt>0</asrwt>
<pdfrwt beam="1">  1        1 0.30465471E-01 0.27576929E+03</pdfrwt>
<pdfrwt beam="2">  1       -1 0.14770568E-01 0.27576929E+03</pdfrwt>
<totfact> 0.48604141E+03</totfact>
</mgrwt>
</event>
<event>
 9    1  0.2054950E-002  0.2722271E+03  0.7818608E-02  0.1100012E+00
         -2   -1    0    0    0  501 -0.00000000000E+00  0.00000000000E+00  0.25458869899E+02  0.25458869899E+02  0.00000000000E+00 0. -1.
          2   -1    0    0  501    0  0.00000000000E+00 -0.00000000000E+00 -0.72771855111E+03  0.72771855111E+03  0.00000000000E+00 0. -1.
         36    2    1    2    0    0  0.35527136788E-14 -0.71054273576E-14 -0.70225968121E+03  0.75317742101E+03  0.27222705167E+03 0.  0.
         25    2    3    3    0    0  0.24901559036E+02 -0.42036672546E+02 -0.38467446761E+03  0.40755090382E+03  0.12544370728E+03 0.  0.
         25    2    3    3    0    0 -0.24901559036E+02  0.42036672546E+02 -0.31758521360E+03  0.34562651719E+03  0.12731909520E+03 0.  0.
          5    1    4    4  502    0 -0.70818991958E+01 -0.76559453198E+02 -0.15533605264E+03  0.17338651165E+03  0.47000000000E+01 0. -1.
         -5    1    4    4    0  502  0.31983458232E+02  0.34522780652E+02 -0.22933841496E+03  0.23416439217E+03  0.47000000000E+01 0. -1.
          5    1    5    5  503    0 -0.27992036828E+02  0.34720246323E+02 -0.32837793687E+03  0.33142602350E+03  0.47000000000E+01 0. -1.
         -5    1    5    5    0  503  0.30904777921E+01  0.73164262224E+01  0.10792723262E+02  0.14200493691E+02  0.47000000000E+01 0. -1.
<mgrwt>
<rscale>  0 0.27222705E+03</rscale>
<asrwt>0</asrwt>
<pdfrwt beam="1">  1        2 0.11195670E+00 0.27222705E+03</pdfrwt>
<pdfrwt beam="2">  1       -2 0.39167492E-02 0.27222705E+03</pdfrwt>
<totfact> 0.11293580E+04</totfact>
</mgrwt>
</event>
<event>
 9    1  0.2054950E-002  0.2745998E+03  0.7818608E-02  0.1098676E+00
         -1   -1    0    0    0  501 -0.00000000000E+00  0.00000000000E+00  0.81883863649E+02  0.81883863649E+02  0.00000000000E+00 0.  1.
          1   -1    0    0  501    0  0.00000000000E+00 -0.00000000000E+00 -0.23021946312E+03  0.23021946312E+03  0.00000000000E+00 0.  1.
         36    2    1    2    0    0 -0.71054273576E-14 -0.17763568394E-14 -0.14833559947E+03  0.31210332677E+03  0.27459977515E+03 0.  0.
         25    2    3    3    0    0 -0.58387253134E+02  0.89124556627E+01 -0.86043150879E+02  0.16249718114E+03  0.12455282763E+03 0.  0.
         25    2    3    3    0    0  0.58387253134E+02 -0.89124556627E+01 -0.62292448593E+02  0.14960614563E+03  0.12252814560E+03 0.  0.
          5    1    4    4  502    0  0.34594558506E+02  0.45325446356E+01  0.64487088580E+00  0.35211266628E+02  0.47000000000E+01 0. -1.
         -5    1    4    4    0  502 -0.92981811639E+02  0.43799110270E+01 -0.86688021764E+02  0.12728591451E+03  0.47000000000E+01 0. -1.
          5    1    5    5  503    0  0.54856470393E+02 -0.17349629326E+02  0.24135364395E+02  0.62568744564E+02  0.47000000000E+01 0. -1.
         -5    1    5    5    0  503  0.35307827404E+01  0.84371736635E+01 -0.86427812988E+02  0.87037401065E+02  0.47000000000E+01 0. -1.
<mgrwt>
<rscale>  0 0.27459978E+03</rscale>
<asrwt>0</asrwt>
<pdfrwt beam="1">  1        1 0.35418378E-01 0.27459978E+03</pdfrwt>
<pdfrwt beam="2">  1       -1 0.12597518E-01 0.27459978E+03</pdfrwt>
<totfact> 0.51664909E+03</totfact>
</mgrwt>
</event>
<event>
 9    1  0.2054950E-002  0.2754848E+03  0.7818608E-02  0.1098181E+00
         -1   -1    0    0    0  501 -0.00000000000E+00  0.00000000000E+00  0.27377508244E+02  0.27377508244E+02  0.00000000000E+00 0. -1.
          1   -1    0    0  501    0  0.00000000000E+00 -0.00000000000E+00 -0.69301286968E+03  0.69301286968E+03  0.00000000000E+00 0. -1.
         36    2    1    2    0    0  0.00000000000E+00 -0.71054273576E-14 -0.66563536143E+03  0.72039037792E+03  0.27548477673E+03 0.  0.
         25    2    3    3    0    0  0.41957555342E+02  0.39649764762E+02 -0.27462322707E+03  0.30664433489E+03  0.12361347409E+03 0.  0.
         25    2    3    3    0    0 -0.41957555342E+02 -0.39649764762E+02 -0.39101213436E+03  0.41374604303E+03  0.12232235532E+03 0.  0.
          5    1    4    4  502    0 -0.19254719683E+02 -0.33793189716E+02 -0.10186952945E+03  0.10914309383E+03  0.47000000000E+01 0. -1.
         -5    1    4    4    0  502  0.61212275026E+02  0.73442954477E+02 -0.17275369762E+03  0.19750124106E+03  0.47000000000E+01 0. -1.
          5    1    5    5  503    0 -0.77309053960E+02 -0.18480298468E+02 -0.33329160225E+03  0.34267126140E+03  0.47000000000E+01 0.  1.
         -5    1    5    5    0  503  0.35351498617E+02 -0.21169466293E+02 -0.57720532108E+02  0.71074781635E+02  0.47000000000E+01 0.  1.
<mgrwt>
<rscale>  0 0.27548478E+03</rscale>
<asrwt>0</asrwt>
<pdfrwt beam="1">  1        1 0.10661737E+00 0.27548478E+03</pdfrwt>
<pdfrwt beam="2">  1       -1 0.42119243E-02 0.27548478E+03</pdfrwt>
<totfact> 0.64952674E+03</totfact>
</mgrwt>
</event>
<event>
 9    1  0.2054950E-002  0.2755545E+03  0.7818608E-02  0.1098142E+00
         -2   -1    0    0    0  501 -0.00000000000E+00  0.00000000000E+00  0.14730268505E+02  0.14730268505E+02  0.00000000000E+00 0.  1.
          2   -1    0    0  501    0  0.00000000000E+00 -0.00000000000E+00 -0.12886780331E+04  0.12886780331E+04  0.00000000000E+00 0.  1.
         36    2    1    2    0    0 -0.71054273576E-14 -0.35527136788E-14 -0.12739477646E+04  0.13034083016E+04  0.27555452051E+03 0.  0.
         25    2    3    3    0    0 -0.20990741321E+02  0.12602436422E+01 -0.40003407258E+03  0.41972380335E+03  0.12529410376E+03 0.  0.
         25    2    3    3    0    0  0.20990741321E+02 -0.12602436422E+01 -0.87391369205E+03  0.88368449829E+03  0.12934818101E+03 0.  0.
          5    1    4    4  502    0  0.10663690122E+02  0.59476827205E+02 -0.18874917632E+03  0.19824113807E+03  0.47000000000E+01 0. -1.
         -5    1    4    4    0  502 -0.31654431443E+02 -0.58216583563E+02 -0.21128489625E+03  0.22148266527E+03  0.47000000000E+01 0. -1.
          5    1    5    5  503    0  0.23577909146E+02 -0.20679853653E+02 -0.85640683232E+03  0.85699377279E+03  0.47000000000E+01 0. -1.
         -5    1    5    5    0  503 -0.25871678255E+01  0.19419610011E+02 -0.17506859724E+02  0.26690725500E+02  0.47000000000E+01 0. -1.
<mgrwt>
<rscale>  0 0.27555452E+03</rscale>
<asrwt>0</asrwt>
<pdfrwt beam="1">  1        2 0.19825818E+00 0.27555452E+03</pdfrwt>
<pdfrwt beam="2">  1       -2 0.22661949E-02 0.27555452E+03</pdfrwt>
<totfact> 0.11434801E+04</totfact>
</mgrwt>
</event>
<event>
 9    1  0.2054950E-002  0.2750160E+03  0.7818608E-02  0.1098443E+00
          1   -1    0    0  501    0  0.00000000000E+00  0.00000000000E+00  0.21076577879E+03  0.21076577879E+03  0.00000000000E+00 0.  1.
         -1   -1    0    0    0  501 -0.00000000000E+00 -0.00000000000E+00 -0.89713073235E+02  0.89713073235E+02  0.00000000000E+00 0.  1.
         36    2    1    2    0    0 -0.14210854715E-13  0.00000000000E+00  0.12105270555E+03  0.30047885202E+03  0.27501596861E+03 0.  0.
         25    2    3    3    0    0  0.27690100776E+02  0.38493712466E+02  0.59167204450E+02  0.14896889599E+03  0.12822818064E+03 0.  0.
         25    2    3    3    0    0 -0.27690100776E+02 -0.38493712466E+02  0.61885501100E+02  0.15150995603E+03  0.12991129262E+03 0.  0.
          5    1    4    4  502    0  0.56128281954E+02  0.16544420453E+02 -0.19908865469E+02  0.61988344126E+02  0.47000000000E+01 0.  1.
         -5    1    4    4    0  502 -0.28438181179E+02  0.21949292014E+02  0.79076069919E+02  0.86980551863E+02  0.47000000000E+01 0.  1.
          5    1    5    5  503    0  0.52027445976E+02 -0.20583763014E+02  0.20252426876E+02  0.59689171790E+02  0.47000000000E+01 0.  1.
         -5    1    5    5    0  503 -0.79717546751E+02 -0.17909949452E+02  0.41633074224E+02  0.91820784242E+02  0.47000000000E+01 0.  1.
<mgrwt>
<rscale>  0 0.27501597E+03</rscale>
<asrwt>0</asrwt>
<pdfrwt beam="1">  1        1 0.32425504E-01 0.27501597E+03</pdfrwt>
<pdfrwt beam="2">  1       -1 0.13802011E-01 0.27501597E+03</pdfrwt>
<totfact> 0.50013434E+03</totfact>
</mgrwt>
</event>
<event>
 9    1  0.2054950E-002  0.2753650E+03  0.7818608E-02  0.1098248E+00
          2   -1    0    0  501    0  0.00000000000E+00  0.00000000000E+00  0.95411036101E+02  0.95411036101E+02  0.00000000000E+00 0.  1.
         -2   -1    0    0    0  501 -0.00000000000E+00 -0.00000000000E+00 -0.19868214796E+03  0.19868214796E+03  0.00000000000E+00 0.  1.
         36    2    1    2    0    0 -0.71054273576E-14  0.00000000000E+00 -0.10327111186E+03  0.29409318406E+03  0.27536499118E+03 0.  0.
         25    2    3    3    0    0  0.33187558435E+02  0.71469846620E+01 -0.99942952314E+02  0.16304163814E+03  0.12426378646E+03 0.  0.
         25    2    3    3    0    0 -0.33187558435E+02 -0.71469846620E+01 -0.33281595433E+01  0.13105154592E+03  0.12653433375E+03 0.  0.
          5    1    4    4  502    0 -0.54390139613E+01  0.60843653443E+02 -0.59297326345E+02  0.85263098401E+02  0.47000000000E+01 0. -1.
         -5    1    4    4    0  502  0.38626572396E+02 -0.53696668781E+02 -0.40645625969E+02  0.77778539737E+02  0.47000000000E+01 0. -1.
          5    1    5    5  503    0 -0.48297070667E+02 -0.59231953126E+02 -0.15316049955E+01  0.76586337686E+02  0.47000000000E+01 0.  1.
         -5    1    5    5    0  503  0.15109512233E+02  0.52084968464E+02 -0.17965545478E+01  0.54465208235E+02  0.47000000000E+01 0.  1.
<mgrwt>
<rscale>  0 0.27536499E+03</rscale>
<asrwt>0</asrwt>
<pdfrwt beam="1">  1        2 0.14678621E-01 0.27536499E+03</pdfrwt>
<pdfrwt beam="2">  1       -2 0.30566484E-01 0.27536499E+03</pdfrwt>
<totfact> 0.39307948E+03</totfact>
</mgrwt>
</event>
<event>
 9    1  0.2054950E-002  0.2751419E+03  0.7818608E-02  0.1098372E+00
         -2   -1    0    0    0  501 -0.00000000000E+00  0.00000000000E+00  0.53975556888E+02  0.53975556888E+02  0.00000000000E+00 0. -1.
          2   -1    0    0  501    0  0.00000000000E+00 -0.00000000000E+00 -0.35063581531E+03  0.35063581531E+03  0.00000000000E+00 0. -1.
         36    2    1    2    0    0 -0.35527136788E-14  0.00000000000E+00 -0.29666025842E+03  0.40461137219E+03  0.27514187901E+03 0.  0.
         25    2    3    3    0    0 -0.18629241607E+02 -0.52550856777E+02 -0.15530799584E+03  0.20990910215E+03  0.12974057346E+03 0.  0.
         25    2    3    3    0    0  0.18629241607E+02  0.52550856777E+02 -0.14135226258E+03  0.19470227004E+03  0.12173689101E+03 0.  0.
          5    1    4    4  502    0  0.27281509375E+01  0.21030460863E+02 -0.12581466081E+03  0.12767592555E+03  0.47000000000E+01 0. -1.
         -5    1    4    4    0  502 -0.21357392545E+02 -0.73581317640E+02 -0.29493335037E+02  0.82233176599E+02  0.47000000000E+01 0. -1.
          5    1    5    5  503    0 -0.34020006657E+02  0.45992617211E+02 -0.17701836856E+02  0.60067684481E+02  0.47000000000E+01 0.  1.
         -5    1    5    5    0  503  0.52649248264E+02  0.65582395663E+01 -0.12365042572E+03  0.13463458556E+03  0.47000000000E+01 0.  1.
<mgrwt>
<rscale>  0 0.27514188E+03</rscale>
<asrwt>0</asrwt>
<pdfrwt beam="1">  1        2 0.53943970E-01 0.27514188E+03</pdfrwt>
<pdfrwt beam="2">  1       -2 0.83039321E-02 0.27514188E+03</pdfrwt>
<totfact> 0.81653073E+03</totfact>
</mgrwt>
</event>
<event>
 9    1  0.2054950E-002  0.2752780E+03  0.7818608E-02  0.1098296E+00
         -2   -1    0    0    0  501 -0.00000000000E+00  0.00000000000E+00  0.38972214325E+02  0.38972214325E+02  0.00000000000E+00 0. -1.
          2   -1    0    0  501    0  0.00000000000E+00 -0.00000000000E+00 -0.48610262606E+03  0.48610262606E+03  0.00000000000E+00 0. -1.
         36    2    1    2    0    0  0.00000000000E+00 -0.71054273576E-14 -0.44713041173E+03  0.52507484038E+03  0.27527801021E+03 0.  0.
         25    2    3    3    0    0 -0.31967612545E+02  0.12469478958E+01 -0.12778173125E+03  0.18042836417E+03  0.12329939427E+03 0.  0.
         25    2    3    3    0    0  0.31967612545E+02 -0.12469478958E+01 -0.31934868048E+03  0.34464647621E+03  0.12559510622E+03 0.  0.
          5    1    4    4  502    0 -0.47953303842E+02  0.49671351398E+02 -0.43283592885E+02  0.81623047677E+02  0.47000000000E+01 0. -1.
         -5    1    4    4    0  502  0.15985691297E+02 -0.48424403502E+02 -0.84498138366E+02  0.98805316498E+02  0.47000000000E+01 0. -1.
          5    1    5    5  503    0 -0.27315891243E+02  0.43411907580E+02 -0.17270971846E+03  0.18022621476E+03  0.47000000000E+01 0.  1.
         -5    1    5    5    0  503  0.59283503787E+02 -0.44658855476E+02 -0.14663896202E+03  0.16442026145E+03  0.47000000000E+01 0.  1.
<mgrwt>
<rscale>  0 0.27527801E+03</rscale>
<asrwt>0</asrwt>
<pdfrwt beam="1">  1        2 0.74785020E-01 0.27527801E+03</pdfrwt>
<pdfrwt beam="2">  1       -2 0.59957252E-02 0.27527801E+03</pdfrwt>
<totfact> 0.94666258E+03</totfact>
</mgrwt>
</event>
<event>
 9    1  0.2054950E-002  0.2763633E+03  0.7818608E-02  0.1097692E+00
          1   -1    0    0  501    0  0.00000000000E+00  0.00000000000E+00  0.21429139953E+03  0.21429139953E+03  0.00000000000E+00 0.  1.
         -1   -1    0    0    0  501 -0.00000000000E+00 -0.00000000000E+00 -0.89103755918E+02  0.89103755918E+02  0.00000000000E+00 0.  1.
         36    2    1    2    0    0 -0.71054273576E-14 -0.35527136788E-14  0.12518764361E+03  0.30339515545E+03  0.27636330117E+03 0.  0.
         25    2    3    3    0    0 -0.82977875924E+00 -0.24955431314E+01  0.43826181574E+00  0.12748664056E+03  0.12745875874E+03 0.  0.
         25    2    3    3    0    0  0.82977875924E+00  0.24955431314E+01  0.12474938180E+03  0.17590851488E+03  0.12399387518E+03 0.  0.
          5    1    4    4  502    0 -0.50143594776E+02 -0.40687952307E+02  0.36974533198E+01  0.64850988590E+02  0.47000000000E+01 0.  1.
         -5    1    4    4    0  502  0.49313816017E+02  0.38192409175E+02 -0.32591915040E+01  0.62635651973E+02  0.47000000000E+01 0.  1.
          5    1    5    5  503    0 -0.43291570411E+02  0.27033598498E+02  0.11267744033E+03  0.12378720077E+03  0.47000000000E+01 0.  1.
         -5    1    5    5    0  503  0.44121349170E+02 -0.24538055366E+02  0.12071941467E+02  0.52121314110E+02  0.47000000000E+01 0.  1.
<mgrwt>
<rscale>  0 0.27636330E+03</rscale>
<asrwt>0</asrwt>
<pdfrwt beam="1">  1        1 0.32967908E-01 0.27636330E+03</pdfrwt>
<pdfrwt beam="2">  1       -1 0.13708270E-01 0.27636330E+03</pdfrwt>
<totfact> 0.49516986E+03</totfact>
</mgrwt>
</event>
<event>
 9    1  0.2054950E-002  0.2784216E+03  0.7818608E-02  0.1096554E+00
         -2   -1    0    0    0  501 -0.00000000000E+00  0.00000000000E+00  0.87954426859E+01  0.87954426859E+01  0.00000000000E+00 0. -1.
          2   -1    0    0  501    0  0.00000000000E+00 -0.00000000000E+00 -0.22033741273E+04  0.22033741273E+04  0.00000000000E+00 0. -1.
         36    2    1    2    0    0 -0.71054273576E-14  0.00000000000E+00 -0.21945786846E+04  0.22121695700E+04  0.27842162884E+03 0.  0.
         25    2    3    3    0    0  0.26103709961E+02  0.40292741368E+02 -0.90084130569E+03  0.91146066227E+03  0.13015595318E+03 0.  0.
         25    2    3    3    0    0 -0.26103709961E+02 -0.40292741368E+02 -0.12937373789E+04  0.13007089077E+04  0.12562781660E+03 0.  0.
          5    1    4    4  502    0  0.31526104933E+02  0.49134640985E+00 -0.47762450757E+02  0.57423674698E+02  0.47000000000E+01 0.  1.
         -5    1    4    4    0  502 -0.54223949719E+01  0.39801394958E+02 -0.85307885493E+03  0.85403698757E+03  0.47000000000E+01 0.  1.
          5    1    5    5  503    0 -0.74618155875E+02 -0.20360776560E+02 -0.60136369611E+03  0.60633556337E+03  0.47000000000E+01 0. -1.
         -5    1    5    5    0  503  0.48514445914E+02 -0.19931964808E+02 -0.69237368280E+03  0.69437334433E+03  0.47000000000E+01 0. -1.
<mgrwt>
<rscale>  0 0.27842163E+03</rscale>
<asrwt>0</asrwt>
<pdfrwt beam="1">  1        2 0.33898064E+00 0.27842163E+03</pdfrwt>
<pdfrwt beam="2">  1       -2 0.13531450E-02 0.27842163E+03</pdfrwt>
<totfact> 0.79554124E+03</totfact>
</mgrwt>
</event>
<event>
 9    1  0.2054950E-002  0.2750787E+03  0.7818608E-02  0.1098408E+00
          1   -1    0    0  501    0  0.00000000000E+00  0.00000000000E+00  0.12423328719E+03  0.12423328719E+03  0.00000000000E+00 0.  1.
         -1   -1    0    0    0  501 -0.00000000000E+00 -0.00000000000E+00 -0.15227058077E+03  0.15227058077E+03  0.00000000000E+00 0.  1.
         36    2    1    2    0    0  0.00000000000E+00  0.10658141036E-13 -0.28037293586E+02  0.27650386796E+03  0.27507871449E+03 0.  0.
         25    2    3    3    0    0  0.38885393813E+02 -0.30676618901E+02 -0.43659057113E+02  0.13924745139E+03  0.12259939091E+03 0.  0.
         25    2    3    3    0    0 -0.38885393813E+02  0.30676618901E+02  0.15621763527E+02  0.13725641657E+03  0.12705178312E+03 0.  0.
          5    1    4    4  502    0 -0.21288116537E+02  0.32453717513E+02 -0.33184720534E+02  0.51281023420E+02  0.47000000000E+01 0.  1.
         -5    1    4    4    0  502  0.60173510350E+02 -0.63130336414E+02 -0.10474336580E+02  0.87966427973E+02  0.47000000000E+01 0.  1.
          5    1    5    5  503    0 -0.65315295141E+02 -0.13677325658E+02  0.42099173928E+02  0.79041681801E+02  0.47000000000E+01 0.  1.
         -5    1    5    5    0  503  0.26429901328E+02  0.44353944559E+02 -0.26477410401E+02  0.58214734765E+02  0.47000000000E+01 0.  1.
<mgrwt>
<rscale>  0 0.27507871E+03</rscale>
<asrwt>0</asrwt>
<pdfrwt beam="1">  1        1 0.19112814E-01 0.27507871E+03</pdfrwt>
<pdfrwt beam="2">  1       -1 0.23426243E-01 0.27507871E+03</pdfrwt>
<totfact> 0.41803864E+03</totfact>
</mgrwt>
</event>
<event>
 9    1  0.2054950E-002  0.2757395E+03  0.7818608E-02  0.1098039E+00
          2   -1    0    0  501    0  0.00000000000E+00  0.00000000000E+00  0.14853382197E+04  0.14853382197E+04  0.00000000000E+00 0.  1.
         -2   -1    0    0    0  501 -0.00000000000E+00 -0.00000000000E+00 -0.12797127303E+02  0.12797127303E+02  0.00000000000E+00 0.  1.
         36    2    1    2    0    0 -0.71054273576E-14 -0.14210854715E-13  0.14725410924E+04  0.14981353470E+04  0.27573945880E+03 0.  0.
         25    2    3    3    0    0  0.35836039872E+02  0.40645086711E+02  0.63400495112E+03  0.64865865406E+03  0.12593461246E+03 0.  0.
         25    2    3    3    0    0 -0.35836039872E+02 -0.40645086711E+02  0.83853614125E+03  0.84947669291E+03  0.12462562655E+03 0.  0.
          5    1    4    4  502    0  0.35912021959E+02  0.31877022552E+00  0.42831740484E+02  0.56092984664E+02  0.47000000000E+01 0. -1.
         -5    1    4    4    0  502 -0.75982086749E-01  0.40326316485E+02  0.59117321064E+03  0.59256566940E+03  0.47000000000E+01 0. -1.
          5    1    5    5  503    0  0.15862351207E+02 -0.72916467027E+02  0.45932302425E+03  0.46536883861E+03  0.47000000000E+01 0.  1.
         -5    1    5    5    0  503 -0.51698391079E+02  0.32271380316E+02  0.37921311700E+03  0.38410785430E+03  0.47000000000E+01 0.  1.
<mgrwt>
<rscale>  0 0.27573946E+03</rscale>
<asrwt>0</asrwt>
<pdfrwt beam="1">  1        2 0.22851344E+00 0.27573946E+03</pdfrwt>
<pdfrwt beam="2">  1       -2 0.19687900E-02 0.27573946E+03</pdfrwt>
<totfact> 0.10992916E+04</totfact>
</mgrwt>
</event>
<event>
 9    1  0.2054950E-002  0.2825750E+03  0.7818608E-02  0.1094291E+00
         -2   -1    0    0    0  501 -0.00000000000E+00  0.00000000000E+00  0.17390510237E+02  0.17390510237E+02  0.00000000000E+00 0.  1.
          2   -1    0    0  501    0  0.00000000000E+00 -0.00000000000E+00 -0.11478763678E+04  0.11478763678E+04  0.00000000000E+00 0.  1.
         36    2    1    2    0    0  0.00000000000E+00  0.00000000000E+00 -0.11304858576E+04  0.11652668781E+04  0.28257498633E+03 0.  0.
         25    2    3    3    0    0 -0.47925949778E+02 -0.39522389737E+02 -0.59809046566E+03  0.61475473849E+03  0.12787598455E+03 0.  0.
         25    2    3    3    0    0  0.47925949778E+02  0.39522389737E+02 -0.53239539192E+03  0.55051213957E+03  0.12553822734E+03 0.  0.
          5    1    4    4  502    0 -0.30426236807E+02 -0.82098686665E+01 -0.56446532196E+03  0.56536390716E+03  0.47000000000E+01 0.  1.
         -5    1    4    4    0  502 -0.17499712971E+02 -0.31312521070E+02 -0.33625143707E+02  0.49390831327E+02  0.47000000000E+01 0.  1.
          5    1    5    5  503    0  0.71073272078E+02  0.68253575670E+02 -0.43974950150E+03  0.45067912606E+03  0.47000000000E+01 0. -1.
         -5    1    5    5    0  503 -0.23147322300E+02 -0.28731185933E+02 -0.92645890422E+02  0.99833013512E+02  0.47000000000E+01 0. -1.
<mgrwt>
<rscale>  0 0.28257499E+03</rscale>
<asrwt>0</asrwt>
<pdfrwt beam="1">  1        2 0.17659634E+00 0.28257499E+03</pdfrwt>
<pdfrwt beam="2">  1       -2 0.26754634E-02 0.28257499E+03</pdfrwt>
<totfact> 0.10752387E+04</totfact>
</mgrwt>
</event>
<event>
 9    1  0.2054950E-002  0.2746977E+03  0.7818608E-02  0.1098621E+00
          1   -1    0    0  501    0  0.00000000000E+00  0.00000000000E+00  0.45689318147E+02  0.45689318147E+02  0.00000000000E+00 0. -1.
         -1   -1    0    0    0  501 -0.00000000000E+00 -0.00000000000E+00 -0.41289089157E+03  0.41289089157E+03  0.00000000000E+00 0. -1.
         36    2    1    2    0    0  0.00000000000E+00  0.00000000000E+00 -0.36720157342E+03  0.45858020971E+03  0.27469767603E+03 0.  0.
         25    2    3    3    0    0 -0.45515029363E+02 -0.28823618006E+02 -0.21728700418E+03  0.25483074524E+03  0.12174829641E+03 0.  0.
         25    2    3    3    0    0  0.45515029363E+02  0.28823618006E+02 -0.14991456924E+03  0.20374946448E+03  0.12703167854E+03 0.  0.
          5    1    4    4  502    0  0.26963671099E+02 -0.47008698326E+02 -0.62298001029E+02  0.82704221232E+02  0.47000000000E+01 0.  1.
         -5    1    4    4    0  502 -0.72478700462E+02  0.18185080320E+02 -0.15498900315E+03  0.17212652400E+03  0.47000000000E+01 0.  1.
          5    1    5    5  503    0 -0.76114328323E+01 -0.29786942403E+02  0.32788465261E+01  0.31273578018E+02  0.47000000000E+01 0.  1.
         -5    1    5    5    0  503  0.53126462195E+02  0.58610560410E+02 -0.15319341576E+03  0.17247588646E+03  0.47000000000E+01 0.  1.
<mgrwt>
<rscale>  0 0.27469768E+03</rscale>
<asrwt>0</asrwt>
<pdfrwt beam="1">  1        1 0.70291256E-02 0.27469768E+03</pdfrwt>
<pdfrwt beam="2">  1       -1 0.63521678E-01 0.27469768E+03</pdfrwt>
<totfact> 0.26927071E+03</totfact>
</mgrwt>
</event>
<event>
 9    1  0.2054950E-002  0.2686455E+03  0.7818608E-02  0.1102057E+00
          1   -1    0    0  501    0  0.00000000000E+00  0.00000000000E+00  0.15465730224E+03  0.15465730224E+03  0.00000000000E+00 0.  1.
         -1   -1    0    0    0  501 -0.00000000000E+00 -0.00000000000E+00 -0.11666181440E+03  0.11666181440E+03  0.00000000000E+00 0.  1.
         36    2    1    2    0    0  0.35527136788E-14  0.00000000000E+00  0.37995487834E+02  0.27131911664E+03  0.26864550240E+03 0.  0.
         25    2    3    3    0    0 -0.13653012443E+01 -0.29873523872E+02  0.55453050514E+02  0.14160464454E+03  0.12681696679E+03 0.  0.
         25    2    3    3    0    0  0.13653012443E+01  0.29873523872E+02 -0.17457562680E+02  0.12971447210E+03  0.12500714500E+03 0.  0.
          5    1    4    4  502    0  0.18239372391E+02 -0.57319125914E+02 -0.16027169865E+02  0.62426893841E+02  0.47000000000E+01 0.  1.
         -5    1    4    4    0  502 -0.19604673635E+02  0.27445602042E+02  0.71480220379E+02  0.79177750696E+02  0.47000000000E+01 0.  1.
          5    1    5    5  503    0  0.61003936650E+02  0.28958125714E+02 -0.11499245808E+01  0.67701297315E+02  0.47000000000E+01 0.  1.
         -5    1    5    5    0  503 -0.59638635405E+02  0.91539815808E+00 -0.16307638099E+02  0.62013174787E+02  0.47000000000E+01 0.  1.
<mgrwt>
<rscale>  0 0.26864550E+03</rscale>
<asrwt>0</asrwt>
<pdfrwt beam="1">  1        1 0.23793431E-01 0.26864550E+03</pdfrwt>
<pdfrwt beam="2">  1       -1 0.17947971E-01 0.26864550E+03</pdfrwt>
<totfact> 0.48675036E+03</totfact>
</mgrwt>
</event>
<event>
 9    1  0.2054950E-002  0.2750147E+03  0.7818608E-02  0.1098443E+00
         -2   -1    0    0    0  501 -0.00000000000E+00  0.00000000000E+00  0.17222328897E+02  0.17222328897E+02  0.00000000000E+00 0.  1.
          2   -1    0    0  501    0  0.00000000000E+00 -0.00000000000E+00 -0.10978929756E+04  0.10978929756E+04  0.00000000000E+00 0.  1.
         36    2    1    2    0    0  0.14210854715E-13  0.71054273576E-14 -0.10806706467E+04  0.11151153045E+04  0.27501471902E+03 0.  0.
         25    2    3    3    0    0 -0.49048621151E+02 -0.17298089661E+02 -0.42326788542E+03  0.44383449055E+03  0.12299740253E+03 0.  0.
         25    2    3    3    0    0  0.49048621151E+02  0.17298089661E+02 -0.65740276129E+03  0.67128081396E+03  0.12543743257E+03 0.  0.
          5    1    4    4  502    0 -0.71545136194E+02 -0.53715315812E+02 -0.30885372689E+03  0.32158475754E+03  0.47000000000E+01 0. -1.
         -5    1    4    4    0  502  0.22496515043E+02  0.36417226151E+02 -0.11441415853E+03  0.12224973301E+03  0.47000000000E+01 0. -1.
          5    1    5    5  503    0  0.77167719053E+01 -0.51558350304E+02 -0.33084343801E+03  0.33495862808E+03  0.47000000000E+01 0.  1.
         -5    1    5    5    0  503  0.41331849246E+02  0.68856439965E+02 -0.32655932329E+03  0.33632218588E+03  0.47000000000E+01 0.  1.
<mgrwt>
<rscale>  0 0.27501472E+03</rscale>
<asrwt>0</asrwt>
<pdfrwt beam="1">  1        2 0.16890664E+00 0.27501472E+03</pdfrwt>
<pdfrwt beam="2">  1       -2 0.26495887E-02 0.27501472E+03</pdfrwt>
<totfact> 0.11656573E+04</totfact>
</mgrwt>
</event>
<event>
 9    1  0.2054950E-002  0.2754319E+03  0.7818608E-02  0.1098210E+00
         -3   -1    0    0    0  501 -0.00000000000E+00  0.00000000000E+00  0.62547219704E+03  0.62547219704E+03  0.00000000000E+00 0.  1.
          3   -1    0    0  501    0  0.00000000000E+00 -0.00000000000E+00 -0.30322175947E+02  0.30322175947E+02  0.00000000000E+00 0.  1.
         36    2    1    2    0    0 -0.35527136788E-14  0.35527136788E-14  0.59515002109E+03  0.65579437299E+03  0.27543186460E+03 0.  0.
         25    2    3    3    0    0  0.14877611433E+02  0.18651940197E+02  0.23028762783E+03  0.26903527655E+03  0.13703412093E+03 0.  0.
         25    2    3    3    0    0 -0.14877611433E+02 -0.18651940197E+02  0.36486239326E+03  0.38675909644E+03  0.12605076148E+03 0.  0.
          5    1    4    4  502    0  0.46130350201E+02 -0.18303456085E+02  0.20864839368E+02  0.54041254946E+02  0.47000000000E+01 0. -1.
         -5    1    4    4    0  502 -0.31252738768E+02  0.36955396282E+02  0.20942278847E+03  0.21499402160E+03  0.47000000000E+01 0. -1.
          5    1    5    5  503    0 -0.24294193867E+02 -0.31330670106E+02  0.36785224770E+03  0.37001241180E+03  0.47000000000E+01 0. -1.
         -5    1    5    5    0  503  0.94165824340E+01  0.12678729909E+02 -0.29898544460E+01  0.16746684640E+02  0.47000000000E+01 0. -1.
<mgrwt>
<rscale>  0 0.27543186E+03</rscale>
<asrwt>0</asrwt>
<pdfrwt beam="1">  1        3 0.46649506E-02 0.27543186E+03</pdfrwt>
<pdfrwt beam="2">  1       -3 0.96226482E-01 0.27543186E+03</pdfrwt>
<totfact> 0.63842147E+02</totfact>
</mgrwt>
</event>
<event>
 9    1  0.2054950E-002  0.2735286E+03  0.7818608E-02  0.1099277E+00
         -2   -1    0    0    0  501 -0.00000000000E+00  0.00000000000E+00  0.34757877183E+03  0.34757877183E+03  0.00000000000E+00 0. -1.
          2   -1    0    0  501    0  0.00000000000E+00 -0.00000000000E+00 -0.53813616162E+02  0.53813616162E+02  0.00000000000E+00 0. -1.
         36    2    1    2    0    0  0.00000000000E+00  0.71054273576E-14  0.29376515567E+03  0.40139238799E+03  0.27352857703E+03 0.  0.
         25    2    3    3    0    0 -0.33467211050E+02  0.48842424726E+02  0.15787854228E+03  0.20975281263E+03  0.12475965545E+03 0.  0.
         25    2    3    3    0    0  0.33467211050E+02 -0.48842424726E+02  0.13588661339E+03  0.19163957536E+03  0.12146982537E+03 0.  0.
          5    1    4    4  502    0 -0.64480629592E+02 -0.29936941476E+01  0.12513895743E+03  0.14088492631E+03  0.47000000000E+01 0. -1.
         -5    1    4    4    0  502  0.31013418542E+02  0.51836118874E+02  0.32739584852E+02  0.68867886318E+02  0.47000000000E+01 0. -1.
          5    1    5    5  503    0  0.63578808108E+02 -0.59690143607E+02  0.51789738708E+02  0.10153543775E+03  0.47000000000E+01 0.  1.
         -5    1    5    5    0  503 -0.30111597058E+02  0.10847718881E+02  0.84096874681E+02  0.90104137605E+02  0.47000000000E+01 0.  1.
<mgrwt>
<rscale>  0 0.27352858E+03</rscale>
<asrwt>0</asrwt>
<pdfrwt beam="1">  1        2 0.82790181E-02 0.27352858E+03</pdfrwt>
<pdfrwt beam="2">  1       -2 0.53473656E-01 0.27352858E+03</pdfrwt>
<totfact> 0.27190459E+03</totfact>
</mgrwt>
</event>
<event>
 9    1  0.2054950E-002  0.2734933E+03  0.7818608E-02  0.1099297E+00
         -1   -1    0    0    0  501 -0.00000000000E+00  0.00000000000E+00  0.32996546599E+03  0.32996546599E+03  0.00000000000E+00 0.  1.
          1   -1    0    0  501    0  0.00000000000E+00 -0.00000000000E+00 -0.56671541162E+02  0.56671541162E+02  0.00000000000E+00 0.  1.
         36    2    1    2    0    0  0.00000000000E+00  0.71054273576E-14  0.27329392483E+03  0.38663700716E+03  0.27349333804E+03 0.  0.
         25    2    3    3    0    0  0.16313371062E+02  0.41735822902E+02  0.10299853755E+03  0.16936729145E+03  0.12676188578E+03 0.  0.
         25    2    3    3    0    0 -0.16313371062E+02 -0.41735822902E+02  0.17029538729E+03  0.21726971571E+03  0.12726981356E+03 0.  0.
          5    1    4    4  502    0 -0.42573542874E+02  0.35134277258E+02  0.61594332990E+01  0.55740044939E+02  0.47000000000E+01 0. -1.
         -5    1    4    4    0  502  0.58886913936E+02  0.66015456443E+01  0.96839104249E+02  0.11362724651E+03  0.47000000000E+01 0. -1.
          5    1    5    5  503    0 -0.29842096872E+02  0.25019728657E+02  0.13465612284E+03  0.14025298210E+03  0.47000000000E+01 0. -1.
         -5    1    5    5    0  503  0.13528725810E+02 -0.66755551559E+02  0.35639264442E+02  0.77016733610E+02  0.47000000000E+01 0. -1.
<mgrwt>
<rscale>  0 0.27349334E+03</rscale>
<asrwt>0</asrwt>
<pdfrwt beam="1">  1        1 0.87186988E-02 0.27349334E+03</pdfrwt>
<pdfrwt beam="2">  1       -1 0.50763917E-01 0.27349334E+03</pdfrwt>
<totfact> 0.30752059E+03</totfact>
</mgrwt>
</event>
<event>
 9    1  0.2054950E-002  0.2768398E+03  0.7818608E-02  0.1097428E+00
          4   -1    0    0  501    0  0.00000000000E+00  0.00000000000E+00  0.23723232396E+02  0.23723232396E+02  0.00000000000E+00 0. -1.
         -4   -1    0    0    0  501 -0.00000000000E+00 -0.00000000000E+00 -0.80765014330E+03  0.80765014330E+03  0.00000000000E+00 0. -1.
         36    2    1    2    0    0  0.00000000000E+00  0.00000000000E+00 -0.78392691091E+03  0.83137337570E+03  0.27683982404E+03 0.  0.
         25    2    3    3    0    0 -0.39151006878E+01  0.42018125934E+02 -0.40693739335E+03  0.42953541147E+03  0.13085020705E+03 0.  0.
         25    2    3    3    0    0  0.39151006878E+01 -0.42018125934E+02 -0.37698951756E+03  0.40183796423E+03  0.13255867464E+03 0.  0.
          5    1    4    4  502    0  0.34925586186E+02  0.77204195291E+02 -0.25203718084E+03  0.26594193890E+03  0.47000000000E+01 0.  1.
         -5    1    4    4    0  502 -0.38840686874E+02 -0.35186069356E+02 -0.15490021251E+03  0.16359347258E+03  0.47000000000E+01 0.  1.
          5    1    5    5  503    0 -0.39248856249E+02  0.14034147751E+02 -0.27158799028E+03  0.27480821764E+03  0.47000000000E+01 0. -1.
         -5    1    5    5    0  503  0.43163956937E+02 -0.56052273686E+02 -0.10540152728E+03  0.12702974658E+03  0.47000000000E+01 0. -1.
<mgrwt>
<rscale>  0 0.27683982E+03</rscale>
<asrwt>0</asrwt>
<pdfrwt beam="1">  1        4 0.36497274E-02 0.27683982E+03</pdfrwt>
<pdfrwt beam="2">  1       -4 0.12425389E+00 0.27683982E+03</pdfrwt>
<totfact> 0.37646357E+02</totfact>
</mgrwt>
</event>
<event>
 9    1  0.2054950E-002  0.2729933E+03  0.7818608E-02  0.1099579E+00
          3   -1    0    0  501    0  0.00000000000E+00  0.00000000000E+00  0.20727823469E+03  0.20727823469E+03  0.00000000000E+00 0. -1.
         -3   -1    0    0    0  501 -0.00000000000E+00 -0.00000000000E+00 -0.89885604903E+02  0.89885604903E+02  0.00000000000E+00 0. -1.
         36    2    1    2    0    0  0.00000000000E+00  0.71054273576E-14  0.11739262978E+03  0.29716383959E+03  0.27299325639E+03 0.  0.
         25    2    3    3    0    0 -0.37598917698E+02  0.44429908156E+02  0.10328776938E+03  0.15893773780E+03  0.10585436147E+03 0.  0.
         25    2    3    3    0    0  0.37598917698E+02 -0.44429908156E+02  0.14104860402E+02  0.13822610179E+03  0.12457854060E+03 0.  0.
          5    1    4    4  502    0 -0.46572295867E+02 -0.13703710135E+02  0.83495718009E+02  0.96697442260E+02  0.47000000000E+01 0. -1.
         -5    1    4    4    0  502  0.89733781694E+01  0.58133618291E+02  0.19792051373E+02  0.62240295540E+02  0.47000000000E+01 0. -1.
          5    1    5    5  503    0  0.39045062982E+02  0.32552733263E+02 -0.18743461982E+02  0.54383864824E+02  0.47000000000E+01 0. -1.
         -5    1    5    5    0  503 -0.14461452844E+01 -0.76982641419E+02  0.32848322384E+02  0.83842236966E+02  0.47000000000E+01 0. -1.
<mgrwt>
<rscale>  0 0.27299326E+03</rscale>
<asrwt>0</asrwt>
<pdfrwt beam="1">  1        3 0.31888959E-01 0.27299326E+03</pdfrwt>
<pdfrwt beam="2">  1       -3 0.13828555E-01 0.27299326E+03</pdfrwt>
<totfact> 0.10388750E+03</totfact>
</mgrwt>
</event>
<event>
 9    1  0.2054950E-002  0.2750414E+03  0.7818608E-02  0.1098428E+00
         -2   -1    0    0    0  501 -0.00000000000E+00  0.00000000000E+00  0.11898578531E+02  0.11898578531E+02  0.00000000000E+00 0. -1.
          2   -1    0    0  501    0  0.00000000000E+00 -0.00000000000E+00 -0.15894282841E+04  0.15894282841E+04  0.00000000000E+00 0. -1.
         36    2    1    2    0    0 -0.35527136788E-14 -0.71054273576E-14 -0.15775297056E+04  0.16013268626E+04  0.27504135876E+03 0.  0.
         25    2    3    3    0    0 -0.19865841197E+02  0.31657696920E+02 -0.56293701420E+03  0.57802699202E+03  0.12577861557E+03 0.  0.
         25    2    3    3    0    0  0.19865841197E+02 -0.31657696920E+02 -0.10145926914E+04  0.10232998706E+04  0.12785708576E+03 0.  0.
          5    1    4    4  502    0 -0.55799705322E+02  0.59247473379E+02 -0.42550436079E+03  0.43324348959E+03  0.47000000000E+01 0.  1.
         -5    1    4    4    0  502  0.35933864125E+02 -0.27589776459E+02 -0.13743265340E+03  0.14478350244E+03  0.47000000000E+01 0.  1.
          5    1    5    5  503    0  0.38236607695E+02 -0.66517365620E+02 -0.86909050622E+03  0.87248323542E+03  0.47000000000E+01 0.  1.
         -5    1    5    5    0  503 -0.18370766498E+02  0.34859668700E+02 -0.14550218515E+03  0.15081663518E+03  0.47000000000E+01 0.  1.
<mgrwt>
<rscale>  0 0.27504136E+03</rscale>
<asrwt>0</asrwt>
<pdfrwt beam="1">  1        2 0.24452732E+00 0.27504136E+03</pdfrwt>
<pdfrwt beam="2">  1       -2 0.18305514E-02 0.27504136E+03</pdfrwt>
<totfact> 0.10766050E+04</totfact>
</mgrwt>
</event>
<event>
 9    1  0.2054950E-002  0.2755766E+03  0.7818608E-02  0.1098130E+00
          1   -1    0    0  501    0  0.00000000000E+00  0.00000000000E+00  0.82953637236E+02  0.82953637236E+02  0.00000000000E+00 0. -1.
         -1   -1    0    0    0  501 -0.00000000000E+00 -0.00000000000E+00 -0.22887020831E+03  0.22887020831E+03  0.00000000000E+00 0. -1.
         36    2    1    2    0    0  0.71054273576E-14  0.35527136788E-14 -0.14591657107E+03  0.31182384555E+03  0.27557660448E+03 0.  0.
         25    2    3    3    0    0  0.17744538170E+02  0.12902592464E+02 -0.11948388576E+02  0.12617973673E+03  0.12368191640E+03 0.  0.
         25    2    3    3    0    0 -0.17744538170E+02 -0.12902592464E+02 -0.13396818250E+03  0.18564410881E+03  0.12662904757E+03 0.  0.
          5    1    4    4  502    0  0.52000662419E+02  0.29790080830E+02  0.31725776923E+02  0.67971558237E+02  0.47000000000E+01 0.  1.
         -5    1    4    4    0  502 -0.34256124249E+02 -0.16887488366E+02 -0.43674165499E+02  0.58208178497E+02  0.47000000000E+01 0.  1.
          5    1    5    5  503    0 -0.55024953865E+02  0.34826339012E+02 -0.51167291436E+02  0.82950594631E+02  0.47000000000E+01 0. -1.
         -5    1    5    5    0  503  0.37280415695E+02 -0.47728931476E+02 -0.82800891063E+02  0.10269351418E+03  0.47000000000E+01 0. -1.
<mgrwt>
<rscale>  0 0.27557660E+03</rscale>
<asrwt>0</asrwt>
<pdfrwt beam="1">  1        1 0.12762098E-01 0.27557660E+03</pdfrwt>
<pdfrwt beam="2">  1       -1 0.35210801E-01 0.27557660E+03</pdfrwt>
<totfact> 0.35582104E+03</totfact>
</mgrwt>
</event>
<event>
 9    1  0.2054950E-002  0.2749579E+03  0.7818608E-02  0.1098475E+00
          2   -1    0    0  501    0  0.00000000000E+00  0.00000000000E+00  0.13625228719E+04  0.13625228719E+04  0.00000000000E+00 0.  1.
         -2   -1    0    0    0  501 -0.00000000000E+00 -0.00000000000E+00 -0.13871665584E+02  0.13871665584E+02  0.00000000000E+00 0.  1.
         36    2    1    2    0    0 -0.71054273576E-14 -0.71054273576E-14  0.13486512063E+04  0.13763945375E+04  0.27495789953E+03 0.  0.
         25    2    3    3    0    0  0.99305517137E+00  0.55148974228E+02  0.69305526119E+03  0.70655823389E+03  0.12592278309E+03 0.  0.
         25    2    3    3    0    0 -0.99305517137E+00 -0.55148974228E+02  0.65559594511E+03  0.66983630357E+03  0.12582620882E+03 0.  0.
          5    1    4    4  502    0  0.49157453099E+02  0.53449637016E+02  0.56475964712E+03  0.56942854504E+03  0.47000000000E+01 0. -1.
         -5    1    4    4    0  502 -0.48164397928E+02  0.16993372122E+01  0.12829561407E+03  0.13712968885E+03  0.47000000000E+01 0. -1.
          5    1    5    5  503    0 -0.40774234892E+02 -0.34194776074E+02  0.57460178552E+03  0.57707982365E+03  0.47000000000E+01 0. -1.
         -5    1    5    5    0  503  0.39781179721E+02 -0.20954198154E+02  0.80994159585E+02  0.92756479920E+02  0.47000000000E+01 0. -1.
<mgrwt>
<rscale>  0 0.27495790E+03</rscale>
<asrwt>0</asrwt>
<pdfrwt beam="1">  1        2 0.20961880E+00 0.27495790E+03</pdfrwt>
<pdfrwt beam="2">  1       -2 0.21341035E-02 0.27495790E+03</pdfrwt>
<totfact> 0.11376141E+04</totfact>
</mgrwt>
</event>
<event>
 9    1  0.2054950E-002  0.2745642E+03  0.7818608E-02  0.1098695E+00
          2   -1    0    0  501    0  0.00000000000E+00  0.00000000000E+00  0.11736941075E+04  0.11736941075E+04  0.00000000000E+00 0.  1.
         -2   -1    0    0    0  501 -0.00000000000E+00 -0.00000000000E+00 -0.16057314731E+02  0.16057314731E+02  0.00000000000E+00 0.  1.
         36    2    1    2    0    0  0.00000000000E+00 -0.71054273576E-14  0.11576367928E+04  0.11897514222E+04  0.27456420511E+03 0.  0.
         25    2    3    3    0    0  0.35227969556E+02  0.33555713710E+02  0.69168463808E+03  0.70468156426E+03  0.12562433164E+03 0.  0.
         25    2    3    3    0    0 -0.35227969556E+02 -0.33555713710E+02  0.46595215468E+03  0.48506985796E+03  0.12575516246E+03 0.  0.
          5    1    4    4  502    0 -0.13974832694E+02  0.36088147426E+02  0.63233710550E+02  0.74284873853E+02  0.47000000000E+01 0.  1.
         -5    1    4    4    0  502  0.49202802250E+02 -0.25324337163E+01  0.62845092753E+03  0.63039669041E+03  0.47000000000E+01 0.  1.
          5    1    5    5  503    0 -0.31482210905E+02 -0.76426374930E+02  0.21457987113E+03  0.22999724233E+03  0.47000000000E+01 0.  1.
         -5    1    5    5    0  503 -0.37457586502E+01  0.42870661220E+02  0.25137228355E+03  0.25507261562E+03  0.47000000000E+01 0.  1.
<mgrwt>
<rscale>  0 0.27456421E+03</rscale>
<asrwt>0</asrwt>
<pdfrwt beam="1">  1        2 0.18056826E+00 0.27456421E+03</pdfrwt>
<pdfrwt beam="2">  1       -2 0.24703570E-02 0.27456421E+03</pdfrwt>
<totfact> 0.11685011E+04</totfact>
</mgrwt>
</event>
<event>
 9    1  0.2054950E-002  0.2749631E+03  0.7818608E-02  0.1098472E+00
         -2   -1    0    0    0  501 -0.00000000000E+00  0.00000000000E+00  0.12198173313E+02  0.12198173313E+02  0.00000000000E+00 0.  1.
          2   -1    0    0  501    0  0.00000000000E+00 -0.00000000000E+00 -0.15495083122E+04  0.15495083122E+04  0.00000000000E+00 0.  1.
         36    2    1    2    0    0  0.00000000000E+00 -0.14210854715E-13 -0.15373101389E+04  0.15617064855E+04  0.27496305892E+03 0.  0.
         25    2    3    3    0    0  0.32015437320E+02 -0.43235079551E+02 -0.75456391150E+03  0.76705838244E+03  0.12695513065E+03 0.  0.
         25    2    3    3    0    0 -0.32015437320E+02  0.43235079551E+02 -0.78274622741E+03  0.79464810310E+03  0.12601464560E+03 0.  0.
          5    1    4    4  502    0  0.81308366341E+01  0.45196877009E+02 -0.25235483694E+03  0.25654224198E+03  0.47000000000E+01 0. -1.
         -5    1    4    4    0  502  0.23884600686E+02 -0.88431956560E+02 -0.50220907457E+03  0.51051614046E+03  0.47000000000E+01 0. -1.
          5    1    5    5  503    0 -0.63037501852E+02  0.71000774568E+02 -0.55381447755E+03  0.56191405230E+03  0.47000000000E+01 0.  1.
         -5    1    5    5    0  503  0.31022064532E+02 -0.27765695018E+02 -0.22893174986E+03  0.23273405080E+03  0.47000000000E+01 0.  1.
<mgrwt>
<rscale>  0 0.27496306E+03</rscale>
<asrwt>0</asrwt>
<pdfrwt beam="1">  1        2 0.23838578E+00 0.27496306E+03</pdfrwt>
<pdfrwt beam="2">  1       -2 0.18766430E-02 0.27496306E+03</pdfrwt>
<totfact> 0.10899459E+04</totfact>
</mgrwt>
</event>
<event>
 9    1  0.2054950E-002  0.2758314E+03  0.7818608E-02  0.1097988E+00
         -1   -1    0    0    0  501 -0.00000000000E+00  0.00000000000E+00  0.82548203814E+02  0.82548203814E+02  0.00000000000E+00 0. -1.
          1   -1    0    0  501    0  0.00000000000E+00 -0.00000000000E+00 -0.23041979052E+03  0.23041979052E+03  0.00000000000E+00 0. -1.
         36    2    1    2    0    0  0.35527136788E-14  0.14210854715E-13 -0.14787158671E+03  0.31296799433E+03  0.27583139655E+03 0.  0.
         25    2    3    3    0    0 -0.17254648350E+02 -0.55237113725E+02 -0.10797769604E+03  0.17215675177E+03  0.12095413476E+03 0.  0.
         25    2    3    3    0    0  0.17254648350E+02  0.55237113725E+02 -0.39893890665E+02  0.14081124257E+03  0.12201402337E+03 0.  0.
          5    1    4    4  502    0  0.29434430164E+02 -0.76181873526E+02 -0.56500505957E+02  0.99420625156E+02  0.47000000000E+01 0. -1.
         -5    1    4    4    0  502 -0.46689078514E+02  0.20944759801E+02 -0.51477190084E+02  0.72736126612E+02  0.47000000000E+01 0. -1.
          5    1    5    5  503    0  0.27553310035E+02 -0.33213203643E+02 -0.25897390620E+02  0.50547666920E+02  0.47000000000E+01 0. -1.
         -5    1    5    5    0  503 -0.10298661685E+02  0.88450317368E+02 -0.13996500046E+02  0.90263575647E+02  0.47000000000E+01 0. -1.
<mgrwt>
<rscale>  0 0.27583140E+03</rscale>
<asrwt>0</asrwt>
<pdfrwt beam="1">  1        1 0.35449198E-01 0.27583140E+03</pdfrwt>
<pdfrwt beam="2">  1       -1 0.12699724E-01 0.27583140E+03</pdfrwt>
<totfact> 0.50966307E+03</totfact>
</mgrwt>
</event>
<event>
 9    1  0.2054950E-002  0.2752176E+03  0.7818608E-02  0.1098330E+00
         -2   -1    0    0    0  501 -0.00000000000E+00  0.00000000000E+00  0.10330699895E+03  0.10330699895E+03  0.00000000000E+00 0. -1.
          2   -1    0    0  501    0  0.00000000000E+00 -0.00000000000E+00 -0.18330008590E+03  0.18330008590E+03  0.00000000000E+00 0. -1.
         36    2    1    2    0    0  0.35527136788E-14 -0.71054273576E-14 -0.79993086951E+02  0.28660708486E+03  0.27521759960E+03 0.  0.
         25    2    3    3    0    0  0.15505972049E+02 -0.52848143573E+02 -0.55337968172E+02  0.14722874035E+03  0.12482247320E+03 0.  0.
         25    2    3    3    0    0 -0.15505972049E+02  0.52848143573E+02 -0.24655118779E+02  0.13937834451E+03  0.12563871452E+03 0.  0.
          5    1    4    4  502    0 -0.32215319908E+02  0.13447178457E+02 -0.55113922923E+02  0.65408622865E+02  0.47000000000E+01 0.  1.
         -5    1    4    4    0  502  0.47721291957E+02 -0.66295322030E+02 -0.22404524858E+00  0.81820117486E+02  0.47000000000E+01 0.  1.
          5    1    5    5  503    0  0.25678279731E+02 -0.32860142324E+02 -0.68823036912E+01  0.42527862721E+02  0.47000000000E+01 0. -1.
         -5    1    5    5    0  503 -0.41184251780E+02  0.85708285897E+02 -0.17772815088E+02  0.96850481787E+02  0.47000000000E+01 0. -1.
<mgrwt>
<rscale>  0 0.27521760E+03</rscale>
<asrwt>0</asrwt>
<pdfrwt beam="1">  1        2 0.28200013E-01 0.27521760E+03</pdfrwt>
<pdfrwt beam="2">  1       -2 0.15893384E-01 0.27521760E+03</pdfrwt>
<totfact> 0.57956722E+03</totfact>
</mgrwt>
</event>
<event>
 9    1  0.2054950E-002  0.2752188E+03  0.7818608E-02  0.1098329E+00
         -1   -1    0    0    0  501 -0.00000000000E+00  0.00000000000E+00  0.41267731280E+03  0.41267731280E+03  0.00000000000E+00 0.  1.
          1   -1    0    0  501    0  0.00000000000E+00 -0.00000000000E+00 -0.45886576610E+02  0.45886576610E+02  0.00000000000E+00 0.  1.
         36    2    1    2    0    0 -0.71054273576E-14  0.00000000000E+00  0.36679073619E+03  0.45856388941E+03  0.27521881570E+03 0.  0.
         25    2    3    3    0    0  0.53030649656E+02  0.34658461650E+02  0.22264701840E+03  0.26075310025E+03  0.12002927028E+03 0.  0.
         25    2    3    3    0    0 -0.53030649656E+02 -0.34658461650E+02  0.14414371780E+03  0.19781078916E+03  0.11974238248E+03 0.  0.
          5    1    4    4  502    0  0.65763156353E+02  0.45656551719E+01  0.21752898491E+03  0.22734684342E+03  0.47000000000E+01 0. -1.
         -5    1    4    4    0  502 -0.12732506697E+02  0.30092806478E+02  0.51180334916E+01  0.33406256829E+02  0.47000000000E+01 0. -1.
          5    1    5    5  503    0  0.62957557430E+01 -0.47025074348E+02  0.12547070908E+03  0.13422363054E+03  0.47000000000E+01 0. -1.
         -5    1    5    5    0  503 -0.59326405399E+02  0.12366612698E+02  0.18673008716E+02  0.63587158623E+02  0.47000000000E+01 0. -1.
<mgrwt>
<rscale>  0 0.27521882E+03</rscale>
<asrwt>0</asrwt>
<pdfrwt beam="1">  1        1 0.70594736E-02 0.27521882E+03</pdfrwt>
<pdfrwt beam="2">  1       -1 0.63488815E-01 0.27521882E+03</pdfrwt>
<totfact> 0.26797166E+03</totfact>
</mgrwt>
</event>
<event>
 9    1  0.2054950E-002  0.2737631E+03  0.7818608E-02  0.1099145E+00
         -1   -1    0    0    0  501 -0.00000000000E+00  0.00000000000E+00  0.20714125951E+03  0.20714125951E+03  0.00000000000E+00 0.  1.
          1   -1    0    0  501    0  0.00000000000E+00 -0.00000000000E+00 -0.90453020243E+02  0.90453020243E+02  0.00000000000E+00 0.  1.
         36    2    1    2    0    0  0.71054273576E-14 -0.35527136788E-14  0.11668823927E+03  0.29759427976E+03  0.27376305478E+03 0.  0.
         25    2    3    3    0    0 -0.55205581385E+02  0.15350135884E+02  0.61699945243E+02  0.15064509829E+03  0.12491508919E+03 0.  0.
         25    2    3    3    0    0  0.55205581385E+02 -0.15350135884E+02  0.54988294028E+02  0.14694918147E+03  0.12364087741E+03 0.  0.
          5    1    4    4  502    0 -0.19869493478E+02 -0.50526214186E+02  0.14455535271E+01  0.54514903614E+02  0.47000000000E+01 0. -1.
         -5    1    4    4    0  502 -0.35336087907E+02  0.65876350070E+02  0.60254391716E+02  0.96130194674E+02  0.47000000000E+01 0. -1.
          5    1    5    5  503    0  0.50241640441E+02 -0.37533223252E+02  0.87035201412E+02  0.10737868302E+03  0.47000000000E+01 0.  1.
         -5    1    5    5    0  503  0.49639409441E+01  0.22183087368E+02 -0.32046907384E+02  0.39570498452E+02  0.47000000000E+01 0.  1.
<mgrwt>
<rscale>  0 0.27376305E+03</rscale>
<asrwt>0</asrwt>
<pdfrwt beam="1">  1        1 0.13915849E-01 0.27376305E+03</pdfrwt>
<pdfrwt beam="2">  1       -1 0.31867886E-01 0.27376305E+03</pdfrwt>
<totfact> 0.37694998E+03</totfact>
</mgrwt>
</event>
<event>
 9    1  0.2054950E-002  0.2748045E+03  0.7818608E-02  0.1098561E+00
         -2   -1    0    0    0  501 -0.00000000000E+00  0.00000000000E+00  0.73405262328E+03  0.73405262328E+03  0.00000000000E+00 0. -1.
          2   -1    0    0  501    0  0.00000000000E+00 -0.00000000000E+00 -0.25719377393E+02  0.25719377393E+02  0.00000000000E+00 0. -1.
         36    2    1    2    0    0 -0.35527136788E-14  0.00000000000E+00  0.70833324589E+03  0.75977200068E+03  0.27480448646E+03 0.  0.
         25    2    3    3    0    0  0.61201153860E+01  0.25176550591E+02  0.25873057465E+03  0.29104607167E+03  0.13074781477E+03 0.  0.
         25    2    3    3    0    0 -0.61201153860E+01 -0.25176550591E+02  0.44960267124E+03  0.46872592900E+03  0.12996199452E+03 0.  0.
          5    1    4    4  502    0  0.27171030920E+02 -0.35804862111E+02  0.19526645600E+03  0.20042787209E+03  0.47000000000E+01 0. -1.
         -5    1    4    4    0  502 -0.21050915534E+02  0.60981412702E+02  0.63464118648E+02  0.90618199583E+02  0.47000000000E+01 0. -1.
          5    1    5    5  503    0  0.37040064707E+02  0.34083673522E+02  0.10708020281E+03  0.11841420113E+03  0.47000000000E+01 0. -1.
         -5    1    5    5    0  503 -0.43160180093E+02 -0.59260224113E+02  0.34252246843E+03  0.35031172788E+03  0.47000000000E+01 0. -1.
<mgrwt>
<rscale>  0 0.27480449E+03</rscale>
<asrwt>0</asrwt>
<pdfrwt beam="1">  1        2 0.39568278E-02 0.27480449E+03</pdfrwt>
<pdfrwt beam="2">  1       -2 0.11293116E+00 0.27480449E+03</pdfrwt>
<totfact> 0.13823909E+03</totfact>
</mgrwt>
</event>
<event>
 9    1  0.2054950E-002  0.2748078E+03  0.7818608E-02  0.1098559E+00
          2   -1    0    0  501    0  0.00000000000E+00  0.00000000000E+00  0.25653848591E+04  0.25653848591E+04  0.00000000000E+00 0. -1.
         -2   -1    0    0    0  501 -0.00000000000E+00 -0.00000000000E+00 -0.73594548293E+01  0.73594548293E+01  0.00000000000E+00 0. -1.
         36    2    1    2    0    0  0.00000000000E+00 -0.71054273576E-14  0.25580254042E+04  0.25727443139E+04  0.27480781641E+03 0.  0.
         25    2    3    3    0    0  0.23388016833E+02  0.28304538439E+02  0.10498789335E+04  0.10590665610E+04  0.13426860908E+03 0.  0.
         25    2    3    3    0    0 -0.23388016833E+02 -0.28304538439E+02  0.15081464707E+04  0.15136777529E+04  0.12396134962E+03 0.  0.
          5    1    4    4  502    0  0.13196879261E+02 -0.44405235100E+02  0.69944306747E+03  0.70099121047E+03  0.47000000000E+01 0.  1.
         -5    1    4    4    0  502  0.10191137572E+02  0.72709773540E+02  0.35043586605E+03  0.35807535054E+03  0.47000000000E+01 0.  1.
          5    1    5    5  503    0 -0.42431687828E+02  0.20950438480E+02  0.12044451262E+04  0.12053835576E+04  0.47000000000E+01 0. -1.
         -5    1    5    5    0  503  0.19043670995E+02 -0.49254976919E+02  0.30370134450E+03  0.30829419522E+03  0.47000000000E+01 0. -1.
<mgrwt>
<rscale>  0 0.27480782E+03</rscale>
<asrwt>0</asrwt>
<pdfrwt beam="1">  1        2 0.39467388E+00 0.27480782E+03</pdfrwt>
<pdfrwt beam="2">  1       -2 0.11322259E-02 0.27480782E+03</pdfrwt>
<totfact> 0.65692710E+03</totfact>
</mgrwt>
</event>
<event>
 9    1  0.2054950E-002  0.2784570E+03  0.7818608E-02  0.1096535E+00
         -1   -1    0    0    0  501 -0.00000000000E+00  0.00000000000E+00  0.10523085257E+03  0.10523085257E+03  0.00000000000E+00 0.  1.
          1   -1    0    0  501    0  0.00000000000E+00 -0.00000000000E+00 -0.18420998991E+03  0.18420998991E+03  0.00000000000E+00 0.  1.
         36    2    1    2    0    0  0.00000000000E+00 -0.71054273576E-14 -0.78979137346E+02  0.28944084248E+03  0.27845699338E+03 0.  0.
         25    2    3    3    0    0  0.27159876682E+02 -0.22049627738E+02 -0.79964486108E+01  0.14068960402E+03  0.13603593828E+03 0.  0.
         25    2    3    3    0    0 -0.27159876682E+02  0.22049627738E+02 -0.70982688735E+02  0.14875123847E+03  0.12595453092E+03 0.  0.
          5    1    4    4  502    0  0.46894567457E+02  0.46298382247E+02 -0.18541951837E+02  0.68618762985E+02  0.47000000000E+01 0. -1.
         -5    1    4    4    0  502 -0.19734690775E+02 -0.68348009985E+02  0.10545503226E+02  0.72070841033E+02  0.47000000000E+01 0. -1.
          5    1    5    5  503    0  0.25772567888E+02  0.48099270664E+02 -0.70871445953E+02  0.89569062435E+02  0.47000000000E+01 0. -1.
         -5    1    5    5    0  503 -0.52932444570E+02 -0.26049642926E+02 -0.11124278224E+00  0.59182176031E+02  0.47000000000E+01 0. -1.
<mgrwt>
<rscale>  0 0.27845699E+03</rscale>
<asrwt>0</asrwt>
<pdfrwt beam="1">  1        1 0.28339998E-01 0.27845699E+03</pdfrwt>
<pdfrwt beam="2">  1       -1 0.16189362E-01 0.27845699E+03</pdfrwt>
<totfact> 0.46037835E+03</totfact>
</mgrwt>
</event>
<event>
 9    1  0.2054950E-002  0.2751389E+03  0.7818608E-02  0.1098374E+00
          2   -1    0    0  501    0  0.00000000000E+00  0.00000000000E+00  0.53832060700E+02  0.53832060700E+02  0.00000000000E+00 0. -1.
         -2   -1    0    0    0  501 -0.00000000000E+00 -0.00000000000E+00 -0.35156287315E+03  0.35156287315E+03  0.00000000000E+00 0. -1.
         36    2    1    2    0    0  0.71054273576E-14  0.71054273576E-14 -0.29773081245E+03  0.40539493385E+03  0.27513890257E+03 0.  0.
         25    2    3    3    0    0 -0.51381849303E+02 -0.32614161705E+02 -0.15233283023E+03  0.20473228853E+03  0.12249996252E+03 0.  0.
         25    2    3    3    0    0  0.51381849303E+02  0.32614161705E+02 -0.14539798222E+03  0.20066264532E+03  0.12418190695E+03 0.  0.
          5    1    4    4  502    0  0.23620877204E+02 -0.12296245803E+02  0.65318421884E+01  0.27819030593E+02  0.47000000000E+01 0. -1.
         -5    1    4    4    0  502 -0.75002726507E+02 -0.20317915902E+02 -0.15886467242E+03  0.17691325793E+03  0.47000000000E+01 0. -1.
          5    1    5    5  503    0  0.60024591135E+02  0.65647043340E+02 -0.56922400588E+02  0.10571062165E+03  0.47000000000E+01 0.  1.
         -5    1    5    5    0  503 -0.86427418327E+01 -0.33032881634E+02 -0.88475581629E+02  0.94952023676E+02  0.47000000000E+01 0.  1.
<mgrwt>
<rscale>  0 0.27513890E+03</rscale>
<asrwt>0</asrwt>
<pdfrwt beam="1">  1        2 0.82818556E-02 0.27513890E+03</pdfrwt>
<pdfrwt beam="2">  1       -2 0.54086595E-01 0.27513890E+03</pdfrwt>
<totfact> 0.26563194E+03</totfact>
</mgrwt>
</event>
<event>
 9    1  0.2054950E-002  0.2760209E+03  0.7818608E-02  0.1097882E+00
          1   -1    0    0  501    0  0.00000000000E+00  0.00000000000E+00  0.10700742464E+03  0.10700742464E+03  0.00000000000E+00 0. -1.
         -1   -1    0    0    0  501 -0.00000000000E+00 -0.00000000000E+00 -0.17799594451E+03  0.17799594451E+03  0.00000000000E+00 0. -1.
         36    2    1    2    0    0  0.14210854715E-13  0.35527136788E-14 -0.70988519869E+02  0.28500336914E+03  0.27602092397E+03 0.  0.
         25    2    3    3    0    0 -0.68574744238E+02  0.60580833054E+01 -0.20150624229E+02  0.13338772203E+03  0.11245906282E+03 0.  0.
         25    2    3    3    0    0  0.68574744238E+02 -0.60580833054E+01 -0.50837895641E+02  0.15161564711E+03  0.12515437226E+03 0.  0.
          5    1    4    4  502    0 -0.83838119253E+02 -0.29912398502E+02 -0.27638913315E+02  0.93325137842E+02  0.47000000000E+01 0.  1.
         -5    1    4    4    0  502  0.15263375015E+02  0.35970481807E+02  0.74882890869E+01  0.40062584187E+02  0.47000000000E+01 0.  1.
          5    1    5    5  503    0  0.52164426450E+02 -0.61560100552E+02 -0.46823443665E+02  0.93409304908E+02  0.47000000000E+01 0.  1.
         -5    1    5    5    0  503  0.16410317788E+02  0.55502017246E+02 -0.40144519762E+01  0.58206342206E+02  0.47000000000E+01 0.  1.
<mgrwt>
<rscale>  0 0.27602092E+03</rscale>
<asrwt>0</asrwt>
<pdfrwt beam="1">  1        1 0.16462681E-01 0.27602092E+03</pdfrwt>
<pdfrwt beam="2">  1       -1 0.27383991E-01 0.27602092E+03</pdfrwt>
<totfact> 0.39128215E+03</totfact>
</mgrwt>
</event>
<event>
 9    1  0.2054950E-002  0.2755936E+03  0.7818608E-02  0.1098120E+00
         -2   -1    0    0    0  501 -0.00000000000E+00  0.00000000000E+00  0.56660815816E+02  0.56660815816E+02  0.00000000000E+00 0. -1.
          2   -1    0    0  501    0  0.00000000000E+00 -0.00000000000E+00 -0.33511612786E+03  0.33511612786E+03  0.00000000000E+00 0. -1.
         36    2    1    2    0    0 -0.35527136788E-14  0.14210854715E-13 -0.27845531205E+03  0.39177694368E+03  0.27559356449E+03 0.  0.
         25    2    3    3    0    0 -0.30369344643E+02  0.41329279156E+02 -0.13345961614E+03  0.18715168422E+03  0.12076372533E+03 0.  0.
         25    2    3    3    0    0  0.30369344643E+02 -0.41329279156E+02 -0.14499569590E+03  0.20462525946E+03  0.13497162135E+03 0.  0.
          5    1    4    4  502    0 -0.15285589483E+01  0.48049742587E+02 -0.14664578854E+03  0.15439621612E+03  0.47000000000E+01 0. -1.
         -5    1    4    4    0  502 -0.28840785695E+02 -0.67204634314E+01  0.13186172394E+02  0.32755468103E+02  0.47000000000E+01 0. -1.
          5    1    5    5  503    0  0.31738389132E+02 -0.89893470095E+02 -0.91792871260E+02  0.13242425203E+03  0.47000000000E+01 0. -1.
         -5    1    5    5    0  503 -0.13690444891E+01  0.48564190939E+02 -0.53202824644E+02  0.72201007434E+02  0.47000000000E+01 0. -1.
<mgrwt>
<rscale>  0 0.27559356E+03</rscale>
<asrwt>0</asrwt>
<pdfrwt beam="1">  1        2 0.51556329E-01 0.27559356E+03</pdfrwt>
<pdfrwt beam="2">  1       -2 0.87170483E-02 0.27559356E+03</pdfrwt>
<totfact> 0.79454331E+03</totfact>
</mgrwt>
</event>
<event>
 9    1  0.2054950E-002  0.2749871E+03  0.7818608E-02  0.1098459E+00
         -1   -1    0    0    0  501 -0.00000000000E+00  0.00000000000E+00  0.45441784070E+02  0.45441784070E+02  0.00000000000E+00 0.  1.
          1   -1    0    0  501    0  0.00000000000E+00 -0.00000000000E+00 -0.41601521121E+03  0.41601521121E+03  0.00000000000E+00 0.  1.
         36    2    1    2    0    0  0.00000000000E+00  0.00000000000E+00 -0.37057342714E+03  0.46145699528E+03  0.27498707895E+03 0.  0.
         25    2    3    3    0    0  0.16532068670E+02  0.13286491546E+02 -0.21818918156E+03  0.26718290801E+03  0.15274274854E+03 0.  0.
         25    2    3    3    0    0 -0.16532068670E+02 -0.13286491546E+02 -0.15238424557E+03  0.19427408726E+03  0.11862386999E+03 0.  0.
          5    1    4    4  502    0  0.47730784430E+02  0.67705842093E+02 -0.16547422627E+03  0.18511109744E+03  0.47000000000E+01 0.  1.
         -5    1    4    4    0  502 -0.31198715760E+02 -0.54419350547E+02 -0.52714955294E+02  0.82071810572E+02  0.47000000000E+01 0.  1.
          5    1    5    5  503    0 -0.37380556411E+02  0.36924225068E+02 -0.11933991866E+03  0.13047915764E+03  0.47000000000E+01 0.  1.
         -5    1    5    5    0  503  0.20848487741E+02 -0.50210716615E+02 -0.33044326916E+02  0.63794929621E+02  0.47000000000E+01 0.  1.
<mgrwt>
<rscale>  0 0.27498708E+03</rscale>
<asrwt>0</asrwt>
<pdfrwt beam="1">  1        1 0.64002341E-01 0.27498708E+03</pdfrwt>
<pdfrwt beam="2">  1       -1 0.69910437E-02 0.27498708E+03</pdfrwt>
<totfact> 0.60610847E+03</totfact>
</mgrwt>
</event>
<event>
 9    1  0.2054950E-002  0.2747629E+03  0.7818608E-02  0.1098584E+00
          2   -1    0    0  501    0  0.00000000000E+00  0.00000000000E+00  0.23756264353E+03  0.23756264353E+03  0.00000000000E+00 0. -1.
         -2   -1    0    0    0  501 -0.00000000000E+00 -0.00000000000E+00 -0.79447116582E+02  0.79447116582E+02  0.00000000000E+00 0. -1.
         36    2    1    2    0    0  0.00000000000E+00 -0.71054273576E-14  0.15811552695E+03  0.31700976012E+03  0.27476293081E+03 0.  0.
         25    2    3    3    0    0  0.23886578698E+02  0.20699343178E+02  0.11637450863E+03  0.18353758865E+03  0.13836180375E+03 0.  0.
         25    2    3    3    0    0 -0.23886578698E+02 -0.20699343178E+02  0.41741018326E+02  0.13347217147E+03  0.12277408723E+03 0.  0.
          5    1    4    4  502    0 -0.35410270236E+02  0.51342177947E+02  0.94149019176E+02  0.11303112088E+03  0.47000000000E+01 0. -1.
         -5    1    4    4    0  502  0.59296848934E+02 -0.30642834770E+02  0.22225489451E+02  0.70506467771E+02  0.47000000000E+01 0. -1.
          5    1    5    5  503    0 -0.66039686284E+02  0.12899798153E+02  0.41816663954E+02  0.79362260182E+02  0.47000000000E+01 0.  1.
         -5    1    5    5    0  503  0.42153107586E+02 -0.33599141330E+02 -0.75645628563E-01  0.54109911288E+02  0.47000000000E+01 0.  1.
<mgrwt>
<rscale>  0 0.27476293E+03</rscale>
<asrwt>0</asrwt>
<pdfrwt beam="1">  1        2 0.36548099E-01 0.27476293E+03</pdfrwt>
<pdfrwt beam="2">  1       -2 0.12222633E-01 0.27476293E+03</pdfrwt>
<totfact> 0.67151126E+03</totfact>
</mgrwt>
</event>
<event>
 9    1  0.2054950E-002  0.2743138E+03  0.7818608E-02  0.1098836E+00
         -2   -1    0    0    0  501 -0.00000000000E+00  0.00000000000E+00  0.13071557397E+02  0.13071557397E+02  0.00000000000E+00 0.  1.
          2   -1    0    0  501    0  0.00000000000E+00 -0.00000000000E+00 -0.14391559474E+04  0.14391559474E+04  0.00000000000E+00 0.  1.
         36    2    1    2    0    0  0.35527136788E-14 -0.14210854715E-13 -0.14260843900E+04  0.14522275048E+04  0.27431375882E+03 0.  0.
         25    2    3    3    0    0  0.40127384694E+01 -0.51369483947E+02 -0.86739443724E+03  0.87704694226E+03  0.11909367416E+03 0.  0.
         25    2    3    3    0    0 -0.40127384694E+01  0.51369483947E+02 -0.55868995274E+03  0.57518056252E+03  0.12666211054E+03 0.  0.
          5    1    4    4  502    0 -0.29497976534E+02 -0.51184519649E+02 -0.19511750718E+03  0.20391889878E+03  0.47000000000E+01 0.  1.
         -5    1    4    4    0  502  0.33510715004E+02 -0.18496429866E+00 -0.67227693007E+03  0.67312804349E+03  0.47000000000E+01 0.  1.
          5    1    5    5  503    0  0.53971068147E+02  0.56113156581E+02 -0.29822945577E+03  0.30826037830E+03  0.47000000000E+01 0.  1.
         -5    1    5    5    0  503 -0.57983806616E+02 -0.47436726333E+01 -0.26046049697E+03  0.26692018422E+03  0.47000000000E+01 0.  1.
<mgrwt>
<rscale>  0 0.27431376E+03</rscale>
<asrwt>0</asrwt>
<pdfrwt beam="1">  1        2 0.22140852E+00 0.27431376E+03</pdfrwt>
<pdfrwt beam="2">  1       -2 0.20110097E-02 0.27431376E+03</pdfrwt>
<totfact> 0.11281132E+04</totfact>
</mgrwt>
</event>
<event>
 9    1  0.2054950E-002  0.2750635E+03  0.7818608E-02  0.1098416E+00
          1   -1    0    0  501    0  0.00000000000E+00  0.00000000000E+00  0.69734883757E+03  0.69734883757E+03  0.00000000000E+00 0.  1.
         -1   -1    0    0    0  501 -0.00000000000E+00 -0.00000000000E+00 -0.27124138082E+02  0.27124138082E+02  0.00000000000E+00 0.  1.
         36    2    1    2    0    0  0.00000000000E+00  0.00000000000E+00  0.67022469949E+03  0.72447297565E+03  0.27506352838E+03 0.  0.
         25    2    3    3    0    0  0.21963337715E+02 -0.46752036784E+02  0.43180428017E+03  0.45012316457E+03  0.11613692677E+03 0.  0.
         25    2    3    3    0    0 -0.21963337715E+02  0.46752036784E+02  0.23842041932E+03  0.27434981108E+03  0.12552044195E+03 0.  0.
          5    1    4    4  502    0  0.15420738387E+01  0.27597377345E+02  0.30404996508E+02  0.41358760144E+02  0.47000000000E+01 0.  1.
         -5    1    4    4    0  502  0.20421263877E+02 -0.74349414129E+02  0.40139928366E+03  0.40876440442E+03  0.47000000000E+01 0.  1.
          5    1    5    5  503    0  0.16771499094E+02  0.70711626487E+02  0.74608437001E+02  0.10425893810E+03  0.47000000000E+01 0. -1.
         -5    1    5    5    0  503 -0.38734836809E+02 -0.23959589703E+02  0.16381198232E+03  0.17009087298E+03  0.47000000000E+01 0. -1.
<mgrwt>
<rscale>  0 0.27506353E+03</rscale>
<asrwt>0</asrwt>
<pdfrwt beam="1">  1        1 0.10728442E+00 0.27506353E+03</pdfrwt>
<pdfrwt beam="2">  1       -1 0.41729448E-02 0.27506353E+03</pdfrwt>
<totfact> 0.65260208E+03</totfact>
</mgrwt>
</event>
