<event>
 5    1  0.1162308E+001  0.2745975E+03  0.7818608E-02  0.1098677E+00
          1   -1    0    0  501    0  0.00000000000E+00  0.00000000000E+00  0.65378254669E+03  0.65378254669E+03  0.00000000000E+00 0. -1.
         -1   -1    0    0    0  501 -0.00000000000E+00 -0.00000000000E+00 -0.28833660126E+02  0.28833660126E+02  0.00000000000E+00 0. -1.
         35    2    1    2    0    0  0.00000000000E+00  0.00000000000E+00  0.62494888657E+03  0.68261620682E+03  0.27459747812E+03 0.  0.
         25    1    3    3    0    0  0.27197316133E+02  0.22099119487E+02  0.45359881720E+03  0.47051031025E+03  0.12000000000E+03 0.  0.
         25    1    3    3    0    0 -0.27197316133E+02 -0.22099119487E+02  0.17135006936E+03  0.21210589657E+03  0.12000000000E+03 0.  0.
<mgrwt>
<rscale>  0 0.27459748E+03</rscale>
<asrwt>0</asrwt>
<pdfrwt beam="1">  1        1 0.10058192E+00 0.27459748E+03</pdfrwt>
<pdfrwt beam="2">  1       -1 0.44359482E-02 0.27459748E+03</pdfrwt>
<totfact> 0.65380597E+03</totfact>
</mgrwt>
</event>
<event>
 5    1  0.1162308E+001  0.2752026E+03  0.7818608E-02  0.1098338E+00
         -1   -1    0    0    0  501 -0.00000000000E+00  0.00000000000E+00  0.20083239588E+03  0.20083239588E+03  0.00000000000E+00 0.  1.
          1   -1    0    0  501    0  0.00000000000E+00 -0.00000000000E+00 -0.94278236057E+02  0.94278236057E+02  0.00000000000E+00 0.  1.
         35    2    1    2    0    0  0.00000000000E+00  0.00000000000E+00  0.10655415982E+03  0.29511063194E+03  0.27520264553E+03 0.  0.
         25    1    3    3    0    0 -0.43831413788E+00 -0.65811088517E+02  0.68549260875E+02  0.15306956803E+03  0.12000000000E+03 0.  0.
         25    1    3    3    0    0  0.43831413788E+00  0.65811088517E+02  0.38004898948E+02  0.14204106390E+03  0.12000000000E+03 0.  0.
<mgrwt>
<rscale>  0 0.27520265E+03</rscale>
<asrwt>0</asrwt>
<pdfrwt beam="1">  1        1 0.14504344E-01 0.27520265E+03</pdfrwt>
<pdfrwt beam="2">  1       -1 0.30897292E-01 0.27520265E+03</pdfrwt>
<totfact> 0.37640539E+03</totfact>
</mgrwt>
</event>
<event>
 5    1  0.1162308E+001  0.2752295E+03  0.7818608E-02  0.1098323E+00
         -2   -1    0    0    0  501 -0.00000000000E+00  0.00000000000E+00  0.87004723846E+02  0.87004723846E+02  0.00000000000E+00 0.  1.
          2   -1    0    0  501    0  0.00000000000E+00 -0.00000000000E+00 -0.21766432062E+03  0.21766432062E+03  0.00000000000E+00 0.  1.
         35    2    1    2    0    0  0.00000000000E+00  0.00000000000E+00 -0.13065959678E+03  0.30466904447E+03  0.27522953408E+03 0.  0.
         25    1    3    3    0    0 -0.10081696792E+02  0.37024218735E+02 -0.12661790644E+03  0.17861838543E+03  0.12000000000E+03 0.  0.
         25    1    3    3    0    0  0.10081696792E+02 -0.37024218735E+02 -0.40416903379E+01  0.12605065904E+03  0.12000000000E+03 0.  0.
<mgrwt>
<rscale>  0 0.27522953E+03</rscale>
<asrwt>0</asrwt>
<pdfrwt beam="1">  1        2 0.33486818E-01 0.27522953E+03</pdfrwt>
<pdfrwt beam="2">  1       -2 0.13385342E-01 0.27522953E+03</pdfrwt>
<totfact> 0.63710588E+03</totfact>
</mgrwt>
</event>
<event>
 5    1  0.1162308E+001  0.2753239E+03  0.7818608E-02  0.1098271E+00
          1   -1    0    0  501    0  0.00000000000E+00  0.00000000000E+00  0.63157892148E+03  0.63157892148E+03  0.00000000000E+00 0. -1.
         -1   -1    0    0    0  501 -0.00000000000E+00 -0.00000000000E+00 -0.30005457311E+02  0.30005457311E+02  0.00000000000E+00 0. -1.
         35    2    1    2    0    0  0.00000000000E+00  0.00000000000E+00  0.60157346417E+03  0.66158437879E+03  0.27532391373E+03 0.  0.
         25    1    3    3    0    0  0.49331880401E+02  0.35046358582E+02  0.37243005938E+03  0.39593690255E+03  0.12000000000E+03 0.  0.
         25    1    3    3    0    0 -0.49331880401E+02 -0.35046358582E+02  0.22914340479E+03  0.26564747624E+03  0.12000000000E+03 0.  0.
<mgrwt>
<rscale>  0 0.27532391E+03</rscale>
<asrwt>0</asrwt>
<pdfrwt beam="1">  1        1 0.97165978E-01 0.27532391E+03</pdfrwt>
<pdfrwt beam="2">  1       -1 0.46162247E-02 0.27532391E+03</pdfrwt>
<totfact> 0.64702816E+03</totfact>
</mgrwt>
</event>
<event>
 5    1  0.1162308E+001  0.2744795E+03  0.7818608E-02  0.1098743E+00
          1   -1    0    0  501    0  0.00000000000E+00  0.00000000000E+00  0.42309296703E+03  0.42309296703E+03  0.00000000000E+00 0.  1.
         -1   -1    0    0    0  501 -0.00000000000E+00 -0.00000000000E+00 -0.44516795895E+02  0.44516795895E+02  0.00000000000E+00 0.  1.
         35    2    1    2    0    0  0.00000000000E+00  0.00000000000E+00  0.37857617113E+03  0.46760976292E+03  0.27447945830E+03 0.  0.
         25    1    3    3    0    0  0.22274836317E+02  0.29014984955E+02  0.28409143466E+03  0.31055753240E+03  0.12000000000E+03 0.  0.
         25    1    3    3    0    0 -0.22274836317E+02 -0.29014984955E+02  0.94484736475E+02  0.15705223052E+03  0.12000000000E+03 0.  0.
<mgrwt>
<rscale>  0 0.27447946E+03</rscale>
<asrwt>0</asrwt>
<pdfrwt beam="1">  1        1 0.65091223E-01 0.27447946E+03</pdfrwt>
<pdfrwt beam="2">  1       -1 0.68487381E-02 0.27447946E+03</pdfrwt>
<totfact> 0.61181920E+03</totfact>
</mgrwt>
</event>
<event>
 5    1  0.1162308E+001  0.2750291E+03  0.7818608E-02  0.1098435E+00
         -1   -1    0    0    0  501 -0.00000000000E+00  0.00000000000E+00  0.27143201431E+02  0.27143201431E+02  0.00000000000E+00 0.  1.
          1   -1    0    0  501    0  0.00000000000E+00 -0.00000000000E+00 -0.69668468262E+03  0.69668468262E+03  0.00000000000E+00 0.  1.
         35    2    1    2    0    0  0.00000000000E+00  0.00000000000E+00 -0.66954148119E+03  0.72382788405E+03  0.27502910882E+03 0.  0.
         25    1    3    3    0    0  0.34120443468E+02 -0.57655076321E+02 -0.34709829143E+03  0.37331693827E+03  0.12000000000E+03 0.  0.
         25    1    3    3    0    0 -0.34120443468E+02  0.57655076321E+02 -0.32244318977E+03  0.35051094578E+03  0.12000000000E+03 0.  0.
<mgrwt>
<rscale>  0 0.27502911E+03</rscale>
<asrwt>0</asrwt>
<pdfrwt beam="1">  1        1 0.10718224E+00 0.27502911E+03</pdfrwt>
<pdfrwt beam="2">  1       -1 0.41758779E-02 0.27502911E+03</pdfrwt>
<totfact> 0.65282340E+03</totfact>
</mgrwt>
</event>
<event>
 5    1  0.1162308E+001  0.2783653E+03  0.7818608E-02  0.1096585E+00
          1   -1    0    0  501    0  0.00000000000E+00  0.00000000000E+00  0.74047570209E+03  0.74047570209E+03  0.00000000000E+00 0. -1.
         -1   -1    0    0    0  501 -0.00000000000E+00 -0.00000000000E+00 -0.26161307407E+02  0.26161307407E+02  0.00000000000E+00 0. -1.
         35    2    1    2    0    0  0.00000000000E+00  0.00000000000E+00  0.71431439469E+03  0.76663700950E+03  0.27836531731E+03 0.  0.
         25    1    3    3    0    0  0.36031426141E+02 -0.38269892826E+02  0.22771705361E+03  0.26271258986E+03  0.12000000000E+03 0.  0.
         25    1    3    3    0    0 -0.36031426141E+02  0.38269892826E+02  0.48659734107E+03  0.50392441964E+03  0.12000000000E+03 0.  0.
<mgrwt>
<rscale>  0 0.27836532E+03</rscale>
<asrwt>0</asrwt>
<pdfrwt beam="1">  1        1 0.11391932E+00 0.27836532E+03</pdfrwt>
<pdfrwt beam="2">  1       -1 0.40248171E-02 0.27836532E+03</pdfrwt>
<totfact> 0.63057451E+03</totfact>
</mgrwt>
</event>
<event>
 5    1  0.1162308E+001  0.2738126E+03  0.7818608E-02  0.1099117E+00
         -2   -1    0    0    0  501 -0.00000000000E+00  0.00000000000E+00  0.46703509991E+03  0.46703509991E+03  0.00000000000E+00 0.  1.
          2   -1    0    0  501    0  0.00000000000E+00 -0.00000000000E+00 -0.40132609202E+02  0.40132609202E+02  0.00000000000E+00 0.  1.
         35    2    1    2    0    0  0.00000000000E+00  0.00000000000E+00  0.42690249071E+03  0.50716770911E+03  0.27381261584E+03 0.  0.
         25    1    3    3    0    0 -0.12056072844E+02 -0.55807785712E+02  0.15248233244E+03  0.20226398479E+03  0.12000000000E+03 0.  0.
         25    1    3    3    0    0  0.12056072844E+02  0.55807785712E+02  0.27442015827E+03  0.30490372432E+03  0.12000000000E+03 0.  0.
<mgrwt>
<rscale>  0 0.27381262E+03</rscale>
<asrwt>0</asrwt>
<pdfrwt beam="1">  1        2 0.61742479E-02 0.27381262E+03</pdfrwt>
<pdfrwt beam="2">  1       -2 0.71851550E-01 0.27381262E+03</pdfrwt>
<totfact> 0.21398112E+03</totfact>
</mgrwt>
</event>
<event>
 5    1  0.1162308E+001  0.2734199E+03  0.7818608E-02  0.1099338E+00
         -1   -1    0    0    0  501 -0.00000000000E+00  0.00000000000E+00  0.51631686730E+03  0.51631686730E+03  0.00000000000E+00 0. -1.
          1   -1    0    0  501    0  0.00000000000E+00 -0.00000000000E+00 -0.36197941959E+02  0.36197941959E+02  0.00000000000E+00 0. -1.
         35    2    1    2    0    0  0.00000000000E+00  0.00000000000E+00  0.48011892534E+03  0.55251480925E+03  0.27341988220E+03 0.  0.
         25    1    3    3    0    0  0.63354576741E+02  0.16282589291E+02  0.23345468586E+03  0.27051805016E+03  0.12000000000E+03 0.  0.
         25    1    3    3    0    0 -0.63354576741E+02 -0.16282589291E+02  0.24666423947E+03  0.28199675910E+03  0.12000000000E+03 0.  0.
<mgrwt>
<rscale>  0 0.27341988E+03</rscale>
<asrwt>0</asrwt>
<pdfrwt beam="1">  1        1 0.55689145E-02 0.27341988E+03</pdfrwt>
<pdfrwt beam="2">  1       -1 0.79433359E-01 0.27341988E+03</pdfrwt>
<totfact> 0.23672818E+03</totfact>
</mgrwt>
</event>
<event>
 5    1  0.1162308E+001  0.2741811E+03  0.7818608E-02  0.1098910E+00
          1   -1    0    0  501    0  0.00000000000E+00  0.00000000000E+00  0.11898508350E+04  0.11898508350E+04  0.00000000000E+00 0.  1.
         -1   -1    0    0    0  501 -0.00000000000E+00 -0.00000000000E+00 -0.15795109396E+02  0.15795109396E+02  0.00000000000E+00 0.  1.
         35    2    1    2    0    0  0.00000000000E+00  0.00000000000E+00  0.11740557256E+04  0.12056459444E+04  0.27418113796E+03 0.  0.
         25    1    3    3    0    0  0.30238912141E+01  0.65318362139E+02  0.53922258989E+03  0.55627028844E+03  0.12000000000E+03 0.  0.
         25    1    3    3    0    0 -0.30238912141E+01 -0.65318362139E+02  0.63483313574E+03  0.64937565598E+03  0.12000000000E+03 0.  0.
<mgrwt>
<rscale>  0 0.27418114E+03</rscale>
<asrwt>0</asrwt>
<pdfrwt beam="1">  1        1 0.18305390E+00 0.27418114E+03</pdfrwt>
<pdfrwt beam="2">  1       -1 0.24300178E-02 0.27418114E+03</pdfrwt>
<totfact> 0.59924992E+03</totfact>
</mgrwt>
</event>
<event>
 5    1  0.1162308E+001  0.2746340E+03  0.7818608E-02  0.1098656E+00
          1   -1    0    0  501    0  0.00000000000E+00  0.00000000000E+00  0.64182112293E+02  0.64182112293E+02  0.00000000000E+00 0. -1.
         -1   -1    0    0    0  501 -0.00000000000E+00 -0.00000000000E+00 -0.29378830106E+03  0.29378830106E+03  0.00000000000E+00 0. -1.
         35    2    1    2    0    0  0.00000000000E+00  0.00000000000E+00 -0.22960618877E+03  0.35797041336E+03  0.27463396534E+03 0.  0.
         25    1    3    3    0    0 -0.57732097150E+01  0.11428909915E+02 -0.29409964006E+02  0.12421310686E+03  0.12000000000E+03 0.  0.
         25    1    3    3    0    0  0.57732097150E+01 -0.11428909915E+02 -0.20019622476E+03  0.23375730650E+03  0.12000000000E+03 0.  0.
<mgrwt>
<rscale>  0 0.27463397E+03</rscale>
<asrwt>0</asrwt>
<pdfrwt beam="1">  1        1 0.98741713E-02 0.27463397E+03</pdfrwt>
<pdfrwt beam="2">  1       -1 0.45198199E-01 0.27463397E+03</pdfrwt>
<totfact> 0.32171398E+03</totfact>
</mgrwt>
</event>
<event>
 5    1  0.1162308E+001  0.2743892E+03  0.7818608E-02  0.1098793E+00
         -1   -1    0    0    0  501 -0.00000000000E+00  0.00000000000E+00  0.55257047712E+01  0.55257047712E+01  0.00000000000E+00 0. -1.
          1   -1    0    0  501    0  0.00000000000E+00 -0.00000000000E+00 -0.34063283906E+04  0.34063283906E+04  0.00000000000E+00 0. -1.
         35    2    1    2    0    0  0.00000000000E+00  0.00000000000E+00 -0.34008026858E+04  0.34118540954E+04  0.27438924935E+03 0.  0.
         25    1    3    3    0    0 -0.60362294367E+02 -0.10382900149E+02 -0.20224857363E+04  0.20269681706E+04  0.12000000000E+03 0.  0.
         25    1    3    3    0    0  0.60362294367E+02  0.10382900149E+02 -0.13783169495E+04  0.13848859247E+04  0.12000000000E+03 0.  0.
<mgrwt>
<rscale>  0 0.27438925E+03</rscale>
<asrwt>0</asrwt>
<pdfrwt beam="1">  1        1 0.52405293E+00 0.27438925E+03</pdfrwt>
<pdfrwt beam="2">  1       -1 0.85010452E-03 0.27438925E+03</pdfrwt>
<totfact> 0.87741428E+02</totfact>
</mgrwt>
</event>
<event>
 5    1  0.1162308E+001  0.2746423E+03  0.7818608E-02  0.1098652E+00
          2   -1    0    0  501    0  0.00000000000E+00  0.00000000000E+00  0.15289268118E+03  0.15289268118E+03  0.00000000000E+00 0.  1.
         -2   -1    0    0    0  501 -0.00000000000E+00 -0.00000000000E+00 -0.12333552134E+03  0.12333552134E+03  0.00000000000E+00 0.  1.
         35    2    1    2    0    0  0.00000000000E+00  0.00000000000E+00  0.29557159837E+02  0.27622820252E+03  0.27464230222E+03 0.  0.
         25    1    3    3    0    0 -0.56468810698E+02 -0.29530477125E+02 -0.52442362289E+01  0.13597160613E+03  0.12000000000E+03 0.  0.
         25    1    3    3    0    0  0.56468810698E+02  0.29530477125E+02  0.34801396065E+02  0.14025659638E+03  0.12000000000E+03 0.  0.
<mgrwt>
<rscale>  0 0.27464230E+03</rscale>
<asrwt>0</asrwt>
<pdfrwt beam="1">  1        2 0.23521951E-01 0.27464230E+03</pdfrwt>
<pdfrwt beam="2">  1       -2 0.18974696E-01 0.27464230E+03</pdfrwt>
<totfact> 0.52666886E+03</totfact>
</mgrwt>
</event>
<event>
 5    1  0.1162308E+001  0.2756899E+03  0.7818608E-02  0.1098067E+00
         -1   -1    0    0    0  501 -0.00000000000E+00  0.00000000000E+00  0.25545174332E+02  0.25545174332E+02  0.00000000000E+00 0. -1.
          1   -1    0    0  501    0  0.00000000000E+00 -0.00000000000E+00 -0.74382854102E+03  0.74382854102E+03  0.00000000000E+00 0. -1.
         35    2    1    2    0    0  0.00000000000E+00  0.00000000000E+00 -0.71828336669E+03  0.76937371535E+03  0.27568989647E+03 0.  0.
         25    1    3    3    0    0 -0.49974358133E+02  0.41153353071E+02 -0.41566290982E+03  0.43745478571E+03  0.12000000000E+03 0.  0.
         25    1    3    3    0    0  0.49974358133E+02 -0.41153353071E+02 -0.30262045686E+03  0.33191892964E+03  0.12000000000E+03 0.  0.
<mgrwt>
<rscale>  0 0.27568990E+03</rscale>
<asrwt>0</asrwt>
<pdfrwt beam="1">  1        1 0.11443515E+00 0.27568990E+03</pdfrwt>
<pdfrwt beam="2">  1       -1 0.39300273E-02 0.27568990E+03</pdfrwt>
<totfact> 0.64877396E+03</totfact>
</mgrwt>
</event>
<event>
 5    1  0.1162308E+001  0.2752531E+03  0.7818608E-02  0.1098310E+00
         -2   -1    0    0    0  501 -0.00000000000E+00  0.00000000000E+00  0.14479544842E+02  0.14479544842E+02  0.00000000000E+00 0. -1.
          2   -1    0    0  501    0  0.00000000000E+00 -0.00000000000E+00 -0.13081262540E+04  0.13081262540E+04  0.00000000000E+00 0. -1.
         35    2    1    2    0    0  0.00000000000E+00  0.00000000000E+00 -0.12936467092E+04  0.13226057989E+04  0.27525313988E+03 0.  0.
         25    1    3    3    0    0  0.44297767492E+02  0.50699866170E+02 -0.66067001135E+03  0.67484637698E+03  0.12000000000E+03 0.  0.
         25    1    3    3    0    0 -0.44297767492E+02 -0.50699866170E+02 -0.63297669783E+03  0.64775942188E+03  0.12000000000E+03 0.  0.
<mgrwt>
<rscale>  0 0.27525314E+03</rscale>
<asrwt>0</asrwt>
<pdfrwt beam="1">  1        2 0.20125018E+00 0.27525314E+03</pdfrwt>
<pdfrwt beam="2">  1       -2 0.22276225E-02 0.27525314E+03</pdfrwt>
<totfact> 0.11440464E+04</totfact>
</mgrwt>
</event>
<event>
 5    1  0.1162308E+001  0.2747666E+03  0.7818608E-02  0.1098582E+00
          1   -1    0    0  501    0  0.00000000000E+00  0.00000000000E+00  0.30087149181E+03  0.30087149181E+03  0.00000000000E+00 0. -1.
         -1   -1    0    0    0  501 -0.00000000000E+00 -0.00000000000E+00 -0.62731670471E+02  0.62731670471E+02  0.00000000000E+00 0. -1.
         35    2    1    2    0    0  0.00000000000E+00  0.00000000000E+00  0.23813982134E+03  0.36360316228E+03  0.27476660116E+03 0.  0.
         25    1    3    3    0    0 -0.54427490596E+02 -0.70388251909E+01  0.68466689696E+02  0.14865928962E+03  0.12000000000E+03 0.  0.
         25    1    3    3    0    0  0.54427490596E+02  0.70388251909E+01  0.16967313164E+03  0.21494387266E+03  0.12000000000E+03 0.  0.
<mgrwt>
<rscale>  0 0.27476660E+03</rscale>
<asrwt>0</asrwt>
<pdfrwt beam="1">  1        1 0.46287921E-01 0.27476660E+03</pdfrwt>
<pdfrwt beam="2">  1       -1 0.96510264E-02 0.27476660E+03</pdfrwt>
<totfact> 0.55860823E+03</totfact>
</mgrwt>
</event>
<event>
 5    1  0.1162308E+001  0.2696072E+03  0.7818608E-02  0.1101505E+00
          1   -1    0    0  501    0  0.00000000000E+00  0.00000000000E+00  0.43831901042E+03  0.43831901042E+03  0.00000000000E+00 0. -1.
         -1   -1    0    0    0  501 -0.00000000000E+00 -0.00000000000E+00 -0.41458404606E+02  0.41458404606E+02  0.00000000000E+00 0. -1.
         35    2    1    2    0    0  0.00000000000E+00  0.00000000000E+00  0.39686060581E+03  0.47977741502E+03  0.26960717261E+03 0.  0.
         25    1    3    3    0    0  0.12201803495E+02  0.33694844709E+02  0.10967090011E+03  0.16646901483E+03  0.12000000000E+03 0.  0.
         25    1    3    3    0    0 -0.12201803495E+02 -0.33694844709E+02  0.28718970570E+03  0.31330840019E+03  0.12000000000E+03 0.  0.
<mgrwt>
<rscale>  0 0.26960717E+03</rscale>
<asrwt>0</asrwt>
<pdfrwt beam="1">  1        1 0.67433691E-01 0.26960717E+03</pdfrwt>
<pdfrwt beam="2">  1       -1 0.63782164E-02 0.26960717E+03</pdfrwt>
<totfact> 0.65057194E+03</totfact>
</mgrwt>
</event>
<event>
 5    1  0.1162308E+001  0.2752916E+03  0.7818608E-02  0.1098289E+00
          1   -1    0    0  501    0  0.00000000000E+00  0.00000000000E+00  0.10610162186E+03  0.10610162186E+03  0.00000000000E+00 0.  1.
         -1   -1    0    0    0  501 -0.00000000000E+00 -0.00000000000E+00 -0.17856804862E+03  0.17856804862E+03  0.00000000000E+00 0.  1.
         35    2    1    2    0    0  0.00000000000E+00  0.00000000000E+00 -0.72466426761E+02  0.28466967048E+03  0.27529155142E+03 0.  0.
         25    1    3    3    0    0 -0.97396836542E+00 -0.96125914218E+01 -0.10523734643E+03  0.15990074925E+03  0.12000000000E+03 0.  0.
         25    1    3    3    0    0  0.97396836542E+00  0.96125914218E+01  0.32770919669E+02  0.12476892123E+03  0.12000000000E+03 0.  0.
<mgrwt>
<rscale>  0 0.27529155E+03</rscale>
<asrwt>0</asrwt>
<pdfrwt beam="1">  1        1 0.16323327E-01 0.27529155E+03</pdfrwt>
<pdfrwt beam="2">  1       -1 0.27472007E-01 0.27529155E+03</pdfrwt>
<totfact> 0.39348636E+03</totfact>
</mgrwt>
</event>
<event>
 5    1  0.1162308E+001  0.2744297E+03  0.7818608E-02  0.1098771E+00
          1   -1    0    0  501    0  0.00000000000E+00  0.00000000000E+00  0.56196877845E+03  0.56196877845E+03  0.00000000000E+00 0. -1.
         -1   -1    0    0    0  501 -0.00000000000E+00 -0.00000000000E+00 -0.33503499274E+02  0.33503499274E+02  0.00000000000E+00 0. -1.
         35    2    1    2    0    0  0.00000000000E+00  0.00000000000E+00  0.52846527918E+03  0.59547227773E+03  0.27442974009E+03 0.  0.
         25    1    3    3    0    0  0.45649999247E+02 -0.47860572672E+02  0.28008352020E+03  0.31180335973E+03  0.12000000000E+03 0.  0.
         25    1    3    3    0    0 -0.45649999247E+02  0.47860572672E+02  0.24838175898E+03  0.28366891800E+03  0.12000000000E+03 0.  0.
<mgrwt>
<rscale>  0 0.27442974E+03</rscale>
<asrwt>0</asrwt>
<pdfrwt beam="1">  1        1 0.86456728E-01 0.27442974E+03</pdfrwt>
<pdfrwt beam="2">  1       -1 0.51543849E-02 0.27442974E+03</pdfrwt>
<totfact> 0.64492807E+03</totfact>
</mgrwt>
</event>
<event>
 5    1  0.1162308E+001  0.2747056E+03  0.7818608E-02  0.1098616E+00
         -1   -1    0    0    0  501 -0.00000000000E+00  0.00000000000E+00  0.28332590434E+02  0.28332590434E+02  0.00000000000E+00 0. -1.
          1   -1    0    0  501    0  0.00000000000E+00 -0.00000000000E+00 -0.66586871775E+03  0.66586871775E+03  0.00000000000E+00 0. -1.
         35    2    1    2    0    0  0.00000000000E+00  0.00000000000E+00 -0.63753612731E+03  0.69420130818E+03  0.27470555628E+03 0.  0.
         25    1    3    3    0    0  0.14580815497E+02  0.85898575044E+01 -0.15539707229E+03  0.19706505502E+03  0.12000000000E+03 0.  0.
         25    1    3    3    0    0 -0.14580815497E+02 -0.85898575044E+01 -0.48213905502E+03  0.49713625317E+03  0.12000000000E+03 0.  0.
<mgrwt>
<rscale>  0 0.27470556E+03</rscale>
<asrwt>0</asrwt>
<pdfrwt beam="1">  1        1 0.10244135E+00 0.27470556E+03</pdfrwt>
<pdfrwt beam="2">  1       -1 0.43588596E-02 0.27470556E+03</pdfrwt>
<totfact> 0.65377986E+03</totfact>
</mgrwt>
</event>
<event>
 5    1  0.1162308E+001  0.2746949E+03  0.7818608E-02  0.1098622E+00
          2   -1    0    0  501    0  0.00000000000E+00  0.00000000000E+00  0.54826690031E+03  0.54826690031E+03  0.00000000000E+00 0.  1.
         -2   -1    0    0    0  501 -0.00000000000E+00 -0.00000000000E+00 -0.34407186840E+02  0.34407186840E+02  0.00000000000E+00 0.  1.
         35    2    1    2    0    0  0.00000000000E+00  0.00000000000E+00  0.51385971347E+03  0.58267408715E+03  0.27469489749E+03 0.  0.
         25    1    3    3    0    0  0.32520040231E+02  0.86940027998E+01  0.37935605297E+03  0.39930458754E+03  0.12000000000E+03 0.  0.
         25    1    3    3    0    0 -0.32520040231E+02 -0.86940027998E+01  0.13450366050E+03  0.18336949962E+03  0.12000000000E+03 0.  0.
<mgrwt>
<rscale>  0 0.27469490E+03</rscale>
<asrwt>0</asrwt>
<pdfrwt beam="1">  1        2 0.84348747E-01 0.27469490E+03</pdfrwt>
<pdfrwt beam="2">  1       -2 0.52934138E-02 0.27469490E+03</pdfrwt>
<totfact> 0.10001556E+04</totfact>
</mgrwt>
</event>
<event>
 5    1  0.1162308E+001  0.2742749E+03  0.7818608E-02  0.1098858E+00
         -2   -1    0    0    0  501 -0.00000000000E+00  0.00000000000E+00  0.19001602602E+03  0.19001602602E+03  0.00000000000E+00 0.  1.
          2   -1    0    0  501    0  0.00000000000E+00 -0.00000000000E+00 -0.98974178170E+02  0.98974178170E+02  0.00000000000E+00 0.  1.
         35    2    1    2    0    0  0.00000000000E+00  0.00000000000E+00  0.91041847851E+02  0.28899020419E+03  0.27427489870E+03 0.  0.
         25    1    3    3    0    0  0.37194891255E+02 -0.54942281021E+02  0.43269500514E+02  0.14378582633E+03  0.12000000000E+03 0.  0.
         25    1    3    3    0    0 -0.37194891255E+02  0.54942281021E+02  0.47772347337E+02  0.14520437786E+03  0.12000000000E+03 0.  0.
<mgrwt>
<rscale>  0 0.27427490E+03</rscale>
<asrwt>0</asrwt>
<pdfrwt beam="1">  1        2 0.15226797E-01 0.27427490E+03</pdfrwt>
<pdfrwt beam="2">  1       -2 0.29233235E-01 0.27427490E+03</pdfrwt>
<totfact> 0.40803483E+03</totfact>
</mgrwt>
</event>
<event>
 5    1  0.1162308E+001  0.2747565E+03  0.7818608E-02  0.1098588E+00
         -2   -1    0    0    0  501 -0.00000000000E+00  0.00000000000E+00  0.86755849068E+01  0.86755849068E+01  0.00000000000E+00 0. -1.
          2   -1    0    0  501    0  0.00000000000E+00 -0.00000000000E+00 -0.21753910820E+04  0.21753910820E+04  0.00000000000E+00 0. -1.
         35    2    1    2    0    0  0.00000000000E+00  0.00000000000E+00 -0.21667154971E+04  0.21840666669E+04  0.27475654706E+03 0.  0.
         25    1    3    3    0    0  0.26900703459E+02 -0.61226437721E+02 -0.10887813105E+04  0.10974138082E+04  0.12000000000E+03 0.  0.
         25    1    3    3    0    0 -0.26900703459E+02  0.61226437721E+02 -0.10779341866E+04  0.10866528587E+04  0.12000000000E+03 0.  0.
<mgrwt>
<rscale>  0 0.27475655E+03</rscale>
<asrwt>0</asrwt>
<pdfrwt beam="1">  1        2 0.33467556E+00 0.27475655E+03</pdfrwt>
<pdfrwt beam="2">  1       -2 0.13347053E-02 0.27475655E+03</pdfrwt>
<totfact> 0.83988576E+03</totfact>
</mgrwt>
</event>
<event>
 5    1  0.1162308E+001  0.2747528E+03  0.7818608E-02  0.1098590E+00
         -1   -1    0    0    0  501 -0.00000000000E+00  0.00000000000E+00  0.69705173496E+02  0.69705173496E+02  0.00000000000E+00 0.  1.
          1   -1    0    0  501    0  0.00000000000E+00 -0.00000000000E+00 -0.27074422205E+03  0.27074422205E+03  0.00000000000E+00 0.  1.
         35    2    1    2    0    0  0.00000000000E+00  0.00000000000E+00 -0.20103904855E+03  0.34044939554E+03  0.27475278321E+03 0.  0.
         25    1    3    3    0    0 -0.31274825182E+02 -0.49481367025E+02 -0.60449007535E+02  0.14656262445E+03  0.12000000000E+03 0.  0.
         25    1    3    3    0    0  0.31274825182E+02  0.49481367025E+02 -0.14059004101E+03  0.19388677109E+03  0.12000000000E+03 0.  0.
<mgrwt>
<rscale>  0 0.27475278E+03</rscale>
<asrwt>0</asrwt>
<pdfrwt beam="1">  1        1 0.41652957E-01 0.27475278E+03</pdfrwt>
<pdfrwt beam="2">  1       -1 0.10723873E-01 0.27475278E+03</pdfrwt>
<totfact> 0.54180190E+03</totfact>
</mgrwt>
</event>
<event>
 5    1  0.1162308E+001  0.2748998E+03  0.7818608E-02  0.1098508E+00
         -2   -1    0    0    0  501 -0.00000000000E+00  0.00000000000E+00  0.90665079880E+01  0.90665079880E+01  0.00000000000E+00 0.  1.
          2   -1    0    0  501    0  0.00000000000E+00 -0.00000000000E+00 -0.20837648390E+04  0.20837648390E+04  0.00000000000E+00 0.  1.
         35    2    1    2    0    0  0.00000000000E+00  0.00000000000E+00 -0.20746983310E+04  0.20928313470E+04  0.27489976761E+03 0.  0.
         25    1    3    3    0    0 -0.46488312929E+02 -0.25551398986E+02 -0.13492466746E+04  0.13556107945E+04  0.12000000000E+03 0.  0.
         25    1    3    3    0    0  0.46488312929E+02  0.25551398986E+02 -0.72545165644E+03  0.73722055252E+03  0.12000000000E+03 0.  0.
<mgrwt>
<rscale>  0 0.27489977E+03</rscale>
<asrwt>0</asrwt>
<pdfrwt beam="1">  1        2 0.32057947E+00 0.27489977E+03</pdfrwt>
<pdfrwt beam="2">  1       -2 0.13948462E-02 0.27489977E+03</pdfrwt>
<totfact> 0.88060577E+03</totfact>
</mgrwt>
</event>
<event>
 5    1  0.1162308E+001  0.2752749E+03  0.7818608E-02  0.1098298E+00
          2   -1    0    0  501    0  0.00000000000E+00  0.00000000000E+00  0.10176842385E+03  0.10176842385E+03  0.00000000000E+00 0.  1.
         -2   -1    0    0    0  501 -0.00000000000E+00 -0.00000000000E+00 -0.18614876479E+03  0.18614876479E+03  0.00000000000E+00 0.  1.
         35    2    1    2    0    0  0.00000000000E+00  0.00000000000E+00 -0.84380340945E+02  0.28791718864E+03  0.27527489093E+03 0.  0.
         25    1    3    3    0    0  0.58904501515E+02 -0.73304425100E+01 -0.87762989162E+01  0.13416593871E+03  0.12000000000E+03 0.  0.
         25    1    3    3    0    0 -0.58904501515E+02  0.73304425100E+01 -0.75604042029E+02  0.15375124994E+03  0.12000000000E+03 0.  0.
<mgrwt>
<rscale>  0 0.27527489E+03</rscale>
<asrwt>0</asrwt>
<pdfrwt beam="1">  1        2 0.15656681E-01 0.27527489E+03</pdfrwt>
<pdfrwt beam="2">  1       -2 0.28638272E-01 0.27527489E+03</pdfrwt>
<totfact> 0.40981585E+03</totfact>
</mgrwt>
</event>
<event>
 5    1  0.1162308E+001  0.2746299E+03  0.7818608E-02  0.1098659E+00
          2   -1    0    0  501    0  0.00000000000E+00  0.00000000000E+00  0.14624646324E+04  0.14624646324E+04  0.00000000000E+00 0.  1.
         -2   -1    0    0    0  501 -0.00000000000E+00 -0.00000000000E+00 -0.12892891924E+02  0.12892891924E+02  0.00000000000E+00 0.  1.
         35    2    1    2    0    0  0.00000000000E+00  0.00000000000E+00  0.14495717404E+04  0.14753575243E+04  0.27462992152E+03 0.  0.
         25    1    3    3    0    0  0.13895389633E+02 -0.54468389650E+02  0.91814736571E+03  0.92766075291E+03  0.12000000000E+03 0.  0.
         25    1    3    3    0    0 -0.13895389633E+02  0.54468389650E+02  0.53142437472E+03  0.54769677137E+03  0.12000000000E+03 0.  0.
<mgrwt>
<rscale>  0 0.27462992E+03</rscale>
<asrwt>0</asrwt>
<pdfrwt beam="1">  1        2 0.22499443E+00 0.27462992E+03</pdfrwt>
<pdfrwt beam="2">  1       -2 0.19835230E-02 0.27462992E+03</pdfrwt>
<totfact> 0.11184038E+04</totfact>
</mgrwt>
</event>
<event>
 5    1  0.1162308E+001  0.2751269E+03  0.7818608E-02  0.1098381E+00
          1   -1    0    0  501    0  0.00000000000E+00  0.00000000000E+00  0.10278920113E+03  0.10278920113E+03  0.00000000000E+00 0.  1.
         -1   -1    0    0    0  501 -0.00000000000E+00 -0.00000000000E+00 -0.18410207011E+03  0.18410207011E+03  0.00000000000E+00 0.  1.
         35    2    1    2    0    0  0.00000000000E+00  0.00000000000E+00 -0.81312868981E+02  0.28689127124E+03  0.27512691408E+03 0.  0.
         25    1    3    3    0    0 -0.67070113599E+02 -0.22880024770E+01 -0.35984961711E+02  0.14212161188E+03  0.12000000000E+03 0.  0.
         25    1    3    3    0    0  0.67070113599E+02  0.22880024770E+01 -0.45327907270E+02  0.14476965936E+03  0.12000000000E+03 0.  0.
<mgrwt>
<rscale>  0 0.27512691E+03</rscale>
<asrwt>0</asrwt>
<pdfrwt beam="1">  1        1 0.15813723E-01 0.27512691E+03</pdfrwt>
<pdfrwt beam="2">  1       -1 0.28323395E-01 0.27512691E+03</pdfrwt>
<totfact> 0.38956231E+03</totfact>
</mgrwt>
</event>
<event>
 5    1  0.1162308E+001  0.2749418E+03  0.7818608E-02  0.1098484E+00
         -2   -1    0    0    0  501 -0.00000000000E+00  0.00000000000E+00  0.53824984655E+02  0.53824984655E+02  0.00000000000E+00 0. -1.
          2   -1    0    0  501    0  0.00000000000E+00 -0.00000000000E+00 -0.35110559762E+03  0.35110559762E+03  0.00000000000E+00 0. -1.
         35    2    1    2    0    0  0.00000000000E+00  0.00000000000E+00 -0.29728061297E+03  0.40493058228E+03  0.27494183679E+03 0.  0.
         25    1    3    3    0    0 -0.61802107336E+02 -0.46444683318E+01 -0.18639600657E+03  0.23018371537E+03  0.12000000000E+03 0.  0.
         25    1    3    3    0    0  0.61802107336E+02  0.46444683318E+01 -0.11088460640E+03  0.17474686691E+03  0.12000000000E+03 0.  0.
<mgrwt>
<rscale>  0 0.27494184E+03</rscale>
<asrwt>0</asrwt>
<pdfrwt beam="1">  1        2 0.54016247E-01 0.27494184E+03</pdfrwt>
<pdfrwt beam="2">  1       -2 0.82807667E-02 0.27494184E+03</pdfrwt>
<totfact> 0.81890365E+03</totfact>
</mgrwt>
</event>
<event>
 5    1  0.1162308E+001  0.2757415E+03  0.7818608E-02  0.1098038E+00
          2   -1    0    0  501    0  0.00000000000E+00  0.00000000000E+00  0.51033363550E+03  0.51033363550E+03  0.00000000000E+00 0. -1.
         -2   -1    0    0    0  501 -0.00000000000E+00 -0.00000000000E+00 -0.37246900189E+02  0.37246900189E+02  0.00000000000E+00 0. -1.
         35    2    1    2    0    0  0.00000000000E+00  0.00000000000E+00  0.47308673531E+03  0.54758053569E+03  0.27574151653E+03 0.  0.
         25    1    3    3    0    0  0.18890819931E+02  0.93527702687E+01  0.10839837187E+03  0.16307833827E+03  0.12000000000E+03 0.  0.
         25    1    3    3    0    0 -0.18890819931E+02 -0.93527702687E+01  0.36468836344E+03  0.38450219742E+03  0.12000000000E+03 0.  0.
<mgrwt>
<rscale>  0 0.27574152E+03</rscale>
<asrwt>0</asrwt>
<pdfrwt beam="1">  1        2 0.78512862E-01 0.27574152E+03</pdfrwt>
<pdfrwt beam="2">  1       -2 0.57302927E-02 0.27574152E+03</pdfrwt>
<totfact> 0.96101669E+03</totfact>
</mgrwt>
</event>
<event>
 5    1  0.1162308E+001  0.2746313E+03  0.7818608E-02  0.1098658E+00
         -2   -1    0    0    0  501 -0.00000000000E+00  0.00000000000E+00  0.23665637792E+02  0.23665637792E+02  0.00000000000E+00 0. -1.
          2   -1    0    0  501    0  0.00000000000E+00 -0.00000000000E+00 -0.79674943672E+03  0.79674943672E+03  0.00000000000E+00 0. -1.
         35    2    1    2    0    0  0.00000000000E+00  0.00000000000E+00 -0.77308379893E+03  0.82041507451E+03  0.27463126974E+03 0.  0.
         25    1    3    3    0    0 -0.50943007880E+02 -0.21528903943E+02 -0.27488995831E+03  0.30499700480E+03  0.12000000000E+03 0.  0.
         25    1    3    3    0    0  0.50943007880E+02  0.21528903943E+02 -0.49819384061E+03  0.51541806971E+03  0.12000000000E+03 0.  0.
<mgrwt>
<rscale>  0 0.27463127E+03</rscale>
<asrwt>0</asrwt>
<pdfrwt beam="1">  1        2 0.12257683E+00 0.27463127E+03</pdfrwt>
<pdfrwt beam="2">  1       -2 0.36408677E-02 0.27463127E+03</pdfrwt>
<totfact> 0.11256474E+04</totfact>
</mgrwt>
</event>
<event>
 5    1  0.1162308E+001  0.2750397E+03  0.7818608E-02  0.1098429E+00
          2   -1    0    0  501    0  0.00000000000E+00  0.00000000000E+00  0.15458942768E+03  0.15458942768E+03  0.00000000000E+00 0. -1.
         -2   -1    0    0    0  501 -0.00000000000E+00 -0.00000000000E+00 -0.12233506266E+03  0.12233506266E+03  0.00000000000E+00 0. -1.
         35    2    1    2    0    0  0.00000000000E+00  0.00000000000E+00  0.32254365016E+02  0.27692449034E+03  0.27503968675E+03 0.  0.
         25    1    3    3    0    0  0.81102323345E+01  0.53974322597E+02 -0.23290867774E+02  0.13387108683E+03  0.12000000000E+03 0.  0.
         25    1    3    3    0    0 -0.81102323345E+01 -0.53974322597E+02  0.55545232790E+02  0.14305340350E+03  0.12000000000E+03 0.  0.
<mgrwt>
<rscale>  0 0.27503969E+03</rscale>
<asrwt>0</asrwt>
<pdfrwt beam="1">  1        2 0.23782989E-01 0.27503969E+03</pdfrwt>
<pdfrwt beam="2">  1       -2 0.18820779E-01 0.27503969E+03</pdfrwt>
<totfact> 0.52744783E+03</totfact>
</mgrwt>
</event>
<event>
 5    1  0.1162308E+001  0.2747894E+03  0.7818608E-02  0.1098569E+00
         -2   -1    0    0    0  501 -0.00000000000E+00  0.00000000000E+00  0.96341827440E+02  0.96341827440E+02  0.00000000000E+00 0. -1.
          2   -1    0    0  501    0  0.00000000000E+00 -0.00000000000E+00 -0.19594088573E+03  0.19594088573E+03  0.00000000000E+00 0. -1.
         35    2    1    2    0    0  0.00000000000E+00  0.00000000000E+00 -0.99599058291E+02  0.29228271317E+03  0.27478939573E+03 0.  0.
         25    1    3    3    0    0  0.36596629544E+02  0.27990055127E+02 -0.10141225531E+03  0.16372905059E+03  0.12000000000E+03 0.  0.
         25    1    3    3    0    0 -0.36596629544E+02 -0.27990055127E+02  0.18131970157E+01  0.12855366258E+03  0.12000000000E+03 0.  0.
<mgrwt>
<rscale>  0 0.27478940E+03</rscale>
<asrwt>0</asrwt>
<pdfrwt beam="1">  1        2 0.30144751E-01 0.27478940E+03</pdfrwt>
<pdfrwt beam="2">  1       -2 0.14821820E-01 0.27478940E+03</pdfrwt>
<totfact> 0.60454099E+03</totfact>
</mgrwt>
</event>
<event>
 5    1  0.1162308E+001  0.2739179E+03  0.7818608E-02  0.1099058E+00
          1   -1    0    0  501    0  0.00000000000E+00  0.00000000000E+00  0.20339530585E+03  0.20339530585E+03  0.00000000000E+00 0.  1.
         -1   -1    0    0    0  501 -0.00000000000E+00 -0.00000000000E+00 -0.92223139671E+02  0.92223139671E+02  0.00000000000E+00 0.  1.
         35    2    1    2    0    0  0.00000000000E+00  0.00000000000E+00  0.11117216618E+03  0.29561844552E+03  0.27391789792E+03 0.  0.
         25    1    3    3    0    0 -0.52467948560E+01 -0.38469470061E+02 -0.20319313663E+01  0.12614102318E+03  0.12000000000E+03 0.  0.
         25    1    3    3    0    0  0.52467948560E+01  0.38469470061E+02  0.11320409754E+03  0.16947742234E+03  0.12000000000E+03 0.  0.
<mgrwt>
<rscale>  0 0.27391790E+03</rscale>
<asrwt>0</asrwt>
<pdfrwt beam="1">  1        1 0.31291585E-01 0.27391790E+03</pdfrwt>
<pdfrwt beam="2">  1       -1 0.14188175E-01 0.27391790E+03</pdfrwt>
<totfact> 0.50070270E+03</totfact>
</mgrwt>
</event>
<event>
 5    1  0.1162308E+001  0.2744118E+03  0.7818608E-02  0.1098781E+00
          2   -1    0    0  501    0  0.00000000000E+00  0.00000000000E+00  0.66137913681E+02  0.66137913681E+02  0.00000000000E+00 0.  1.
         -2   -1    0    0    0  501 -0.00000000000E+00 -0.00000000000E+00 -0.28463939945E+03  0.28463939945E+03  0.00000000000E+00 0.  1.
         35    2    1    2    0    0  0.00000000000E+00  0.00000000000E+00 -0.21850148576E+03  0.35077731313E+03  0.27441177840E+03 0.  0.
         25    1    3    3    0    0 -0.18966797155E+02 -0.34338301506E+01 -0.27861571383E+02  0.12469080858E+03  0.12000000000E+03 0.  0.
         25    1    3    3    0    0  0.18966797155E+02  0.34338301506E+01 -0.19063991438E+03  0.22608650455E+03  0.12000000000E+03 0.  0.
<mgrwt>
<rscale>  0 0.27441178E+03</rscale>
<asrwt>0</asrwt>
<pdfrwt beam="1">  1        2 0.10175064E-01 0.27441178E+03</pdfrwt>
<pdfrwt beam="2">  1       -2 0.43790677E-01 0.27441178E+03</pdfrwt>
<totfact> 0.31200485E+03</totfact>
</mgrwt>
</event>
<event>
 5    1  0.1162308E+001  0.2739445E+03  0.7818608E-02  0.1099043E+00
          3   -1    0    0  501    0  0.00000000000E+00  0.00000000000E+00  0.34677107890E+02  0.34677107890E+02  0.00000000000E+00 0.  1.
         -3   -1    0    0    0  501 -0.00000000000E+00 -0.00000000000E+00 -0.54103103825E+03  0.54103103825E+03  0.00000000000E+00 0.  1.
         35    2    1    2    0    0  0.00000000000E+00  0.00000000000E+00 -0.50635393036E+03  0.57570814614E+03  0.27394445923E+03 0.  0.
         25    1    3    3    0    0  0.25839704236E+02  0.22834511606E+02 -0.37154271453E+03  0.39196057704E+03  0.12000000000E+03 0.  0.
         25    1    3    3    0    0 -0.25839704236E+02 -0.22834511606E+02 -0.13481121583E+03  0.18374756910E+03  0.12000000000E+03 0.  0.
<mgrwt>
<rscale>  0 0.27394446E+03</rscale>
<asrwt>0</asrwt>
<pdfrwt beam="1">  1        3 0.53349401E-02 0.27394446E+03</pdfrwt>
<pdfrwt beam="2">  1       -3 0.83235537E-01 0.27394446E+03</pdfrwt>
<totfact> 0.71299924E+02</totfact>
</mgrwt>
</event>
<event>
 5    1  0.1162308E+001  0.2742905E+03  0.7818608E-02  0.1098849E+00
          1   -1    0    0  501    0  0.00000000000E+00  0.00000000000E+00  0.32853016475E+03  0.32853016475E+03  0.00000000000E+00 0.  1.
         -1   -1    0    0    0  501 -0.00000000000E+00 -0.00000000000E+00 -0.57251436558E+02  0.57251436558E+02  0.00000000000E+00 0.  1.
         35    2    1    2    0    0  0.00000000000E+00  0.00000000000E+00  0.27127872819E+03  0.38578160131E+03  0.27429053126E+03 0.  0.
         25    1    3    3    0    0 -0.46130098776E+02 -0.30311440350E+02  0.83732124806E+02  0.15639001935E+03  0.12000000000E+03 0.  0.
         25    1    3    3    0    0  0.46130098776E+02  0.30311440350E+02  0.18754660338E+03  0.22939158195E+03  0.12000000000E+03 0.  0.
<mgrwt>
<rscale>  0 0.27429053E+03</rscale>
<asrwt>0</asrwt>
<pdfrwt beam="1">  1        1 0.50543101E-01 0.27429053E+03</pdfrwt>
<pdfrwt beam="2">  1       -1 0.88079135E-02 0.27429053E+03</pdfrwt>
<totfact> 0.57548907E+03</totfact>
</mgrwt>
</event>
<event>
 5    1  0.1162308E+001  0.2753307E+03  0.7818608E-02  0.1098267E+00
          2   -1    0    0  501    0  0.00000000000E+00  0.00000000000E+00  0.29226139141E+04  0.29226139141E+04  0.00000000000E+00 0. -1.
         -2   -1    0    0    0  501 -0.00000000000E+00 -0.00000000000E+00 -0.64845222260E+01  0.64845222260E+01  0.00000000000E+00 0. -1.
         35    2    1    2    0    0  0.00000000000E+00  0.00000000000E+00  0.29161293919E+04  0.29290984363E+04  0.27533074572E+03 0.  0.
         25    1    3    3    0    0  0.36415003421E+02 -0.48177706049E+02  0.17780353877E+04  0.17831031893E+04  0.12000000000E+03 0.  0.
         25    1    3    3    0    0 -0.36415003421E+02  0.48177706049E+02  0.11380940042E+04  0.11459952471E+04  0.12000000000E+03 0.  0.
<mgrwt>
<rscale>  0 0.27533075E+03</rscale>
<asrwt>0</asrwt>
<pdfrwt beam="1">  1        2 0.44963186E+00 0.27533075E+03</pdfrwt>
<pdfrwt beam="2">  1       -2 0.99762114E-03 0.27533075E+03</pdfrwt>
<totfact> 0.49508212E+03</totfact>
</mgrwt>
</event>
<event>
 5    1  0.1162308E+001  0.2746836E+03  0.7818608E-02  0.1098629E+00
         -2   -1    0    0    0  501 -0.00000000000E+00  0.00000000000E+00  0.37473759427E+01  0.37473759427E+01  0.00000000000E+00 0.  1.
          2   -1    0    0  501    0  0.00000000000E+00 -0.00000000000E+00 -0.50335943030E+04  0.50335943030E+04  0.00000000000E+00 0.  1.
         35    2    1    2    0    0  0.00000000000E+00  0.00000000000E+00 -0.50298469271E+04  0.50373416789E+04  0.27468360123E+03 0.  0.
         25    1    3    3    0    0 -0.66671782252E+02  0.18153555769E+01 -0.24454584131E+04  0.24493091419E+04  0.12000000000E+03 0.  0.
         25    1    3    3    0    0  0.66671782252E+02 -0.18153555769E+01 -0.25843885139E+04  0.25880325371E+04  0.12000000000E+03 0.  0.
<mgrwt>
<rscale>  0 0.27468360E+03</rscale>
<asrwt>0</asrwt>
<pdfrwt beam="1">  1        2 0.77440009E+00 0.27468360E+03</pdfrwt>
<pdfrwt beam="2">  1       -2 0.57651866E-03 0.27468360E+03</pdfrwt>
<totfact> 0.21806427E+02</totfact>
</mgrwt>
</event>
<event>
 5    1  0.1162308E+001  0.2739787E+03  0.7818608E-02  0.1099024E+00
          2   -1    0    0  501    0  0.00000000000E+00  0.00000000000E+00  0.10157812636E+04  0.10157812636E+04  0.00000000000E+00 0. -1.
         -2   -1    0    0    0  501 -0.00000000000E+00 -0.00000000000E+00 -0.18474536130E+02  0.18474536130E+02  0.00000000000E+00 0. -1.
         35    2    1    2    0    0  0.00000000000E+00  0.00000000000E+00  0.99730672747E+03  0.10342557997E+04  0.27397874118E+03 0.  0.
         25    1    3    3    0    0 -0.40967565652E+02  0.51524813453E+02  0.52031901248E+03  0.53801953736E+03  0.12000000000E+03 0.  0.
         25    1    3    3    0    0  0.40967565652E+02 -0.51524813453E+02  0.47698771499E+03  0.49623626237E+03  0.12000000000E+03 0.  0.
<mgrwt>
<rscale>  0 0.27397874E+03</rscale>
<asrwt>0</asrwt>
<pdfrwt beam="1">  1        2 0.15627400E+00 0.27397874E+03</pdfrwt>
<pdfrwt beam="2">  1       -2 0.28422371E-02 0.27397874E+03</pdfrwt>
<totfact> 0.11758600E+04</totfact>
</mgrwt>
</event>
<event>
 5    1  0.1162308E+001  0.2742019E+03  0.7818608E-02  0.1098899E+00
          2   -1    0    0  501    0  0.00000000000E+00  0.00000000000E+00  0.88223363517E+02  0.88223363517E+02  0.00000000000E+00 0. -1.
         -2   -1    0    0    0  501 -0.00000000000E+00 -0.00000000000E+00 -0.21305768946E+03  0.21305768946E+03  0.00000000000E+00 0. -1.
         35    2    1    2    0    0  0.00000000000E+00  0.00000000000E+00 -0.12483432595E+03  0.30128105298E+03  0.27420186715E+03 0.  0.
         25    1    3    3    0    0 -0.12053521229E+02  0.42265566382E+02 -0.11696906779E+03  0.17324384057E+03  0.12000000000E+03 0.  0.
         25    1    3    3    0    0  0.12053521229E+02 -0.42265566382E+02 -0.78652581533E+01  0.12803721241E+03  0.12000000000E+03 0.  0.
<mgrwt>
<rscale>  0 0.27420187E+03</rscale>
<asrwt>0</asrwt>
<pdfrwt beam="1">  1        2 0.13572825E-01 0.27420187E+03</pdfrwt>
<pdfrwt beam="2">  1       -2 0.32778106E-01 0.27420187E+03</pdfrwt>
<totfact> 0.37970342E+03</totfact>
</mgrwt>
</event>
<event>
 5    1  0.1162308E+001  0.2751219E+03  0.7818608E-02  0.1098383E+00
          1   -1    0    0  501    0  0.00000000000E+00  0.00000000000E+00  0.17760162348E+04  0.17760162348E+04  0.00000000000E+00 0.  1.
         -1   -1    0    0    0  501 -0.00000000000E+00 -0.00000000000E+00 -0.10654755889E+02  0.10654755889E+02  0.00000000000E+00 0.  1.
         35    2    1    2    0    0  0.00000000000E+00  0.00000000000E+00  0.17653614789E+04  0.17866709906E+04  0.27512193251E+03 0.  0.
         25    1    3    3    0    0  0.33252398603E+02  0.58226631217E+02  0.84896335574E+03  0.86002025673E+03  0.12000000000E+03 0.  0.
         25    1    3    3    0    0 -0.33252398603E+02 -0.58226631217E+02  0.91639812312E+03  0.92665073391E+03  0.12000000000E+03 0.  0.
<mgrwt>
<rscale>  0 0.27512193E+03</rscale>
<asrwt>0</asrwt>
<pdfrwt beam="1">  1        1 0.27323303E+00 0.27512193E+03</pdfrwt>
<pdfrwt beam="2">  1       -1 0.16391946E-02 0.27512193E+03</pdfrwt>
<totfact> 0.43255766E+03</totfact>
</mgrwt>
</event>
<event>
 5    1  0.1162308E+001  0.2767437E+03  0.7818608E-02  0.1097481E+00
          2   -1    0    0  501    0  0.00000000000E+00  0.00000000000E+00  0.16730715492E+03  0.16730715492E+03  0.00000000000E+00 0.  1.
         -2   -1    0    0    0  501 -0.00000000000E+00 -0.00000000000E+00 -0.11444086147E+03  0.11444086147E+03  0.00000000000E+00 0.  1.
         35    2    1    2    0    0  0.00000000000E+00  0.00000000000E+00  0.52866293448E+02  0.28174801639E+03  0.27674374384E+03 0.  0.
         25    1    3    3    0    0  0.32437978703E+02  0.60159989872E+02  0.35269265572E+02  0.14253198917E+03  0.12000000000E+03 0.  0.
         25    1    3    3    0    0 -0.32437978703E+02 -0.60159989872E+02  0.17597027876E+02  0.13921602722E+03  0.12000000000E+03 0.  0.
<mgrwt>
<rscale>  0 0.27674374E+03</rscale>
<asrwt>0</asrwt>
<pdfrwt beam="1">  1        2 0.25739562E-01 0.27674374E+03</pdfrwt>
<pdfrwt beam="2">  1       -2 0.17606286E-01 0.27674374E+03</pdfrwt>
<totfact> 0.54051441E+03</totfact>
</mgrwt>
</event>
<event>
 5    1  0.1162308E+001  0.2750301E+03  0.7818608E-02  0.1098435E+00
         -2   -1    0    0    0  501 -0.00000000000E+00  0.00000000000E+00  0.14538411420E+02  0.14538411420E+02  0.00000000000E+00 0. -1.
          2   -1    0    0  501    0  0.00000000000E+00 -0.00000000000E+00 -0.13007192044E+04  0.13007192044E+04  0.00000000000E+00 0. -1.
         35    2    1    2    0    0  0.00000000000E+00  0.00000000000E+00 -0.12861807930E+04  0.13152576158E+04  0.27503011425E+03 0.  0.
         25    1    3    3    0    0  0.45653706169E+02  0.32774667087E+02 -0.81892773080E+03  0.82957884976E+03  0.12000000000E+03 0.  0.
         25    1    3    3    0    0 -0.45653706169E+02 -0.32774667087E+02 -0.46725306219E+03  0.48567876608E+03  0.12000000000E+03 0.  0.
<mgrwt>
<rscale>  0 0.27503011E+03</rscale>
<asrwt>0</asrwt>
<pdfrwt beam="1">  1        2 0.20011059E+00 0.27503011E+03</pdfrwt>
<pdfrwt beam="2">  1       -2 0.22366793E-02 0.27503011E+03</pdfrwt>
<totfact> 0.11479771E+04</totfact>
</mgrwt>
</event>
<event>
 5    1  0.1162308E+001  0.2762003E+03  0.7818608E-02  0.1097783E+00
          1   -1    0    0  501    0  0.00000000000E+00  0.00000000000E+00  0.56777038089E+03  0.56777038089E+03  0.00000000000E+00 0.  1.
         -1   -1    0    0    0  501 -0.00000000000E+00 -0.00000000000E+00 -0.33590419440E+02  0.33590419440E+02  0.00000000000E+00 0.  1.
         35    2    1    2    0    0  0.00000000000E+00  0.00000000000E+00  0.53417996145E+03  0.60136080033E+03  0.27620025518E+03 0.  0.
         25    1    3    3    0    0 -0.12771124201E+02 -0.51626197407E+02  0.17361258150E+03  0.21764580016E+03  0.12000000000E+03 0.  0.
         25    1    3    3    0    0  0.12771124201E+02  0.51626197407E+02  0.36056737995E+03  0.38371500017E+03  0.12000000000E+03 0.  0.
<mgrwt>
<rscale>  0 0.27620026E+03</rscale>
<asrwt>0</asrwt>
<pdfrwt beam="1">  1        1 0.87349282E-01 0.27620026E+03</pdfrwt>
<pdfrwt beam="2">  1       -1 0.51677572E-02 0.27620026E+03</pdfrwt>
<totfact> 0.63359290E+03</totfact>
</mgrwt>
</event>
<event>
 5    1  0.1162308E+001  0.2841646E+03  0.7818608E-02  0.1093436E+00
          3   -1    0    0  501    0  0.00000000000E+00  0.00000000000E+00  0.24618850502E+03  0.24618850502E+03  0.00000000000E+00 0.  1.
         -3   -1    0    0    0  501 -0.00000000000E+00 -0.00000000000E+00 -0.81999689409E+02  0.81999689409E+02  0.00000000000E+00 0.  1.
         35    2    1    2    0    0  0.00000000000E+00  0.00000000000E+00  0.16418881561E+03  0.32818819443E+03  0.28416460686E+03 0.  0.
         25    1    3    3    0    0 -0.69042415676E+02 -0.23461960797E+02  0.57054621093E+02  0.15156697713E+03  0.12000000000E+03 0.  0.
         25    1    3    3    0    0  0.69042415676E+02  0.23461960797E+02  0.10713419452E+03  0.17662121730E+03  0.12000000000E+03 0.  0.
<mgrwt>
<rscale>  0 0.28416461E+03</rscale>
<asrwt>0</asrwt>
<pdfrwt beam="1">  1        3 0.37875154E-01 0.28416461E+03</pdfrwt>
<pdfrwt beam="2">  1       -3 0.12615337E-01 0.28416461E+03</pdfrwt>
<totfact> 0.87913307E+02</totfact>
</mgrwt>
</event>
<event>
 5    1  0.1162308E+001  0.2779855E+03  0.7818608E-02  0.1096794E+00
         -1   -1    0    0    0  501 -0.00000000000E+00  0.00000000000E+00  0.11558615990E+03  0.11558615990E+03  0.00000000000E+00 0.  1.
          1   -1    0    0  501    0  0.00000000000E+00 -0.00000000000E+00 -0.16713923812E+03  0.16713923812E+03  0.00000000000E+00 0.  1.
         35    2    1    2    0    0  0.00000000000E+00  0.00000000000E+00 -0.51553078218E+02  0.28272539802E+03  0.27798548670E+03 0.  0.
         25    1    3    3    0    0  0.28561520216E+02  0.35772679645E+02 -0.79819544648E+02  0.15121707825E+03  0.12000000000E+03 0.  0.
         25    1    3    3    0    0 -0.28561520216E+02 -0.35772679645E+02  0.28266466430E+02  0.13150831978E+03  0.12000000000E+03 0.  0.
<mgrwt>
<rscale>  0 0.27798549E+03</rscale>
<asrwt>0</asrwt>
<pdfrwt beam="1">  1        1 0.25713729E-01 0.27798549E+03</pdfrwt>
<pdfrwt beam="2">  1       -1 0.17782486E-01 0.27798549E+03</pdfrwt>
<totfact> 0.44805405E+03</totfact>
</mgrwt>
</event>
<event>
 5    1  0.1162308E+001  0.2751283E+03  0.7818608E-02  0.1098380E+00
         -2   -1    0    0    0  501 -0.00000000000E+00  0.00000000000E+00  0.76203461614E+02  0.76203461614E+02  0.00000000000E+00 0.  1.
          2   -1    0    0  501    0  0.00000000000E+00 -0.00000000000E+00 -0.24833383607E+03  0.24833383607E+03  0.00000000000E+00 0.  1.
         35    2    1    2    0    0  0.00000000000E+00  0.00000000000E+00 -0.17213037445E+03  0.32453729768E+03  0.27512831875E+03 0.  0.
         25    1    3    3    0    0  0.12706062776E+02 -0.65844825462E+02 -0.79945780036E+02  0.15902299462E+03  0.12000000000E+03 0.  0.
         25    1    3    3    0    0 -0.12706062776E+02  0.65844825462E+02 -0.92184594419E+02  0.16551430307E+03  0.12000000000E+03 0.  0.
<mgrwt>
<rscale>  0 0.27512832E+03</rscale>
<asrwt>0</asrwt>
<pdfrwt beam="1">  1        2 0.38205205E-01 0.27512832E+03</pdfrwt>
<pdfrwt beam="2">  1       -2 0.11723610E-01 0.27512832E+03</pdfrwt>
<totfact> 0.68463488E+03</totfact>
</mgrwt>
</event>
<event>
 5    1  0.1162308E+001  0.2752778E+03  0.7818608E-02  0.1098296E+00
         -2   -1    0    0    0  501 -0.00000000000E+00  0.00000000000E+00  0.28173887784E+02  0.28173887784E+02  0.00000000000E+00 0.  1.
          2   -1    0    0  501    0  0.00000000000E+00 -0.00000000000E+00 -0.67241202063E+03  0.67241202063E+03  0.00000000000E+00 0.  1.
         35    2    1    2    0    0  0.00000000000E+00  0.00000000000E+00 -0.64423813284E+03  0.70058590841E+03  0.27527775656E+03 0.  0.
         25    1    3    3    0    0  0.16448150398E+02 -0.64518604155E+02 -0.29527321785E+03  0.32560630386E+03  0.12000000000E+03 0.  0.
         25    1    3    3    0    0 -0.16448150398E+02  0.64518604155E+02 -0.34896491499E+03  0.37497960455E+03  0.12000000000E+03 0.  0.
<mgrwt>
<rscale>  0 0.27527776E+03</rscale>
<asrwt>0</asrwt>
<pdfrwt beam="1">  1        2 0.10344800E+00 0.27527776E+03</pdfrwt>
<pdfrwt beam="2">  1       -2 0.43344444E-02 0.27527776E+03</pdfrwt>
<totfact> 0.10675406E+04</totfact>
</mgrwt>
</event>
<event>
 5    1  0.1162308E+001  0.2747116E+03  0.7818608E-02  0.1098613E+00
          2   -1    0    0  501    0  0.00000000000E+00  0.00000000000E+00  0.22883538545E+04  0.22883538545E+04  0.00000000000E+00 0.  1.
         -2   -1    0    0    0  501 -0.00000000000E+00 -0.00000000000E+00 -0.82446241038E+01  0.82446241038E+01  0.00000000000E+00 0.  1.
         35    2    1    2    0    0  0.00000000000E+00  0.00000000000E+00  0.22801092304E+04  0.22965984786E+04  0.27471161131E+03 0.  0.
         25    1    3    3    0    0 -0.52894621960E+02  0.39689849702E+01  0.14799517994E+04  0.14857560104E+04  0.12000000000E+03 0.  0.
         25    1    3    3    0    0  0.52894621960E+02 -0.39689849702E+01  0.80015743097E+03  0.81084246819E+03  0.12000000000E+03 0.  0.
<mgrwt>
<rscale>  0 0.27471161E+03</rscale>
<asrwt>0</asrwt>
<pdfrwt beam="1">  1        2 0.35205393E+00 0.27471161E+03</pdfrwt>
<pdfrwt beam="2">  1       -2 0.12684055E-02 0.27471161E+03</pdfrwt>
<totfact> 0.78752035E+03</totfact>
</mgrwt>
</event>
<event>
 5    1  0.1162308E+001  0.2749173E+03  0.7818608E-02  0.1098498E+00
         -2   -1    0    0    0  501 -0.00000000000E+00  0.00000000000E+00  0.54637461291E+03  0.54637461291E+03  0.00000000000E+00 0. -1.
          2   -1    0    0  501    0  0.00000000000E+00 -0.00000000000E+00 -0.34582291061E+02  0.34582291061E+02  0.00000000000E+00 0. -1.
         35    2    1    2    0    0  0.00000000000E+00  0.00000000000E+00  0.51179232185E+03  0.58095690397E+03  0.27491733952E+03 0.  0.
         25    1    3    3    0    0 -0.63306132576E+02 -0.19375176895E+02  0.27824244907E+03  0.31016435057E+03  0.12000000000E+03 0.  0.
         25    1    3    3    0    0  0.63306132576E+02  0.19375176895E+02  0.23354987278E+03  0.27079255340E+03  0.12000000000E+03 0.  0.
<mgrwt>
<rscale>  0 0.27491734E+03</rscale>
<asrwt>0</asrwt>
<pdfrwt beam="1">  1        2 0.53203529E-02 0.27491734E+03</pdfrwt>
<pdfrwt beam="2">  1       -2 0.84057626E-01 0.27491734E+03</pdfrwt>
<totfact> 0.18436184E+03</totfact>
</mgrwt>
</event>
<event>
 5    1  0.1162308E+001  0.2751888E+03  0.7818608E-02  0.1098346E+00
         -2   -1    0    0    0  501 -0.00000000000E+00  0.00000000000E+00  0.51310891025E+02  0.51310891025E+02  0.00000000000E+00 0. -1.
          2   -1    0    0  501    0  0.00000000000E+00 -0.00000000000E+00 -0.36897069311E+03  0.36897069311E+03  0.00000000000E+00 0. -1.
         35    2    1    2    0    0  0.00000000000E+00  0.00000000000E+00 -0.31765980209E+03  0.42028158413E+03  0.27518877176E+03 0.  0.
         25    1    3    3    0    0 -0.55061512348E+02  0.36013667221E+02 -0.18061451517E+03  0.22660617260E+03  0.12000000000E+03 0.  0.
         25    1    3    3    0    0  0.55061512348E+02 -0.36013667221E+02 -0.13704528692E+03  0.19367541154E+03  0.12000000000E+03 0.  0.
<mgrwt>
<rscale>  0 0.27518877E+03</rscale>
<asrwt>0</asrwt>
<pdfrwt beam="1">  1        2 0.56764723E-01 0.27518877E+03</pdfrwt>
<pdfrwt beam="2">  1       -2 0.78939831E-02 0.27518877E+03</pdfrwt>
<totfact> 0.83642842E+03</totfact>
</mgrwt>
</event>
<event>
 5    1  0.1162308E+001  0.2754198E+03  0.7818608E-02  0.1098217E+00
         -2   -1    0    0    0  501 -0.00000000000E+00  0.00000000000E+00  0.64435972324E+02  0.64435972324E+02  0.00000000000E+00 0.  1.
          2   -1    0    0  501    0  0.00000000000E+00 -0.00000000000E+00 -0.29430796137E+03  0.29430796137E+03  0.00000000000E+00 0.  1.
         35    2    1    2    0    0  0.00000000000E+00  0.00000000000E+00 -0.22987198905E+03  0.35874393370E+03  0.27541982248E+03 0.  0.
         25    1    3    3    0    0 -0.27879193572E+02 -0.51899169998E+01 -0.35067818942E+02  0.12819491643E+03  0.12000000000E+03 0.  0.
         25    1    3    3    0    0  0.27879193572E+02  0.51899169998E+01 -0.19480417011E+03  0.23054901727E+03  0.12000000000E+03 0.  0.
<mgrwt>
<rscale>  0 0.27541982E+03</rscale>
<asrwt>0</asrwt>
<pdfrwt beam="1">  1        2 0.45278148E-01 0.27541982E+03</pdfrwt>
<pdfrwt beam="2">  1       -2 0.99132265E-02 0.27541982E+03</pdfrwt>
<totfact> 0.74566608E+03</totfact>
</mgrwt>
</event>
<event>
 5    1  0.1162308E+001  0.2756391E+03  0.7818608E-02  0.1098095E+00
          2   -1    0    0  501    0  0.00000000000E+00  0.00000000000E+00  0.56111179408E+02  0.56111179408E+02  0.00000000000E+00 0.  1.
         -2   -1    0    0    0  501 -0.00000000000E+00 -0.00000000000E+00 -0.33851049362E+03  0.33851049362E+03  0.00000000000E+00 0.  1.
         35    2    1    2    0    0  0.00000000000E+00  0.00000000000E+00 -0.28239931421E+03  0.39462167303E+03  0.27563906137E+03 0.  0.
         25    1    3    3    0    0 -0.24756243144E+02 -0.33654471960E+02 -0.21761237757E+03  0.25199333707E+03  0.12000000000E+03 0.  0.
         25    1    3    3    0    0  0.24756243144E+02  0.33654471960E+02 -0.64786936641E+02  0.14262833595E+03  0.12000000000E+03 0.  0.
<mgrwt>
<rscale>  0 0.27563906E+03</rscale>
<asrwt>0</asrwt>
<pdfrwt beam="1">  1        2 0.86324891E-02 0.27563906E+03</pdfrwt>
<pdfrwt beam="2">  1       -2 0.52078538E-01 0.27563906E+03</pdfrwt>
<totfact> 0.27209354E+03</totfact>
</mgrwt>
</event>
<event>
 5    1  0.1162308E+001  0.2750519E+03  0.7818608E-02  0.1098423E+00
         -1   -1    0    0    0  501 -0.00000000000E+00  0.00000000000E+00  0.63623298751E+03  0.63623298751E+03  0.00000000000E+00 0.  1.
          1   -1    0    0  501    0  0.00000000000E+00 -0.00000000000E+00 -0.29727147779E+02  0.29727147779E+02  0.00000000000E+00 0.  1.
         35    2    1    2    0    0  0.00000000000E+00  0.00000000000E+00  0.60650583973E+03  0.66596013529E+03  0.27505193721E+03 0.  0.
         25    1    3    3    0    0  0.15266804837E+02  0.35234675563E+02  0.16978188180E+03  0.21142479769E+03  0.12000000000E+03 0.  0.
         25    1    3    3    0    0 -0.15266804837E+02 -0.35234675563E+02  0.43672395793E+03  0.45453533760E+03  0.12000000000E+03 0.  0.
<mgrwt>
<rscale>  0 0.27505194E+03</rscale>
<asrwt>0</asrwt>
<pdfrwt beam="1">  1        1 0.45734079E-02 0.27505194E+03</pdfrwt>
<pdfrwt beam="2">  1       -1 0.97881987E-01 0.27505194E+03</pdfrwt>
<totfact> 0.19906898E+03</totfact>
</mgrwt>
</event>
<event>
 5    1  0.1162308E+001  0.2746454E+03  0.7818608E-02  0.1098650E+00
         -1   -1    0    0    0  501 -0.00000000000E+00  0.00000000000E+00  0.24104690408E+03  0.24104690408E+03  0.00000000000E+00 0.  1.
          1   -1    0    0  501    0  0.00000000000E+00 -0.00000000000E+00 -0.78231769759E+02  0.78231769759E+02  0.00000000000E+00 0.  1.
         35    2    1    2    0    0  0.00000000000E+00  0.00000000000E+00  0.16281513432E+03  0.31927867384E+03  0.27464541432E+03 0.  0.
         25    1    3    3    0    0  0.60309607482E+02  0.44451664191E+01  0.11429901664E+03  0.17641222595E+03  0.12000000000E+03 0.  0.
         25    1    3    3    0    0 -0.60309607482E+02 -0.44451664191E+01  0.48516117688E+02  0.14286644790E+03  0.12000000000E+03 0.  0.
<mgrwt>
<rscale>  0 0.27464541E+03</rscale>
<asrwt>0</asrwt>
<pdfrwt beam="1">  1        1 0.12035657E-01 0.27464541E+03</pdfrwt>
<pdfrwt beam="2">  1       -1 0.37084139E-01 0.27464541E+03</pdfrwt>
<totfact> 0.35129484E+03</totfact>
</mgrwt>
</event>
<event>
 5    1  0.1162308E+001  0.2747963E+03  0.7818608E-02  0.1098566E+00
          2   -1    0    0  501    0  0.00000000000E+00  0.00000000000E+00  0.29683428423E+03  0.29683428423E+03  0.00000000000E+00 0. -1.
         -2   -1    0    0    0  501 -0.00000000000E+00 -0.00000000000E+00 -0.63598606223E+02  0.63598606223E+02  0.00000000000E+00 0. -1.
         35    2    1    2    0    0  0.00000000000E+00  0.00000000000E+00  0.23323567801E+03  0.36043289045E+03  0.27479626458E+03 0.  0.
         25    1    3    3    0    0  0.25566678743E+02 -0.49050774842E+02  0.16601995889E+03  0.21218449595E+03  0.12000000000E+03 0.  0.
         25    1    3    3    0    0 -0.25566678743E+02  0.49050774842E+02  0.67215719119E+02  0.14824839450E+03  0.12000000000E+03 0.  0.
<mgrwt>
<rscale>  0 0.27479626E+03</rscale>
<asrwt>0</asrwt>
<pdfrwt beam="1">  1        2 0.45666812E-01 0.27479626E+03</pdfrwt>
<pdfrwt beam="2">  1       -2 0.97844012E-02 0.27479626E+03</pdfrwt>
<totfact> 0.75428065E+03</totfact>
</mgrwt>
</event>
<event>
 5    1  0.1162308E+001  0.2748176E+03  0.7818608E-02  0.1098554E+00
         -1   -1    0    0    0  501 -0.00000000000E+00  0.00000000000E+00  0.31525078400E+02  0.31525078400E+02  0.00000000000E+00 0.  1.
          1   -1    0    0  501    0  0.00000000000E+00 -0.00000000000E+00 -0.59892545932E+03  0.59892545932E+03  0.00000000000E+00 0.  1.
         35    2    1    2    0    0  0.00000000000E+00  0.00000000000E+00 -0.56740038092E+03  0.63045053772E+03  0.27481755446E+03 0.  0.
         25    1    3    3    0    0  0.46203826766E+02 -0.24026188566E+02 -0.18720952917E+03  0.22838445471E+03  0.12000000000E+03 0.  0.
         25    1    3    3    0    0 -0.46203826766E+02  0.24026188566E+02 -0.38019085175E+03  0.40206608300E+03  0.12000000000E+03 0.  0.
<mgrwt>
<rscale>  0 0.27481755E+03</rscale>
<asrwt>0</asrwt>
<pdfrwt beam="1">  1        1 0.92142383E-01 0.27481755E+03</pdfrwt>
<pdfrwt beam="2">  1       -1 0.48500118E-02 0.27481755E+03</pdfrwt>
<totfact> 0.64724099E+03</totfact>
</mgrwt>
</event>
<event>
 5    1  0.1162308E+001  0.2868645E+03  0.7818608E-02  0.1091998E+00
          2   -1    0    0  501    0  0.00000000000E+00  0.00000000000E+00  0.70793843428E+03  0.70793843428E+03  0.00000000000E+00 0. -1.
         -2   -1    0    0    0  501 -0.00000000000E+00 -0.00000000000E+00 -0.29060171795E+02  0.29060171795E+02  0.00000000000E+00 0. -1.
         35    2    1    2    0    0  0.00000000000E+00  0.00000000000E+00  0.67887826248E+03  0.73699860607E+03  0.28686451520E+03 0.  0.
         25    1    3    3    0    0 -0.12369482437E+02 -0.73916355273E+02  0.27884956386E+03  0.31268788102E+03  0.12000000000E+03 0.  0.
         25    1    3    3    0    0  0.12369482437E+02  0.73916355273E+02  0.40002869863E+03  0.42431072505E+03  0.12000000000E+03 0.  0.
<mgrwt>
<rscale>  0 0.28686452E+03</rscale>
<asrwt>0</asrwt>
<pdfrwt beam="1">  1        2 0.10891359E+00 0.28686452E+03</pdfrwt>
<pdfrwt beam="2">  1       -2 0.44707962E-02 0.28686452E+03</pdfrwt>
<totfact> 0.95858094E+03</totfact>
</mgrwt>
</event>
<event>
 5    1  0.1162308E+001  0.2760036E+03  0.7818608E-02  0.1097892E+00
          2   -1    0    0  501    0  0.00000000000E+00  0.00000000000E+00  0.21278237695E+02  0.21278237695E+02  0.00000000000E+00 0. -1.
         -2   -1    0    0    0  501 -0.00000000000E+00 -0.00000000000E+00 -0.89502227353E+03  0.89502227353E+03  0.00000000000E+00 0. -1.
         35    2    1    2    0    0  0.00000000000E+00  0.00000000000E+00 -0.87374403584E+03  0.91630051123E+03  0.27600359910E+03 0.  0.
         25    1    3    3    0    0  0.44137406411E+02  0.33340893012E+02 -0.30471007159E+03  0.33212641196E+03  0.12000000000E+03 0.  0.
         25    1    3    3    0    0 -0.44137406411E+02 -0.33340893012E+02 -0.56903396425E+03  0.58417409927E+03  0.12000000000E+03 0.  0.
<mgrwt>
<rscale>  0 0.27600360E+03</rscale>
<asrwt>0</asrwt>
<pdfrwt beam="1">  1        2 0.32735752E-02 0.27600360E+03</pdfrwt>
<pdfrwt beam="2">  1       -2 0.13769573E+00 0.27600360E+03</pdfrwt>
<totfact> 0.10983288E+03</totfact>
</mgrwt>
</event>
<event>
 5    1  0.1162308E+001  0.2751555E+03  0.7818608E-02  0.1098365E+00
          1   -1    0    0  501    0  0.00000000000E+00  0.00000000000E+00  0.78927037275E+02  0.78927037275E+02  0.00000000000E+00 0.  1.
         -1   -1    0    0    0  501 -0.00000000000E+00 -0.00000000000E+00 -0.23981187860E+03  0.23981187860E+03  0.00000000000E+00 0.  1.
         35    2    1    2    0    0  0.00000000000E+00  0.00000000000E+00 -0.16088484132E+03  0.31873891588E+03  0.27515552752E+03 0.  0.
         25    1    3    3    0    0 -0.36316172375E+02  0.53787054761E+02 -0.59859149618E+02  0.14897996318E+03  0.12000000000E+03 0.  0.
         25    1    3    3    0    0  0.36316172375E+02 -0.53787054761E+02 -0.10102569171E+03  0.16975895270E+03  0.12000000000E+03 0.  0.
<mgrwt>
<rscale>  0 0.27515553E+03</rscale>
<asrwt>0</asrwt>
<pdfrwt beam="1">  1        1 0.12142621E-01 0.27515553E+03</pdfrwt>
<pdfrwt beam="2">  1       -1 0.36894134E-01 0.27515553E+03</pdfrwt>
<totfact> 0.35034392E+03</totfact>
</mgrwt>
</event>
<event>
 5    1  0.1162308E+001  0.2747760E+03  0.7818608E-02  0.1098577E+00
          3   -1    0    0  501    0  0.00000000000E+00  0.00000000000E+00  0.69913840260E+02  0.69913840260E+02  0.00000000000E+00 0. -1.
         -3   -1    0    0    0  501 -0.00000000000E+00 -0.00000000000E+00 -0.26998169149E+03  0.26998169149E+03  0.00000000000E+00 0. -1.
         35    2    1    2    0    0  0.00000000000E+00  0.00000000000E+00 -0.20006785123E+03  0.33989553175E+03  0.27477595857E+03 0.  0.
         25    1    3    3    0    0  0.73490923818E+01 -0.19514007978E+02 -0.17866467313E+03  0.21623105949E+03  0.12000000000E+03 0.  0.
         25    1    3    3    0    0 -0.73490923818E+01  0.19514007978E+02 -0.21403178106E+02  0.12366447226E+03  0.12000000000E+03 0.  0.
<mgrwt>
<rscale>  0 0.27477596E+03</rscale>
<asrwt>0</asrwt>
<pdfrwt beam="1">  1        3 0.10755975E-01 0.27477596E+03</pdfrwt>
<pdfrwt beam="2">  1       -3 0.41535645E-01 0.27477596E+03</pdfrwt>
<totfact> 0.95836139E+02</totfact>
</mgrwt>
</event>
<event>
 5    1  0.1162308E+001  0.2746094E+03  0.7818608E-02  0.1098670E+00
          2   -1    0    0  501    0  0.00000000000E+00  0.00000000000E+00  0.22855540023E+03  0.22855540023E+03  0.00000000000E+00 0. -1.
         -2   -1    0    0    0  501 -0.00000000000E+00 -0.00000000000E+00 -0.82485819325E+02  0.82485819325E+02  0.00000000000E+00 0. -1.
         35    2    1    2    0    0  0.00000000000E+00  0.00000000000E+00  0.14606958091E+03  0.31104121956E+03  0.27460939131E+03 0.  0.
         25    1    3    3    0    0 -0.48607650478E+02 -0.40540279255E+02  0.49104612091E+02  0.14428264225E+03  0.12000000000E+03 0.  0.
         25    1    3    3    0    0  0.48607650478E+02  0.40540279255E+02  0.96964968816E+02  0.16675857730E+03  0.12000000000E+03 0.  0.
<mgrwt>
<rscale>  0 0.27460939E+03</rscale>
<asrwt>0</asrwt>
<pdfrwt beam="1">  1        2 0.35162369E-01 0.27460939E+03</pdfrwt>
<pdfrwt beam="2">  1       -2 0.12690126E-01 0.27460939E+03</pdfrwt>
<totfact> 0.65892254E+03</totfact>
</mgrwt>
</event>
<event>
 5    1  0.1162308E+001  0.2743549E+03  0.7818608E-02  0.1098813E+00
          2   -1    0    0  501    0  0.00000000000E+00  0.00000000000E+00  0.59433650377E+03  0.59433650377E+03  0.00000000000E+00 0.  1.
         -2   -1    0    0    0  501 -0.00000000000E+00 -0.00000000000E+00 -0.31661623765E+02  0.31661623765E+02  0.00000000000E+00 0.  1.
         35    2    1    2    0    0  0.00000000000E+00  0.00000000000E+00  0.56267488000E+03  0.62599812753E+03  0.27435494362E+03 0.  0.
         25    1    3    3    0    0  0.65219085425E+02  0.12811028503E+02  0.28153127592E+03  0.31317329208E+03  0.12000000000E+03 0.  0.
         25    1    3    3    0    0 -0.65219085425E+02 -0.12811028503E+02  0.28114360408E+03  0.31282483545E+03  0.12000000000E+03 0.  0.
<mgrwt>
<rscale>  0 0.27435494E+03</rscale>
<asrwt>0</asrwt>
<pdfrwt beam="1">  1        2 0.91436377E-01 0.27435494E+03</pdfrwt>
<pdfrwt beam="2">  1       -2 0.48710195E-02 0.27435494E+03</pdfrwt>
<totfact> 0.10345380E+04</totfact>
</mgrwt>
</event>
<event>
 5    1  0.1162308E+001  0.2749527E+03  0.7818608E-02  0.1098478E+00
          1   -1    0    0  501    0  0.00000000000E+00  0.00000000000E+00  0.55874742439E+03  0.55874742439E+03  0.00000000000E+00 0.  1.
         -1   -1    0    0    0  501 -0.00000000000E+00 -0.00000000000E+00 -0.33825211241E+02  0.33825211241E+02  0.00000000000E+00 0.  1.
         35    2    1    2    0    0  0.00000000000E+00  0.00000000000E+00  0.52492221315E+03  0.59257263563E+03  0.27495272074E+03 0.  0.
         25    1    3    3    0    0 -0.12503028260E+02  0.63205016944E+02  0.22222499758E+03  0.26064372126E+03  0.12000000000E+03 0.  0.
         25    1    3    3    0    0  0.12503028260E+02 -0.63205016944E+02  0.30269721557E+03  0.33192891437E+03  0.12000000000E+03 0.  0.
<mgrwt>
<rscale>  0 0.27495272E+03</rscale>
<asrwt>0</asrwt>
<pdfrwt beam="1">  1        1 0.85961136E-01 0.27495272E+03</pdfrwt>
<pdfrwt beam="2">  1       -1 0.52038790E-02 0.27495272E+03</pdfrwt>
<totfact> 0.64078939E+03</totfact>
</mgrwt>
</event>
<event>
 5    1  0.1162308E+001  0.2751458E+03  0.7818608E-02  0.1098370E+00
         -4   -1    0    0    0  501 -0.00000000000E+00  0.00000000000E+00  0.18942799434E+03  0.18942799434E+03  0.00000000000E+00 0.  1.
          4   -1    0    0  501    0  0.00000000000E+00 -0.00000000000E+00 -0.99912895638E+02  0.99912895638E+02  0.00000000000E+00 0.  1.
         35    2    1    2    0    0  0.00000000000E+00  0.00000000000E+00  0.89515098706E+02  0.28934088998E+03  0.27514577540E+03 0.  0.
         25    1    3    3    0    0 -0.25215274581E+02 -0.45512211354E+02  0.89609216477E+02  0.15854646995E+03  0.12000000000E+03 0.  0.
         25    1    3    3    0    0  0.25215274581E+02  0.45512211354E+02 -0.94117771398E-01  0.13079442004E+03  0.12000000000E+03 0.  0.
<mgrwt>
<rscale>  0 0.27514578E+03</rscale>
<asrwt>0</asrwt>
<pdfrwt beam="1">  1        4 0.15371215E-01 0.27514578E+03</pdfrwt>
<pdfrwt beam="2">  1       -4 0.29142768E-01 0.27514578E+03</pdfrwt>
<totfact> 0.76072680E+02</totfact>
</mgrwt>
</event>
<event>
 5    1  0.1162308E+001  0.2766910E+03  0.7818608E-02  0.1097510E+00
          1   -1    0    0  501    0  0.00000000000E+00  0.00000000000E+00  0.20273395090E+04  0.20273395090E+04  0.00000000000E+00 0.  1.
         -1   -1    0    0    0  501 -0.00000000000E+00 -0.00000000000E+00 -0.94406865662E+01  0.94406865662E+01  0.00000000000E+00 0.  1.
         35    2    1    2    0    0  0.00000000000E+00  0.00000000000E+00  0.20178988225E+04  0.20367801956E+04  0.27669099637E+03 0.  0.
         25    1    3    3    0    0 -0.31472572975E+02  0.11793199499E+02  0.14512272573E+04  0.14565679369E+04  0.12000000000E+03 0.  0.
         25    1    3    3    0    0  0.31472572975E+02 -0.11793199499E+02  0.56667156516E+03  0.58021225871E+03  0.12000000000E+03 0.  0.
<mgrwt>
<rscale>  0 0.27669100E+03</rscale>
<asrwt>0</asrwt>
<pdfrwt beam="1">  1        1 0.31189804E+00 0.27669100E+03</pdfrwt>
<pdfrwt beam="2">  1       -1 0.14524149E-02 0.27669100E+03</pdfrwt>
<totfact> 0.35426120E+03</totfact>
</mgrwt>
</event>
<event>
 5    1  0.1162308E+001  0.2760146E+03  0.7818608E-02  0.1097886E+00
          1   -1    0    0  501    0  0.00000000000E+00  0.00000000000E+00  0.36238794695E+03  0.36238794695E+03  0.00000000000E+00 0.  1.
         -1   -1    0    0    0  501 -0.00000000000E+00 -0.00000000000E+00 -0.52556983795E+02  0.52556983795E+02  0.00000000000E+00 0.  1.
         35    2    1    2    0    0  0.00000000000E+00  0.00000000000E+00  0.30983096315E+03  0.41494493074E+03  0.27601461885E+03 0.  0.
         25    1    3    3    0    0 -0.25442217110E+02 -0.44091674205E+02  0.86771775058E+02  0.15659094192E+03  0.12000000000E+03 0.  0.
         25    1    3    3    0    0  0.25442217110E+02  0.44091674205E+02  0.22305918809E+03  0.25835398882E+03  0.12000000000E+03 0.  0.
<mgrwt>
<rscale>  0 0.27601462E+03</rscale>
<asrwt>0</asrwt>
<pdfrwt beam="1">  1        1 0.55751990E-01 0.27601462E+03</pdfrwt>
<pdfrwt beam="2">  1       -1 0.80856901E-02 0.27601462E+03</pdfrwt>
<totfact> 0.57950103E+03</totfact>
</mgrwt>
</event>
<event>
 5    1  0.1162308E+001  0.2752808E+03  0.7818608E-02  0.1098295E+00
         -2   -1    0    0    0  501 -0.00000000000E+00  0.00000000000E+00  0.78966497610E+01  0.78966497610E+01  0.00000000000E+00 0.  1.
          2   -1    0    0  501    0  0.00000000000E+00 -0.00000000000E+00 -0.23991030350E+04  0.23991030350E+04  0.00000000000E+00 0.  1.
         35    2    1    2    0    0  0.00000000000E+00  0.00000000000E+00 -0.23912063852E+04  0.24069996847E+04  0.27528077599E+03 0.  0.
         25    1    3    3    0    0 -0.13991973067E+02 -0.65870454691E+02 -0.12235071411E+04  0.12312207018E+04  0.12000000000E+03 0.  0.
         25    1    3    3    0    0  0.13991973067E+02  0.65870454691E+02 -0.11676992441E+04  0.11757789830E+04  0.12000000000E+03 0.  0.
<mgrwt>
<rscale>  0 0.27528078E+03</rscale>
<asrwt>0</asrwt>
<pdfrwt beam="1">  1        2 0.36909306E+00 0.27528078E+03</pdfrwt>
<pdfrwt beam="2">  1       -2 0.12148682E-02 0.27528078E+03</pdfrwt>
<totfact> 0.73097665E+03</totfact>
</mgrwt>
</event>
<event>
 5    1  0.1162308E+001  0.2750339E+03  0.7818608E-02  0.1098433E+00
         -2   -1    0    0    0  501 -0.00000000000E+00  0.00000000000E+00  0.10227756751E+03  0.10227756751E+03  0.00000000000E+00 0.  1.
          2   -1    0    0  501    0  0.00000000000E+00 -0.00000000000E+00 -0.18489787665E+03  0.18489787665E+03  0.00000000000E+00 0.  1.
         35    2    1    2    0    0  0.00000000000E+00  0.00000000000E+00 -0.82620309145E+02  0.28717544416E+03  0.27503385291E+03 0.  0.
         25    1    3    3    0    0 -0.50460100763E+01  0.34853553203E+02 -0.10102463939E+03  0.16076756561E+03  0.12000000000E+03 0.  0.
         25    1    3    3    0    0  0.50460100763E+01 -0.34853553203E+02  0.18404330246E+02  0.12640787855E+03  0.12000000000E+03 0.  0.
<mgrwt>
<rscale>  0 0.27503385E+03</rscale>
<asrwt>0</asrwt>
<pdfrwt beam="1">  1        2 0.28445827E-01 0.27503385E+03</pdfrwt>
<pdfrwt beam="2">  1       -2 0.15735011E-01 0.27503385E+03</pdfrwt>
<totfact> 0.58366501E+03</totfact>
</mgrwt>
</event>
<event>
 5    1  0.1162308E+001  0.2775269E+03  0.7818608E-02  0.1097047E+00
         -1   -1    0    0    0  501 -0.00000000000E+00  0.00000000000E+00  0.38273142535E+02  0.38273142535E+02  0.00000000000E+00 0.  1.
          1   -1    0    0  501    0  0.00000000000E+00 -0.00000000000E+00 -0.50310193299E+03  0.50310193299E+03  0.00000000000E+00 0.  1.
         35    2    1    2    0    0  0.00000000000E+00  0.00000000000E+00 -0.46482879045E+03  0.54137507552E+03  0.27752687791E+03 0.  0.
         25    1    3    3    0    0 -0.25767603398E+02  0.63342895693E+02 -0.25851315864E+03  0.29309613612E+03  0.12000000000E+03 0.  0.
         25    1    3    3    0    0  0.25767603398E+02 -0.63342895693E+02 -0.20631563182E+03  0.24827893940E+03  0.12000000000E+03 0.  0.
<mgrwt>
<rscale>  0 0.27752688E+03</rscale>
<asrwt>0</asrwt>
<pdfrwt beam="1">  1        1 0.77400293E-01 0.27752688E+03</pdfrwt>
<pdfrwt beam="2">  1       -1 0.58881761E-02 0.27752688E+03</pdfrwt>
<totfact> 0.61302582E+03</totfact>
</mgrwt>
</event>
<event>
 5    1  0.1162308E+001  0.2754410E+03  0.7818608E-02  0.1098205E+00
          2   -1    0    0  501    0  0.00000000000E+00  0.00000000000E+00  0.21886974657E+04  0.21886974657E+04  0.00000000000E+00 0.  1.
         -2   -1    0    0    0  501 -0.00000000000E+00 -0.00000000000E+00 -0.86658559919E+01  0.86658559919E+01  0.00000000000E+00 0.  1.
         35    2    1    2    0    0  0.00000000000E+00  0.00000000000E+00  0.21800316097E+04  0.21973633217E+04  0.27544100673E+03 0.  0.
         25    1    3    3    0    0  0.55848999869E+01 -0.45488196268E+01  0.55396647547E+03  0.56686042269E+03  0.12000000000E+03 0.  0.
         25    1    3    3    0    0 -0.55848999869E+01  0.45488196268E+01  0.16260651342E+04  0.16305028990E+04  0.12000000000E+03 0.  0.
<mgrwt>
<rscale>  0 0.27544101E+03</rscale>
<asrwt>0</asrwt>
<pdfrwt beam="1">  1        2 0.33672225E+00 0.27544101E+03</pdfrwt>
<pdfrwt beam="2">  1       -2 0.13332104E-02 0.27544101E+03</pdfrwt>
<totfact> 0.82768928E+03</totfact>
</mgrwt>
</event>
<event>
 5    1  0.1162308E+001  0.2754489E+03  0.7818608E-02  0.1098201E+00
          2   -1    0    0  501    0  0.00000000000E+00  0.00000000000E+00  0.16023568941E+04  0.16023568941E+04  0.00000000000E+00 0. -1.
         -2   -1    0    0    0  501 -0.00000000000E+00 -0.00000000000E+00 -0.11837581900E+02  0.11837581900E+02  0.00000000000E+00 0. -1.
         35    2    1    2    0    0  0.00000000000E+00  0.00000000000E+00  0.15905193122E+04  0.16141944760E+04  0.27544894965E+03 0.  0.
         25    1    3    3    0    0 -0.60129763331E+02  0.21062098993E+02  0.92745048009E+03  0.93734923773E+03  0.12000000000E+03 0.  0.
         25    1    3    3    0    0  0.60129763331E+02 -0.21062098993E+02  0.66306883207E+03  0.67684523823E+03  0.12000000000E+03 0.  0.
<mgrwt>
<rscale>  0 0.27544895E+03</rscale>
<asrwt>0</asrwt>
<pdfrwt beam="1">  1        2 0.24651627E+00 0.27544895E+03</pdfrwt>
<pdfrwt beam="2">  1       -2 0.18211677E-02 0.27544895E+03</pdfrwt>
<totfact> 0.10678037E+04</totfact>
</mgrwt>
</event>
<event>
 5    1  0.1162308E+001  0.2720152E+03  0.7818608E-02  0.1100132E+00
          2   -1    0    0  501    0  0.00000000000E+00  0.00000000000E+00  0.12312119328E+03  0.12312119328E+03  0.00000000000E+00 0.  1.
         -2   -1    0    0    0  501 -0.00000000000E+00 -0.00000000000E+00 -0.15024272010E+03  0.15024272010E+03  0.00000000000E+00 0.  1.
         35    2    1    2    0    0  0.00000000000E+00  0.00000000000E+00 -0.27121526821E+02  0.27336391339E+03  0.27201516856E+03 0.  0.
         25    1    3    3    0    0  0.58400544027E+01  0.34776978557E+02  0.40131843696E+02  0.13135489847E+03  0.12000000000E+03 0.  0.
         25    1    3    3    0    0 -0.58400544027E+01 -0.34776978557E+02 -0.67253370517E+02  0.14200901492E+03  0.12000000000E+03 0.  0.
<mgrwt>
<rscale>  0 0.27201517E+03</rscale>
<asrwt>0</asrwt>
<pdfrwt beam="1">  1        2 0.18941722E-01 0.27201517E+03</pdfrwt>
<pdfrwt beam="2">  1       -2 0.23114265E-01 0.27201517E+03</pdfrwt>
<totfact> 0.47964159E+03</totfact>
</mgrwt>
</event>
<event>
 5    1  0.1162308E+001  0.2755330E+03  0.7818608E-02  0.1098154E+00
         -1   -1    0    0    0  501 -0.00000000000E+00  0.00000000000E+00  0.59492621631E+03  0.59492621631E+03  0.00000000000E+00 0.  1.
          1   -1    0    0  501    0  0.00000000000E+00 -0.00000000000E+00 -0.31902457422E+02  0.31902457422E+02  0.00000000000E+00 0.  1.
         35    2    1    2    0    0  0.00000000000E+00  0.00000000000E+00  0.56302375889E+03  0.62682867373E+03  0.27553299828E+03 0.  0.
         25    1    3    3    0    0 -0.12052893944E+02  0.66098550821E+02  0.29989801193E+03  0.32992894421E+03  0.12000000000E+03 0.  0.
         25    1    3    3    0    0  0.12052893944E+02 -0.66098550821E+02  0.26312574696E+03  0.29689972952E+03  0.12000000000E+03 0.  0.
<mgrwt>
<rscale>  0 0.27553300E+03</rscale>
<asrwt>0</asrwt>
<pdfrwt beam="1">  1        1 0.49080708E-02 0.27553300E+03</pdfrwt>
<pdfrwt beam="2">  1       -1 0.91527102E-01 0.27553300E+03</pdfrwt>
<totfact> 0.20899403E+03</totfact>
</mgrwt>
</event>
<event>
 5    1  0.1162308E+001  0.2748062E+03  0.7818608E-02  0.1098560E+00
          2   -1    0    0  501    0  0.00000000000E+00  0.00000000000E+00  0.67287796618E+02  0.67287796618E+02  0.00000000000E+00 0.  1.
         -2   -1    0    0    0  501 -0.00000000000E+00 -0.00000000000E+00 -0.28058010672E+03  0.28058010672E+03  0.00000000000E+00 0.  1.
         35    2    1    2    0    0  0.00000000000E+00  0.00000000000E+00 -0.21329231010E+03  0.34786790333E+03  0.27480623833E+03 0.  0.
         25    1    3    3    0    0 -0.44325420738E+02 -0.27104330388E+02 -0.16005654758E+03  0.20668208939E+03  0.12000000000E+03 0.  0.
         25    1    3    3    0    0  0.44325420738E+02  0.27104330388E+02 -0.53235762516E+02  0.14118581395E+03  0.12000000000E+03 0.  0.
<mgrwt>
<rscale>  0 0.27480624E+03</rscale>
<asrwt>0</asrwt>
<pdfrwt beam="1">  1        2 0.10351969E-01 0.27480624E+03</pdfrwt>
<pdfrwt beam="2">  1       -2 0.43166169E-01 0.27480624E+03</pdfrwt>
<totfact> 0.31405966E+03</totfact>
</mgrwt>
</event>
<event>
 5    1  0.1162308E+001  0.2748911E+03  0.7818608E-02  0.1098512E+00
         -1   -1    0    0    0  501 -0.00000000000E+00  0.00000000000E+00  0.25283763690E+02  0.25283763690E+02  0.00000000000E+00 0. -1.
          1   -1    0    0  501    0  0.00000000000E+00 -0.00000000000E+00 -0.74717035166E+03  0.74717035166E+03  0.00000000000E+00 0. -1.
         35    2    1    2    0    0  0.00000000000E+00  0.00000000000E+00 -0.72188658797E+03  0.77245411535E+03  0.27489109558E+03 0.  0.
         25    1    3    3    0    0  0.42394055770E+02  0.25818699357E+02 -0.48747040867E+03  0.50447126829E+03  0.12000000000E+03 0.  0.
         25    1    3    3    0    0 -0.42394055770E+02 -0.25818699357E+02 -0.23441617930E+03  0.26798284706E+03  0.12000000000E+03 0.  0.
<mgrwt>
<rscale>  0 0.27489110E+03</rscale>
<asrwt>0</asrwt>
<pdfrwt beam="1">  1        1 0.11494928E+00 0.27489110E+03</pdfrwt>
<pdfrwt beam="2">  1       -1 0.38898099E-02 0.27489110E+03</pdfrwt>
<totfact> 0.65431997E+03</totfact>
</mgrwt>
</event>
<event>
 5    1  0.1162308E+001  0.2748947E+03  0.7818608E-02  0.1098510E+00
          2   -1    0    0  501    0  0.00000000000E+00  0.00000000000E+00  0.44070119792E+03  0.44070119792E+03  0.00000000000E+00 0.  1.
         -2   -1    0    0    0  501 -0.00000000000E+00 -0.00000000000E+00 -0.42867531992E+02  0.42867531992E+02  0.00000000000E+00 0.  1.
         35    2    1    2    0    0  0.00000000000E+00  0.00000000000E+00  0.39783366593E+03  0.48356872991E+03  0.27489469039E+03 0.  0.
         25    1    3    3    0    0  0.46789944312E+02  0.50880750533E+01  0.11498362509E+03  0.17273222466E+03  0.12000000000E+03 0.  0.
         25    1    3    3    0    0 -0.46789944312E+02 -0.50880750533E+01  0.28285004084E+03  0.31083650525E+03  0.12000000000E+03 0.  0.
<mgrwt>
<rscale>  0 0.27489469E+03</rscale>
<asrwt>0</asrwt>
<pdfrwt beam="1">  1        2 0.67800181E-01 0.27489469E+03</pdfrwt>
<pdfrwt beam="2">  1       -2 0.65950052E-02 0.27489469E+03</pdfrwt>
<totfact> 0.91116224E+03</totfact>
</mgrwt>
</event>
<event>
 5    1  0.1162308E+001  0.2749909E+03  0.7818608E-02  0.1098457E+00
         -2   -1    0    0    0  501 -0.00000000000E+00  0.00000000000E+00  0.34915773567E+02  0.34915773567E+02  0.00000000000E+00 0. -1.
          2   -1    0    0  501    0  0.00000000000E+00 -0.00000000000E+00 -0.54144593944E+03  0.54144593944E+03  0.00000000000E+00 0. -1.
         35    2    1    2    0    0  0.00000000000E+00  0.00000000000E+00 -0.50653016588E+03  0.57636171301E+03  0.27499093673E+03 0.  0.
         25    1    3    3    0    0  0.46075183803E+02 -0.46783363523E+02 -0.28241269005E+03  0.31379696169E+03  0.12000000000E+03 0.  0.
         25    1    3    3    0    0 -0.46075183803E+02  0.46783363523E+02 -0.22411747583E+03  0.26256475132E+03  0.12000000000E+03 0.  0.
<mgrwt>
<rscale>  0 0.27499094E+03</rscale>
<asrwt>0</asrwt>
<pdfrwt beam="1">  1        2 0.83299373E-01 0.27499094E+03</pdfrwt>
<pdfrwt beam="2">  1       -2 0.53716576E-02 0.27499094E+03</pdfrwt>
<totfact> 0.99208436E+03</totfact>
</mgrwt>
</event>
<event>
 5    1  0.1162308E+001  0.2725879E+03  0.7818608E-02  0.1099808E+00
         -1   -1    0    0    0  501 -0.00000000000E+00  0.00000000000E+00  0.13426537009E+02  0.13426537009E+02  0.00000000000E+00 0. -1.
          1   -1    0    0  501    0  0.00000000000E+00 -0.00000000000E+00 -0.13835316588E+04  0.13835316588E+04  0.00000000000E+00 0. -1.
         35    2    1    2    0    0  0.00000000000E+00  0.00000000000E+00 -0.13701051218E+04  0.13969581958E+04  0.27258788688E+03 0.  0.
         25    1    3    3    0    0  0.14514385280E+02 -0.61762052060E+02 -0.74798972029E+03  0.76020644572E+03  0.12000000000E+03 0.  0.
         25    1    3    3    0    0 -0.14514385280E+02  0.61762052060E+02 -0.62211540147E+03  0.63675175006E+03  0.12000000000E+03 0.  0.
<mgrwt>
<rscale>  0 0.27258789E+03</rscale>
<asrwt>0</asrwt>
<pdfrwt beam="1">  1        1 0.21285091E+00 0.27258789E+03</pdfrwt>
<pdfrwt beam="2">  1       -1 0.20656222E-02 0.27258789E+03</pdfrwt>
<totfact> 0.55986836E+03</totfact>
</mgrwt>
</event>
<event>
 5    1  0.1162308E+001  0.2759397E+03  0.7818608E-02  0.1097927E+00
         -1   -1    0    0    0  501 -0.00000000000E+00  0.00000000000E+00  0.22862978668E+02  0.22862978668E+02  0.00000000000E+00 0. -1.
          1   -1    0    0  501    0  0.00000000000E+00 -0.00000000000E+00 -0.83259843043E+03  0.83259843043E+03  0.00000000000E+00 0. -1.
         35    2    1    2    0    0  0.00000000000E+00  0.00000000000E+00 -0.80973545177E+03  0.85546140910E+03  0.27593970468E+03 0.  0.
         25    1    3    3    0    0 -0.13822465084E+02 -0.44032881119E+02 -0.56005386559E+03  0.57462186481E+03  0.12000000000E+03 0.  0.
         25    1    3    3    0    0  0.13822465084E+02  0.44032881119E+02 -0.24968158618E+03  0.28083954429E+03  0.12000000000E+03 0.  0.
<mgrwt>
<rscale>  0 0.27593970E+03</rscale>
<asrwt>0</asrwt>
<pdfrwt beam="1">  1        1 0.12809205E+00 0.27593970E+03</pdfrwt>
<pdfrwt beam="2">  1       -1 0.35173819E-02 0.27593970E+03</pdfrwt>
<totfact> 0.64374145E+03</totfact>
</mgrwt>
</event>
<event>
 5    1  0.1162308E+001  0.2741342E+03  0.7818608E-02  0.1098937E+00
         -2   -1    0    0    0  501 -0.00000000000E+00  0.00000000000E+00  0.15046632357E+03  0.15046632357E+03  0.00000000000E+00 0. -1.
          2   -1    0    0  501    0  0.00000000000E+00 -0.00000000000E+00 -0.12486107465E+03  0.12486107465E+03  0.00000000000E+00 0. -1.
         35    2    1    2    0    0  0.00000000000E+00  0.00000000000E+00  0.25605248918E+02  0.27532739822E+03  0.27413417781E+03 0.  0.
         25    1    3    3    0    0 -0.61126511162E+02 -0.16290566103E+02 -0.69183705946E+01  0.13582966083E+03  0.12000000000E+03 0.  0.
         25    1    3    3    0    0  0.61126511162E+02  0.16290566103E+02  0.32523619512E+02  0.13949773739E+03  0.12000000000E+03 0.  0.
<mgrwt>
<rscale>  0 0.27413418E+03</rscale>
<asrwt>0</asrwt>
<pdfrwt beam="1">  1        2 0.19209396E-01 0.27413418E+03</pdfrwt>
<pdfrwt beam="2">  1       -2 0.23148665E-01 0.27413418E+03</pdfrwt>
<totfact> 0.47085918E+03</totfact>
</mgrwt>
</event>
<event>
 5    1  0.1162308E+001  0.2749075E+03  0.7818608E-02  0.1098503E+00
          1   -1    0    0  501    0  0.00000000000E+00  0.00000000000E+00  0.43058606301E+03  0.43058606301E+03  0.00000000000E+00 0.  1.
         -1   -1    0    0    0  501 -0.00000000000E+00 -0.00000000000E+00 -0.43878632084E+02  0.43878632084E+02  0.00000000000E+00 0.  1.
         35    2    1    2    0    0  0.00000000000E+00  0.00000000000E+00  0.38670743093E+03  0.47446469509E+03  0.27490745672E+03 0.  0.
         25    1    3    3    0    0  0.37228987419E+02  0.40625147420E+02  0.12747181259E+03  0.18353599950E+03  0.12000000000E+03 0.  0.
         25    1    3    3    0    0 -0.37228987419E+02 -0.40625147420E+02  0.25923561833E+03  0.29092869559E+03  0.12000000000E+03 0.  0.
<mgrwt>
<rscale>  0 0.27490746E+03</rscale>
<asrwt>0</asrwt>
<pdfrwt beam="1">  1        1 0.66244007E-01 0.27490746E+03</pdfrwt>
<pdfrwt beam="2">  1       -1 0.67505591E-02 0.27490746E+03</pdfrwt>
<totfact> 0.61135202E+03</totfact>
</mgrwt>
</event>
<event>
 5    1  0.1162308E+001  0.2748381E+03  0.7818608E-02  0.1098542E+00
         -2   -1    0    0    0  501 -0.00000000000E+00  0.00000000000E+00  0.12552032476E+02  0.12552032476E+02  0.00000000000E+00 0. -1.
          2   -1    0    0  501    0  0.00000000000E+00 -0.00000000000E+00 -0.15044566332E+04  0.15044566332E+04  0.00000000000E+00 0. -1.
         35    2    1    2    0    0  0.00000000000E+00  0.00000000000E+00 -0.14919046007E+04  0.15170086656E+04  0.27483805063E+03 0.  0.
         25    1    3    3    0    0 -0.61078315879E+02  0.21265078622E+02 -0.65015435624E+03  0.66429169134E+03  0.12000000000E+03 0.  0.
         25    1    3    3    0    0  0.61078315879E+02 -0.21265078622E+02 -0.84175024445E+03  0.85271697431E+03  0.12000000000E+03 0.  0.
<mgrwt>
<rscale>  0 0.27483805E+03</rscale>
<asrwt>0</asrwt>
<pdfrwt beam="1">  1        2 0.23145481E+00 0.27483805E+03</pdfrwt>
<pdfrwt beam="2">  1       -2 0.19310824E-02 0.27483805E+03</pdfrwt>
<totfact> 0.11045653E+04</totfact>
</mgrwt>
</event>
<event>
 5    1  0.1162308E+001  0.2751202E+03  0.7818608E-02  0.1098384E+00
          1   -1    0    0  501    0  0.00000000000E+00  0.00000000000E+00  0.54572462831E+03  0.54572462831E+03  0.00000000000E+00 0. -1.
         -1   -1    0    0    0  501 -0.00000000000E+00 -0.00000000000E+00 -0.34674583629E+02  0.34674583629E+02  0.00000000000E+00 0. -1.
         35    2    1    2    0    0  0.00000000000E+00  0.00000000000E+00  0.51105004468E+03  0.58039921194E+03  0.27512015021E+03 0.  0.
         25    1    3    3    0    0 -0.10309142083E+01  0.50202862365E+02  0.34990277585E+03  0.37330060638E+03  0.12000000000E+03 0.  0.
         25    1    3    3    0    0  0.10309142083E+01 -0.50202862365E+02  0.16114726883E+03  0.20709860556E+03  0.12000000000E+03 0.  0.
<mgrwt>
<rscale>  0 0.27512015E+03</rscale>
<asrwt>0</asrwt>
<pdfrwt beam="1">  1        1 0.83957629E-01 0.27512015E+03</pdfrwt>
<pdfrwt beam="2">  1       -1 0.53345517E-02 0.27512015E+03</pdfrwt>
<totfact> 0.63749190E+03</totfact>
</mgrwt>
</event>
<event>
 5    1  0.1162308E+001  0.2755270E+03  0.7818608E-02  0.1098157E+00
         -2   -1    0    0    0  501 -0.00000000000E+00  0.00000000000E+00  0.79624491029E+01  0.79624491029E+01  0.00000000000E+00 0. -1.
          2   -1    0    0  501    0  0.00000000000E+00 -0.00000000000E+00 -0.23835360349E+04  0.23835360349E+04  0.00000000000E+00 0. -1.
         35    2    1    2    0    0  0.00000000000E+00  0.00000000000E+00 -0.23755735858E+04  0.23914984840E+04  0.27552701764E+03 0.  0.
         25    1    3    3    0    0 -0.77255793297E+01 -0.50340515478E+02 -0.80108270178E+03  0.81162019884E+03  0.12000000000E+03 0.  0.
         25    1    3    3    0    0  0.77255793297E+01  0.50340515478E+02 -0.15744908840E+04  0.15798782851E+04  0.12000000000E+03 0.  0.
<mgrwt>
<rscale>  0 0.27552702E+03</rscale>
<asrwt>0</asrwt>
<pdfrwt beam="1">  1        2 0.36669834E+00 0.27552702E+03</pdfrwt>
<pdfrwt beam="2">  1       -2 0.12249905E-02 0.27552702E+03</pdfrwt>
<totfact> 0.73633698E+03</totfact>
</mgrwt>
</event>
<event>
 4    1  0.1162308E+001  0.3108682E+03  0.7818608E-02  0.1079930E+00
         -1   -1    0    0    0  501 -0.00000000000E+00  0.00000000000E+00  0.26494725096E+02  0.26494725096E+02  0.00000000000E+00 0.  1.
          1   -1    0    0  501    0  0.00000000000E+00 -0.00000000000E+00 -0.91187080105E+03  0.91187080105E+03  0.00000000000E+00 0.  1.
         25    1    1    2    0    0  0.66956418012E+02 -0.55385757662E+02 -0.30081635570E+03  0.33532256697E+03  0.12000000000E+03 0.  0.
         25    1    1    2    0    0 -0.66956418012E+02  0.55385757662E+02 -0.58455972026E+03  0.60304295918E+03  0.12000000000E+03 0.  0.
<mgrwt>
<rscale>  0 0.31086824E+03</rscale>
<asrwt>0</asrwt>
<pdfrwt beam="1">  1        1 0.14028781E+00 0.31086824E+03</pdfrwt>
<pdfrwt beam="2">  1       -1 0.40761119E-02 0.31086824E+03</pdfrwt>
<totfact> 0.44770471E+03</totfact>
</mgrwt>
</event>
<event>
 5    1  0.1162308E+001  0.2755091E+03  0.7818608E-02  0.1098167E+00
         -2   -1    0    0    0  501 -0.00000000000E+00  0.00000000000E+00  0.48562033405E+02  0.48562033405E+02  0.00000000000E+00 0. -1.
          2   -1    0    0  501    0  0.00000000000E+00 -0.00000000000E+00 -0.39076434346E+03  0.39076434346E+03  0.00000000000E+00 0. -1.
         35    2    1    2    0    0  0.00000000000E+00  0.00000000000E+00 -0.34220231006E+03  0.43932637687E+03  0.27550906410E+03 0.  0.
         25    1    3    3    0    0  0.41872807043E+02  0.42828344964E+02 -0.22124138132E+03  0.25871866556E+03  0.12000000000E+03 0.  0.
         25    1    3    3    0    0 -0.41872807043E+02 -0.42828344964E+02 -0.12096092873E+03  0.18060771130E+03  0.12000000000E+03 0.  0.
<mgrwt>
<rscale>  0 0.27550906E+03</rscale>
<asrwt>0</asrwt>
<pdfrwt beam="1">  1        2 0.60117589E-01 0.27550906E+03</pdfrwt>
<pdfrwt beam="2">  1       -2 0.74710824E-02 0.27550906E+03</pdfrwt>
<totfact> 0.85647544E+03</totfact>
</mgrwt>
</event>
<event>
 5    1  0.1162308E+001  0.2750936E+03  0.7818608E-02  0.1098399E+00
         -1   -1    0    0    0  501 -0.00000000000E+00  0.00000000000E+00  0.44738951674E+02  0.44738951674E+02  0.00000000000E+00 0. -1.
          1   -1    0    0  501    0  0.00000000000E+00 -0.00000000000E+00 -0.42287794566E+03  0.42287794566E+03  0.00000000000E+00 0. -1.
         35    2    1    2    0    0  0.00000000000E+00  0.00000000000E+00 -0.37813899399E+03  0.46761689734E+03  0.27509355481E+03 0.  0.
         25    1    3    3    0    0  0.22915531418E+02  0.30836390546E+02 -0.95298462545E+02  0.15798038336E+03  0.12000000000E+03 0.  0.
         25    1    3    3    0    0 -0.22915531418E+02 -0.30836390546E+02 -0.28284053144E+03  0.30963651398E+03  0.12000000000E+03 0.  0.
<mgrwt>
<rscale>  0 0.27509355E+03</rscale>
<asrwt>0</asrwt>
<pdfrwt beam="1">  1        1 0.65058146E-01 0.27509355E+03</pdfrwt>
<pdfrwt beam="2">  1       -1 0.68829156E-02 0.27509355E+03</pdfrwt>
<totfact> 0.60765864E+03</totfact>
</mgrwt>
</event>
<event>
 5    1  0.1162308E+001  0.2746797E+03  0.7818608E-02  0.1098631E+00
         -2   -1    0    0    0  501 -0.00000000000E+00  0.00000000000E+00  0.16962390102E+03  0.16962390102E+03  0.00000000000E+00 0.  1.
          2   -1    0    0  501    0  0.00000000000E+00 -0.00000000000E+00 -0.11120031155E+03  0.11120031155E+03  0.00000000000E+00 0.  1.
         35    2    1    2    0    0  0.00000000000E+00  0.00000000000E+00  0.58423589470E+02  0.28082421258E+03  0.27467967264E+03 0.  0.
         25    1    3    3    0    0 -0.49025405448E+02  0.45107057808E+02  0.34230120503E+02  0.14145613523E+03  0.12000000000E+03 0.  0.
         25    1    3    3    0    0  0.49025405448E+02 -0.45107057808E+02  0.24193468968E+02  0.13936807735E+03  0.12000000000E+03 0.  0.
<mgrwt>
<rscale>  0 0.27467967E+03</rscale>
<asrwt>0</asrwt>
<pdfrwt beam="1">  1        2 0.17107740E-01 0.27467967E+03</pdfrwt>
<pdfrwt beam="2">  1       -2 0.26095985E-01 0.27467967E+03</pdfrwt>
<totfact> 0.43614236E+03</totfact>
</mgrwt>
</event>
<event>
 5    1  0.1162308E+001  0.2745838E+03  0.7818608E-02  0.1098684E+00
         -4   -1    0    0    0  501 -0.00000000000E+00  0.00000000000E+00  0.35893675286E+02  0.35893675286E+02  0.00000000000E+00 0. -1.
          4   -1    0    0  501    0  0.00000000000E+00 -0.00000000000E+00 -0.52513600650E+03  0.52513600650E+03  0.00000000000E+00 0. -1.
         35    2    1    2    0    0  0.00000000000E+00  0.00000000000E+00 -0.48924233121E+03  0.56102968178E+03  0.27458376717E+03 0.  0.
         25    1    3    3    0    0 -0.35151712292E+02 -0.51070171661E+02 -0.19435444801E+03  0.23668007261E+03  0.12000000000E+03 0.  0.
         25    1    3    3    0    0  0.35151712292E+02  0.51070171661E+02 -0.29488788320E+03  0.32434960917E+03  0.12000000000E+03 0.  0.
<mgrwt>
<rscale>  0 0.27458377E+03</rscale>
<asrwt>0</asrwt>
<pdfrwt beam="1">  1        4 0.80790153E-01 0.27458377E+03</pdfrwt>
<pdfrwt beam="2">  1       -4 0.55221040E-02 0.27458377E+03</pdfrwt>
<totfact> 0.52900804E+02</totfact>
</mgrwt>
</event>
<event>
 5    1  0.1162308E+001  0.2690299E+03  0.7818608E-02  0.1101836E+00
          1   -1    0    0  501    0  0.00000000000E+00  0.00000000000E+00  0.64525152313E+03  0.64525152313E+03  0.00000000000E+00 0.  1.
         -1   -1    0    0    0  501 -0.00000000000E+00 -0.00000000000E+00 -0.28042194771E+02  0.28042194771E+02  0.00000000000E+00 0.  1.
         35    2    1    2    0    0  0.00000000000E+00  0.00000000000E+00  0.61720932836E+03  0.67329371790E+03  0.26902987855E+03 0.  0.
         25    1    3    3    0    0  0.46461931698E+02  0.55212500303E+01  0.40569654500E+03  0.42565112701E+03  0.12000000000E+03 0.  0.
         25    1    3    3    0    0 -0.46461931698E+02 -0.55212500303E+01  0.21151278336E+03  0.24764259089E+03  0.12000000000E+03 0.  0.
<mgrwt>
<rscale>  0 0.26902988E+03</rscale>
<asrwt>0</asrwt>
<pdfrwt beam="1">  1        1 0.99269454E-01 0.26902988E+03</pdfrwt>
<pdfrwt beam="2">  1       -1 0.43141843E-02 0.26902988E+03</pdfrwt>
<totfact> 0.69394883E+03</totfact>
</mgrwt>
</event>
<event>
 5    1  0.1162308E+001  0.2756981E+03  0.7818608E-02  0.1098062E+00
          2   -1    0    0  501    0  0.00000000000E+00  0.00000000000E+00  0.79188520777E+03  0.79188520777E+03  0.00000000000E+00 0.  1.
         -2   -1    0    0    0  501 -0.00000000000E+00 -0.00000000000E+00 -0.23996350737E+02  0.23996350737E+02  0.00000000000E+00 0.  1.
         35    2    1    2    0    0  0.00000000000E+00  0.00000000000E+00  0.76788885703E+03  0.81588155851E+03  0.27569806085E+03 0.  0.
         25    1    3    3    0    0 -0.50859091029E+02  0.41601487608E+02  0.43390579774E+03  0.45496326470E+03  0.12000000000E+03 0.  0.
         25    1    3    3    0    0  0.50859091029E+02 -0.41601487608E+02  0.33398305929E+03  0.36091829381E+03  0.12000000000E+03 0.  0.
<mgrwt>
<rscale>  0 0.27569806E+03</rscale>
<asrwt>0</asrwt>
<pdfrwt beam="1">  1        2 0.12182847E+00 0.27569806E+03</pdfrwt>
<pdfrwt beam="2">  1       -2 0.36917469E-02 0.27569806E+03</pdfrwt>
<totfact> 0.11112278E+04</totfact>
</mgrwt>
</event>
<event>
 5    1  0.1162308E+001  0.2736912E+03  0.7818608E-02  0.1099185E+00
         -2   -1    0    0    0  501 -0.00000000000E+00  0.00000000000E+00  0.22017541862E+02  0.22017541862E+02  0.00000000000E+00 0.  1.
          2   -1    0    0  501    0  0.00000000000E+00 -0.00000000000E+00 -0.85053639986E+03  0.85053639986E+03  0.00000000000E+00 0.  1.
         35    2    1    2    0    0  0.00000000000E+00  0.00000000000E+00 -0.82851885800E+03  0.87255394173E+03  0.27369121863E+03 0.  0.
         25    1    3    3    0    0  0.64711635410E+02 -0.48810746202E+01 -0.44849253797E+03  0.46878244129E+03  0.12000000000E+03 0.  0.
         25    1    3    3    0    0 -0.64711635410E+02  0.48810746202E+01 -0.38002632003E+03  0.40377150044E+03  0.12000000000E+03 0.  0.
<mgrwt>
<rscale>  0 0.27369122E+03</rscale>
<asrwt>0</asrwt>
<pdfrwt beam="1">  1        2 0.13085178E+00 0.27369122E+03</pdfrwt>
<pdfrwt beam="2">  1       -2 0.33873136E-02 0.27369122E+03</pdfrwt>
<totfact> 0.11527384E+04</totfact>
</mgrwt>
</event>
<event>
 5    1  0.1162308E+001  0.2750140E+03  0.7818608E-02  0.1098444E+00
          3   -1    0    0  501    0  0.00000000000E+00  0.00000000000E+00  0.20872207421E+02  0.20872207421E+02  0.00000000000E+00 0. -1.
         -3   -1    0    0    0  501 -0.00000000000E+00 -0.00000000000E+00 -0.90590203697E+03  0.90590203697E+03  0.00000000000E+00 0. -1.
         35    2    1    2    0    0  0.00000000000E+00  0.00000000000E+00 -0.88502982955E+03  0.92677424439E+03  0.27501400124E+03 0.  0.
         25    1    3    3    0    0  0.40512651473E+02 -0.46276477877E+02 -0.35175286400E+03  0.37671323931E+03  0.12000000000E+03 0.  0.
         25    1    3    3    0    0 -0.40512651473E+02  0.46276477877E+02 -0.53327696555E+03  0.55006100509E+03  0.12000000000E+03 0.  0.
<mgrwt>
<rscale>  0 0.27501400E+03</rscale>
<asrwt>0</asrwt>
<pdfrwt beam="1">  1        3 0.32111086E-02 0.27501400E+03</pdfrwt>
<pdfrwt beam="2">  1       -3 0.13936955E+00 0.27501400E+03</pdfrwt>
<totfact> 0.47754529E+02</totfact>
</mgrwt>
</event>
<event>
 5    1  0.1162308E+001  0.2749864E+03  0.7818608E-02  0.1098459E+00
          2   -1    0    0  501    0  0.00000000000E+00  0.00000000000E+00  0.34281859250E+03  0.34281859250E+03  0.00000000000E+00 0. -1.
         -2   -1    0    0    0  501 -0.00000000000E+00 -0.00000000000E+00 -0.55143955568E+02  0.55143955568E+02  0.00000000000E+00 0. -1.
         35    2    1    2    0    0  0.00000000000E+00  0.00000000000E+00  0.28767463693E+03  0.39796254807E+03  0.27498635045E+03 0.  0.
         25    1    3    3    0    0 -0.59152209366E+01 -0.21050736840E+02  0.23566665102E+03  0.26536181670E+03  0.12000000000E+03 0.  0.
         25    1    3    3    0    0  0.59152209366E+01  0.21050736840E+02  0.52007985911E+02  0.13260073137E+03  0.12000000000E+03 0.  0.
<mgrwt>
<rscale>  0 0.27498635E+03</rscale>
<asrwt>0</asrwt>
<pdfrwt beam="1">  1        2 0.52741321E-01 0.27498635E+03</pdfrwt>
<pdfrwt beam="2">  1       -2 0.84836857E-02 0.27498635E+03</pdfrwt>
<totfact> 0.80899986E+03</totfact>
</mgrwt>
</event>
<event>
 5    1  0.1162308E+001  0.2773923E+03  0.7818608E-02  0.1097122E+00
          2   -1    0    0  501    0  0.00000000000E+00  0.00000000000E+00  0.19720150624E+04  0.19720150624E+04  0.00000000000E+00 0. -1.
         -2   -1    0    0    0  501 -0.00000000000E+00 -0.00000000000E+00 -0.97548064941E+01  0.97548064941E+01  0.00000000000E+00 0. -1.
         35    2    1    2    0    0  0.00000000000E+00  0.00000000000E+00  0.19622602559E+04  0.19817698689E+04  0.27739232388E+03 0.  0.
         25    1    3    3    0    0 -0.56381046105E+02 -0.11916582729E+02  0.12592803762E+04  0.12662969214E+04  0.12000000000E+03 0.  0.
         25    1    3    3    0    0  0.56381046105E+02  0.11916582729E+02  0.70297987977E+03  0.71547294754E+03  0.12000000000E+03 0.  0.
<mgrwt>
<rscale>  0 0.27739232E+03</rscale>
<asrwt>0</asrwt>
<pdfrwt beam="1">  1        2 0.30338662E+00 0.27739232E+03</pdfrwt>
<pdfrwt beam="2">  1       -2 0.15007410E-02 0.27739232E+03</pdfrwt>
<totfact> 0.90620102E+03</totfact>
</mgrwt>
</event>
<event>
 5    1  0.1162308E+001  0.2751815E+03  0.7818608E-02  0.1098350E+00
         -1   -1    0    0    0  501 -0.00000000000E+00  0.00000000000E+00  0.22817918214E+02  0.22817918214E+02  0.00000000000E+00 0. -1.
          1   -1    0    0  501    0  0.00000000000E+00 -0.00000000000E+00 -0.82966449787E+03  0.82966449787E+03  0.00000000000E+00 0. -1.
         35    2    1    2    0    0  0.00000000000E+00  0.00000000000E+00 -0.80684657966E+03  0.85248241609E+03  0.27518151579E+03 0.  0.
         25    1    3    3    0    0 -0.12997567987E+02  0.35259874495E+01 -0.19910691389E+03  0.23286247555E+03  0.12000000000E+03 0.  0.
         25    1    3    3    0    0  0.12997567987E+02 -0.35259874495E+01 -0.60773966577E+03  0.61961994054E+03  0.12000000000E+03 0.  0.
<mgrwt>
<rscale>  0 0.27518152E+03</rscale>
<asrwt>0</asrwt>
<pdfrwt beam="1">  1        1 0.12764071E+00 0.27518152E+03</pdfrwt>
<pdfrwt beam="2">  1       -1 0.35104485E-02 0.27518152E+03</pdfrwt>
<totfact> 0.64916267E+03</totfact>
</mgrwt>
</event>
<event>
 5    1  0.1162308E+001  0.2764646E+03  0.7818608E-02  0.1097636E+00
         -2   -1    0    0    0  501 -0.00000000000E+00  0.00000000000E+00  0.15369505121E+02  0.15369505121E+02  0.00000000000E+00 0. -1.
          2   -1    0    0  501    0  0.00000000000E+00 -0.00000000000E+00 -0.12432519680E+04  0.12432519680E+04  0.00000000000E+00 0. -1.
         35    2    1    2    0    0  0.00000000000E+00  0.00000000000E+00 -0.12278824628E+04  0.12586214731E+04  0.27646459078E+03 0.  0.
         25    1    3    3    0    0  0.39018920545E+02 -0.29141296029E+02 -0.83399879577E+03  0.84399388779E+03  0.12000000000E+03 0.  0.
         25    1    3    3    0    0 -0.39018920545E+02  0.29141296029E+02 -0.39388366708E+03  0.41462758530E+03  0.12000000000E+03 0.  0.
<mgrwt>
<rscale>  0 0.27646459E+03</rscale>
<asrwt>0</asrwt>
<pdfrwt beam="1">  1        2 0.19126959E+00 0.27646459E+03</pdfrwt>
<pdfrwt beam="2">  1       -2 0.23645386E-02 0.27646459E+03</pdfrwt>
<totfact> 0.11386294E+04</totfact>
</mgrwt>
</event>
<event>
 5    1  0.1162308E+001  0.2811714E+03  0.7818608E-02  0.1095051E+00
         -2   -1    0    0    0  501 -0.00000000000E+00  0.00000000000E+00  0.54705682437E+03  0.54705682437E+03  0.00000000000E+00 0. -1.
          2   -1    0    0  501    0  0.00000000000E+00 -0.00000000000E+00 -0.36128489158E+02  0.36128489158E+02  0.00000000000E+00 0. -1.
         35    2    1    2    0    0  0.00000000000E+00  0.00000000000E+00  0.51092833521E+03  0.58318531353E+03  0.28117138224E+03 0.  0.
         25    1    3    3    0    0 -0.52278398600E+02  0.44350032798E+02  0.20200234061E+03  0.24475477928E+03  0.12000000000E+03 0.  0.
         25    1    3    3    0    0  0.52278398600E+02 -0.44350032798E+02  0.30892599461E+03  0.33843053425E+03  0.12000000000E+03 0.  0.
<mgrwt>
<rscale>  0 0.28117138E+03</rscale>
<asrwt>0</asrwt>
<pdfrwt beam="1">  1        2 0.55582295E-02 0.28117138E+03</pdfrwt>
<pdfrwt beam="2">  1       -2 0.84162582E-01 0.28117138E+03</pdfrwt>
<totfact> 0.17368305E+03</totfact>
</mgrwt>
</event>
<event>
 5    1  0.1162308E+001  0.2750104E+03  0.7818608E-02  0.1098446E+00
          2   -1    0    0  501    0  0.00000000000E+00  0.00000000000E+00  0.88939615277E+03  0.88939615277E+03  0.00000000000E+00 0.  1.
         -2   -1    0    0    0  501 -0.00000000000E+00 -0.00000000000E+00 -0.21259004673E+02  0.21259004673E+02  0.00000000000E+00 0.  1.
         35    2    1    2    0    0  0.00000000000E+00  0.00000000000E+00  0.86813714809E+03  0.91065515744E+03  0.27501037775E+03 0.  0.
         25    1    3    3    0    0  0.50946763600E+02  0.35220693651E+02  0.51988342867E+03  0.53713578301E+03  0.12000000000E+03 0.  0.
         25    1    3    3    0    0 -0.50946763600E+02 -0.35220693651E+02  0.34825371942E+03  0.37351937443E+03  0.12000000000E+03 0.  0.
<mgrwt>
<rscale>  0 0.27501038E+03</rscale>
<asrwt>0</asrwt>
<pdfrwt beam="1">  1        2 0.13683015E+00 0.27501038E+03</pdfrwt>
<pdfrwt beam="2">  1       -2 0.32706168E-02 0.27501038E+03</pdfrwt>
<totfact> 0.11454285E+04</totfact>
</mgrwt>
</event>
<event>
 5    1  0.1162308E+001  0.2757891E+03  0.7818608E-02  0.1098011E+00
          2   -1    0    0  501    0  0.00000000000E+00  0.00000000000E+00  0.11068130103E+03  0.11068130103E+03  0.00000000000E+00 0. -1.
         -2   -1    0    0    0  501 -0.00000000000E+00 -0.00000000000E+00 -0.17179869298E+03  0.17179869298E+03  0.00000000000E+00 0. -1.
         35    2    1    2    0    0  0.00000000000E+00  0.00000000000E+00 -0.61117391947E+02  0.28247999401E+03  0.27578907052E+03 0.  0.
         25    1    3    3    0    0 -0.56223351626E+02  0.33978473980E+02 -0.48278734027E+02  0.14507390572E+03  0.12000000000E+03 0.  0.
         25    1    3    3    0    0  0.56223351626E+02 -0.33978473980E+02 -0.12838657920E+02  0.13740608829E+03  0.12000000000E+03 0.  0.
<mgrwt>
<rscale>  0 0.27578907E+03</rscale>
<asrwt>0</asrwt>
<pdfrwt beam="1">  1        2 0.17027893E-01 0.27578907E+03</pdfrwt>
<pdfrwt beam="2">  1       -2 0.26430568E-01 0.27578907E+03</pdfrwt>
<totfact> 0.42876924E+03</totfact>
</mgrwt>
</event>
<event>
 5    1  0.1162308E+001  0.2737889E+03  0.7818608E-02  0.1099130E+00
         -1   -1    0    0    0  501 -0.00000000000E+00  0.00000000000E+00  0.75216311316E+03  0.75216311316E+03  0.00000000000E+00 0. -1.
          1   -1    0    0  501    0  0.00000000000E+00 -0.00000000000E+00 -0.24914929093E+02  0.24914929093E+02  0.00000000000E+00 0. -1.
         35    2    1    2    0    0  0.00000000000E+00  0.00000000000E+00  0.72724818407E+03  0.77707804225E+03  0.27378890139E+03 0.  0.
         25    1    3    3    0    0  0.60414445397E+02  0.16058320673E+02  0.30461086963E+03  0.33331000101E+03  0.12000000000E+03 0.  0.
         25    1    3    3    0    0 -0.60414445397E+02 -0.16058320673E+02  0.42263731443E+03  0.44376804124E+03  0.12000000000E+03 0.  0.
<mgrwt>
<rscale>  0 0.27378890E+03</rscale>
<asrwt>0</asrwt>
<pdfrwt beam="1">  1        1 0.38330666E-02 0.27378890E+03</pdfrwt>
<pdfrwt beam="2">  1       -1 0.11571738E+00 0.27378890E+03</pdfrwt>
<totfact> 0.17387536E+03</totfact>
</mgrwt>
</event>
<event>
 5    1  0.1162308E+001  0.2751323E+03  0.7818608E-02  0.1098378E+00
          1   -1    0    0  501    0  0.00000000000E+00  0.00000000000E+00  0.11037586067E+04  0.11037586067E+04  0.00000000000E+00 0. -1.
         -1   -1    0    0    0  501 -0.00000000000E+00 -0.00000000000E+00 -0.17145455061E+02  0.17145455061E+02  0.00000000000E+00 0. -1.
         35    2    1    2    0    0  0.00000000000E+00  0.00000000000E+00  0.10866131516E+04  0.11209040617E+04  0.27513228519E+03 0.  0.
         25    1    3    3    0    0  0.28493382204E+02 -0.28673651414E+02  0.76233742978E+03  0.77278225132E+03  0.12000000000E+03 0.  0.
         25    1    3    3    0    0 -0.28493382204E+02  0.28673651414E+02  0.32427572185E+03  0.34812181043E+03  0.12000000000E+03 0.  0.
<mgrwt>
<rscale>  0 0.27513229E+03</rscale>
<asrwt>0</asrwt>
<pdfrwt beam="1">  1        1 0.16980896E+00 0.27513229E+03</pdfrwt>
<pdfrwt beam="2">  1       -1 0.26377632E-02 0.27513229E+03</pdfrwt>
<totfact> 0.61156002E+03</totfact>
</mgrwt>
</event>
<event>
 5    1  0.1162308E+001  0.2754008E+03  0.7818608E-02  0.1098228E+00
         -1   -1    0    0    0  501 -0.00000000000E+00  0.00000000000E+00  0.33629887350E+03  0.33629887350E+03  0.00000000000E+00 0.  1.
          1   -1    0    0  501    0  0.00000000000E+00 -0.00000000000E+00 -0.56382586447E+02  0.56382586447E+02  0.00000000000E+00 0.  1.
         35    2    1    2    0    0  0.00000000000E+00  0.00000000000E+00  0.27991628705E+03  0.39268145994E+03  0.27540080107E+03 0.  0.
         25    1    3    3    0    0 -0.66724962216E+02  0.94093008924E+01  0.14643673114E+03  0.20095888075E+03  0.12000000000E+03 0.  0.
         25    1    3    3    0    0  0.66724962216E+02 -0.94093008924E+01  0.13347955591E+03  0.19172257919E+03  0.12000000000E+03 0.  0.
<mgrwt>
<rscale>  0 0.27540080E+03</rscale>
<asrwt>0</asrwt>
<pdfrwt beam="1">  1        1 0.86742443E-02 0.27540080E+03</pdfrwt>
<pdfrwt beam="2">  1       -1 0.51738287E-01 0.27540080E+03</pdfrwt>
<totfact> 0.29896351E+03</totfact>
</mgrwt>
</event>
<event>
 5    1  0.1162308E+001  0.2751380E+03  0.7818608E-02  0.1098375E+00
         -1   -1    0    0    0  501 -0.00000000000E+00  0.00000000000E+00  0.77391596299E+01  0.77391596299E+01  0.00000000000E+00 0.  1.
          1   -1    0    0  501    0  0.00000000000E+00 -0.00000000000E+00 -0.24453850703E+04  0.24453850703E+04  0.00000000000E+00 0.  1.
         35    2    1    2    0    0  0.00000000000E+00  0.00000000000E+00 -0.24376459106E+04  0.24531242299E+04  0.27513796841E+03 0.  0.
         25    1    3    3    0    0  0.65978176527E+02 -0.31950102720E+01 -0.11053769651E+04  0.11138319276E+04  0.12000000000E+03 0.  0.
         25    1    3    3    0    0 -0.65978176527E+02  0.31950102720E+01 -0.13322689455E+04  0.13392923023E+04  0.12000000000E+03 0.  0.
<mgrwt>
<rscale>  0 0.27513797E+03</rscale>
<asrwt>0</asrwt>
<pdfrwt beam="1">  1        1 0.37621399E+00 0.27513797E+03</pdfrwt>
<pdfrwt beam="2">  1       -1 0.11906371E-02 0.27513797E+03</pdfrwt>
<totfact> 0.25176123E+03</totfact>
</mgrwt>
</event>
<event>
 5    1  0.1162308E+001  0.2749549E+03  0.7818608E-02  0.1098477E+00
          2   -1    0    0  501    0  0.00000000000E+00  0.00000000000E+00  0.68947615295E+03  0.68947615295E+03  0.00000000000E+00 0.  1.
         -2   -1    0    0    0  501 -0.00000000000E+00 -0.00000000000E+00 -0.27412189169E+02  0.27412189169E+02  0.00000000000E+00 0.  1.
         35    2    1    2    0    0  0.00000000000E+00  0.00000000000E+00  0.66206396378E+03  0.71688834212E+03  0.27495491072E+03 0.  0.
         25    1    3    3    0    0  0.57262671264E+01  0.60662226827E+02  0.40419224966E+03  0.42600947241E+03  0.12000000000E+03 0.  0.
         25    1    3    3    0    0 -0.57262671264E+01 -0.60662226827E+02  0.25787171412E+03  0.29087886971E+03  0.12000000000E+03 0.  0.
<mgrwt>
<rscale>  0 0.27495491E+03</rscale>
<asrwt>0</asrwt>
<pdfrwt beam="1">  1        2 0.10607324E+00 0.27495491E+03</pdfrwt>
<pdfrwt beam="2">  1       -2 0.42172604E-02 0.27495491E+03</pdfrwt>
<totfact> 0.10795177E+04</totfact>
</mgrwt>
</event>
<event>
 5    1  0.1162308E+001  0.2745682E+03  0.7818608E-02  0.1098693E+00
          2   -1    0    0  501    0  0.00000000000E+00  0.00000000000E+00  0.30255875802E+02  0.30255875802E+02  0.00000000000E+00 0.  1.
         -2   -1    0    0    0  501 -0.00000000000E+00 -0.00000000000E+00 -0.62291794440E+03  0.62291794440E+03  0.00000000000E+00 0.  1.
         35    2    1    2    0    0  0.00000000000E+00  0.00000000000E+00 -0.59266206860E+03  0.65317382020E+03  0.27456822803E+03 0.  0.
         25    1    3    3    0    0 -0.56613526204E+02 -0.58592404407E+01 -0.37899631058E+03  0.40159385638E+03  0.12000000000E+03 0.  0.
         25    1    3    3    0    0  0.56613526204E+02  0.58592404407E+01 -0.21366575802E+03  0.25157996382E+03  0.12000000000E+03 0.  0.
<mgrwt>
<rscale>  0 0.27456823E+03</rscale>
<asrwt>0</asrwt>
<pdfrwt beam="1">  1        2 0.46547507E-02 0.27456823E+03</pdfrwt>
<pdfrwt beam="2">  1       -2 0.95833519E-01 0.27456823E+03</pdfrwt>
<totfact> 0.16353489E+03</totfact>
</mgrwt>
</event>
<event>
 5    1  0.1162308E+001  0.2747980E+03  0.7818608E-02  0.1098565E+00
         -3   -1    0    0    0  501 -0.00000000000E+00  0.00000000000E+00  0.19496178310E+03  0.19496178310E+03  0.00000000000E+00 0.  1.
          3   -1    0    0  501    0  0.00000000000E+00 -0.00000000000E+00 -0.96831745634E+02  0.96831745634E+02  0.00000000000E+00 0.  1.
         35    2    1    2    0    0  0.00000000000E+00  0.00000000000E+00  0.98130037467E+02  0.29179352874E+03  0.27479803340E+03 0.  0.
         25    1    3    3    0    0  0.97680948948E+01  0.53009783623E+02  0.69505333626E+01  0.13173368116E+03  0.12000000000E+03 0.  0.
         25    1    3    3    0    0 -0.97680948948E+01 -0.53009783623E+02  0.91179504105E+02  0.16005984758E+03  0.12000000000E+03 0.  0.
<mgrwt>
<rscale>  0 0.27479803E+03</rscale>
<asrwt>0</asrwt>
<pdfrwt beam="1">  1        3 0.14897192E-01 0.27479803E+03</pdfrwt>
<pdfrwt beam="2">  1       -3 0.29994120E-01 0.27479803E+03</pdfrwt>
<totfact> 0.10258507E+03</totfact>
</mgrwt>
</event>
<event>
 5    1  0.1162308E+001  0.2754479E+03  0.7818608E-02  0.1098201E+00
         -2   -1    0    0    0  501 -0.00000000000E+00  0.00000000000E+00  0.19230270765E+03  0.19230270765E+03  0.00000000000E+00 0. -1.
          2   -1    0    0  501    0  0.00000000000E+00 -0.00000000000E+00 -0.98635597398E+02  0.98635597398E+02  0.00000000000E+00 0. -1.
         35    2    1    2    0    0  0.00000000000E+00  0.00000000000E+00  0.93667110255E+02  0.29093830505E+03  0.27544794391E+03 0.  0.
         25    1    3    3    0    0  0.28591136204E+02  0.55314866203E+02  0.19074309725E+02  0.13653210899E+03  0.12000000000E+03 0.  0.
         25    1    3    3    0    0 -0.28591136204E+02 -0.55314866203E+02  0.74592800530E+02  0.15440619607E+03  0.12000000000E+03 0.  0.
<mgrwt>
<rscale>  0 0.27544794E+03</rscale>
<asrwt>0</asrwt>
<pdfrwt beam="1">  1        2 0.15174707E-01 0.27544794E+03</pdfrwt>
<pdfrwt beam="2">  1       -2 0.29585032E-01 0.27544794E+03</pdfrwt>
<totfact> 0.40097215E+03</totfact>
</mgrwt>
</event>
<event>
 5    1  0.1162308E+001  0.2743014E+03  0.7818608E-02  0.1098843E+00
         -2   -1    0    0    0  501 -0.00000000000E+00  0.00000000000E+00  0.65683208159E+03  0.65683208159E+03  0.00000000000E+00 0.  1.
          2   -1    0    0  501    0  0.00000000000E+00 -0.00000000000E+00 -0.28637929107E+02  0.28637929107E+02  0.00000000000E+00 0.  1.
         35    2    1    2    0    0  0.00000000000E+00  0.00000000000E+00  0.62819415248E+03  0.68547001069E+03  0.27430137140E+03 0.  0.
         25    1    3    3    0    0  0.36650102219E+02 -0.30952470829E+02  0.42885993527E+03  0.44790861738E+03  0.12000000000E+03 0.  0.
         25    1    3    3    0    0 -0.36650102219E+02  0.30952470829E+02  0.19933421721E+03  0.23756139331E+03  0.12000000000E+03 0.  0.
<mgrwt>
<rscale>  0 0.27430137E+03</rscale>
<asrwt>0</asrwt>
<pdfrwt beam="1">  1        2 0.44058357E-02 0.27430137E+03</pdfrwt>
<pdfrwt beam="2">  1       -2 0.10105108E+00 0.27430137E+03</pdfrwt>
<totfact> 0.15563582E+03</totfact>
</mgrwt>
</event>
<event>
 5    1  0.1162308E+001  0.2760332E+03  0.7818608E-02  0.1097875E+00
         -1   -1    0    0    0  501 -0.00000000000E+00  0.00000000000E+00  0.18119572287E+02  0.18119572287E+02  0.00000000000E+00 0.  1.
          1   -1    0    0  501    0  0.00000000000E+00 -0.00000000000E+00 -0.10512707784E+04  0.10512707784E+04  0.00000000000E+00 0.  1.
         35    2    1    2    0    0  0.00000000000E+00  0.00000000000E+00 -0.10331512061E+04  0.10693903507E+04  0.27603316367E+03 0.  0.
         25    1    3    3    0    0 -0.65788992553E+02 -0.32889427904E+01 -0.44841190368E+03  0.46884138474E+03  0.12000000000E+03 0.  0.
         25    1    3    3    0    0  0.65788992553E+02  0.32889427904E+01 -0.58473930241E+03  0.60054896592E+03  0.12000000000E+03 0.  0.
<mgrwt>
<rscale>  0 0.27603316E+03</rscale>
<asrwt>0</asrwt>
<pdfrwt beam="1">  1        1 0.16173392E+00 0.27603316E+03</pdfrwt>
<pdfrwt beam="2">  1       -1 0.27876274E-02 0.27603316E+03</pdfrwt>
<totfact> 0.61556976E+03</totfact>
</mgrwt>
</event>
<event>
 5    1  0.1162308E+001  0.2744161E+03  0.7818608E-02  0.1098778E+00
          2   -1    0    0  501    0  0.00000000000E+00  0.00000000000E+00  0.62161265117E+02  0.62161265117E+02  0.00000000000E+00 0.  1.
         -2   -1    0    0    0  501 -0.00000000000E+00 -0.00000000000E+00 -0.30285810650E+03  0.30285810650E+03  0.00000000000E+00 0.  1.
         35    2    1    2    0    0  0.00000000000E+00  0.00000000000E+00 -0.24069684138E+03  0.36501937161E+03  0.27441605675E+03 0.  0.
         25    1    3    3    0    0 -0.45939859257E+02 -0.41297162235E+02 -0.87492557900E+02  0.16084425375E+03  0.12000000000E+03 0.  0.
         25    1    3    3    0    0  0.45939859257E+02  0.41297162235E+02 -0.15320428348E+03  0.20417511786E+03  0.12000000000E+03 0.  0.
<mgrwt>
<rscale>  0 0.27441606E+03</rscale>
<asrwt>0</asrwt>
<pdfrwt beam="1">  1        2 0.95632713E-02 0.27441606E+03</pdfrwt>
<pdfrwt beam="2">  1       -2 0.46593556E-01 0.27441606E+03</pdfrwt>
<totfact> 0.29853149E+03</totfact>
</mgrwt>
</event>
<event>
 5    1  0.1162308E+001  0.2742481E+03  0.7818608E-02  0.1098873E+00
          1   -1    0    0  501    0  0.00000000000E+00  0.00000000000E+00  0.42751624428E+02  0.42751624428E+02  0.00000000000E+00 0.  1.
         -1   -1    0    0    0  501 -0.00000000000E+00 -0.00000000000E+00 -0.43981960511E+03  0.43981960511E+03  0.00000000000E+00 0.  1.
         35    2    1    2    0    0  0.00000000000E+00  0.00000000000E+00 -0.39706798069E+03  0.48257122954E+03  0.27424808166E+03 0.  0.
         25    1    3    3    0    0 -0.36114377891E+02  0.34609875095E+01 -0.10077192353E+03  0.16084528995E+03  0.12000000000E+03 0.  0.
         25    1    3    3    0    0  0.36114377891E+02 -0.34609875095E+01 -0.29629605715E+03  0.32172593960E+03  0.12000000000E+03 0.  0.
<mgrwt>
<rscale>  0 0.27424808E+03</rscale>
<asrwt>0</asrwt>
<pdfrwt beam="1">  1        1 0.65771730E-02 0.27424808E+03</pdfrwt>
<pdfrwt beam="2">  1       -1 0.67664554E-01 0.27424808E+03</pdfrwt>
<totfact> 0.26047556E+03</totfact>
</mgrwt>
</event>
<event>
 5    1  0.1162308E+001  0.2737301E+03  0.7818608E-02  0.1099164E+00
         -2   -1    0    0    0  501 -0.00000000000E+00  0.00000000000E+00  0.44415512324E+02  0.44415512324E+02  0.00000000000E+00 0.  1.
          2   -1    0    0  501    0  0.00000000000E+00 -0.00000000000E+00 -0.42174562985E+03  0.42174562985E+03  0.00000000000E+00 0.  1.
         35    2    1    2    0    0  0.00000000000E+00  0.00000000000E+00 -0.37733011753E+03  0.46616114218E+03  0.27373014610E+03 0.  0.
         25    1    3    3    0    0  0.36447446495E+02  0.45990776073E+02 -0.13790321816E+03  0.19199183685E+03  0.12000000000E+03 0.  0.
         25    1    3    3    0    0 -0.36447446495E+02 -0.45990776073E+02 -0.23942689937E+03  0.27416930533E+03  0.12000000000E+03 0.  0.
<mgrwt>
<rscale>  0 0.27373015E+03</rscale>
<asrwt>0</asrwt>
<pdfrwt beam="1">  1        2 0.64883941E-01 0.27373015E+03</pdfrwt>
<pdfrwt beam="2">  1       -2 0.68331559E-02 0.27373015E+03</pdfrwt>
<totfact> 0.90498528E+03</totfact>
</mgrwt>
</event>
<event>
 5    1  0.1162308E+001  0.2750064E+03  0.7818608E-02  0.1098448E+00
          2   -1    0    0  501    0  0.00000000000E+00  0.00000000000E+00  0.46506390868E+02  0.46506390868E+02  0.00000000000E+00 0. -1.
         -2   -1    0    0    0  501 -0.00000000000E+00 -0.00000000000E+00 -0.40654904495E+03  0.40654904495E+03  0.00000000000E+00 0. -1.
         35    2    1    2    0    0  0.00000000000E+00  0.00000000000E+00 -0.36004265408E+03  0.45305543582E+03  0.27500639114E+03 0.  0.
         25    1    3    3    0    0  0.32289671003E+02 -0.36173834228E+02 -0.25651559157E+03  0.28731762538E+03  0.12000000000E+03 0.  0.
         25    1    3    3    0    0 -0.32289671003E+02  0.36173834228E+02 -0.10352706251E+03  0.16573781044E+03  0.12000000000E+03 0.  0.
<mgrwt>
<rscale>  0 0.27500639E+03</rscale>
<asrwt>0</asrwt>
<pdfrwt beam="1">  1        2 0.71548290E-02 0.27500639E+03</pdfrwt>
<pdfrwt beam="2">  1       -2 0.62546010E-01 0.27500639E+03</pdfrwt>
<totfact> 0.23738170E+03</totfact>
</mgrwt>
</event>
<event>
 5    1  0.1162308E+001  0.2764972E+03  0.7818608E-02  0.1097618E+00
         -2   -1    0    0    0  501 -0.00000000000E+00  0.00000000000E+00  0.12997237888E+02  0.12997237888E+02  0.00000000000E+00 0.  1.
          2   -1    0    0  501    0  0.00000000000E+00 -0.00000000000E+00 -0.14705184996E+04  0.14705184996E+04  0.00000000000E+00 0.  1.
         35    2    1    2    0    0  0.00000000000E+00  0.00000000000E+00 -0.14575212617E+04  0.14835157375E+04  0.27649722428E+03 0.  0.
         25    1    3    3    0    0  0.26224420813E+02 -0.34260332062E+02 -0.10152538328E+04  0.10232310764E+04  0.12000000000E+03 0.  0.
         25    1    3    3    0    0 -0.26224420813E+02  0.34260332062E+02 -0.44226742892E+03  0.46028466114E+03  0.12000000000E+03 0.  0.
<mgrwt>
<rscale>  0 0.27649722E+03</rscale>
<asrwt>0</asrwt>
<pdfrwt beam="1">  1        2 0.22623349E+00 0.27649722E+03</pdfrwt>
<pdfrwt beam="2">  1       -2 0.19995762E-02 0.27649722E+03</pdfrwt>
<totfact> 0.10944142E+04</totfact>
</mgrwt>
</event>
<event>
 5    1  0.1162308E+001  0.2760521E+03  0.7818608E-02  0.1097865E+00
          2   -1    0    0  501    0  0.00000000000E+00  0.00000000000E+00  0.14083072420E+04  0.14083072420E+04  0.00000000000E+00 0.  1.
         -2   -1    0    0    0  501 -0.00000000000E+00 -0.00000000000E+00 -0.13527719435E+02  0.13527719435E+02  0.00000000000E+00 0.  1.
         35    2    1    2    0    0  0.00000000000E+00  0.00000000000E+00  0.13947795226E+04  0.14218349615E+04  0.27605206211E+03 0.  0.
         25    1    3    3    0    0  0.19168380583E+01 -0.49859872251E+02  0.93685155265E+03  0.94582266458E+03  0.12000000000E+03 0.  0.
         25    1    3    3    0    0 -0.19168380583E+01  0.49859872251E+02  0.45792796993E+03  0.47601229688E+03  0.12000000000E+03 0.  0.
<mgrwt>
<rscale>  0 0.27605206E+03</rscale>
<asrwt>0</asrwt>
<pdfrwt beam="1">  1        2 0.21666254E+00 0.27605206E+03</pdfrwt>
<pdfrwt beam="2">  1       -2 0.20811887E-02 0.27605206E+03</pdfrwt>
<totfact> 0.11147347E+04</totfact>
</mgrwt>
</event>
<event>
 5    1  0.1162308E+001  0.2756442E+03  0.7818608E-02  0.1098092E+00
         -2   -1    0    0    0  501 -0.00000000000E+00  0.00000000000E+00  0.47674043630E+02  0.47674043630E+02  0.00000000000E+00 0. -1.
          2   -1    0    0  501    0  0.00000000000E+00 -0.00000000000E+00 -0.39843337111E+03  0.39843337111E+03  0.00000000000E+00 0. -1.
         35    2    1    2    0    0  0.00000000000E+00  0.00000000000E+00 -0.35075932748E+03  0.44610741474E+03  0.27564419035E+03 0.  0.
         25    1    3    3    0    0  0.57068163190E+02  0.13450945424E+02 -0.12032427575E+03  0.17976549869E+03  0.12000000000E+03 0.  0.
         25    1    3    3    0    0 -0.57068163190E+02 -0.13450945424E+02 -0.23043505173E+03  0.26634191606E+03  0.12000000000E+03 0.  0.
<mgrwt>
<rscale>  0 0.27564419E+03</rscale>
<asrwt>0</asrwt>
<pdfrwt beam="1">  1        2 0.61297442E-01 0.27564419E+03</pdfrwt>
<pdfrwt beam="2">  1       -2 0.73344682E-02 0.27564419E+03</pdfrwt>
<totfact> 0.86300848E+03</totfact>
</mgrwt>
</event>
<event>
 5    1  0.1162308E+001  0.2752104E+03  0.7818608E-02  0.1098334E+00
         -2   -1    0    0    0  501 -0.00000000000E+00  0.00000000000E+00  0.39517341278E+02  0.39517341278E+02  0.00000000000E+00 0. -1.
          2   -1    0    0  501    0  0.00000000000E+00 -0.00000000000E+00 -0.47916159859E+03  0.47916159859E+03  0.00000000000E+00 0. -1.
         35    2    1    2    0    0  0.00000000000E+00  0.00000000000E+00 -0.43964425732E+03  0.51867893987E+03  0.27521040982E+03 0.  0.
         25    1    3    3    0    0 -0.14990299455E+02 -0.41042174127E+02 -0.31640120414E+03  0.34120212648E+03  0.12000000000E+03 0.  0.
         25    1    3    3    0    0  0.14990299455E+02  0.41042174127E+02 -0.12324305318E+03  0.17747681339E+03  0.12000000000E+03 0.  0.
<mgrwt>
<rscale>  0 0.27521041E+03</rscale>
<asrwt>0</asrwt>
<pdfrwt beam="1">  1        2 0.73717168E-01 0.27521041E+03</pdfrwt>
<pdfrwt beam="2">  1       -2 0.60795911E-02 0.27521041E+03</pdfrwt>
<totfact> 0.94163100E+03</totfact>
</mgrwt>
</event>
<event>
 5    1  0.1162308E+001  0.2620403E+03  0.7818608E-02  0.1105924E+00
          1   -1    0    0  501    0  0.00000000000E+00  0.00000000000E+00  0.12340442720E+04  0.12340442720E+04  0.00000000000E+00 0.  1.
         -1   -1    0    0    0  501 -0.00000000000E+00 -0.00000000000E+00 -0.13910583996E+02  0.13910583996E+02  0.00000000000E+00 0.  1.
         35    2    1    2    0    0  0.00000000000E+00  0.00000000000E+00  0.12201336880E+04  0.12479548560E+04  0.26204027553E+03 0.  0.
         25    1    3    3    0    0 -0.49387487825E+02  0.10942647432E+01  0.52408440924E+03  0.53991183482E+03  0.12000000000E+03 0.  0.
         25    1    3    3    0    0  0.49387487825E+02 -0.10942647432E+01  0.69604927878E+03  0.70804302119E+03  0.12000000000E+03 0.  0.
<mgrwt>
<rscale>  0 0.26204028E+03</rscale>
<asrwt>0</asrwt>
<pdfrwt beam="1">  1        1 0.18985288E+00 0.26204028E+03</pdfrwt>
<pdfrwt beam="2">  1       -1 0.21400908E-02 0.26204028E+03</pdfrwt>
<totfact> 0.67190340E+03</totfact>
</mgrwt>
</event>
<event>
 5    1  0.1162308E+001  0.2743531E+03  0.7818608E-02  0.1098814E+00
          2   -1    0    0  501    0  0.00000000000E+00  0.00000000000E+00  0.27708890400E+02  0.27708890400E+02  0.00000000000E+00 0. -1.
         -2   -1    0    0    0  501 -0.00000000000E+00 -0.00000000000E+00 -0.67911081655E+03  0.67911081655E+03  0.00000000000E+00 0. -1.
         35    2    1    2    0    0  0.00000000000E+00  0.00000000000E+00 -0.65140192615E+03  0.70681970695E+03  0.27435310959E+03 0.  0.
         25    1    3    3    0    0 -0.58381470236E+02  0.23975688305E+02 -0.37938342367E+03  0.40288337252E+03  0.12000000000E+03 0.  0.
         25    1    3    3    0    0  0.58381470236E+02 -0.23975688305E+02 -0.27201850249E+03  0.30393633444E+03  0.12000000000E+03 0.  0.
<mgrwt>
<rscale>  0 0.27435311E+03</rscale>
<asrwt>0</asrwt>
<pdfrwt beam="1">  1        2 0.42629062E-02 0.27435311E+03</pdfrwt>
<pdfrwt beam="2">  1       -2 0.10447859E+00 0.27435311E+03</pdfrwt>
<totfact> 0.15041604E+03</totfact>
</mgrwt>
</event>
<event>
 5    1  0.1162308E+001  0.2745789E+03  0.7818608E-02  0.1098687E+00
         -3   -1    0    0    0  501 -0.00000000000E+00  0.00000000000E+00  0.25282234193E+02  0.25282234193E+02  0.00000000000E+00 0.  1.
          3   -1    0    0  501    0  0.00000000000E+00 -0.00000000000E+00 -0.74551919777E+03  0.74551919777E+03  0.00000000000E+00 0.  1.
         35    2    1    2    0    0  0.00000000000E+00  0.00000000000E+00 -0.72023696358E+03  0.77080143197E+03  0.27457888450E+03 0.  0.
         25    1    3    3    0    0 -0.27343845488E+02  0.51214949516E+02 -0.45227608498E+03  0.47151279303E+03  0.12000000000E+03 0.  0.
         25    1    3    3    0    0  0.27343845488E+02 -0.51214949516E+02 -0.26796087860E+03  0.29928863894E+03  0.12000000000E+03 0.  0.
<mgrwt>
<rscale>  0 0.27457888E+03</rscale>
<asrwt>0</asrwt>
<pdfrwt beam="1">  1        3 0.11469527E+00 0.27457888E+03</pdfrwt>
<pdfrwt beam="2">  1       -3 0.38895741E-02 0.27457888E+03</pdfrwt>
<totfact> 0.56765846E+02</totfact>
</mgrwt>
</event>
<event>
 5    1  0.1162308E+001  0.2888883E+03  0.7818608E-02  0.1090931E+00
          2   -1    0    0  501    0  0.00000000000E+00  0.00000000000E+00  0.39963612912E+03  0.39963612912E+03  0.00000000000E+00 0. -1.
         -2   -1    0    0    0  501 -0.00000000000E+00 -0.00000000000E+00 -0.52207756064E+02  0.52207756064E+02  0.00000000000E+00 0. -1.
         35    2    1    2    0    0  0.00000000000E+00  0.00000000000E+00  0.34742837305E+03  0.45184388518E+03  0.28888825205E+03 0.  0.
         25    1    3    3    0    0  0.12043921489E+02 -0.24964184201E+01  0.29798528627E+03  0.32147553404E+03  0.12000000000E+03 0.  0.
         25    1    3    3    0    0 -0.12043921489E+02  0.24964184201E+01  0.49443086781E+02  0.13036835114E+03  0.12000000000E+03 0.  0.
<mgrwt>
<rscale>  0 0.28888825E+03</rscale>
<asrwt>0</asrwt>
<pdfrwt beam="1">  1        2 0.61482479E-01 0.28888825E+03</pdfrwt>
<pdfrwt beam="2">  1       -2 0.80319628E-02 0.28888825E+03</pdfrwt>
<totfact> 0.74784374E+03</totfact>
</mgrwt>
</event>
<event>
 5    1  0.1162308E+001  0.2764824E+03  0.7818608E-02  0.1097626E+00
          2   -1    0    0  501    0  0.00000000000E+00  0.00000000000E+00  0.14184595170E+04  0.14184595170E+04  0.00000000000E+00 0.  1.
         -2   -1    0    0    0  501 -0.00000000000E+00 -0.00000000000E+00 -0.13472805841E+02  0.13472805841E+02  0.00000000000E+00 0.  1.
         35    2    1    2    0    0  0.00000000000E+00  0.00000000000E+00  0.14049867112E+04  0.14319323229E+04  0.27648240209E+03 0.  0.
         25    1    3    3    0    0  0.52104969374E+02 -0.13448183820E+02  0.48185797851E+03  0.49948262526E+03  0.12000000000E+03 0.  0.
         25    1    3    3    0    0 -0.52104969374E+02  0.13448183820E+02  0.92312873268E+03  0.93244969762E+03  0.12000000000E+03 0.  0.
<mgrwt>
<rscale>  0 0.27648240E+03</rscale>
<asrwt>0</asrwt>
<pdfrwt beam="1">  1        2 0.21822442E+00 0.27648240E+03</pdfrwt>
<pdfrwt beam="2">  1       -2 0.20727405E-02 0.27648240E+03</pdfrwt>
<totfact> 0.11073542E+04</totfact>
</mgrwt>
</event>
<event>
 5    1  0.1162308E+001  0.2746913E+03  0.7818608E-02  0.1098624E+00
         -2   -1    0    0    0  501 -0.00000000000E+00  0.00000000000E+00  0.26918442730E+04  0.26918442730E+04  0.00000000000E+00 0. -1.
          2   -1    0    0  501    0  0.00000000000E+00 -0.00000000000E+00 -0.70077701474E+01  0.70077701474E+01  0.00000000000E+00 0. -1.
         35    2    1    2    0    0  0.00000000000E+00  0.00000000000E+00  0.26848365028E+04  0.26988520431E+04  0.27469128809E+03 0.  0.
         25    1    3    3    0    0 -0.10730780709E+02 -0.55461982117E+02  0.16929180703E+04  0.16981056427E+04  0.12000000000E+03 0.  0.
         25    1    3    3    0    0  0.10730780709E+02  0.55461982117E+02  0.99191843253E+03  0.10007464004E+04  0.12000000000E+03 0.  0.
<mgrwt>
<rscale>  0 0.27469129E+03</rscale>
<asrwt>0</asrwt>
<pdfrwt beam="1">  1        2 0.10781206E-02 0.27469129E+03</pdfrwt>
<pdfrwt beam="2">  1       -2 0.41412906E+00 0.27469129E+03</pdfrwt>
<totfact> 0.95081962E+01</totfact>
</mgrwt>
</event>
<event>
 5    1  0.1162308E+001  0.2698671E+03  0.7818608E-02  0.1101356E+00
         -2   -1    0    0    0  501 -0.00000000000E+00  0.00000000000E+00  0.61580892370E+02  0.61580892370E+02  0.00000000000E+00 0.  1.
          2   -1    0    0  501    0  0.00000000000E+00 -0.00000000000E+00 -0.29566087445E+03  0.29566087445E+03  0.00000000000E+00 0.  1.
         35    2    1    2    0    0  0.00000000000E+00  0.00000000000E+00 -0.23407998208E+03  0.35724176682E+03  0.26986708200E+03 0.  0.
         25    1    3    3    0    0 -0.21888401900E+02 -0.50121771997E+02 -0.15484899194E+03  0.20339494701E+03  0.12000000000E+03 0.  0.
         25    1    3    3    0    0  0.21888401900E+02  0.50121771997E+02 -0.79230990141E+02  0.15384681981E+03  0.12000000000E+03 0.  0.
<mgrwt>
<rscale>  0 0.26986708E+03</rscale>
<asrwt>0</asrwt>
<pdfrwt beam="1">  1        2 0.45486289E-01 0.26986708E+03</pdfrwt>
<pdfrwt beam="2">  1       -2 0.94739834E-02 0.26986708E+03</pdfrwt>
<totfact> 0.79663163E+03</totfact>
</mgrwt>
</event>
<event>
 5    1  0.1162308E+001  0.2750215E+03  0.7818608E-02  0.1098440E+00
          1   -1    0    0  501    0  0.00000000000E+00  0.00000000000E+00  0.35013994013E+03  0.35013994013E+03  0.00000000000E+00 0.  1.
         -1   -1    0    0    0  501 -0.00000000000E+00 -0.00000000000E+00 -0.54004697943E+02  0.54004697943E+02  0.00000000000E+00 0.  1.
         35    2    1    2    0    0  0.00000000000E+00  0.00000000000E+00  0.29613524219E+03  0.40414463807E+03  0.27502146610E+03 0.  0.
         25    1    3    3    0    0 -0.53001493021E+02 -0.52233267972E+01  0.20816936652E+03  0.24611161403E+03  0.12000000000E+03 0.  0.
         25    1    3    3    0    0  0.53001493021E+02  0.52233267972E+01  0.87965875671E+02  0.15803302404E+03  0.12000000000E+03 0.  0.
<mgrwt>
<rscale>  0 0.27502147E+03</rscale>
<asrwt>0</asrwt>
<pdfrwt beam="1">  1        1 0.53867682E-01 0.27502147E+03</pdfrwt>
<pdfrwt beam="2">  1       -1 0.83084153E-02 0.27502147E+03</pdfrwt>
<totfact> 0.58065705E+03</totfact>
</mgrwt>
</event>
<event>
 5    1  0.1162308E+001  0.2751971E+03  0.7818608E-02  0.1098341E+00
          1   -1    0    0  501    0  0.00000000000E+00  0.00000000000E+00  0.19890716166E+03  0.19890716166E+03  0.00000000000E+00 0. -1.
         -1   -1    0    0    0  501 -0.00000000000E+00 -0.00000000000E+00 -0.95186902208E+02  0.95186902208E+02  0.00000000000E+00 0. -1.
         35    2    1    2    0    0  0.00000000000E+00  0.00000000000E+00  0.10372025945E+03  0.29409406386E+03  0.27519706790E+03 0.  0.
         25    1    3    3    0    0 -0.41344121668E+02 -0.29696184231E+02  0.47640671280E+01  0.13043732629E+03  0.12000000000E+03 0.  0.
         25    1    3    3    0    0  0.41344121668E+02  0.29696184231E+02  0.98956192320E+02  0.16365673757E+03  0.12000000000E+03 0.  0.
<mgrwt>
<rscale>  0 0.27519707E+03</rscale>
<asrwt>0</asrwt>
<pdfrwt beam="1">  1        1 0.30601102E-01 0.27519707E+03</pdfrwt>
<pdfrwt beam="2">  1       -1 0.14644139E-01 0.27519707E+03</pdfrwt>
<totfact> 0.48992194E+03</totfact>
</mgrwt>
</event>
<event>
 5    1  0.1162308E+001  0.2750394E+03  0.7818608E-02  0.1098430E+00
         -3   -1    0    0    0  501 -0.00000000000E+00  0.00000000000E+00  0.41980155038E+02  0.41980155038E+02  0.00000000000E+00 0. -1.
          3   -1    0    0  501    0  0.00000000000E+00 -0.00000000000E+00 -0.45049074541E+03  0.45049074541E+03  0.00000000000E+00 0. -1.
         35    2    1    2    0    0  0.00000000000E+00  0.00000000000E+00 -0.40851059037E+03  0.49247090045E+03  0.27503942507E+03 0.  0.
         25    1    3    3    0    0 -0.32070326182E+02  0.56421353064E+02 -0.17325264268E+03  0.22051837361E+03  0.12000000000E+03 0.  0.
         25    1    3    3    0    0  0.32070326182E+02 -0.56421353064E+02 -0.23525794769E+03  0.27195252684E+03  0.12000000000E+03 0.  0.
<mgrwt>
<rscale>  0 0.27503943E+03</rscale>
<asrwt>0</asrwt>
<pdfrwt beam="1">  1        3 0.69306272E-01 0.27503943E+03</pdfrwt>
<pdfrwt beam="2">  1       -3 0.64584851E-02 0.27503943E+03</pdfrwt>
<totfact> 0.78138743E+02</totfact>
</mgrwt>
</event>
<event>
 5    1  0.1162308E+001  0.2752268E+03  0.7818608E-02  0.1098325E+00
         -1   -1    0    0    0  501 -0.00000000000E+00  0.00000000000E+00  0.25613238890E+03  0.25613238890E+03  0.00000000000E+00 0.  1.
          1   -1    0    0  501    0  0.00000000000E+00 -0.00000000000E+00 -0.73936159212E+02  0.73936159212E+02  0.00000000000E+00 0.  1.
         35    2    1    2    0    0  0.00000000000E+00  0.00000000000E+00  0.18219622969E+03  0.33006854811E+03  0.27522677984E+03 0.  0.
         25    1    3    3    0    0  0.38625219094E+02 -0.17398431545E+02  0.28290389264E+02  0.13036471568E+03  0.12000000000E+03 0.  0.
         25    1    3    3    0    0 -0.38625219094E+02  0.17398431545E+02  0.15390584043E+03  0.19970383243E+03  0.12000000000E+03 0.  0.
<mgrwt>
<rscale>  0 0.27522678E+03</rscale>
<asrwt>0</asrwt>
<pdfrwt beam="1">  1        1 0.11374794E-01 0.27522678E+03</pdfrwt>
<pdfrwt beam="2">  1       -1 0.39404983E-01 0.27522678E+03</pdfrwt>
<totfact> 0.34035560E+03</totfact>
</mgrwt>
</event>
<event>
 5    1  0.1162308E+001  0.2744295E+03  0.7818608E-02  0.1098771E+00
          3   -1    0    0  501    0  0.00000000000E+00  0.00000000000E+00  0.21390370646E+03  0.21390370646E+03  0.00000000000E+00 0.  1.
         -3   -1    0    0    0  501 -0.00000000000E+00 -0.00000000000E+00 -0.88020408021E+02  0.88020408021E+02  0.00000000000E+00 0.  1.
         35    2    1    2    0    0  0.00000000000E+00  0.00000000000E+00  0.12588329844E+03  0.30192411449E+03  0.27442952844E+03 0.  0.
         25    1    3    3    0    0 -0.44852472411E+00 -0.58831922705E+02  0.97144855244E+02  0.16522263527E+03  0.12000000000E+03 0.  0.
         25    1    3    3    0    0  0.44852472411E+00  0.58831922705E+02  0.28738443200E+02  0.13670147922E+03  0.12000000000E+03 0.  0.
<mgrwt>
<rscale>  0 0.27442953E+03</rscale>
<asrwt>0</asrwt>
<pdfrwt beam="1">  1        3 0.32908262E-01 0.27442953E+03</pdfrwt>
<pdfrwt beam="2">  1       -3 0.13541601E-01 0.27442953E+03</pdfrwt>
<totfact> 0.10153621E+03</totfact>
</mgrwt>
</event>
<event>
 5    1  0.1162308E+001  0.2754350E+03  0.7818608E-02  0.1098209E+00
          1   -1    0    0  501    0  0.00000000000E+00  0.00000000000E+00  0.10062179059E+03  0.10062179059E+03  0.00000000000E+00 0. -1.
         -1   -1    0    0    0  501 -0.00000000000E+00 -0.00000000000E+00 -0.18848914457E+03  0.18848914457E+03  0.00000000000E+00 0. -1.
         35    2    1    2    0    0  0.00000000000E+00  0.00000000000E+00 -0.87867353985E+02  0.28911093516E+03  0.27543503940E+03 0.  0.
         25    1    3    3    0    0  0.66636447223E+02  0.72738160993E+00 -0.32190231295E+02  0.14098636875E+03  0.12000000000E+03 0.  0.
         25    1    3    3    0    0 -0.66636447223E+02 -0.72738160993E+00 -0.55677122690E+02  0.14812456641E+03  0.12000000000E+03 0.  0.
<mgrwt>
<rscale>  0 0.27543504E+03</rscale>
<asrwt>0</asrwt>
<pdfrwt beam="1">  1        1 0.15480275E-01 0.27543504E+03</pdfrwt>
<pdfrwt beam="2">  1       -1 0.28998330E-01 0.27543504E+03</pdfrwt>
<totfact> 0.38495171E+03</totfact>
</mgrwt>
</event>
<event>
 5    1  0.1162308E+001  0.2744141E+03  0.7818608E-02  0.1098780E+00
          4   -1    0    0  501    0  0.00000000000E+00  0.00000000000E+00  0.27157919425E+03  0.27157919425E+03  0.00000000000E+00 0.  1.
         -4   -1    0    0    0  501 -0.00000000000E+00 -0.00000000000E+00 -0.69319652526E+02  0.69319652526E+02  0.00000000000E+00 0.  1.
         35    2    1    2    0    0  0.00000000000E+00  0.00000000000E+00  0.20225954173E+03  0.34089884678E+03  0.27441410590E+03 0.  0.
         25    1    3    3    0    0 -0.21680034210E+02 -0.61869552047E+02  0.11517961131E+03  0.17878536913E+03  0.12000000000E+03 0.  0.
         25    1    3    3    0    0  0.21680034210E+02  0.61869552047E+02  0.87079930421E+02  0.16211347765E+03  0.12000000000E+03 0.  0.
<mgrwt>
<rscale>  0 0.27441411E+03</rscale>
<asrwt>0</asrwt>
<pdfrwt beam="1">  1        4 0.41781414E-01 0.27441411E+03</pdfrwt>
<pdfrwt beam="2">  1       -4 0.10664562E-01 0.27441411E+03</pdfrwt>
<totfact> 0.71107012E+02</totfact>
</mgrwt>
</event>
<event>
 5    1  0.1162308E+001  0.2745450E+03  0.7818608E-02  0.1098706E+00
         -2   -1    0    0    0  501 -0.00000000000E+00  0.00000000000E+00  0.37833185927E+03  0.37833185927E+03  0.00000000000E+00 0. -1.
          2   -1    0    0  501    0  0.00000000000E+00 -0.00000000000E+00 -0.49807416653E+02  0.49807416653E+02  0.00000000000E+00 0. -1.
         35    2    1    2    0    0  0.00000000000E+00  0.00000000000E+00  0.32852444262E+03  0.42813927592E+03  0.27454495113E+03 0.  0.
         25    1    3    3    0    0 -0.27577015168E+02  0.41929563342E+02  0.23268554676E+03  0.26657296134E+03  0.12000000000E+03 0.  0.
         25    1    3    3    0    0  0.27577015168E+02 -0.41929563342E+02  0.95838895854E+02  0.16156631458E+03  0.12000000000E+03 0.  0.
<mgrwt>
<rscale>  0 0.27454495E+03</rscale>
<asrwt>0</asrwt>
<pdfrwt beam="1">  1        2 0.76626798E-02 0.27454495E+03</pdfrwt>
<pdfrwt beam="2">  1       -2 0.58204899E-01 0.27454495E+03</pdfrwt>
<totfact> 0.25238591E+03</totfact>
</mgrwt>
</event>
<event>
 5    1  0.1162308E+001  0.2748348E+03  0.7818608E-02  0.1098544E+00
          4   -1    0    0  501    0  0.00000000000E+00  0.00000000000E+00  0.94488339712E+02  0.94488339712E+02  0.00000000000E+00 0. -1.
         -4   -1    0    0    0  501 -0.00000000000E+00 -0.00000000000E+00 -0.19985049589E+03  0.19985049589E+03  0.00000000000E+00 0. -1.
         35    2    1    2    0    0  0.00000000000E+00  0.00000000000E+00 -0.10536215618E+03  0.29433883560E+03  0.27483479800E+03 0.  0.
         25    1    3    3    0    0  0.24178457296E+02 -0.30308139445E+02  0.57858454470E+01  0.12624047339E+03  0.12000000000E+03 0.  0.
         25    1    3    3    0    0 -0.24178457296E+02  0.30308139445E+02 -0.11114800163E+03  0.16809836222E+03  0.12000000000E+03 0.  0.
<mgrwt>
<rscale>  0 0.27483480E+03</rscale>
<asrwt>0</asrwt>
<pdfrwt beam="1">  1        4 0.14536668E-01 0.27483480E+03</pdfrwt>
<pdfrwt beam="2">  1       -4 0.30746230E-01 0.27483480E+03</pdfrwt>
<totfact> 0.75769955E+02</totfact>
</mgrwt>
</event>
<event>
 5    1  0.1162308E+001  0.2751752E+03  0.7818608E-02  0.1098354E+00
          2   -1    0    0  501    0  0.00000000000E+00  0.00000000000E+00  0.17135024837E+02  0.17135024837E+02  0.00000000000E+00 0.  1.
         -2   -1    0    0    0  501 -0.00000000000E+00 -0.00000000000E+00 -0.11047749479E+04  0.11047749479E+04  0.00000000000E+00 0.  1.
         35    2    1    2    0    0  0.00000000000E+00  0.00000000000E+00 -0.10876399231E+04  0.11219099727E+04  0.27517518908E+03 0.  0.
         25    1    3    3    0    0 -0.37582321857E+02 -0.81055698903E+01 -0.31857437221E+03  0.34258978649E+03  0.12000000000E+03 0.  0.
         25    1    3    3    0    0  0.37582321857E+02  0.81055698903E+01 -0.76906555086E+03  0.77932018626E+03  0.12000000000E+03 0.  0.
<mgrwt>
<rscale>  0 0.27517519E+03</rscale>
<asrwt>0</asrwt>
<pdfrwt beam="1">  1        2 0.26361577E-02 0.27517519E+03</pdfrwt>
<pdfrwt beam="2">  1       -2 0.16996538E+00 0.27517519E+03</pdfrwt>
<totfact> 0.85203853E+02</totfact>
</mgrwt>
</event>
<event>
 5    1  0.1162308E+001  0.2744233E+03  0.7818608E-02  0.1098774E+00
          1   -1    0    0  501    0  0.00000000000E+00  0.00000000000E+00  0.57592472562E+03  0.57592472562E+03  0.00000000000E+00 0. -1.
         -1   -1    0    0    0  501 -0.00000000000E+00 -0.00000000000E+00 -0.32690091842E+02  0.32690091842E+02  0.00000000000E+00 0. -1.
         35    2    1    2    0    0  0.00000000000E+00  0.00000000000E+00  0.54323463378E+03  0.60861481746E+03  0.27442326559E+03 0.  0.
         25    1    3    3    0    0 -0.11346503359E+02  0.59647283638E+02  0.33196788542E+03  0.35817484353E+03  0.12000000000E+03 0.  0.
         25    1    3    3    0    0  0.11346503359E+02 -0.59647283638E+02  0.21126674836E+03  0.25043997394E+03  0.12000000000E+03 0.  0.
<mgrwt>
<rscale>  0 0.27442327E+03</rscale>
<asrwt>0</asrwt>
<pdfrwt beam="1">  1        1 0.88603796E-01 0.27442327E+03</pdfrwt>
<pdfrwt beam="2">  1       -1 0.50292453E-02 0.27442327E+03</pdfrwt>
<totfact> 0.64703447E+03</totfact>
</mgrwt>
</event>
<event>
 5    1  0.1162308E+001  0.2729995E+03  0.7818608E-02  0.1099575E+00
         -2   -1    0    0    0  501 -0.00000000000E+00  0.00000000000E+00  0.54170281834E+02  0.54170281834E+02  0.00000000000E+00 0. -1.
          2   -1    0    0  501    0  0.00000000000E+00 -0.00000000000E+00 -0.34395589359E+03  0.34395589359E+03  0.00000000000E+00 0. -1.
         35    2    1    2    0    0  0.00000000000E+00  0.00000000000E+00 -0.28978561176E+03  0.39812617543E+03  0.27299954355E+03 0.  0.
         25    1    3    3    0    0 -0.74356995522E+01  0.61816126644E+02 -0.11738986704E+03  0.17904441914E+03  0.12000000000E+03 0.  0.
         25    1    3    3    0    0  0.74356995522E+01 -0.61816126644E+02 -0.17239574472E+03  0.21908175629E+03  0.12000000000E+03 0.  0.
<mgrwt>
<rscale>  0 0.27299954E+03</rscale>
<asrwt>0</asrwt>
<pdfrwt beam="1">  1        2 0.52916291E-01 0.27299954E+03</pdfrwt>
<pdfrwt beam="2">  1       -2 0.83338896E-02 0.27299954E+03</pdfrwt>
<totfact> 0.82871214E+03</totfact>
</mgrwt>
</event>
<event>
 5    1  0.1162308E+001  0.2793896E+03  0.7818608E-02  0.1096023E+00
          2   -1    0    0  501    0  0.00000000000E+00  0.00000000000E+00  0.47688700442E+03  0.47688700442E+03  0.00000000000E+00 0.  1.
         -2   -1    0    0    0  501 -0.00000000000E+00 -0.00000000000E+00 -0.40920876450E+02  0.40920876450E+02  0.00000000000E+00 0.  1.
         35    2    1    2    0    0  0.00000000000E+00  0.00000000000E+00  0.43596612797E+03  0.51780788087E+03  0.27938957882E+03 0.  0.
         25    1    3    3    0    0  0.11353448767E+01 -0.70262045833E+02  0.19335435629E+03  0.23816790545E+03  0.12000000000E+03 0.  0.
         25    1    3    3    0    0 -0.11353448767E+01  0.70262045833E+02  0.24261177169E+03  0.27963997542E+03  0.12000000000E+03 0.  0.
<mgrwt>
<rscale>  0 0.27938958E+03</rscale>
<asrwt>0</asrwt>
<pdfrwt beam="1">  1        2 0.73367228E-01 0.27938958E+03</pdfrwt>
<pdfrwt beam="2">  1       -2 0.62955198E-02 0.27938958E+03</pdfrwt>
<totfact> 0.89768350E+03</totfact>
</mgrwt>
</event>
<event>
 5    1  0.1162308E+001  0.2699935E+03  0.7818608E-02  0.1101283E+00
          2   -1    0    0  501    0  0.00000000000E+00  0.00000000000E+00  0.26757380604E+03  0.26757380604E+03  0.00000000000E+00 0. -1.
         -2   -1    0    0    0  501 -0.00000000000E+00 -0.00000000000E+00 -0.68108782375E+02  0.68108782375E+02  0.00000000000E+00 0. -1.
         35    2    1    2    0    0  0.00000000000E+00  0.00000000000E+00  0.19946502367E+03  0.33568258842E+03  0.26999352677E+03 0.  0.
         25    1    3    3    0    0  0.51618300961E+02 -0.32281064102E+02  0.86249166863E+02  0.15982939304E+03  0.12000000000E+03 0.  0.
         25    1    3    3    0    0 -0.51618300961E+02  0.32281064102E+02  0.11321585680E+03  0.17585319538E+03  0.12000000000E+03 0.  0.
<mgrwt>
<rscale>  0 0.26999353E+03</rscale>
<asrwt>0</asrwt>
<pdfrwt beam="1">  1        2 0.41165200E-01 0.26999353E+03</pdfrwt>
<pdfrwt beam="2">  1       -2 0.10478274E-01 0.26999353E+03</pdfrwt>
<totfact> 0.75574624E+03</totfact>
</mgrwt>
</event>
<event>
 5    1  0.1162308E+001  0.2753158E+03  0.7818608E-02  0.1098275E+00
         -1   -1    0    0    0  501 -0.00000000000E+00  0.00000000000E+00  0.21749150397E+02  0.21749150397E+02  0.00000000000E+00 0. -1.
          1   -1    0    0  501    0  0.00000000000E+00 -0.00000000000E+00 -0.87128438161E+03  0.87128438161E+03  0.00000000000E+00 0. -1.
         35    2    1    2    0    0  0.00000000000E+00  0.00000000000E+00 -0.84953523121E+03  0.89303353200E+03  0.27531578272E+03 0.  0.
         25    1    3    3    0    0 -0.62743808651E+02  0.20296269178E+02 -0.37878397616E+03  0.40277291947E+03  0.12000000000E+03 0.  0.
         25    1    3    3    0    0  0.62743808651E+02 -0.20296269178E+02 -0.47075125505E+03  0.49026061253E+03  0.12000000000E+03 0.  0.
<mgrwt>
<rscale>  0 0.27531578E+03</rscale>
<asrwt>0</asrwt>
<pdfrwt beam="1">  1        1 0.13404374E+00 0.27531578E+03</pdfrwt>
<pdfrwt beam="2">  1       -1 0.33460234E-02 0.27531578E+03</pdfrwt>
<totfact> 0.64498703E+03</totfact>
</mgrwt>
</event>
<event>
 5    1  0.1162308E+001  0.2777085E+03  0.7818608E-02  0.1096947E+00
          2   -1    0    0  501    0  0.00000000000E+00  0.00000000000E+00  0.14366034175E+04  0.14366034175E+04  0.00000000000E+00 0. -1.
         -2   -1    0    0    0  501 -0.00000000000E+00 -0.00000000000E+00 -0.13420893669E+02  0.13420893669E+02  0.00000000000E+00 0. -1.
         35    2    1    2    0    0  0.00000000000E+00  0.00000000000E+00  0.14231825238E+04  0.14500243112E+04  0.27770849257E+03 0.  0.
         25    1    3    3    0    0  0.56012759326E+02  0.10747099845E+02  0.92223874489E+03  0.93176028673E+03  0.12000000000E+03 0.  0.
         25    1    3    3    0    0 -0.56012759326E+02 -0.10747099845E+02  0.50094377895E+03  0.51826402444E+03  0.12000000000E+03 0.  0.
<mgrwt>
<rscale>  0 0.27770849E+03</rscale>
<asrwt>0</asrwt>
<pdfrwt beam="1">  1        2 0.22101579E+00 0.27770849E+03</pdfrwt>
<pdfrwt beam="2">  1       -2 0.20647540E-02 0.27770849E+03</pdfrwt>
<totfact> 0.10888938E+04</totfact>
</mgrwt>
</event>
<event>
 5    1  0.1162308E+001  0.2757256E+03  0.7818608E-02  0.1098047E+00
         -1   -1    0    0    0  501 -0.00000000000E+00  0.00000000000E+00  0.14291877986E+02  0.14291877986E+02  0.00000000000E+00 0.  1.
          1   -1    0    0  501    0  0.00000000000E+00 -0.00000000000E+00 -0.13298566736E+04  0.13298566736E+04  0.00000000000E+00 0.  1.
         35    2    1    2    0    0  0.00000000000E+00  0.00000000000E+00 -0.13155647956E+04  0.13441485516E+04  0.27572558327E+03 0.  0.
         25    1    3    3    0    0 -0.20746010420E+02 -0.58897148297E+02 -0.52817119923E+03  0.54521930150E+03  0.12000000000E+03 0.  0.
         25    1    3    3    0    0  0.20746010420E+02  0.58897148297E+02 -0.78739359638E+03  0.79892925008E+03  0.12000000000E+03 0.  0.
<mgrwt>
<rscale>  0 0.27572558E+03</rscale>
<asrwt>0</asrwt>
<pdfrwt beam="1">  1        1 0.20459346E+00 0.27572558E+03</pdfrwt>
<pdfrwt beam="2">  1       -1 0.21987492E-02 0.27572558E+03</pdfrwt>
<totfact> 0.55557485E+03</totfact>
</mgrwt>
</event>
<event>
 5    1  0.1162308E+001  0.2743390E+03  0.7818608E-02  0.1098822E+00
          2   -1    0    0  501    0  0.00000000000E+00  0.00000000000E+00  0.14550042810E+04  0.14550042810E+04  0.00000000000E+00 0.  1.
         -2   -1    0    0    0  501 -0.00000000000E+00 -0.00000000000E+00 -0.12931554639E+02  0.12931554639E+02  0.00000000000E+00 0.  1.
         35    2    1    2    0    0  0.00000000000E+00  0.00000000000E+00  0.14420727264E+04  0.14679358357E+04  0.27433896814E+03 0.  0.
         25    1    3    3    0    0 -0.37371840405E+02 -0.46738963401E+02  0.87558887296E+03  0.88579741454E+03  0.12000000000E+03 0.  0.
         25    1    3    3    0    0  0.37371840405E+02  0.46738963401E+02  0.56648385342E+03  0.58213842112E+03  0.12000000000E+03 0.  0.
<mgrwt>
<rscale>  0 0.27433897E+03</rscale>
<asrwt>0</asrwt>
<pdfrwt beam="1">  1        2 0.22384668E+00 0.27433897E+03</pdfrwt>
<pdfrwt beam="2">  1       -2 0.19894711E-02 0.27433897E+03</pdfrwt>
<totfact> 0.11238040E+04</totfact>
</mgrwt>
</event>
<event>
 5    1  0.1162308E+001  0.2733581E+03  0.7818608E-02  0.1099373E+00
         -2   -1    0    0    0  501 -0.00000000000E+00  0.00000000000E+00  0.15853584199E+02  0.15853584199E+02  0.00000000000E+00 0. -1.
          2   -1    0    0  501    0  0.00000000000E+00 -0.00000000000E+00 -0.11783553576E+04  0.11783553576E+04  0.00000000000E+00 0. -1.
         35    2    1    2    0    0  0.00000000000E+00  0.00000000000E+00 -0.11625017734E+04  0.11942089418E+04  0.27335805002E+03 0.  0.
         25    1    3    3    0    0  0.52477367829E+01 -0.20658003815E+02 -0.31099823372E+03  0.33402723428E+03  0.12000000000E+03 0.  0.
         25    1    3    3    0    0 -0.52477367829E+01  0.20658003815E+02 -0.85150353968E+03  0.86018170751E+03  0.12000000000E+03 0.  0.
<mgrwt>
<rscale>  0 0.27335805E+03</rscale>
<asrwt>0</asrwt>
<pdfrwt beam="1">  1        2 0.18128556E+00 0.27335805E+03</pdfrwt>
<pdfrwt beam="2">  1       -2 0.24390114E-02 0.27335805E+03</pdfrwt>
<totfact> 0.11833384E+04</totfact>
</mgrwt>
</event>
<event>
 5    1  0.1162308E+001  0.2755851E+03  0.7818608E-02  0.1098125E+00
         -3   -1    0    0    0  501 -0.00000000000E+00  0.00000000000E+00  0.31875483080E+03  0.31875483080E+03  0.00000000000E+00 0. -1.
          3   -1    0    0  501    0  0.00000000000E+00 -0.00000000000E+00 -0.59565477090E+02  0.59565477090E+02  0.00000000000E+00 0. -1.
         35    2    1    2    0    0  0.00000000000E+00  0.00000000000E+00  0.25918935371E+03  0.37832030789E+03  0.27558507631E+03 0.  0.
         25    1    3    3    0    0 -0.49814590432E+02  0.31870239128E+01  0.19243085475E+03  0.23220957001E+03  0.12000000000E+03 0.  0.
         25    1    3    3    0    0  0.49814590432E+02 -0.31870239128E+01  0.66758498951E+02  0.14611073788E+03  0.12000000000E+03 0.  0.
<mgrwt>
<rscale>  0 0.27558508E+03</rscale>
<asrwt>0</asrwt>
<pdfrwt beam="1">  1        3 0.91639197E-02 0.27558508E+03</pdfrwt>
<pdfrwt beam="2">  1       -3 0.49039204E-01 0.27558508E+03</pdfrwt>
<totfact> 0.90088731E+02</totfact>
</mgrwt>
</event>
<event>
 5    1  0.1162308E+001  0.2719147E+03  0.7818608E-02  0.1100189E+00
         -2   -1    0    0    0  501 -0.00000000000E+00  0.00000000000E+00  0.90399981872E+02  0.90399981872E+02  0.00000000000E+00 0.  1.
          2   -1    0    0  501    0  0.00000000000E+00 -0.00000000000E+00 -0.20447353249E+03  0.20447353249E+03  0.00000000000E+00 0.  1.
         35    2    1    2    0    0  0.00000000000E+00  0.00000000000E+00 -0.11407355062E+03  0.29487351437E+03  0.27191471921E+03 0.  0.
         25    1    3    3    0    0 -0.28405796820E+02 -0.21479337161E+01  0.50028925711E+01  0.12343634735E+03  0.12000000000E+03 0.  0.
         25    1    3    3    0    0  0.28405796820E+02  0.21479337161E+01 -0.11907644319E+03  0.17143716702E+03  0.12000000000E+03 0.  0.
<mgrwt>
<rscale>  0 0.27191472E+03</rscale>
<asrwt>0</asrwt>
<pdfrwt beam="1">  1        2 0.31457466E-01 0.27191472E+03</pdfrwt>
<pdfrwt beam="2">  1       -2 0.13907690E-01 0.27191472E+03</pdfrwt>
<totfact> 0.64038636E+03</totfact>
</mgrwt>
</event>
<event>
 5    1  0.1162308E+001  0.2738598E+03  0.7818608E-02  0.1099091E+00
         -2   -1    0    0    0  501 -0.00000000000E+00  0.00000000000E+00  0.31848149311E+02  0.31848149311E+02  0.00000000000E+00 0.  1.
          2   -1    0    0  501    0  0.00000000000E+00 -0.00000000000E+00 -0.58872473245E+03  0.58872473245E+03  0.00000000000E+00 0.  1.
         35    2    1    2    0    0  0.00000000000E+00  0.00000000000E+00 -0.55687658314E+03  0.62057288176E+03  0.27385976836E+03 0.  0.
         25    1    3    3    0    0 -0.50199230971E+01  0.35461700437E+02 -0.40393310842E+03  0.42290032857E+03  0.12000000000E+03 0.  0.
         25    1    3    3    0    0  0.50199230971E+01 -0.35461700437E+02 -0.15294347472E+03  0.19767255319E+03  0.12000000000E+03 0.  0.
<mgrwt>
<rscale>  0 0.27385977E+03</rscale>
<asrwt>0</asrwt>
<pdfrwt beam="1">  1        2 0.90573029E-01 0.27385977E+03</pdfrwt>
<pdfrwt beam="2">  1       -2 0.48997157E-02 0.27385977E+03</pdfrwt>
<totfact> 0.10366042E+04</totfact>
</mgrwt>
</event>
<event>
 5    1  0.1162308E+001  0.2757683E+03  0.7818608E-02  0.1098023E+00
          1   -1    0    0  501    0  0.00000000000E+00  0.00000000000E+00  0.62725904793E+03  0.62725904793E+03  0.00000000000E+00 0. -1.
         -1   -1    0    0    0  501 -0.00000000000E+00 -0.00000000000E+00 -0.30309714044E+02  0.30309714044E+02  0.00000000000E+00 0. -1.
         35    2    1    2    0    0  0.00000000000E+00  0.00000000000E+00  0.59694933389E+03  0.65756876198E+03  0.27576832577E+03 0.  0.
         25    1    3    3    0    0  0.22549104127E+02 -0.31146874391E+01  0.45104296179E+03  0.46728783074E+03  0.12000000000E+03 0.  0.
         25    1    3    3    0    0 -0.22549104127E+02  0.31146874391E+01  0.14590637210E+03  0.19028093124E+03  0.12000000000E+03 0.  0.
<mgrwt>
<rscale>  0 0.27576833E+03</rscale>
<asrwt>0</asrwt>
<pdfrwt beam="1">  1        1 0.96501382E-01 0.27576833E+03</pdfrwt>
<pdfrwt beam="2">  1       -1 0.46630334E-02 0.27576833E+03</pdfrwt>
<totfact> 0.64356657E+03</totfact>
</mgrwt>
</event>
<event>
 5    1  0.1162308E+001  0.2751041E+03  0.7818608E-02  0.1098393E+00
          2   -1    0    0  501    0  0.00000000000E+00  0.00000000000E+00  0.30203655469E+04  0.30203655469E+04  0.00000000000E+00 0.  1.
         -2   -1    0    0    0  501 -0.00000000000E+00 -0.00000000000E+00 -0.62643322073E+01  0.62643322073E+01  0.00000000000E+00 0.  1.
         35    2    1    2    0    0  0.00000000000E+00  0.00000000000E+00  0.30141012147E+04  0.30266298791E+04  0.27510414881E+03 0.  0.
         25    1    3    3    0    0 -0.14376765459E+02  0.65669342772E+02  0.15201570616E+04  0.15263671400E+04  0.12000000000E+03 0.  0.
         25    1    3    3    0    0  0.14376765459E+02 -0.65669342772E+02  0.14939441530E+04  0.15002627391E+04  0.12000000000E+03 0.  0.
<mgrwt>
<rscale>  0 0.27510415E+03</rscale>
<asrwt>0</asrwt>
<pdfrwt beam="1">  1        2 0.46467046E+00 0.27510415E+03</pdfrwt>
<pdfrwt beam="2">  1       -2 0.96374583E-03 0.27510415E+03</pdfrwt>
<totfact> 0.45585613E+03</totfact>
</mgrwt>
</event>
<event>
 5    1  0.1162308E+001  0.2750148E+03  0.7818608E-02  0.1098443E+00
         -1   -1    0    0    0  501 -0.00000000000E+00  0.00000000000E+00  0.43511272841E+02  0.43511272841E+02  0.00000000000E+00 0.  1.
          1   -1    0    0  501    0  0.00000000000E+00 -0.00000000000E+00 -0.43456063622E+03  0.43456063622E+03  0.00000000000E+00 0.  1.
         35    2    1    2    0    0  0.00000000000E+00  0.00000000000E+00 -0.39104936337E+03  0.47807190906E+03  0.27501480985E+03 0.  0.
         25    1    3    3    0    0 -0.96511645061E+01 -0.58364259427E+02 -0.14031313421E+03  0.19387446296E+03  0.12000000000E+03 0.  0.
         25    1    3    3    0    0  0.96511645061E+01  0.58364259427E+02 -0.25073622916E+03  0.28419744610E+03  0.12000000000E+03 0.  0.
<mgrwt>
<rscale>  0 0.27501481E+03</rscale>
<asrwt>0</asrwt>
<pdfrwt beam="1">  1        1 0.66855484E-01 0.27501481E+03</pdfrwt>
<pdfrwt beam="2">  1       -1 0.66940418E-02 0.27501481E+03</pdfrwt>
<totfact> 0.61187005E+03</totfact>
</mgrwt>
</event>
<event>
 5    1  0.1162308E+001  0.2741169E+03  0.7818608E-02  0.1098946E+00
         -2   -1    0    0    0  501 -0.00000000000E+00  0.00000000000E+00  0.40463329204E+02  0.40463329204E+02  0.00000000000E+00 0.  1.
          2   -1    0    0  501    0  0.00000000000E+00 -0.00000000000E+00 -0.46424801268E+03  0.46424801268E+03  0.00000000000E+00 0.  1.
         35    2    1    2    0    0  0.00000000000E+00  0.00000000000E+00 -0.42378468348E+03  0.50471134189E+03  0.27411691060E+03 0.  0.
         25    1    3    3    0    0  0.15040008300E+02 -0.62980170737E+02 -0.18635854412E+03  0.23091602526E+03  0.12000000000E+03 0.  0.
         25    1    3    3    0    0 -0.15040008300E+02  0.62980170737E+02 -0.23742613936E+03  0.27379531663E+03  0.12000000000E+03 0.  0.
<mgrwt>
<rscale>  0 0.27411691E+03</rscale>
<asrwt>0</asrwt>
<pdfrwt beam="1">  1        2 0.71422769E-01 0.27411691E+03</pdfrwt>
<pdfrwt beam="2">  1       -2 0.62251277E-02 0.27411691E+03</pdfrwt>
<totfact> 0.94026122E+03</totfact>
</mgrwt>
</event>
<event>
 5    1  0.1162308E+001  0.2791741E+03  0.7818608E-02  0.1096141E+00
         -1   -1    0    0    0  501 -0.00000000000E+00  0.00000000000E+00  0.35343281657E+02  0.35343281657E+02  0.00000000000E+00 0. -1.
          1   -1    0    0  501    0  0.00000000000E+00 -0.00000000000E+00 -0.55129397590E+03  0.55129397590E+03  0.00000000000E+00 0. -1.
         35    2    1    2    0    0  0.00000000000E+00  0.00000000000E+00 -0.51595069424E+03  0.58663725756E+03  0.27917405514E+03 0.  0.
         25    1    3    3    0    0 -0.44488754377E+02 -0.19750132168E+02 -0.36747108159E+03  0.38962072942E+03  0.12000000000E+03 0.  0.
         25    1    3    3    0    0  0.44488754377E+02  0.19750132168E+02 -0.14847961265E+03  0.19701652814E+03  0.12000000000E+03 0.  0.
<mgrwt>
<rscale>  0 0.27917406E+03</rscale>
<asrwt>0</asrwt>
<pdfrwt beam="1">  1        1 0.84814452E-01 0.27917406E+03</pdfrwt>
<pdfrwt beam="2">  1       -1 0.54374283E-02 0.27917406E+03</pdfrwt>
<totfact> 0.61124293E+03</totfact>
</mgrwt>
</event>
<event>
 5    1  0.1162308E+001  0.2748386E+03  0.7818608E-02  0.1098542E+00
          2   -1    0    0  501    0  0.00000000000E+00  0.00000000000E+00  0.15790554749E+04  0.15790554749E+04  0.00000000000E+00 0.  1.
         -2   -1    0    0    0  501 -0.00000000000E+00 -0.00000000000E+00 -0.11959086965E+02  0.11959086965E+02  0.00000000000E+00 0.  1.
         35    2    1    2    0    0  0.00000000000E+00  0.00000000000E+00  0.15670963879E+04  0.15910145619E+04  0.27483858352E+03 0.  0.
         25    1    3    3    0    0 -0.11054385241E+02 -0.58341297016E+02  0.60435792409E+03  0.61901082930E+03  0.12000000000E+03 0.  0.
         25    1    3    3    0    0  0.11054385241E+02  0.58341297016E+02  0.96273846384E+03  0.97200373257E+03  0.12000000000E+03 0.  0.
<mgrwt>
<rscale>  0 0.27483858E+03</rscale>
<asrwt>0</asrwt>
<pdfrwt beam="1">  1        2 0.24293145E+00 0.27483858E+03</pdfrwt>
<pdfrwt beam="2">  1       -2 0.18398608E-02 0.27483858E+03</pdfrwt>
<totfact> 0.10822311E+04</totfact>
</mgrwt>
</event>
<event>
 5    1  0.1162308E+001  0.2751017E+03  0.7818608E-02  0.1098395E+00
         -1   -1    0    0    0  501 -0.00000000000E+00  0.00000000000E+00  0.25342699372E+02  0.25342699372E+02  0.00000000000E+00 0. -1.
          1   -1    0    0  501    0  0.00000000000E+00 -0.00000000000E+00 -0.74657567711E+03  0.74657567711E+03  0.00000000000E+00 0. -1.
         35    2    1    2    0    0  0.00000000000E+00  0.00000000000E+00 -0.72123297774E+03  0.77191837649E+03  0.27510174804E+03 0.  0.
         25    1    3    3    0    0 -0.25745169665E+01  0.66935146215E+02 -0.37680872077E+03  0.40108821223E+03  0.12000000000E+03 0.  0.
         25    1    3    3    0    0  0.25745169665E+01 -0.66935146215E+02 -0.34442425697E+03  0.37083016426E+03  0.12000000000E+03 0.  0.
<mgrwt>
<rscale>  0 0.27510175E+03</rscale>
<asrwt>0</asrwt>
<pdfrwt beam="1">  1        1 0.11485777E+00 0.27510175E+03</pdfrwt>
<pdfrwt beam="2">  1       -1 0.38988776E-02 0.27510175E+03</pdfrwt>
<totfact> 0.65285011E+03</totfact>
</mgrwt>
</event>
<event>
 5    1  0.1162308E+001  0.2750154E+03  0.7818608E-02  0.1098443E+00
          2   -1    0    0  501    0  0.00000000000E+00  0.00000000000E+00  0.18017738311E+02  0.18017738311E+02  0.00000000000E+00 0. -1.
         -2   -1    0    0    0  501 -0.00000000000E+00 -0.00000000000E+00 -0.10494303937E+04  0.10494303937E+04  0.00000000000E+00 0. -1.
         35    2    1    2    0    0  0.00000000000E+00  0.00000000000E+00 -0.10314126554E+04  0.10674481320E+04  0.27501536109E+03 0.  0.
         25    1    3    3    0    0 -0.13768485496E+02 -0.65275732026E+02 -0.54523309578E+03  0.56225405389E+03  0.12000000000E+03 0.  0.
         25    1    3    3    0    0  0.13768485496E+02  0.65275732026E+02 -0.48617955960E+03  0.50519407811E+03  0.12000000000E+03 0.  0.
<mgrwt>
<rscale>  0 0.27501536E+03</rscale>
<asrwt>0</asrwt>
<pdfrwt beam="1">  1        2 0.27719596E-02 0.27501536E+03</pdfrwt>
<pdfrwt beam="2">  1       -2 0.16145084E+00 0.27501536E+03</pdfrwt>
<totfact> 0.91286788E+02</totfact>
</mgrwt>
</event>
<event>
 5    1  0.1162308E+001  0.2748414E+03  0.7818608E-02  0.1098540E+00
          2   -1    0    0  501    0  0.00000000000E+00  0.00000000000E+00  0.18297411066E+03  0.18297411066E+03  0.00000000000E+00 0. -1.
         -2   -1    0    0    0  501 -0.00000000000E+00 -0.00000000000E+00 -0.10320831015E+03  0.10320831015E+03  0.00000000000E+00 0. -1.
         35    2    1    2    0    0  0.00000000000E+00  0.00000000000E+00  0.79765800509E+02  0.28618242082E+03  0.27484139982E+03 0.  0.
         25    1    3    3    0    0  0.87092007770E+01 -0.39124728034E+02 -0.15976362335E+02  0.12752191449E+03  0.12000000000E+03 0.  0.
         25    1    3    3    0    0 -0.87092007770E+01  0.39124728034E+02  0.95742162844E+02  0.15866050633E+03  0.12000000000E+03 0.  0.
<mgrwt>
<rscale>  0 0.27484140E+03</rscale>
<asrwt>0</asrwt>
<pdfrwt beam="1">  1        2 0.28149863E-01 0.27484140E+03</pdfrwt>
<pdfrwt beam="2">  1       -2 0.15878202E-01 0.27484140E+03</pdfrwt>
<totfact> 0.58160142E+03</totfact>
</mgrwt>
</event>
<event>
 5    1  0.1162308E+001  0.2737780E+03  0.7818608E-02  0.1099137E+00
         -1   -1    0    0    0  501 -0.00000000000E+00  0.00000000000E+00  0.18708719717E+02  0.18708719717E+02  0.00000000000E+00 0.  1.
          1   -1    0    0  501    0  0.00000000000E+00 -0.00000000000E+00 -0.10015970767E+04  0.10015970767E+04  0.00000000000E+00 0.  1.
         35    2    1    2    0    0  0.00000000000E+00  0.00000000000E+00 -0.98288835701E+03  0.10203057964E+04  0.27377800480E+03 0.  0.
         25    1    3    3    0    0 -0.32404324120E+02  0.35939092255E+02 -0.32490579233E+03  0.34972193592E+03  0.12000000000E+03 0.  0.
         25    1    3    3    0    0  0.32404324120E+02 -0.35939092255E+02 -0.65798256468E+03  0.67058386052E+03  0.12000000000E+03 0.  0.
<mgrwt>
<rscale>  0 0.27377800E+03</rscale>
<asrwt>0</asrwt>
<pdfrwt beam="1">  1        1 0.15409185E+00 0.27377800E+03</pdfrwt>
<pdfrwt beam="2">  1       -1 0.28782648E-02 0.27377800E+03</pdfrwt>
<totfact> 0.63902826E+03</totfact>
</mgrwt>
</event>
<event>
 5    1  0.1162308E+001  0.2718824E+03  0.7818608E-02  0.1100207E+00
         -1   -1    0    0    0  501 -0.00000000000E+00  0.00000000000E+00  0.11199573518E+02  0.11199573518E+02  0.00000000000E+00 0. -1.
          1   -1    0    0  501    0  0.00000000000E+00 -0.00000000000E+00 -0.16500638953E+04  0.16500638953E+04  0.00000000000E+00 0. -1.
         35    2    1    2    0    0  0.00000000000E+00  0.00000000000E+00 -0.16388643218E+04  0.16612634688E+04  0.27188241506E+03 0.  0.
         25    1    3    3    0    0  0.57908387032E+02  0.20251762073E+02 -0.92813528432E+03  0.93786919192E+03  0.12000000000E+03 0.  0.
         25    1    3    3    0    0 -0.57908387032E+02 -0.20251762073E+02 -0.71072903746E+03  0.72339427690E+03  0.12000000000E+03 0.  0.
<mgrwt>
<rscale>  0 0.27188242E+03</rscale>
<asrwt>0</asrwt>
<pdfrwt beam="1">  1        1 0.25385606E+00 0.27188242E+03</pdfrwt>
<pdfrwt beam="2">  1       -1 0.17230108E-02 0.27188242E+03</pdfrwt>
<totfact> 0.48594637E+03</totfact>
</mgrwt>
</event>
<event>
 5    1  0.1162308E+001  0.2754735E+03  0.7818608E-02  0.1098187E+00
          2   -1    0    0  501    0  0.00000000000E+00  0.00000000000E+00  0.10820893387E+04  0.10820893387E+04  0.00000000000E+00 0. -1.
         -2   -1    0    0    0  501 -0.00000000000E+00 -0.00000000000E+00 -0.17532208513E+02  0.17532208513E+02  0.00000000000E+00 0. -1.
         35    2    1    2    0    0  0.00000000000E+00  0.00000000000E+00  0.10645571302E+04  0.10996215472E+04  0.27547352624E+03 0.  0.
         25    1    3    3    0    0 -0.88840316692E+01 -0.14976521543E+02  0.79306526171E+03  0.80228157871E+03  0.12000000000E+03 0.  0.
         25    1    3    3    0    0  0.88840316692E+01  0.14976521543E+02  0.27149186848E+03  0.29733996850E+03  0.12000000000E+03 0.  0.
<mgrwt>
<rscale>  0 0.27547353E+03</rscale>
<asrwt>0</asrwt>
<pdfrwt beam="1">  1        2 0.16647523E+00 0.27547353E+03</pdfrwt>
<pdfrwt beam="2">  1       -2 0.26972637E-02 0.27547353E+03</pdfrwt>
<totfact> 0.11599170E+04</totfact>
</mgrwt>
</event>
<event>
 5    1  0.1162308E+001  0.2846347E+03  0.7818608E-02  0.1093184E+00
         -1   -1    0    0    0  501 -0.00000000000E+00  0.00000000000E+00  0.27460899350E+02  0.27460899350E+02  0.00000000000E+00 0. -1.
          1   -1    0    0  501    0  0.00000000000E+00 -0.00000000000E+00 -0.73756606103E+03  0.73756606103E+03  0.00000000000E+00 0. -1.
         35    2    1    2    0    0  0.00000000000E+00  0.00000000000E+00 -0.71010516168E+03  0.76502696038E+03  0.28463469476E+03 0.  0.
         25    1    3    3    0    0  0.17904963210E+02 -0.18462201717E+02 -0.16137063083E+03  0.20273608730E+03  0.12000000000E+03 0.  0.
         25    1    3    3    0    0 -0.17904963210E+02  0.18462201717E+02 -0.54873453085E+03  0.56229087308E+03  0.12000000000E+03 0.  0.
<mgrwt>
<rscale>  0 0.28463469E+03</rscale>
<asrwt>0</asrwt>
<pdfrwt beam="1">  1        1 0.11347171E+00 0.28463469E+03</pdfrwt>
<pdfrwt beam="2">  1       -1 0.42247534E-02 0.28463469E+03</pdfrwt>
<totfact> 0.59041363E+03</totfact>
</mgrwt>
</event>
<event>
 5    1  0.1162308E+001  0.2752098E+03  0.7818608E-02  0.1098334E+00
         -2   -1    0    0    0  501 -0.00000000000E+00  0.00000000000E+00  0.38132889225E+02  0.38132889225E+02  0.00000000000E+00 0.  1.
          2   -1    0    0  501    0  0.00000000000E+00 -0.00000000000E+00 -0.49655584615E+03  0.49655584615E+03  0.00000000000E+00 0.  1.
         35    2    1    2    0    0  0.00000000000E+00  0.00000000000E+00 -0.45842295693E+03  0.53468873538E+03  0.27520980415E+03 0.  0.
         25    1    3    3    0    0  0.10417697218E+02 -0.57772098669E+02 -0.29332419060E+03  0.32231230909E+03  0.12000000000E+03 0.  0.
         25    1    3    3    0    0 -0.10417697218E+02  0.57772098669E+02 -0.16509876633E+03  0.21237642629E+03  0.12000000000E+03 0.  0.
<mgrwt>
<rscale>  0 0.27520980E+03</rscale>
<asrwt>0</asrwt>
<pdfrwt beam="1">  1        2 0.76393205E-01 0.27520980E+03</pdfrwt>
<pdfrwt beam="2">  1       -2 0.58665985E-02 0.27520980E+03</pdfrwt>
<totfact> 0.95582777E+03</totfact>
</mgrwt>
</event>
<event>
 5    1  0.1162308E+001  0.2762572E+03  0.7818608E-02  0.1097751E+00
         -1   -1    0    0    0  501 -0.00000000000E+00  0.00000000000E+00  0.16842141334E+04  0.16842141334E+04  0.00000000000E+00 0.  1.
          1   -1    0    0  501    0  0.00000000000E+00 -0.00000000000E+00 -0.11328433978E+02  0.11328433978E+02  0.00000000000E+00 0.  1.
         35    2    1    2    0    0  0.00000000000E+00  0.00000000000E+00  0.16728856994E+04  0.16955425673E+04  0.27625718897E+03 0.  0.
         25    1    3    3    0    0 -0.35560181416E+01 -0.68167265387E+02  0.86395063791E+03  0.87491149614E+03  0.12000000000E+03 0.  0.
         25    1    3    3    0    0  0.35560181416E+01  0.68167265387E+02  0.80893506149E+03  0.82063107121E+03  0.12000000000E+03 0.  0.
<mgrwt>
<rscale>  0 0.27625719E+03</rscale>
<asrwt>0</asrwt>
<pdfrwt beam="1">  1        1 0.17428373E-02 0.27625719E+03</pdfrwt>
<pdfrwt beam="2">  1       -1 0.25910967E+00 0.27625719E+03</pdfrwt>
<totfact> 0.51136369E+02</totfact>
</mgrwt>
</event>
<event>
 5    1  0.1162308E+001  0.2742604E+03  0.7818608E-02  0.1098866E+00
         -2   -1    0    0    0  501 -0.00000000000E+00  0.00000000000E+00  0.36417654901E+02  0.36417654901E+02  0.00000000000E+00 0.  1.
          2   -1    0    0  501    0  0.00000000000E+00 -0.00000000000E+00 -0.51636189971E+03  0.51636189971E+03  0.00000000000E+00 0.  1.
         35    2    1    2    0    0  0.00000000000E+00  0.00000000000E+00 -0.47994424481E+03  0.55277955461E+03  0.27426038334E+03 0.  0.
         25    1    3    3    0    0  0.26851337599E+02  0.59806583900E+02 -0.26080801169E+03  0.29448028927E+03  0.12000000000E+03 0.  0.
         25    1    3    3    0    0 -0.26851337599E+02 -0.59806583900E+02 -0.21913623312E+03  0.25829926534E+03  0.12000000000E+03 0.  0.
<mgrwt>
<rscale>  0 0.27426038E+03</rscale>
<asrwt>0</asrwt>
<pdfrwt beam="1">  1        2 0.79440290E-01 0.27426038E+03</pdfrwt>
<pdfrwt beam="2">  1       -2 0.56027163E-02 0.27426038E+03</pdfrwt>
<totfact> 0.98143741E+03</totfact>
</mgrwt>
</event>
<event>
 5    1  0.1162308E+001  0.2751462E+03  0.7818608E-02  0.1098370E+00
         -1   -1    0    0    0  501 -0.00000000000E+00  0.00000000000E+00  0.42446220952E+01  0.42446220952E+01  0.00000000000E+00 0.  1.
          1   -1    0    0  501    0  0.00000000000E+00 -0.00000000000E+00 -0.44589041584E+04  0.44589041584E+04  0.00000000000E+00 0.  1.
         35    2    1    2    0    0  0.00000000000E+00  0.00000000000E+00 -0.44546595363E+04  0.44631487805E+04  0.27514623829E+03 0.  0.
         25    1    3    3    0    0 -0.24605380527E+02  0.39388347216E+02 -0.30169273638E+04  0.30196701119E+04  0.12000000000E+03 0.  0.
         25    1    3    3    0    0  0.24605380527E+02 -0.39388347216E+02 -0.14377321725E+04  0.14434786685E+04  0.12000000000E+03 0.  0.
<mgrwt>
<rscale>  0 0.27514624E+03</rscale>
<asrwt>0</asrwt>
<pdfrwt beam="1">  1        1 0.68598549E+00 0.27514624E+03</pdfrwt>
<pdfrwt beam="2">  1       -1 0.65301856E-03 0.27514624E+03</pdfrwt>
<totfact> 0.16855450E+02</totfact>
</mgrwt>
</event>
<event>
 5    1  0.1162308E+001  0.2750123E+03  0.7818608E-02  0.1098445E+00
          2   -1    0    0  501    0  0.00000000000E+00  0.00000000000E+00  0.68354779520E+03  0.68354779520E+03  0.00000000000E+00 0.  1.
         -2   -1    0    0    0  501 -0.00000000000E+00 -0.00000000000E+00 -0.27661481884E+02  0.27661481884E+02  0.00000000000E+00 0.  1.
         35    2    1    2    0    0  0.00000000000E+00  0.00000000000E+00  0.65588631331E+03  0.71120927708E+03  0.27501232666E+03 0.  0.
         25    1    3    3    0    0  0.30504174067E+02  0.58134238592E+02  0.36431907462E+03  0.38915097644E+03  0.12000000000E+03 0.  0.
         25    1    3    3    0    0 -0.30504174067E+02 -0.58134238592E+02  0.29156723869E+03  0.32205830064E+03  0.12000000000E+03 0.  0.
<mgrwt>
<rscale>  0 0.27501233E+03</rscale>
<asrwt>0</asrwt>
<pdfrwt beam="1">  1        2 0.10516119E+00 0.27501233E+03</pdfrwt>
<pdfrwt beam="2">  1       -2 0.42556131E-02 0.27501233E+03</pdfrwt>
<totfact> 0.10760372E+04</totfact>
</mgrwt>
</event>
<event>
 5    1  0.1162308E+001  0.2751970E+03  0.7818608E-02  0.1098342E+00
         -2   -1    0    0    0  501 -0.00000000000E+00  0.00000000000E+00  0.32241097787E+02  0.32241097787E+02  0.00000000000E+00 0. -1.
          2   -1    0    0  501    0  0.00000000000E+00 -0.00000000000E+00 -0.58724253013E+03  0.58724253013E+03  0.00000000000E+00 0. -1.
         35    2    1    2    0    0  0.00000000000E+00  0.00000000000E+00 -0.55500143235E+03  0.61948362792E+03  0.27519697556E+03 0.  0.
         25    1    3    3    0    0  0.23827054946E+02 -0.37082649893E+02 -0.16292902201E+03  0.20709591421E+03  0.12000000000E+03 0.  0.
         25    1    3    3    0    0 -0.23827054946E+02  0.37082649893E+02 -0.39207241034E+03  0.41238771371E+03  0.12000000000E+03 0.  0.
<mgrwt>
<rscale>  0 0.27519698E+03</rscale>
<asrwt>0</asrwt>
<pdfrwt beam="1">  1        2 0.90345007E-01 0.27519698E+03</pdfrwt>
<pdfrwt beam="2">  1       -2 0.49601688E-02 0.27519698E+03</pdfrwt>
<totfact> 0.10206375E+04</totfact>
</mgrwt>
</event>
<event>
 5    1  0.1162308E+001  0.2752142E+03  0.7818608E-02  0.1098332E+00
          1   -1    0    0  501    0  0.00000000000E+00  0.00000000000E+00  0.20164176793E+02  0.20164176793E+02  0.00000000000E+00 0.  1.
         -1   -1    0    0    0  501 -0.00000000000E+00 -0.00000000000E+00 -0.93907709610E+03  0.93907709610E+03  0.00000000000E+00 0.  1.
         35    2    1    2    0    0  0.00000000000E+00  0.00000000000E+00 -0.91891291931E+03  0.95924127290E+03  0.27521421902E+03 0.  0.
         25    1    3    3    0    0 -0.19862764549E+00  0.66295497719E+02 -0.41813029351E+03  0.44003190205E+03  0.12000000000E+03 0.  0.
         25    1    3    3    0    0  0.19862764549E+00 -0.66295497719E+02 -0.50078262580E+03  0.51920937085E+03  0.12000000000E+03 0.  0.
<mgrwt>
<rscale>  0 0.27521422E+03</rscale>
<asrwt>0</asrwt>
<pdfrwt beam="1">  1        1 0.31021814E-02 0.27521422E+03</pdfrwt>
<pdfrwt beam="2">  1       -1 0.14447338E+00 0.27521422E+03</pdfrwt>
<totfact> 0.13551661E+03</totfact>
</mgrwt>
</event>
<event>
 5    1  0.1162308E+001  0.2680568E+03  0.7818608E-02  0.1102397E+00
         -2   -1    0    0    0  501 -0.00000000000E+00  0.00000000000E+00  0.54789326523E+02  0.54789326523E+02  0.00000000000E+00 0. -1.
          2   -1    0    0  501    0  0.00000000000E+00 -0.00000000000E+00 -0.32786705041E+03  0.32786705041E+03  0.00000000000E+00 0. -1.
         35    2    1    2    0    0  0.00000000000E+00  0.00000000000E+00 -0.27307772389E+03  0.38265637694E+03  0.26805682145E+03 0.  0.
         25    1    3    3    0    0 -0.37538216141E+02 -0.41836266757E+02 -0.10783811919E+03  0.17084627839E+03  0.12000000000E+03 0.  0.
         25    1    3    3    0    0  0.37538216141E+02  0.41836266757E+02 -0.16523960470E+03  0.21181009855E+03  0.12000000000E+03 0.  0.
<mgrwt>
<rscale>  0 0.26805682E+03</rscale>
<asrwt>0</asrwt>
<pdfrwt beam="1">  1        2 0.50441084E-01 0.26805682E+03</pdfrwt>
<pdfrwt beam="2">  1       -2 0.84291273E-02 0.26805682E+03</pdfrwt>
<totfact> 0.85657634E+03</totfact>
</mgrwt>
</event>
<event>
 5    1  0.1162308E+001  0.2749923E+03  0.7818608E-02  0.1098456E+00
         -2   -1    0    0    0  501 -0.00000000000E+00  0.00000000000E+00  0.56477636313E+02  0.56477636313E+02  0.00000000000E+00 0. -1.
          2   -1    0    0  501    0  0.00000000000E+00 -0.00000000000E+00 -0.33473763136E+03  0.33473763136E+03  0.00000000000E+00 0. -1.
         35    2    1    2    0    0  0.00000000000E+00  0.00000000000E+00 -0.27825999505E+03  0.39121526768E+03  0.27499229229E+03 0.  0.
         25    1    3    3    0    0 -0.33771109728E+01  0.28101223169E+02 -0.22571387112E+03  0.25719221458E+03  0.12000000000E+03 0.  0.
         25    1    3    3    0    0  0.33771109728E+01 -0.28101223169E+02 -0.52546123928E+02  0.13402305310E+03  0.12000000000E+03 0.  0.
<mgrwt>
<rscale>  0 0.27499229E+03</rscale>
<asrwt>0</asrwt>
<pdfrwt beam="1">  1        2 0.51498097E-01 0.27499229E+03</pdfrwt>
<pdfrwt beam="2">  1       -2 0.86888671E-02 0.27499229E+03</pdfrwt>
<totfact> 0.79950348E+03</totfact>
</mgrwt>
</event>
<event>
 5    1  0.1162308E+001  0.2749566E+03  0.7818608E-02  0.1098476E+00
         -1   -1    0    0    0  501 -0.00000000000E+00  0.00000000000E+00  0.26281894327E+02  0.26281894327E+02  0.00000000000E+00 0.  1.
          1   -1    0    0  501    0  0.00000000000E+00 -0.00000000000E+00 -0.71913679535E+03  0.71913679535E+03  0.00000000000E+00 0.  1.
         35    2    1    2    0    0  0.00000000000E+00  0.00000000000E+00 -0.69285490102E+03  0.74541868967E+03  0.27495655847E+03 0.  0.
         25    1    3    3    0    0  0.22214175918E+02  0.63106878585E+02 -0.33305524595E+03  0.36028009186E+03  0.12000000000E+03 0.  0.
         25    1    3    3    0    0 -0.22214175918E+02 -0.63106878585E+02 -0.35979965507E+03  0.38513859781E+03  0.12000000000E+03 0.  0.
<mgrwt>
<rscale>  0 0.27495656E+03</rscale>
<asrwt>0</asrwt>
<pdfrwt beam="1">  1        1 0.11063643E+00 0.27495656E+03</pdfrwt>
<pdfrwt beam="2">  1       -1 0.40433683E-02 0.27495656E+03</pdfrwt>
<totfact> 0.65380656E+03</totfact>
</mgrwt>
</event>
<event>
 5    1  0.1162308E+001  0.2800531E+03  0.7818608E-02  0.1095660E+00
          2   -1    0    0  501    0  0.00000000000E+00  0.00000000000E+00  0.22059135449E+03  0.22059135449E+03  0.00000000000E+00 0.  1.
         -2   -1    0    0    0  501 -0.00000000000E+00 -0.00000000000E+00 -0.88885772423E+02  0.88885772423E+02  0.00000000000E+00 0.  1.
         35    2    1    2    0    0  0.00000000000E+00  0.00000000000E+00  0.13170558206E+03  0.30947712691E+03  0.28005308735E+03 0.  0.
         25    1    3    3    0    0  0.18273088722E+02 -0.11853259457E+02  0.14187801374E+03  0.18709296169E+03  0.12000000000E+03 0.  0.
         25    1    3    3    0    0 -0.18273088722E+02  0.11853259457E+02 -0.10172431672E+02  0.12238416522E+03  0.12000000000E+03 0.  0.
<mgrwt>
<rscale>  0 0.28005309E+03</rscale>
<asrwt>0</asrwt>
<pdfrwt beam="1">  1        2 0.33937131E-01 0.28005309E+03</pdfrwt>
<pdfrwt beam="2">  1       -2 0.13674734E-01 0.28005309E+03</pdfrwt>
<totfact> 0.60671512E+03</totfact>
</mgrwt>
</event>
<event>
 5    1  0.1162308E+001  0.2753398E+03  0.7818608E-02  0.1098262E+00
          1   -1    0    0  501    0  0.00000000000E+00  0.00000000000E+00  0.89524940275E+02  0.89524940275E+02  0.00000000000E+00 0. -1.
         -1   -1    0    0    0  501 -0.00000000000E+00 -0.00000000000E+00 -0.21170636596E+03  0.21170636596E+03  0.00000000000E+00 0. -1.
         35    2    1    2    0    0  0.00000000000E+00  0.00000000000E+00 -0.12218142568E+03  0.30123130623E+03  0.27533978839E+03 0.  0.
         25    1    3    3    0    0  0.53487412375E+02  0.20146413626E+02 -0.21854371211E+02  0.13470113142E+03  0.12000000000E+03 0.  0.
         25    1    3    3    0    0 -0.53487412375E+02 -0.20146413626E+02 -0.10032705447E+03  0.16653017481E+03  0.12000000000E+03 0.  0.
<mgrwt>
<rscale>  0 0.27533979E+03</rscale>
<asrwt>0</asrwt>
<pdfrwt beam="1">  1        1 0.13773068E-01 0.27533979E+03</pdfrwt>
<pdfrwt beam="2">  1       -1 0.32570210E-01 0.27533979E+03</pdfrwt>
<totfact> 0.36813143E+03</totfact>
</mgrwt>
</event>
<event>
 5    1  0.1162308E+001  0.2738781E+03  0.7818608E-02  0.1099080E+00
          1   -1    0    0  501    0  0.00000000000E+00  0.00000000000E+00  0.27281252634E+04  0.27281252634E+04  0.00000000000E+00 0.  1.
         -1   -1    0    0    0  501 -0.00000000000E+00 -0.00000000000E+00 -0.68736933875E+01  0.68736933875E+01  0.00000000000E+00 0.  1.
         35    2    1    2    0    0  0.00000000000E+00  0.00000000000E+00  0.27212515700E+04  0.27349989568E+04  0.27387805011E+03 0.  0.
         25    1    3    3    0    0  0.35858788319E+02  0.53103063969E+02  0.15174148862E+04  0.15235004840E+04  0.12000000000E+03 0.  0.
         25    1    3    3    0    0 -0.35858788319E+02 -0.53103063969E+02  0.12038366839E+04  0.12114984728E+04  0.12000000000E+03 0.  0.
<mgrwt>
<rscale>  0 0.27387805E+03</rscale>
<asrwt>0</asrwt>
<pdfrwt beam="1">  1        1 0.41971072E+00 0.27387805E+03</pdfrwt>
<pdfrwt beam="2">  1       -1 0.10574935E-02 0.27387805E+03</pdfrwt>
<totfact> 0.19329463E+03</totfact>
</mgrwt>
</event>
<event>
 5    1  0.1162308E+001  0.2747725E+03  0.7818608E-02  0.1098579E+00
          2   -1    0    0  501    0  0.00000000000E+00  0.00000000000E+00  0.46392105434E+03  0.46392105434E+03  0.00000000000E+00 0. -1.
         -2   -1    0    0    0  501 -0.00000000000E+00 -0.00000000000E+00 -0.40685747450E+02  0.40685747450E+02  0.00000000000E+00 0. -1.
         35    2    1    2    0    0  0.00000000000E+00  0.00000000000E+00  0.42323530689E+03  0.50460680179E+03  0.27477245025E+03 0.  0.
         25    1    3    3    0    0 -0.19495242882E+02 -0.45737981834E+02  0.12942846667E+03  0.18336781468E+03  0.12000000000E+03 0.  0.
         25    1    3    3    0    0  0.19495242882E+02  0.45737981834E+02  0.29380684022E+03  0.32123898711E+03  0.12000000000E+03 0.  0.
<mgrwt>
<rscale>  0 0.27477245E+03</rscale>
<asrwt>0</asrwt>
<pdfrwt beam="1">  1        2 0.71372466E-01 0.27477245E+03</pdfrwt>
<pdfrwt beam="2">  1       -2 0.62593461E-02 0.27477245E+03</pdfrwt>
<totfact> 0.93318093E+03</totfact>
</mgrwt>
</event>
<event>
 5    1  0.1162308E+001  0.2752923E+03  0.7818608E-02  0.1098288E+00
         -1   -1    0    0    0  501 -0.00000000000E+00  0.00000000000E+00  0.27148874764E+02  0.27148874764E+02  0.00000000000E+00 0. -1.
          1   -1    0    0  501    0  0.00000000000E+00 -0.00000000000E+00 -0.69787310009E+03  0.69787310009E+03  0.00000000000E+00 0. -1.
         35    2    1    2    0    0  0.00000000000E+00  0.00000000000E+00 -0.67072422533E+03  0.72502197486E+03  0.27529234930E+03 0.  0.
         25    1    3    3    0    0  0.47819096965E+02 -0.83558351015E+01 -0.45860941935E+03  0.47652815817E+03  0.12000000000E+03 0.  0.
         25    1    3    3    0    0 -0.47819096965E+02  0.83558351015E+01 -0.21211480598E+03  0.24849381669E+03  0.12000000000E+03 0.  0.
<mgrwt>
<rscale>  0 0.27529235E+03</rscale>
<asrwt>0</asrwt>
<pdfrwt beam="1">  1        1 0.10736510E+00 0.27529235E+03</pdfrwt>
<pdfrwt beam="2">  1       -1 0.41767497E-02 0.27529235E+03</pdfrwt>
<totfact> 0.65101798E+03</totfact>
</mgrwt>
</event>
<event>
 5    1  0.1162308E+001  0.2737528E+03  0.7818608E-02  0.1099151E+00
          1   -1    0    0  501    0  0.00000000000E+00  0.00000000000E+00  0.25636092292E+02  0.25636092292E+02  0.00000000000E+00 0. -1.
         -1   -1    0    0    0  501 -0.00000000000E+00 -0.00000000000E+00 -0.73081125246E+03  0.73081125246E+03  0.00000000000E+00 0. -1.
         35    2    1    2    0    0  0.00000000000E+00  0.00000000000E+00 -0.70517516017E+03  0.75644734475E+03  0.27375276960E+03 0.  0.
         25    1    3    3    0    0  0.44108988600E+01 -0.36456847317E+02 -0.50359829520E+03  0.51899884457E+03  0.12000000000E+03 0.  0.
         25    1    3    3    0    0 -0.44108988600E+01  0.36456847317E+02 -0.20157686498E+03  0.23744850018E+03  0.12000000000E+03 0.  0.
<mgrwt>
<rscale>  0 0.27375277E+03</rscale>
<asrwt>0</asrwt>
<pdfrwt beam="1">  1        1 0.39440142E-02 0.27375277E+03</pdfrwt>
<pdfrwt beam="2">  1       -1 0.11243250E+00 0.27375277E+03</pdfrwt>
<totfact> 0.17868708E+03</totfact>
</mgrwt>
</event>
<event>
 5    1  0.1162308E+001  0.2750828E+03  0.7818608E-02  0.1098405E+00
         -1   -1    0    0    0  501 -0.00000000000E+00  0.00000000000E+00  0.34645942150E+02  0.34645942150E+02  0.00000000000E+00 0. -1.
          1   -1    0    0  501    0  0.00000000000E+00 -0.00000000000E+00 -0.54602729035E+03  0.54602729035E+03  0.00000000000E+00 0. -1.
         35    2    1    2    0    0  0.00000000000E+00  0.00000000000E+00 -0.51138134820E+03  0.58067323250E+03  0.27508275056E+03 0.  0.
         25    1    3    3    0    0 -0.52702738924E+02  0.30318903587E+02 -0.19521354421E+03  0.23707623763E+03  0.12000000000E+03 0.  0.
         25    1    3    3    0    0  0.52702738924E+02 -0.30318903587E+02 -0.31616780399E+03  0.34359699487E+03  0.12000000000E+03 0.  0.
<mgrwt>
<rscale>  0 0.27508275E+03</rscale>
<asrwt>0</asrwt>
<pdfrwt beam="1">  1        1 0.84004190E-01 0.27508275E+03</pdfrwt>
<pdfrwt beam="2">  1       -1 0.53301455E-02 0.27508275E+03</pdfrwt>
<totfact> 0.63780143E+03</totfact>
</mgrwt>
</event>
<event>
 5    1  0.1162308E+001  0.2753965E+03  0.7818608E-02  0.1098230E+00
         -2   -1    0    0    0  501 -0.00000000000E+00  0.00000000000E+00  0.18511818440E+02  0.18511818440E+02  0.00000000000E+00 0.  1.
          2   -1    0    0  501    0  0.00000000000E+00 -0.00000000000E+00 -0.10242543085E+04  0.10242543085E+04  0.00000000000E+00 0.  1.
         35    2    1    2    0    0  0.00000000000E+00  0.00000000000E+00 -0.10057424901E+04  0.10427661270E+04  0.27539651265E+03 0.  0.
         25    1    3    3    0    0  0.48705136384E+02 -0.43778647349E+02 -0.44041836629E+03  0.46114758770E+03  0.12000000000E+03 0.  0.
         25    1    3    3    0    0 -0.48705136384E+02  0.43778647349E+02 -0.56532412378E+03  0.58161853926E+03  0.12000000000E+03 0.  0.
<mgrwt>
<rscale>  0 0.27539651E+03</rscale>
<asrwt>0</asrwt>
<pdfrwt beam="1">  1        2 0.15757761E+00 0.27539651E+03</pdfrwt>
<pdfrwt beam="2">  1       -2 0.28479716E-02 0.27539651E+03</pdfrwt>
<totfact> 0.11587313E+04</totfact>
</mgrwt>
</event>
<event>
 5    1  0.1162308E+001  0.2756615E+03  0.7818608E-02  0.1098082E+00
         -2   -1    0    0    0  501 -0.00000000000E+00  0.00000000000E+00  0.15723734937E+02  0.15723734937E+02  0.00000000000E+00 0.  1.
          2   -1    0    0  501    0  0.00000000000E+00 -0.00000000000E+00 -0.12081938807E+04  0.12081938807E+04  0.00000000000E+00 0.  1.
         35    2    1    2    0    0  0.00000000000E+00  0.00000000000E+00 -0.11924701458E+04  0.12239176156E+04  0.27566153401E+03 0.  0.
         25    1    3    3    0    0 -0.58723519328E+02 -0.32984661738E+02 -0.63087810040E+03  0.64571171369E+03  0.12000000000E+03 0.  0.
         25    1    3    3    0    0  0.58723519328E+02  0.32984661738E+02 -0.56159204536E+03  0.57820590194E+03  0.12000000000E+03 0.  0.
<mgrwt>
<rscale>  0 0.27566153E+03</rscale>
<asrwt>0</asrwt>
<pdfrwt beam="1">  1        2 0.18587598E+00 0.27566153E+03</pdfrwt>
<pdfrwt beam="2">  1       -2 0.24190361E-02 0.27566153E+03</pdfrwt>
<totfact> 0.11521335E+04</totfact>
</mgrwt>
</event>
<event>
 5    1  0.1162308E+001  0.2744144E+03  0.7818608E-02  0.1098779E+00
          1   -1    0    0  501    0  0.00000000000E+00  0.00000000000E+00  0.23430101437E+03  0.23430101437E+03  0.00000000000E+00 0.  1.
         -1   -1    0    0    0  501 -0.00000000000E+00 -0.00000000000E+00 -0.80348818727E+02  0.80348818727E+02  0.00000000000E+00 0.  1.
         35    2    1    2    0    0  0.00000000000E+00  0.00000000000E+00  0.15395219564E+03  0.31464983310E+03  0.27441435627E+03 0.  0.
         25    1    3    3    0    0  0.49941043326E+02  0.20173369559E+02  0.32202895356E+02  0.13541823776E+03  0.12000000000E+03 0.  0.
         25    1    3    3    0    0 -0.49941043326E+02 -0.20173369559E+02  0.12174930028E+03  0.17923159534E+03  0.12000000000E+03 0.  0.
<mgrwt>
<rscale>  0 0.27441436E+03</rscale>
<asrwt>0</asrwt>
<pdfrwt beam="1">  1        1 0.36046310E-01 0.27441436E+03</pdfrwt>
<pdfrwt beam="2">  1       -1 0.12361357E-01 0.27441436E+03</pdfrwt>
<totfact> 0.52055760E+03</totfact>
</mgrwt>
</event>
<event>
 5    1  0.1162308E+001  0.2753486E+03  0.7818608E-02  0.1098257E+00
          2   -1    0    0  501    0  0.00000000000E+00  0.00000000000E+00  0.43047791957E+03  0.43047791957E+03  0.00000000000E+00 0.  1.
         -2   -1    0    0    0  501 -0.00000000000E+00 -0.00000000000E+00 -0.44030638127E+02  0.44030638127E+02  0.00000000000E+00 0.  1.
         35    2    1    2    0    0  0.00000000000E+00  0.00000000000E+00  0.38644728144E+03  0.47450855770E+03  0.27534863354E+03 0.  0.
         25    1    3    3    0    0 -0.64275018905E+02 -0.16940859043E+02  0.21331667473E+03  0.25361836384E+03  0.12000000000E+03 0.  0.
         25    1    3    3    0    0  0.64275018905E+02  0.16940859043E+02  0.17313060672E+03  0.22089019386E+03  0.12000000000E+03 0.  0.
<mgrwt>
<rscale>  0 0.27534863E+03</rscale>
<asrwt>0</asrwt>
<pdfrwt beam="1">  1        2 0.66227369E-01 0.27534863E+03</pdfrwt>
<pdfrwt beam="2">  1       -2 0.67739446E-02 0.27534863E+03</pdfrwt>
<totfact> 0.89711546E+03</totfact>
</mgrwt>
</event>
<event>
 5    1  0.1162308E+001  0.2748084E+03  0.7818608E-02  0.1098559E+00
         -2   -1    0    0    0  501 -0.00000000000E+00  0.00000000000E+00  0.10464392456E+04  0.10464392456E+04  0.00000000000E+00 0.  1.
          2   -1    0    0  501    0  0.00000000000E+00 -0.00000000000E+00 -0.18042054576E+02  0.18042054576E+02  0.00000000000E+00 0.  1.
         35    2    1    2    0    0  0.00000000000E+00  0.00000000000E+00  0.10283971910E+04  0.10644813001E+04  0.27480839856E+03 0.  0.
         25    1    3    3    0    0 -0.11103248867E+02 -0.65836880010E+02  0.53242362116E+03  0.54984787831E+03  0.12000000000E+03 0.  0.
         25    1    3    3    0    0  0.11103248867E+02  0.65836880010E+02  0.49597356983E+03  0.51463342184E+03  0.12000000000E+03 0.  0.
<mgrwt>
<rscale>  0 0.27480840E+03</rscale>
<asrwt>0</asrwt>
<pdfrwt beam="1">  1        2 0.27757015E-02 0.27480840E+03</pdfrwt>
<pdfrwt beam="2">  1       -2 0.16099061E+00 0.27480840E+03</pdfrwt>
<totfact> 0.91810333E+02</totfact>
</mgrwt>
</event>
<event>
 5    1  0.1162308E+001  0.2748261E+03  0.7818608E-02  0.1098549E+00
         -1   -1    0    0    0  501 -0.00000000000E+00  0.00000000000E+00  0.12265404827E+03  0.12265404827E+03  0.00000000000E+00 0. -1.
          1   -1    0    0  501    0  0.00000000000E+00 -0.00000000000E+00 -0.15394803653E+03  0.15394803653E+03  0.00000000000E+00 0. -1.
         35    2    1    2    0    0  0.00000000000E+00  0.00000000000E+00 -0.31293988260E+02  0.27660208479E+03  0.27482612614E+03 0.  0.
         25    1    3    3    0    0 -0.28365844018E+02  0.44798583639E+00 -0.76681500023E+02  0.14520631613E+03  0.12000000000E+03 0.  0.
         25    1    3    3    0    0  0.28365844018E+02 -0.44798583639E+00  0.45387511763E+02  0.13139576866E+03  0.12000000000E+03 0.  0.
<mgrwt>
<rscale>  0 0.27482613E+03</rscale>
<asrwt>0</asrwt>
<pdfrwt beam="1">  1        1 0.23684313E-01 0.27482613E+03</pdfrwt>
<pdfrwt beam="2">  1       -1 0.18869854E-01 0.27482613E+03</pdfrwt>
<totfact> 0.45194769E+03</totfact>
</mgrwt>
</event>
<event>
 5    1  0.1162308E+001  0.2798963E+03  0.7818608E-02  0.1095746E+00
         -2   -1    0    0    0  501 -0.00000000000E+00  0.00000000000E+00  0.13683426148E+02  0.13683426148E+02  0.00000000000E+00 0. -1.
          2   -1    0    0  501    0  0.00000000000E+00 -0.00000000000E+00 -0.14313287160E+04  0.14313287160E+04  0.00000000000E+00 0. -1.
         35    2    1    2    0    0  0.00000000000E+00  0.00000000000E+00 -0.14176452898E+04  0.14450121421E+04  0.27989627207E+03 0.  0.
         25    1    3    3    0    0 -0.50505899159E+02  0.46242492759E+02 -0.82383168802E+03  0.83533697642E+03  0.12000000000E+03 0.  0.
         25    1    3    3    0    0  0.50505899159E+02 -0.46242492759E+02 -0.59381360182E+03  0.60967516572E+03  0.12000000000E+03 0.  0.
<mgrwt>
<rscale>  0 0.27989627E+03</rscale>
<asrwt>0</asrwt>
<pdfrwt beam="1">  1        2 0.22020457E+00 0.27989627E+03</pdfrwt>
<pdfrwt beam="2">  1       -2 0.21051411E-02 0.27989627E+03</pdfrwt>
<totfact> 0.10653983E+04</totfact>
</mgrwt>
</event>
<event>
 5    1  0.1162308E+001  0.2752404E+03  0.7818608E-02  0.1098317E+00
         -1   -1    0    0    0  501 -0.00000000000E+00  0.00000000000E+00  0.18955710578E+02  0.18955710578E+02  0.00000000000E+00 0.  1.
          1   -1    0    0  501    0  0.00000000000E+00 -0.00000000000E+00 -0.99913518635E+03  0.99913518635E+03  0.00000000000E+00 0.  1.
         35    2    1    2    0    0  0.00000000000E+00  0.00000000000E+00 -0.98017947577E+03  0.10180908969E+04  0.27524038527E+03 0.  0.
         25    1    3    3    0    0 -0.63427508236E+01 -0.48062291892E+02 -0.31702543461E+03  0.34242567161E+03  0.12000000000E+03 0.  0.
         25    1    3    3    0    0  0.63427508236E+01  0.48062291892E+02 -0.66315404116E+03  0.67566522532E+03  0.12000000000E+03 0.  0.
<mgrwt>
<rscale>  0 0.27524039E+03</rscale>
<asrwt>0</asrwt>
<pdfrwt beam="1">  1        1 0.15371312E+00 0.27524039E+03</pdfrwt>
<pdfrwt beam="2">  1       -1 0.29162629E-02 0.27524039E+03</pdfrwt>
<totfact> 0.62952815E+03</totfact>
</mgrwt>
</event>
<event>
 5    1  0.1162308E+001  0.2757414E+03  0.7818608E-02  0.1098038E+00
         -1   -1    0    0    0  501 -0.00000000000E+00  0.00000000000E+00  0.18193157827E+02  0.18193157827E+02  0.00000000000E+00 0.  1.
          1   -1    0    0  501    0  0.00000000000E+00 -0.00000000000E+00 -0.10448062525E+04  0.10448062525E+04  0.00000000000E+00 0.  1.
         35    2    1    2    0    0  0.00000000000E+00  0.00000000000E+00 -0.10266130947E+04  0.10629994104E+04  0.27574136469E+03 0.  0.
         25    1    3    3    0    0 -0.38422979000E+02  0.53268645506E+02 -0.57945774694E+03  0.59538655880E+03  0.12000000000E+03 0.  0.
         25    1    3    3    0    0  0.38422979000E+02 -0.53268645506E+02 -0.44715534776E+03  0.46761285156E+03  0.12000000000E+03 0.  0.
<mgrwt>
<rscale>  0 0.27574136E+03</rscale>
<asrwt>0</asrwt>
<pdfrwt beam="1">  1        1 0.16073943E+00 0.27574136E+03</pdfrwt>
<pdfrwt beam="2">  1       -1 0.27989473E-02 0.27574136E+03</pdfrwt>
<totfact> 0.61861897E+03</totfact>
</mgrwt>
</event>
<event>
 5    1  0.1162308E+001  0.2751898E+03  0.7818608E-02  0.1098346E+00
         -1   -1    0    0    0  501 -0.00000000000E+00  0.00000000000E+00  0.10369950542E+03  0.10369950542E+03  0.00000000000E+00 0.  1.
          1   -1    0    0  501    0  0.00000000000E+00 -0.00000000000E+00 -0.18256946619E+03  0.18256946619E+03  0.00000000000E+00 0.  1.
         35    2    1    2    0    0  0.00000000000E+00  0.00000000000E+00 -0.78869960775E+02  0.28626897161E+03  0.27518984973E+03 0.  0.
         25    1    3    3    0    0  0.63974115063E+02 -0.18607627754E+02 -0.49490164200E+02  0.14590478937E+03  0.12000000000E+03 0.  0.
         25    1    3    3    0    0 -0.63974115063E+02  0.18607627754E+02 -0.29379796575E+02  0.14036418224E+03  0.12000000000E+03 0.  0.
<mgrwt>
<rscale>  0 0.27518985E+03</rscale>
<asrwt>0</asrwt>
<pdfrwt beam="1">  1        1 0.28087610E-01 0.27518985E+03</pdfrwt>
<pdfrwt beam="2">  1       -1 0.15953770E-01 0.27518985E+03</pdfrwt>
<totfact> 0.47645860E+03</totfact>
</mgrwt>
</event>
<event>
 5    1  0.1162308E+001  0.2727926E+03  0.7818608E-02  0.1099692E+00
          1   -1    0    0  501    0  0.00000000000E+00  0.00000000000E+00  0.12478345071E+03  0.12478345071E+03  0.00000000000E+00 0.  1.
         -1   -1    0    0    0  501 -0.00000000000E+00 -0.00000000000E+00 -0.14908993334E+03  0.14908993334E+03  0.00000000000E+00 0.  1.
         35    2    1    2    0    0  0.00000000000E+00  0.00000000000E+00 -0.24306482631E+02  0.27387338405E+03  0.27279264175E+03 0.  0.
         25    1    3    3    0    0  0.38065570077E+02 -0.38554872962E+02  0.23603734846E+02  0.13376323169E+03  0.12000000000E+03 0.  0.
         25    1    3    3    0    0 -0.38065570077E+02  0.38554872962E+02 -0.47910217477E+02  0.14011015236E+03  0.12000000000E+03 0.  0.
<mgrwt>
<rscale>  0 0.27279264E+03</rscale>
<asrwt>0</asrwt>
<pdfrwt beam="1">  1        1 0.19197454E-01 0.27279264E+03</pdfrwt>
<pdfrwt beam="2">  1       -1 0.22936913E-01 0.27279264E+03</pdfrwt>
<totfact> 0.43027845E+03</totfact>
</mgrwt>
</event>
<event>
 5    1  0.1162308E+001  0.2747885E+03  0.7818608E-02  0.1098570E+00
          1   -1    0    0  501    0  0.00000000000E+00  0.00000000000E+00  0.59599864491E+02  0.59599864491E+02  0.00000000000E+00 0.  1.
         -1   -1    0    0    0  501 -0.00000000000E+00 -0.00000000000E+00 -0.31673202854E+03  0.31673202854E+03  0.00000000000E+00 0.  1.
         35    2    1    2    0    0  0.00000000000E+00  0.00000000000E+00 -0.25713216405E+03  0.37633189303E+03  0.27478854402E+03 0.  0.
         25    1    3    3    0    0  0.59645813641E+02  0.26116464992E+02 -0.14967169394E+03  0.20258654644E+03  0.12000000000E+03 0.  0.
         25    1    3    3    0    0 -0.59645813641E+02 -0.26116464992E+02 -0.10746047010E+03  0.17374534660E+03  0.12000000000E+03 0.  0.
<mgrwt>
<rscale>  0 0.27478854E+03</rscale>
<asrwt>0</asrwt>
<pdfrwt beam="1">  1        1 0.91692100E-02 0.27478854E+03</pdfrwt>
<pdfrwt beam="2">  1       -1 0.48728004E-01 0.27478854E+03</pdfrwt>
<totfact> 0.30986948E+03</totfact>
</mgrwt>
</event>
<event>
 5    1  0.1162308E+001  0.2752024E+03  0.7818608E-02  0.1098339E+00
          1   -1    0    0  501    0  0.00000000000E+00  0.00000000000E+00  0.29433530653E+03  0.29433530653E+03  0.00000000000E+00 0.  1.
         -1   -1    0    0    0  501 -0.00000000000E+00 -0.00000000000E+00 -0.64328296838E+02  0.64328296838E+02  0.00000000000E+00 0.  1.
         35    2    1    2    0    0  0.00000000000E+00  0.00000000000E+00  0.23000700969E+03  0.35866360337E+03  0.27520239075E+03 0.  0.
         25    1    3    3    0    0 -0.18088405534E+02 -0.55033586102E+02  0.15973826969E+03  0.20801971257E+03  0.12000000000E+03 0.  0.
         25    1    3    3    0    0  0.18088405534E+02  0.55033586102E+02  0.70268740004E+02  0.15064389080E+03  0.12000000000E+03 0.  0.
<mgrwt>
<rscale>  0 0.27520239E+03</rscale>
<asrwt>0</asrwt>
<pdfrwt beam="1">  1        1 0.45282354E-01 0.27520239E+03</pdfrwt>
<pdfrwt beam="2">  1       -1 0.98966612E-02 0.27520239E+03</pdfrwt>
<totfact> 0.55242780E+03</totfact>
</mgrwt>
</event>
<event>
 5    1  0.1162308E+001  0.2749444E+03  0.7818608E-02  0.1098483E+00
          2   -1    0    0  501    0  0.00000000000E+00  0.00000000000E+00  0.83543116600E+03  0.83543116600E+03  0.00000000000E+00 0. -1.
         -2   -1    0    0    0  501 -0.00000000000E+00 -0.00000000000E+00 -0.22621377020E+02  0.22621377020E+02  0.00000000000E+00 0. -1.
         35    2    1    2    0    0  0.00000000000E+00  0.00000000000E+00  0.81280978898E+03  0.85805254302E+03  0.27494438260E+03 0.  0.
         25    1    3    3    0    0 -0.64558546924E+02 -0.99421139578E+01  0.45393490131E+03  0.47405015160E+03  0.12000000000E+03 0.  0.
         25    1    3    3    0    0  0.64558546924E+02  0.99421139578E+01  0.35887488767E+03  0.38400239141E+03  0.12000000000E+03 0.  0.
<mgrwt>
<rscale>  0 0.27494438E+03</rscale>
<asrwt>0</asrwt>
<pdfrwt beam="1">  1        2 0.12852785E+00 0.27494438E+03</pdfrwt>
<pdfrwt beam="2">  1       -2 0.34802125E-02 0.27494438E+03</pdfrwt>
<totfact> 0.11333117E+04</totfact>
</mgrwt>
</event>
<event>
 5    1  0.1162308E+001  0.2753397E+03  0.7818608E-02  0.1098262E+00
         -2   -1    0    0    0  501 -0.00000000000E+00  0.00000000000E+00  0.45031609706E+01  0.45031609706E+01  0.00000000000E+00 0.  1.
          2   -1    0    0  501    0  0.00000000000E+00 -0.00000000000E+00 -0.42088188355E+04  0.42088188355E+04  0.00000000000E+00 0.  1.
         35    2    1    2    0    0  0.00000000000E+00  0.00000000000E+00 -0.42043156745E+04  0.42133219964E+04  0.27533970808E+03 0.  0.
         25    1    3    3    0    0 -0.16956975760E+02 -0.64580374981E+02 -0.19531473307E+04  0.19579690139E+04  0.12000000000E+03 0.  0.
         25    1    3    3    0    0  0.16956975760E+02  0.64580374981E+02 -0.22511683438E+04  0.22553529825E+04  0.12000000000E+03 0.  0.
<mgrwt>
<rscale>  0 0.27533971E+03</rscale>
<asrwt>0</asrwt>
<pdfrwt beam="1">  1        2 0.64750916E+00 0.27533971E+03</pdfrwt>
<pdfrwt beam="2">  1       -2 0.69279552E-03 0.27533971E+03</pdfrwt>
<totfact> 0.11074017E+03</totfact>
</mgrwt>
</event>
<event>
 5    1  0.1162308E+001  0.2750544E+03  0.7818608E-02  0.1098421E+00
          4   -1    0    0  501    0  0.00000000000E+00  0.00000000000E+00  0.13576959925E+03  0.13576959925E+03  0.00000000000E+00 0.  1.
         -4   -1    0    0    0  501 -0.00000000000E+00 -0.00000000000E+00 -0.13930750882E+03  0.13930750882E+03  0.00000000000E+00 0.  1.
         35    2    1    2    0    0  0.00000000000E+00  0.00000000000E+00 -0.35379095682E+01  0.27507710807E+03  0.27505435568E+03 0.  0.
         25    1    3    3    0    0  0.29808543226E+02  0.15418855055E+02  0.56437528891E+02  0.13678993021E+03  0.12000000000E+03 0.  0.
         25    1    3    3    0    0 -0.29808543226E+02 -0.15418855055E+02 -0.59975438459E+02  0.13828717785E+03  0.12000000000E+03 0.  0.
<mgrwt>
<rscale>  0 0.27505436E+03</rscale>
<asrwt>0</asrwt>
<pdfrwt beam="1">  1        4 0.20887631E-01 0.27505436E+03</pdfrwt>
<pdfrwt beam="2">  1       -4 0.21431924E-01 0.27505436E+03</pdfrwt>
<totfact> 0.77806551E+02</totfact>
</mgrwt>
</event>
<event>
 5    1  0.1162308E+001  0.2730891E+03  0.7818608E-02  0.1099525E+00
          3   -1    0    0  501    0  0.00000000000E+00  0.00000000000E+00  0.10756432543E+02  0.10756432543E+02  0.00000000000E+00 0.  1.
         -3   -1    0    0    0  501 -0.00000000000E+00 -0.00000000000E+00 -0.17333272889E+04  0.17333272889E+04  0.00000000000E+00 0.  1.
         35    2    1    2    0    0  0.00000000000E+00  0.00000000000E+00 -0.17225708563E+04  0.17440837214E+04  0.27308912873E+03 0.  0.
         25    1    3    3    0    0 -0.49099274866E+02  0.38390518190E+02 -0.74013579928E+03  0.75238658418E+03  0.12000000000E+03 0.  0.
         25    1    3    3    0    0  0.49099274866E+02 -0.38390518190E+02 -0.98243505704E+03  0.99169713722E+03  0.12000000000E+03 0.  0.
<mgrwt>
<rscale>  0 0.27308913E+03</rscale>
<asrwt>0</asrwt>
<pdfrwt beam="1">  1        3 0.16548365E-02 0.27308913E+03</pdfrwt>
<pdfrwt beam="2">  1       -3 0.26666561E+00 0.27308913E+03</pdfrwt>
<totfact> 0.21374624E+02</totfact>
</mgrwt>
</event>
<event>
 5    1  0.1162308E+001  0.2752716E+03  0.7818608E-02  0.1098300E+00
         -2   -1    0    0    0  501 -0.00000000000E+00  0.00000000000E+00  0.20301260111E+03  0.20301260111E+03  0.00000000000E+00 0.  1.
          2   -1    0    0  501    0  0.00000000000E+00 -0.00000000000E+00 -0.93312532206E+02  0.93312532206E+02  0.00000000000E+00 0.  1.
         35    2    1    2    0    0  0.00000000000E+00  0.00000000000E+00  0.10970006891E+03  0.29632513332E+03  0.27527164678E+03 0.  0.
         25    1    3    3    0    0  0.18466229267E+02  0.46022644488E+02  0.57013898033E+01  0.12996765472E+03  0.12000000000E+03 0.  0.
         25    1    3    3    0    0 -0.18466229267E+02 -0.46022644488E+02  0.10399867910E+03  0.16635747860E+03  0.12000000000E+03 0.  0.
<mgrwt>
<rscale>  0 0.27527165E+03</rscale>
<asrwt>0</asrwt>
<pdfrwt beam="1">  1        2 0.14355774E-01 0.27527165E+03</pdfrwt>
<pdfrwt beam="2">  1       -2 0.31232708E-01 0.27527165E+03</pdfrwt>
<totfact> 0.38804345E+03</totfact>
</mgrwt>
</event>
<event>
 5    1  0.1162308E+001  0.2747561E+03  0.7818608E-02  0.1098588E+00
         -2   -1    0    0    0  501 -0.00000000000E+00  0.00000000000E+00  0.39890615034E+02  0.39890615034E+02  0.00000000000E+00 0. -1.
          2   -1    0    0  501    0  0.00000000000E+00 -0.00000000000E+00 -0.47311202846E+03  0.47311202846E+03  0.00000000000E+00 0. -1.
         35    2    1    2    0    0  0.00000000000E+00  0.00000000000E+00 -0.43322141343E+03  0.51300264350E+03  0.27475610854E+03 0.  0.
         25    1    3    3    0    0 -0.15651536988E+02 -0.60650737273E+02 -0.17285283475E+03  0.21954859376E+03  0.12000000000E+03 0.  0.
         25    1    3    3    0    0  0.15651536988E+02  0.60650737273E+02 -0.26036857868E+03  0.29345404974E+03  0.12000000000E+03 0.  0.
<mgrwt>
<rscale>  0 0.27475611E+03</rscale>
<asrwt>0</asrwt>
<pdfrwt beam="1">  1        2 0.72786461E-01 0.27475611E+03</pdfrwt>
<pdfrwt beam="2">  1       -2 0.61370181E-02 0.27475611E+03</pdfrwt>
<totfact> 0.94125629E+03</totfact>
</mgrwt>
</event>
<event>
 5    1  0.1162308E+001  0.2753607E+03  0.7818608E-02  0.1098250E+00
          3   -1    0    0  501    0  0.00000000000E+00  0.00000000000E+00  0.28745825294E+03  0.28745825294E+03  0.00000000000E+00 0. -1.
         -3   -1    0    0    0  501 -0.00000000000E+00 -0.00000000000E+00 -0.65943087029E+02  0.65943087029E+02  0.00000000000E+00 0. -1.
         35    2    1    2    0    0  0.00000000000E+00  0.00000000000E+00  0.22151516591E+03  0.35340133997E+03  0.27536074223E+03 0.  0.
         25    1    3    3    0    0 -0.41074068001E+02 -0.42728074573E+02  0.15220836375E+03  0.20268239543E+03  0.12000000000E+03 0.  0.
         25    1    3    3    0    0  0.41074068001E+02  0.42728074573E+02  0.69306802157E+02  0.15071894454E+03  0.12000000000E+03 0.  0.
<mgrwt>
<rscale>  0 0.27536074E+03</rscale>
<asrwt>0</asrwt>
<pdfrwt beam="1">  1        3 0.44224346E-01 0.27536074E+03</pdfrwt>
<pdfrwt beam="2">  1       -3 0.10145090E-01 0.27536074E+03</pdfrwt>
<totfact> 0.93485880E+02</totfact>
</mgrwt>
</event>
<event>
 5    1  0.1162308E+001  0.2768491E+03  0.7818608E-02  0.1097422E+00
          3   -1    0    0  501    0  0.00000000000E+00  0.00000000000E+00  0.70576977260E+02  0.70576977260E+02  0.00000000000E+00 0. -1.
         -3   -1    0    0    0  501 -0.00000000000E+00 -0.00000000000E+00 -0.27149593340E+03  0.27149593340E+03  0.00000000000E+00 0. -1.
         35    2    1    2    0    0  0.00000000000E+00  0.00000000000E+00 -0.20091895614E+03  0.34207291066E+03  0.27684914533E+03 0.  0.
         25    1    3    3    0    0 -0.29012996736E+02  0.22608660776E+01 -0.17776552541E+03  0.21644271186E+03  0.12000000000E+03 0.  0.
         25    1    3    3    0    0  0.29012996736E+02 -0.22608660776E+01 -0.23153430732E+02  0.12563019880E+03  0.12000000000E+03 0.  0.
<mgrwt>
<rscale>  0 0.27684915E+03</rscale>
<asrwt>0</asrwt>
<pdfrwt beam="1">  1        3 0.10857996E-01 0.27684915E+03</pdfrwt>
<pdfrwt beam="2">  1       -3 0.41768605E-01 0.27684915E+03</pdfrwt>
<totfact> 0.93375554E+02</totfact>
</mgrwt>
</event>
<event>
 5    1  0.1162308E+001  0.2750633E+03  0.7818608E-02  0.1098416E+00
          1   -1    0    0  501    0  0.00000000000E+00  0.00000000000E+00  0.10160949041E+04  0.10160949041E+04  0.00000000000E+00 0.  1.
         -1   -1    0    0    0  501 -0.00000000000E+00 -0.00000000000E+00 -0.18615338405E+02  0.18615338405E+02  0.00000000000E+00 0.  1.
         35    2    1    2    0    0  0.00000000000E+00  0.00000000000E+00  0.99747956565E+03  0.10347102425E+04  0.27506326901E+03 0.  0.
         25    1    3    3    0    0 -0.68981617922E+00 -0.66857496926E+02  0.52384758956E+03  0.54155950535E+03  0.12000000000E+03 0.  0.
         25    1    3    3    0    0  0.68981617922E+00  0.66857496926E+02  0.47363197608E+03  0.49315073711E+03  0.12000000000E+03 0.  0.
<mgrwt>
<rscale>  0 0.27506327E+03</rscale>
<asrwt>0</asrwt>
<pdfrwt beam="1">  1        1 0.15632225E+00 0.27506327E+03</pdfrwt>
<pdfrwt beam="2">  1       -1 0.28638990E-02 0.27506327E+03</pdfrwt>
<totfact> 0.62799027E+03</totfact>
</mgrwt>
</event>
<event>
 5    1  0.1162308E+001  0.2743778E+03  0.7818608E-02  0.1098800E+00
         -2   -1    0    0    0  501 -0.00000000000E+00  0.00000000000E+00  0.12754267369E+02  0.12754267369E+02  0.00000000000E+00 0.  1.
          2   -1    0    0  501    0  0.00000000000E+00 -0.00000000000E+00 -0.14756465159E+04  0.14756465159E+04  0.00000000000E+00 0.  1.
         35    2    1    2    0    0  0.00000000000E+00  0.00000000000E+00 -0.14628922486E+04  0.14884007833E+04  0.27437777029E+03 0.  0.
         25    1    3    3    0    0 -0.22768934222E+02 -0.59828038424E+02 -0.82893457647E+03  0.84001806565E+03  0.12000000000E+03 0.  0.
         25    1    3    3    0    0  0.22768934222E+02  0.59828038424E+02 -0.63395767211E+03  0.64838271767E+03  0.12000000000E+03 0.  0.
<mgrwt>
<rscale>  0 0.27437777E+03</rscale>
<asrwt>0</asrwt>
<pdfrwt beam="1">  1        2 0.22702247E+00 0.27437777E+03</pdfrwt>
<pdfrwt beam="2">  1       -2 0.19621956E-02 0.27437777E+03</pdfrwt>
<totfact> 0.11179192E+04</totfact>
</mgrwt>
</event>
<event>
 5    1  0.1162308E+001  0.2749422E+03  0.7818608E-02  0.1098484E+00
         -2   -1    0    0    0  501 -0.00000000000E+00  0.00000000000E+00  0.20241791487E+02  0.20241791487E+02  0.00000000000E+00 0. -1.
          2   -1    0    0  501    0  0.00000000000E+00 -0.00000000000E+00 -0.93362828255E+03  0.93362828255E+03  0.00000000000E+00 0. -1.
         35    2    1    2    0    0  0.00000000000E+00  0.00000000000E+00 -0.91338649106E+03  0.95387007404E+03  0.27494224137E+03 0.  0.
         25    1    3    3    0    0  0.57490382924E+02 -0.17705489399E+02 -0.35379446048E+03  0.37840342064E+03  0.12000000000E+03 0.  0.
         25    1    3    3    0    0 -0.57490382924E+02  0.17705489399E+02 -0.55959203058E+03  0.57546665340E+03  0.12000000000E+03 0.  0.
<mgrwt>
<rscale>  0 0.27494224E+03</rscale>
<asrwt>0</asrwt>
<pdfrwt beam="1">  1        2 0.14363512E+00 0.27494224E+03</pdfrwt>
<pdfrwt beam="2">  1       -2 0.31141218E-02 0.27494224E+03</pdfrwt>
<totfact> 0.11543512E+04</totfact>
</mgrwt>
</event>
<event>
 5    1  0.1162308E+001  0.2805516E+03  0.7818608E-02  0.1095388E+00
          3   -1    0    0  501    0  0.00000000000E+00  0.00000000000E+00  0.36470964196E+02  0.36470964196E+02  0.00000000000E+00 0. -1.
         -3   -1    0    0    0  501 -0.00000000000E+00 -0.00000000000E+00 -0.53953333943E+03  0.53953333943E+03  0.00000000000E+00 0. -1.
         35    2    1    2    0    0  0.00000000000E+00  0.00000000000E+00 -0.50306237523E+03  0.57600430362E+03  0.28055160741E+03 0.  0.
         25    1    3    3    0    0 -0.48324954558E+01 -0.68411885878E+02 -0.30071009140E+03  0.33095331727E+03  0.12000000000E+03 0.  0.
         25    1    3    3    0    0  0.48324954558E+01  0.68411885878E+02 -0.20235228383E+03  0.24505098635E+03  0.12000000000E+03 0.  0.
<mgrwt>
<rscale>  0 0.28055161E+03</rscale>
<asrwt>0</asrwt>
<pdfrwt beam="1">  1        3 0.56109179E-02 0.28055161E+03</pdfrwt>
<pdfrwt beam="2">  1       -3 0.83005125E-01 0.28055161E+03</pdfrwt>
<totfact> 0.66317506E+02</totfact>
</mgrwt>
</event>
<event>
 5    1  0.1162308E+001  0.2742056E+03  0.7818608E-02  0.1098896E+00
          2   -1    0    0  501    0  0.00000000000E+00  0.00000000000E+00  0.27675992034E+03  0.27675992034E+03  0.00000000000E+00 0.  1.
         -2   -1    0    0    0  501 -0.00000000000E+00 -0.00000000000E+00 -0.67918710284E+02  0.67918710284E+02  0.00000000000E+00 0.  1.
         35    2    1    2    0    0  0.00000000000E+00  0.00000000000E+00  0.20884121006E+03  0.34467863063E+03  0.27420559329E+03 0.  0.
         25    1    3    3    0    0  0.15365605976E+02  0.59549865893E+02  0.73250646437E+02  0.15345339872E+03  0.12000000000E+03 0.  0.
         25    1    3    3    0    0 -0.15365605976E+02 -0.59549865893E+02  0.13559056362E+03  0.19122523191E+03  0.12000000000E+03 0.  0.
<mgrwt>
<rscale>  0 0.27420559E+03</rscale>
<asrwt>0</asrwt>
<pdfrwt beam="1">  1        2 0.42578449E-01 0.27420559E+03</pdfrwt>
<pdfrwt beam="2">  1       -2 0.10449032E-01 0.27420559E+03</pdfrwt>
<totfact> 0.73248527E+03</totfact>
</mgrwt>
</event>
<event>
 5    1  0.1162308E+001  0.2737607E+03  0.7818608E-02  0.1099146E+00
         -2   -1    0    0    0  501 -0.00000000000E+00  0.00000000000E+00  0.60732764716E+03  0.60732764716E+03  0.00000000000E+00 0.  1.
          2   -1    0    0  501    0  0.00000000000E+00 -0.00000000000E+00 -0.30850275362E+02  0.30850275362E+02  0.00000000000E+00 0.  1.
         35    2    1    2    0    0  0.00000000000E+00  0.00000000000E+00  0.57647737180E+03  0.63817792252E+03  0.27376066299E+03 0.  0.
         25    1    3    3    0    0  0.47837201900E+02  0.22219105822E+02  0.38013870583E+03  0.40210386993E+03  0.12000000000E+03 0.  0.
         25    1    3    3    0    0 -0.47837201900E+02 -0.22219105822E+02  0.19633866597E+03  0.23607405259E+03  0.12000000000E+03 0.  0.
<mgrwt>
<rscale>  0 0.27376066E+03</rscale>
<asrwt>0</asrwt>
<pdfrwt beam="1">  1        2 0.47461967E-02 0.27376066E+03</pdfrwt>
<pdfrwt beam="2">  1       -2 0.93435014E-01 0.27376066E+03</pdfrwt>
<totfact> 0.16887540E+03</totfact>
</mgrwt>
</event>
<event>
 5    1  0.1162308E+001  0.2760007E+03  0.7818608E-02  0.1097894E+00
          4   -1    0    0  501    0  0.00000000000E+00  0.00000000000E+00  0.27442823197E+03  0.27442823197E+03  0.00000000000E+00 0. -1.
         -4   -1    0    0    0  501 -0.00000000000E+00 -0.00000000000E+00 -0.69395537261E+02  0.69395537261E+02  0.00000000000E+00 0. -1.
         35    2    1    2    0    0  0.00000000000E+00  0.00000000000E+00  0.20503269471E+03  0.34382376923E+03  0.27600068548E+03 0.  0.
         25    1    3    3    0    0  0.44677274122E+02 -0.40667508512E+02  0.63237355917E+02  0.14848861322E+03  0.12000000000E+03 0.  0.
         25    1    3    3    0    0 -0.44677274122E+02  0.40667508512E+02  0.14179533879E+03  0.19533515601E+03  0.12000000000E+03 0.  0.
<mgrwt>
<rscale>  0 0.27600069E+03</rscale>
<asrwt>0</asrwt>
<pdfrwt beam="1">  1        4 0.42219727E-01 0.27600069E+03</pdfrwt>
<pdfrwt beam="2">  1       -4 0.10676237E-01 0.27600069E+03</pdfrwt>
<totfact> 0.69562778E+02</totfact>
</mgrwt>
</event>
<event>
 5    1  0.1162308E+001  0.2754543E+03  0.7818608E-02  0.1098198E+00
          1   -1    0    0  501    0  0.00000000000E+00  0.00000000000E+00  0.29505145573E+03  0.29505145573E+03  0.00000000000E+00 0.  1.
         -1   -1    0    0    0  501 -0.00000000000E+00 -0.00000000000E+00 -0.64289716230E+02  0.64289716230E+02  0.00000000000E+00 0.  1.
         35    2    1    2    0    0  0.00000000000E+00  0.00000000000E+00  0.23076173950E+03  0.35934117196E+03  0.27545434730E+03 0.  0.
         25    1    3    3    0    0  0.56942031179E+02  0.32602047202E+02  0.94205251799E+02  0.16607202613E+03  0.12000000000E+03 0.  0.
         25    1    3    3    0    0 -0.56942031179E+02 -0.32602047202E+02  0.13655648770E+03  0.19326914583E+03  0.12000000000E+03 0.  0.
<mgrwt>
<rscale>  0 0.27545435E+03</rscale>
<asrwt>0</asrwt>
<pdfrwt beam="1">  1        1 0.45392531E-01 0.27545435E+03</pdfrwt>
<pdfrwt beam="2">  1       -1 0.98907257E-02 0.27545435E+03</pdfrwt>
<totfact> 0.55126993E+03</totfact>
</mgrwt>
</event>
<event>
 5    1  0.1162308E+001  0.2741571E+03  0.7818608E-02  0.1098924E+00
          2   -1    0    0  501    0  0.00000000000E+00  0.00000000000E+00  0.26422853456E+03  0.26422853456E+03  0.00000000000E+00 0. -1.
         -2   -1    0    0    0  501 -0.00000000000E+00 -0.00000000000E+00 -0.71114677391E+02  0.71114677391E+02  0.00000000000E+00 0. -1.
         35    2    1    2    0    0  0.00000000000E+00  0.00000000000E+00  0.19311385717E+03  0.33534321195E+03  0.27415708631E+03 0.  0.
         25    1    3    3    0    0  0.58673231570E+02 -0.25977202567E+02  0.11677322730E+03  0.17931355155E+03  0.12000000000E+03 0.  0.
         25    1    3    3    0    0 -0.58673231570E+02  0.25977202567E+02  0.76340629874E+02  0.15602966040E+03  0.12000000000E+03 0.  0.
<mgrwt>
<rscale>  0 0.27415709E+03</rscale>
<asrwt>0</asrwt>
<pdfrwt beam="1">  1        2 0.40650543E-01 0.27415709E+03</pdfrwt>
<pdfrwt beam="2">  1       -2 0.10940720E-01 0.27415709E+03</pdfrwt>
<totfact> 0.71538615E+03</totfact>
</mgrwt>
</event>
<event>
 5    1  0.1162308E+001  0.2751843E+03  0.7818608E-02  0.1098349E+00
          4   -1    0    0  501    0  0.00000000000E+00  0.00000000000E+00  0.25364898918E+03  0.25364898918E+03  0.00000000000E+00 0. -1.
         -4   -1    0    0    0  501 -0.00000000000E+00 -0.00000000000E+00 -0.74637014137E+02  0.74637014137E+02  0.00000000000E+00 0. -1.
         35    2    1    2    0    0  0.00000000000E+00  0.00000000000E+00  0.17901197504E+03  0.32828600332E+03  0.27518432507E+03 0.  0.
         25    1    3    3    0    0 -0.42144878983E+02  0.13545644034E+02  0.15000636285E+03  0.19713341724E+03  0.12000000000E+03 0.  0.
         25    1    3    3    0    0  0.42144878983E+02 -0.13545644034E+02  0.29005612195E+02  0.13115258608E+03  0.12000000000E+03 0.  0.
<mgrwt>
<rscale>  0 0.27518433E+03</rscale>
<asrwt>0</asrwt>
<pdfrwt beam="1">  1        4 0.39022921E-01 0.27518433E+03</pdfrwt>
<pdfrwt beam="2">  1       -4 0.11482618E-01 0.27518433E+03</pdfrwt>
<totfact> 0.71793746E+02</totfact>
</mgrwt>
</event>
<event>
 5    1  0.1162308E+001  0.2751827E+03  0.7818608E-02  0.1098350E+00
         -2   -1    0    0    0  501 -0.00000000000E+00  0.00000000000E+00  0.57492613560E+02  0.57492613560E+02  0.00000000000E+00 0.  1.
          2   -1    0    0  501    0  0.00000000000E+00 -0.00000000000E+00 -0.32928372600E+03  0.32928372600E+03  0.00000000000E+00 0.  1.
         35    2    1    2    0    0  0.00000000000E+00  0.00000000000E+00 -0.27179111244E+03  0.38677633956E+03  0.27518271756E+03 0.  0.
         25    1    3    3    0    0  0.14084484016E+02  0.50409248252E+02 -0.76398197018E+02  0.15157885574E+03  0.12000000000E+03 0.  0.
         25    1    3    3    0    0 -0.14084484016E+02 -0.50409248252E+02 -0.19539291542E+03  0.23519748382E+03  0.12000000000E+03 0.  0.
<mgrwt>
<rscale>  0 0.27518272E+03</rscale>
<asrwt>0</asrwt>
<pdfrwt beam="1">  1        2 0.50659035E-01 0.27518272E+03</pdfrwt>
<pdfrwt beam="2">  1       -2 0.88450174E-02 0.27518272E+03</pdfrwt>
<totfact> 0.79132059E+03</totfact>
</mgrwt>
</event>
<event>
 5    1  0.1162308E+001  0.2733523E+03  0.7818608E-02  0.1099376E+00
          2   -1    0    0  501    0  0.00000000000E+00  0.00000000000E+00  0.63609533426E+03  0.63609533426E+03  0.00000000000E+00 0.  1.
         -2   -1    0    0    0  501 -0.00000000000E+00 -0.00000000000E+00 -0.29367257388E+02  0.29367257388E+02  0.00000000000E+00 0.  1.
         35    2    1    2    0    0  0.00000000000E+00  0.00000000000E+00  0.60672807688E+03  0.66546259165E+03  0.27335233970E+03 0.  0.
         25    1    3    3    0    0 -0.31557105943E+02  0.54583829181E+02  0.34588894318E+03  0.37150290222E+03  0.12000000000E+03 0.  0.
         25    1    3    3    0    0  0.31557105943E+02 -0.54583829181E+02  0.26083913369E+03  0.29395968943E+03  0.12000000000E+03 0.  0.
<mgrwt>
<rscale>  0 0.27335234E+03</rscale>
<asrwt>0</asrwt>
<pdfrwt beam="1">  1        2 0.97860810E-01 0.27335234E+03</pdfrwt>
<pdfrwt beam="2">  1       -2 0.45180401E-02 0.27335234E+03</pdfrwt>
<totfact> 0.10708100E+04</totfact>
</mgrwt>
</event>
<event>
 5    1  0.1162308E+001  0.2745796E+03  0.7818608E-02  0.1098687E+00
          2   -1    0    0  501    0  0.00000000000E+00  0.00000000000E+00  0.36883774120E+03  0.36883774120E+03  0.00000000000E+00 0. -1.
         -2   -1    0    0    0  501 -0.00000000000E+00 -0.00000000000E+00 -0.51102388401E+02  0.51102388401E+02  0.00000000000E+00 0. -1.
         35    2    1    2    0    0  0.00000000000E+00  0.00000000000E+00  0.31773535280E+03  0.41994012960E+03  0.27457960236E+03 0.  0.
         25    1    3    3    0    0 -0.42273760860E+02  0.42269455365E+02  0.11363507169E+03  0.17574614429E+03  0.12000000000E+03 0.  0.
         25    1    3    3    0    0  0.42273760860E+02 -0.42269455365E+02  0.20410028111E+03  0.24419398531E+03  0.12000000000E+03 0.  0.
<mgrwt>
<rscale>  0 0.27457960E+03</rscale>
<asrwt>0</asrwt>
<pdfrwt beam="1">  1        2 0.56744266E-01 0.27457960E+03</pdfrwt>
<pdfrwt beam="2">  1       -2 0.78619061E-02 0.27457960E+03</pdfrwt>
<totfact> 0.84201664E+03</totfact>
</mgrwt>
</event>
<event>
 5    1  0.1162308E+001  0.2744058E+03  0.7818608E-02  0.1098784E+00
          2   -1    0    0  501    0  0.00000000000E+00  0.00000000000E+00  0.38625804754E+04  0.38625804754E+04  0.00000000000E+00 0.  1.
         -2   -1    0    0    0  501 -0.00000000000E+00 -0.00000000000E+00 -0.48735909968E+01  0.48735909968E+01  0.00000000000E+00 0.  1.
         35    2    1    2    0    0  0.00000000000E+00  0.00000000000E+00  0.38577068844E+04  0.38674540663E+04  0.27440581211E+03 0.  0.
         25    1    3    3    0    0 -0.68969442310E+00 -0.41419673109E+02  0.26623567646E+04  0.26653817000E+04  0.12000000000E+03 0.  0.
         25    1    3    3    0    0  0.68969442310E+00  0.41419673109E+02  0.11953501198E+04  0.12020723663E+04  0.12000000000E+03 0.  0.
<mgrwt>
<rscale>  0 0.27440581E+03</rscale>
<asrwt>0</asrwt>
<pdfrwt beam="1">  1        2 0.59424070E+00 0.27440581E+03</pdfrwt>
<pdfrwt beam="2">  1       -2 0.74978632E-03 0.27440581E+03</pdfrwt>
<totfact> 0.18359021E+03</totfact>
</mgrwt>
</event>
<event>
 5    1  0.1162308E+001  0.2773898E+03  0.7818608E-02  0.1097123E+00
          1   -1    0    0  501    0  0.00000000000E+00  0.00000000000E+00  0.68480160931E+03  0.68480160931E+03  0.00000000000E+00 0. -1.
         -1   -1    0    0    0  501 -0.00000000000E+00 -0.00000000000E+00 -0.28090287886E+02  0.28090287886E+02  0.00000000000E+00 0. -1.
         35    2    1    2    0    0  0.00000000000E+00  0.00000000000E+00  0.65671132142E+03  0.71289189720E+03  0.27738979326E+03 0.  0.
         25    1    3    3    0    0  0.14425594723E+02 -0.41492797802E+02  0.46691001560E+03  0.48408130796E+03  0.12000000000E+03 0.  0.
         25    1    3    3    0    0 -0.14425594723E+02  0.41492797802E+02  0.18980130583E+03  0.22881058923E+03  0.12000000000E+03 0.  0.
<mgrwt>
<rscale>  0 0.27738979E+03</rscale>
<asrwt>0</asrwt>
<pdfrwt beam="1">  1        1 0.10535408E+00 0.27738979E+03</pdfrwt>
<pdfrwt beam="2">  1       -1 0.43215833E-02 0.27738979E+03</pdfrwt>
<totfact> 0.63614361E+03</totfact>
</mgrwt>
</event>
<event>
 5    1  0.1162308E+001  0.2602681E+03  0.7818608E-02  0.1106982E+00
         -2   -1    0    0    0  501 -0.00000000000E+00  0.00000000000E+00  0.52994794673E+01  0.52994794673E+01  0.00000000000E+00 0. -1.
          2   -1    0    0  501    0  0.00000000000E+00 -0.00000000000E+00 -0.31955716255E+04  0.31955716255E+04  0.00000000000E+00 0. -1.
         35    2    1    2    0    0  0.00000000000E+00  0.00000000000E+00 -0.31902721461E+04  0.32008711050E+04  0.26026806347E+03 0.  0.
         25    1    3    3    0    0  0.24419581780E+02  0.19636745580E+02 -0.11104887401E+04  0.11173930193E+04  0.12000000000E+03 0.  0.
         25    1    3    3    0    0 -0.24419581780E+02 -0.19636745580E+02 -0.20797834060E+04  0.20834780857E+04  0.12000000000E+03 0.  0.
<mgrwt>
<rscale>  0 0.26026806E+03</rscale>
<asrwt>0</asrwt>
<pdfrwt beam="1">  1        2 0.49162697E+00 0.26026806E+03</pdfrwt>
<pdfrwt beam="2">  1       -2 0.81530360E-03 0.26026806E+03</pdfrwt>
<totfact> 0.45561366E+03</totfact>
</mgrwt>
</event>
<event>
 5    1  0.1162308E+001  0.2740831E+03  0.7818608E-02  0.1098965E+00
         -2   -1    0    0    0  501 -0.00000000000E+00  0.00000000000E+00  0.24122192764E+02  0.24122192764E+02  0.00000000000E+00 0. -1.
          2   -1    0    0  501    0  0.00000000000E+00 -0.00000000000E+00 -0.77855202593E+03  0.77855202593E+03  0.00000000000E+00 0. -1.
         35    2    1    2    0    0  0.00000000000E+00  0.00000000000E+00 -0.75442983317E+03  0.80267421870E+03  0.27408306804E+03 0.  0.
         25    1    3    3    0    0 -0.57509587640E+02 -0.28094200670E+02 -0.42654608684E+03  0.44770325102E+03  0.12000000000E+03 0.  0.
         25    1    3    3    0    0  0.57509587640E+02  0.28094200670E+02 -0.32788374633E+03  0.35497096767E+03  0.12000000000E+03 0.  0.
<mgrwt>
<rscale>  0 0.27408307E+03</rscale>
<asrwt>0</asrwt>
<pdfrwt beam="1">  1        2 0.11977723E+00 0.27408307E+03</pdfrwt>
<pdfrwt beam="2">  1       -2 0.37111067E-02 0.27408307E+03</pdfrwt>
<totfact> 0.11262278E+04</totfact>
</mgrwt>
</event>
<event>
 5    1  0.1162308E+001  0.2738446E+03  0.7818608E-02  0.1099099E+00
          2   -1    0    0  501    0  0.00000000000E+00  0.00000000000E+00  0.73595069782E+03  0.73595069782E+03  0.00000000000E+00 0. -1.
         -2   -1    0    0    0  501 -0.00000000000E+00 -0.00000000000E+00 -0.25474156128E+02  0.25474156128E+02  0.00000000000E+00 0. -1.
         35    2    1    2    0    0  0.00000000000E+00  0.00000000000E+00  0.71047654169E+03  0.76142485395E+03  0.27384464923E+03 0.  0.
         25    1    3    3    0    0 -0.29770814180E+02  0.54150073252E+02  0.41920130886E+03  0.44039558259E+03  0.12000000000E+03 0.  0.
         25    1    3    3    0    0  0.29770814180E+02 -0.54150073252E+02  0.29127523283E+03  0.32102927136E+03  0.12000000000E+03 0.  0.
<mgrwt>
<rscale>  0 0.27384465E+03</rscale>
<asrwt>0</asrwt>
<pdfrwt beam="1">  1        2 0.11322317E+00 0.27384465E+03</pdfrwt>
<pdfrwt beam="2">  1       -2 0.39191015E-02 0.27384465E+03</pdfrwt>
<totfact> 0.11130618E+04</totfact>
</mgrwt>
</event>
<event>
 5    1  0.1162308E+001  0.2759574E+03  0.7818608E-02  0.1097918E+00
          4   -1    0    0  501    0  0.00000000000E+00  0.00000000000E+00  0.13125784752E+02  0.13125784752E+02  0.00000000000E+00 0. -1.
         -4   -1    0    0    0  501 -0.00000000000E+00 -0.00000000000E+00 -0.14504368287E+04  0.14504368287E+04  0.00000000000E+00 0. -1.
         35    2    1    2    0    0  0.00000000000E+00  0.00000000000E+00 -0.14373110439E+04  0.14635626134E+04  0.27595739968E+03 0.  0.
         25    1    3    3    0    0 -0.89112081186E+01  0.16333739516E+02 -0.37120327923E+03  0.39056123103E+03  0.12000000000E+03 0.  0.
         25    1    3    3    0    0  0.89112081186E+01 -0.16333739516E+02 -0.10661077647E+04  0.10730013824E+04  0.12000000000E+03 0.  0.
<mgrwt>
<rscale>  0 0.27595740E+03</rscale>
<asrwt>0</asrwt>
<pdfrwt beam="1">  1        4 0.20193512E-02 0.27595740E+03</pdfrwt>
<pdfrwt beam="2">  1       -4 0.22314416E+00 0.27595740E+03</pdfrwt>
<totfact> 0.19380536E+02</totfact>
</mgrwt>
</event>
<event>
 5    1  0.1162308E+001  0.2750024E+03  0.7818608E-02  0.1098450E+00
         -2   -1    0    0    0  501 -0.00000000000E+00  0.00000000000E+00  0.20623499279E+03  0.20623499279E+03  0.00000000000E+00 0.  1.
          2   -1    0    0  501    0  0.00000000000E+00 -0.00000000000E+00 -0.91674933719E+02  0.91674933719E+02  0.00000000000E+00 0.  1.
         35    2    1    2    0    0  0.00000000000E+00  0.00000000000E+00  0.11456005907E+03  0.29790992651E+03  0.27500239486E+03 0.  0.
         25    1    3    3    0    0  0.27906433516E+02  0.32210170773E+02  0.10911880158E+01  0.12734777118E+03  0.12000000000E+03 0.  0.
         25    1    3    3    0    0 -0.27906433516E+02 -0.32210170773E+02  0.11346887106E+03  0.17056215533E+03  0.12000000000E+03 0.  0.
<mgrwt>
<rscale>  0 0.27500239E+03</rscale>
<asrwt>0</asrwt>
<pdfrwt beam="1">  1        2 0.14103836E-01 0.27500239E+03</pdfrwt>
<pdfrwt beam="2">  1       -2 0.31728460E-01 0.27500239E+03</pdfrwt>
<totfact> 0.38505133E+03</totfact>
</mgrwt>
</event>
<event>
 5    1  0.1162308E+001  0.2750532E+03  0.7818608E-02  0.1098422E+00
          2   -1    0    0  501    0  0.00000000000E+00  0.00000000000E+00  0.11132112166E+04  0.11132112166E+04  0.00000000000E+00 0. -1.
         -2   -1    0    0    0  501 -0.00000000000E+00 -0.00000000000E+00 -0.16990100763E+02  0.16990100763E+02  0.00000000000E+00 0. -1.
         35    2    1    2    0    0  0.00000000000E+00  0.00000000000E+00  0.10962211158E+04  0.11302013173E+04  0.27505323660E+03 0.  0.
         25    1    3    3    0    0 -0.18839421906E+02 -0.44175902621E+02  0.74115337686E+03  0.75233952589E+03  0.12000000000E+03 0.  0.
         25    1    3    3    0    0  0.18839421906E+02  0.44175902621E+02  0.35506773896E+03  0.37786179145E+03  0.12000000000E+03 0.  0.
<mgrwt>
<rscale>  0 0.27505324E+03</rscale>
<asrwt>0</asrwt>
<pdfrwt beam="1">  1        2 0.17126321E+00 0.27505324E+03</pdfrwt>
<pdfrwt beam="2">  1       -2 0.26138625E-02 0.27505324E+03</pdfrwt>
<totfact> 0.11650149E+04</totfact>
</mgrwt>
</event>
<event>
 5    1  0.1162308E+001  0.2752794E+03  0.7818608E-02  0.1098296E+00
          2   -1    0    0  501    0  0.00000000000E+00  0.00000000000E+00  0.12565349874E+02  0.12565349874E+02  0.00000000000E+00 0. -1.
         -2   -1    0    0    0  501 -0.00000000000E+00 -0.00000000000E+00 -0.15076923292E+04  0.15076923292E+04  0.00000000000E+00 0. -1.
         35    2    1    2    0    0  0.00000000000E+00  0.00000000000E+00 -0.14951269794E+04  0.15202576791E+04  0.27527936079E+03 0.  0.
         25    1    3    3    0    0  0.18215302416E+02 -0.37172817269E+02 -0.45371832121E+03  0.47114109414E+03  0.12000000000E+03 0.  0.
         25    1    3    3    0    0 -0.18215302416E+02  0.37172817269E+02 -0.10414086582E+04  0.10491165850E+04  0.12000000000E+03 0.  0.
<mgrwt>
<rscale>  0 0.27527936E+03</rscale>
<asrwt>0</asrwt>
<pdfrwt beam="1">  1        2 0.19331308E-02 0.27527936E+03</pdfrwt>
<pdfrwt beam="2">  1       -2 0.23195266E+00 0.27527936E+03</pdfrwt>
<totfact> 0.52693337E+02</totfact>
</mgrwt>
</event>
<event>
 5    1  0.1162308E+001  0.2760444E+03  0.7818608E-02  0.1097869E+00
         -1   -1    0    0    0  501 -0.00000000000E+00  0.00000000000E+00  0.59010407118E+02  0.59010407118E+02  0.00000000000E+00 0. -1.
          1   -1    0    0  501    0  0.00000000000E+00 -0.00000000000E+00 -0.32282649585E+03  0.32282649585E+03  0.00000000000E+00 0. -1.
         35    2    1    2    0    0  0.00000000000E+00  0.00000000000E+00 -0.26381608873E+03  0.38183690297E+03  0.27604436563E+03 0.  0.
         25    1    3    3    0    0 -0.63612900506E+02 -0.20748446965E+02 -0.15010303840E+03  0.20348960980E+03  0.12000000000E+03 0.  0.
         25    1    3    3    0    0  0.63612900506E+02  0.20748446965E+02 -0.11371305033E+03  0.17834729316E+03  0.12000000000E+03 0.  0.
<mgrwt>
<rscale>  0 0.27604437E+03</rscale>
<asrwt>0</asrwt>
<pdfrwt beam="1">  1        1 0.49665616E-01 0.27604437E+03</pdfrwt>
<pdfrwt beam="2">  1       -1 0.90785240E-02 0.27604437E+03</pdfrwt>
<totfact> 0.56174651E+03</totfact>
</mgrwt>
</event>
<event>
 5    1  0.1162308E+001  0.2753267E+03  0.7818608E-02  0.1098269E+00
          2   -1    0    0  501    0  0.00000000000E+00  0.00000000000E+00  0.19467388742E+04  0.19467388742E+04  0.00000000000E+00 0. -1.
         -2   -1    0    0    0  501 -0.00000000000E+00 -0.00000000000E+00 -0.97348442171E+01  0.97348442171E+01  0.00000000000E+00 0. -1.
         35    2    1    2    0    0  0.00000000000E+00  0.00000000000E+00  0.19370040300E+04  0.19564737184E+04  0.27532671263E+03 0.  0.
         25    1    3    3    0    0  0.12527979680E+02 -0.59249124301E+02  0.75725023630E+03  0.76908733534E+03  0.12000000000E+03 0.  0.
         25    1    3    3    0    0 -0.12527979680E+02  0.59249124301E+02  0.11797537937E+04  0.11873863831E+04  0.12000000000E+03 0.  0.
<mgrwt>
<rscale>  0 0.27532671E+03</rscale>
<asrwt>0</asrwt>
<pdfrwt beam="1">  1        2 0.29949798E+00 0.27532671E+03</pdfrwt>
<pdfrwt beam="2">  1       -2 0.14976699E-02 0.27532671E+03</pdfrwt>
<totfact> 0.93708646E+03</totfact>
</mgrwt>
</event>
<event>
 5    1  0.1162308E+001  0.2743596E+03  0.7818608E-02  0.1098810E+00
          2   -1    0    0  501    0  0.00000000000E+00  0.00000000000E+00  0.71186460328E+03  0.71186460328E+03  0.00000000000E+00 0. -1.
         -2   -1    0    0    0  501 -0.00000000000E+00 -0.00000000000E+00 -0.26435223472E+02  0.26435223472E+02  0.00000000000E+00 0. -1.
         35    2    1    2    0    0  0.00000000000E+00  0.00000000000E+00  0.68542937981E+03  0.73829982676E+03  0.27435961707E+03 0.  0.
         25    1    3    3    0    0  0.21501658498E+02  0.14170195105E+02  0.50761755315E+03  0.52224390472E+03  0.12000000000E+03 0.  0.
         25    1    3    3    0    0 -0.21501658498E+02 -0.14170195105E+02  0.17781182666E+03  0.21605592204E+03  0.12000000000E+03 0.  0.
<mgrwt>
<rscale>  0 0.27435962E+03</rscale>
<asrwt>0</asrwt>
<pdfrwt beam="1">  1        2 0.10951762E+00 0.27435962E+03</pdfrwt>
<pdfrwt beam="2">  1       -2 0.40669580E-02 0.27435962E+03</pdfrwt>
<totfact> 0.10967060E+04</totfact>
</mgrwt>
</event>
<event>
 5    1  0.1162308E+001  0.2753272E+03  0.7818608E-02  0.1098269E+00
         -3   -1    0    0    0  501 -0.00000000000E+00  0.00000000000E+00  0.11655803729E+04  0.11655803729E+04  0.00000000000E+00 0.  1.
          3   -1    0    0  501    0  0.00000000000E+00 -0.00000000000E+00 -0.16259080251E+02  0.16259080251E+02  0.00000000000E+00 0.  1.
         35    2    1    2    0    0  0.00000000000E+00  0.00000000000E+00  0.11493212927E+04  0.11818394532E+04  0.27532718589E+03 0.  0.
         25    1    3    3    0    0 -0.48128687898E+02 -0.21448549185E+02  0.39382222790E+03  0.41505705397E+03  0.12000000000E+03 0.  0.
         25    1    3    3    0    0  0.48128687898E+02  0.21448549185E+02  0.75549906475E+03  0.76678239919E+03  0.12000000000E+03 0.  0.
<mgrwt>
<rscale>  0 0.27532719E+03</rscale>
<asrwt>0</asrwt>
<pdfrwt beam="1">  1        3 0.25013979E-02 0.27532719E+03</pdfrwt>
<pdfrwt beam="2">  1       -3 0.17931999E+00 0.27532719E+03</pdfrwt>
<totfact> 0.36792892E+02</totfact>
</mgrwt>
</event>
<event>
 5    1  0.1162308E+001  0.2744916E+03  0.7818608E-02  0.1098736E+00
          1   -1    0    0  501    0  0.00000000000E+00  0.00000000000E+00  0.17932873244E+03  0.17932873244E+03  0.00000000000E+00 0. -1.
         -1   -1    0    0    0  501 -0.00000000000E+00 -0.00000000000E+00 -0.10503843956E+03  0.10503843956E+03  0.00000000000E+00 0. -1.
         35    2    1    2    0    0  0.00000000000E+00  0.00000000000E+00  0.74290292881E+02  0.28436717200E+03  0.27449160441E+03 0.  0.
         25    1    3    3    0    0  0.48962607670E+02  0.38114613631E+02  0.62230987909E+02  0.14873720644E+03  0.12000000000E+03 0.  0.
         25    1    3    3    0    0 -0.48962607670E+02 -0.38114613631E+02  0.12059304972E+02  0.13562996556E+03  0.12000000000E+03 0.  0.
<mgrwt>
<rscale>  0 0.27449160E+03</rscale>
<asrwt>0</asrwt>
<pdfrwt beam="1">  1        1 0.27589036E-01 0.27449160E+03</pdfrwt>
<pdfrwt beam="2">  1       -1 0.16159760E-01 0.27449160E+03</pdfrwt>
<totfact> 0.47747081E+03</totfact>
</mgrwt>
</event>
<event>
 5    1  0.1162308E+001  0.2745475E+03  0.7818608E-02  0.1098705E+00
          2   -1    0    0  501    0  0.00000000000E+00  0.00000000000E+00  0.59906933843E+02  0.59906933843E+02  0.00000000000E+00 0.  1.
         -2   -1    0    0    0  501 -0.00000000000E+00 -0.00000000000E+00 -0.31455606261E+03  0.31455606261E+03  0.00000000000E+00 0.  1.
         35    2    1    2    0    0  0.00000000000E+00  0.00000000000E+00 -0.25464912877E+03  0.37446299645E+03  0.27454754949E+03 0.  0.
         25    1    3    3    0    0 -0.12045078213E+02  0.62835671927E+02 -0.10178290553E+03  0.16986219542E+03  0.12000000000E+03 0.  0.
         25    1    3    3    0    0  0.12045078213E+02 -0.62835671927E+02 -0.15286622324E+03  0.20460080103E+03  0.12000000000E+03 0.  0.
<mgrwt>
<rscale>  0 0.27454755E+03</rscale>
<asrwt>0</asrwt>
<pdfrwt beam="1">  1        2 0.92164514E-02 0.27454755E+03</pdfrwt>
<pdfrwt beam="2">  1       -2 0.48393240E-01 0.27454755E+03</pdfrwt>
<totfact> 0.29011119E+03</totfact>
</mgrwt>
</event>
<event>
 5    1  0.1162308E+001  0.2744596E+03  0.7818608E-02  0.1098754E+00
         -2   -1    0    0    0  501 -0.00000000000E+00  0.00000000000E+00  0.78354760121E+02  0.78354760121E+02  0.00000000000E+00 0.  1.
          2   -1    0    0  501    0  0.00000000000E+00 -0.00000000000E+00 -0.24034295280E+03  0.24034295280E+03  0.00000000000E+00 0.  1.
         35    2    1    2    0    0  0.00000000000E+00  0.00000000000E+00 -0.16198819268E+03  0.31869771292E+03  0.27445957380E+03 0.  0.
         25    1    3    3    0    0 -0.41358627653E+02 -0.86792879954E+01 -0.21262014484E+02  0.12898813659E+03  0.12000000000E+03 0.  0.
         25    1    3    3    0    0  0.41358627653E+02  0.86792879954E+01 -0.14072617819E+03  0.18970957633E+03  0.12000000000E+03 0.  0.
<mgrwt>
<rscale>  0 0.27445957E+03</rscale>
<asrwt>0</asrwt>
<pdfrwt beam="1">  1        2 0.36975838E-01 0.27445957E+03</pdfrwt>
<pdfrwt beam="2">  1       -2 0.12054579E-01 0.27445957E+03</pdfrwt>
<totfact> 0.67808111E+03</totfact>
</mgrwt>
</event>
<event>
 5    1  0.1162308E+001  0.2749526E+03  0.7818608E-02  0.1098478E+00
          2   -1    0    0  501    0  0.00000000000E+00  0.00000000000E+00  0.54581870649E+03  0.54581870649E+03  0.00000000000E+00 0. -1.
         -2   -1    0    0    0  501 -0.00000000000E+00 -0.00000000000E+00 -0.34626383045E+02  0.34626383045E+02  0.00000000000E+00 0. -1.
         35    2    1    2    0    0  0.00000000000E+00  0.00000000000E+00  0.51119232345E+03  0.58044508954E+03  0.27495256030E+03 0.  0.
         25    1    3    3    0    0  0.32915974979E+02  0.39452535588E+02  0.16455616180E+03  0.21004450567E+03  0.12000000000E+03 0.  0.
         25    1    3    3    0    0 -0.32915974979E+02 -0.39452535588E+02  0.34663616164E+03  0.37040058387E+03  0.12000000000E+03 0.  0.
<mgrwt>
<rscale>  0 0.27495256E+03</rscale>
<asrwt>0</asrwt>
<pdfrwt beam="1">  1        2 0.83972103E-01 0.27495256E+03</pdfrwt>
<pdfrwt beam="2">  1       -2 0.53271362E-02 0.27495256E+03</pdfrwt>
<totfact> 0.99561156E+03</totfact>
</mgrwt>
</event>
<event>
 5    1  0.1162308E+001  0.2763751E+03  0.7818608E-02  0.1097685E+00
         -2   -1    0    0    0  501 -0.00000000000E+00  0.00000000000E+00  0.93431809626E+01  0.93431809626E+01  0.00000000000E+00 0.  1.
          2   -1    0    0  501    0  0.00000000000E+00 -0.00000000000E+00 -0.20438224832E+04  0.20438224832E+04  0.00000000000E+00 0.  1.
         35    2    1    2    0    0  0.00000000000E+00  0.00000000000E+00 -0.20344793022E+04  0.20531656641E+04  0.27637513141E+03 0.  0.
         25    1    3    3    0    0 -0.21117461198E+02 -0.43744129388E+02 -0.13763186560E+04  0.13823937713E+04  0.12000000000E+03 0.  0.
         25    1    3    3    0    0  0.21117461198E+02  0.43744129388E+02 -0.65816064620E+03  0.67077189285E+03  0.12000000000E+03 0.  0.
<mgrwt>
<rscale>  0 0.27637513E+03</rscale>
<asrwt>0</asrwt>
<pdfrwt beam="1">  1        2 0.31443427E+00 0.27637513E+03</pdfrwt>
<pdfrwt beam="2">  1       -2 0.14374123E-02 0.27637513E+03</pdfrwt>
<totfact> 0.88469489E+03</totfact>
</mgrwt>
</event>
<event>
 5    1  0.1162308E+001  0.2648253E+03  0.7818608E-02  0.1104278E+00
         -1   -1    0    0    0  501 -0.00000000000E+00  0.00000000000E+00  0.75355559524E+01  0.75355559524E+01  0.00000000000E+00 0.  1.
          1   -1    0    0  501    0  0.00000000000E+00 -0.00000000000E+00 -0.23267182573E+04  0.23267182573E+04  0.00000000000E+00 0.  1.
         35    2    1    2    0    0  0.00000000000E+00  0.00000000000E+00 -0.23191827013E+04  0.23342538132E+04  0.26482534330E+03 0.  0.
         25    1    3    3    0    0  0.32815105596E+02 -0.41148306611E+02 -0.99163267272E+03  0.10002526540E+04  0.12000000000E+03 0.  0.
         25    1    3    3    0    0 -0.32815105596E+02  0.41148306611E+02 -0.13275500286E+04  0.13340011592E+04  0.12000000000E+03 0.  0.
<mgrwt>
<rscale>  0 0.26482534E+03</rscale>
<asrwt>0</asrwt>
<pdfrwt beam="1">  1        1 0.35795752E+00 0.26482534E+03</pdfrwt>
<pdfrwt beam="2">  1       -1 0.11593135E-02 0.26482534E+03</pdfrwt>
<totfact> 0.31349817E+03</totfact>
</mgrwt>
</event>
<event>
 5    1  0.1162308E+001  0.2752348E+03  0.7818608E-02  0.1098320E+00
         -3   -1    0    0    0  501 -0.00000000000E+00  0.00000000000E+00  0.23097545144E+03  0.23097545144E+03  0.00000000000E+00 0.  1.
          3   -1    0    0  501    0  0.00000000000E+00 -0.00000000000E+00 -0.81993799154E+02  0.81993799154E+02  0.00000000000E+00 0.  1.
         35    2    1    2    0    0  0.00000000000E+00  0.00000000000E+00  0.14898165229E+03  0.31296925060E+03  0.27523484354E+03 0.  0.
         25    1    3    3    0    0 -0.23058131469E+02 -0.43669296778E+02  0.12659763154E+03  0.18128884472E+03  0.12000000000E+03 0.  0.
         25    1    3    3    0    0  0.23058131469E+02  0.43669296778E+02  0.22384020753E+02  0.13168040588E+03  0.12000000000E+03 0.  0.
<mgrwt>
<rscale>  0 0.27523484E+03</rscale>
<asrwt>0</asrwt>
<pdfrwt beam="1">  1        3 0.12614431E-01 0.27523484E+03</pdfrwt>
<pdfrwt beam="2">  1       -3 0.35534684E-01 0.27523484E+03</pdfrwt>
<totfact> 0.99035119E+02</totfact>
</mgrwt>
</event>
<event>
 5    1  0.1162308E+001  0.2753128E+03  0.7818608E-02  0.1098277E+00
         -1   -1    0    0    0  501 -0.00000000000E+00  0.00000000000E+00  0.26876372237E+02  0.26876372237E+02  0.00000000000E+00 0.  1.
          1   -1    0    0  501    0  0.00000000000E+00 -0.00000000000E+00 -0.70505342432E+03  0.70505342432E+03  0.00000000000E+00 0.  1.
         35    2    1    2    0    0  0.00000000000E+00  0.00000000000E+00 -0.67817705208E+03  0.73192979656E+03  0.27531275509E+03 0.  0.
         25    1    3    3    0    0 -0.31387584540E+02 -0.11607391873E+02 -0.18340235742E+03  0.22171228364E+03  0.12000000000E+03 0.  0.
         25    1    3    3    0    0  0.31387584540E+02  0.11607391873E+02 -0.49477469466E+03  0.51021751292E+03  0.12000000000E+03 0.  0.
<mgrwt>
<rscale>  0 0.27531276E+03</rscale>
<asrwt>0</asrwt>
<pdfrwt beam="1">  1        1 0.10846977E+00 0.27531276E+03</pdfrwt>
<pdfrwt beam="2">  1       -1 0.41348261E-02 0.27531276E+03</pdfrwt>
<totfact> 0.65106341E+03</totfact>
</mgrwt>
</event>
<event>
 5    1  0.1162308E+001  0.2747758E+03  0.7818608E-02  0.1098577E+00
          1   -1    0    0  501    0  0.00000000000E+00  0.00000000000E+00  0.12228804768E+04  0.12228804768E+04  0.00000000000E+00 0.  1.
         -1   -1    0    0    0  501 -0.00000000000E+00 -0.00000000000E+00 -0.15435223616E+02  0.15435223616E+02  0.00000000000E+00 0.  1.
         35    2    1    2    0    0  0.00000000000E+00  0.00000000000E+00  0.12074452532E+04  0.12383157004E+04  0.27477578944E+03 0.  0.
         25    1    3    3    0    0  0.48382616417E+02 -0.40748064095E+02  0.70185479504E+03  0.71484364418E+03  0.12000000000E+03 0.  0.
         25    1    3    3    0    0 -0.48382616417E+02  0.40748064095E+02  0.50559045817E+03  0.52347205626E+03  0.12000000000E+03 0.  0.
<mgrwt>
<rscale>  0 0.27477579E+03</rscale>
<asrwt>0</asrwt>
<pdfrwt beam="1">  1        1 0.18813538E+00 0.27477579E+03</pdfrwt>
<pdfrwt beam="2">  1       -1 0.23746508E-02 0.27477579E+03</pdfrwt>
<totfact> 0.58781678E+03</totfact>
</mgrwt>
</event>
<event>
 5    1  0.1162308E+001  0.2749715E+03  0.7818608E-02  0.1098468E+00
          2   -1    0    0  501    0  0.00000000000E+00  0.00000000000E+00  0.10377091645E+04  0.10377091645E+04  0.00000000000E+00 0.  1.
         -2   -1    0    0    0  501 -0.00000000000E+00 -0.00000000000E+00 -0.18215441642E+02  0.18215441642E+02  0.00000000000E+00 0.  1.
         35    2    1    2    0    0  0.00000000000E+00  0.00000000000E+00  0.10194937228E+04  0.10559246061E+04  0.27497149471E+03 0.  0.
         25    1    3    3    0    0 -0.54162614498E+02  0.47251992763E+01  0.66075772100E+03  0.67376307570E+03  0.12000000000E+03 0.  0.
         25    1    3    3    0    0  0.54162614498E+02 -0.47251992763E+01  0.35873600181E+03  0.38216153040E+03  0.12000000000E+03 0.  0.
<mgrwt>
<rscale>  0 0.27497149E+03</rscale>
<asrwt>0</asrwt>
<pdfrwt beam="1">  1        2 0.15964752E+00 0.27497149E+03</pdfrwt>
<pdfrwt beam="2">  1       -2 0.28023764E-02 0.27497149E+03</pdfrwt>
<totfact> 0.11647852E+04</totfact>
</mgrwt>
</event>
<event>
 5    1  0.1162308E+001  0.2742310E+03  0.7818608E-02  0.1098882E+00
          2   -1    0    0  501    0  0.00000000000E+00  0.00000000000E+00  0.18954981219E+04  0.18954981219E+04  0.00000000000E+00 0.  1.
         -2   -1    0    0    0  501 -0.00000000000E+00 -0.00000000000E+00 -0.99185850850E+01  0.99185850850E+01  0.00000000000E+00 0.  1.
         35    2    1    2    0    0  0.00000000000E+00  0.00000000000E+00  0.18855795368E+04  0.19054167069E+04  0.27423099314E+03 0.  0.
         25    1    3    3    0    0 -0.17666311827E+01 -0.23411874312E+02  0.13738830213E+04  0.13793135224E+04  0.12000000000E+03 0.  0.
         25    1    3    3    0    0  0.17666311827E+01  0.23411874312E+02  0.51169651547E+03  0.52610318454E+03  0.12000000000E+03 0.  0.
<mgrwt>
<rscale>  0 0.27423099E+03</rscale>
<asrwt>0</asrwt>
<pdfrwt beam="1">  1        2 0.29161481E+00 0.27423099E+03</pdfrwt>
<pdfrwt beam="2">  1       -2 0.15259377E-02 0.27423099E+03</pdfrwt>
<totfact> 0.97003103E+03</totfact>
</mgrwt>
</event>
<event>
 5    1  0.1162308E+001  0.2751081E+03  0.7818608E-02  0.1098391E+00
         -4   -1    0    0    0  501 -0.00000000000E+00  0.00000000000E+00  0.29610362485E+02  0.29610362485E+02  0.00000000000E+00 0. -1.
          4   -1    0    0  501    0  0.00000000000E+00 -0.00000000000E+00 -0.63900308347E+03  0.63900308347E+03  0.00000000000E+00 0. -1.
         35    2    1    2    0    0  0.00000000000E+00  0.00000000000E+00 -0.60939272099E+03  0.66861344596E+03  0.27510807280E+03 0.  0.
         25    1    3    3    0    0 -0.11380610465E+02  0.59741625644E+02 -0.37439886521E+03  0.39783550671E+03  0.12000000000E+03 0.  0.
         25    1    3    3    0    0  0.11380610465E+02 -0.59741625644E+02 -0.23499385578E+03  0.27077793925E+03  0.12000000000E+03 0.  0.
<mgrwt>
<rscale>  0 0.27510807E+03</rscale>
<asrwt>0</asrwt>
<pdfrwt beam="1">  1        4 0.98308163E-01 0.27510807E+03</pdfrwt>
<pdfrwt beam="2">  1       -4 0.45554406E-02 0.27510807E+03</pdfrwt>
<totfact> 0.46186870E+02</totfact>
</mgrwt>
</event>
<event>
 5    1  0.1162308E+001  0.2772437E+03  0.7818608E-02  0.1097204E+00
          1   -1    0    0  501    0  0.00000000000E+00  0.00000000000E+00  0.15375427723E+04  0.15375427723E+04  0.00000000000E+00 0.  1.
         -1   -1    0    0    0  501 -0.00000000000E+00 -0.00000000000E+00 -0.12497877455E+02  0.12497877455E+02  0.00000000000E+00 0.  1.
         35    2    1    2    0    0  0.00000000000E+00  0.00000000000E+00  0.15250448948E+04  0.15500406498E+04  0.27724372779E+03 0.  0.
         25    1    3    3    0    0  0.77210469208E+01  0.38040560841E+01  0.11475210829E+04  0.11538105222E+04  0.12000000000E+03 0.  0.
         25    1    3    3    0    0 -0.77210469208E+01 -0.38040560841E+01  0.37752381198E+03  0.39623012760E+03  0.12000000000E+03 0.  0.
<mgrwt>
<rscale>  0 0.27724373E+03</rscale>
<asrwt>0</asrwt>
<pdfrwt beam="1">  1        1 0.23654489E+00 0.27724373E+03</pdfrwt>
<pdfrwt beam="2">  1       -1 0.19227516E-02 0.27724373E+03</pdfrwt>
<totfact> 0.49095726E+03</totfact>
</mgrwt>
</event>
<event>
 5    1  0.1162308E+001  0.2753282E+03  0.7818608E-02  0.1098268E+00
          1   -1    0    0  501    0  0.00000000000E+00  0.00000000000E+00  0.73900512107E+03  0.73900512107E+03  0.00000000000E+00 0. -1.
         -1   -1    0    0    0  501 -0.00000000000E+00 -0.00000000000E+00 -0.25644476527E+02  0.25644476527E+02  0.00000000000E+00 0. -1.
         35    2    1    2    0    0  0.00000000000E+00  0.00000000000E+00  0.71336064454E+03  0.76464959760E+03  0.27532816406E+03 0.  0.
         25    1    3    3    0    0  0.11749545268E+02 -0.12076961060E+02  0.17525482605E+03  0.21306843703E+03  0.12000000000E+03 0.  0.
         25    1    3    3    0    0 -0.11749545268E+02  0.12076961060E+02  0.53810581849E+03  0.55158116057E+03  0.12000000000E+03 0.  0.
<mgrwt>
<rscale>  0 0.27532816E+03</rscale>
<asrwt>0</asrwt>
<pdfrwt beam="1">  1        1 0.11369308E+00 0.27532816E+03</pdfrwt>
<pdfrwt beam="2">  1       -1 0.39453047E-02 0.27532816E+03</pdfrwt>
<totfact> 0.65130844E+03</totfact>
</mgrwt>
</event>
<event>
 5    1  0.1162308E+001  0.2745077E+03  0.7818608E-02  0.1098727E+00
         -2   -1    0    0    0  501 -0.00000000000E+00  0.00000000000E+00  0.31100721211E+02  0.31100721211E+02  0.00000000000E+00 0. -1.
          2   -1    0    0  501    0  0.00000000000E+00 -0.00000000000E+00 -0.60572923374E+03  0.60572923374E+03  0.00000000000E+00 0. -1.
         35    2    1    2    0    0  0.00000000000E+00  0.00000000000E+00 -0.57462851253E+03  0.63682995495E+03  0.27450767587E+03 0.  0.
         25    1    3    3    0    0 -0.42144617279E+02 -0.33950978957E+02 -0.19717259064E+03  0.23707776834E+03  0.12000000000E+03 0.  0.
         25    1    3    3    0    0  0.42144617279E+02  0.33950978957E+02 -0.37745592189E+03  0.39975218662E+03  0.12000000000E+03 0.  0.
<mgrwt>
<rscale>  0 0.27450768E+03</rscale>
<asrwt>0</asrwt>
<pdfrwt beam="1">  1        2 0.93189108E-01 0.27450768E+03</pdfrwt>
<pdfrwt beam="2">  1       -2 0.47847266E-02 0.27450768E+03</pdfrwt>
<totfact> 0.10398106E+04</totfact>
</mgrwt>
</event>
<event>
 5    1  0.1162308E+001  0.2758076E+03  0.7818608E-02  0.1098001E+00
          1   -1    0    0  501    0  0.00000000000E+00  0.00000000000E+00  0.44670278997E+03  0.44670278997E+03  0.00000000000E+00 0. -1.
         -1   -1    0    0    0  501 -0.00000000000E+00 -0.00000000000E+00 -0.42572954771E+02  0.42572954771E+02  0.00000000000E+00 0. -1.
         35    2    1    2    0    0  0.00000000000E+00  0.00000000000E+00  0.40412983520E+03  0.48927574474E+03  0.27580759724E+03 0.  0.
         25    1    3    3    0    0  0.23835621493E+02 -0.88464916298E+01  0.90275496129E+02  0.15230253598E+03  0.12000000000E+03 0.  0.
         25    1    3    3    0    0 -0.23835621493E+02  0.88464916298E+01  0.31385433907E+03  0.33697320876E+03  0.12000000000E+03 0.  0.
<mgrwt>
<rscale>  0 0.27580760E+03</rscale>
<asrwt>0</asrwt>
<pdfrwt beam="1">  1        1 0.68723503E-01 0.27580760E+03</pdfrwt>
<pdfrwt beam="2">  1       -1 0.65496856E-02 0.27580760E+03</pdfrwt>
<totfact> 0.61021960E+03</totfact>
</mgrwt>
</event>
<event>
 5    1  0.1162308E+001  0.2729493E+03  0.7818608E-02  0.1099603E+00
         -2   -1    0    0    0  501 -0.00000000000E+00  0.00000000000E+00  0.34849754692E+02  0.34849754692E+02  0.00000000000E+00 0. -1.
          2   -1    0    0  501    0  0.00000000000E+00 -0.00000000000E+00 -0.53444649616E+03  0.53444649616E+03  0.00000000000E+00 0. -1.
         35    2    1    2    0    0  0.00000000000E+00  0.00000000000E+00 -0.49959674147E+03  0.56929625085E+03  0.27294929410E+03 0.  0.
         25    1    3    3    0    0 -0.68059292506E+00  0.33776493567E+02 -0.36562663767E+03  0.38629542179E+03  0.12000000000E+03 0.  0.
         25    1    3    3    0    0  0.68059292506E+00 -0.33776493567E+02 -0.13397010380E+03  0.18300082906E+03  0.12000000000E+03 0.  0.
<mgrwt>
<rscale>  0 0.27294929E+03</rscale>
<asrwt>0</asrwt>
<pdfrwt beam="1">  1        2 0.82222527E-01 0.27294929E+03</pdfrwt>
<pdfrwt beam="2">  1       -2 0.53615015E-02 0.27294929E+03</pdfrwt>
<totfact> 0.10094466E+04</totfact>
</mgrwt>
</event>
<event>
 5    1  0.1162308E+001  0.2736719E+03  0.7818608E-02  0.1099196E+00
         -2   -1    0    0    0  501 -0.00000000000E+00  0.00000000000E+00  0.11801243728E+02  0.11801243728E+02  0.00000000000E+00 0. -1.
          2   -1    0    0  501    0  0.00000000000E+00 -0.00000000000E+00 -0.15866191355E+04  0.15866191355E+04  0.00000000000E+00 0. -1.
         35    2    1    2    0    0  0.00000000000E+00  0.00000000000E+00 -0.15748178918E+04  0.15984203793E+04  0.27367191396E+03 0.  0.
         25    1    3    3    0    0 -0.33791485383E+01 -0.90995108403E+01 -0.40754878895E+03  0.42495909817E+03  0.12000000000E+03 0.  0.
         25    1    3    3    0    0  0.33791485383E+01  0.90995108403E+01 -0.11672691029E+04  0.11734612811E+04  0.12000000000E+03 0.  0.
<mgrwt>
<rscale>  0 0.27367191E+03</rscale>
<asrwt>0</asrwt>
<pdfrwt beam="1">  1        2 0.24409536E+00 0.27367191E+03</pdfrwt>
<pdfrwt beam="2">  1       -2 0.18155752E-02 0.27367191E+03</pdfrwt>
<totfact> 0.10933065E+04</totfact>
</mgrwt>
</event>
<event>
 5    1  0.1162308E+001  0.2785957E+03  0.7818608E-02  0.1096458E+00
          1   -1    0    0  501    0  0.00000000000E+00  0.00000000000E+00  0.13425645248E+04  0.13425645248E+04  0.00000000000E+00 0.  1.
         -1   -1    0    0    0  501 -0.00000000000E+00 -0.00000000000E+00 -0.14452859320E+02  0.14452859320E+02  0.00000000000E+00 0.  1.
         35    2    1    2    0    0  0.00000000000E+00  0.00000000000E+00  0.13281116655E+04  0.13570173842E+04  0.27859573727E+03 0.  0.
         25    1    3    3    0    0 -0.66148494081E+02  0.11706295570E+02  0.55609757878E+03  0.57285004822E+03  0.12000000000E+03 0.  0.
         25    1    3    3    0    0  0.66148494081E+02 -0.11706295570E+02  0.77201408674E+03  0.78416733593E+03  0.12000000000E+03 0.  0.
<mgrwt>
<rscale>  0 0.27859574E+03</rscale>
<asrwt>0</asrwt>
<pdfrwt beam="1">  1        1 0.20654829E+00 0.27859574E+03</pdfrwt>
<pdfrwt beam="2">  1       -1 0.22235179E-02 0.27859574E+03</pdfrwt>
<totfact> 0.53584076E+03</totfact>
</mgrwt>
</event>
<event>
 5    1  0.1162308E+001  0.2752037E+03  0.7818608E-02  0.1098338E+00
          2   -1    0    0  501    0  0.00000000000E+00  0.00000000000E+00  0.18982122586E+02  0.18982122586E+02  0.00000000000E+00 0.  1.
         -2   -1    0    0    0  501 -0.00000000000E+00 -0.00000000000E+00 -0.99747925800E+03  0.99747925800E+03  0.00000000000E+00 0.  1.
         35    2    1    2    0    0  0.00000000000E+00  0.00000000000E+00 -0.97849713541E+03  0.10164613806E+04  0.27520373219E+03 0.  0.
         25    1    3    3    0    0 -0.94155887759E+01 -0.54786760158E+02 -0.34889455147E+03  0.37311881545E+03  0.12000000000E+03 0.  0.
         25    1    3    3    0    0  0.94155887759E+01  0.54786760158E+02 -0.62960258395E+03  0.64334256513E+03  0.12000000000E+03 0.  0.
<mgrwt>
<rscale>  0 0.27520373E+03</rscale>
<asrwt>0</asrwt>
<pdfrwt beam="1">  1        2 0.29203265E-02 0.27520373E+03</pdfrwt>
<pdfrwt beam="2">  1       -2 0.15345835E+00 0.27520373E+03</pdfrwt>
<totfact> 0.97169900E+02</totfact>
</mgrwt>
</event>
<event>
 4    1  0.1162308E+001  0.2467309E+03  0.7818608E-02  0.1115388E+00
          2   -1    0    0  501    0  0.00000000000E+00  0.00000000000E+00  0.66816414328E+03  0.66816414328E+03  0.00000000000E+00 0.  1.
         -2   -1    0    0    0  501 -0.00000000000E+00 -0.00000000000E+00 -0.22777392872E+02  0.22777392872E+02  0.00000000000E+00 0.  1.
         25    1    1    2    0    0 -0.24714223621E+02  0.10034497558E+02  0.29365118320E+03  0.31834337025E+03  0.12000000000E+03 0.  0.
         25    1    1    2    0    0  0.24714223621E+02 -0.10034497558E+02  0.35173556721E+03  0.37259816590E+03  0.12000000000E+03 0.  0.
<mgrwt>
<rscale>  0 0.24673092E+03</rscale>
<asrwt>0</asrwt>
<pdfrwt beam="1">  1        2 0.10279447E+00 0.24673092E+03</pdfrwt>
<pdfrwt beam="2">  1       -2 0.35042148E-02 0.24673092E+03</pdfrwt>
<totfact> 0.14733719E+04</totfact>
</mgrwt>
</event>
<event>
 5    1  0.1162308E+001  0.2739717E+03  0.7818608E-02  0.1099028E+00
          4   -1    0    0  501    0  0.00000000000E+00  0.00000000000E+00  0.32560704554E+03  0.32560704554E+03  0.00000000000E+00 0.  1.
         -4   -1    0    0    0  501 -0.00000000000E+00 -0.00000000000E+00 -0.57631196370E+02  0.57631196370E+02  0.00000000000E+00 0.  1.
         35    2    1    2    0    0  0.00000000000E+00  0.00000000000E+00  0.26797584917E+03  0.38323824191E+03  0.27397170351E+03 0.  0.
         25    1    3    3    0    0 -0.52304973645E+02  0.35563131369E+01  0.19023154579E+03  0.23094696068E+03  0.12000000000E+03 0.  0.
         25    1    3    3    0    0  0.52304973645E+02 -0.35563131369E+01  0.77744303371E+02  0.15229128123E+03  0.12000000000E+03 0.  0.
<mgrwt>
<rscale>  0 0.27397170E+03</rscale>
<asrwt>0</asrwt>
<pdfrwt beam="1">  1        4 0.50093391E-01 0.27397170E+03</pdfrwt>
<pdfrwt beam="2">  1       -4 0.88663380E-02 0.27397170E+03</pdfrwt>
<totfact> 0.67301295E+02</totfact>
</mgrwt>
</event>
<event>
 5    1  0.1162308E+001  0.2760675E+03  0.7818608E-02  0.1097856E+00
          2   -1    0    0  501    0  0.00000000000E+00  0.00000000000E+00  0.93009660213E+03  0.93009660213E+03  0.00000000000E+00 0.  1.
         -2   -1    0    0    0  501 -0.00000000000E+00 -0.00000000000E+00 -0.20485314146E+02  0.20485314146E+02  0.00000000000E+00 0.  1.
         35    2    1    2    0    0  0.00000000000E+00  0.00000000000E+00  0.90961128798E+03  0.95058191627E+03  0.27606753580E+03 0.  0.
         25    1    3    3    0    0 -0.49618479189E+02 -0.13688147241E+00  0.61599115760E+03  0.62952928324E+03  0.12000000000E+03 0.  0.
         25    1    3    3    0    0  0.49618479189E+02  0.13688147241E+00  0.29362013038E+03  0.32105263303E+03  0.12000000000E+03 0.  0.
<mgrwt>
<rscale>  0 0.27606754E+03</rscale>
<asrwt>0</asrwt>
<pdfrwt beam="1">  1        2 0.14309175E+00 0.27606754E+03</pdfrwt>
<pdfrwt beam="2">  1       -2 0.31515875E-02 0.27606754E+03</pdfrwt>
<totfact> 0.11399730E+04</totfact>
</mgrwt>
</event>
<event>
 5    1  0.1162308E+001  0.2759929E+03  0.7818608E-02  0.1097898E+00
          2   -1    0    0  501    0  0.00000000000E+00  0.00000000000E+00  0.12602809082E+04  0.12602809082E+04  0.00000000000E+00 0.  1.
         -2   -1    0    0    0  501 -0.00000000000E+00 -0.00000000000E+00 -0.15110140445E+02  0.15110140445E+02  0.00000000000E+00 0.  1.
         35    2    1    2    0    0  0.00000000000E+00  0.00000000000E+00  0.12451707677E+04  0.12753910486E+04  0.27599290949E+03 0.  0.
         25    1    3    3    0    0  0.57233292881E+02 -0.36414590925E+02  0.65230063442E+03  0.66670667456E+03  0.12000000000E+03 0.  0.
         25    1    3    3    0    0 -0.57233292881E+02  0.36414590925E+02  0.59287013330E+03  0.60868437405E+03  0.12000000000E+03 0.  0.
<mgrwt>
<rscale>  0 0.27599291E+03</rscale>
<asrwt>0</asrwt>
<pdfrwt beam="1">  1        2 0.19388929E+00 0.27599291E+03</pdfrwt>
<pdfrwt beam="2">  1       -2 0.23246380E-02 0.27599291E+03</pdfrwt>
<totfact> 0.11421973E+04</totfact>
</mgrwt>
</event>
<event>
 5    1  0.1162308E+001  0.2757170E+03  0.7818608E-02  0.1098052E+00
         -1   -1    0    0    0  501 -0.00000000000E+00  0.00000000000E+00  0.44523914520E+03  0.44523914520E+03  0.00000000000E+00 0.  1.
          1   -1    0    0  501    0  0.00000000000E+00 -0.00000000000E+00 -0.42684838103E+02  0.42684838103E+02  0.00000000000E+00 0.  1.
         35    2    1    2    0    0  0.00000000000E+00  0.00000000000E+00  0.40255430709E+03  0.48792398330E+03  0.27571696234E+03 0.  0.
         25    1    3    3    0    0  0.49612502545E+02  0.42919824071E+02  0.23200242249E+03  0.26931141036E+03  0.12000000000E+03 0.  0.
         25    1    3    3    0    0 -0.49612502545E+02 -0.42919824071E+02  0.17055188460E+03  0.21861257294E+03  0.12000000000E+03 0.  0.
<mgrwt>
<rscale>  0 0.27571696E+03</rscale>
<asrwt>0</asrwt>
<pdfrwt beam="1">  1        1 0.65668985E-02 0.27571696E+03</pdfrwt>
<pdfrwt beam="2">  1       -1 0.68498327E-01 0.27571696E+03</pdfrwt>
<totfact> 0.25480020E+03</totfact>
</mgrwt>
</event>
<event>
 5    1  0.1162308E+001  0.2760814E+03  0.7818608E-02  0.1097849E+00
         -2   -1    0    0    0  501 -0.00000000000E+00  0.00000000000E+00  0.48312415086E+02  0.48312415086E+02  0.00000000000E+00 0. -1.
          2   -1    0    0  501    0  0.00000000000E+00 -0.00000000000E+00 -0.39441696509E+03  0.39441696509E+03  0.00000000000E+00 0. -1.
         35    2    1    2    0    0  0.00000000000E+00  0.00000000000E+00 -0.34610455000E+03  0.44272938017E+03  0.27608140926E+03 0.  0.
         25    1    3    3    0    0 -0.13918549945E+02 -0.60582132420E+02 -0.12794194847E+03  0.18609960499E+03  0.12000000000E+03 0.  0.
         25    1    3    3    0    0  0.13918549945E+02  0.60582132420E+02 -0.21816260153E+03  0.25662977518E+03  0.12000000000E+03 0.  0.
<mgrwt>
<rscale>  0 0.27608141E+03</rscale>
<asrwt>0</asrwt>
<pdfrwt beam="1">  1        2 0.60679537E-01 0.27608141E+03</pdfrwt>
<pdfrwt beam="2">  1       -2 0.74326788E-02 0.27608141E+03</pdfrwt>
<totfact> 0.85475989E+03</totfact>
</mgrwt>
</event>
<event>
 5    1  0.1162308E+001  0.2754431E+03  0.7818608E-02  0.1098204E+00
         -2   -1    0    0    0  501 -0.00000000000E+00  0.00000000000E+00  0.10893781946E+02  0.10893781946E+02  0.00000000000E+00 0. -1.
          2   -1    0    0  501    0  0.00000000000E+00 -0.00000000000E+00 -0.17411059942E+04  0.17411059942E+04  0.00000000000E+00 0. -1.
         35    2    1    2    0    0  0.00000000000E+00  0.00000000000E+00 -0.17302122122E+04  0.17519997761E+04  0.27544312695E+03 0.  0.
         25    1    3    3    0    0  0.30369283688E+02  0.10865032558E+02 -0.12428503557E+04  0.12490465760E+04  0.12000000000E+03 0.  0.
         25    1    3    3    0    0 -0.30369283688E+02 -0.10865032558E+02 -0.48736185649E+03  0.50295320009E+03  0.12000000000E+03 0.  0.
<mgrwt>
<rscale>  0 0.27544313E+03</rscale>
<asrwt>0</asrwt>
<pdfrwt beam="1">  1        2 0.26786243E+00 0.27544313E+03</pdfrwt>
<pdfrwt beam="2">  1       -2 0.16759666E-02 0.27544313E+03</pdfrwt>
<totfact> 0.10191267E+04</totfact>
</mgrwt>
</event>
<event>
 5    1  0.1162308E+001  0.2750194E+03  0.7818608E-02  0.1098441E+00
          2   -1    0    0  501    0  0.00000000000E+00  0.00000000000E+00  0.42124608327E+03  0.42124608327E+03  0.00000000000E+00 0. -1.
         -2   -1    0    0    0  501 -0.00000000000E+00 -0.00000000000E+00 -0.44888046763E+02  0.44888046763E+02  0.00000000000E+00 0. -1.
         35    2    1    2    0    0  0.00000000000E+00  0.00000000000E+00  0.37635803651E+03  0.46613413004E+03  0.27501937303E+03 0.  0.
         25    1    3    3    0    0  0.34043434587E+02 -0.12625703640E+02  0.28391614655E+03  0.31036549760E+03  0.12000000000E+03 0.  0.
         25    1    3    3    0    0 -0.34043434587E+02  0.12625703640E+02  0.92441889963E+02  0.15576863244E+03  0.12000000000E+03 0.  0.
<mgrwt>
<rscale>  0 0.27501937E+03</rscale>
<asrwt>0</asrwt>
<pdfrwt beam="1">  1        2 0.64807087E-01 0.27501937E+03</pdfrwt>
<pdfrwt beam="2">  1       -2 0.69058537E-02 0.27501937E+03</pdfrwt>
<totfact> 0.89160898E+03</totfact>
</mgrwt>
</event>
<event>
 5    1  0.1162308E+001  0.2721829E+03  0.7818608E-02  0.1100037E+00
         -2   -1    0    0    0  501 -0.00000000000E+00  0.00000000000E+00  0.76082890878E+02  0.76082890878E+02  0.00000000000E+00 0. -1.
          2   -1    0    0  501    0  0.00000000000E+00 -0.00000000000E+00 -0.24343035978E+03  0.24343035978E+03  0.00000000000E+00 0. -1.
         35    2    1    2    0    0  0.00000000000E+00  0.00000000000E+00 -0.16734746890E+03  0.31951325066E+03  0.27218292011E+03 0.  0.
         25    1    3    3    0    0 -0.40939555548E+02 -0.29287271297E+02 -0.36907830458E+02  0.13526263127E+03  0.12000000000E+03 0.  0.
         25    1    3    3    0    0  0.40939555548E+02  0.29287271297E+02 -0.13043963844E+03  0.18425061939E+03  0.12000000000E+03 0.  0.
<mgrwt>
<rscale>  0 0.27218292E+03</rscale>
<asrwt>0</asrwt>
<pdfrwt beam="1">  1        2 0.37450825E-01 0.27218292E+03</pdfrwt>
<pdfrwt beam="2">  1       -2 0.11705060E-01 0.27218292E+03</pdfrwt>
<totfact> 0.70106318E+03</totfact>
</mgrwt>
</event>
<event>
 5    1  0.1162308E+001  0.2749256E+03  0.7818608E-02  0.1098493E+00
         -1   -1    0    0    0  501 -0.00000000000E+00  0.00000000000E+00  0.42574888060E+02  0.42574888060E+02  0.00000000000E+00 0.  1.
          1   -1    0    0  501    0  0.00000000000E+00 -0.00000000000E+00 -0.44383027549E+03  0.44383027549E+03  0.00000000000E+00 0.  1.
         35    2    1    2    0    0  0.00000000000E+00  0.00000000000E+00 -0.40125538743E+03  0.48640516355E+03  0.27492562119E+03 0.  0.
         25    1    3    3    0    0  0.65820246684E+02  0.24148577860E+01 -0.22285861009E+03  0.26154176818E+03  0.12000000000E+03 0.  0.
         25    1    3    3    0    0 -0.65820246684E+02 -0.24148577860E+01 -0.17839677734E+03  0.22486339537E+03  0.12000000000E+03 0.  0.
<mgrwt>
<rscale>  0 0.27492562E+03</rscale>
<asrwt>0</asrwt>
<pdfrwt beam="1">  1        1 0.68281581E-01 0.27492562E+03</pdfrwt>
<pdfrwt beam="2">  1       -1 0.65499828E-02 0.27492562E+03</pdfrwt>
<totfact> 0.61526115E+03</totfact>
</mgrwt>
</event>
<event>
 5    1  0.1162308E+001  0.2745898E+03  0.7818608E-02  0.1098681E+00
          2   -1    0    0  501    0  0.00000000000E+00  0.00000000000E+00  0.16398425134E+03  0.16398425134E+03  0.00000000000E+00 0. -1.
         -2   -1    0    0    0  501 -0.00000000000E+00 -0.00000000000E+00 -0.11494940476E+03  0.11494940476E+03  0.00000000000E+00 0. -1.
         35    2    1    2    0    0  0.00000000000E+00  0.00000000000E+00  0.49034846577E+02  0.27893365609E+03  0.27458981832E+03 0.  0.
         25    1    3    3    0    0  0.23967309731E+02 -0.51283252897E+02 -0.11332339294E+02  0.13316465701E+03  0.12000000000E+03 0.  0.
         25    1    3    3    0    0 -0.23967309731E+02  0.51283252897E+02  0.60367185871E+02  0.14576899908E+03  0.12000000000E+03 0.  0.
<mgrwt>
<rscale>  0 0.27458982E+03</rscale>
<asrwt>0</asrwt>
<pdfrwt beam="1">  1        2 0.25228346E-01 0.27458982E+03</pdfrwt>
<pdfrwt beam="2">  1       -2 0.17684524E-01 0.27458982E+03</pdfrwt>
<totfact> 0.54848395E+03</totfact>
</mgrwt>
</event>
<event>
 5    1  0.1162308E+001  0.2798579E+03  0.7818608E-02  0.1095767E+00
         -1   -1    0    0    0  501 -0.00000000000E+00  0.00000000000E+00  0.31816778462E+02  0.31816778462E+02  0.00000000000E+00 0. -1.
          1   -1    0    0  501    0  0.00000000000E+00 -0.00000000000E+00 -0.61540217822E+03  0.61540217822E+03  0.00000000000E+00 0. -1.
         35    2    1    2    0    0  0.00000000000E+00  0.00000000000E+00 -0.58358539976E+03  0.64721895668E+03  0.27985792659E+03 0.  0.
         25    1    3    3    0    0  0.30324949760E+02  0.26047019095E+02 -0.15337859541E+03  0.19880403243E+03  0.12000000000E+03 0.  0.
         25    1    3    3    0    0 -0.30324949760E+02 -0.26047019095E+02 -0.43020680435E+03  0.44841492425E+03  0.12000000000E+03 0.  0.
<mgrwt>
<rscale>  0 0.27985793E+03</rscale>
<asrwt>0</asrwt>
<pdfrwt beam="1">  1        1 0.94677245E-01 0.27985793E+03</pdfrwt>
<pdfrwt beam="2">  1       -1 0.48948897E-02 0.27985793E+03</pdfrwt>
<totfact> 0.61499536E+03</totfact>
</mgrwt>
</event>
<event>
 5    1  0.1162308E+001  0.2744023E+03  0.7818608E-02  0.1098786E+00
          1   -1    0    0  501    0  0.00000000000E+00  0.00000000000E+00  0.56298776822E+03  0.56298776822E+03  0.00000000000E+00 0.  1.
         -1   -1    0    0    0  501 -0.00000000000E+00 -0.00000000000E+00 -0.33436173817E+02  0.33436173817E+02  0.00000000000E+00 0.  1.
         35    2    1    2    0    0  0.00000000000E+00  0.00000000000E+00  0.52955159440E+03  0.59642394203E+03  0.27440230957E+03 0.  0.
         25    1    3    3    0    0  0.50535132519E+02 -0.58458020398E+01  0.17163812301E+03  0.21551709512E+03  0.12000000000E+03 0.  0.
         25    1    3    3    0    0 -0.50535132519E+02  0.58458020398E+01  0.35791347139E+03  0.38090684691E+03  0.12000000000E+03 0.  0.
<mgrwt>
<rscale>  0 0.27440231E+03</rscale>
<asrwt>0</asrwt>
<pdfrwt beam="1">  1        1 0.86613496E-01 0.27440231E+03</pdfrwt>
<pdfrwt beam="2">  1       -1 0.51440272E-02 0.27440231E+03</pdfrwt>
<totfact> 0.64527689E+03</totfact>
</mgrwt>
</event>
<event>
 5    1  0.1162308E+001  0.2746662E+03  0.7818608E-02  0.1098638E+00
          2   -1    0    0  501    0  0.00000000000E+00  0.00000000000E+00  0.25308594705E+04  0.25308594705E+04  0.00000000000E+00 0. -1.
         -2   -1    0    0    0  501 -0.00000000000E+00 -0.00000000000E+00 -0.74521628529E+01  0.74521628529E+01  0.00000000000E+00 0. -1.
         35    2    1    2    0    0  0.00000000000E+00  0.00000000000E+00  0.25234073076E+04  0.25383116333E+04  0.27466617507E+03 0.  0.
         25    1    3    3    0    0 -0.26789952194E+02  0.59662735922E+02  0.13867309552E+04  0.13934489893E+04  0.12000000000E+03 0.  0.
         25    1    3    3    0    0  0.26789952194E+02 -0.59662735922E+02  0.11366763524E+04  0.11448626441E+04  0.12000000000E+03 0.  0.
<mgrwt>
<rscale>  0 0.27466618E+03</rscale>
<asrwt>0</asrwt>
<pdfrwt beam="1">  1        2 0.38936231E+00 0.27466618E+03</pdfrwt>
<pdfrwt beam="2">  1       -2 0.11464886E-02 0.27466618E+03</pdfrwt>
<totfact> 0.67397196E+03</totfact>
</mgrwt>
</event>
<event>
 5    1  0.1162308E+001  0.2768214E+03  0.7818608E-02  0.1097438E+00
         -1   -1    0    0    0  501 -0.00000000000E+00  0.00000000000E+00  0.27569241340E+03  0.27569241340E+03  0.00000000000E+00 0. -1.
          1   -1    0    0  501    0  0.00000000000E+00 -0.00000000000E+00 -0.69488763411E+02  0.69488763411E+02  0.00000000000E+00 0. -1.
         35    2    1    2    0    0  0.00000000000E+00  0.00000000000E+00  0.20620364999E+03  0.34518117681E+03  0.27682142178E+03 0.  0.
         25    1    3    3    0    0 -0.94004434607E+01  0.55469194935E+02  0.15285986469E+03  0.20231494793E+03  0.12000000000E+03 0.  0.
         25    1    3    3    0    0  0.94004434607E+01 -0.55469194935E+02  0.53343785302E+02  0.14286622888E+03  0.12000000000E+03 0.  0.
<mgrwt>
<rscale>  0 0.27682142E+03</rscale>
<asrwt>0</asrwt>
<pdfrwt beam="1">  1        1 0.10690579E-01 0.27682142E+03</pdfrwt>
<pdfrwt beam="2">  1       -1 0.42414217E-01 0.27682142E+03</pdfrwt>
<totfact> 0.32438096E+03</totfact>
</mgrwt>
</event>
<event>
 5    1  0.1162308E+001  0.2763184E+03  0.7818608E-02  0.1097717E+00
          2   -1    0    0  501    0  0.00000000000E+00  0.00000000000E+00  0.17259704810E+04  0.17259704810E+04  0.00000000000E+00 0. -1.
         -2   -1    0    0    0  501 -0.00000000000E+00 -0.00000000000E+00 -0.11059262987E+02  0.11059262987E+02  0.00000000000E+00 0. -1.
         35    2    1    2    0    0  0.00000000000E+00  0.00000000000E+00  0.17149112180E+04  0.17370297440E+04  0.27631837765E+03 0.  0.
         25    1    3    3    0    0  0.31360090093E+02 -0.59417442831E+02  0.77451560395E+03  0.78663098625E+03  0.12000000000E+03 0.  0.
         25    1    3    3    0    0 -0.31360090093E+02  0.59417442831E+02  0.94039561406E+03  0.95039875774E+03  0.12000000000E+03 0.  0.
<mgrwt>
<rscale>  0 0.27631838E+03</rscale>
<asrwt>0</asrwt>
<pdfrwt beam="1">  1        2 0.26553371E+00 0.27631838E+03</pdfrwt>
<pdfrwt beam="2">  1       -2 0.17014264E-02 0.27631838E+03</pdfrwt>
<totfact> 0.10153389E+04</totfact>
</mgrwt>
</event>
<event>
 5    1  0.1162308E+001  0.2762008E+03  0.7818608E-02  0.1097782E+00
          1   -1    0    0  501    0  0.00000000000E+00  0.00000000000E+00  0.51434175486E+02  0.51434175486E+02  0.00000000000E+00 0.  1.
         -1   -1    0    0    0  501 -0.00000000000E+00 -0.00000000000E+00 -0.37079858849E+03  0.37079858849E+03  0.00000000000E+00 0.  1.
         35    2    1    2    0    0  0.00000000000E+00  0.00000000000E+00 -0.31936441301E+03  0.42223276398E+03  0.27620079414E+03 0.  0.
         25    1    3    3    0    0 -0.35739630375E+02 -0.22248334489E+02 -0.24199774645E+03  0.27337742930E+03  0.12000000000E+03 0.  0.
         25    1    3    3    0    0  0.35739630375E+02  0.22248334489E+02 -0.77366666560E+02  0.14885533468E+03  0.12000000000E+03 0.  0.
<mgrwt>
<rscale>  0 0.27620079E+03</rscale>
<asrwt>0</asrwt>
<pdfrwt beam="1">  1        1 0.79129499E-02 0.27620079E+03</pdfrwt>
<pdfrwt beam="2">  1       -1 0.57045938E-01 0.27620079E+03</pdfrwt>
<totfact> 0.28185415E+03</totfact>
</mgrwt>
</event>
<event>
 4    1  0.1162308E+001  0.2956753E+03  0.7818608E-02  0.1087423E+00
         -1   -1    0    0    0  501 -0.00000000000E+00  0.00000000000E+00  0.20927318132E+02  0.20927318132E+02  0.00000000000E+00 0.  1.
          1   -1    0    0  501    0  0.00000000000E+00 -0.00000000000E+00 -0.10443747960E+04  0.10443747960E+04  0.00000000000E+00 0.  1.
         25    1    1    2    0    0  0.99186090422E+01 -0.81345497319E+02 -0.60976724639E+03  0.62684253486E+03  0.12000000000E+03 0.  0.
         25    1    1    2    0    0 -0.99186090422E+01  0.81345497319E+02 -0.41368023145E+03  0.43845957925E+03  0.12000000000E+03 0.  0.
<mgrwt>
<rscale>  0 0.29567525E+03</rscale>
<asrwt>0</asrwt>
<pdfrwt beam="1">  1        1 0.16067306E+00 0.29567525E+03</pdfrwt>
<pdfrwt beam="2">  1       -1 0.32195870E-02 0.29567525E+03</pdfrwt>
<totfact> 0.50399612E+03</totfact>
</mgrwt>
</event>
<event>
 5    1  0.1162308E+001  0.2755732E+03  0.7818608E-02  0.1098132E+00
         -1   -1    0    0    0  501 -0.00000000000E+00  0.00000000000E+00  0.35124545935E+02  0.35124545935E+02  0.00000000000E+00 0.  1.
          1   -1    0    0  501    0  0.00000000000E+00 -0.00000000000E+00 -0.54050950324E+03  0.54050950324E+03  0.00000000000E+00 0.  1.
         35    2    1    2    0    0  0.00000000000E+00  0.00000000000E+00 -0.50538495730E+03  0.57563404918E+03  0.27557322711E+03 0.  0.
         25    1    3    3    0    0 -0.38620603161E+02 -0.55238701968E+02 -0.23910915117E+03  0.27589137601E+03  0.12000000000E+03 0.  0.
         25    1    3    3    0    0  0.38620603161E+02  0.55238701968E+02 -0.26627580613E+03  0.29974267316E+03  0.12000000000E+03 0.  0.
<mgrwt>
<rscale>  0 0.27557323E+03</rscale>
<asrwt>0</asrwt>
<pdfrwt beam="1">  1        1 0.83155305E-01 0.27557323E+03</pdfrwt>
<pdfrwt beam="2">  1       -1 0.54037765E-02 0.27557323E+03</pdfrwt>
<totfact> 0.63347596E+03</totfact>
</mgrwt>
</event>
<event>
 5    1  0.1162308E+001  0.2755686E+03  0.7818608E-02  0.1098134E+00
         -1   -1    0    0    0  501 -0.00000000000E+00  0.00000000000E+00  0.14331943670E+03  0.14331943670E+03  0.00000000000E+00 0. -1.
          1   -1    0    0  501    0  0.00000000000E+00 -0.00000000000E+00 -0.13246293493E+03  0.13246293493E+03  0.00000000000E+00 0. -1.
         35    2    1    2    0    0  0.00000000000E+00  0.00000000000E+00  0.10856501767E+02  0.27578237162E+03  0.27556859920E+03 0.  0.
         25    1    3    3    0    0 -0.89920013131E+01  0.41522477330E+02 -0.47334000184E+02  0.13581413691E+03  0.12000000000E+03 0.  0.
         25    1    3    3    0    0  0.89920013131E+01 -0.41522477330E+02  0.58190501951E+02  0.13996823471E+03  0.12000000000E+03 0.  0.
<mgrwt>
<rscale>  0 0.27556860E+03</rscale>
<asrwt>0</asrwt>
<pdfrwt beam="1">  1        1 0.20378913E-01 0.27556860E+03</pdfrwt>
<pdfrwt beam="2">  1       -1 0.22049144E-01 0.27556860E+03</pdfrwt>
<totfact> 0.42523975E+03</totfact>
</mgrwt>
</event>
<event>
 5    1  0.1162308E+001  0.2749468E+03  0.7818608E-02  0.1098481E+00
          2   -1    0    0  501    0  0.00000000000E+00  0.00000000000E+00  0.23986107362E+04  0.23986107362E+04  0.00000000000E+00 0. -1.
         -2   -1    0    0    0  501 -0.00000000000E+00 -0.00000000000E+00 -0.78791190972E+01  0.78791190972E+01  0.00000000000E+00 0. -1.
         35    2    1    2    0    0  0.00000000000E+00  0.00000000000E+00  0.23907316171E+04  0.24064898553E+04  0.27494682874E+03 0.  0.
         25    1    3    3    0    0  0.31526520573E+02  0.31938741944E+02  0.16316734609E+04  0.16366955391E+04  0.12000000000E+03 0.  0.
         25    1    3    3    0    0 -0.31526520573E+02 -0.31938741944E+02  0.75905815620E+03  0.76979431618E+03  0.12000000000E+03 0.  0.
<mgrwt>
<rscale>  0 0.27494683E+03</rscale>
<asrwt>0</asrwt>
<pdfrwt beam="1">  1        2 0.36901645E+00 0.27494683E+03</pdfrwt>
<pdfrwt beam="2">  1       -2 0.12121741E-02 0.27494683E+03</pdfrwt>
<totfact> 0.73380295E+03</totfact>
</mgrwt>
</event>
<event>
 5    1  0.1162308E+001  0.2755041E+03  0.7818608E-02  0.1098170E+00
         -1   -1    0    0    0  501 -0.00000000000E+00  0.00000000000E+00  0.35381105252E+02  0.35381105252E+02  0.00000000000E+00 0.  1.
          1   -1    0    0  501    0  0.00000000000E+00 -0.00000000000E+00 -0.53632107976E+03  0.53632107976E+03  0.00000000000E+00 0.  1.
         35    2    1    2    0    0  0.00000000000E+00  0.00000000000E+00 -0.50093997451E+03  0.57170218501E+03  0.27550413842E+03 0.  0.
         25    1    3    3    0    0  0.36167696309E+02  0.33799054701E+02 -0.34613143534E+03  0.36967208291E+03  0.12000000000E+03 0.  0.
         25    1    3    3    0    0 -0.36167696309E+02 -0.33799054701E+02 -0.15480853917E+03  0.20203010210E+03  0.12000000000E+03 0.  0.
<mgrwt>
<rscale>  0 0.27550414E+03</rscale>
<asrwt>0</asrwt>
<pdfrwt beam="1">  1        1 0.82510928E-01 0.27550414E+03</pdfrwt>
<pdfrwt beam="2">  1       -1 0.54432475E-02 0.27550414E+03</pdfrwt>
<totfact> 0.63319885E+03</totfact>
</mgrwt>
</event>
<event>
 5    1  0.1162308E+001  0.2753115E+03  0.7818608E-02  0.1098278E+00
         -1   -1    0    0    0  501 -0.00000000000E+00  0.00000000000E+00  0.44857262004E+03  0.44857262004E+03  0.00000000000E+00 0.  1.
          1   -1    0    0  501    0  0.00000000000E+00 -0.00000000000E+00 -0.42243115905E+02  0.42243115905E+02  0.00000000000E+00 0.  1.
         35    2    1    2    0    0  0.00000000000E+00  0.00000000000E+00  0.40632950413E+03  0.49081573594E+03  0.27531149762E+03 0.  0.
         25    1    3    3    0    0  0.14621270602E+02 -0.55874359785E+02  0.26526487557E+03  0.29681842909E+03  0.12000000000E+03 0.  0.
         25    1    3    3    0    0 -0.14621270602E+02  0.55874359785E+02  0.14106462856E+03  0.19399730686E+03  0.12000000000E+03 0.  0.
<mgrwt>
<rscale>  0 0.27531150E+03</rscale>
<asrwt>0</asrwt>
<pdfrwt beam="1">  1        1 0.64989412E-02 0.27531150E+03</pdfrwt>
<pdfrwt beam="2">  1       -1 0.69011169E-01 0.27531150E+03</pdfrwt>
<totfact> 0.25464717E+03</totfact>
</mgrwt>
</event>
<event>
 5    1  0.1162308E+001  0.2758497E+03  0.7818608E-02  0.1097978E+00
         -2   -1    0    0    0  501 -0.00000000000E+00  0.00000000000E+00  0.34287228923E+02  0.34287228923E+02  0.00000000000E+00 0.  1.
          2   -1    0    0  501    0  0.00000000000E+00 -0.00000000000E+00 -0.55482067374E+03  0.55482067374E+03  0.00000000000E+00 0.  1.
         35    2    1    2    0    0  0.00000000000E+00  0.00000000000E+00 -0.52053344482E+03  0.58910790266E+03  0.27584969423E+03 0.  0.
         25    1    3    3    0    0  0.38158352345E+02 -0.48802524553E+02 -0.20041175621E+03  0.24166633668E+03  0.12000000000E+03 0.  0.
         25    1    3    3    0    0 -0.38158352345E+02  0.48802524553E+02 -0.32012168861E+03  0.34744156598E+03  0.12000000000E+03 0.  0.
<mgrwt>
<rscale>  0 0.27584969E+03</rscale>
<asrwt>0</asrwt>
<pdfrwt beam="1">  1        2 0.85357031E-01 0.27584969E+03</pdfrwt>
<pdfrwt beam="2">  1       -2 0.52749580E-02 0.27584969E+03</pdfrwt>
<totfact> 0.99213151E+03</totfact>
</mgrwt>
</event>
<event>
 5    1  0.1162308E+001  0.2749266E+03  0.7818608E-02  0.1098493E+00
          1   -1    0    0  501    0  0.00000000000E+00  0.00000000000E+00  0.85108802832E+02  0.85108802832E+02  0.00000000000E+00 0. -1.
         -1   -1    0    0    0  501 -0.00000000000E+00 -0.00000000000E+00 -0.22202357448E+03  0.22202357448E+03  0.00000000000E+00 0. -1.
         35    2    1    2    0    0  0.00000000000E+00  0.00000000000E+00 -0.13691477165E+03  0.30713237731E+03  0.27492661293E+03 0.  0.
         25    1    3    3    0    0 -0.22292083497E+02 -0.59475850456E+01 -0.13879172613E+03  0.18492012869E+03  0.12000000000E+03 0.  0.
         25    1    3    3    0    0  0.22292083497E+02  0.59475850456E+01  0.18769544792E+01  0.12221224862E+03  0.12000000000E+03 0.  0.
<mgrwt>
<rscale>  0 0.27492661E+03</rscale>
<asrwt>0</asrwt>
<pdfrwt beam="1">  1        1 0.13093662E-01 0.27492661E+03</pdfrwt>
<pdfrwt beam="2">  1       -1 0.34157472E-01 0.27492661E+03</pdfrwt>
<totfact> 0.36252967E+03</totfact>
</mgrwt>
</event>
<event>
 5    1  0.1162308E+001  0.2747601E+03  0.7818608E-02  0.1098586E+00
         -1   -1    0    0    0  501 -0.00000000000E+00  0.00000000000E+00  0.48580783840E+02  0.48580783840E+02  0.00000000000E+00 0.  1.
          1   -1    0    0  501    0  0.00000000000E+00 -0.00000000000E+00 -0.38849256044E+03  0.38849256044E+03  0.00000000000E+00 0.  1.
         35    2    1    2    0    0  0.00000000000E+00  0.00000000000E+00 -0.33991177660E+03  0.43707334428E+03  0.27476006335E+03 0.  0.
         25    1    3    3    0    0 -0.50459341876E+02  0.35735072655E+02 -0.21051623442E+03  0.25008043817E+03  0.12000000000E+03 0.  0.
         25    1    3    3    0    0  0.50459341876E+02 -0.35735072655E+02 -0.12939554218E+03  0.18699290611E+03  0.12000000000E+03 0.  0.
<mgrwt>
<rscale>  0 0.27476006E+03</rscale>
<asrwt>0</asrwt>
<pdfrwt beam="1">  1        1 0.59768085E-01 0.27476006E+03</pdfrwt>
<pdfrwt beam="2">  1       -1 0.74739670E-02 0.27476006E+03</pdfrwt>
<totfact> 0.59785345E+03</totfact>
</mgrwt>
</event>
<event>
 5    1  0.1162308E+001  0.2749321E+03  0.7818608E-02  0.1098490E+00
         -1   -1    0    0    0  501 -0.00000000000E+00  0.00000000000E+00  0.11167549469E+02  0.11167549469E+02  0.00000000000E+00 0. -1.
          1   -1    0    0  501    0  0.00000000000E+00 -0.00000000000E+00 -0.16921268680E+04  0.16921268680E+04  0.00000000000E+00 0. -1.
         35    2    1    2    0    0  0.00000000000E+00  0.00000000000E+00 -0.16809593185E+04  0.17032944175E+04  0.27493206802E+03 0.  0.
         25    1    3    3    0    0  0.56142607263E+02  0.29404209927E+02 -0.70470290984E+03  0.71765088382E+03  0.12000000000E+03 0.  0.
         25    1    3    3    0    0 -0.56142607263E+02 -0.29404209927E+02 -0.97625640868E+03  0.98564353363E+03  0.12000000000E+03 0.  0.
<mgrwt>
<rscale>  0 0.27493207E+03</rscale>
<asrwt>0</asrwt>
<pdfrwt beam="1">  1        1 0.26032717E+00 0.27493207E+03</pdfrwt>
<pdfrwt beam="2">  1       -1 0.17180848E-02 0.27493207E+03</pdfrwt>
<totfact> 0.45807746E+03</totfact>
</mgrwt>
</event>
<event>
 5    1  0.1162308E+001  0.2752085E+03  0.7818608E-02  0.1098335E+00
         -1   -1    0    0    0  501 -0.00000000000E+00  0.00000000000E+00  0.63305679326E+01  0.63305679326E+01  0.00000000000E+00 0. -1.
          1   -1    0    0  501    0  0.00000000000E+00 -0.00000000000E+00 -0.29910325260E+04  0.29910325260E+04  0.00000000000E+00 0. -1.
         35    2    1    2    0    0  0.00000000000E+00  0.00000000000E+00 -0.29847019581E+04  0.29973630940E+04  0.27520853617E+03 0.  0.
         25    1    3    3    0    0  0.99142922647E+01 -0.41510230509E+02 -0.20596940336E+04  0.20636280926E+04  0.12000000000E+03 0.  0.
         25    1    3    3    0    0 -0.99142922647E+01  0.41510230509E+02 -0.92500792446E+03  0.93373500135E+03  0.12000000000E+03 0.  0.
<mgrwt>
<rscale>  0 0.27520854E+03</rscale>
<asrwt>0</asrwt>
<pdfrwt beam="1">  1        1 0.46015879E+00 0.27520854E+03</pdfrwt>
<pdfrwt beam="2">  1       -1 0.97393366E-03 0.27520854E+03</pdfrwt>
<totfact> 0.14350456E+03</totfact>
</mgrwt>
</event>
<event>
 5    1  0.1162308E+001  0.2705208E+03  0.7818608E-02  0.1100982E+00
         -1   -1    0    0    0  501 -0.00000000000E+00  0.00000000000E+00  0.14868062291E+03  0.14868062291E+03  0.00000000000E+00 0.  1.
          1   -1    0    0  501    0  0.00000000000E+00 -0.00000000000E+00 -0.12305147587E+03  0.12305147587E+03  0.00000000000E+00 0.  1.
         35    2    1    2    0    0  0.00000000000E+00  0.00000000000E+00  0.25629147046E+02  0.27173209878E+03  0.27052075767E+03 0.  0.
         25    1    3    3    0    0 -0.38677675979E+02 -0.11882072759E+02  0.60548135020E+02  0.14036816921E+03  0.12000000000E+03 0.  0.
         25    1    3    3    0    0  0.38677675979E+02  0.11882072759E+02 -0.34918987974E+02  0.13136392957E+03  0.12000000000E+03 0.  0.
<mgrwt>
<rscale>  0 0.27052076E+03</rscale>
<asrwt>0</asrwt>
<pdfrwt beam="1">  1        1 0.18930996E-01 0.27052076E+03</pdfrwt>
<pdfrwt beam="2">  1       -1 0.22873942E-01 0.27052076E+03</pdfrwt>
<totfact> 0.43999227E+03</totfact>
</mgrwt>
</event>
<event>
 5    1  0.1162308E+001  0.2739142E+03  0.7818608E-02  0.1099060E+00
          1   -1    0    0  501    0  0.00000000000E+00  0.00000000000E+00  0.13640829839E+04  0.13640829839E+04  0.00000000000E+00 0. -1.
         -1   -1    0    0    0  501 -0.00000000000E+00 -0.00000000000E+00 -0.13750811435E+02  0.13750811435E+02  0.00000000000E+00 0. -1.
         35    2    1    2    0    0  0.00000000000E+00  0.00000000000E+00  0.13503321725E+04  0.13778337953E+04  0.27391420477E+03 0.  0.
         25    1    3    3    0    0 -0.46812849269E+02 -0.45592914908E+02  0.72210891792E+03  0.73492274838E+03  0.12000000000E+03 0.  0.
         25    1    3    3    0    0  0.46812849269E+02  0.45592914908E+02  0.62822325454E+03  0.64291104695E+03  0.12000000000E+03 0.  0.
<mgrwt>
<rscale>  0 0.27391420E+03</rscale>
<asrwt>0</asrwt>
<pdfrwt beam="1">  1        1 0.20985881E+00 0.27391420E+03</pdfrwt>
<pdfrwt beam="2">  1       -1 0.21155105E-02 0.27391420E+03</pdfrwt>
<totfact> 0.55726285E+03</totfact>
</mgrwt>
</event>
<event>
 5    1  0.1162308E+001  0.2754463E+03  0.7818608E-02  0.1098202E+00
          2   -1    0    0  501    0  0.00000000000E+00  0.00000000000E+00  0.15070980507E+03  0.15070980507E+03  0.00000000000E+00 0.  1.
         -2   -1    0    0    0  501 -0.00000000000E+00 -0.00000000000E+00 -0.12585554791E+03  0.12585554791E+03  0.00000000000E+00 0.  1.
         35    2    1    2    0    0  0.00000000000E+00  0.00000000000E+00  0.24854257157E+02  0.27656535298E+03  0.27544629308E+03 0.  0.
         25    1    3    3    0    0 -0.60437639254E+02 -0.20055954828E+00  0.42797604759E+02  0.14101199749E+03  0.12000000000E+03 0.  0.
         25    1    3    3    0    0  0.60437639254E+02  0.20055954828E+00 -0.17943347602E+02  0.13555335549E+03  0.12000000000E+03 0.  0.
<mgrwt>
<rscale>  0 0.27544629E+03</rscale>
<asrwt>0</asrwt>
<pdfrwt beam="1">  1        2 0.23186124E-01 0.27544629E+03</pdfrwt>
<pdfrwt beam="2">  1       -2 0.19362392E-01 0.27544629E+03</pdfrwt>
<totfact> 0.51720999E+03</totfact>
</mgrwt>
</event>
<event>
 5    1  0.1162308E+001  0.2744964E+03  0.7818608E-02  0.1098733E+00
         -1   -1    0    0    0  501 -0.00000000000E+00  0.00000000000E+00  0.64027433619E+02  0.64027433619E+02  0.00000000000E+00 0.  1.
          1   -1    0    0  501    0  0.00000000000E+00 -0.00000000000E+00 -0.29420310937E+03  0.29420310937E+03  0.00000000000E+00 0.  1.
         35    2    1    2    0    0  0.00000000000E+00  0.00000000000E+00 -0.23017567575E+03  0.35823054299E+03  0.27449641204E+03 0.  0.
         25    1    3    3    0    0  0.54803774656E+02  0.10933718247E+02 -0.16239590599E+03  0.20951236286E+03  0.12000000000E+03 0.  0.
         25    1    3    3    0    0 -0.54803774656E+02 -0.10933718247E+02 -0.67779769767E+02  0.14871818013E+03  0.12000000000E+03 0.  0.
<mgrwt>
<rscale>  0 0.27449641E+03</rscale>
<asrwt>0</asrwt>
<pdfrwt beam="1">  1        1 0.45262017E-01 0.27449641E+03</pdfrwt>
<pdfrwt beam="2">  1       -1 0.98503744E-02 0.27449641E+03</pdfrwt>
<totfact> 0.55670923E+03</totfact>
</mgrwt>
</event>
<event>
 5    1  0.1162308E+001  0.2750799E+03  0.7818608E-02  0.1098407E+00
          2   -1    0    0  501    0  0.00000000000E+00  0.00000000000E+00  0.12524648670E+04  0.12524648670E+04  0.00000000000E+00 0.  1.
         -2   -1    0    0    0  501 -0.00000000000E+00 -0.00000000000E+00 -0.15104008922E+02  0.15104008922E+02  0.00000000000E+00 0.  1.
         35    2    1    2    0    0  0.00000000000E+00  0.00000000000E+00  0.12373608580E+04  0.12675688759E+04  0.27507991948E+03 0.  0.
         25    1    3    3    0    0 -0.64728125382E+02 -0.17838450174E+02  0.63273295067E+03  0.64750206748E+03  0.12000000000E+03 0.  0.
         25    1    3    3    0    0  0.64728125382E+02  0.17838450174E+02  0.60462790736E+03  0.62006680840E+03  0.12000000000E+03 0.  0.
<mgrwt>
<rscale>  0 0.27507992E+03</rscale>
<asrwt>0</asrwt>
<pdfrwt beam="1">  1        2 0.19268682E+00 0.27507992E+03</pdfrwt>
<pdfrwt beam="2">  1       -2 0.23236947E-02 0.27507992E+03</pdfrwt>
<totfact> 0.11543511E+04</totfact>
</mgrwt>
</event>
<event>
 5    1  0.1162308E+001  0.2749088E+03  0.7818608E-02  0.1098503E+00
         -1   -1    0    0    0  501 -0.00000000000E+00  0.00000000000E+00  0.53224354542E+03  0.53224354542E+03  0.00000000000E+00 0. -1.
          1   -1    0    0  501    0  0.00000000000E+00 -0.00000000000E+00 -0.35498239542E+02  0.35498239542E+02  0.00000000000E+00 0. -1.
         35    2    1    2    0    0  0.00000000000E+00  0.00000000000E+00  0.49674530588E+03  0.56774178497E+03  0.27490877665E+03 0.  0.
         25    1    3    3    0    0 -0.34753932587E+02  0.37335530611E+02  0.33820131321E+03  0.36246642042E+03  0.12000000000E+03 0.  0.
         25    1    3    3    0    0  0.34753932587E+02 -0.37335530611E+02  0.15854399267E+03  0.20527536454E+03  0.12000000000E+03 0.  0.
<mgrwt>
<rscale>  0 0.27490878E+03</rscale>
<asrwt>0</asrwt>
<pdfrwt beam="1">  1        1 0.54612680E-02 0.27490878E+03</pdfrwt>
<pdfrwt beam="2">  1       -1 0.81883617E-01 0.27490878E+03</pdfrwt>
<totfact> 0.22834541E+03</totfact>
</mgrwt>
</event>
<event>
 5    1  0.1162308E+001  0.2756257E+03  0.7818608E-02  0.1098102E+00
          2   -1    0    0  501    0  0.00000000000E+00  0.00000000000E+00  0.73062268487E+02  0.73062268487E+02  0.00000000000E+00 0.  1.
         -2   -1    0    0    0  501 -0.00000000000E+00 -0.00000000000E+00 -0.25994794114E+03  0.25994794114E+03  0.00000000000E+00 0.  1.
         35    2    1    2    0    0  0.00000000000E+00  0.00000000000E+00 -0.18688567266E+03  0.33301020963E+03  0.27562573369E+03 0.  0.
         25    1    3    3    0    0 -0.17280155176E+02 -0.65299734605E+02 -0.86855428679E+02  0.16280824486E+03  0.12000000000E+03 0.  0.
         25    1    3    3    0    0  0.17280155176E+02  0.65299734605E+02 -0.10003024398E+03  0.17020196477E+03  0.12000000000E+03 0.  0.
<mgrwt>
<rscale>  0 0.27562573E+03</rscale>
<asrwt>0</asrwt>
<pdfrwt beam="1">  1        2 0.11240349E-01 0.27562573E+03</pdfrwt>
<pdfrwt beam="2">  1       -2 0.39991992E-01 0.27562573E+03</pdfrwt>
<totfact> 0.32870930E+03</totfact>
</mgrwt>
</event>
<event>
 5    1  0.1162308E+001  0.2755570E+03  0.7818608E-02  0.1098141E+00
         -1   -1    0    0    0  501 -0.00000000000E+00  0.00000000000E+00  0.94525857832E+01  0.94525857832E+01  0.00000000000E+00 0.  1.
          1   -1    0    0  501    0  0.00000000000E+00 -0.00000000000E+00 -0.20082243971E+04  0.20082243971E+04  0.00000000000E+00 0.  1.
         35    2    1    2    0    0  0.00000000000E+00  0.00000000000E+00 -0.19987718113E+04  0.20176769829E+04  0.27555698783E+03 0.  0.
         25    1    3    3    0    0 -0.11018969557E+02 -0.90189019431E+01 -0.51478418077E+03  0.52877737381E+03  0.12000000000E+03 0.  0.
         25    1    3    3    0    0  0.11018969557E+02  0.90189019431E+01 -0.14839876306E+04  0.14888996091E+04  0.12000000000E+03 0.  0.
<mgrwt>
<rscale>  0 0.27555699E+03</rscale>
<asrwt>0</asrwt>
<pdfrwt beam="1">  1        1 0.30895804E+00 0.27555699E+03</pdfrwt>
<pdfrwt beam="2">  1       -1 0.14542419E-02 0.27555699E+03</pdfrwt>
<totfact> 0.36387450E+03</totfact>
</mgrwt>
</event>
<event>
 5    1  0.1162308E+001  0.2738862E+03  0.7818608E-02  0.1099076E+00
         -3   -1    0    0    0  501 -0.00000000000E+00  0.00000000000E+00  0.98528008839E+02  0.98528008839E+02  0.00000000000E+00 0.  1.
          3   -1    0    0  501    0  0.00000000000E+00 -0.00000000000E+00 -0.19033587594E+03  0.19033587594E+03  0.00000000000E+00 0.  1.
         35    2    1    2    0    0  0.00000000000E+00  0.00000000000E+00 -0.91807867103E+02  0.28886388478E+03  0.27388621628E+03 0.  0.
         25    1    3    3    0    0  0.59245155084E+02  0.66232263484E+01 -0.16081133185E+02  0.13495354153E+03  0.12000000000E+03 0.  0.
         25    1    3    3    0    0 -0.59245155084E+02 -0.66232263484E+01 -0.75726733918E+02  0.15391034325E+03  0.12000000000E+03 0.  0.
<mgrwt>
<rscale>  0 0.27388622E+03</rscale>
<asrwt>0</asrwt>
<pdfrwt beam="1">  1        3 0.29282443E-01 0.27388622E+03</pdfrwt>
<pdfrwt beam="2">  1       -3 0.15158155E-01 0.27388622E+03</pdfrwt>
<totfact> 0.10409051E+03</totfact>
</mgrwt>
</event>
<event>
 5    1  0.1162308E+001  0.2732225E+03  0.7818608E-02  0.1099449E+00
          2   -1    0    0  501    0  0.00000000000E+00  0.00000000000E+00  0.15747705328E+03  0.15747705328E+03  0.00000000000E+00 0.  1.
         -2   -1    0    0    0  501 -0.00000000000E+00 -0.00000000000E+00 -0.11851021687E+03  0.11851021687E+03  0.00000000000E+00 0.  1.
         35    2    1    2    0    0  0.00000000000E+00  0.00000000000E+00  0.38966836408E+02  0.27598727014E+03  0.27322254472E+03 0.  0.
         25    1    3    3    0    0 -0.26277058354E+02  0.17454808133E+02  0.77223761394E+02  0.14614603466E+03  0.12000000000E+03 0.  0.
         25    1    3    3    0    0  0.26277058354E+02 -0.17454808133E+02 -0.38256924985E+02  0.12984123548E+03  0.12000000000E+03 0.  0.
<mgrwt>
<rscale>  0 0.27322254E+03</rscale>
<asrwt>0</asrwt>
<pdfrwt beam="1">  1        2 0.24227239E-01 0.27322254E+03</pdfrwt>
<pdfrwt beam="2">  1       -2 0.18232341E-01 0.27322254E+03</pdfrwt>
<totfact> 0.54502231E+03</totfact>
</mgrwt>
</event>
<event>
 5    1  0.1162308E+001  0.2739693E+03  0.7818608E-02  0.1099029E+00
         -1   -1    0    0    0  501 -0.00000000000E+00  0.00000000000E+00  0.50118093912E+03  0.50118093912E+03  0.00000000000E+00 0. -1.
          1   -1    0    0  501    0  0.00000000000E+00 -0.00000000000E+00 -0.37441152351E+02  0.37441152351E+02  0.00000000000E+00 0. -1.
         35    2    1    2    0    0  0.00000000000E+00  0.00000000000E+00  0.46373978677E+03  0.53862209147E+03  0.27396928220E+03 0.  0.
         25    1    3    3    0    0 -0.35305946206E+02 -0.98616679770E+01  0.12381118361E+03  0.17627527200E+03  0.12000000000E+03 0.  0.
         25    1    3    3    0    0  0.35305946206E+02  0.98616679770E+01  0.33992860316E+03  0.36234681947E+03  0.12000000000E+03 0.  0.
<mgrwt>
<rscale>  0 0.27396928E+03</rscale>
<asrwt>0</asrwt>
<pdfrwt beam="1">  1        1 0.57601777E-02 0.27396928E+03</pdfrwt>
<pdfrwt beam="2">  1       -1 0.77104755E-01 0.27396928E+03</pdfrwt>
<totfact> 0.24024663E+03</totfact>
</mgrwt>
</event>
<event>
 5    1  0.1162308E+001  0.2746674E+03  0.7818608E-02  0.1098638E+00
          2   -1    0    0  501    0  0.00000000000E+00  0.00000000000E+00  0.27763038646E+03  0.27763038646E+03  0.00000000000E+00 0. -1.
         -2   -1    0    0    0  501 -0.00000000000E+00 -0.00000000000E+00 -0.67934030424E+02  0.67934030424E+02  0.00000000000E+00 0. -1.
         35    2    1    2    0    0  0.00000000000E+00  0.00000000000E+00  0.20969635604E+03  0.34556441689E+03  0.27466744343E+03 0.  0.
         25    1    3    3    0    0  0.13745210420E+00 -0.65110191472E+02  0.86136631895E+02  0.16142761623E+03  0.12000000000E+03 0.  0.
         25    1    3    3    0    0 -0.13745210420E+00  0.65110191472E+02  0.12355972415E+03  0.18413680066E+03  0.12000000000E+03 0.  0.
<mgrwt>
<rscale>  0 0.27466744E+03</rscale>
<asrwt>0</asrwt>
<pdfrwt beam="1">  1        2 0.42712367E-01 0.27466744E+03</pdfrwt>
<pdfrwt beam="2">  1       -2 0.10451389E-01 0.27466744E+03</pdfrwt>
<totfact> 0.72979909E+03</totfact>
</mgrwt>
</event>
<event>
 5    1  0.1162308E+001  0.2689837E+03  0.7818608E-02  0.1101863E+00
         -1   -1    0    0    0  501 -0.00000000000E+00  0.00000000000E+00  0.48256436889E+03  0.48256436889E+03  0.00000000000E+00 0.  1.
          1   -1    0    0  501    0  0.00000000000E+00 -0.00000000000E+00 -0.37483190785E+02  0.37483190785E+02  0.00000000000E+00 0.  1.
         35    2    1    2    0    0  0.00000000000E+00  0.00000000000E+00  0.44508117810E+03  0.52004755967E+03  0.26898365976E+03 0.  0.
         25    1    3    3    0    0 -0.23362789732E+02 -0.45611391085E+01  0.33055802181E+03  0.35247018273E+03  0.12000000000E+03 0.  0.
         25    1    3    3    0    0  0.23362789732E+02  0.45611391085E+01  0.11452315629E+03  0.16757737694E+03  0.12000000000E+03 0.  0.
<mgrwt>
<rscale>  0 0.26898366E+03</rscale>
<asrwt>0</asrwt>
<pdfrwt beam="1">  1        1 0.57666451E-02 0.26898366E+03</pdfrwt>
<pdfrwt beam="2">  1       -1 0.74240668E-01 0.26898366E+03</pdfrwt>
<totfact> 0.25902036E+03</totfact>
</mgrwt>
</event>
<event>
 5    1  0.1162308E+001  0.2757039E+03  0.7818608E-02  0.1098059E+00
          2   -1    0    0  501    0  0.00000000000E+00  0.00000000000E+00  0.12580902391E+04  0.12580902391E+04  0.00000000000E+00 0. -1.
         -2   -1    0    0    0  501 -0.00000000000E+00 -0.00000000000E+00 -0.15104767384E+02  0.15104767384E+02  0.00000000000E+00 0. -1.
         35    2    1    2    0    0  0.00000000000E+00  0.00000000000E+00  0.12429854717E+04  0.12731950064E+04  0.27570390211E+03 0.  0.
         25    1    3    3    0    0 -0.67754258518E+02  0.35121888163E+01  0.61950436596E+03  0.63465631208E+03  0.12000000000E+03 0.  0.
         25    1    3    3    0    0  0.67754258518E+02 -0.35121888163E+01  0.62348110571E+03  0.63853869436E+03  0.12000000000E+03 0.  0.
<mgrwt>
<rscale>  0 0.27570390E+03</rscale>
<asrwt>0</asrwt>
<pdfrwt beam="1">  1        2 0.19355226E+00 0.27570390E+03</pdfrwt>
<pdfrwt beam="2">  1       -2 0.23238114E-02 0.27570390E+03</pdfrwt>
<totfact> 0.11459946E+04</totfact>
</mgrwt>
</event>
<event>
 5    1  0.1162308E+001  0.2794025E+03  0.7818608E-02  0.1096016E+00
          1   -1    0    0  501    0  0.00000000000E+00  0.00000000000E+00  0.44920261060E+02  0.44920261060E+02  0.00000000000E+00 0.  1.
         -1   -1    0    0    0  501 -0.00000000000E+00 -0.00000000000E+00 -0.43446863263E+03  0.43446863263E+03  0.00000000000E+00 0.  1.
         35    2    1    2    0    0  0.00000000000E+00  0.00000000000E+00 -0.38954837157E+03  0.47938889369E+03  0.27940253685E+03 0.  0.
         25    1    3    3    0    0  0.15426623153E+02  0.69588102679E+02 -0.20506300258E+03  0.24805507406E+03  0.12000000000E+03 0.  0.
         25    1    3    3    0    0 -0.15426623153E+02 -0.69588102679E+02 -0.18448536898E+03  0.23133381963E+03  0.12000000000E+03 0.  0.
<mgrwt>
<rscale>  0 0.27940254E+03</rscale>
<asrwt>0</asrwt>
<pdfrwt beam="1">  1        1 0.69108094E-02 0.27940254E+03</pdfrwt>
<pdfrwt beam="2">  1       -1 0.66841328E-01 0.27940254E+03</pdfrwt>
<totfact> 0.24947387E+03</totfact>
</mgrwt>
</event>
<event>
 5    1  0.1162308E+001  0.2749554E+03  0.7818608E-02  0.1098477E+00
         -2   -1    0    0    0  501 -0.00000000000E+00  0.00000000000E+00  0.49607206492E+02  0.49607206492E+02  0.00000000000E+00 0.  1.
          2   -1    0    0  501    0  0.00000000000E+00 -0.00000000000E+00 -0.38099547158E+03  0.38099547158E+03  0.00000000000E+00 0.  1.
         35    2    1    2    0    0  0.00000000000E+00  0.00000000000E+00 -0.33138826509E+03  0.43060267807E+03  0.27495542207E+03 0.  0.
         25    1    3    3    0    0  0.51681258235E+02 -0.24812757463E+02 -0.22024900558E+03  0.25728631881E+03  0.12000000000E+03 0.  0.
         25    1    3    3    0    0 -0.51681258235E+02  0.24812757463E+02 -0.11113925951E+03  0.17331635927E+03  0.12000000000E+03 0.  0.
<mgrwt>
<rscale>  0 0.27495542E+03</rscale>
<asrwt>0</asrwt>
<pdfrwt beam="1">  1        2 0.58614686E-01 0.27495542E+03</pdfrwt>
<pdfrwt beam="2">  1       -2 0.76318782E-02 0.27495542E+03</pdfrwt>
<totfact> 0.85154245E+03</totfact>
</mgrwt>
</event>
<event>
 5    1  0.1162308E+001  0.2751551E+03  0.7818608E-02  0.1098365E+00
          2   -1    0    0  501    0  0.00000000000E+00  0.00000000000E+00  0.20564601090E+04  0.20564601090E+04  0.00000000000E+00 0.  1.
         -2   -1    0    0    0  501 -0.00000000000E+00 -0.00000000000E+00 -0.92039596586E+01  0.92039596586E+01  0.00000000000E+00 0.  1.
         35    2    1    2    0    0  0.00000000000E+00  0.00000000000E+00  0.20472561493E+04  0.20656640686E+04  0.27515505362E+03 0.  0.
         25    1    3    3    0    0 -0.10268249429E+02 -0.62645564800E+02  0.85615157733E+03  0.86684798385E+03  0.12000000000E+03 0.  0.
         25    1    3    3    0    0  0.10268249429E+02  0.62645564800E+02  0.11911045720E+04  0.11988160848E+04  0.12000000000E+03 0.  0.
<mgrwt>
<rscale>  0 0.27515505E+03</rscale>
<asrwt>0</asrwt>
<pdfrwt beam="1">  1        2 0.31637811E+00 0.27515505E+03</pdfrwt>
<pdfrwt beam="2">  1       -2 0.14159954E-02 0.27515505E+03</pdfrwt>
<totfact> 0.89052508E+03</totfact>
</mgrwt>
</event>
<event>
 5    1  0.1162308E+001  0.2762005E+03  0.7818608E-02  0.1097782E+00
          2   -1    0    0  501    0  0.00000000000E+00  0.00000000000E+00  0.13853892855E+04  0.13853892855E+04  0.00000000000E+00 0.  1.
         -2   -1    0    0    0  501 -0.00000000000E+00 -0.00000000000E+00 -0.13766298344E+02  0.13766298344E+02  0.00000000000E+00 0.  1.
         35    2    1    2    0    0  0.00000000000E+00  0.00000000000E+00  0.13716229872E+04  0.13991555838E+04  0.27620052300E+03 0.  0.
         25    1    3    3    0    0  0.65836766172E+02 -0.88526406388E+01  0.60431263906E+03  0.61968267263E+03  0.12000000000E+03 0.  0.
         25    1    3    3    0    0 -0.65836766172E+02  0.88526406388E+01  0.76731034810E+03  0.77947291122E+03  0.12000000000E+03 0.  0.
<mgrwt>
<rscale>  0 0.27620052E+03</rscale>
<asrwt>0</asrwt>
<pdfrwt beam="1">  1        2 0.21313670E+00 0.27620052E+03</pdfrwt>
<pdfrwt beam="2">  1       -2 0.21178932E-02 0.27620052E+03</pdfrwt>
<totfact> 0.11180090E+04</totfact>
</mgrwt>
</event>
<event>
 5    1  0.1162308E+001  0.2720259E+03  0.7818608E-02  0.1100126E+00
          1   -1    0    0  501    0  0.00000000000E+00  0.00000000000E+00  0.26549738776E+03  0.26549738776E+03  0.00000000000E+00 0.  1.
         -1   -1    0    0    0  501 -0.00000000000E+00 -0.00000000000E+00 -0.69678752066E+02  0.69678752066E+02  0.00000000000E+00 0.  1.
         35    2    1    2    0    0  0.00000000000E+00  0.00000000000E+00  0.19581863569E+03  0.33517613982E+03  0.27202593006E+03 0.  0.
         25    1    3    3    0    0  0.54322791852E+02  0.33588116806E+02  0.92344243632E+02  0.16433680853E+03  0.12000000000E+03 0.  0.
         25    1    3    3    0    0 -0.54322791852E+02 -0.33588116806E+02  0.10347439206E+03  0.17083933129E+03  0.12000000000E+03 0.  0.
<mgrwt>
<rscale>  0 0.27202593E+03</rscale>
<asrwt>0</asrwt>
<pdfrwt beam="1">  1        1 0.40845752E-01 0.27202593E+03</pdfrwt>
<pdfrwt beam="2">  1       -1 0.10719808E-01 0.27202593E+03</pdfrwt>
<totfact> 0.55540898E+03</totfact>
</mgrwt>
</event>
<event>
 5    1  0.1162308E+001  0.2724988E+03  0.7818608E-02  0.1099858E+00
          4   -1    0    0  501    0  0.00000000000E+00  0.00000000000E+00  0.69425214282E+03  0.69425214282E+03  0.00000000000E+00 0.  1.
         -4   -1    0    0    0  501 -0.00000000000E+00 -0.00000000000E+00 -0.26739426113E+02  0.26739426113E+02  0.00000000000E+00 0.  1.
         35    2    1    2    0    0  0.00000000000E+00  0.00000000000E+00  0.66751271671E+03  0.72099156893E+03  0.27249883579E+03 0.  0.
         25    1    3    3    0    0 -0.43823124476E+02  0.35234029551E+02  0.41750920348E+03  0.43803634331E+03  0.12000000000E+03 0.  0.
         25    1    3    3    0    0  0.43823124476E+02 -0.35234029551E+02  0.25000351323E+03  0.28295522562E+03  0.12000000000E+03 0.  0.
<mgrwt>
<rscale>  0 0.27249884E+03</rscale>
<asrwt>0</asrwt>
<pdfrwt beam="1">  1        4 0.10680801E+00 0.27249884E+03</pdfrwt>
<pdfrwt beam="2">  1       -4 0.41137584E-02 0.27249884E+03</pdfrwt>
<totfact> 0.44703997E+02</totfact>
</mgrwt>
</event>
<event>
 5    1  0.1162308E+001  0.2772468E+03  0.7818608E-02  0.1097202E+00
          1   -1    0    0  501    0  0.00000000000E+00  0.00000000000E+00  0.90362689046E+03  0.90362689046E+03  0.00000000000E+00 0.  1.
         -1   -1    0    0    0  501 -0.00000000000E+00 -0.00000000000E+00 -0.21265909499E+02  0.21265909499E+02  0.00000000000E+00 0.  1.
         35    2    1    2    0    0  0.00000000000E+00  0.00000000000E+00  0.88236098096E+03  0.92489279996E+03  0.27724680466E+03 0.  0.
         25    1    3    3    0    0 -0.20036557787E+01 -0.39622050814E+02  0.63114242826E+03  0.64367280997E+03  0.12000000000E+03 0.  0.
         25    1    3    3    0    0  0.20036557787E+01  0.39622050814E+02  0.25121855271E+03  0.28121998999E+03  0.12000000000E+03 0.  0.
<mgrwt>
<rscale>  0 0.27724680E+03</rscale>
<asrwt>0</asrwt>
<pdfrwt beam="1">  1        1 0.13901949E+00 0.27724680E+03</pdfrwt>
<pdfrwt beam="2">  1       -1 0.32716791E-02 0.27724680E+03</pdfrwt>
<totfact> 0.62873134E+03</totfact>
</mgrwt>
</event>
<event>
 5    1  0.1162308E+001  0.2752165E+03  0.7818608E-02  0.1098331E+00
          1   -1    0    0  501    0  0.00000000000E+00  0.00000000000E+00  0.17289119133E+04  0.17289119133E+04  0.00000000000E+00 0. -1.
         -1   -1    0    0    0  501 -0.00000000000E+00 -0.00000000000E+00 -0.10952570243E+02  0.10952570243E+02  0.00000000000E+00 0. -1.
         35    2    1    2    0    0  0.00000000000E+00  0.00000000000E+00  0.17179593430E+04  0.17398644835E+04  0.27521649059E+03 0.  0.
         25    1    3    3    0    0  0.27943449622E+02  0.57956353623E+02  0.98482228508E+03  0.99419047898E+03  0.12000000000E+03 0.  0.
         25    1    3    3    0    0 -0.27943449622E+02 -0.57956353623E+02  0.73313705794E+03  0.74567400453E+03  0.12000000000E+03 0.  0.
<mgrwt>
<rscale>  0 0.27521649E+03</rscale>
<asrwt>0</asrwt>
<pdfrwt beam="1">  1        1 0.26598623E+00 0.27521649E+03</pdfrwt>
<pdfrwt beam="2">  1       -1 0.16850122E-02 0.27521649E+03</pdfrwt>
<totfact> 0.44592190E+03</totfact>
</mgrwt>
</event>
<event>
 5    1  0.1162308E+001  0.2745955E+03  0.7818608E-02  0.1098678E+00
          2   -1    0    0  501    0  0.00000000000E+00  0.00000000000E+00  0.14448493776E+04  0.14448493776E+04  0.00000000000E+00 0. -1.
         -2   -1    0    0    0  501 -0.00000000000E+00 -0.00000000000E+00 -0.13046804782E+02  0.13046804782E+02  0.00000000000E+00 0. -1.
         35    2    1    2    0    0  0.00000000000E+00  0.00000000000E+00  0.14318025728E+04  0.14578961824E+04  0.27459546805E+03 0.  0.
         25    1    3    3    0    0 -0.55287682234E+02  0.45985432922E+01  0.51918703766E+03  0.53575465885E+03  0.12000000000E+03 0.  0.
         25    1    3    3    0    0  0.55287682234E+02 -0.45985432922E+01  0.91261553514E+03  0.92214152352E+03  0.12000000000E+03 0.  0.
<mgrwt>
<rscale>  0 0.27459547E+03</rscale>
<asrwt>0</asrwt>
<pdfrwt beam="1">  1        2 0.22228439E+00 0.27459547E+03</pdfrwt>
<pdfrwt beam="2">  1       -2 0.20072019E-02 0.27459547E+03</pdfrwt>
<totfact> 0.11233177E+04</totfact>
</mgrwt>
</event>
<event>
 5    1  0.1162308E+001  0.2733412E+03  0.7818608E-02  0.1099382E+00
          2   -1    0    0  501    0  0.00000000000E+00  0.00000000000E+00  0.17070293087E+04  0.17070293087E+04  0.00000000000E+00 0. -1.
         -2   -1    0    0    0  501 -0.00000000000E+00 -0.00000000000E+00 -0.10942316796E+02  0.10942316796E+02  0.00000000000E+00 0. -1.
         35    2    1    2    0    0  0.00000000000E+00  0.00000000000E+00  0.16960869919E+04  0.17179716255E+04  0.27334121882E+03 0.  0.
         25    1    3    3    0    0 -0.40511990550E+02 -0.31364927865E+02  0.11036443223E+04  0.11113306304E+04  0.12000000000E+03 0.  0.
         25    1    3    3    0    0  0.40511990550E+02  0.31364927865E+02  0.59244266966E+03  0.60664099508E+03  0.12000000000E+03 0.  0.
<mgrwt>
<rscale>  0 0.27334122E+03</rscale>
<asrwt>0</asrwt>
<pdfrwt beam="1">  1        2 0.26261968E+00 0.27334122E+03</pdfrwt>
<pdfrwt beam="2">  1       -2 0.16834347E-02 0.27334122E+03</pdfrwt>
<totfact> 0.10550472E+04</totfact>
</mgrwt>
</event>
<event>
 5    1  0.1162308E+001  0.2748110E+03  0.7818608E-02  0.1098557E+00
          3   -1    0    0  501    0  0.00000000000E+00  0.00000000000E+00  0.12857304936E+03  0.12857304936E+03  0.00000000000E+00 0. -1.
         -3   -1    0    0    0  501 -0.00000000000E+00 -0.00000000000E+00 -0.14684474372E+03  0.14684474372E+03  0.00000000000E+00 0. -1.
         35    2    1    2    0    0  0.00000000000E+00  0.00000000000E+00 -0.18271694359E+02  0.27541779309E+03  0.27481103678E+03 0.  0.
         25    1    3    3    0    0 -0.92691787193E+01  0.65140148280E+02 -0.21456072203E+02  0.13852624165E+03  0.12000000000E+03 0.  0.
         25    1    3    3    0    0  0.92691787193E+01 -0.65140148280E+02  0.31843778440E+01  0.13689155144E+03  0.12000000000E+03 0.  0.
<mgrwt>
<rscale>  0 0.27481104E+03</rscale>
<asrwt>0</asrwt>
<pdfrwt beam="1">  1        3 0.19780469E-01 0.27481104E+03</pdfrwt>
<pdfrwt beam="2">  1       -3 0.22591499E-01 0.27481104E+03</pdfrwt>
<totfact> 0.10504640E+03</totfact>
</mgrwt>
</event>
<event>
 5    1  0.1162308E+001  0.2752505E+03  0.7818608E-02  0.1098312E+00
          2   -1    0    0  501    0  0.00000000000E+00  0.00000000000E+00  0.54140707740E+03  0.54140707740E+03  0.00000000000E+00 0.  1.
         -2   -1    0    0    0  501 -0.00000000000E+00 -0.00000000000E+00 -0.34984229594E+02  0.34984229594E+02  0.00000000000E+00 0.  1.
         35    2    1    2    0    0  0.00000000000E+00  0.00000000000E+00  0.50642284781E+03  0.57639130700E+03  0.27525050045E+03 0.  0.
         25    1    3    3    0    0  0.17596775482E+02 -0.49254364195E+02  0.16424289668E+03  0.21002706495E+03  0.12000000000E+03 0.  0.
         25    1    3    3    0    0 -0.17596775482E+02  0.49254364195E+02  0.34217995113E+03  0.36636424205E+03  0.12000000000E+03 0.  0.
<mgrwt>
<rscale>  0 0.27525050E+03</rscale>
<asrwt>0</asrwt>
<pdfrwt beam="1">  1        2 0.83293391E-01 0.27525050E+03</pdfrwt>
<pdfrwt beam="2">  1       -2 0.53821896E-02 0.27525050E+03</pdfrwt>
<totfact> 0.98924138E+03</totfact>
</mgrwt>
</event>
<event>
 5    1  0.1162308E+001  0.2747727E+03  0.7818608E-02  0.1098579E+00
          2   -1    0    0  501    0  0.00000000000E+00  0.00000000000E+00  0.90400965498E+02  0.90400965498E+02  0.00000000000E+00 0. -1.
         -2   -1    0    0    0  501 -0.00000000000E+00 -0.00000000000E+00 -0.20879211368E+03  0.20879211368E+03  0.00000000000E+00 0. -1.
         35    2    1    2    0    0  0.00000000000E+00  0.00000000000E+00 -0.11839114818E+03  0.29919307918E+03  0.27477269635E+03 0.  0.
         25    1    3    3    0    0  0.28711159375E+02 -0.56966734996E+02 -0.37269703459E+02  0.14092043984E+03  0.12000000000E+03 0.  0.
         25    1    3    3    0    0 -0.28711159375E+02  0.56966734996E+02 -0.81121444721E+02  0.15827263934E+03  0.12000000000E+03 0.  0.
<mgrwt>
<rscale>  0 0.27477270E+03</rscale>
<asrwt>0</asrwt>
<pdfrwt beam="1">  1        2 0.13907841E-01 0.27477270E+03</pdfrwt>
<pdfrwt beam="2">  1       -2 0.32121864E-01 0.27477270E+03</pdfrwt>
<totfact> 0.38278077E+03</totfact>
</mgrwt>
</event>
<event>
 5    1  0.1162308E+001  0.2747813E+03  0.7818608E-02  0.1098574E+00
          1   -1    0    0  501    0  0.00000000000E+00  0.00000000000E+00  0.18505888672E+02  0.18505888672E+02  0.00000000000E+00 0. -1.
         -1   -1    0    0    0  501 -0.00000000000E+00 -0.00000000000E+00 -0.10200097915E+04  0.10200097915E+04  0.00000000000E+00 0. -1.
         35    2    1    2    0    0  0.00000000000E+00  0.00000000000E+00 -0.10015039029E+04  0.10385156802E+04  0.27478127772E+03 0.  0.
         25    1    3    3    0    0  0.32631572874E+02 -0.86980489844E+01 -0.71903509316E+03  0.72976156435E+03  0.12000000000E+03 0.  0.
         25    1    3    3    0    0 -0.32631572874E+02  0.86980489844E+01 -0.28246880970E+03  0.30875411586E+03  0.12000000000E+03 0.  0.
<mgrwt>
<rscale>  0 0.27478128E+03</rscale>
<asrwt>0</asrwt>
<pdfrwt beam="1">  1        1 0.28470596E-02 0.27478128E+03</pdfrwt>
<pdfrwt beam="2">  1       -1 0.15692460E+00 0.27478128E+03</pdfrwt>
<totfact> 0.12301411E+03</totfact>
</mgrwt>
</event>
<event>
 5    1  0.1162308E+001  0.2796784E+03  0.7818608E-02  0.1095865E+00
         -2   -1    0    0    0  501 -0.00000000000E+00  0.00000000000E+00  0.14469571228E+03  0.14469571228E+03  0.00000000000E+00 0. -1.
          2   -1    0    0  501    0  0.00000000000E+00 -0.00000000000E+00 -0.13514570372E+03  0.13514570372E+03  0.00000000000E+00 0. -1.
         35    2    1    2    0    0  0.00000000000E+00  0.00000000000E+00  0.95500085537E+01  0.27984141600E+03  0.27967841434E+03 0.  0.
         25    1    3    3    0    0 -0.52963937078E+02  0.38274592948E+02 -0.24989278268E+02  0.13890495716E+03  0.12000000000E+03 0.  0.
         25    1    3    3    0    0  0.52963937078E+02 -0.38274592948E+02  0.34539286821E+02  0.14093645884E+03  0.12000000000E+03 0.  0.
<mgrwt>
<rscale>  0 0.27967841E+03</rscale>
<asrwt>0</asrwt>
<pdfrwt beam="1">  1        2 0.20791647E-01 0.27967841E+03</pdfrwt>
<pdfrwt beam="2">  1       -2 0.22260879E-01 0.27967841E+03</pdfrwt>
<totfact> 0.46065047E+03</totfact>
</mgrwt>
</event>
<event>
 5    1  0.1162308E+001  0.2749432E+03  0.7818608E-02  0.1098483E+00
          2   -1    0    0  501    0  0.00000000000E+00  0.00000000000E+00  0.39375604143E+03  0.39375604143E+03  0.00000000000E+00 0. -1.
         -2   -1    0    0    0  501 -0.00000000000E+00 -0.00000000000E+00 -0.47995312983E+02  0.47995312983E+02  0.00000000000E+00 0. -1.
         35    2    1    2    0    0  0.00000000000E+00  0.00000000000E+00  0.34576072845E+03  0.44175135441E+03  0.27494322648E+03 0.  0.
         25    1    3    3    0    0 -0.42537721838E+02 -0.22725222353E+02  0.97991050859E+02  0.16225948218E+03  0.12000000000E+03 0.  0.
         25    1    3    3    0    0  0.42537721838E+02  0.22725222353E+02  0.24776967759E+03  0.27949187223E+03  0.12000000000E+03 0.  0.
<mgrwt>
<rscale>  0 0.27494323E+03</rscale>
<asrwt>0</asrwt>
<pdfrwt beam="1">  1        2 0.60577851E-01 0.27494323E+03</pdfrwt>
<pdfrwt beam="2">  1       -2 0.73838945E-02 0.27494323E+03</pdfrwt>
<totfact> 0.86498949E+03</totfact>
</mgrwt>
</event>
<event>
 5    1  0.1162308E+001  0.2754329E+03  0.7818608E-02  0.1098210E+00
         -2   -1    0    0    0  501 -0.00000000000E+00  0.00000000000E+00  0.11594428430E+03  0.11594428430E+03  0.00000000000E+00 0. -1.
          2   -1    0    0  501    0  0.00000000000E+00 -0.00000000000E+00 -0.16357707376E+03  0.16357707376E+03  0.00000000000E+00 0. -1.
         35    2    1    2    0    0  0.00000000000E+00  0.00000000000E+00 -0.47632789452E+02  0.27952135806E+03  0.27543294462E+03 0.  0.
         25    1    3    3    0    0 -0.48665609409E+02 -0.12731571143E+02  0.21968600833E+02  0.13195853086E+03  0.12000000000E+03 0.  0.
         25    1    3    3    0    0  0.48665609409E+02  0.12731571143E+02 -0.69601390286E+02  0.14756282720E+03  0.12000000000E+03 0.  0.
<mgrwt>
<rscale>  0 0.27543294E+03</rscale>
<asrwt>0</asrwt>
<pdfrwt beam="1">  1        2 0.25165704E-01 0.27543294E+03</pdfrwt>
<pdfrwt beam="2">  1       -2 0.17837582E-01 0.27543294E+03</pdfrwt>
<totfact> 0.54214208E+03</totfact>
</mgrwt>
</event>
<event>
 5    1  0.1162308E+001  0.2760122E+03  0.7818608E-02  0.1097887E+00
         -1   -1    0    0    0  501 -0.00000000000E+00  0.00000000000E+00  0.30228173586E+02  0.30228173586E+02  0.00000000000E+00 0. -1.
          1   -1    0    0  501    0  0.00000000000E+00 -0.00000000000E+00 -0.63006401639E+03  0.63006401639E+03  0.00000000000E+00 0. -1.
         35    2    1    2    0    0  0.00000000000E+00  0.00000000000E+00 -0.59983584280E+03  0.66029218997E+03  0.27601220594E+03 0.  0.
         25    1    3    3    0    0 -0.21542911314E+02 -0.64515826177E+02 -0.31042633218E+03  0.33969235577E+03  0.12000000000E+03 0.  0.
         25    1    3    3    0    0  0.21542911314E+02  0.64515826177E+02 -0.28940951062E+03  0.32059983421E+03  0.12000000000E+03 0.  0.
<mgrwt>
<rscale>  0 0.27601221E+03</rscale>
<asrwt>0</asrwt>
<pdfrwt beam="1">  1        1 0.96932917E-01 0.27601221E+03</pdfrwt>
<pdfrwt beam="2">  1       -1 0.46504886E-02 0.27601221E+03</pdfrwt>
<totfact> 0.64213221E+03</totfact>
</mgrwt>
</event>
<event>
 5    1  0.1162308E+001  0.2748661E+03  0.7818608E-02  0.1098526E+00
         -2   -1    0    0    0  501 -0.00000000000E+00  0.00000000000E+00  0.85695358578E+01  0.85695358578E+01  0.00000000000E+00 0.  1.
          2   -1    0    0  501    0  0.00000000000E+00 -0.00000000000E+00 -0.22040684003E+04  0.22040684003E+04  0.00000000000E+00 0.  1.
         35    2    1    2    0    0  0.00000000000E+00  0.00000000000E+00 -0.21954988644E+04  0.22126379361E+04  0.27486609969E+03 0.  0.
         25    1    3    3    0    0  0.48519778550E+02 -0.15331364533E+02 -0.14485082558E+04  0.14543608173E+04  0.12000000000E+03 0.  0.
         25    1    3    3    0    0 -0.48519778550E+02  0.15331364533E+02 -0.74699060858E+03  0.75827711884E+03  0.12000000000E+03 0.  0.
<mgrwt>
<rscale>  0 0.27486610E+03</rscale>
<asrwt>0</asrwt>
<pdfrwt beam="1">  1        2 0.33908746E+00 0.27486610E+03</pdfrwt>
<pdfrwt beam="2">  1       -2 0.13183901E-02 0.27486610E+03</pdfrwt>
<totfact> 0.82560589E+03</totfact>
</mgrwt>
</event>
<event>
 5    1  0.1162308E+001  0.2752489E+03  0.7818608E-02  0.1098313E+00
         -2   -1    0    0    0  501 -0.00000000000E+00  0.00000000000E+00  0.26965749751E+02  0.26965749751E+02  0.00000000000E+00 0. -1.
          2   -1    0    0  501    0  0.00000000000E+00 -0.00000000000E+00 -0.70239074479E+03  0.70239074479E+03  0.00000000000E+00 0. -1.
         35    2    1    2    0    0  0.00000000000E+00  0.00000000000E+00 -0.67542499503E+03  0.72935649454E+03  0.27524892771E+03 0.  0.
         25    1    3    3    0    0 -0.55439268254E+01 -0.50509132844E+02 -0.22044288828E+03  0.25608001605E+03  0.12000000000E+03 0.  0.
         25    1    3    3    0    0  0.55439268254E+01  0.50509132844E+02 -0.45498210675E+03  0.47327647849E+03  0.12000000000E+03 0.  0.
<mgrwt>
<rscale>  0 0.27524893E+03</rscale>
<asrwt>0</asrwt>
<pdfrwt beam="1">  1        2 0.10806010E+00 0.27524893E+03</pdfrwt>
<pdfrwt beam="2">  1       -2 0.41485776E-02 0.27524893E+03</pdfrwt>
<totfact> 0.10820096E+04</totfact>
</mgrwt>
</event>
<event>
 5    1  0.1162308E+001  0.2744728E+03  0.7818608E-02  0.1098747E+00
         -2   -1    0    0    0  501 -0.00000000000E+00  0.00000000000E+00  0.39096883203E+02  0.39096883203E+02  0.00000000000E+00 0. -1.
          2   -1    0    0  501    0  0.00000000000E+00 -0.00000000000E+00 -0.48172208670E+03  0.48172208670E+03  0.00000000000E+00 0. -1.
         35    2    1    2    0    0  0.00000000000E+00  0.00000000000E+00 -0.44262520349E+03  0.52081896990E+03  0.27447281949E+03 0.  0.
         25    1    3    3    0    0 -0.63140541268E+02  0.10073733954E+02 -0.25658942385E+03  0.29038998002E+03  0.12000000000E+03 0.  0.
         25    1    3    3    0    0  0.63140541268E+02 -0.10073733954E+02 -0.18603577964E+03  0.23042898988E+03  0.12000000000E+03 0.  0.
<mgrwt>
<rscale>  0 0.27447282E+03</rscale>
<asrwt>0</asrwt>
<pdfrwt beam="1">  1        2 0.74111092E-01 0.27447282E+03</pdfrwt>
<pdfrwt beam="2">  1       -2 0.60149050E-02 0.27447282E+03</pdfrwt>
<totfact> 0.95146516E+03</totfact>
</mgrwt>
</event>
<event>
 5    1  0.1162308E+001  0.2755561E+03  0.7818608E-02  0.1098141E+00
          1   -1    0    0  501    0  0.00000000000E+00  0.00000000000E+00  0.80659483811E+02  0.80659483811E+02  0.00000000000E+00 0. -1.
         -1   -1    0    0    0  501 -0.00000000000E+00 -0.00000000000E+00 -0.23534479025E+03  0.23534479025E+03  0.00000000000E+00 0. -1.
         35    2    1    2    0    0  0.00000000000E+00  0.00000000000E+00 -0.15468530644E+03  0.31600427406E+03  0.27555608721E+03 0.  0.
         25    1    3    3    0    0  0.49785921772E+02  0.13095531721E+02 -0.26927569805E+02  0.13332375997E+03  0.12000000000E+03 0.  0.
         25    1    3    3    0    0 -0.49785921772E+02 -0.13095531721E+02 -0.12775773663E+03  0.18268051409E+03  0.12000000000E+03 0.  0.
<mgrwt>
<rscale>  0 0.27555609E+03</rscale>
<asrwt>0</asrwt>
<pdfrwt beam="1">  1        1 0.12409152E-01 0.27555609E+03</pdfrwt>
<pdfrwt beam="2">  1       -1 0.36206890E-01 0.27555609E+03</pdfrwt>
<totfact> 0.35177885E+03</totfact>
</mgrwt>
</event>
<event>
 5    1  0.1162308E+001  0.2750761E+03  0.7818608E-02  0.1098409E+00
         -2   -1    0    0    0  501 -0.00000000000E+00  0.00000000000E+00  0.14281978113E+02  0.14281978113E+02  0.00000000000E+00 0.  1.
          2   -1    0    0  501    0  0.00000000000E+00 -0.00000000000E+00 -0.13245168458E+04  0.13245168458E+04  0.00000000000E+00 0.  1.
         35    2    1    2    0    0  0.00000000000E+00  0.00000000000E+00 -0.13102348677E+04  0.13387988239E+04  0.27507613930E+03 0.  0.
         25    1    3    3    0    0  0.27198075350E+02  0.20519887446E+02 -0.37316998431E+03  0.39346745516E+03  0.12000000000E+03 0.  0.
         25    1    3    3    0    0 -0.27198075350E+02 -0.20519887446E+02 -0.93706488337E+03  0.94533136875E+03  0.12000000000E+03 0.  0.
<mgrwt>
<rscale>  0 0.27507614E+03</rscale>
<asrwt>0</asrwt>
<pdfrwt beam="1">  1        2 0.20377176E+00 0.27507614E+03</pdfrwt>
<pdfrwt beam="2">  1       -2 0.21972281E-02 0.27507614E+03</pdfrwt>
<totfact> 0.11433851E+04</totfact>
</mgrwt>
</event>
<event>
 5    1  0.1162308E+001  0.2697658E+03  0.7818608E-02  0.1101414E+00
          2   -1    0    0  501    0  0.00000000000E+00  0.00000000000E+00  0.63095427025E+03  0.63095427025E+03  0.00000000000E+00 0.  1.
         -2   -1    0    0    0  501 -0.00000000000E+00 -0.00000000000E+00 -0.28834735166E+02  0.28834735166E+02  0.00000000000E+00 0.  1.
         35    2    1    2    0    0  0.00000000000E+00  0.00000000000E+00  0.60211953508E+03  0.65978900541E+03  0.26976581907E+03 0.  0.
         25    1    3    3    0    0 -0.47210935409E+02 -0.39549938247E+02  0.29965637584E+03  0.32861377576E+03  0.12000000000E+03 0.  0.
         25    1    3    3    0    0  0.47210935409E+02  0.39549938247E+02  0.30246315924E+03  0.33117522965E+03  0.12000000000E+03 0.  0.
<mgrwt>
<rscale>  0 0.26976582E+03</rscale>
<asrwt>0</asrwt>
<pdfrwt beam="1">  1        2 0.97069877E-01 0.26976582E+03</pdfrwt>
<pdfrwt beam="2">  1       -2 0.44361136E-02 0.26976582E+03</pdfrwt>
<totfact> 0.11108471E+04</totfact>
</mgrwt>
</event>
<event>
 5    1  0.1162308E+001  0.2776271E+03  0.7818608E-02  0.1096992E+00
          2   -1    0    0  501    0  0.00000000000E+00  0.00000000000E+00  0.49933442013E+02  0.49933442013E+02  0.00000000000E+00 0.  1.
         -2   -1    0    0    0  501 -0.00000000000E+00 -0.00000000000E+00 -0.38589781011E+03  0.38589781011E+03  0.00000000000E+00 0.  1.
         35    2    1    2    0    0  0.00000000000E+00  0.00000000000E+00 -0.33596436810E+03  0.43583125212E+03  0.27762713069E+03 0.  0.
         25    1    3    3    0    0  0.31835262211E+02 -0.34892082785E+02 -0.24861570727E+03  0.28007268925E+03  0.12000000000E+03 0.  0.
         25    1    3    3    0    0 -0.31835262211E+02  0.34892082785E+02 -0.87348660831E+02  0.15575856288E+03  0.12000000000E+03 0.  0.
<mgrwt>
<rscale>  0 0.27762713E+03</rscale>
<asrwt>0</asrwt>
<pdfrwt beam="1">  1        2 0.76820679E-02 0.27762713E+03</pdfrwt>
<pdfrwt beam="2">  1       -2 0.59368895E-01 0.27762713E+03</pdfrwt>
<totfact> 0.24158554E+03</totfact>
</mgrwt>
</event>
<event>
 5    1  0.1162308E+001  0.2751753E+03  0.7818608E-02  0.1098354E+00
         -1   -1    0    0    0  501 -0.00000000000E+00  0.00000000000E+00  0.15551561804E+02  0.15551561804E+02  0.00000000000E+00 0. -1.
          1   -1    0    0  501    0  0.00000000000E+00 -0.00000000000E+00 -0.12172645149E+04  0.12172645149E+04  0.00000000000E+00 0. -1.
         35    2    1    2    0    0  0.00000000000E+00  0.00000000000E+00 -0.12017129531E+04  0.12328160767E+04  0.27517532110E+03 0.  0.
         25    1    3    3    0    0  0.55473825903E+02 -0.39012108072E+01 -0.77073480379E+03  0.78200044922E+03  0.12000000000E+03 0.  0.
         25    1    3    3    0    0 -0.55473825903E+02  0.39012108072E+01 -0.43097814932E+03  0.45081562750E+03  0.12000000000E+03 0.  0.
<mgrwt>
<rscale>  0 0.27517532E+03</rscale>
<asrwt>0</asrwt>
<pdfrwt beam="1">  1        1 0.18727152E+00 0.27517532E+03</pdfrwt>
<pdfrwt beam="2">  1       -1 0.23925473E-02 0.27517532E+03</pdfrwt>
<totfact> 0.58664488E+03</totfact>
</mgrwt>
</event>
<event>
 5    1  0.1162308E+001  0.2745934E+03  0.7818608E-02  0.1098679E+00
          2   -1    0    0  501    0  0.00000000000E+00  0.00000000000E+00  0.28734027097E+03  0.28734027097E+03  0.00000000000E+00 0.  1.
         -2   -1    0    0    0  501 -0.00000000000E+00 -0.00000000000E+00 -0.65603004159E+02  0.65603004159E+02  0.00000000000E+00 0.  1.
         35    2    1    2    0    0  0.00000000000E+00  0.00000000000E+00  0.22173726681E+03  0.35294327513E+03  0.27459340845E+03 0.  0.
         25    1    3    3    0    0  0.25862498464E+02 -0.35919248537E+02  0.17502354155E+03  0.21677707753E+03  0.12000000000E+03 0.  0.
         25    1    3    3    0    0 -0.25862498464E+02  0.35919248537E+02  0.46713725257E+02  0.13616619760E+03  0.12000000000E+03 0.  0.
<mgrwt>
<rscale>  0 0.27459341E+03</rscale>
<asrwt>0</asrwt>
<pdfrwt beam="1">  1        2 0.44206195E-01 0.27459341E+03</pdfrwt>
<pdfrwt beam="2">  1       -2 0.10092770E-01 0.27459341E+03</pdfrwt>
<totfact> 0.74352265E+03</totfact>
</mgrwt>
</event>
<event>
 5    1  0.1162308E+001  0.2767540E+03  0.7818608E-02  0.1097475E+00
          2   -1    0    0  501    0  0.00000000000E+00  0.00000000000E+00  0.23723714289E+03  0.23723714289E+03  0.00000000000E+00 0.  1.
         -2   -1    0    0    0  501 -0.00000000000E+00 -0.00000000000E+00 -0.80713309651E+02  0.80713309651E+02  0.00000000000E+00 0.  1.
         35    2    1    2    0    0  0.00000000000E+00  0.00000000000E+00  0.15652383324E+03  0.31795045254E+03  0.27675400611E+03 0.  0.
         25    1    3    3    0    0  0.59869736531E+02 -0.14700234276E+02  0.42894455117E+02  0.14156417810E+03  0.12000000000E+03 0.  0.
         25    1    3    3    0    0 -0.59869736531E+02  0.14700234276E+02  0.11362937812E+03  0.17638627444E+03  0.12000000000E+03 0.  0.
<mgrwt>
<rscale>  0 0.27675401E+03</rscale>
<asrwt>0</asrwt>
<pdfrwt beam="1">  1        2 0.36498022E-01 0.27675401E+03</pdfrwt>
<pdfrwt beam="2">  1       -2 0.12417432E-01 0.27675401E+03</pdfrwt>
<totfact> 0.65568984E+03</totfact>
</mgrwt>
</event>
<event>
 5    1  0.1162308E+001  0.2738815E+03  0.7818608E-02  0.1099078E+00
         -1   -1    0    0    0  501 -0.00000000000E+00  0.00000000000E+00  0.34198922266E+03  0.34198922266E+03  0.00000000000E+00 0.  1.
          1   -1    0    0  501    0  0.00000000000E+00 -0.00000000000E+00 -0.54834396287E+02  0.54834396287E+02  0.00000000000E+00 0.  1.
         35    2    1    2    0    0  0.00000000000E+00  0.00000000000E+00  0.28715482637E+03  0.39682361895E+03  0.27388152593E+03 0.  0.
         25    1    3    3    0    0 -0.42128237578E+00  0.65808978089E+02  0.15033822350E+03  0.20330415766E+03  0.12000000000E+03 0.  0.
         25    1    3    3    0    0  0.42128237578E+00 -0.65808978089E+02  0.13681660287E+03  0.19351946129E+03  0.12000000000E+03 0.  0.
<mgrwt>
<rscale>  0 0.27388153E+03</rscale>
<asrwt>0</asrwt>
<pdfrwt beam="1">  1        1 0.84360612E-02 0.27388153E+03</pdfrwt>
<pdfrwt beam="2">  1       -1 0.52613725E-01 0.27388153E+03</pdfrwt>
<totfact> 0.30085127E+03</totfact>
</mgrwt>
</event>
<event>
 5    1  0.1162308E+001  0.2751018E+03  0.7818608E-02  0.1098395E+00
         -2   -1    0    0    0  501 -0.00000000000E+00  0.00000000000E+00  0.23930250415E+03  0.23930250415E+03  0.00000000000E+00 0. -1.
          2   -1    0    0  501    0  0.00000000000E+00 -0.00000000000E+00 -0.79064144152E+02  0.79064144152E+02  0.00000000000E+00 0. -1.
         35    2    1    2    0    0  0.00000000000E+00  0.00000000000E+00  0.16023836000E+03  0.31836664831E+03  0.27510178251E+03 0.  0.
         25    1    3    3    0    0 -0.50191576459E+01 -0.64524026507E+02  0.59042089658E+02  0.14857493157E+03  0.12000000000E+03 0.  0.
         25    1    3    3    0    0  0.50191576459E+01  0.64524026507E+02  0.10119627035E+03  0.16979171674E+03  0.12000000000E+03 0.  0.
<mgrwt>
<rscale>  0 0.27510178E+03</rscale>
<asrwt>0</asrwt>
<pdfrwt beam="1">  1        2 0.12163715E-01 0.27510178E+03</pdfrwt>
<pdfrwt beam="2">  1       -2 0.36815770E-01 0.27510178E+03</pdfrwt>
<totfact> 0.34917351E+03</totfact>
</mgrwt>
</event>
<event>
 5    1  0.1162308E+001  0.2745205E+03  0.7818608E-02  0.1098720E+00
          2   -1    0    0  501    0  0.00000000000E+00  0.00000000000E+00  0.97063935513E+03  0.97063935513E+03  0.00000000000E+00 0. -1.
         -2   -1    0    0    0  501 -0.00000000000E+00 -0.00000000000E+00 -0.19410279025E+02  0.19410279025E+02  0.00000000000E+00 0. -1.
         35    2    1    2    0    0  0.00000000000E+00  0.00000000000E+00  0.95122907610E+03  0.99004963415E+03  0.27452053268E+03 0.  0.
         25    1    3    3    0    0 -0.60603562693E+02  0.44928797639E+00  0.37570904528E+03  0.39903669051E+03  0.12000000000E+03 0.  0.
         25    1    3    3    0    0  0.60603562693E+02 -0.44928797639E+00  0.57552003083E+03  0.59101294364E+03  0.12000000000E+03 0.  0.
<mgrwt>
<rscale>  0 0.27452053E+03</rscale>
<asrwt>0</asrwt>
<pdfrwt beam="1">  1        2 0.14932909E+00 0.27452053E+03</pdfrwt>
<pdfrwt beam="2">  1       -2 0.29861975E-02 0.27452053E+03</pdfrwt>
<totfact> 0.11647238E+04</totfact>
</mgrwt>
</event>
<event>
 5    1  0.1162308E+001  0.2752319E+03  0.7818608E-02  0.1098322E+00
          3   -1    0    0  501    0  0.00000000000E+00  0.00000000000E+00  0.95406951268E+02  0.95406951268E+02  0.00000000000E+00 0.  1.
         -3   -1    0    0    0  501 -0.00000000000E+00 -0.00000000000E+00 -0.19849868864E+03  0.19849868864E+03  0.00000000000E+00 0.  1.
         35    2    1    2    0    0  0.00000000000E+00  0.00000000000E+00 -0.10309173738E+03  0.29390563991E+03  0.27523193648E+03 0.  0.
         25    1    3    3    0    0  0.63164153066E+02 -0.23179748840E+02 -0.47981157951E+02  0.14570244510E+03  0.12000000000E+03 0.  0.
         25    1    3    3    0    0 -0.63164153066E+02  0.23179748840E+02 -0.55110579425E+02  0.14820319482E+03  0.12000000000E+03 0.  0.
<mgrwt>
<rscale>  0 0.27523194E+03</rscale>
<asrwt>0</asrwt>
<pdfrwt beam="1">  1        3 0.14677993E-01 0.27523194E+03</pdfrwt>
<pdfrwt beam="2">  1       -3 0.30538260E-01 0.27523194E+03</pdfrwt>
<totfact> 0.10177900E+03</totfact>
</mgrwt>
</event>
<event>
 5    1  0.1162308E+001  0.2760300E+03  0.7818608E-02  0.1097877E+00
         -2   -1    0    0    0  501 -0.00000000000E+00  0.00000000000E+00  0.14753630216E+04  0.14753630216E+04  0.00000000000E+00 0. -1.
          2   -1    0    0  501    0  0.00000000000E+00 -0.00000000000E+00 -0.12910818904E+02  0.12910818904E+02  0.00000000000E+00 0. -1.
         35    2    1    2    0    0  0.00000000000E+00  0.00000000000E+00  0.14624522027E+04  0.14882738405E+04  0.27603003307E+03 0.  0.
         25    1    3    3    0    0 -0.43003944360E+02 -0.50001231950E+02  0.63804425753E+03  0.65257178685E+03  0.12000000000E+03 0.  0.
         25    1    3    3    0    0  0.43003944360E+02  0.50001231950E+02  0.82440794521E+03  0.83570205370E+03  0.12000000000E+03 0.  0.
<mgrwt>
<rscale>  0 0.27603003E+03</rscale>
<asrwt>0</asrwt>
<pdfrwt beam="1">  1        2 0.19862810E-02 0.27603003E+03</pdfrwt>
<pdfrwt beam="2">  1       -2 0.22697879E+00 0.27603003E+03</pdfrwt>
<totfact> 0.54365306E+02</totfact>
</mgrwt>
</event>
<event>
 5    1  0.1162308E+001  0.2750457E+03  0.7818608E-02  0.1098426E+00
          2   -1    0    0  501    0  0.00000000000E+00  0.00000000000E+00  0.60194776756E+03  0.60194776756E+03  0.00000000000E+00 0.  1.
         -2   -1    0    0    0  501 -0.00000000000E+00 -0.00000000000E+00 -0.31418903418E+02  0.31418903418E+02  0.00000000000E+00 0.  1.
         35    2    1    2    0    0  0.00000000000E+00  0.00000000000E+00  0.57052886415E+03  0.63336667098E+03  0.27504573272E+03 0.  0.
         25    1    3    3    0    0  0.66626407825E+02  0.83253811457E+01  0.28057413812E+03  0.31245837670E+03  0.12000000000E+03 0.  0.
         25    1    3    3    0    0 -0.66626407825E+02 -0.83253811457E+01  0.28995472602E+03  0.32090829428E+03  0.12000000000E+03 0.  0.
<mgrwt>
<rscale>  0 0.27504573E+03</rscale>
<asrwt>0</asrwt>
<pdfrwt beam="1">  1        2 0.92607340E-01 0.27504573E+03</pdfrwt>
<pdfrwt beam="2">  1       -2 0.48336779E-02 0.27504573E+03</pdfrwt>
<totfact> 0.10314433E+04</totfact>
</mgrwt>
</event>
<event>
 5    1  0.1162308E+001  0.2746135E+03  0.7818608E-02  0.1098668E+00
          1   -1    0    0  501    0  0.00000000000E+00  0.00000000000E+00  0.23657565259E+02  0.23657565259E+02  0.00000000000E+00 0. -1.
         -1   -1    0    0    0  501 -0.00000000000E+00 -0.00000000000E+00 -0.79691801374E+03  0.79691801374E+03  0.00000000000E+00 0. -1.
         35    2    1    2    0    0  0.00000000000E+00  0.00000000000E+00 -0.77326044848E+03  0.82057557900E+03  0.27461347320E+03 0.  0.
         25    1    3    3    0    0  0.60521636340E+02  0.96423840632E+01 -0.46553536458E+03  0.48464318804E+03  0.12000000000E+03 0.  0.
         25    1    3    3    0    0 -0.60521636340E+02 -0.96423840632E+01 -0.30772508390E+03  0.33593239096E+03  0.12000000000E+03 0.  0.
<mgrwt>
<rscale>  0 0.27461347E+03</rscale>
<asrwt>0</asrwt>
<pdfrwt beam="1">  1        1 0.36396258E-02 0.27461347E+03</pdfrwt>
<pdfrwt beam="2">  1       -1 0.12260276E+00 0.27461347E+03</pdfrwt>
<totfact> 0.16295950E+03</totfact>
</mgrwt>
</event>
<event>
 5    1  0.1162308E+001  0.2732638E+03  0.7818608E-02  0.1099426E+00
         -2   -1    0    0    0  501 -0.00000000000E+00  0.00000000000E+00  0.46887375082E+02  0.46887375082E+02  0.00000000000E+00 0.  1.
          2   -1    0    0  501    0  0.00000000000E+00 -0.00000000000E+00 -0.39815139487E+03  0.39815139487E+03  0.00000000000E+00 0.  1.
         35    2    1    2    0    0  0.00000000000E+00  0.00000000000E+00 -0.35126401979E+03  0.44503876995E+03  0.27326378312E+03 0.  0.
         25    1    3    3    0    0 -0.28570002472E+02 -0.20639763600E+02 -0.26522051839E+03  0.29323057184E+03  0.12000000000E+03 0.  0.
         25    1    3    3    0    0  0.28570002472E+02  0.20639763600E+02 -0.86043501395E+02  0.15180819812E+03  0.12000000000E+03 0.  0.
<mgrwt>
<rscale>  0 0.27326378E+03</rscale>
<asrwt>0</asrwt>
<pdfrwt beam="1">  1        2 0.61254058E-01 0.27326378E+03</pdfrwt>
<pdfrwt beam="2">  1       -2 0.72134427E-02 0.27326378E+03</pdfrwt>
<totfact> 0.88597179E+03</totfact>
</mgrwt>
</event>
<event>
 5    1  0.1162308E+001  0.2758282E+03  0.7818608E-02  0.1097990E+00
          2   -1    0    0  501    0  0.00000000000E+00  0.00000000000E+00  0.93780793954E+03  0.93780793954E+03  0.00000000000E+00 0.  1.
         -2   -1    0    0    0  501 -0.00000000000E+00 -0.00000000000E+00 -0.20281662304E+02  0.20281662304E+02  0.00000000000E+00 0.  1.
         35    2    1    2    0    0  0.00000000000E+00  0.00000000000E+00  0.91752627723E+03  0.95808960184E+03  0.27582823594E+03 0.  0.
         25    1    3    3    0    0  0.26915096199E+02 -0.43960251781E+02  0.61267402612E+03  0.62643945312E+03  0.12000000000E+03 0.  0.
         25    1    3    3    0    0 -0.26915096199E+02  0.43960251781E+02  0.30485225112E+03  0.33165014873E+03  0.12000000000E+03 0.  0.
<mgrwt>
<rscale>  0 0.27582824E+03</rscale>
<asrwt>0</asrwt>
<pdfrwt beam="1">  1        2 0.14427811E+00 0.27582824E+03</pdfrwt>
<pdfrwt beam="2">  1       -2 0.31202565E-02 0.27582824E+03</pdfrwt>
<totfact> 0.11441007E+04</totfact>
</mgrwt>
</event>
<event>
 5    1  0.1162308E+001  0.2714258E+03  0.7818608E-02  0.1100466E+00
          2   -1    0    0  501    0  0.00000000000E+00  0.00000000000E+00  0.17438957875E+03  0.17438957875E+03  0.00000000000E+00 0.  1.
         -2   -1    0    0    0  501 -0.00000000000E+00 -0.00000000000E+00 -0.10561404391E+03  0.10561404391E+03  0.00000000000E+00 0.  1.
         35    2    1    2    0    0  0.00000000000E+00  0.00000000000E+00  0.68775534840E+02  0.28000362266E+03  0.27142578085E+03 0.  0.
         25    1    3    3    0    0 -0.20660327632E+02 -0.58489386110E+02  0.20932121815E+02  0.13669678544E+03  0.12000000000E+03 0.  0.
         25    1    3    3    0    0  0.20660327632E+02  0.58489386110E+02  0.47843413025E+02  0.14330683722E+03  0.12000000000E+03 0.  0.
<mgrwt>
<rscale>  0 0.27142578E+03</rscale>
<asrwt>0</asrwt>
<pdfrwt beam="1">  1        2 0.26829166E-01 0.27142578E+03</pdfrwt>
<pdfrwt beam="2">  1       -2 0.16248314E-01 0.27142578E+03</pdfrwt>
<totfact> 0.59000443E+03</totfact>
</mgrwt>
</event>
<event>
 5    1  0.1162308E+001  0.2753172E+03  0.7818608E-02  0.1098274E+00
         -2   -1    0    0    0  501 -0.00000000000E+00  0.00000000000E+00  0.33651937259E+02  0.33651937259E+02  0.00000000000E+00 0.  1.
          2   -1    0    0  501    0  0.00000000000E+00 -0.00000000000E+00 -0.56311426105E+03  0.56311426105E+03  0.00000000000E+00 0.  1.
         35    2    1    2    0    0  0.00000000000E+00  0.00000000000E+00 -0.52946232379E+03  0.59676619831E+03  0.27531716824E+03 0.  0.
         25    1    3    3    0    0 -0.92082659718E+01 -0.63819075047E+02 -0.30765864157E+03  0.33646917576E+03  0.12000000000E+03 0.  0.
         25    1    3    3    0    0  0.92082659718E+01  0.63819075047E+02 -0.22180368222E+03  0.26029702255E+03  0.12000000000E+03 0.  0.
<mgrwt>
<rscale>  0 0.27531717E+03</rscale>
<asrwt>0</asrwt>
<pdfrwt beam="1">  1        2 0.86632967E-01 0.27531717E+03</pdfrwt>
<pdfrwt beam="2">  1       -2 0.51772209E-02 0.27531717E+03</pdfrwt>
<totfact> 0.10035644E+04</totfact>
</mgrwt>
</event>
<event>
 5    1  0.1162308E+001  0.2751232E+03  0.7818608E-02  0.1098383E+00
          2   -1    0    0  501    0  0.00000000000E+00  0.00000000000E+00  0.60901917387E+03  0.60901917387E+03  0.00000000000E+00 0. -1.
         -2   -1    0    0    0  501 -0.00000000000E+00 -0.00000000000E+00 -0.31071587134E+02  0.31071587134E+02  0.00000000000E+00 0. -1.
         35    2    1    2    0    0  0.00000000000E+00  0.00000000000E+00  0.57794758673E+03  0.64009076100E+03  0.27512318933E+03 0.  0.
         25    1    3    3    0    0  0.24882529644E+02  0.27734567766E+02  0.15871038042E+03  0.20242858341E+03  0.12000000000E+03 0.  0.
         25    1    3    3    0    0 -0.24882529644E+02 -0.27734567766E+02  0.41923720632E+03  0.43766217759E+03  0.12000000000E+03 0.  0.
<mgrwt>
<rscale>  0 0.27512319E+03</rscale>
<asrwt>0</asrwt>
<pdfrwt beam="1">  1        2 0.93695249E-01 0.27512319E+03</pdfrwt>
<pdfrwt beam="2">  1       -2 0.47802446E-02 0.27512319E+03</pdfrwt>
<totfact> 0.10348261E+04</totfact>
</mgrwt>
</event>
<event>
 5    1  0.1162308E+001  0.2756949E+03  0.7818608E-02  0.1098064E+00
          2   -1    0    0  501    0  0.00000000000E+00  0.00000000000E+00  0.34148734719E+04  0.34148734719E+04  0.00000000000E+00 0. -1.
         -2   -1    0    0    0  501 -0.00000000000E+00 -0.00000000000E+00 -0.55644564492E+01  0.55644564492E+01  0.00000000000E+00 0. -1.
         35    2    1    2    0    0  0.00000000000E+00  0.00000000000E+00  0.34093090154E+04  0.34204379283E+04  0.27569486549E+03 0.  0.
         25    1    3    3    0    0 -0.45829899956E+02 -0.38366830898E+02  0.21027348184E+04  0.21070040602E+04  0.12000000000E+03 0.  0.
         25    1    3    3    0    0  0.45829899956E+02  0.38366830898E+02  0.13065741971E+04  0.13134338681E+04  0.12000000000E+03 0.  0.
<mgrwt>
<rscale>  0 0.27569487E+03</rscale>
<asrwt>0</asrwt>
<pdfrwt beam="1">  1        2 0.52536347E+00 0.27569487E+03</pdfrwt>
<pdfrwt beam="2">  1       -2 0.85607295E-03 0.27569487E+03</pdfrwt>
<totfact> 0.30807838E+03</totfact>
</mgrwt>
</event>
<event>
 5    1  0.1162308E+001  0.2747706E+03  0.7818608E-02  0.1098580E+00
          1   -1    0    0  501    0  0.00000000000E+00  0.00000000000E+00  0.55692623303E+03  0.55692623303E+03  0.00000000000E+00 0. -1.
         -1   -1    0    0    0  501 -0.00000000000E+00 -0.00000000000E+00 -0.33890878197E+02  0.33890878197E+02  0.00000000000E+00 0. -1.
         35    2    1    2    0    0  0.00000000000E+00  0.00000000000E+00  0.52303535483E+03  0.59081711123E+03  0.27477058888E+03 0.  0.
         25    1    3    3    0    0  0.41286829482E+02 -0.36081805388E+02  0.34390841898E+03  0.36834698263E+03  0.12000000000E+03 0.  0.
         25    1    3    3    0    0 -0.41286829482E+02  0.36081805388E+02  0.17912693585E+03  0.22247012859E+03  0.12000000000E+03 0.  0.
<mgrwt>
<rscale>  0 0.27477059E+03</rscale>
<asrwt>0</asrwt>
<pdfrwt beam="1">  1        1 0.85680953E-01 0.27477059E+03</pdfrwt>
<pdfrwt beam="2">  1       -1 0.52139816E-02 0.27477059E+03</pdfrwt>
<totfact> 0.64176273E+03</totfact>
</mgrwt>
</event>
<event>
 5    1  0.1162308E+001  0.2748364E+03  0.7818608E-02  0.1098543E+00
          2   -1    0    0  501    0  0.00000000000E+00  0.00000000000E+00  0.22358298827E+03  0.22358298827E+03  0.00000000000E+00 0. -1.
         -2   -1    0    0    0  501 -0.00000000000E+00 -0.00000000000E+00 -0.84459746915E+02  0.84459746915E+02  0.00000000000E+00 0. -1.
         35    2    1    2    0    0  0.00000000000E+00  0.00000000000E+00  0.13912324135E+03  0.30804273518E+03  0.27483640664E+03 0.  0.
         25    1    3    3    0    0 -0.55726133219E+02 -0.14765649618E+02  0.31382260735E+02  0.13677818767E+03  0.12000000000E+03 0.  0.
         25    1    3    3    0    0  0.55726133219E+02  0.14765649618E+02  0.10774098062E+03  0.17126454752E+03  0.12000000000E+03 0.  0.
<mgrwt>
<rscale>  0 0.27483641E+03</rscale>
<asrwt>0</asrwt>
<pdfrwt beam="1">  1        2 0.34397382E-01 0.27483641E+03</pdfrwt>
<pdfrwt beam="2">  1       -2 0.12993807E-01 0.27483641E+03</pdfrwt>
<totfact> 0.64942851E+03</totfact>
</mgrwt>
</event>
<event>
 5    1  0.1162308E+001  0.2741849E+03  0.7818608E-02  0.1098908E+00
          2   -1    0    0  501    0  0.00000000000E+00  0.00000000000E+00  0.64623458565E+03  0.64623458565E+03  0.00000000000E+00 0.  1.
         -2   -1    0    0    0  501 -0.00000000000E+00 -0.00000000000E+00 -0.29082844647E+02  0.29082844647E+02  0.00000000000E+00 0.  1.
         35    2    1    2    0    0  0.00000000000E+00  0.00000000000E+00  0.61715174101E+03  0.67531743030E+03  0.27418490155E+03 0.  0.
         25    1    3    3    0    0 -0.31639083460E+02 -0.56979066774E+02  0.27874463765E+03  0.31039687285E+03  0.12000000000E+03 0.  0.
         25    1    3    3    0    0  0.31639083460E+02  0.56979066774E+02  0.33840710335E+03  0.36492055745E+03  0.12000000000E+03 0.  0.
<mgrwt>
<rscale>  0 0.27418490E+03</rscale>
<asrwt>0</asrwt>
<pdfrwt beam="1">  1        2 0.99420694E-01 0.27418490E+03</pdfrwt>
<pdfrwt beam="2">  1       -2 0.44742843E-02 0.27418490E+03</pdfrwt>
<totfact> 0.10666829E+04</totfact>
</mgrwt>
</event>
<event>
 5    1  0.1162308E+001  0.2745360E+03  0.7818608E-02  0.1098711E+00
          1   -1    0    0  501    0  0.00000000000E+00  0.00000000000E+00  0.10210911484E+04  0.10210911484E+04  0.00000000000E+00 0. -1.
         -1   -1    0    0    0  501 -0.00000000000E+00 -0.00000000000E+00 -0.18453307145E+02  0.18453307145E+02  0.00000000000E+00 0. -1.
         35    2    1    2    0    0  0.00000000000E+00  0.00000000000E+00  0.10026378413E+04  0.10395444556E+04  0.27453603468E+03 0.  0.
         25    1    3    3    0    0  0.85569954084E+01  0.42670316901E+02  0.31016261656E+03  0.33540248482E+03  0.12000000000E+03 0.  0.
         25    1    3    3    0    0 -0.85569954084E+01 -0.42670316901E+02  0.69247522470E+03  0.70414197073E+03  0.12000000000E+03 0.  0.
<mgrwt>
<rscale>  0 0.27453603E+03</rscale>
<asrwt>0</asrwt>
<pdfrwt beam="1">  1        1 0.15709090E+00 0.27453603E+03</pdfrwt>
<pdfrwt beam="2">  1       -1 0.28389711E-02 0.27453603E+03</pdfrwt>
<totfact> 0.63069395E+03</totfact>
</mgrwt>
</event>
<event>
 5    1  0.1162308E+001  0.2743160E+03  0.7818608E-02  0.1098835E+00
          2   -1    0    0  501    0  0.00000000000E+00  0.00000000000E+00  0.18955102657E+03  0.18955102657E+03  0.00000000000E+00 0. -1.
         -2   -1    0    0    0  501 -0.00000000000E+00 -0.00000000000E+00 -0.99246752410E+02  0.99246752410E+02  0.00000000000E+00 0. -1.
         35    2    1    2    0    0  0.00000000000E+00  0.00000000000E+00  0.90304274165E+02  0.28879777898E+03  0.27431604987E+03 0.  0.
         25    1    3    3    0    0  0.49029053108E+01  0.17399354895E+02 -0.22140535521E+02  0.12335712117E+03  0.12000000000E+03 0.  0.
         25    1    3    3    0    0 -0.49029053108E+01 -0.17399354895E+02  0.11244480969E+03  0.16544065781E+03  0.12000000000E+03 0.  0.
<mgrwt>
<rscale>  0 0.27431605E+03</rscale>
<asrwt>0</asrwt>
<pdfrwt beam="1">  1        2 0.29161696E-01 0.27431605E+03</pdfrwt>
<pdfrwt beam="2">  1       -2 0.15268731E-01 0.27431605E+03</pdfrwt>
<totfact> 0.59689173E+03</totfact>
</mgrwt>
</event>
<event>
 5    1  0.1162308E+001  0.2872880E+03  0.7818608E-02  0.1091774E+00
         -2   -1    0    0    0  501 -0.00000000000E+00  0.00000000000E+00  0.87521125594E+01  0.87521125594E+01  0.00000000000E+00 0. -1.
          2   -1    0    0  501    0  0.00000000000E+00 -0.00000000000E+00 -0.23575556915E+04  0.23575556915E+04  0.00000000000E+00 0. -1.
         35    2    1    2    0    0  0.00000000000E+00  0.00000000000E+00 -0.23488035790E+04  0.23663078041E+04  0.28728795852E+03 0.  0.
         25    1    3    3    0    0 -0.16597820864E+02  0.76158272394E+02 -0.12779430635E+04  0.12859292530E+04  0.12000000000E+03 0.  0.
         25    1    3    3    0    0  0.16597820864E+02 -0.76158272394E+02 -0.10708605154E+04  0.10803785511E+04  0.12000000000E+03 0.  0.
<mgrwt>
<rscale>  0 0.28728796E+03</rscale>
<asrwt>0</asrwt>
<pdfrwt beam="1">  1        2 0.36270161E+00 0.28728796E+03</pdfrwt>
<pdfrwt beam="2">  1       -2 0.13464761E-02 0.28728796E+03</pdfrwt>
<totfact> 0.66243514E+03</totfact>
</mgrwt>
</event>
<event>
 5    1  0.1162308E+001  0.2742701E+03  0.7818608E-02  0.1098860E+00
          2   -1    0    0  501    0  0.00000000000E+00  0.00000000000E+00  0.94903642929E+03  0.94903642929E+03  0.00000000000E+00 0.  1.
         -2   -1    0    0    0  501 -0.00000000000E+00 -0.00000000000E+00 -0.19815913267E+02  0.19815913267E+02  0.00000000000E+00 0.  1.
         35    2    1    2    0    0  0.00000000000E+00  0.00000000000E+00  0.92922051602E+03  0.96885234256E+03  0.27427011190E+03 0.  0.
         25    1    3    3    0    0 -0.33185248882E+02  0.48646251444E+02  0.35640430955E+03  0.38064649005E+03  0.12000000000E+03 0.  0.
         25    1    3    3    0    0  0.33185248882E+02 -0.48646251444E+02  0.57281620648E+03  0.58820585251E+03  0.12000000000E+03 0.  0.
<mgrwt>
<rscale>  0 0.27427011E+03</rscale>
<asrwt>0</asrwt>
<pdfrwt beam="1">  1        2 0.14600557E+00 0.27427011E+03</pdfrwt>
<pdfrwt beam="2">  1       -2 0.30486028E-02 0.27427011E+03</pdfrwt>
<totfact> 0.11650306E+04</totfact>
</mgrwt>
</event>
<event>
 5    1  0.1162308E+001  0.2743843E+03  0.7818608E-02  0.1098796E+00
          2   -1    0    0  501    0  0.00000000000E+00  0.00000000000E+00  0.90144136710E+03  0.90144136710E+03  0.00000000000E+00 0.  1.
         -2   -1    0    0    0  501 -0.00000000000E+00 -0.00000000000E+00 -0.20879540722E+02  0.20879540722E+02  0.00000000000E+00 0.  1.
         35    2    1    2    0    0  0.00000000000E+00  0.00000000000E+00  0.88056182638E+03  0.92232090782E+03  0.27438426874E+03 0.  0.
         25    1    3    3    0    0  0.45112757363E+02  0.35060232994E+02  0.32592832616E+03  0.35198530453E+03  0.12000000000E+03 0.  0.
         25    1    3    3    0    0 -0.45112757363E+02 -0.35060232994E+02  0.55463350022E+03  0.57033560329E+03  0.12000000000E+03 0.  0.
<mgrwt>
<rscale>  0 0.27438427E+03</rscale>
<asrwt>0</asrwt>
<pdfrwt beam="1">  1        2 0.13868326E+00 0.27438427E+03</pdfrwt>
<pdfrwt beam="2">  1       -2 0.32122377E-02 0.27438427E+03</pdfrwt>
<totfact> 0.11555915E+04</totfact>
</mgrwt>
</event>
<event>
 5    1  0.1162308E+001  0.2756851E+03  0.7818608E-02  0.1098069E+00
         -1   -1    0    0    0  501 -0.00000000000E+00  0.00000000000E+00  0.28953130176E+02  0.28953130176E+02  0.00000000000E+00 0.  1.
          1   -1    0    0  501    0  0.00000000000E+00 -0.00000000000E+00 -0.65625281765E+03  0.65625281765E+03  0.00000000000E+00 0.  1.
         35    2    1    2    0    0  0.00000000000E+00  0.00000000000E+00 -0.62729968747E+03  0.68520594782E+03  0.27568513386E+03 0.  0.
         25    1    3    3    0    0 -0.23225642000E+02 -0.37059199441E+02 -0.44250532648E+03  0.46056897277E+03  0.12000000000E+03 0.  0.
         25    1    3    3    0    0  0.23225642000E+02  0.37059199441E+02 -0.18479436099E+03  0.22463697506E+03  0.12000000000E+03 0.  0.
<mgrwt>
<rscale>  0 0.27568513E+03</rscale>
<asrwt>0</asrwt>
<pdfrwt beam="1">  1        1 0.10096196E+00 0.27568513E+03</pdfrwt>
<pdfrwt beam="2">  1       -1 0.44543283E-02 0.27568513E+03</pdfrwt>
<totfact> 0.64636782E+03</totfact>
</mgrwt>
</event>
<event>
 5    1  0.1162308E+001  0.2753419E+03  0.7818608E-02  0.1098261E+00
         -2   -1    0    0    0  501 -0.00000000000E+00  0.00000000000E+00  0.43083153972E+02  0.43083153972E+02  0.00000000000E+00 0. -1.
          2   -1    0    0  501    0  0.00000000000E+00 -0.00000000000E+00 -0.43992358304E+03  0.43992358304E+03  0.00000000000E+00 0. -1.
         35    2    1    2    0    0  0.00000000000E+00  0.00000000000E+00 -0.39684042907E+03  0.48300673701E+03  0.27534193625E+03 0.  0.
         25    1    3    3    0    0 -0.33198492063E+02  0.56516709156E+02 -0.17029719821E+03  0.21839737637E+03  0.12000000000E+03 0.  0.
         25    1    3    3    0    0  0.33198492063E+02 -0.56516709156E+02 -0.22654323086E+03  0.26460936064E+03  0.12000000000E+03 0.  0.
<mgrwt>
<rscale>  0 0.27534194E+03</rscale>
<asrwt>0</asrwt>
<pdfrwt beam="1">  1        2 0.67680550E-01 0.27534194E+03</pdfrwt>
<pdfrwt beam="2">  1       -2 0.66281777E-02 0.27534194E+03</pdfrwt>
<totfact> 0.90594661E+03</totfact>
</mgrwt>
</event>
<event>
 5    1  0.1162308E+001  0.2745848E+03  0.7818608E-02  0.1098684E+00
          1   -1    0    0  501    0  0.00000000000E+00  0.00000000000E+00  0.93813628503E+02  0.93813628503E+02  0.00000000000E+00 0. -1.
         -1   -1    0    0    0  501 -0.00000000000E+00 -0.00000000000E+00 -0.20092185526E+03  0.20092185526E+03  0.00000000000E+00 0. -1.
         35    2    1    2    0    0  0.00000000000E+00  0.00000000000E+00 -0.10710822676E+03  0.29473548376E+03  0.27458483780E+03 0.  0.
         25    1    3    3    0    0  0.16853589139E+02  0.18747473410E+01 -0.12279915106E+03  0.17253170620E+03  0.12000000000E+03 0.  0.
         25    1    3    3    0    0 -0.16853589139E+02 -0.18747473410E+01  0.15690924302E+02  0.12220377756E+03  0.12000000000E+03 0.  0.
<mgrwt>
<rscale>  0 0.27458484E+03</rscale>
<asrwt>0</asrwt>
<pdfrwt beam="1">  1        1 0.14432866E-01 0.27458484E+03</pdfrwt>
<pdfrwt beam="2">  1       -1 0.30911054E-01 0.27458484E+03</pdfrwt>
<totfact> 0.37854589E+03</totfact>
</mgrwt>
</event>
<event>
 5    1  0.1162308E+001  0.2751250E+03  0.7818608E-02  0.1098382E+00
          2   -1    0    0  501    0  0.00000000000E+00  0.00000000000E+00  0.86210364249E+03  0.86210364249E+03  0.00000000000E+00 0.  1.
         -2   -1    0    0    0  501 -0.00000000000E+00 -0.00000000000E+00 -0.21950303728E+02  0.21950303728E+02  0.00000000000E+00 0.  1.
         35    2    1    2    0    0  0.00000000000E+00  0.00000000000E+00  0.84015333877E+03  0.88405394622E+03  0.27512496650E+03 0.  0.
         25    1    3    3    0    0  0.35295453649E+02  0.51047289973E+02  0.50336464740E+03  0.52117901254E+03  0.12000000000E+03 0.  0.
         25    1    3    3    0    0 -0.35295453649E+02 -0.51047289973E+02  0.33678869136E+03  0.36287493368E+03  0.12000000000E+03 0.  0.
<mgrwt>
<rscale>  0 0.27512497E+03</rscale>
<asrwt>0</asrwt>
<pdfrwt beam="1">  1        2 0.13263130E+00 0.27512497E+03</pdfrwt>
<pdfrwt beam="2">  1       -2 0.33769705E-02 0.27512497E+03</pdfrwt>
<totfact> 0.11379249E+04</totfact>
</mgrwt>
</event>
<event>
 5    1  0.1162308E+001  0.2745771E+03  0.7818608E-02  0.1098688E+00
         -1   -1    0    0    0  501 -0.00000000000E+00  0.00000000000E+00  0.65603343956E+01  0.65603343956E+01  0.00000000000E+00 0.  1.
          1   -1    0    0  501    0  0.00000000000E+00 -0.00000000000E+00 -0.28730473559E+04  0.28730473559E+04  0.00000000000E+00 0.  1.
         35    2    1    2    0    0  0.00000000000E+00  0.00000000000E+00 -0.28664870216E+04  0.28796076903E+04  0.27457713954E+03 0.  0.
         25    1    3    3    0    0  0.56100844182E+02  0.20585821145E+02 -0.17438326283E+04  0.17489777918E+04  0.12000000000E+03 0.  0.
         25    1    3    3    0    0 -0.56100844182E+02 -0.20585821145E+02 -0.11226543932E+04  0.11306298985E+04  0.12000000000E+03 0.  0.
<mgrwt>
<rscale>  0 0.27457714E+03</rscale>
<asrwt>0</asrwt>
<pdfrwt beam="1">  1        1 0.44200709E+00 0.27457714E+03</pdfrwt>
<pdfrwt beam="2">  1       -1 0.10092827E-02 0.27457714E+03</pdfrwt>
<totfact> 0.16459135E+03</totfact>
</mgrwt>
</event>
<event>
 5    1  0.1162308E+001  0.2749126E+03  0.7818608E-02  0.1098500E+00
          2   -1    0    0  501    0  0.00000000000E+00  0.00000000000E+00  0.14180764237E+03  0.14180764237E+03  0.00000000000E+00 0.  1.
         -2   -1    0    0    0  501 -0.00000000000E+00 -0.00000000000E+00 -0.13323845210E+03  0.13323845210E+03  0.00000000000E+00 0.  1.
         35    2    1    2    0    0  0.00000000000E+00  0.00000000000E+00  0.85691902744E+01  0.27504609448E+03  0.27491257349E+03 0.  0.
         25    1    3    3    0    0 -0.35861752244E+02 -0.11822393343E+01  0.60940429067E+02  0.13928818636E+03  0.12000000000E+03 0.  0.
         25    1    3    3    0    0  0.35861752244E+02  0.11822393343E+01 -0.52371238793E+02  0.13575790812E+03  0.12000000000E+03 0.  0.
<mgrwt>
<rscale>  0 0.27491257E+03</rscale>
<asrwt>0</asrwt>
<pdfrwt beam="1">  1        2 0.21816560E-01 0.27491257E+03</pdfrwt>
<pdfrwt beam="2">  1       -2 0.20498223E-01 0.27491257E+03</pdfrwt>
<totfact> 0.50256135E+03</totfact>
</mgrwt>
</event>
<event>
 5    1  0.1162308E+001  0.2731105E+03  0.7818608E-02  0.1099512E+00
          2   -1    0    0  501    0  0.00000000000E+00  0.00000000000E+00  0.17058788790E+03  0.17058788790E+03  0.00000000000E+00 0. -1.
         -2   -1    0    0    0  501 -0.00000000000E+00 -0.00000000000E+00 -0.10931218876E+03  0.10931218876E+03  0.00000000000E+00 0. -1.
         35    2    1    2    0    0  0.00000000000E+00  0.00000000000E+00  0.61275699146E+02  0.27990007666E+03  0.27311049341E+03 0.  0.
         25    1    3    3    0    0 -0.49167482590E+02  0.35223531169E+02  0.57610297332E+01  0.13450400721E+03  0.12000000000E+03 0.  0.
         25    1    3    3    0    0  0.49167482590E+02 -0.35223531169E+02  0.55514669413E+02  0.14539606945E+03  0.12000000000E+03 0.  0.
<mgrwt>
<rscale>  0 0.27311049E+03</rscale>
<asrwt>0</asrwt>
<pdfrwt beam="1">  1        2 0.26244290E-01 0.27311049E+03</pdfrwt>
<pdfrwt beam="2">  1       -2 0.16817260E-01 0.27311049E+03</pdfrwt>
<totfact> 0.57098746E+03</totfact>
</mgrwt>
</event>
<event>
 5    1  0.1162308E+001  0.2763253E+03  0.7818608E-02  0.1097713E+00
          1   -1    0    0  501    0  0.00000000000E+00  0.00000000000E+00  0.42900812697E+03  0.42900812697E+03  0.00000000000E+00 0. -1.
         -1   -1    0    0    0  501 -0.00000000000E+00 -0.00000000000E+00 -0.44495467783E+02  0.44495467783E+02  0.00000000000E+00 0. -1.
         35    2    1    2    0    0  0.00000000000E+00  0.00000000000E+00  0.38451265919E+03  0.47350359475E+03  0.27632529593E+03 0.  0.
         25    1    3    3    0    0 -0.32241346962E+02 -0.17398687704E+02  0.29138765925E+03  0.31725224467E+03  0.12000000000E+03 0.  0.
         25    1    3    3    0    0  0.32241346962E+02  0.17398687704E+02  0.93124999936E+02  0.15625135008E+03  0.12000000000E+03 0.  0.
<mgrwt>
<rscale>  0 0.27632530E+03</rscale>
<asrwt>0</asrwt>
<pdfrwt beam="1">  1        1 0.66001247E-01 0.27632530E+03</pdfrwt>
<pdfrwt beam="2">  1       -1 0.68454569E-02 0.27632530E+03</pdfrwt>
<totfact> 0.60149606E+03</totfact>
</mgrwt>
</event>
<event>
 5    1  0.1162308E+001  0.2750534E+03  0.7818608E-02  0.1098422E+00
          3   -1    0    0  501    0  0.00000000000E+00  0.00000000000E+00  0.74122913964E+03  0.74122913964E+03  0.00000000000E+00 0.  1.
         -3   -1    0    0    0  501 -0.00000000000E+00 -0.00000000000E+00 -0.25516520568E+02  0.25516520568E+02  0.00000000000E+00 0.  1.
         35    2    1    2    0    0  0.00000000000E+00  0.00000000000E+00  0.71571261908E+03  0.76674566021E+03  0.27505336637E+03 0.  0.
         25    1    3    3    0    0 -0.25380819108E+02  0.62179437715E+02  0.35293227579E+03  0.37877653009E+03  0.12000000000E+03 0.  0.
         25    1    3    3    0    0  0.25380819108E+02 -0.62179437715E+02  0.36278034329E+03  0.38796913012E+03  0.12000000000E+03 0.  0.
<mgrwt>
<rscale>  0 0.27505337E+03</rscale>
<asrwt>0</asrwt>
<pdfrwt beam="1">  1        3 0.11403524E+00 0.27505337E+03</pdfrwt>
<pdfrwt beam="2">  1       -3 0.39256191E-02 0.27505337E+03</pdfrwt>
<totfact> 0.56719994E+02</totfact>
</mgrwt>
</event>
<event>
 5    1  0.1162308E+001  0.2756490E+03  0.7818608E-02  0.1098089E+00
          1   -1    0    0  501    0  0.00000000000E+00  0.00000000000E+00  0.14265249285E+03  0.14265249285E+03  0.00000000000E+00 0. -1.
         -1   -1    0    0    0  501 -0.00000000000E+00 -0.00000000000E+00 -0.13315994851E+03  0.13315994851E+03  0.00000000000E+00 0. -1.
         35    2    1    2    0    0  0.00000000000E+00  0.00000000000E+00  0.94925443422E+01  0.27581244136E+03  0.27564904210E+03 0.  0.
         25    1    3    3    0    0  0.19891227519E+01  0.67359645412E+02 -0.26283181072E+01  0.13765241188E+03  0.12000000000E+03 0.  0.
         25    1    3    3    0    0 -0.19891227519E+01 -0.67359645412E+02  0.12120862449E+02  0.13816002948E+03  0.12000000000E+03 0.  0.
<mgrwt>
<rscale>  0 0.27564904E+03</rscale>
<asrwt>0</asrwt>
<pdfrwt beam="1">  1        1 0.21946537E-01 0.27564904E+03</pdfrwt>
<pdfrwt beam="2">  1       -1 0.20486146E-01 0.27564904E+03</pdfrwt>
<totfact> 0.43603226E+03</totfact>
</mgrwt>
</event>
<event>
 5    1  0.1162308E+001  0.2793190E+03  0.7818608E-02  0.1096061E+00
          1   -1    0    0  501    0  0.00000000000E+00  0.00000000000E+00  0.88966948124E+02  0.88966948124E+02  0.00000000000E+00 0.  1.
         -1   -1    0    0    0  501 -0.00000000000E+00 -0.00000000000E+00 -0.21923615408E+03  0.21923615408E+03  0.00000000000E+00 0.  1.
         35    2    1    2    0    0  0.00000000000E+00  0.00000000000E+00 -0.13026920595E+03  0.30820310220E+03  0.27931896854E+03 0.  0.
         25    1    3    3    0    0  0.78696333831E+01 -0.61180029212E+02 -0.10491620488E+03  0.17091616995E+03  0.12000000000E+03 0.  0.
         25    1    3    3    0    0 -0.78696333831E+01  0.61180029212E+02 -0.25353001075E+02  0.13728693225E+03  0.12000000000E+03 0.  0.
<mgrwt>
<rscale>  0 0.27931897E+03</rscale>
<asrwt>0</asrwt>
<pdfrwt beam="1">  1        1 0.13687223E-01 0.27931897E+03</pdfrwt>
<pdfrwt beam="2">  1       -1 0.33728639E-01 0.27931897E+03</pdfrwt>
<totfact> 0.34961126E+03</totfact>
</mgrwt>
</event>
<event>
 5    1  0.1162308E+001  0.2747218E+03  0.7818608E-02  0.1098607E+00
          1   -1    0    0  501    0  0.00000000000E+00  0.00000000000E+00  0.25963745944E+03  0.25963745944E+03  0.00000000000E+00 0. -1.
         -1   -1    0    0    0  501 -0.00000000000E+00 -0.00000000000E+00 -0.72670605926E+02  0.72670605926E+02  0.00000000000E+00 0. -1.
         35    2    1    2    0    0  0.00000000000E+00  0.00000000000E+00  0.18696685352E+03  0.33230806537E+03  0.27472176105E+03 0.  0.
         25    1    3    3    0    0 -0.19284832452E+02  0.48663044117E+02  0.14376647048E+03  0.19444483706E+03  0.12000000000E+03 0.  0.
         25    1    3    3    0    0  0.19284832452E+02 -0.48663044117E+02  0.43200383040E+02  0.13786322831E+03  0.12000000000E+03 0.  0.
<mgrwt>
<rscale>  0 0.27472176E+03</rscale>
<asrwt>0</asrwt>
<pdfrwt beam="1">  1        1 0.39944224E-01 0.27472176E+03</pdfrwt>
<pdfrwt beam="2">  1       -1 0.11180093E-01 0.27472176E+03</pdfrwt>
<totfact> 0.53524274E+03</totfact>
</mgrwt>
</event>
<event>
 5    1  0.1162308E+001  0.2705234E+03  0.7818608E-02  0.1100980E+00
         -2   -1    0    0    0  501 -0.00000000000E+00  0.00000000000E+00  0.90991775390E+01  0.90991775390E+01  0.00000000000E+00 0. -1.
          2   -1    0    0  501    0  0.00000000000E+00 -0.00000000000E+00 -0.20107012871E+04  0.20107012871E+04  0.00000000000E+00 0. -1.
         35    2    1    2    0    0  0.00000000000E+00  0.00000000000E+00 -0.20016021095E+04  0.20198004646E+04  0.27052340371E+03 0.  0.
         25    1    3    3    0    0  0.71517729452E+01 -0.23742619228E+02 -0.14284604470E+04  0.14337064234E+04  0.12000000000E+03 0.  0.
         25    1    3    3    0    0 -0.71517729452E+01  0.23742619228E+02 -0.57314166251E+03  0.58609404120E+03  0.12000000000E+03 0.  0.
<mgrwt>
<rscale>  0 0.27052340E+03</rscale>
<asrwt>0</asrwt>
<pdfrwt beam="1">  1        2 0.30933857E+00 0.27052340E+03</pdfrwt>
<pdfrwt beam="2">  1       -2 0.13998739E-02 0.27052340E+03</pdfrwt>
<totfact> 0.95706746E+03</totfact>
</mgrwt>
</event>
<event>
 5    1  0.1162308E+001  0.2750912E+03  0.7818608E-02  0.1098401E+00
         -1   -1    0    0    0  501 -0.00000000000E+00  0.00000000000E+00  0.11574598876E+03  0.11574598876E+03  0.00000000000E+00 0. -1.
          1   -1    0    0  501    0  0.00000000000E+00 -0.00000000000E+00 -0.16345092180E+03  0.16345092180E+03  0.00000000000E+00 0. -1.
         35    2    1    2    0    0  0.00000000000E+00  0.00000000000E+00 -0.47704933047E+02  0.27919691056E+03  0.27509117439E+03 0.  0.
         25    1    3    3    0    0  0.41538063879E+02  0.48228177143E+02 -0.19098740051E+01  0.13584923791E+03  0.12000000000E+03 0.  0.
         25    1    3    3    0    0 -0.41538063879E+02 -0.48228177143E+02 -0.45795059042E+02  0.14334767265E+03  0.12000000000E+03 0.  0.
<mgrwt>
<rscale>  0 0.27509117E+03</rscale>
<asrwt>0</asrwt>
<pdfrwt beam="1">  1        1 0.25146295E-01 0.27509117E+03</pdfrwt>
<pdfrwt beam="2">  1       -1 0.17807075E-01 0.27509117E+03</pdfrwt>
<totfact> 0.45977999E+03</totfact>
</mgrwt>
</event>
<event>
 5    1  0.1162308E+001  0.2746991E+03  0.7818608E-02  0.1098620E+00
         -2   -1    0    0    0  501 -0.00000000000E+00  0.00000000000E+00  0.71304585271E+02  0.71304585271E+02  0.00000000000E+00 0. -1.
          2   -1    0    0  501    0  0.00000000000E+00 -0.00000000000E+00 -0.26456791072E+03  0.26456791072E+03  0.00000000000E+00 0. -1.
         35    2    1    2    0    0  0.00000000000E+00  0.00000000000E+00 -0.19326332544E+03  0.33587249599E+03  0.27469914561E+03 0.  0.
         25    1    3    3    0    0  0.66786275802E+02  0.16773070008E+01 -0.98218882628E+02  0.16884954516E+03  0.12000000000E+03 0.  0.
         25    1    3    3    0    0 -0.66786275802E+02 -0.16773070008E+01 -0.95044442816E+02  0.16702295083E+03  0.12000000000E+03 0.  0.
<mgrwt>
<rscale>  0 0.27469915E+03</rscale>
<asrwt>0</asrwt>
<pdfrwt beam="1">  1        2 0.40702755E-01 0.27469915E+03</pdfrwt>
<pdfrwt beam="2">  1       -2 0.10969936E-01 0.27469915E+03</pdfrwt>
<totfact> 0.71140644E+03</totfact>
</mgrwt>
</event>
<event>
 5    1  0.1162308E+001  0.2750799E+03  0.7818608E-02  0.1098407E+00
         -1   -1    0    0    0  501 -0.00000000000E+00  0.00000000000E+00  0.12321638784E+02  0.12321638784E+02  0.00000000000E+00 0.  1.
          1   -1    0    0  501    0  0.00000000000E+00 -0.00000000000E+00 -0.15352862070E+04  0.15352862070E+04  0.00000000000E+00 0.  1.
         35    2    1    2    0    0  0.00000000000E+00  0.00000000000E+00 -0.15229645683E+04  0.15476078458E+04  0.27507993074E+03 0.  0.
         25    1    3    3    0    0 -0.43266502072E+02  0.34145367035E+02 -0.97787212389E+03  0.98674808689E+03  0.12000000000E+03 0.  0.
         25    1    3    3    0    0  0.43266502072E+02 -0.34145367035E+02 -0.54509244436E+03  0.56085975893E+03  0.12000000000E+03 0.  0.
<mgrwt>
<rscale>  0 0.27507993E+03</rscale>
<asrwt>0</asrwt>
<pdfrwt beam="1">  1        1 0.23619788E+00 0.27507993E+03</pdfrwt>
<pdfrwt beam="2">  1       -1 0.18956367E-02 0.27507993E+03</pdfrwt>
<totfact> 0.50294663E+03</totfact>
</mgrwt>
</event>
<event>
 5    1  0.1162308E+001  0.2762928E+03  0.7818608E-02  0.1097731E+00
         -2   -1    0    0    0  501 -0.00000000000E+00  0.00000000000E+00  0.50511674125E+03  0.50511674125E+03  0.00000000000E+00 0. -1.
          2   -1    0    0  501    0  0.00000000000E+00 -0.00000000000E+00 -0.37782212118E+02  0.37782212118E+02  0.00000000000E+00 0. -1.
         35    2    1    2    0    0  0.00000000000E+00  0.00000000000E+00  0.46733452913E+03  0.54289895337E+03  0.27629280021E+03 0.  0.
         25    1    3    3    0    0  0.23101151358E+02 -0.81047506818E+01  0.10807884468E+03  0.16334132008E+03  0.12000000000E+03 0.  0.
         25    1    3    3    0    0 -0.23101151358E+02  0.81047506818E+01  0.35925568445E+03  0.37955763329E+03  0.12000000000E+03 0.  0.
<mgrwt>
<rscale>  0 0.27629280E+03</rscale>
<asrwt>0</asrwt>
<pdfrwt beam="1">  1        2 0.58126484E-02 0.27629280E+03</pdfrwt>
<pdfrwt beam="2">  1       -2 0.77710263E-01 0.27629280E+03</pdfrwt>
<totfact> 0.19529886E+03</totfact>
</mgrwt>
</event>
<event>
 5    1  0.1162308E+001  0.2751046E+03  0.7818608E-02  0.1098393E+00
          2   -1    0    0  501    0  0.00000000000E+00  0.00000000000E+00  0.79140886609E+03  0.79140886609E+03  0.00000000000E+00 0. -1.
         -2   -1    0    0    0  501 -0.00000000000E+00 -0.00000000000E+00 -0.23907527000E+02  0.23907527000E+02  0.00000000000E+00 0. -1.
         35    2    1    2    0    0  0.00000000000E+00  0.00000000000E+00  0.76750133909E+03  0.81531639309E+03  0.27510455346E+03 0.  0.
         25    1    3    3    0    0 -0.58292728129E-01  0.59893787907E+02  0.29320808308E+03  0.32242557158E+03  0.12000000000E+03 0.  0.
         25    1    3    3    0    0  0.58292728129E-01 -0.59893787907E+02  0.47429325601E+03  0.49289082151E+03  0.12000000000E+03 0.  0.
<mgrwt>
<rscale>  0 0.27510455E+03</rscale>
<asrwt>0</asrwt>
<pdfrwt beam="1">  1        2 0.12175519E+00 0.27510455E+03</pdfrwt>
<pdfrwt beam="2">  1       -2 0.36780817E-02 0.27510455E+03</pdfrwt>
<totfact> 0.11181918E+04</totfact>
</mgrwt>
</event>
<event>
 5    1  0.1162308E+001  0.2749739E+03  0.7818608E-02  0.1098466E+00
          2   -1    0    0  501    0  0.00000000000E+00  0.00000000000E+00  0.88246367772E+03  0.88246367772E+03  0.00000000000E+00 0. -1.
         -2   -1    0    0    0  501 -0.00000000000E+00 -0.00000000000E+00 -0.21420321403E+02  0.21420321403E+02  0.00000000000E+00 0. -1.
         35    2    1    2    0    0  0.00000000000E+00  0.00000000000E+00  0.86104335632E+03  0.90388399912E+03  0.27497385769E+03 0.  0.
         25    1    3    3    0    0  0.28602005443E+02  0.36334912520E+02  0.27068456167E+03  0.29968055077E+03  0.12000000000E+03 0.  0.
         25    1    3    3    0    0 -0.28602005443E+02 -0.36334912520E+02  0.59035879465E+03  0.60420344835E+03  0.12000000000E+03 0.  0.
<mgrwt>
<rscale>  0 0.27497386E+03</rscale>
<asrwt>0</asrwt>
<pdfrwt beam="1">  1        2 0.13576361E+00 0.27497386E+03</pdfrwt>
<pdfrwt beam="2">  1       -2 0.32954347E-02 0.27497386E+03</pdfrwt>
<totfact> 0.11444095E+04</totfact>
</mgrwt>
</event>
<event>
 5    1  0.1162308E+001  0.2699405E+03  0.7818608E-02  0.1101314E+00
         -2   -1    0    0    0  501 -0.00000000000E+00  0.00000000000E+00  0.41114855416E+02  0.41114855416E+02  0.00000000000E+00 0. -1.
          2   -1    0    0  501    0  0.00000000000E+00 -0.00000000000E+00 -0.44307496188E+03  0.44307496188E+03  0.00000000000E+00 0. -1.
         35    2    1    2    0    0  0.00000000000E+00  0.00000000000E+00 -0.40196010646E+03  0.48418981729E+03  0.26994046007E+03 0.  0.
         25    1    3    3    0    0  0.18591865759E+02  0.49918725330E+02 -0.25711503265E+03  0.28869651301E+03  0.12000000000E+03 0.  0.
         25    1    3    3    0    0 -0.18591865759E+02 -0.49918725330E+02 -0.14484507381E+03  0.19549330428E+03  0.12000000000E+03 0.  0.
<mgrwt>
<rscale>  0 0.26994046E+03</rscale>
<asrwt>0</asrwt>
<pdfrwt beam="1">  1        2 0.68165383E-01 0.26994046E+03</pdfrwt>
<pdfrwt beam="2">  1       -2 0.63253620E-02 0.26994046E+03</pdfrwt>
<totfact> 0.96528386E+03</totfact>
</mgrwt>
</event>
<event>
 5    1  0.1162308E+001  0.2735198E+03  0.7818608E-02  0.1099282E+00
          2   -1    0    0  501    0  0.00000000000E+00  0.00000000000E+00  0.20193447065E+03  0.20193447065E+03  0.00000000000E+00 0.  1.
         -2   -1    0    0    0  501 -0.00000000000E+00 -0.00000000000E+00 -0.92620524344E+02  0.92620524344E+02  0.00000000000E+00 0.  1.
         35    2    1    2    0    0  0.00000000000E+00  0.00000000000E+00  0.10931394630E+03  0.29455499499E+03  0.27351984611E+03 0.  0.
         25    1    3    3    0    0 -0.25400933346E+02  0.28146338503E+02 -0.29937136991E+01  0.12588242970E+03  0.12000000000E+03 0.  0.
         25    1    3    3    0    0  0.25400933346E+02 -0.28146338503E+02  0.11230766000E+03  0.16867256529E+03  0.12000000000E+03 0.  0.
<mgrwt>
<rscale>  0 0.27351985E+03</rscale>
<asrwt>0</asrwt>
<pdfrwt beam="1">  1        2 0.31066841E-01 0.27351985E+03</pdfrwt>
<pdfrwt beam="2">  1       -2 0.14249312E-01 0.27351985E+03</pdfrwt>
<totfact> 0.62399457E+03</totfact>
</mgrwt>
</event>
<event>
 5    1  0.1162308E+001  0.2749219E+03  0.7818608E-02  0.1098495E+00
         -2   -1    0    0    0  501 -0.00000000000E+00  0.00000000000E+00  0.40559294993E+03  0.40559294993E+03  0.00000000000E+00 0.  1.
          2   -1    0    0  501    0  0.00000000000E+00 -0.00000000000E+00 -0.46587379477E+02  0.46587379477E+02  0.00000000000E+00 0.  1.
         35    2    1    2    0    0  0.00000000000E+00  0.00000000000E+00  0.35900557045E+03  0.45218032940E+03  0.27492189925E+03 0.  0.
         25    1    3    3    0    0 -0.65154147139E+02 -0.11475324222E+02  0.16157817568E+03  0.21185903996E+03  0.12000000000E+03 0.  0.
         25    1    3    3    0    0  0.65154147139E+02  0.11475324222E+02  0.19742739477E+03  0.24032128944E+03  0.12000000000E+03 0.  0.
<mgrwt>
<rscale>  0 0.27492190E+03</rscale>
<asrwt>0</asrwt>
<pdfrwt beam="1">  1        2 0.71672894E-02 0.27492190E+03</pdfrwt>
<pdfrwt beam="2">  1       -2 0.62398913E-01 0.27492190E+03</pdfrwt>
<totfact> 0.23801748E+03</totfact>
</mgrwt>
</event>
<event>
 5    1  0.1162308E+001  0.2741519E+03  0.7818608E-02  0.1098927E+00
         -2   -1    0    0    0  501 -0.00000000000E+00  0.00000000000E+00  0.58788108983E+02  0.58788108983E+02  0.00000000000E+00 0.  1.
          2   -1    0    0  501    0  0.00000000000E+00 -0.00000000000E+00 -0.31961943768E+03  0.31961943768E+03  0.00000000000E+00 0.  1.
         35    2    1    2    0    0  0.00000000000E+00  0.00000000000E+00 -0.26083132870E+03  0.37840754666E+03  0.27415194572E+03 0.  0.
         25    1    3    3    0    0  0.48524530642E+02 -0.44357974604E+02 -0.14176109098E+03  0.19702402620E+03  0.12000000000E+03 0.  0.
         25    1    3    3    0    0 -0.48524530642E+02  0.44357974604E+02 -0.11907023772E+03  0.18138352046E+03  0.12000000000E+03 0.  0.
<mgrwt>
<rscale>  0 0.27415195E+03</rscale>
<asrwt>0</asrwt>
<pdfrwt beam="1">  1        2 0.49172220E-01 0.27415195E+03</pdfrwt>
<pdfrwt beam="2">  1       -2 0.90443247E-02 0.27415195E+03</pdfrwt>
<totfact> 0.78880896E+03</totfact>
</mgrwt>
</event>
<event>
 5    1  0.1162308E+001  0.2751421E+03  0.7818608E-02  0.1098372E+00
          3   -1    0    0  501    0  0.00000000000E+00  0.00000000000E+00  0.13245084569E+03  0.13245084569E+03  0.00000000000E+00 0.  1.
         -3   -1    0    0    0  501 -0.00000000000E+00 -0.00000000000E+00 -0.14288917080E+03  0.14288917080E+03  0.00000000000E+00 0.  1.
         35    2    1    2    0    0  0.00000000000E+00  0.00000000000E+00 -0.10438325103E+02  0.27534001649E+03  0.27514208339E+03 0.  0.
         25    1    3    3    0    0  0.57805285642E+02  0.26174667061E+02  0.17140305244E+02  0.13682234579E+03  0.12000000000E+03 0.  0.
         25    1    3    3    0    0 -0.57805285642E+02 -0.26174667061E+02 -0.27578630348E+02  0.13851767070E+03  0.12000000000E+03 0.  0.
<mgrwt>
<rscale>  0 0.27514208E+03</rscale>
<asrwt>0</asrwt>
<pdfrwt beam="1">  1        3 0.20377053E-01 0.27514208E+03</pdfrwt>
<pdfrwt beam="2">  1       -3 0.21982949E-01 0.27514208E+03</pdfrwt>
<totfact> 0.10467082E+03</totfact>
</mgrwt>
</event>
<event>
 5    1  0.1162308E+001  0.2734429E+03  0.7818608E-02  0.1099325E+00
          2   -1    0    0  501    0  0.00000000000E+00  0.00000000000E+00  0.92159171899E+03  0.92159171899E+03  0.00000000000E+00 0.  1.
         -2   -1    0    0    0  501 -0.00000000000E+00 -0.00000000000E+00 -0.20283122286E+02  0.20283122286E+02  0.00000000000E+00 0.  1.
         35    2    1    2    0    0  0.00000000000E+00  0.00000000000E+00  0.90130859671E+03  0.94187484128E+03  0.27344291934E+03 0.  0.
         25    1    3    3    0    0  0.54203440484E+02  0.30035641568E+02  0.37737419105E+03  0.40081346384E+03  0.12000000000E+03 0.  0.
         25    1    3    3    0    0 -0.54203440484E+02 -0.30035641568E+02  0.52393440566E+03  0.54106137744E+03  0.12000000000E+03 0.  0.
<mgrwt>
<rscale>  0 0.27344292E+03</rscale>
<asrwt>0</asrwt>
<pdfrwt beam="1">  1        2 0.14178331E+00 0.27344292E+03</pdfrwt>
<pdfrwt beam="2">  1       -2 0.31204811E-02 0.27344292E+03</pdfrwt>
<totfact> 0.11710926E+04</totfact>
</mgrwt>
</event>
<event>
 5    1  0.1162308E+001  0.2752115E+03  0.7818608E-02  0.1098333E+00
          2   -1    0    0  501    0  0.00000000000E+00  0.00000000000E+00  0.69333189098E+03  0.69333189098E+03  0.00000000000E+00 0.  1.
         -2   -1    0    0    0  501 -0.00000000000E+00 -0.00000000000E+00 -0.27310656189E+02  0.27310656189E+02  0.00000000000E+00 0.  1.
         35    2    1    2    0    0  0.00000000000E+00  0.00000000000E+00  0.66602123479E+03  0.72064254717E+03  0.27521154699E+03 0.  0.
         25    1    3    3    0    0  0.35746529098E+02 -0.50325457139E+02  0.40351030324E+03  0.42547741515E+03  0.12000000000E+03 0.  0.
         25    1    3    3    0    0 -0.35746529098E+02  0.50325457139E+02  0.26251093155E+03  0.29516513203E+03  0.12000000000E+03 0.  0.
<mgrwt>
<rscale>  0 0.27521155E+03</rscale>
<asrwt>0</asrwt>
<pdfrwt beam="1">  1        2 0.10666643E+00 0.27521155E+03</pdfrwt>
<pdfrwt beam="2">  1       -2 0.42016399E-02 0.27521155E+03</pdfrwt>
<totfact> 0.10783167E+04</totfact>
</mgrwt>
</event>
<event>
 5    1  0.1162308E+001  0.2745960E+03  0.7818608E-02  0.1098678E+00
          1   -1    0    0  501    0  0.00000000000E+00  0.00000000000E+00  0.21187414080E+03  0.21187414080E+03  0.00000000000E+00 0. -1.
         -1   -1    0    0    0  501 -0.00000000000E+00 -0.00000000000E+00 -0.88971421214E+02  0.88971421214E+02  0.00000000000E+00 0. -1.
         35    2    1    2    0    0  0.00000000000E+00  0.00000000000E+00  0.12290271959E+03  0.30084556202E+03  0.27459601910E+03 0.  0.
         25    1    3    3    0    0  0.32163517274E+02 -0.58160028566E+02  0.67807940786E+02  0.15301959874E+03  0.12000000000E+03 0.  0.
         25    1    3    3    0    0 -0.32163517274E+02  0.58160028566E+02  0.55094778804E+02  0.14782596327E+03  0.12000000000E+03 0.  0.
<mgrwt>
<rscale>  0 0.27459602E+03</rscale>
<asrwt>0</asrwt>
<pdfrwt beam="1">  1        1 0.32596022E-01 0.27459602E+03</pdfrwt>
<pdfrwt beam="2">  1       -1 0.13687911E-01 0.27459602E+03</pdfrwt>
<totfact> 0.50336434E+03</totfact>
</mgrwt>
</event>
<event>
 5    1  0.1162308E+001  0.2745396E+03  0.7818608E-02  0.1098709E+00
         -2   -1    0    0    0  501 -0.00000000000E+00  0.00000000000E+00  0.15217143167E+02  0.15217143167E+02  0.00000000000E+00 0. -1.
          2   -1    0    0  501    0  0.00000000000E+00 -0.00000000000E+00 -0.12382743273E+04  0.12382743273E+04  0.00000000000E+00 0. -1.
         35    2    1    2    0    0  0.00000000000E+00  0.00000000000E+00 -0.12230571841E+04  0.12534914705E+04  0.27453959801E+03 0.  0.
         25    1    3    3    0    0 -0.88286057954E+01 -0.17040032943E+01 -0.30997349195E+03  0.33251227589E+03  0.12000000000E+03 0.  0.
         25    1    3    3    0    0  0.88286057954E+01  0.17040032943E+01 -0.91308369220E+03  0.92097919459E+03  0.12000000000E+03 0.  0.
<mgrwt>
<rscale>  0 0.27453960E+03</rscale>
<asrwt>0</asrwt>
<pdfrwt beam="1">  1        2 0.19050371E+00 0.27453960E+03</pdfrwt>
<pdfrwt beam="2">  1       -2 0.23410993E-02 0.27453960E+03</pdfrwt>
<totfact> 0.11627645E+04</totfact>
</mgrwt>
</event>
<event>
 5    1  0.1162308E+001  0.2744761E+03  0.7818608E-02  0.1098745E+00
         -2   -1    0    0    0  501 -0.00000000000E+00  0.00000000000E+00  0.13117455033E+02  0.13117455033E+02  0.00000000000E+00 0.  1.
          2   -1    0    0  501    0  0.00000000000E+00 -0.00000000000E+00 -0.14358179923E+04  0.14358179923E+04  0.00000000000E+00 0.  1.
         35    2    1    2    0    0  0.00000000000E+00  0.00000000000E+00 -0.14227005373E+04  0.14489354474E+04  0.27447606781E+03 0.  0.
         25    1    3    3    0    0 -0.45886556489E+02 -0.37016075555E+02 -0.54791591913E+03  0.56399257119E+03  0.12000000000E+03 0.  0.
         25    1    3    3    0    0  0.45886556489E+02  0.37016075555E+02 -0.87478461818E+03  0.88494287619E+03  0.12000000000E+03 0.  0.
<mgrwt>
<rscale>  0 0.27447607E+03</rscale>
<asrwt>0</asrwt>
<pdfrwt beam="1">  1        2 0.22089501E+00 0.27447607E+03</pdfrwt>
<pdfrwt beam="2">  1       -2 0.20180706E-02 0.27447607E+03</pdfrwt>
<totfact> 0.11269901E+04</totfact>
</mgrwt>
</event>
<event>
 5    1  0.1162308E+001  0.2755902E+03  0.7818608E-02  0.1098122E+00
          1   -1    0    0  501    0  0.00000000000E+00  0.00000000000E+00  0.83917407365E+02  0.83917407365E+02  0.00000000000E+00 0. -1.
         -1   -1    0    0    0  501 -0.00000000000E+00 -0.00000000000E+00 -0.22626406518E+03  0.22626406518E+03  0.00000000000E+00 0. -1.
         35    2    1    2    0    0  0.00000000000E+00  0.00000000000E+00 -0.14234665782E+03  0.31018147255E+03  0.27559023009E+03 0.  0.
         25    1    3    3    0    0 -0.41260831217E+02 -0.68744538696E+01 -0.13113053035E+03  0.18260594267E+03  0.12000000000E+03 0.  0.
         25    1    3    3    0    0  0.41260831217E+02  0.68744538696E+01 -0.11216127471E+02  0.12757552988E+03  0.12000000000E+03 0.  0.
<mgrwt>
<rscale>  0 0.27559023E+03</rscale>
<asrwt>0</asrwt>
<pdfrwt beam="1">  1        1 0.12910371E-01 0.27559023E+03</pdfrwt>
<pdfrwt beam="2">  1       -1 0.34809855E-01 0.27559023E+03</pdfrwt>
<totfact> 0.35746184E+03</totfact>
</mgrwt>
</event>
<event>
 5    1  0.1162308E+001  0.2735398E+03  0.7818608E-02  0.1099271E+00
         -2   -1    0    0    0  501 -0.00000000000E+00  0.00000000000E+00  0.67791566168E+02  0.67791566168E+02  0.00000000000E+00 0.  1.
          2   -1    0    0  501    0  0.00000000000E+00 -0.00000000000E+00 -0.27593414656E+03  0.27593414656E+03  0.00000000000E+00 0.  1.
         35    2    1    2    0    0  0.00000000000E+00  0.00000000000E+00 -0.20814258039E+03  0.34372571272E+03  0.27353981761E+03 0.  0.
         25    1    3    3    0    0  0.22998111255E+02 -0.14217817711E+02 -0.17920353460E+03  0.21735907222E+03  0.12000000000E+03 0.  0.
         25    1    3    3    0    0 -0.22998111255E+02  0.14217817711E+02 -0.28939045786E+02  0.12636664051E+03  0.12000000000E+03 0.  0.
<mgrwt>
<rscale>  0 0.27353982E+03</rscale>
<asrwt>0</asrwt>
<pdfrwt beam="1">  1        2 0.42451407E-01 0.27353982E+03</pdfrwt>
<pdfrwt beam="2">  1       -2 0.10429472E-01 0.27353982E+03</pdfrwt>
<totfact> 0.73697455E+03</totfact>
</mgrwt>
</event>
<event>
 5    1  0.1162308E+001  0.2759030E+03  0.7818608E-02  0.1097948E+00
         -1   -1    0    0    0  501 -0.00000000000E+00  0.00000000000E+00  0.96280360279E+01  0.96280360279E+01  0.00000000000E+00 0. -1.
          1   -1    0    0  501    0  0.00000000000E+00 -0.00000000000E+00 -0.19765835798E+04  0.19765835798E+04  0.00000000000E+00 0. -1.
         35    2    1    2    0    0  0.00000000000E+00  0.00000000000E+00 -0.19669555437E+04  0.19862116158E+04  0.27590301135E+03 0.  0.
         25    1    3    3    0    0 -0.56582592252E+02 -0.37753265415E+02 -0.96959458008E+03  0.97935721191E+03  0.12000000000E+03 0.  0.
         25    1    3    3    0    0  0.56582592252E+02  0.37753265415E+02 -0.99736096365E+03  0.10068544039E+04  0.12000000000E+03 0.  0.
<mgrwt>
<rscale>  0 0.27590301E+03</rscale>
<asrwt>0</asrwt>
<pdfrwt beam="1">  1        1 0.30409029E+00 0.27590301E+03</pdfrwt>
<pdfrwt beam="2">  1       -1 0.14812338E-02 0.27590301E+03</pdfrwt>
<totfact> 0.37142561E+03</totfact>
</mgrwt>
</event>
<event>
 5    1  0.1162308E+001  0.2755795E+03  0.7818608E-02  0.1098128E+00
         -1   -1    0    0    0  501 -0.00000000000E+00  0.00000000000E+00  0.30173302177E+02  0.30173302177E+02  0.00000000000E+00 0. -1.
          1   -1    0    0  501    0  0.00000000000E+00 -0.00000000000E+00 -0.62923240318E+03  0.62923240318E+03  0.00000000000E+00 0. -1.
         35    2    1    2    0    0  0.00000000000E+00  0.00000000000E+00 -0.59905910100E+03  0.65940570535E+03  0.27557953074E+03 0.  0.
         25    1    3    3    0    0 -0.27940490869E+02  0.61098351351E+02 -0.27917813530E+03  0.31121393091E+03  0.12000000000E+03 0.  0.
         25    1    3    3    0    0  0.27940490869E+02 -0.61098351351E+02 -0.31988096570E+03  0.34819177444E+03  0.12000000000E+03 0.  0.
<mgrwt>
<rscale>  0 0.27557953E+03</rscale>
<asrwt>0</asrwt>
<pdfrwt beam="1">  1        1 0.96804975E-01 0.27557953E+03</pdfrwt>
<pdfrwt beam="2">  1       -1 0.46420470E-02 0.27557953E+03</pdfrwt>
<totfact> 0.64504876E+03</totfact>
</mgrwt>
</event>
<event>
 5    1  0.1162308E+001  0.2722066E+03  0.7818608E-02  0.1100023E+00
         -1   -1    0    0    0  501 -0.00000000000E+00  0.00000000000E+00  0.11063281436E+03  0.11063281436E+03  0.00000000000E+00 0.  1.
          1   -1    0    0  501    0  0.00000000000E+00 -0.00000000000E+00 -0.16743778343E+03  0.16743778343E+03  0.00000000000E+00 0.  1.
         35    2    1    2    0    0  0.00000000000E+00  0.00000000000E+00 -0.56804969069E+02  0.27807059778E+03  0.27220663629E+03 0.  0.
         25    1    3    3    0    0 -0.11667842971E+02  0.63049538074E+02 -0.32047315354E+02  0.13977987420E+03  0.12000000000E+03 0.  0.
         25    1    3    3    0    0  0.11667842971E+02 -0.63049538074E+02 -0.24757653715E+02  0.13829072358E+03  0.12000000000E+03 0.  0.
<mgrwt>
<rscale>  0 0.27220664E+03</rscale>
<asrwt>0</asrwt>
<pdfrwt beam="1">  1        1 0.25759659E-01 0.27220664E+03</pdfrwt>
<pdfrwt beam="2">  1       -1 0.17020433E-01 0.27220664E+03</pdfrwt>
<totfact> 0.47928659E+03</totfact>
</mgrwt>
</event>
<event>
 5    1  0.1162308E+001  0.2743785E+03  0.7818608E-02  0.1098800E+00
          3   -1    0    0  501    0  0.00000000000E+00  0.00000000000E+00  0.10900357875E+02  0.10900357875E+02  0.00000000000E+00 0.  1.
         -3   -1    0    0    0  501 -0.00000000000E+00 -0.00000000000E+00 -0.17266301820E+04  0.17266301820E+04  0.00000000000E+00 0.  1.
         35    2    1    2    0    0  0.00000000000E+00  0.00000000000E+00 -0.17157298241E+04  0.17375305399E+04  0.27437847511E+03 0.  0.
         25    1    3    3    0    0 -0.11134484970E+02 -0.42501327019E+01 -0.12720989315E+04  0.12778019142E+04  0.12000000000E+03 0.  0.
         25    1    3    3    0    0  0.11134484970E+02  0.42501327019E+01 -0.44363089265E+03  0.45972862571E+03  0.12000000000E+03 0.  0.
<mgrwt>
<rscale>  0 0.27437848E+03</rscale>
<asrwt>0</asrwt>
<pdfrwt beam="1">  1        3 0.16769786E-02 0.27437848E+03</pdfrwt>
<pdfrwt beam="2">  1       -3 0.26563534E+00 0.27437848E+03</pdfrwt>
<totfact> 0.21223710E+02</totfact>
</mgrwt>
</event>
<event>
 5    1  0.1162308E+001  0.2742719E+03  0.7818608E-02  0.1098859E+00
         -3   -1    0    0    0  501 -0.00000000000E+00  0.00000000000E+00  0.26722786146E+03  0.26722786146E+03  0.00000000000E+00 0. -1.
          3   -1    0    0  501    0  0.00000000000E+00 -0.00000000000E+00 -0.70375409944E+02  0.70375409944E+02  0.00000000000E+00 0. -1.
         35    2    1    2    0    0  0.00000000000E+00  0.00000000000E+00  0.19685245151E+03  0.33760327140E+03  0.27427191105E+03 0.  0.
         25    1    3    3    0    0 -0.56385334154E+02  0.24677768990E+02  0.67827048407E+02  0.15095961939E+03  0.12000000000E+03 0.  0.
         25    1    3    3    0    0  0.56385334154E+02 -0.24677768990E+02  0.12902540310E+03  0.18664365201E+03  0.12000000000E+03 0.  0.
<mgrwt>
<rscale>  0 0.27427191E+03</rscale>
<asrwt>0</asrwt>
<pdfrwt beam="1">  1        3 0.10826986E-01 0.27427191E+03</pdfrwt>
<pdfrwt beam="2">  1       -3 0.41111978E-01 0.27427191E+03</pdfrwt>
<totfact> 0.96684429E+02</totfact>
</mgrwt>
</event>
<event>
 5    1  0.1162308E+001  0.2752878E+03  0.7818608E-02  0.1098291E+00
          3   -1    0    0  501    0  0.00000000000E+00  0.00000000000E+00  0.48104286525E+03  0.48104286525E+03  0.00000000000E+00 0.  1.
         -3   -1    0    0    0  501 -0.00000000000E+00 -0.00000000000E+00 -0.39384925738E+02  0.39384925738E+02  0.00000000000E+00 0.  1.
         35    2    1    2    0    0  0.00000000000E+00  0.00000000000E+00  0.44165793951E+03  0.52042779098E+03  0.27528775871E+03 0.  0.
         25    1    3    3    0    0 -0.52426059026E+02 -0.87235810258E+01  0.14239667440E+03  0.19365279603E+03  0.12000000000E+03 0.  0.
         25    1    3    3    0    0  0.52426059026E+02  0.87235810258E+01  0.29926126511E+03  0.32677499495E+03  0.12000000000E+03 0.  0.
<mgrwt>
<rscale>  0 0.27528776E+03</rscale>
<asrwt>0</asrwt>
<pdfrwt beam="1">  1        3 0.74006590E-01 0.27528776E+03</pdfrwt>
<pdfrwt beam="2">  1       -3 0.60592197E-02 0.27528776E+03</pdfrwt>
<totfact> 0.75255550E+02</totfact>
</mgrwt>
</event>
<event>
 5    1  0.1162308E+001  0.2727599E+03  0.7818608E-02  0.1099710E+00
         -1   -1    0    0    0  501 -0.00000000000E+00  0.00000000000E+00  0.15984814641E+03  0.15984814641E+03  0.00000000000E+00 0. -1.
          1   -1    0    0  501    0  0.00000000000E+00 -0.00000000000E+00 -0.11635725047E+03  0.11635725047E+03  0.00000000000E+00 0. -1.
         35    2    1    2    0    0  0.00000000000E+00  0.00000000000E+00  0.43490895940E+02  0.27620539687E+03  0.27275990034E+03 0.  0.
         25    1    3    3    0    0  0.11729860207E+02  0.99705128336E+01 -0.41998026224E+02  0.12806574465E+03  0.12000000000E+03 0.  0.
         25    1    3    3    0    0 -0.11729860207E+02 -0.99705128336E+01  0.85488922164E+02  0.14813965222E+03  0.12000000000E+03 0.  0.
<mgrwt>
<rscale>  0 0.27275990E+03</rscale>
<asrwt>0</asrwt>
<pdfrwt beam="1">  1        1 0.17901115E-01 0.27275990E+03</pdfrwt>
<pdfrwt beam="2">  1       -1 0.24592023E-01 0.27275990E+03</pdfrwt>
<totfact> 0.41977370E+03</totfact>
</mgrwt>
</event>
<event>
 5    1  0.1162308E+001  0.2743499E+03  0.7818608E-02  0.1098816E+00
         -1   -1    0    0    0  501 -0.00000000000E+00  0.00000000000E+00  0.19031736031E+03  0.19031736031E+03  0.00000000000E+00 0.  1.
          1   -1    0    0  501    0  0.00000000000E+00 -0.00000000000E+00 -0.98871554820E+02  0.98871554820E+02  0.00000000000E+00 0.  1.
         35    2    1    2    0    0  0.00000000000E+00  0.00000000000E+00  0.91445805486E+02  0.28918891513E+03  0.27434994677E+03 0.  0.
         25    1    3    3    0    0  0.53096470995E+02  0.20276554231E+02  0.94126868532E+01  0.13311263110E+03  0.12000000000E+03 0.  0.
         25    1    3    3    0    0 -0.53096470995E+02 -0.20276554231E+02  0.82033118633E+02  0.15607628403E+03  0.12000000000E+03 0.  0.
<mgrwt>
<rscale>  0 0.27434995E+03</rscale>
<asrwt>0</asrwt>
<pdfrwt beam="1">  1        1 0.15211008E-01 0.27434995E+03</pdfrwt>
<pdfrwt beam="2">  1       -1 0.29279594E-01 0.27434995E+03</pdfrwt>
<totfact> 0.38746844E+03</totfact>
</mgrwt>
</event>
<event>
 5    1  0.1162308E+001  0.2748485E+03  0.7818608E-02  0.1098536E+00
          1   -1    0    0  501    0  0.00000000000E+00  0.00000000000E+00  0.13311177103E+03  0.13311177103E+03  0.00000000000E+00 0. -1.
         -1   -1    0    0    0  501 -0.00000000000E+00 -0.00000000000E+00 -0.14187648809E+03  0.14187648809E+03  0.00000000000E+00 0. -1.
         35    2    1    2    0    0  0.00000000000E+00  0.00000000000E+00 -0.87647170606E+01  0.27498825912E+03  0.27484854445E+03 0.  0.
         25    1    3    3    0    0  0.28595350924E+02  0.57968248359E+02 -0.21924630507E+02  0.13805325543E+03  0.12000000000E+03 0.  0.
         25    1    3    3    0    0 -0.28595350924E+02 -0.57968248359E+02  0.13159913446E+02  0.13693500369E+03  0.12000000000E+03 0.  0.
<mgrwt>
<rscale>  0 0.27484854E+03</rscale>
<asrwt>0</asrwt>
<pdfrwt beam="1">  1        1 0.20478734E-01 0.27484854E+03</pdfrwt>
<pdfrwt beam="2">  1       -1 0.21827152E-01 0.27484854E+03</pdfrwt>
<totfact> 0.42961299E+03</totfact>
</mgrwt>
</event>
<event>
 5    1  0.1162308E+001  0.2749041E+03  0.7818608E-02  0.1098505E+00
          1   -1    0    0  501    0  0.00000000000E+00  0.00000000000E+00  0.13065243041E+03  0.13065243041E+03  0.00000000000E+00 0. -1.
         -1   -1    0    0    0  501 -0.00000000000E+00 -0.00000000000E+00 -0.14460553780E+03  0.14460553780E+03  0.00000000000E+00 0. -1.
         35    2    1    2    0    0  0.00000000000E+00  0.00000000000E+00 -0.13953107394E+02  0.27525796821E+03  0.27490409211E+03 0.  0.
         25    1    3    3    0    0  0.27098441014E+02  0.44269584713E+02 -0.49445103999E+02  0.13978175827E+03  0.12000000000E+03 0.  0.
         25    1    3    3    0    0 -0.27098441014E+02 -0.44269584713E+02  0.35491996606E+02  0.13547620994E+03  0.12000000000E+03 0.  0.
<mgrwt>
<rscale>  0 0.27490409E+03</rscale>
<asrwt>0</asrwt>
<pdfrwt beam="1">  1        1 0.20100374E-01 0.27490409E+03</pdfrwt>
<pdfrwt beam="2">  1       -1 0.22247006E-01 0.27490409E+03</pdfrwt>
<totfact> 0.42650825E+03</totfact>
</mgrwt>
</event>
<event>
 5    1  0.1162308E+001  0.2760541E+03  0.7818608E-02  0.1097864E+00
         -1   -1    0    0    0  501 -0.00000000000E+00  0.00000000000E+00  0.19190888725E+03  0.19190888725E+03  0.00000000000E+00 0.  1.
          1   -1    0    0  501    0  0.00000000000E+00 -0.00000000000E+00 -0.99273477868E+02  0.99273477868E+02  0.00000000000E+00 0.  1.
         35    2    1    2    0    0  0.00000000000E+00  0.00000000000E+00  0.92635409377E+02  0.29118236511E+03  0.27605407203E+03 0.  0.
         25    1    3    3    0    0 -0.54293868059E+02 -0.39733525742E+02  0.58105345928E+02  0.14934124816E+03  0.12000000000E+03 0.  0.
         25    1    3    3    0    0  0.54293868059E+02  0.39733525742E+02  0.34530063448E+02  0.14184111695E+03  0.12000000000E+03 0.  0.
<mgrwt>
<rscale>  0 0.27605407E+03</rscale>
<asrwt>0</asrwt>
<pdfrwt beam="1">  1        1 0.15272843E-01 0.27605407E+03</pdfrwt>
<pdfrwt beam="2">  1       -1 0.29524444E-01 0.27605407E+03</pdfrwt>
<totfact> 0.38007463E+03</totfact>
</mgrwt>
</event>
<event>
 5    1  0.1162308E+001  0.2749101E+03  0.7818608E-02  0.1098502E+00
          2   -1    0    0  501    0  0.00000000000E+00  0.00000000000E+00  0.27035680692E+03  0.27035680692E+03  0.00000000000E+00 0. -1.
         -2   -1    0    0    0  501 -0.00000000000E+00 -0.00000000000E+00 -0.69885027612E+02  0.69885027612E+02  0.00000000000E+00 0. -1.
         35    2    1    2    0    0  0.00000000000E+00  0.00000000000E+00  0.20047177931E+03  0.34024183454E+03  0.27491011562E+03 0.  0.
         25    1    3    3    0    0 -0.52482159655E+02  0.28460560552E+02  0.62502608812E+02  0.14788832509E+03  0.12000000000E+03 0.  0.
         25    1    3    3    0    0  0.52482159655E+02 -0.28460560552E+02  0.13796917050E+03  0.19235350945E+03  0.12000000000E+03 0.  0.
<mgrwt>
<rscale>  0 0.27491012E+03</rscale>
<asrwt>0</asrwt>
<pdfrwt beam="1">  1        2 0.41593354E-01 0.27491012E+03</pdfrwt>
<pdfrwt beam="2">  1       -2 0.10751543E-01 0.27491012E+03</pdfrwt>
<totfact> 0.71777134E+03</totfact>
</mgrwt>
</event>
<event>
 5    1  0.1162308E+001  0.2778457E+03  0.7818608E-02  0.1096871E+00
          1   -1    0    0  501    0  0.00000000000E+00  0.00000000000E+00  0.14534735710E+04  0.14534735710E+04  0.00000000000E+00 0. -1.
         -1   -1    0    0    0  501 -0.00000000000E+00 -0.00000000000E+00 -0.13278235438E+02  0.13278235438E+02  0.00000000000E+00 0. -1.
         35    2    1    2    0    0  0.00000000000E+00  0.00000000000E+00  0.14401953356E+04  0.14667518064E+04  0.27784574338E+03 0.  0.
         25    1    3    3    0    0  0.31541278967E+02  0.44064853978E+02  0.48620688625E+03  0.50371986250E+03  0.12000000000E+03 0.  0.
         25    1    3    3    0    0 -0.31541278967E+02 -0.44064853978E+02  0.95398844930E+03  0.96303194393E+03  0.12000000000E+03 0.  0.
<mgrwt>
<rscale>  0 0.27784574E+03</rscale>
<asrwt>0</asrwt>
<pdfrwt beam="1">  1        1 0.22361119E+00 0.27784574E+03</pdfrwt>
<pdfrwt beam="2">  1       -1 0.20428066E-02 0.27784574E+03</pdfrwt>
<totfact> 0.51093963E+03</totfact>
</mgrwt>
</event>
<event>
 5    1  0.1162308E+001  0.2749877E+03  0.7818608E-02  0.1098458E+00
         -2   -1    0    0    0  501 -0.00000000000E+00  0.00000000000E+00  0.70183886739E+01  0.70183886739E+01  0.00000000000E+00 0. -1.
          2   -1    0    0  501    0  0.00000000000E+00 -0.00000000000E+00 -0.26935748309E+04  0.26935748309E+04  0.00000000000E+00 0. -1.
         35    2    1    2    0    0  0.00000000000E+00  0.00000000000E+00 -0.26865564422E+04  0.27005932195E+04  0.27498767307E+03 0.  0.
         25    1    3    3    0    0  0.17897012843E+02  0.14026354002E+02 -0.19634286168E+04  0.19672236718E+04  0.12000000000E+03 0.  0.
         25    1    3    3    0    0 -0.17897012843E+02 -0.14026354002E+02 -0.72312782536E+03  0.73336954770E+03  0.12000000000E+03 0.  0.
<mgrwt>
<rscale>  0 0.27498767E+03</rscale>
<asrwt>0</asrwt>
<pdfrwt beam="1">  1        2 0.41439616E+00 0.27498767E+03</pdfrwt>
<pdfrwt beam="2">  1       -2 0.10797520E-02 0.27498767E+03</pdfrwt>
<totfact> 0.59706764E+03</totfact>
</mgrwt>
</event>
<event>
 5    1  0.1162308E+001  0.2787694E+03  0.7818608E-02  0.1096363E+00
         -2   -1    0    0    0  501 -0.00000000000E+00  0.00000000000E+00  0.38752726656E+02  0.38752726656E+02  0.00000000000E+00 0. -1.
          2   -1    0    0  501    0  0.00000000000E+00 -0.00000000000E+00 -0.50133474503E+03  0.50133474503E+03  0.00000000000E+00 0. -1.
         35    2    1    2    0    0  0.00000000000E+00  0.00000000000E+00 -0.46258201837E+03  0.54008747168E+03  0.27876935511E+03 0.  0.
         25    1    3    3    0    0 -0.12559251103E+02 -0.18007314184E+02 -0.36191955620E+03  0.38192638468E+03  0.12000000000E+03 0.  0.
         25    1    3    3    0    0  0.12559251103E+02  0.18007314184E+02 -0.10066246217E+03  0.15816108700E+03  0.12000000000E+03 0.  0.
<mgrwt>
<rscale>  0 0.27876936E+03</rscale>
<asrwt>0</asrwt>
<pdfrwt beam="1">  1        2 0.77128422E-01 0.27876936E+03</pdfrwt>
<pdfrwt beam="2">  1       -2 0.59619580E-02 0.27876936E+03</pdfrwt>
<totfact> 0.92300190E+03</totfact>
</mgrwt>
</event>
<event>
 5    1  0.1162308E+001  0.2752484E+03  0.7818608E-02  0.1098313E+00
         -3   -1    0    0    0  501 -0.00000000000E+00  0.00000000000E+00  0.16291174689E+03  0.16291174689E+03  0.00000000000E+00 0. -1.
          3   -1    0    0  501    0  0.00000000000E+00 -0.00000000000E+00 -0.11626186481E+03  0.11626186481E+03  0.00000000000E+00 0. -1.
         35    2    1    2    0    0  0.00000000000E+00  0.00000000000E+00  0.46649882073E+02  0.27917361170E+03  0.27524842229E+03 0.  0.
         25    1    3    3    0    0  0.60425532253E+02 -0.28806439932E+02  0.15510028158E+02  0.13828093471E+03  0.12000000000E+03 0.  0.
         25    1    3    3    0    0 -0.60425532253E+02  0.28806439932E+02  0.31139853914E+02  0.14089267700E+03  0.12000000000E+03 0.  0.
<mgrwt>
<rscale>  0 0.27524842E+03</rscale>
<asrwt>0</asrwt>
<pdfrwt beam="1">  1        3 0.17886441E-01 0.27524842E+03</pdfrwt>
<pdfrwt beam="2">  1       -3 0.25063346E-01 0.27524842E+03</pdfrwt>
<totfact> 0.10396246E+03</totfact>
</mgrwt>
</event>
<event>
 5    1  0.1162308E+001  0.2744609E+03  0.7818608E-02  0.1098753E+00
          1   -1    0    0  501    0  0.00000000000E+00  0.00000000000E+00  0.16286751661E+03  0.16286751661E+03  0.00000000000E+00 0. -1.
         -1   -1    0    0    0  501 -0.00000000000E+00 -0.00000000000E+00 -0.11562888947E+03  0.11562888947E+03  0.00000000000E+00 0. -1.
         35    2    1    2    0    0  0.00000000000E+00  0.00000000000E+00  0.47238627139E+02  0.27849640608E+03  0.27446085387E+03 0.  0.
         25    1    3    3    0    0  0.23633201799E+02 -0.40986130052E+02  0.71146007120E+02  0.14730969219E+03  0.12000000000E+03 0.  0.
         25    1    3    3    0    0 -0.23633201799E+02  0.40986130052E+02 -0.23907379981E+02  0.13118671389E+03  0.12000000000E+03 0.  0.
<mgrwt>
<rscale>  0 0.27446085E+03</rscale>
<asrwt>0</asrwt>
<pdfrwt beam="1">  1        1 0.25056541E-01 0.27446085E+03</pdfrwt>
<pdfrwt beam="2">  1       -1 0.17789060E-01 0.27446085E+03</pdfrwt>
<totfact> 0.46259597E+03</totfact>
</mgrwt>
</event>
<event>
 5    1  0.1162308E+001  0.2748661E+03  0.7818608E-02  0.1098526E+00
          1   -1    0    0  501    0  0.00000000000E+00  0.00000000000E+00  0.10841908603E+03  0.10841908603E+03  0.00000000000E+00 0. -1.
         -1   -1    0    0    0  501 -0.00000000000E+00 -0.00000000000E+00 -0.17421147056E+03  0.17421147056E+03  0.00000000000E+00 0. -1.
         35    2    1    2    0    0  0.00000000000E+00  0.00000000000E+00 -0.65792384526E+02  0.28263055659E+03  0.27486613771E+03 0.  0.
         25    1    3    3    0    0  0.12728047776E+02 -0.81276748292E+01 -0.10000689256E+03  0.15693769738E+03  0.12000000000E+03 0.  0.
         25    1    3    3    0    0 -0.12728047776E+02  0.81276748292E+01  0.34214508033E+02  0.12569285922E+03  0.12000000000E+03 0.  0.
<mgrwt>
<rscale>  0 0.27486614E+03</rscale>
<asrwt>0</asrwt>
<pdfrwt beam="1">  1        1 0.16679859E-01 0.27486614E+03</pdfrwt>
<pdfrwt beam="2">  1       -1 0.26801765E-01 0.27486614E+03</pdfrwt>
<totfact> 0.39873633E+03</totfact>
</mgrwt>
</event>
<event>
 5    1  0.1162308E+001  0.2745277E+03  0.7818608E-02  0.1098716E+00
          2   -1    0    0  501    0  0.00000000000E+00  0.00000000000E+00  0.14872015242E+03  0.14872015242E+03  0.00000000000E+00 0. -1.
         -2   -1    0    0    0  501 -0.00000000000E+00 -0.00000000000E+00 -0.12669002495E+03  0.12669002495E+03  0.00000000000E+00 0. -1.
         35    2    1    2    0    0  0.00000000000E+00  0.00000000000E+00  0.22030127465E+02  0.27541017737E+03  0.27452766579E+03 0.  0.
         25    1    3    3    0    0 -0.22838682945E+02  0.57274820033E+02  0.36381706289E+02  0.13973417263E+03  0.12000000000E+03 0.  0.
         25    1    3    3    0    0  0.22838682945E+02 -0.57274820033E+02 -0.14351578824E+02  0.13567600474E+03  0.12000000000E+03 0.  0.
<mgrwt>
<rscale>  0 0.27452767E+03</rscale>
<asrwt>0</asrwt>
<pdfrwt beam="1">  1        2 0.22880023E-01 0.27452767E+03</pdfrwt>
<pdfrwt beam="2">  1       -2 0.19490773E-01 0.27452767E+03</pdfrwt>
<totfact> 0.51907521E+03</totfact>
</mgrwt>
</event>
<event>
 5    1  0.1162308E+001  0.2748847E+03  0.7818608E-02  0.1098516E+00
          3   -1    0    0  501    0  0.00000000000E+00  0.00000000000E+00  0.33760968323E+03  0.33760968323E+03  0.00000000000E+00 0. -1.
         -3   -1    0    0    0  501 -0.00000000000E+00 -0.00000000000E+00 -0.55953380637E+02  0.55953380637E+02  0.00000000000E+00 0. -1.
         35    2    1    2    0    0  0.00000000000E+00  0.00000000000E+00  0.28165630259E+03  0.39356306387E+03  0.27488472575E+03 0.  0.
         25    1    3    3    0    0  0.14451701615E+02  0.54544616374E+02  0.89078451260E+02  0.15974647831E+03  0.12000000000E+03 0.  0.
         25    1    3    3    0    0 -0.14451701615E+02 -0.54544616374E+02  0.19257785133E+03  0.23381658555E+03  0.12000000000E+03 0.  0.
<mgrwt>
<rscale>  0 0.27488473E+03</rscale>
<asrwt>0</asrwt>
<pdfrwt beam="1">  1        3 0.51939950E-01 0.27488473E+03</pdfrwt>
<pdfrwt beam="2">  1       -3 0.86082127E-02 0.27488473E+03</pdfrwt>
<totfact> 0.88992540E+02</totfact>
</mgrwt>
</event>
<event>
 5    1  0.1162308E+001  0.2752700E+03  0.7818608E-02  0.1098301E+00
          3   -1    0    0  501    0  0.00000000000E+00  0.00000000000E+00  0.63299029745E+02  0.63299029745E+02  0.00000000000E+00 0. -1.
         -3   -1    0    0    0  501 -0.00000000000E+00 -0.00000000000E+00 -0.29926829960E+03  0.29926829960E+03  0.00000000000E+00 0. -1.
         35    2    1    2    0    0  0.00000000000E+00  0.00000000000E+00 -0.23596926985E+03  0.36256732934E+03  0.27526999835E+03 0.  0.
         25    1    3    3    0    0  0.45898113417E+02 -0.36745377267E+02 -0.16140078745E+03  0.20954014831E+03  0.12000000000E+03 0.  0.
         25    1    3    3    0    0 -0.45898113417E+02  0.36745377267E+02 -0.74568482400E+02  0.15302718103E+03  0.12000000000E+03 0.  0.
<mgrwt>
<rscale>  0 0.27527000E+03</rscale>
<asrwt>0</asrwt>
<pdfrwt beam="1">  1        3 0.97383122E-02 0.27527000E+03</pdfrwt>
<pdfrwt beam="2">  1       -3 0.46041277E-01 0.27527000E+03</pdfrwt>
<totfact> 0.92367873E+02</totfact>
</mgrwt>
</event>
<event>
 5    1  0.1162308E+001  0.2750847E+03  0.7818608E-02  0.1098404E+00
         -1   -1    0    0    0  501 -0.00000000000E+00  0.00000000000E+00  0.10579675098E+02  0.10579675098E+02  0.00000000000E+00 0. -1.
          1   -1    0    0  501    0  0.00000000000E+00 -0.00000000000E+00 -0.17881355319E+04  0.17881355319E+04  0.00000000000E+00 0. -1.
         35    2    1    2    0    0  0.00000000000E+00  0.00000000000E+00 -0.17775558568E+04  0.17987152070E+04  0.27508466303E+03 0.  0.
         25    1    3    3    0    0  0.53385134029E+02 -0.77864587193E+01 -0.62663185882E+03  0.64029531308E+03  0.12000000000E+03 0.  0.
         25    1    3    3    0    0 -0.53385134029E+02  0.77864587193E+01 -0.11509239980E+04  0.11584198939E+04  0.12000000000E+03 0.  0.
<mgrwt>
<rscale>  0 0.27508466E+03</rscale>
<asrwt>0</asrwt>
<pdfrwt beam="1">  1        1 0.27509752E+00 0.27508466E+03</pdfrwt>
<pdfrwt beam="2">  1       -1 0.16276438E-02 0.27508466E+03</pdfrwt>
<totfact> 0.42917783E+03</totfact>
</mgrwt>
</event>
<event>
 5    1  0.1162308E+001  0.2739273E+03  0.7818608E-02  0.1099053E+00
         -2   -1    0    0    0  501 -0.00000000000E+00  0.00000000000E+00  0.30688557636E+03  0.30688557636E+03  0.00000000000E+00 0. -1.
          2   -1    0    0  501    0  0.00000000000E+00 -0.00000000000E+00 -0.61127142549E+02  0.61127142549E+02  0.00000000000E+00 0. -1.
         35    2    1    2    0    0  0.00000000000E+00  0.00000000000E+00  0.24575843381E+03  0.36801271891E+03  0.27392727774E+03 0.  0.
         25    1    3    3    0    0  0.53000029298E+02 -0.25750744309E+02  0.16288965485E+03  0.21072527992E+03  0.12000000000E+03 0.  0.
         25    1    3    3    0    0 -0.53000029298E+02  0.25750744309E+02  0.82868778953E+02  0.15728743899E+03  0.12000000000E+03 0.  0.
<mgrwt>
<rscale>  0 0.27392728E+03</rscale>
<asrwt>0</asrwt>
<pdfrwt beam="1">  1        2 0.94041760E-02 0.27392728E+03</pdfrwt>
<pdfrwt beam="2">  1       -2 0.47213164E-01 0.27392728E+03</pdfrwt>
<totfact> 0.29700884E+03</totfact>
</mgrwt>
</event>
<event>
 5    1  0.1162308E+001  0.2736404E+03  0.7818608E-02  0.1099214E+00
         -2   -1    0    0    0  501 -0.00000000000E+00  0.00000000000E+00  0.21042301514E+02  0.21042301514E+02  0.00000000000E+00 0. -1.
          2   -1    0    0  501    0  0.00000000000E+00 -0.00000000000E+00 -0.88962570976E+03  0.88962570976E+03  0.00000000000E+00 0. -1.
         35    2    1    2    0    0  0.00000000000E+00  0.00000000000E+00 -0.86858340824E+03  0.91066801127E+03  0.27364043867E+03 0.  0.
         25    1    3    3    0    0  0.12036617350E+02 -0.64208675479E+02 -0.45832194091E+03  0.47825373567E+03  0.12000000000E+03 0.  0.
         25    1    3    3    0    0 -0.12036617350E+02  0.64208675479E+02 -0.41026146733E+03  0.43241427560E+03  0.12000000000E+03 0.  0.
<mgrwt>
<rscale>  0 0.27364044E+03</rscale>
<asrwt>0</asrwt>
<pdfrwt beam="1">  1        2 0.13686549E+00 0.27364044E+03</pdfrwt>
<pdfrwt beam="2">  1       -2 0.32372773E-02 0.27364044E+03</pdfrwt>
<totfact> 0.11624819E+04</totfact>
</mgrwt>
</event>
<event>
 5    1  0.1162308E+001  0.2750402E+03  0.7818608E-02  0.1098429E+00
         -1   -1    0    0    0  501 -0.00000000000E+00  0.00000000000E+00  0.33371618374E+02  0.33371618374E+02  0.00000000000E+00 0. -1.
          1   -1    0    0  501    0  0.00000000000E+00 -0.00000000000E+00 -0.56670249147E+03  0.56670249147E+03  0.00000000000E+00 0. -1.
         35    2    1    2    0    0  0.00000000000E+00  0.00000000000E+00 -0.53333087310E+03  0.60007410984E+03  0.27504020998E+03 0.  0.
         25    1    3    3    0    0 -0.38727303531E+02 -0.37964789051E+01 -0.14721361276E+03  0.19387125902E+03  0.12000000000E+03 0.  0.
         25    1    3    3    0    0  0.38727303531E+02  0.37964789051E+01 -0.38611726033E+03  0.40620285082E+03  0.12000000000E+03 0.  0.
<mgrwt>
<rscale>  0 0.27504021E+03</rscale>
<asrwt>0</asrwt>
<pdfrwt beam="1">  1        1 0.87184993E-01 0.27504021E+03</pdfrwt>
<pdfrwt beam="2">  1       -1 0.51340955E-02 0.27504021E+03</pdfrwt>
<totfact> 0.64140413E+03</totfact>
</mgrwt>
</event>
<event>
 5    1  0.1162308E+001  0.2750371E+03  0.7818608E-02  0.1098431E+00
         -2   -1    0    0    0  501 -0.00000000000E+00  0.00000000000E+00  0.42436216086E+01  0.42436216086E+01  0.00000000000E+00 0.  1.
          2   -1    0    0  501    0  0.00000000000E+00 -0.00000000000E+00 -0.44564190034E+04  0.44564190034E+04  0.00000000000E+00 0.  1.
         35    2    1    2    0    0  0.00000000000E+00  0.00000000000E+00 -0.44521753817E+04  0.44606626250E+04  0.27503713189E+03 0.  0.
         25    1    3    3    0    0  0.55824470748E+02  0.26701412771E+02 -0.18025361324E+04  0.18075856399E+04  0.12000000000E+03 0.  0.
         25    1    3    3    0    0 -0.55824470748E+02 -0.26701412771E+02 -0.26496392493E+04  0.26530769850E+04  0.12000000000E+03 0.  0.
<mgrwt>
<rscale>  0 0.27503713E+03</rscale>
<asrwt>0</asrwt>
<pdfrwt beam="1">  1        2 0.68560725E+00 0.27503713E+03</pdfrwt>
<pdfrwt beam="2">  1       -2 0.65286074E-03 0.27503713E+03</pdfrwt>
<totfact> 0.73632935E+02</totfact>
</mgrwt>
</event>
<event>
 5    1  0.1162308E+001  0.2696265E+03  0.7818608E-02  0.1101494E+00
          1   -1    0    0  501    0  0.00000000000E+00  0.00000000000E+00  0.15273970763E+03  0.15273970763E+03  0.00000000000E+00 0. -1.
         -1   -1    0    0    0  501 -0.00000000000E+00 -0.00000000000E+00 -0.11899076095E+03  0.11899076095E+03  0.00000000000E+00 0. -1.
         35    2    1    2    0    0  0.00000000000E+00  0.00000000000E+00  0.33748946677E+02  0.27173046858E+03  0.26962651233E+03 0.  0.
         25    1    3    3    0    0  0.51900122635E+02  0.68962173468E+01  0.49272384505E+02  0.13988905754E+03  0.12000000000E+03 0.  0.
         25    1    3    3    0    0 -0.51900122635E+02 -0.68962173468E+01 -0.15523437828E+02  0.13184141104E+03  0.12000000000E+03 0.  0.
<mgrwt>
<rscale>  0 0.26962651E+03</rscale>
<asrwt>0</asrwt>
<pdfrwt beam="1">  1        1 0.23498417E-01 0.26962651E+03</pdfrwt>
<pdfrwt beam="2">  1       -1 0.18306271E-01 0.26962651E+03</pdfrwt>
<totfact> 0.47912429E+03</totfact>
</mgrwt>
</event>
<event>
 5    1  0.1162308E+001  0.2747520E+03  0.7818608E-02  0.1098590E+00
         -2   -1    0    0    0  501 -0.00000000000E+00  0.00000000000E+00  0.80958179450E+02  0.80958179450E+02  0.00000000000E+00 0. -1.
          2   -1    0    0  501    0  0.00000000000E+00 -0.00000000000E+00 -0.23311007093E+03  0.23311007093E+03  0.00000000000E+00 0. -1.
         35    2    1    2    0    0  0.00000000000E+00  0.00000000000E+00 -0.15215189148E+03  0.31406825038E+03  0.27475201149E+03 0.  0.
         25    1    3    3    0    0 -0.91864305383E+00 -0.53058830029E+02 -0.29557597730E+02  0.13449808524E+03  0.12000000000E+03 0.  0.
         25    1    3    3    0    0  0.91864305383E+00  0.53058830029E+02 -0.12259429375E+03  0.17957016514E+03  0.12000000000E+03 0.  0.
<mgrwt>
<rscale>  0 0.27475201E+03</rscale>
<asrwt>0</asrwt>
<pdfrwt beam="1">  1        2 0.35863088E-01 0.27475201E+03</pdfrwt>
<pdfrwt beam="2">  1       -2 0.12455105E-01 0.27475201E+03</pdfrwt>
<totfact> 0.66483201E+03</totfact>
</mgrwt>
</event>
<event>
 5    1  0.1162308E+001  0.2732459E+03  0.7818608E-02  0.1099436E+00
          1   -1    0    0  501    0  0.00000000000E+00  0.00000000000E+00  0.90722294761E+03  0.90722294761E+03  0.00000000000E+00 0.  1.
         -1   -1    0    0    0  501 -0.00000000000E+00 -0.00000000000E+00 -0.20574696996E+02  0.20574696996E+02  0.00000000000E+00 0.  1.
         35    2    1    2    0    0  0.00000000000E+00  0.00000000000E+00  0.88664825062E+03  0.92779764461E+03  0.27324594968E+03 0.  0.
         25    1    3    3    0    0  0.43968840027E+02 -0.35160375086E+02  0.33089742468E+03  0.35645843591E+03  0.12000000000E+03 0.  0.
         25    1    3    3    0    0 -0.43968840027E+02  0.35160375086E+02  0.55575082594E+03  0.57133920870E+03  0.12000000000E+03 0.  0.
<mgrwt>
<rscale>  0 0.27324595E+03</rscale>
<asrwt>0</asrwt>
<pdfrwt beam="1">  1        1 0.13957273E+00 0.27324595E+03</pdfrwt>
<pdfrwt beam="2">  1       -1 0.31653387E-02 0.27324595E+03</pdfrwt>
<totfact> 0.65571716E+03</totfact>
</mgrwt>
</event>
<event>
 5    1  0.1162308E+001  0.2743853E+03  0.7818608E-02  0.1098796E+00
          2   -1    0    0  501    0  0.00000000000E+00  0.00000000000E+00  0.44668830598E+03  0.44668830598E+03  0.00000000000E+00 0. -1.
         -2   -1    0    0    0  501 -0.00000000000E+00 -0.00000000000E+00 -0.42136376319E+02  0.42136376319E+02  0.00000000000E+00 0. -1.
         35    2    1    2    0    0  0.00000000000E+00  0.00000000000E+00  0.40455192966E+03  0.48882468230E+03  0.27438532438E+03 0.  0.
         25    1    3    3    0    0 -0.18846736890E+02  0.19264100919E+02  0.93975551757E+02  0.15478278135E+03  0.12000000000E+03 0.  0.
         25    1    3    3    0    0  0.18846736890E+02 -0.19264100919E+02  0.31057637790E+03  0.33404190095E+03  0.12000000000E+03 0.  0.
<mgrwt>
<rscale>  0 0.27438532E+03</rscale>
<asrwt>0</asrwt>
<pdfrwt beam="1">  1        2 0.68721275E-01 0.27438532E+03</pdfrwt>
<pdfrwt beam="2">  1       -2 0.64825197E-02 0.27438532E+03</pdfrwt>
<totfact> 0.92181757E+03</totfact>
</mgrwt>
</event>
<event>
 5    1  0.1162308E+001  0.2786270E+03  0.7818608E-02  0.1096441E+00
          1   -1    0    0  501    0  0.00000000000E+00  0.00000000000E+00  0.28154116697E+03  0.28154116697E+03  0.00000000000E+00 0. -1.
         -1   -1    0    0    0  501 -0.00000000000E+00 -0.00000000000E+00 -0.68935763928E+02  0.68935763928E+02  0.00000000000E+00 0. -1.
         35    2    1    2    0    0  0.00000000000E+00  0.00000000000E+00  0.21260540304E+03  0.35047693090E+03  0.27862702972E+03 0.  0.
         25    1    3    3    0    0  0.68459755918E+02  0.45869072553E-01  0.83748009318E+02  0.16155639681E+03  0.12000000000E+03 0.  0.
         25    1    3    3    0    0 -0.68459755918E+02 -0.45869072553E-01  0.12885739373E+03  0.18892053409E+03  0.12000000000E+03 0.  0.
<mgrwt>
<rscale>  0 0.27862703E+03</rscale>
<asrwt>0</asrwt>
<pdfrwt beam="1">  1        1 0.43314025E-01 0.27862703E+03</pdfrwt>
<pdfrwt beam="2">  1       -1 0.10605502E-01 0.27862703E+03</pdfrwt>
<totfact> 0.52504592E+03</totfact>
</mgrwt>
</event>
<event>
 5    1  0.1162308E+001  0.2752204E+03  0.7818608E-02  0.1098328E+00
          1   -1    0    0  501    0  0.00000000000E+00  0.00000000000E+00  0.69502902178E+02  0.69502902178E+02  0.00000000000E+00 0. -1.
         -1   -1    0    0    0  501 -0.00000000000E+00 -0.00000000000E+00 -0.27245721251E+03  0.27245721251E+03  0.00000000000E+00 0. -1.
         35    2    1    2    0    0  0.00000000000E+00  0.00000000000E+00 -0.20295431033E+03  0.34196011469E+03  0.27522039887E+03 0.  0.
         25    1    3    3    0    0 -0.41931574670E+01  0.52179121739E+02 -0.48816394155E+02  0.13972574442E+03  0.12000000000E+03 0.  0.
         25    1    3    3    0    0  0.41931574670E+01 -0.52179121739E+02 -0.15413791618E+03  0.20223437027E+03  0.12000000000E+03 0.  0.
<mgrwt>
<rscale>  0 0.27522040E+03</rscale>
<asrwt>0</asrwt>
<pdfrwt beam="1">  1        1 0.10692754E-01 0.27522040E+03</pdfrwt>
<pdfrwt beam="2">  1       -1 0.41916494E-01 0.27522040E+03</pdfrwt>
<totfact> 0.33117221E+03</totfact>
</mgrwt>
</event>
<event>
 5    1  0.1162308E+001  0.2745140E+03  0.7818608E-02  0.1098724E+00
          2   -1    0    0  501    0  0.00000000000E+00  0.00000000000E+00  0.91586502864E+03  0.91586502864E+03  0.00000000000E+00 0. -1.
         -2   -1    0    0    0  501 -0.00000000000E+00 -0.00000000000E+00 -0.20570146287E+02  0.20570146287E+02  0.00000000000E+00 0. -1.
         35    2    1    2    0    0  0.00000000000E+00  0.00000000000E+00  0.89529488236E+03  0.93643517493E+03  0.27451395315E+03 0.  0.
         25    1    3    3    0    0 -0.32426241218E+02 -0.13273155648E+02  0.25432145470E+03  0.28338496803E+03  0.12000000000E+03 0.  0.
         25    1    3    3    0    0  0.32426241218E+02  0.13273155648E+02  0.64097342765E+03  0.65305020690E+03  0.12000000000E+03 0.  0.
<mgrwt>
<rscale>  0 0.27451395E+03</rscale>
<asrwt>0</asrwt>
<pdfrwt beam="1">  1        2 0.14090228E+00 0.27451395E+03</pdfrwt>
<pdfrwt beam="2">  1       -2 0.31646386E-02 0.27451395E+03</pdfrwt>
<totfact> 0.11566727E+04</totfact>
</mgrwt>
</event>
<event>
 5    1  0.1162308E+001  0.2752071E+03  0.7818608E-02  0.1098336E+00
         -2   -1    0    0    0  501 -0.00000000000E+00  0.00000000000E+00  0.24678372091E+03  0.24678372091E+03  0.00000000000E+00 0.  1.
          2   -1    0    0  501    0  0.00000000000E+00 -0.00000000000E+00 -0.76726019600E+02  0.76726019600E+02  0.00000000000E+00 0.  1.
         35    2    1    2    0    0  0.00000000000E+00  0.00000000000E+00  0.17005770131E+03  0.32350974051E+03  0.27520706828E+03 0.  0.
         25    1    3    3    0    0  0.45369817272E+01  0.62064613217E+02  0.54780609381E+02  0.14585443285E+03  0.12000000000E+03 0.  0.
         25    1    3    3    0    0 -0.45369817272E+01 -0.62064613217E+02  0.11527709193E+03  0.17765530766E+03  0.12000000000E+03 0.  0.
<mgrwt>
<rscale>  0 0.27520707E+03</rscale>
<asrwt>0</asrwt>
<pdfrwt beam="1">  1        2 0.11804003E-01 0.27520707E+03</pdfrwt>
<pdfrwt beam="2">  1       -2 0.37966726E-01 0.27520707E+03</pdfrwt>
<totfact> 0.34174414E+03</totfact>
</mgrwt>
</event>
<event>
 5    1  0.1162308E+001  0.2753174E+03  0.7818608E-02  0.1098274E+00
         -2   -1    0    0    0  501 -0.00000000000E+00  0.00000000000E+00  0.42171318001E+03  0.42171318001E+03  0.00000000000E+00 0. -1.
          2   -1    0    0  501    0  0.00000000000E+00 -0.00000000000E+00 -0.44935562541E+02  0.44935562541E+02  0.00000000000E+00 0. -1.
         35    2    1    2    0    0  0.00000000000E+00  0.00000000000E+00  0.37677761747E+03  0.46664874255E+03  0.27531740936E+03 0.  0.
         25    1    3    3    0    0  0.43386551310E+02 -0.51146132896E+02  0.20056406288E+03  0.24315481296E+03  0.12000000000E+03 0.  0.
         25    1    3    3    0    0 -0.43386551310E+02  0.51146132896E+02  0.17621355459E+03  0.22349392959E+03  0.12000000000E+03 0.  0.
<mgrwt>
<rscale>  0 0.27531741E+03</rscale>
<asrwt>0</asrwt>
<pdfrwt beam="1">  1        2 0.69131638E-02 0.27531741E+03</pdfrwt>
<pdfrwt beam="2">  1       -2 0.64878948E-01 0.27531741E+03</pdfrwt>
<totfact> 0.22977177E+03</totfact>
</mgrwt>
</event>
<event>
 5    1  0.1162308E+001  0.2749004E+03  0.7818608E-02  0.1098507E+00
          1   -1    0    0  501    0  0.00000000000E+00  0.00000000000E+00  0.19447946429E+03  0.19447946429E+03  0.00000000000E+00 0. -1.
         -1   -1    0    0    0  501 -0.00000000000E+00 -0.00000000000E+00 -0.97144205737E+02  0.97144205737E+02  0.00000000000E+00 0. -1.
         35    2    1    2    0    0  0.00000000000E+00  0.00000000000E+00  0.97335258558E+02  0.29162367003E+03  0.27490036807E+03 0.  0.
         25    1    3    3    0    0 -0.45930159190E+02 -0.20545034851E+01 -0.30718539037E+01  0.12854274306E+03  0.12000000000E+03 0.  0.
         25    1    3    3    0    0  0.45930159190E+02  0.20545034851E+01  0.10040711246E+03  0.16308092697E+03  0.12000000000E+03 0.  0.
<mgrwt>
<rscale>  0 0.27490037E+03</rscale>
<asrwt>0</asrwt>
<pdfrwt beam="1">  1        1 0.29919917E-01 0.27490037E+03</pdfrwt>
<pdfrwt beam="2">  1       -1 0.14945262E-01 0.27490037E+03</pdfrwt>
<totfact> 0.48801451E+03</totfact>
</mgrwt>
</event>
<event>
 5    1  0.1162308E+001  0.2736946E+03  0.7818608E-02  0.1099184E+00
          2   -1    0    0  501    0  0.00000000000E+00  0.00000000000E+00  0.11334215911E+04  0.11334215911E+04  0.00000000000E+00 0.  1.
         -2   -1    0    0    0  501 -0.00000000000E+00 -0.00000000000E+00 -0.16522694376E+02  0.16522694376E+02  0.00000000000E+00 0.  1.
         35    2    1    2    0    0  0.00000000000E+00  0.00000000000E+00  0.11168988967E+04  0.11499442854E+04  0.27369456369E+03 0.  0.
         25    1    3    3    0    0  0.11731552126E+02 -0.55735444096E+01  0.82939260681E+03  0.83812933963E+03  0.12000000000E+03 0.  0.
         25    1    3    3    0    0 -0.11731552126E+02  0.55735444096E+01  0.28750628986E+03  0.31181494580E+03  0.12000000000E+03 0.  0.
<mgrwt>
<rscale>  0 0.27369456E+03</rscale>
<asrwt>0</asrwt>
<pdfrwt beam="1">  1        2 0.17437249E+00 0.27369456E+03</pdfrwt>
<pdfrwt beam="2">  1       -2 0.25419539E-02 0.27369456E+03</pdfrwt>
<totfact> 0.11815210E+04</totfact>
</mgrwt>
</event>
<event>
 5    1  0.1162308E+001  0.2752885E+03  0.7818608E-02  0.1098290E+00
         -1   -1    0    0    0  501 -0.00000000000E+00  0.00000000000E+00  0.34214129557E+03  0.34214129557E+03  0.00000000000E+00 0.  1.
          1   -1    0    0  501    0  0.00000000000E+00 -0.00000000000E+00 -0.55374595465E+02  0.55374595465E+02  0.00000000000E+00 0.  1.
         35    2    1    2    0    0  0.00000000000E+00  0.00000000000E+00  0.28676670010E+03  0.39751589103E+03  0.27528847294E+03 0.  0.
         25    1    3    3    0    0  0.54061152212E+02 -0.22247269932E+02  0.94877353123E+02  0.16376587353E+03  0.12000000000E+03 0.  0.
         25    1    3    3    0    0 -0.54061152212E+02  0.22247269932E+02  0.19188934698E+03  0.23375001750E+03  0.12000000000E+03 0.  0.
<mgrwt>
<rscale>  0 0.27528847E+03</rscale>
<asrwt>0</asrwt>
<pdfrwt beam="1">  1        1 0.85191688E-02 0.27528847E+03</pdfrwt>
<pdfrwt beam="2">  1       -1 0.52637121E-01 0.27528847E+03</pdfrwt>
<totfact> 0.29667268E+03</totfact>
</mgrwt>
</event>
<event>
 5    1  0.1162308E+001  0.2747346E+03  0.7818608E-02  0.1098600E+00
         -1   -1    0    0    0  501 -0.00000000000E+00  0.00000000000E+00  0.10790803581E+03  0.10790803581E+03  0.00000000000E+00 0.  1.
          1   -1    0    0  501    0  0.00000000000E+00 -0.00000000000E+00 -0.17486898863E+03  0.17486898863E+03  0.00000000000E+00 0.  1.
         35    2    1    2    0    0  0.00000000000E+00  0.00000000000E+00 -0.66960952821E+02  0.28277702444E+03  0.27473455616E+03 0.  0.
         25    1    3    3    0    0 -0.21851613416E+01  0.60460782040E+02 -0.62764856639E+02  0.14832298650E+03  0.12000000000E+03 0.  0.
         25    1    3    3    0    0  0.21851613416E+01 -0.60460782040E+02 -0.41960961819E+01  0.13445403794E+03  0.12000000000E+03 0.  0.
<mgrwt>
<rscale>  0 0.27473456E+03</rscale>
<asrwt>0</asrwt>
<pdfrwt beam="1">  1        1 0.26902921E-01 0.27473456E+03</pdfrwt>
<pdfrwt beam="2">  1       -1 0.16601236E-01 0.27473456E+03</pdfrwt>
<totfact> 0.47219125E+03</totfact>
</mgrwt>
</event>
<event>
 5    1  0.1162308E+001  0.2749435E+03  0.7818608E-02  0.1098483E+00
         -1   -1    0    0    0  501 -0.00000000000E+00  0.00000000000E+00  0.86975659950E+02  0.86975659950E+02  0.00000000000E+00 0.  1.
          1   -1    0    0  501    0  0.00000000000E+00 -0.00000000000E+00 -0.21728476479E+03  0.21728476479E+03  0.00000000000E+00 0.  1.
         35    2    1    2    0    0  0.00000000000E+00  0.00000000000E+00 -0.13030910484E+03  0.30426042474E+03  0.27494352740E+03 0.  0.
         25    1    3    3    0    0  0.45685337119E+02 -0.42013533873E+02 -0.93285543090E+02  0.16417819467E+03  0.12000000000E+03 0.  0.
         25    1    3    3    0    0 -0.45685337119E+02  0.42013533873E+02 -0.37023561751E+02  0.14008223007E+03  0.12000000000E+03 0.  0.
<mgrwt>
<rscale>  0 0.27494353E+03</rscale>
<asrwt>0</asrwt>
<pdfrwt beam="1">  1        1 0.33428425E-01 0.27494353E+03</pdfrwt>
<pdfrwt beam="2">  1       -1 0.13380871E-01 0.27494353E+03</pdfrwt>
<totfact> 0.50540479E+03</totfact>
</mgrwt>
</event>
<event>
 5    1  0.1162308E+001  0.2719875E+03  0.7818608E-02  0.1100147E+00
          2   -1    0    0  501    0  0.00000000000E+00  0.00000000000E+00  0.14076878009E+04  0.14076878009E+04  0.00000000000E+00 0. -1.
         -2   -1    0    0    0  501 -0.00000000000E+00 -0.00000000000E+00 -0.13138067314E+02  0.13138067314E+02  0.00000000000E+00 0. -1.
         35    2    1    2    0    0  0.00000000000E+00  0.00000000000E+00  0.13945497336E+04  0.14208258683E+04  0.27198747829E+03 0.  0.
         25    1    3    3    0    0 -0.46138577300E+00 -0.63287724912E+02  0.74648691486E+03  0.75871487600E+03  0.12000000000E+03 0.  0.
         25    1    3    3    0    0  0.46138577300E+00  0.63287724912E+02  0.64806281877E+03  0.66211099226E+03  0.12000000000E+03 0.  0.
<mgrwt>
<rscale>  0 0.27198748E+03</rscale>
<asrwt>0</asrwt>
<pdfrwt beam="1">  1        2 0.21656723E+00 0.27198748E+03</pdfrwt>
<pdfrwt beam="2">  1       -2 0.20212422E-02 0.27198748E+03</pdfrwt>
<totfact> 0.11642427E+04</totfact>
</mgrwt>
</event>
<event>
 5    1  0.1162308E+001  0.2737838E+03  0.7818608E-02  0.1099133E+00
          1   -1    0    0  501    0  0.00000000000E+00  0.00000000000E+00  0.11318753883E+03  0.11318753883E+03  0.00000000000E+00 0.  1.
         -1   -1    0    0    0  501 -0.00000000000E+00 -0.00000000000E+00 -0.16556053271E+03  0.16556053271E+03  0.00000000000E+00 0.  1.
         35    2    1    2    0    0  0.00000000000E+00  0.00000000000E+00 -0.52372993880E+02  0.27874807154E+03  0.27378377764E+03 0.  0.
         25    1    3    3    0    0 -0.40088256227E+02 -0.27058216774E+02 -0.71720730587E+02  0.14792930264E+03  0.12000000000E+03 0.  0.
         25    1    3    3    0    0  0.40088256227E+02  0.27058216774E+02  0.19347736707E+02  0.13081876891E+03  0.12000000000E+03 0.  0.
<mgrwt>
<rscale>  0 0.27378378E+03</rscale>
<asrwt>0</asrwt>
<pdfrwt beam="1">  1        1 0.17413467E-01 0.27378378E+03</pdfrwt>
<pdfrwt beam="2">  1       -1 0.25470851E-01 0.27378378E+03</pdfrwt>
<totfact> 0.41046732E+03</totfact>
</mgrwt>
</event>
<event>
 5    1  0.1162308E+001  0.2753890E+03  0.7818608E-02  0.1098234E+00
         -2   -1    0    0    0  501 -0.00000000000E+00  0.00000000000E+00  0.40417970757E+02  0.40417970757E+02  0.00000000000E+00 0. -1.
          2   -1    0    0  501    0  0.00000000000E+00 -0.00000000000E+00 -0.46909286047E+03  0.46909286047E+03  0.00000000000E+00 0. -1.
         35    2    1    2    0    0  0.00000000000E+00  0.00000000000E+00 -0.42867488971E+03  0.50951083123E+03  0.27538904493E+03 0.  0.
         25    1    3    3    0    0 -0.53434557707E+02 -0.32013714341E+02 -0.26257107509E+03  0.29533658652E+03  0.12000000000E+03 0.  0.
         25    1    3    3    0    0  0.53434557707E+02  0.32013714341E+02 -0.16610381462E+03  0.21417424470E+03  0.12000000000E+03 0.  0.
<mgrwt>
<rscale>  0 0.27538904E+03</rscale>
<asrwt>0</asrwt>
<pdfrwt beam="1">  1        2 0.72168134E-01 0.27538904E+03</pdfrwt>
<pdfrwt beam="2">  1       -2 0.62181492E-02 0.27538904E+03</pdfrwt>
<totfact> 0.93129166E+03</totfact>
</mgrwt>
</event>
<event>
 5    1  0.1162308E+001  0.2755924E+03  0.7818608E-02  0.1098121E+00
         -2   -1    0    0    0  501 -0.00000000000E+00  0.00000000000E+00  0.99681526903E+01  0.99681526903E+01  0.00000000000E+00 0.  1.
          2   -1    0    0  501    0  0.00000000000E+00 -0.00000000000E+00 -0.19048463269E+04  0.19048463269E+04  0.00000000000E+00 0.  1.
         35    2    1    2    0    0  0.00000000000E+00  0.00000000000E+00 -0.18948781742E+04  0.19148144796E+04  0.27559244575E+03 0.  0.
         25    1    3    3    0    0 -0.53099302855E+02 -0.41139467776E+02 -0.10079334364E+04  0.10172717454E+04  0.12000000000E+03 0.  0.
         25    1    3    3    0    0  0.53099302855E+02  0.41139467776E+02 -0.88694473785E+03  0.89754273423E+03  0.12000000000E+03 0.  0.
<mgrwt>
<rscale>  0 0.27559245E+03</rscale>
<asrwt>0</asrwt>
<pdfrwt beam="1">  1        2 0.29305327E+00 0.27559245E+03</pdfrwt>
<pdfrwt beam="2">  1       -2 0.15335620E-02 0.27559245E+03</pdfrwt>
<totfact> 0.95221588E+03</totfact>
</mgrwt>
</event>
<event>
 5    1  0.1162308E+001  0.2813676E+03  0.7818608E-02  0.1094944E+00
         -2   -1    0    0    0  501 -0.00000000000E+00  0.00000000000E+00  0.28489768029E+02  0.28489768029E+02  0.00000000000E+00 0.  1.
          2   -1    0    0  501    0  0.00000000000E+00 -0.00000000000E+00 -0.69470311444E+03  0.69470311444E+03  0.00000000000E+00 0.  1.
         35    2    1    2    0    0  0.00000000000E+00  0.00000000000E+00 -0.66621334641E+03  0.72319288247E+03  0.28136759287E+03 0.  0.
         25    1    3    3    0    0  0.60689806465E+02 -0.35251217874E+02 -0.27762023809E+03  0.31048171858E+03  0.12000000000E+03 0.  0.
         25    1    3    3    0    0 -0.60689806465E+02  0.35251217874E+02 -0.38859310832E+03  0.41271116389E+03  0.12000000000E+03 0.  0.
<mgrwt>
<rscale>  0 0.28136759E+03</rscale>
<asrwt>0</asrwt>
<pdfrwt beam="1">  1        2 0.10687739E+00 0.28136759E+03</pdfrwt>
<pdfrwt beam="2">  1       -2 0.43830416E-02 0.28136759E+03</pdfrwt>
<totfact> 0.10100512E+04</totfact>
</mgrwt>
</event>
<event>
 5    1  0.1162308E+001  0.2745889E+03  0.7818608E-02  0.1098682E+00
         -2   -1    0    0    0  501 -0.00000000000E+00  0.00000000000E+00  0.34968521209E+02  0.34968521209E+02  0.00000000000E+00 0.  1.
          2   -1    0    0  501    0  0.00000000000E+00 -0.00000000000E+00 -0.53904940994E+03  0.53904940994E+03  0.00000000000E+00 0.  1.
         35    2    1    2    0    0  0.00000000000E+00  0.00000000000E+00 -0.50408088873E+03  0.57401793115E+03  0.27458886157E+03 0.  0.
         25    1    3    3    0    0  0.22840277227E+02 -0.97319426904E+00 -0.38304321401E+03  0.40205065498E+03  0.12000000000E+03 0.  0.
         25    1    3    3    0    0 -0.22840277227E+02  0.97319426904E+00 -0.12103767472E+03  0.17196727617E+03  0.12000000000E+03 0.  0.
<mgrwt>
<rscale>  0 0.27458886E+03</rscale>
<asrwt>0</asrwt>
<pdfrwt beam="1">  1        2 0.82930685E-01 0.27458886E+03</pdfrwt>
<pdfrwt beam="2">  1       -2 0.53797720E-02 0.27458886E+03</pdfrwt>
<totfact> 0.99474082E+03</totfact>
</mgrwt>
</event>
<event>
 5    1  0.1162308E+001  0.2755536E+03  0.7818608E-02  0.1098143E+00
          2   -1    0    0  501    0  0.00000000000E+00  0.00000000000E+00  0.46035965635E+03  0.46035965635E+03  0.00000000000E+00 0. -1.
         -2   -1    0    0    0  501 -0.00000000000E+00 -0.00000000000E+00 -0.41233963599E+02  0.41233963599E+02  0.00000000000E+00 0. -1.
         35    2    1    2    0    0  0.00000000000E+00  0.00000000000E+00  0.41912569275E+03  0.50159361995E+03  0.27555364859E+03 0.  0.
         25    1    3    3    0    0  0.58490786512E+02  0.12839369456E+02  0.26702337631E+03  0.29881014877E+03  0.12000000000E+03 0.  0.
         25    1    3    3    0    0 -0.58490786512E+02 -0.12839369456E+02  0.15210231644E+03  0.20278347118E+03  0.12000000000E+03 0.  0.
<mgrwt>
<rscale>  0 0.27555365E+03</rscale>
<asrwt>0</asrwt>
<pdfrwt beam="1">  1        2 0.70824559E-01 0.27555365E+03</pdfrwt>
<pdfrwt beam="2">  1       -2 0.63436870E-02 0.27555365E+03</pdfrwt>
<totfact> 0.92207744E+03</totfact>
</mgrwt>
</event>
<event>
 5    1  0.1162308E+001  0.2765471E+03  0.7818608E-02  0.1097590E+00
         -1   -1    0    0    0  501 -0.00000000000E+00  0.00000000000E+00  0.24384734102E+02  0.24384734102E+02  0.00000000000E+00 0. -1.
          1   -1    0    0  501    0  0.00000000000E+00 -0.00000000000E+00 -0.78407986902E+03  0.78407986902E+03  0.00000000000E+00 0. -1.
         35    2    1    2    0    0  0.00000000000E+00  0.00000000000E+00 -0.75969513492E+03  0.80846460312E+03  0.27654713248E+03 0.  0.
         25    1    3    3    0    0 -0.49317632163E+02  0.93083734215E+01 -0.51699027285E+03  0.53310206985E+03  0.12000000000E+03 0.  0.
         25    1    3    3    0    0  0.49317632163E+02 -0.93083734215E+01 -0.24270486207E+03  0.27536253327E+03  0.12000000000E+03 0.  0.
<mgrwt>
<rscale>  0 0.27654713E+03</rscale>
<asrwt>0</asrwt>
<pdfrwt beam="1">  1        1 0.12062768E+00 0.27654713E+03</pdfrwt>
<pdfrwt beam="2">  1       -1 0.37514975E-02 0.27654713E+03</pdfrwt>
<totfact> 0.64205341E+03</totfact>
</mgrwt>
</event>
<event>
 5    1  0.1162308E+001  0.2749403E+03  0.7818608E-02  0.1098485E+00
         -3   -1    0    0    0  501 -0.00000000000E+00  0.00000000000E+00  0.15469009401E+04  0.15469009401E+04  0.00000000000E+00 0. -1.
          3   -1    0    0  501    0  0.00000000000E+00 -0.00000000000E+00 -0.12216709377E+02  0.12216709377E+02  0.00000000000E+00 0. -1.
         35    2    1    2    0    0  0.00000000000E+00  0.00000000000E+00  0.15346842307E+04  0.15591176494E+04  0.27494027875E+03 0.  0.
         25    1    3    3    0    0  0.14204609030E+02  0.65324028611E+02  0.79790087651E+03  0.80963869001E+03  0.12000000000E+03 0.  0.
         25    1    3    3    0    0 -0.14204609030E+02 -0.65324028611E+02  0.73678335417E+03  0.74947895942E+03  0.12000000000E+03 0.  0.
<mgrwt>
<rscale>  0 0.27494028E+03</rscale>
<asrwt>0</asrwt>
<pdfrwt beam="1">  1        3 0.18794950E-02 0.27494028E+03</pdfrwt>
<pdfrwt beam="2">  1       -3 0.23798461E+00 0.27494028E+03</pdfrwt>
<totfact> 0.25376220E+02</totfact>
</mgrwt>
</event>
<event>
 5    1  0.1162308E+001  0.2749028E+03  0.7818608E-02  0.1098506E+00
         -2   -1    0    0    0  501 -0.00000000000E+00  0.00000000000E+00  0.53117180192E+02  0.53117180192E+02  0.00000000000E+00 0. -1.
          2   -1    0    0  501    0  0.00000000000E+00 -0.00000000000E+00 -0.35568329240E+03  0.35568329240E+03  0.00000000000E+00 0. -1.
         35    2    1    2    0    0  0.00000000000E+00  0.00000000000E+00 -0.30256611221E+03  0.40880047259E+03  0.27490284490E+03 0.  0.
         25    1    3    3    0    0 -0.32000780974E+02  0.18528144793E+02 -0.68145840028E+02  0.14286776279E+03  0.12000000000E+03 0.  0.
         25    1    3    3    0    0  0.32000780974E+02 -0.18528144793E+02 -0.23442027218E+03  0.26593270980E+03  0.12000000000E+03 0.  0.
<mgrwt>
<rscale>  0 0.27490284E+03</rscale>
<asrwt>0</asrwt>
<pdfrwt beam="1">  1        2 0.54720508E-01 0.27490284E+03</pdfrwt>
<pdfrwt beam="2">  1       -2 0.81718736E-02 0.27490284E+03</pdfrwt>
<totfact> 0.82443074E+03</totfact>
</mgrwt>
</event>
<event>
 5    1  0.1162308E+001  0.2750694E+03  0.7818608E-02  0.1098413E+00
          2   -1    0    0  501    0  0.00000000000E+00  0.00000000000E+00  0.46127281253E+02  0.46127281253E+02  0.00000000000E+00 0.  1.
         -2   -1    0    0    0  501 -0.00000000000E+00 -0.00000000000E+00 -0.41007818049E+03  0.41007818049E+03  0.00000000000E+00 0.  1.
         35    2    1    2    0    0  0.00000000000E+00  0.00000000000E+00 -0.36395089923E+03  0.45620546174E+03  0.27506938446E+03 0.  0.
         25    1    3    3    0    0 -0.10499749586E+02 -0.41687636882E+02 -0.96313940219E+02  0.15976382222E+03  0.12000000000E+03 0.  0.
         25    1    3    3    0    0  0.10499749586E+02  0.41687636882E+02 -0.26763695901E+03  0.29644163952E+03  0.12000000000E+03 0.  0.
<mgrwt>
<rscale>  0 0.27506938E+03</rscale>
<asrwt>0</asrwt>
<pdfrwt beam="1">  1        2 0.70965045E-02 0.27506938E+03</pdfrwt>
<pdfrwt beam="2">  1       -2 0.63088953E-01 0.27506938E+03</pdfrwt>
<totfact> 0.23559582E+03</totfact>
</mgrwt>
</event>
<event>
 5    1  0.1162308E+001  0.2742045E+03  0.7818608E-02  0.1098897E+00
         -2   -1    0    0    0  501 -0.00000000000E+00  0.00000000000E+00  0.12400073697E+02  0.12400073697E+02  0.00000000000E+00 0.  1.
          2   -1    0    0  501    0  0.00000000000E+00 -0.00000000000E+00 -0.15158800637E+04  0.15158800637E+04  0.00000000000E+00 0.  1.
         35    2    1    2    0    0  0.00000000000E+00  0.00000000000E+00 -0.15034799900E+04  0.15282801374E+04  0.27420448214E+03 0.  0.
         25    1    3    3    0    0 -0.20809303568E+02  0.52816208145E+02 -0.94274505051E+03  0.95204559198E+03  0.12000000000E+03 0.  0.
         25    1    3    3    0    0  0.20809303568E+02 -0.52816208145E+02 -0.56073493947E+03  0.57623454539E+03  0.12000000000E+03 0.  0.
<mgrwt>
<rscale>  0 0.27420448E+03</rscale>
<asrwt>0</asrwt>
<pdfrwt beam="1">  1        2 0.23321234E+00 0.27420448E+03</pdfrwt>
<pdfrwt beam="2">  1       -2 0.19077034E-02 0.27420448E+03</pdfrwt>
<totfact> 0.11087616E+04</totfact>
</mgrwt>
</event>
<event>
 5    1  0.1162308E+001  0.2751789E+03  0.7818608E-02  0.1098352E+00
          2   -1    0    0  501    0  0.00000000000E+00  0.00000000000E+00  0.64549379737E+02  0.64549379737E+02  0.00000000000E+00 0. -1.
         -2   -1    0    0    0  501 -0.00000000000E+00 -0.00000000000E+00 -0.29327710454E+03  0.29327710454E+03  0.00000000000E+00 0. -1.
         35    2    1    2    0    0  0.00000000000E+00  0.00000000000E+00 -0.22872772480E+03  0.35782648428E+03  0.27517888865E+03 0.  0.
         25    1    3    3    0    0  0.11885439729E+02 -0.66058021547E+02 -0.12098530738E+03  0.18314576296E+03  0.12000000000E+03 0.  0.
         25    1    3    3    0    0 -0.11885439729E+02  0.66058021547E+02 -0.10774241743E+03  0.17468072132E+03  0.12000000000E+03 0.  0.
<mgrwt>
<rscale>  0 0.27517889E+03</rscale>
<asrwt>0</asrwt>
<pdfrwt beam="1">  1        2 0.99306737E-02 0.27517889E+03</pdfrwt>
<pdfrwt beam="2">  1       -2 0.45119555E-01 0.27517889E+03</pdfrwt>
<totfact> 0.30339257E+03</totfact>
</mgrwt>
</event>
<event>
 5    1  0.1162308E+001  0.2764745E+03  0.7818608E-02  0.1097630E+00
          1   -1    0    0  501    0  0.00000000000E+00  0.00000000000E+00  0.10732722793E+04  0.10732722793E+04  0.00000000000E+00 0. -1.
         -1   -1    0    0    0  501 -0.00000000000E+00 -0.00000000000E+00 -0.17804924129E+02  0.17804924129E+02  0.00000000000E+00 0. -1.
         35    2    1    2    0    0  0.00000000000E+00  0.00000000000E+00  0.10554673552E+04  0.10910772034E+04  0.27647445815E+03 0.  0.
         25    1    3    3    0    0  0.50163022398E+02 -0.12996642084E+02  0.35017707396E+03  0.37377697180E+03  0.12000000000E+03 0.  0.
         25    1    3    3    0    0 -0.50163022398E+02  0.12996642084E+02  0.70529028120E+03  0.71730023162E+03  0.12000000000E+03 0.  0.
<mgrwt>
<rscale>  0 0.27647446E+03</rscale>
<asrwt>0</asrwt>
<pdfrwt beam="1">  1        1 0.16511876E+00 0.27647446E+03</pdfrwt>
<pdfrwt beam="2">  1       -1 0.27392199E-02 0.27647446E+03</pdfrwt>
<totfact> 0.60872439E+03</totfact>
</mgrwt>
</event>
<event>
 5    1  0.1162308E+001  0.2751088E+03  0.7818608E-02  0.1098391E+00
          2   -1    0    0  501    0  0.00000000000E+00  0.00000000000E+00  0.39056381258E+03  0.39056381258E+03  0.00000000000E+00 0.  1.
         -2   -1    0    0    0  501 -0.00000000000E+00 -0.00000000000E+00 -0.48445893410E+02  0.48445893410E+02  0.00000000000E+00 0.  1.
         35    2    1    2    0    0  0.00000000000E+00  0.00000000000E+00  0.34211791917E+03  0.43900970599E+03  0.27510879909E+03 0.  0.
         25    1    3    3    0    0 -0.64887452671E+02 -0.17059770704E+02  0.16395904120E+03  0.21397192451E+03  0.12000000000E+03 0.  0.
         25    1    3    3    0    0  0.64887452671E+02  0.17059770704E+02  0.17815887797E+03  0.22503778148E+03  0.12000000000E+03 0.  0.
<mgrwt>
<rscale>  0 0.27510880E+03</rscale>
<asrwt>0</asrwt>
<pdfrwt beam="1">  1        2 0.60086738E-01 0.27510880E+03</pdfrwt>
<pdfrwt beam="2">  1       -2 0.74532146E-02 0.27510880E+03</pdfrwt>
<totfact> 0.86010093E+03</totfact>
</mgrwt>
</event>
<event>
 5    1  0.1162308E+001  0.2834334E+03  0.7818608E-02  0.1093828E+00
          4   -1    0    0  501    0  0.00000000000E+00  0.00000000000E+00  0.90217155277E+03  0.90217155277E+03  0.00000000000E+00 0. -1.
         -4   -1    0    0    0  501 -0.00000000000E+00 -0.00000000000E+00 -0.22261416620E+02  0.22261416620E+02  0.00000000000E+00 0. -1.
         35    2    1    2    0    0  0.00000000000E+00  0.00000000000E+00  0.87991013615E+03  0.92443296939E+03  0.28343335583E+03 0.  0.
         25    1    3    3    0    0 -0.51245306372E+02  0.47924159903E+02  0.34999233296E+03  0.37658656330E+03  0.12000000000E+03 0.  0.
         25    1    3    3    0    0  0.51245306372E+02 -0.47924159903E+02  0.52991780319E+03  0.54784640609E+03  0.12000000000E+03 0.  0.
<mgrwt>
<rscale>  0 0.28343336E+03</rscale>
<asrwt>0</asrwt>
<pdfrwt beam="1">  1        4 0.13879559E+00 0.28343336E+03</pdfrwt>
<pdfrwt beam="2">  1       -4 0.34248340E-02 0.28343336E+03</pdfrwt>
<totfact> 0.31697201E+02</totfact>
</mgrwt>
</event>
<event>
 5    1  0.1162308E+001  0.2766030E+03  0.7818608E-02  0.1097559E+00
         -2   -1    0    0    0  501 -0.00000000000E+00  0.00000000000E+00  0.16761052395E+03  0.16761052395E+03  0.00000000000E+00 0.  1.
          2   -1    0    0  501    0  0.00000000000E+00 -0.00000000000E+00 -0.11411757870E+03  0.11411757870E+03  0.00000000000E+00 0.  1.
         35    2    1    2    0    0  0.00000000000E+00  0.00000000000E+00  0.53492945244E+02  0.28172810265E+03  0.27660301631E+03 0.  0.
         25    1    3    3    0    0 -0.20463481729E+02 -0.58284298891E+02  0.57496822743E+02  0.14670275460E+03  0.12000000000E+03 0.  0.
         25    1    3    3    0    0  0.20463481729E+02  0.58284298891E+02 -0.40038774983E+01  0.13502534805E+03  0.12000000000E+03 0.  0.
<mgrwt>
<rscale>  0 0.27660302E+03</rscale>
<asrwt>0</asrwt>
<pdfrwt beam="1">  1        2 0.17556551E-01 0.27660302E+03</pdfrwt>
<pdfrwt beam="2">  1       -2 0.25786234E-01 0.27660302E+03</pdfrwt>
<totfact> 0.43233865E+03</totfact>
</mgrwt>
</event>
<event>
 5    1  0.1162308E+001  0.2744428E+03  0.7818608E-02  0.1098763E+00
         -4   -1    0    0    0  501 -0.00000000000E+00  0.00000000000E+00  0.36209210736E+03  0.36209210736E+03  0.00000000000E+00 0.  1.
          4   -1    0    0  501    0  0.00000000000E+00 -0.00000000000E+00 -0.52002560402E+02  0.52002560402E+02  0.00000000000E+00 0.  1.
         35    2    1    2    0    0  0.00000000000E+00  0.00000000000E+00  0.31008954696E+03  0.41409466776E+03  0.27444282963E+03 0.  0.
         25    1    3    3    0    0  0.19738644568E+02  0.63372727778E+02  0.16243662247E+03  0.21258262637E+03  0.12000000000E+03 0.  0.
         25    1    3    3    0    0 -0.19738644568E+02 -0.63372727778E+02  0.14765292449E+03  0.20151204139E+03  0.12000000000E+03 0.  0.
<mgrwt>
<rscale>  0 0.27444283E+03</rscale>
<asrwt>0</asrwt>
<pdfrwt beam="1">  1        4 0.80003941E-02 0.27444283E+03</pdfrwt>
<pdfrwt beam="2">  1       -4 0.55706477E-01 0.27444283E+03</pdfrwt>
<totfact> 0.64156400E+02</totfact>
</mgrwt>
</event>
<event>
 5    1  0.1162308E+001  0.2750144E+03  0.7818608E-02  0.1098444E+00
          2   -1    0    0  501    0  0.00000000000E+00  0.00000000000E+00  0.60740512339E+03  0.60740512339E+03  0.00000000000E+00 0. -1.
         -2   -1    0    0    0  501 -0.00000000000E+00 -0.00000000000E+00 -0.31129522292E+02  0.31129522292E+02  0.00000000000E+00 0. -1.
         35    2    1    2    0    0  0.00000000000E+00  0.00000000000E+00  0.57627560110E+03  0.63853464568E+03  0.27501440929E+03 0.  0.
         25    1    3    3    0    0  0.11908258370E+00 -0.17293204609E+02  0.13750246852E+03  0.18331938783E+03  0.12000000000E+03 0.  0.
         25    1    3    3    0    0 -0.11908258370E+00  0.17293204609E+02  0.43877313258E+03  0.45521525786E+03  0.12000000000E+03 0.  0.
<mgrwt>
<rscale>  0 0.27501441E+03</rscale>
<asrwt>0</asrwt>
<pdfrwt beam="1">  1        2 0.93446933E-01 0.27501441E+03</pdfrwt>
<pdfrwt beam="2">  1       -2 0.47891577E-02 0.27501441E+03</pdfrwt>
<totfact> 0.10350882E+04</totfact>
</mgrwt>
</event>
<event>
 5    1  0.1162308E+001  0.2750161E+03  0.7818608E-02  0.1098443E+00
         -1   -1    0    0    0  501 -0.00000000000E+00  0.00000000000E+00  0.16673457756E+02  0.16673457756E+02  0.00000000000E+00 0. -1.
          1   -1    0    0  501    0  0.00000000000E+00 -0.00000000000E+00 -0.11340454235E+04  0.11340454235E+04  0.00000000000E+00 0. -1.
         35    2    1    2    0    0  0.00000000000E+00  0.00000000000E+00 -0.11173719657E+04  0.11507188812E+04  0.27501606107E+03 0.  0.
         25    1    3    3    0    0 -0.63034367579E+02 -0.15043552068E+02 -0.48515627494E+03  0.50396056500E+03  0.12000000000E+03 0.  0.
         25    1    3    3    0    0  0.63034367579E+02  0.15043552068E+02 -0.63221569076E+03  0.64675831622E+03  0.12000000000E+03 0.  0.
<mgrwt>
<rscale>  0 0.27501606E+03</rscale>
<asrwt>0</asrwt>
<pdfrwt beam="1">  1        1 0.17446853E+00 0.27501606E+03</pdfrwt>
<pdfrwt beam="2">  1       -1 0.25651474E-02 0.27501606E+03</pdfrwt>
<totfact> 0.60612890E+03</totfact>
</mgrwt>
</event>
<event>
 5    1  0.1162308E+001  0.2788336E+03  0.7818608E-02  0.1096328E+00
          2   -1    0    0  501    0  0.00000000000E+00  0.00000000000E+00  0.56022126577E+03  0.56022126577E+03  0.00000000000E+00 0. -1.
         -2   -1    0    0    0  501 -0.00000000000E+00 -0.00000000000E+00 -0.34695294605E+02  0.34695294605E+02  0.00000000000E+00 0. -1.
         35    2    1    2    0    0  0.00000000000E+00  0.00000000000E+00  0.52552597117E+03  0.59491656038E+03  0.27883358377E+03 0.  0.
         25    1    3    3    0    0  0.14507089374E+02  0.40494613782E+02  0.38320735610E+03  0.40385411618E+03  0.12000000000E+03 0.  0.
         25    1    3    3    0    0 -0.14507089374E+02 -0.40494613782E+02  0.14231861507E+03  0.19106244420E+03  0.12000000000E+03 0.  0.
<mgrwt>
<rscale>  0 0.27883358E+03</rscale>
<asrwt>0</asrwt>
<pdfrwt beam="1">  1        2 0.86187880E-01 0.27883358E+03</pdfrwt>
<pdfrwt beam="2">  1       -2 0.53377380E-02 0.27883358E+03</pdfrwt>
<totfact> 0.96406608E+03</totfact>
</mgrwt>
</event>
<event>
 5    1  0.1162308E+001  0.2748989E+03  0.7818608E-02  0.1098508E+00
          1   -1    0    0  501    0  0.00000000000E+00  0.00000000000E+00  0.61474900775E+01  0.61474900775E+01  0.00000000000E+00 0. -1.
         -1   -1    0    0    0  501 -0.00000000000E+00 -0.00000000000E+00 -0.30731810632E+04  0.30731810632E+04  0.00000000000E+00 0. -1.
         35    2    1    2    0    0  0.00000000000E+00  0.00000000000E+00 -0.30670335731E+04  0.30793285533E+04  0.27489889118E+03 0.  0.
         25    1    3    3    0    0  0.73179800333E+01  0.65579695807E+02 -0.16651547252E+04  0.16707766182E+04  0.12000000000E+03 0.  0.
         25    1    3    3    0    0 -0.73179800333E+01 -0.65579695807E+02 -0.14018788479E+04  0.14085519350E+04  0.12000000000E+03 0.  0.
<mgrwt>
<rscale>  0 0.27489889E+03</rscale>
<asrwt>0</asrwt>
<pdfrwt beam="1">  1        1 0.94576691E-03 0.27489889E+03</pdfrwt>
<pdfrwt beam="2">  1       -1 0.47279748E+00 0.27489889E+03</pdfrwt>
<totfact> 0.49197033E+01</totfact>
</mgrwt>
</event>
<event>
 5    1  0.1162308E+001  0.2747757E+03  0.7818608E-02  0.1098577E+00
          2   -1    0    0  501    0  0.00000000000E+00  0.00000000000E+00  0.74138153022E+03  0.74138153022E+03  0.00000000000E+00 0.  1.
         -2   -1    0    0    0  501 -0.00000000000E+00 -0.00000000000E+00 -0.25459803065E+02  0.25459803065E+02  0.00000000000E+00 0.  1.
         35    2    1    2    0    0  0.00000000000E+00  0.00000000000E+00  0.71592172716E+03  0.76684133329E+03  0.27477574679E+03 0.  0.
         25    1    3    3    0    0 -0.62688957102E+02 -0.10769181677E+02  0.30012029783E+03  0.32942081565E+03  0.12000000000E+03 0.  0.
         25    1    3    3    0    0  0.62688957102E+02  0.10769181677E+02  0.41580142933E+03  0.43742051763E+03  0.12000000000E+03 0.  0.
<mgrwt>
<rscale>  0 0.27477575E+03</rscale>
<asrwt>0</asrwt>
<pdfrwt beam="1">  1        2 0.11405868E+00 0.27477575E+03</pdfrwt>
<pdfrwt beam="2">  1       -2 0.39168934E-02 0.27477575E+03</pdfrwt>
<totfact> 0.11040678E+04</totfact>
</mgrwt>
</event>
<event>
 5    1  0.1162308E+001  0.2752355E+03  0.7818608E-02  0.1098320E+00
         -2   -1    0    0    0  501 -0.00000000000E+00  0.00000000000E+00  0.39423847452E+03  0.39423847452E+03  0.00000000000E+00 0.  1.
          2   -1    0    0  501    0  0.00000000000E+00 -0.00000000000E+00 -0.48038545857E+02  0.48038545857E+02  0.00000000000E+00 0.  1.
         35    2    1    2    0    0  0.00000000000E+00  0.00000000000E+00  0.34619992866E+03  0.44227702038E+03  0.27523548490E+03 0.  0.
         25    1    3    3    0    0 -0.54690742637E+02  0.38788165991E+02  0.18364251472E+03  0.22939087245E+03  0.12000000000E+03 0.  0.
         25    1    3    3    0    0  0.54690742637E+02 -0.38788165991E+02  0.16255741394E+03  0.21288614792E+03  0.12000000000E+03 0.  0.
<mgrwt>
<rscale>  0 0.27523548E+03</rscale>
<asrwt>0</asrwt>
<pdfrwt beam="1">  1        2 0.73905458E-02 0.27523548E+03</pdfrwt>
<pdfrwt beam="2">  1       -2 0.60652071E-01 0.27523548E+03</pdfrwt>
<totfact> 0.24277941E+03</totfact>
</mgrwt>
</event>
<event>
 5    1  0.1162308E+001  0.2753474E+03  0.7818608E-02  0.1098258E+00
          2   -1    0    0  501    0  0.00000000000E+00  0.00000000000E+00  0.15885855912E+03  0.15885855912E+03  0.00000000000E+00 0. -1.
         -2   -1    0    0    0  501 -0.00000000000E+00 -0.00000000000E+00 -0.11931395424E+03  0.11931395424E+03  0.00000000000E+00 0. -1.
         35    2    1    2    0    0  0.00000000000E+00  0.00000000000E+00  0.39544604878E+02  0.27817251337E+03  0.27534736501E+03 0.  0.
         25    1    3    3    0    0 -0.42372058044E+02  0.52164478787E+02  0.13584204120E+02  0.13820656552E+03  0.12000000000E+03 0.  0.
         25    1    3    3    0    0  0.42372058044E+02 -0.52164478787E+02  0.25960400757E+02  0.13996594785E+03  0.12000000000E+03 0.  0.
<mgrwt>
<rscale>  0 0.27534737E+03</rscale>
<asrwt>0</asrwt>
<pdfrwt beam="1">  1        2 0.24439778E-01 0.27534737E+03</pdfrwt>
<pdfrwt beam="2">  1       -2 0.18355993E-01 0.27534737E+03</pdfrwt>
<totfact> 0.53372998E+03</totfact>
</mgrwt>
</event>
<event>
 5    1  0.1162308E+001  0.2747888E+03  0.7818608E-02  0.1098570E+00
         -1   -1    0    0    0  501 -0.00000000000E+00  0.00000000000E+00  0.84201528681E+03  0.84201528681E+03  0.00000000000E+00 0.  1.
          1   -1    0    0  501    0  0.00000000000E+00 -0.00000000000E+00 -0.22419098512E+02  0.22419098512E+02  0.00000000000E+00 0.  1.
         35    2    1    2    0    0  0.00000000000E+00  0.00000000000E+00  0.81959618830E+03  0.86443438532E+03  0.27478881829E+03 0.  0.
         25    1    3    3    0    0  0.33439712741E+02  0.28819591107E+01  0.59189433597E+03  0.60486810548E+03  0.12000000000E+03 0.  0.
         25    1    3    3    0    0 -0.33439712741E+02 -0.28819591107E+01  0.22770185233E+03  0.25956627984E+03  0.12000000000E+03 0.  0.
<mgrwt>
<rscale>  0 0.27478882E+03</rscale>
<asrwt>0</asrwt>
<pdfrwt beam="1">  1        1 0.34490927E-02 0.27478882E+03</pdfrwt>
<pdfrwt beam="2">  1       -1 0.12954079E+00 0.27478882E+03</pdfrwt>
<totfact> 0.15369385E+03</totfact>
</mgrwt>
</event>
<event>
 5    1  0.1162308E+001  0.2749860E+03  0.7818608E-02  0.1098459E+00
          2   -1    0    0  501    0  0.00000000000E+00  0.00000000000E+00  0.12801694944E+03  0.12801694944E+03  0.00000000000E+00 0. -1.
         -2   -1    0    0    0  501 -0.00000000000E+00 -0.00000000000E+00 -0.14767052598E+03  0.14767052598E+03  0.00000000000E+00 0. -1.
         35    2    1    2    0    0  0.00000000000E+00  0.00000000000E+00 -0.19653576541E+02  0.27568747543E+03  0.27498603789E+03 0.  0.
         25    1    3    3    0    0 -0.52981696379E+01 -0.59512672907E+02 -0.40474381577E+02  0.14002858423E+03  0.12000000000E+03 0.  0.
         25    1    3    3    0    0  0.52981696379E+01  0.59512672907E+02  0.20820805036E+02  0.13565889120E+03  0.12000000000E+03 0.  0.
<mgrwt>
<rscale>  0 0.27498604E+03</rscale>
<asrwt>0</asrwt>
<pdfrwt beam="1">  1        2 0.19694916E-01 0.27498604E+03</pdfrwt>
<pdfrwt beam="2">  1       -2 0.22718542E-01 0.27498604E+03</pdfrwt>
<totfact> 0.47280151E+03</totfact>
</mgrwt>
</event>
<event>
 5    1  0.1162308E+001  0.2751941E+03  0.7818608E-02  0.1098343E+00
          2   -1    0    0  501    0  0.00000000000E+00  0.00000000000E+00  0.35071604589E+03  0.35071604589E+03  0.00000000000E+00 0.  1.
         -2   -1    0    0    0  501 -0.00000000000E+00 -0.00000000000E+00 -0.53983692953E+02  0.53983692953E+02  0.00000000000E+00 0.  1.
         35    2    1    2    0    0  0.00000000000E+00  0.00000000000E+00  0.29673235294E+03  0.40469973884E+03  0.27519409394E+03 0.  0.
         25    1    3    3    0    0 -0.46907252490E+01  0.67085103899E+02  0.15313899968E+03  0.20584938011E+03  0.12000000000E+03 0.  0.
         25    1    3    3    0    0  0.46907252490E+01 -0.67085103899E+02  0.14359335325E+03  0.19885035873E+03  0.12000000000E+03 0.  0.
<mgrwt>
<rscale>  0 0.27519409E+03</rscale>
<asrwt>0</asrwt>
<pdfrwt beam="1">  1        2 0.53956313E-01 0.27519409E+03</pdfrwt>
<pdfrwt beam="2">  1       -2 0.83051837E-02 0.27519409E+03</pdfrwt>
<totfact> 0.81614235E+03</totfact>
</mgrwt>
</event>
<event>
 5    1  0.1162308E+001  0.2749790E+03  0.7818608E-02  0.1098463E+00
         -1   -1    0    0    0  501 -0.00000000000E+00  0.00000000000E+00  0.11240168606E+02  0.11240168606E+02  0.00000000000E+00 0. -1.
          1   -1    0    0  501    0  0.00000000000E+00 -0.00000000000E+00 -0.16817685864E+04  0.16817685864E+04  0.00000000000E+00 0. -1.
         35    2    1    2    0    0  0.00000000000E+00  0.00000000000E+00 -0.16705284178E+04  0.16930087550E+04  0.27497899896E+03 0.  0.
         25    1    3    3    0    0 -0.90246518509E+01 -0.55273827285E+02 -0.60764977820E+03  0.62191228744E+03  0.12000000000E+03 0.  0.
         25    1    3    3    0    0  0.90246518509E+01  0.55273827285E+02 -0.10628786396E+04  0.10710964675E+04  0.12000000000E+03 0.  0.
<mgrwt>
<rscale>  0 0.27497900E+03</rscale>
<asrwt>0</asrwt>
<pdfrwt beam="1">  1        1 0.25873360E+00 0.27497900E+03</pdfrwt>
<pdfrwt beam="2">  1       -1 0.17292569E-02 0.27497900E+03</pdfrwt>
<totfact> 0.46088997E+03</totfact>
</mgrwt>
</event>
<event>
 5    1  0.1162308E+001  0.2700140E+03  0.7818608E-02  0.1101272E+00
         -1   -1    0    0    0  501 -0.00000000000E+00  0.00000000000E+00  0.22388117346E+02  0.22388117346E+02  0.00000000000E+00 0. -1.
          1   -1    0    0  501    0  0.00000000000E+00 -0.00000000000E+00 -0.81413216552E+03  0.81413216552E+03  0.00000000000E+00 0. -1.
         35    2    1    2    0    0  0.00000000000E+00  0.00000000000E+00 -0.79174404817E+03  0.83652028286E+03  0.27001397339E+03 0.  0.
         25    1    3    3    0    0 -0.21784731443E+02  0.99095366414E+01 -0.21914354014E+03  0.25099136365E+03  0.12000000000E+03 0.  0.
         25    1    3    3    0    0  0.21784731443E+02 -0.99095366414E+01 -0.57260050803E+03  0.58552891922E+03  0.12000000000E+03 0.  0.
<mgrwt>
<rscale>  0 0.27001397E+03</rscale>
<asrwt>0</asrwt>
<pdfrwt beam="1">  1        1 0.12525111E+00 0.27001397E+03</pdfrwt>
<pdfrwt beam="2">  1       -1 0.34443256E-02 0.27001397E+03</pdfrwt>
<totfact> 0.68732491E+03</totfact>
</mgrwt>
</event>
<event>
 5    1  0.1162308E+001  0.2741827E+03  0.7818608E-02  0.1098909E+00
          1   -1    0    0  501    0  0.00000000000E+00  0.00000000000E+00  0.36231073803E+02  0.36231073803E+02  0.00000000000E+00 0.  1.
         -1   -1    0    0    0  501 -0.00000000000E+00 -0.00000000000E+00 -0.51872704824E+03  0.51872704824E+03  0.00000000000E+00 0.  1.
         35    2    1    2    0    0  0.00000000000E+00  0.00000000000E+00 -0.48249597444E+03  0.55495812205E+03  0.27418269799E+03 0.  0.
         25    1    3    3    0    0  0.23999040756E+02 -0.18808728020E+02 -0.36038011568E+03  0.38105583578E+03  0.12000000000E+03 0.  0.
         25    1    3    3    0    0 -0.23999040756E+02  0.18808728020E+02 -0.12211585876E+03  0.17390228626E+03  0.12000000000E+03 0.  0.
<mgrwt>
<rscale>  0 0.27418270E+03</rscale>
<asrwt>0</asrwt>
<pdfrwt beam="1">  1        1 0.55740116E-02 0.27418270E+03</pdfrwt>
<pdfrwt beam="2">  1       -1 0.79804158E-01 0.27418270E+03</pdfrwt>
<totfact> 0.23417576E+03</totfact>
</mgrwt>
</event>
<event>
 5    1  0.1162308E+001  0.2746763E+03  0.7818608E-02  0.1098633E+00
          2   -1    0    0  501    0  0.00000000000E+00  0.00000000000E+00  0.73255085892E+03  0.73255085892E+03  0.00000000000E+00 0. -1.
         -2   -1    0    0    0  501 -0.00000000000E+00 -0.00000000000E+00 -0.25748060440E+02  0.25748060440E+02  0.00000000000E+00 0. -1.
         35    2    1    2    0    0  0.00000000000E+00  0.00000000000E+00  0.70680279848E+03  0.75829891936E+03  0.27467627339E+03 0.  0.
         25    1    3    3    0    0  0.11165854050E+02 -0.61594047851E+02  0.28905511689E+03  0.31917293687E+03  0.12000000000E+03 0.  0.
         25    1    3    3    0    0 -0.11165854050E+02  0.61594047851E+02  0.41774768158E+03  0.43912598249E+03  0.12000000000E+03 0.  0.
<mgrwt>
<rscale>  0 0.27467627E+03</rscale>
<asrwt>0</asrwt>
<pdfrwt beam="1">  1        2 0.11270012E+00 0.27467627E+03</pdfrwt>
<pdfrwt beam="2">  1       -2 0.39612406E-02 0.27467627E+03</pdfrwt>
<totfact> 0.11017029E+04</totfact>
</mgrwt>
</event>
<event>
 5    1  0.1162308E+001  0.2717702E+03  0.7818608E-02  0.1100271E+00
          1   -1    0    0  501    0  0.00000000000E+00  0.00000000000E+00  0.18929766051E+04  0.18929766051E+04  0.00000000000E+00 0.  1.
         -1   -1    0    0    0  501 -0.00000000000E+00 -0.00000000000E+00 -0.97543516698E+01  0.97543516698E+01  0.00000000000E+00 0.  1.
         35    2    1    2    0    0  0.00000000000E+00  0.00000000000E+00  0.18832222534E+04  0.19027309568E+04  0.27177019343E+03 0.  0.
         25    1    3    3    0    0 -0.55240201915E+02 -0.30746717518E+02  0.88391175497E+03  0.89425769838E+03  0.12000000000E+03 0.  0.
         25    1    3    3    0    0  0.55240201915E+02  0.30746717518E+02  0.99931049848E+03  0.10084732584E+04  0.12000000000E+03 0.  0.
<mgrwt>
<rscale>  0 0.27177019E+03</rscale>
<asrwt>0</asrwt>
<pdfrwt beam="1">  1        1 0.29122688E+00 0.27177019E+03</pdfrwt>
<pdfrwt beam="2">  1       -1 0.15006710E-02 0.27177019E+03</pdfrwt>
<totfact> 0.41296177E+03</totfact>
</mgrwt>
</event>
<event>
 5    1  0.1162308E+001  0.2755418E+03  0.7818608E-02  0.1098149E+00
         -1   -1    0    0    0  501 -0.00000000000E+00  0.00000000000E+00  0.17829949222E+03  0.17829949222E+03  0.00000000000E+00 0.  1.
          1   -1    0    0  501    0  0.00000000000E+00 -0.00000000000E+00 -0.10645471938E+03  0.10645471938E+03  0.00000000000E+00 0.  1.
         35    2    1    2    0    0  0.00000000000E+00  0.00000000000E+00  0.71844772837E+02  0.28475421160E+03  0.27554181105E+03 0.  0.
         25    1    3    3    0    0  0.62758817075E+02 -0.23783427346E+02  0.26883421940E+02  0.14009653426E+03  0.12000000000E+03 0.  0.
         25    1    3    3    0    0 -0.62758817075E+02  0.23783427346E+02  0.44961350897E+02  0.14465767733E+03  0.12000000000E+03 0.  0.
<mgrwt>
<rscale>  0 0.27554181E+03</rscale>
<asrwt>0</asrwt>
<pdfrwt beam="1">  1        1 0.16377649E-01 0.27554181E+03</pdfrwt>
<pdfrwt beam="2">  1       -1 0.27430691E-01 0.27554181E+03</pdfrwt>
<totfact> 0.39278758E+03</totfact>
</mgrwt>
</event>
<event>
 5    1  0.1162308E+001  0.2741368E+03  0.7818608E-02  0.1098935E+00
          2   -1    0    0  501    0  0.00000000000E+00  0.00000000000E+00  0.11458174393E+04  0.11458174393E+04  0.00000000000E+00 0.  1.
         -2   -1    0    0    0  501 -0.00000000000E+00 -0.00000000000E+00 -0.16396801009E+02  0.16396801009E+02  0.00000000000E+00 0.  1.
         35    2    1    2    0    0  0.00000000000E+00  0.00000000000E+00  0.11294206383E+04  0.11622142403E+04  0.27413675817E+03 0.  0.
         25    1    3    3    0    0  0.22948401830E+02  0.12714539720E+01  0.82809114194E+03  0.83705626161E+03  0.12000000000E+03 0.  0.
         25    1    3    3    0    0 -0.22948401830E+02 -0.12714539720E+01  0.30132949638E+03  0.32515797873E+03  0.12000000000E+03 0.  0.
<mgrwt>
<rscale>  0 0.27413676E+03</rscale>
<asrwt>0</asrwt>
<pdfrwt beam="1">  1        2 0.17627954E+00 0.27413676E+03</pdfrwt>
<pdfrwt beam="2">  1       -2 0.25225857E-02 0.27413676E+03</pdfrwt>
<totfact> 0.11754419E+04</totfact>
</mgrwt>
</event>
<event>
 5    1  0.1162308E+001  0.2750017E+03  0.7818608E-02  0.1098451E+00
          2   -1    0    0  501    0  0.00000000000E+00  0.00000000000E+00  0.10863334621E+04  0.10863334621E+04  0.00000000000E+00 0.  1.
         -2   -1    0    0    0  501 -0.00000000000E+00 -0.00000000000E+00 -0.17403935488E+02  0.17403935488E+02  0.00000000000E+00 0.  1.
         35    2    1    2    0    0  0.00000000000E+00  0.00000000000E+00  0.10689295266E+04  0.11037373976E+04  0.27500165448E+03 0.  0.
         25    1    3    3    0    0 -0.16177200942E+02 -0.56124212742E+02  0.66726762891E+03  0.68048344409E+03  0.12000000000E+03 0.  0.
         25    1    3    3    0    0  0.16177200942E+02  0.56124212742E+02  0.40166189768E+03  0.42325395348E+03  0.12000000000E+03 0.  0.
<mgrwt>
<rscale>  0 0.27500165E+03</rscale>
<asrwt>0</asrwt>
<pdfrwt beam="1">  1        2 0.16712817E+00 0.27500165E+03</pdfrwt>
<pdfrwt beam="2">  1       -2 0.26775294E-02 0.27500165E+03</pdfrwt>
<totfact> 0.11658059E+04</totfact>
</mgrwt>
</event>
<event>
 5    1  0.1162308E+001  0.2797872E+03  0.7818608E-02  0.1095805E+00
         -2   -1    0    0    0  501 -0.00000000000E+00  0.00000000000E+00  0.59699964413E+02  0.59699964413E+02  0.00000000000E+00 0.  1.
          2   -1    0    0  501    0  0.00000000000E+00 -0.00000000000E+00 -0.32780964547E+03  0.32780964547E+03  0.00000000000E+00 0.  1.
         35    2    1    2    0    0  0.00000000000E+00  0.00000000000E+00 -0.26810968106E+03  0.38750960988E+03  0.27978723465E+03 0.  0.
         25    1    3    3    0    0 -0.26439411010E+02  0.33947105512E+02 -0.54265746341E+02  0.13855042278E+03  0.12000000000E+03 0.  0.
         25    1    3    3    0    0  0.26439411010E+02 -0.33947105512E+02 -0.21384393472E+03  0.24895918710E+03  0.12000000000E+03 0.  0.
<mgrwt>
<rscale>  0 0.27978723E+03</rscale>
<asrwt>0</asrwt>
<pdfrwt beam="1">  1        2 0.50432254E-01 0.27978723E+03</pdfrwt>
<pdfrwt beam="2">  1       -2 0.91846098E-02 0.27978723E+03</pdfrwt>
<totfact> 0.74976874E+03</totfact>
</mgrwt>
</event>
<event>
 5    1  0.1162308E+001  0.2748167E+03  0.7818608E-02  0.1098554E+00
         -2   -1    0    0    0  501 -0.00000000000E+00  0.00000000000E+00  0.16025815168E+02  0.16025815168E+02  0.00000000000E+00 0.  1.
          2   -1    0    0  501    0  0.00000000000E+00 -0.00000000000E+00 -0.11781647317E+04  0.11781647317E+04  0.00000000000E+00 0.  1.
         35    2    1    2    0    0  0.00000000000E+00  0.00000000000E+00 -0.11621389166E+04  0.11941905469E+04  0.27481666782E+03 0.  0.
         25    1    3    3    0    0 -0.15653249918E+02 -0.22298525771E+02 -0.84677265398E+03  0.85566709415E+03  0.12000000000E+03 0.  0.
         25    1    3    3    0    0  0.15653249918E+02  0.22298525771E+02 -0.31536626259E+03  0.33852345275E+03  0.12000000000E+03 0.  0.
<mgrwt>
<rscale>  0 0.27481667E+03</rscale>
<asrwt>0</asrwt>
<pdfrwt beam="1">  1        2 0.18125616E+00 0.27481667E+03</pdfrwt>
<pdfrwt beam="2">  1       -2 0.24655093E-02 0.27481667E+03</pdfrwt>
<totfact> 0.11650461E+04</totfact>
</mgrwt>
</event>
<event>
 5    1  0.1162308E+001  0.2747952E+03  0.7818608E-02  0.1098566E+00
          2   -1    0    0  501    0  0.00000000000E+00  0.00000000000E+00  0.10072143463E+04  0.10072143463E+04  0.00000000000E+00 0.  1.
         -2   -1    0    0    0  501 -0.00000000000E+00 -0.00000000000E+00 -0.18742889649E+02  0.18742889649E+02  0.00000000000E+00 0.  1.
         35    2    1    2    0    0  0.00000000000E+00  0.00000000000E+00  0.98847145665E+03  0.10259572359E+04  0.27479524992E+03 0.  0.
         25    1    3    3    0    0  0.28134845477E+00 -0.54703415115E+02  0.35033406857E+03  0.37433474643E+03  0.12000000000E+03 0.  0.
         25    1    3    3    0    0 -0.28134845477E+00  0.54703415115E+02  0.63813738807E+03  0.65162248951E+03  0.12000000000E+03 0.  0.
<mgrwt>
<rscale>  0 0.27479525E+03</rscale>
<asrwt>0</asrwt>
<pdfrwt beam="1">  1        2 0.15495601E+00 0.27479525E+03</pdfrwt>
<pdfrwt beam="2">  1       -2 0.28835223E-02 0.27479525E+03</pdfrwt>
<totfact> 0.11649581E+04</totfact>
</mgrwt>
</event>
<event>
 5    1  0.1162308E+001  0.2746314E+03  0.7818608E-02  0.1098658E+00
          2   -1    0    0  501    0  0.00000000000E+00  0.00000000000E+00  0.19679820438E+04  0.19679820438E+04  0.00000000000E+00 0. -1.
         -2   -1    0    0    0  501 -0.00000000000E+00 -0.00000000000E+00 -0.95811848327E+01  0.95811848327E+01  0.00000000000E+00 0. -1.
         35    2    1    2    0    0  0.00000000000E+00  0.00000000000E+00  0.19584008590E+04  0.19775632286E+04  0.27463138720E+03 0.  0.
         25    1    3    3    0    0 -0.37168111143E+02 -0.78903797536E+01  0.58401716494E+03  0.59742763204E+03  0.12000000000E+03 0.  0.
         25    1    3    3    0    0  0.37168111143E+02  0.78903797536E+01  0.13743836940E+04  0.13801355966E+04  0.12000000000E+03 0.  0.
<mgrwt>
<rscale>  0 0.27463139E+03</rscale>
<asrwt>0</asrwt>
<pdfrwt beam="1">  1        2 0.30276615E+00 0.27463139E+03</pdfrwt>
<pdfrwt beam="2">  1       -2 0.14740300E-02 0.27463139E+03</pdfrwt>
<totfact> 0.93478433E+03</totfact>
</mgrwt>
</event>
<event>
 5    1  0.1162308E+001  0.2744813E+03  0.7818608E-02  0.1098742E+00
          2   -1    0    0  501    0  0.00000000000E+00  0.00000000000E+00  0.24925593866E+04  0.24925593866E+04  0.00000000000E+00 0. -1.
         -2   -1    0    0    0  501 -0.00000000000E+00 -0.00000000000E+00 -0.75564885538E+01  0.75564885538E+01  0.00000000000E+00 0. -1.
         35    2    1    2    0    0  0.00000000000E+00  0.00000000000E+00  0.24850028980E+04  0.25001158751E+04  0.27448130337E+03 0.  0.
         25    1    3    3    0    0 -0.34227329284E+02 -0.55547129614E+00  0.17628181226E+04  0.17672293433E+04  0.12000000000E+03 0.  0.
         25    1    3    3    0    0  0.34227329284E+02  0.55547129614E+00  0.72218477546E+03  0.73288653182E+03  0.12000000000E+03 0.  0.
<mgrwt>
<rscale>  0 0.27448130E+03</rscale>
<asrwt>0</asrwt>
<pdfrwt beam="1">  1        2 0.38347002E+00 0.27448130E+03</pdfrwt>
<pdfrwt beam="2">  1       -2 0.11625387E-02 0.27448130E+03</pdfrwt>
<totfact> 0.69322305E+03</totfact>
</mgrwt>
</event>
<event>
 5    1  0.1162308E+001  0.2736387E+03  0.7818608E-02  0.1099215E+00
          2   -1    0    0  501    0  0.00000000000E+00  0.00000000000E+00  0.81896123424E+03  0.81896123424E+03  0.00000000000E+00 0. -1.
         -2   -1    0    0    0  501 -0.00000000000E+00 -0.00000000000E+00 -0.22857657528E+02  0.22857657528E+02  0.00000000000E+00 0. -1.
         35    2    1    2    0    0  0.00000000000E+00  0.00000000000E+00  0.79610357671E+03  0.84181889177E+03  0.27363870648E+03 0.  0.
         25    1    3    3    0    0  0.30894760711E+02 -0.44612264918E+02  0.28398476435E+03  0.31303687770E+03  0.12000000000E+03 0.  0.
         25    1    3    3    0    0 -0.30894760711E+02  0.44612264918E+02  0.51211881237E+03  0.52878201407E+03  0.12000000000E+03 0.  0.
<mgrwt>
<rscale>  0 0.27363871E+03</rscale>
<asrwt>0</asrwt>
<pdfrwt beam="1">  1        2 0.12599401E+00 0.27363871E+03</pdfrwt>
<pdfrwt beam="2">  1       -2 0.35165633E-02 0.27363871E+03</pdfrwt>
<totfact> 0.11446719E+04</totfact>
</mgrwt>
</event>
<event>
 5    1  0.1162308E+001  0.2753491E+03  0.7818608E-02  0.1098257E+00
         -2   -1    0    0    0  501 -0.00000000000E+00  0.00000000000E+00  0.23079957716E+02  0.23079957716E+02  0.00000000000E+00 0.  1.
          2   -1    0    0  501    0  0.00000000000E+00 -0.00000000000E+00 -0.82124403921E+03  0.82124403921E+03  0.00000000000E+00 0.  1.
         35    2    1    2    0    0  0.00000000000E+00  0.00000000000E+00 -0.79816408150E+03  0.84432399693E+03  0.27534907081E+03 0.  0.
         25    1    3    3    0    0  0.15301174696E+02  0.64595738011E+02 -0.36183567404E+03  0.38695192249E+03  0.12000000000E+03 0.  0.
         25    1    3    3    0    0 -0.15301174696E+02 -0.64595738011E+02 -0.43632840746E+03  0.45737207444E+03  0.12000000000E+03 0.  0.
<mgrwt>
<rscale>  0 0.27534907E+03</rscale>
<asrwt>0</asrwt>
<pdfrwt beam="1">  1        2 0.12634525E+00 0.27534907E+03</pdfrwt>
<pdfrwt beam="2">  1       -2 0.35507622E-02 0.27534907E+03</pdfrwt>
<totfact> 0.11244228E+04</totfact>
</mgrwt>
</event>
<event>
 5    1  0.1162308E+001  0.2745636E+03  0.7818608E-02  0.1098696E+00
          1   -1    0    0  501    0  0.00000000000E+00  0.00000000000E+00  0.38867577000E+03  0.38867577000E+03  0.00000000000E+00 0.  1.
         -1   -1    0    0    0  501 -0.00000000000E+00 -0.00000000000E+00 -0.48488458022E+02  0.48488458022E+02  0.00000000000E+00 0.  1.
         35    2    1    2    0    0  0.00000000000E+00  0.00000000000E+00  0.34018731198E+03  0.43716422802E+03  0.27456357193E+03 0.  0.
         25    1    3    3    0    0  0.55781322156E+02 -0.27218793234E+02  0.20889506084E+03  0.24877613441E+03  0.12000000000E+03 0.  0.
         25    1    3    3    0    0 -0.55781322156E+02  0.27218793234E+02  0.13129225113E+03  0.18838809361E+03  0.12000000000E+03 0.  0.
<mgrwt>
<rscale>  0 0.27456357E+03</rscale>
<asrwt>0</asrwt>
<pdfrwt beam="1">  1        1 0.59796270E-01 0.27456357E+03</pdfrwt>
<pdfrwt beam="2">  1       -1 0.74597630E-02 0.27456357E+03</pdfrwt>
<totfact> 0.59921233E+03</totfact>
</mgrwt>
</event>
<event>
 5    1  0.1162308E+001  0.2752577E+03  0.7818608E-02  0.1098308E+00
          1   -1    0    0  501    0  0.00000000000E+00  0.00000000000E+00  0.15944989751E+03  0.15944989751E+03  0.00000000000E+00 0. -1.
         -1   -1    0    0    0  501 -0.00000000000E+00 -0.00000000000E+00 -0.11879403765E+03  0.11879403765E+03  0.00000000000E+00 0. -1.
         35    2    1    2    0    0  0.00000000000E+00  0.00000000000E+00  0.40655859854E+02  0.27824393516E+03  0.27525767658E+03 0.  0.
         25    1    3    3    0    0 -0.15484842640E+02 -0.55608677024E+02  0.55484434357E+02  0.14425889147E+03  0.12000000000E+03 0.  0.
         25    1    3    3    0    0  0.15484842640E+02  0.55608677024E+02 -0.14828574503E+02  0.13398504369E+03  0.12000000000E+03 0.  0.
<mgrwt>
<rscale>  0 0.27525768E+03</rscale>
<asrwt>0</asrwt>
<pdfrwt beam="1">  1        1 0.24530753E-01 0.27525768E+03</pdfrwt>
<pdfrwt beam="2">  1       -1 0.18276006E-01 0.27525768E+03</pdfrwt>
<totfact> 0.45507587E+03</totfact>
</mgrwt>
</event>
<event>
 5    1  0.1162308E+001  0.2737740E+03  0.7818608E-02  0.1099139E+00
         -2   -1    0    0    0  501 -0.00000000000E+00  0.00000000000E+00  0.76208565618E+02  0.76208565618E+02  0.00000000000E+00 0.  1.
          2   -1    0    0  501    0  0.00000000000E+00 -0.00000000000E+00 -0.24587858919E+03  0.24587858919E+03  0.00000000000E+00 0.  1.
         35    2    1    2    0    0  0.00000000000E+00  0.00000000000E+00 -0.16967002357E+03  0.32208715480E+03  0.27377402797E+03 0.  0.
         25    1    3    3    0    0 -0.62096080114E+02 -0.21328940742E+02 -0.78698420075E+02  0.15781092548E+03  0.12000000000E+03 0.  0.
         25    1    3    3    0    0  0.62096080114E+02  0.21328940742E+02 -0.90971603494E+02  0.16427622932E+03  0.12000000000E+03 0.  0.
<mgrwt>
<rscale>  0 0.27377403E+03</rscale>
<asrwt>0</asrwt>
<pdfrwt beam="1">  1        2 0.37827475E-01 0.27377403E+03</pdfrwt>
<pdfrwt beam="2">  1       -2 0.11724395E-01 0.27377403E+03</pdfrwt>
<totfact> 0.69182738E+03</totfact>
</mgrwt>
</event>
<event>
 5    1  0.1162308E+001  0.2699078E+03  0.7818608E-02  0.1101332E+00
         -2   -1    0    0    0  501 -0.00000000000E+00  0.00000000000E+00  0.53595502584E+01  0.53595502584E+01  0.00000000000E+00 0.  1.
          2   -1    0    0  501    0  0.00000000000E+00 -0.00000000000E+00 -0.33981507855E+04  0.33981507855E+04  0.00000000000E+00 0.  1.
         35    2    1    2    0    0  0.00000000000E+00  0.00000000000E+00 -0.33927912353E+04  0.34035103358E+04  0.26990783553E+03 0.  0.
         25    1    3    3    0    0  0.54067000454E+02  0.19753561423E+02 -0.19781122004E+04  0.19825845054E+04  0.12000000000E+03 0.  0.
         25    1    3    3    0    0 -0.54067000454E+02 -0.19753561423E+02 -0.14146790349E+04  0.14209258304E+04  0.12000000000E+03 0.  0.
<mgrwt>
<rscale>  0 0.26990784E+03</rscale>
<asrwt>0</asrwt>
<pdfrwt beam="1">  1        2 0.52279196E+00 0.26990784E+03</pdfrwt>
<pdfrwt beam="2">  1       -2 0.82454693E-03 0.26990784E+03</pdfrwt>
<totfact> 0.33373929E+03</totfact>
</mgrwt>
</event>
<event>
 5    1  0.1162308E+001  0.2745876E+03  0.7818608E-02  0.1098682E+00
         -2   -1    0    0    0  501 -0.00000000000E+00  0.00000000000E+00  0.27680322399E+02  0.27680322399E+02  0.00000000000E+00 0. -1.
          2   -1    0    0  501    0  0.00000000000E+00 -0.00000000000E+00 -0.68097419866E+03  0.68097419866E+03  0.00000000000E+00 0. -1.
         35    2    1    2    0    0  0.00000000000E+00  0.00000000000E+00 -0.65329387626E+03  0.70865452106E+03  0.27458758431E+03 0.  0.
         25    1    3    3    0    0 -0.34211301354E+02 -0.32619057833E+02 -0.44811360848E+03  0.46630485970E+03  0.12000000000E+03 0.  0.
         25    1    3    3    0    0  0.34211301354E+02  0.32619057833E+02 -0.20518026778E+03  0.24234966136E+03  0.12000000000E+03 0.  0.
<mgrwt>
<rscale>  0 0.27458758E+03</rscale>
<asrwt>0</asrwt>
<pdfrwt beam="1">  1        2 0.10476527E+00 0.27458758E+03</pdfrwt>
<pdfrwt beam="2">  1       -2 0.42585109E-02 0.27458758E+03</pdfrwt>
<totfact> 0.10797634E+04</totfact>
</mgrwt>
</event>
<event>
 5    1  0.1162308E+001  0.2751745E+03  0.7818608E-02  0.1098354E+00
         -1   -1    0    0    0  501 -0.00000000000E+00  0.00000000000E+00  0.10818412792E+02  0.10818412792E+02  0.00000000000E+00 0.  1.
          1   -1    0    0  501    0  0.00000000000E+00 -0.00000000000E+00 -0.17498178425E+04  0.17498178425E+04  0.00000000000E+00 0.  1.
         35    2    1    2    0    0  0.00000000000E+00  0.00000000000E+00 -0.17389994297E+04  0.17606362552E+04  0.27517450267E+03 0.  0.
         25    1    3    3    0    0 -0.63735489702E+02 -0.16819938294E+02 -0.78244377768E+03  0.79433203902E+03  0.12000000000E+03 0.  0.
         25    1    3    3    0    0  0.63735489702E+02  0.16819938294E+02 -0.95655565198E+03  0.96630421623E+03  0.12000000000E+03 0.  0.
<mgrwt>
<rscale>  0 0.27517450E+03</rscale>
<asrwt>0</asrwt>
<pdfrwt beam="1">  1        1 0.26920279E+00 0.27517450E+03</pdfrwt>
<pdfrwt beam="2">  1       -1 0.16643709E-02 0.27517450E+03</pdfrwt>
<totfact> 0.43999145E+03</totfact>
</mgrwt>
</event>
<event>
 5    1  0.1162308E+001  0.2717336E+03  0.7818608E-02  0.1100291E+00
         -3   -1    0    0    0  501 -0.00000000000E+00  0.00000000000E+00  0.77271055768E+03  0.77271055768E+03  0.00000000000E+00 0.  1.
          3   -1    0    0  501    0  0.00000000000E+00 -0.00000000000E+00 -0.23889655026E+02  0.23889655026E+02  0.00000000000E+00 0.  1.
         35    2    1    2    0    0  0.00000000000E+00  0.00000000000E+00  0.74882090265E+03  0.79660021271E+03  0.27173360968E+03 0.  0.
         25    1    3    3    0    0 -0.98926014650E+01  0.38951131202E+02  0.51935867861E+03  0.53455447920E+03  0.12000000000E+03 0.  0.
         25    1    3    3    0    0  0.98926014650E+01 -0.38951131202E+02  0.22946222405E+03  0.26204573351E+03  0.12000000000E+03 0.  0.
<mgrwt>
<rscale>  0 0.27173361E+03</rscale>
<asrwt>0</asrwt>
<pdfrwt beam="1">  1        3 0.36753321E-02 0.27173361E+03</pdfrwt>
<pdfrwt beam="2">  1       -3 0.11887853E+00 0.27173361E+03</pdfrwt>
<totfact> 0.56814133E+02</totfact>
</mgrwt>
</event>
<event>
 5    1  0.1162308E+001  0.2750201E+03  0.7818608E-02  0.1098440E+00
         -2   -1    0    0    0  501 -0.00000000000E+00  0.00000000000E+00  0.44222980590E+02  0.44222980590E+02  0.00000000000E+00 0.  1.
          2   -1    0    0  501    0  0.00000000000E+00 -0.00000000000E+00 -0.42758331093E+03  0.42758331093E+03  0.00000000000E+00 0.  1.
         35    2    1    2    0    0  0.00000000000E+00  0.00000000000E+00 -0.38336033034E+03  0.47180629152E+03  0.27502006080E+03 0.  0.
         25    1    3    3    0    0 -0.49918792173E+02 -0.37661882290E+02 -0.23365663332E+03  0.27001060254E+03  0.12000000000E+03 0.  0.
         25    1    3    3    0    0  0.49918792173E+02  0.37661882290E+02 -0.14970369702E+03  0.20179568898E+03  0.12000000000E+03 0.  0.
<mgrwt>
<rscale>  0 0.27502006E+03</rscale>
<asrwt>0</asrwt>
<pdfrwt beam="1">  1        2 0.65782050E-01 0.27502006E+03</pdfrwt>
<pdfrwt beam="2">  1       -2 0.68035353E-02 0.27502006E+03</pdfrwt>
<totfact> 0.89765615E+03</totfact>
</mgrwt>
</event>
<event>
 5    1  0.1162308E+001  0.2726993E+03  0.7818608E-02  0.1099745E+00
         -2   -1    0    0    0  501 -0.00000000000E+00  0.00000000000E+00  0.87887238796E+02  0.87887238796E+02  0.00000000000E+00 0. -1.
          2   -1    0    0  501    0  0.00000000000E+00 -0.00000000000E+00 -0.21153498659E+03  0.21153498659E+03  0.00000000000E+00 0. -1.
         35    2    1    2    0    0  0.00000000000E+00  0.00000000000E+00 -0.12364774780E+03  0.29942222539E+03  0.27269929139E+03 0.  0.
         25    1    3    3    0    0  0.30926873582E+02  0.52912850600E+02 -0.84723952416E+02  0.15916780259E+03  0.12000000000E+03 0.  0.
         25    1    3    3    0    0 -0.30926873582E+02 -0.52912850600E+02 -0.38923795383E+02  0.14025442280E+03  0.12000000000E+03 0.  0.
<mgrwt>
<rscale>  0 0.27269929E+03</rscale>
<asrwt>0</asrwt>
<pdfrwt beam="1">  1        2 0.32543844E-01 0.27269929E+03</pdfrwt>
<pdfrwt beam="2">  1       -2 0.13521114E-01 0.27269929E+03</pdfrwt>
<totfact> 0.64628119E+03</totfact>
</mgrwt>
</event>
<event>
 5    1  0.1162308E+001  0.2752523E+03  0.7818608E-02  0.1098311E+00
         -2   -1    0    0    0  501 -0.00000000000E+00  0.00000000000E+00  0.57456130277E+01  0.57456130277E+01  0.00000000000E+00 0.  1.
          2   -1    0    0  501    0  0.00000000000E+00 -0.00000000000E+00 -0.32965957092E+04  0.32965957092E+04  0.00000000000E+00 0.  1.
         35    2    1    2    0    0  0.00000000000E+00  0.00000000000E+00 -0.32908500962E+04  0.33023413222E+04  0.27525234425E+03 0.  0.
         25    1    3    3    0    0  0.50986438136E+02 -0.35529229803E+02 -0.13327938733E+04  0.13396273555E+04  0.12000000000E+03 0.  0.
         25    1    3    3    0    0 -0.50986438136E+02  0.35529229803E+02 -0.19580562229E+04  0.19627139667E+04  0.12000000000E+03 0.  0.
<mgrwt>
<rscale>  0 0.27525234E+03</rscale>
<asrwt>0</asrwt>
<pdfrwt beam="1">  1        2 0.50716885E+00 0.27525234E+03</pdfrwt>
<pdfrwt beam="2">  1       -2 0.88393998E-03 0.27525234E+03</pdfrwt>
<totfact> 0.35006743E+03</totfact>
</mgrwt>
</event>
<event>
 5    1  0.1162308E+001  0.2736782E+03  0.7818608E-02  0.1099193E+00
         -2   -1    0    0    0  501 -0.00000000000E+00  0.00000000000E+00  0.18675865153E+02  0.18675865153E+02  0.00000000000E+00 0.  1.
          2   -1    0    0  501    0  0.00000000000E+00 -0.00000000000E+00 -0.10026275007E+04  0.10026275007E+04  0.00000000000E+00 0.  1.
         35    2    1    2    0    0  0.00000000000E+00  0.00000000000E+00 -0.98395163559E+03  0.10213033659E+04  0.27367817599E+03 0.  0.
         25    1    3    3    0    0 -0.64752678368E+02 -0.91636444758E+01 -0.51784487345E+03  0.53557463970E+03  0.12000000000E+03 0.  0.
         25    1    3    3    0    0  0.64752678368E+02  0.91636444758E+01 -0.46610676214E+03  0.48572872619E+03  0.12000000000E+03 0.  0.
<mgrwt>
<rscale>  0 0.27367818E+03</rscale>
<asrwt>0</asrwt>
<pdfrwt beam="1">  1        2 0.15425039E+00 0.27367818E+03</pdfrwt>
<pdfrwt beam="2">  1       -2 0.28732099E-02 0.27367818E+03</pdfrwt>
<totfact> 0.11786075E+04</totfact>
</mgrwt>
</event>
<event>
 5    1  0.1162308E+001  0.2732954E+03  0.7818608E-02  0.1099408E+00
          1   -1    0    0  501    0  0.00000000000E+00  0.00000000000E+00  0.11896062347E+04  0.11896062347E+04  0.00000000000E+00 0.  1.
         -1   -1    0    0    0  501 -0.00000000000E+00 -0.00000000000E+00 -0.15696451096E+02  0.15696451096E+02  0.00000000000E+00 0.  1.
         35    2    1    2    0    0  0.00000000000E+00  0.00000000000E+00  0.11739097836E+04  0.12053026858E+04  0.27329541589E+03 0.  0.
         25    1    3    3    0    0 -0.47686772021E+01 -0.60730652285E+02  0.69147364344E+03  0.70444783482E+03  0.12000000000E+03 0.  0.
         25    1    3    3    0    0  0.47686772021E+01  0.60730652285E+02  0.48243614012E+03  0.50085485093E+03  0.12000000000E+03 0.  0.
<mgrwt>
<rscale>  0 0.27329542E+03</rscale>
<asrwt>0</asrwt>
<pdfrwt beam="1">  1        1 0.18301627E+00 0.27329542E+03</pdfrwt>
<pdfrwt beam="2">  1       -1 0.24148396E-02 0.27329542E+03</pdfrwt>
<totfact> 0.60499345E+03</totfact>
</mgrwt>
</event>
<event>
 5    1  0.1162308E+001  0.2773256E+03  0.7818608E-02  0.1097159E+00
         -1   -1    0    0    0  501 -0.00000000000E+00  0.00000000000E+00  0.86344698885E+01  0.86344698885E+01  0.00000000000E+00 0.  1.
          1   -1    0    0  501    0  0.00000000000E+00 -0.00000000000E+00 -0.22268162010E+04  0.22268162010E+04  0.00000000000E+00 0.  1.
         35    2    1    2    0    0  0.00000000000E+00  0.00000000000E+00 -0.22181817311E+04  0.22354506709E+04  0.27732563844E+03 0.  0.
         25    1    3    3    0    0 -0.32419519640E+01  0.58396042055E+02 -0.80675718280E+03  0.81772719166E+03  0.12000000000E+03 0.  0.
         25    1    3    3    0    0  0.32419519640E+01 -0.58396042055E+02 -0.14114245483E+04  0.14177234792E+04  0.12000000000E+03 0.  0.
<mgrwt>
<rscale>  0 0.27732564E+03</rscale>
<asrwt>0</asrwt>
<pdfrwt beam="1">  1        1 0.34258658E+00 0.27732564E+03</pdfrwt>
<pdfrwt beam="2">  1       -1 0.13283820E-02 0.27732564E+03</pdfrwt>
<totfact> 0.29903275E+03</totfact>
</mgrwt>
</event>
<event>
 5    1  0.1162308E+001  0.2760352E+03  0.7818608E-02  0.1097874E+00
         -2   -1    0    0    0  501 -0.00000000000E+00  0.00000000000E+00  0.10797716033E+03  0.10797716033E+03  0.00000000000E+00 0. -1.
          2   -1    0    0  501    0  0.00000000000E+00 -0.00000000000E+00 -0.17641556393E+03  0.17641556393E+03  0.00000000000E+00 0. -1.
         35    2    1    2    0    0  0.00000000000E+00  0.00000000000E+00 -0.68438403604E+02  0.28439272426E+03  0.27603515451E+03 0.  0.
         25    1    3    3    0    0 -0.23311357745E+02 -0.54760580040E+02 -0.68493709066E+02  0.15044443728E+03  0.12000000000E+03 0.  0.
         25    1    3    3    0    0  0.23311357745E+02  0.54760580040E+02  0.55305462488E-01  0.13394828698E+03  0.12000000000E+03 0.  0.
<mgrwt>
<rscale>  0 0.27603515E+03</rscale>
<asrwt>0</asrwt>
<pdfrwt beam="1">  1        2 0.27140856E-01 0.27603515E+03</pdfrwt>
<pdfrwt beam="2">  1       -2 0.16611871E-01 0.27603515E+03</pdfrwt>
<totfact> 0.56172004E+03</totfact>
</mgrwt>
</event>
<event>
 5    1  0.1162308E+001  0.2752692E+03  0.7818608E-02  0.1098301E+00
         -1   -1    0    0    0  501 -0.00000000000E+00  0.00000000000E+00  0.92411345429E+01  0.92411345429E+01  0.00000000000E+00 0.  1.
          1   -1    0    0  501    0  0.00000000000E+00 -0.00000000000E+00 -0.20498866136E+04  0.20498866136E+04  0.00000000000E+00 0.  1.
         35    2    1    2    0    0  0.00000000000E+00  0.00000000000E+00 -0.20406454791E+04  0.20591277482E+04  0.27526916278E+03 0.  0.
         25    1    3    3    0    0 -0.19080520966E+02 -0.60144174225E+02 -0.11976401534E+04  0.12052897266E+04  0.12000000000E+03 0.  0.
         25    1    3    3    0    0  0.19080520966E+02  0.60144174225E+02 -0.84300532570E+03  0.85383802160E+03  0.12000000000E+03 0.  0.
<mgrwt>
<rscale>  0 0.27526916E+03</rscale>
<asrwt>0</asrwt>
<pdfrwt beam="1">  1        1 0.31536739E+00 0.27526916E+03</pdfrwt>
<pdfrwt beam="2">  1       -1 0.14217120E-02 0.27526916E+03</pdfrwt>
<totfact> 0.35332994E+03</totfact>
</mgrwt>
</event>
<event>
 5    1  0.1162308E+001  0.2748447E+03  0.7818608E-02  0.1098538E+00
         -2   -1    0    0    0  501 -0.00000000000E+00  0.00000000000E+00  0.48317206907E+02  0.48317206907E+02  0.00000000000E+00 0. -1.
          2   -1    0    0  501    0  0.00000000000E+00 -0.00000000000E+00 -0.39085263069E+03  0.39085263069E+03  0.00000000000E+00 0. -1.
         35    2    1    2    0    0  0.00000000000E+00  0.00000000000E+00 -0.34253542378E+03  0.43916983760E+03  0.27484473746E+03 0.  0.
         25    1    3    3    0    0 -0.65161929642E+02 -0.22884635978E+00 -0.19595891305E+03  0.23884309713E+03  0.12000000000E+03 0.  0.
         25    1    3    3    0    0  0.65161929642E+02  0.22884635978E+00 -0.14657651074E+03  0.20032674046E+03  0.12000000000E+03 0.  0.
<mgrwt>
<rscale>  0 0.27484474E+03</rscale>
<asrwt>0</asrwt>
<pdfrwt beam="1">  1        2 0.60131172E-01 0.27484474E+03</pdfrwt>
<pdfrwt beam="2">  1       -2 0.74334167E-02 0.27484474E+03</pdfrwt>
<totfact> 0.86294063E+03</totfact>
</mgrwt>
</event>
<event>
 5    1  0.1162308E+001  0.2748876E+03  0.7818608E-02  0.1098514E+00
          1   -1    0    0  501    0  0.00000000000E+00  0.00000000000E+00  0.24866778250E+02  0.24866778250E+02  0.00000000000E+00 0.  1.
         -1   -1    0    0    0  501 -0.00000000000E+00 -0.00000000000E+00 -0.75968012768E+03  0.75968012768E+03  0.00000000000E+00 0.  1.
         35    2    1    2    0    0  0.00000000000E+00  0.00000000000E+00 -0.73481334943E+03  0.78454690593E+03  0.27488759358E+03 0.  0.
         25    1    3    3    0    0  0.64592740178E+02 -0.17411048822E+02 -0.37861794387E+03  0.40277402364E+03  0.12000000000E+03 0.  0.
         25    1    3    3    0    0 -0.64592740178E+02  0.17411048822E+02 -0.35619540557E+03  0.38177288229E+03  0.12000000000E+03 0.  0.
<mgrwt>
<rscale>  0 0.27488759E+03</rscale>
<asrwt>0</asrwt>
<pdfrwt beam="1">  1        1 0.38256587E-02 0.27488759E+03</pdfrwt>
<pdfrwt beam="2">  1       -1 0.11687385E+00 0.27488759E+03</pdfrwt>
<totfact> 0.17033595E+03</totfact>
</mgrwt>
</event>
<event>
 5    1  0.1162308E+001  0.2733102E+03  0.7818608E-02  0.1099400E+00
          2   -1    0    0  501    0  0.00000000000E+00  0.00000000000E+00  0.56290850331E+03  0.56290850331E+03  0.00000000000E+00 0. -1.
         -2   -1    0    0    0  501 -0.00000000000E+00 -0.00000000000E+00 -0.33175226347E+02  0.33175226347E+02  0.00000000000E+00 0. -1.
         35    2    1    2    0    0  0.00000000000E+00  0.00000000000E+00  0.52973327696E+03  0.59608372965E+03  0.27331020478E+03 0.  0.
         25    1    3    3    0    0  0.16779307888E+02  0.58048172674E+02  0.21040844870E+03  0.24964545021E+03  0.12000000000E+03 0.  0.
         25    1    3    3    0    0 -0.16779307888E+02 -0.58048172674E+02  0.31932482826E+03  0.34643827945E+03  0.12000000000E+03 0.  0.
<mgrwt>
<rscale>  0 0.27331020E+03</rscale>
<asrwt>0</asrwt>
<pdfrwt beam="1">  1        2 0.86601301E-01 0.27331020E+03</pdfrwt>
<pdfrwt beam="2">  1       -2 0.51038814E-02 0.27331020E+03</pdfrwt>
<totfact> 0.10257306E+04</totfact>
</mgrwt>
</event>
<event>
 5    1  0.1162308E+001  0.2755417E+03  0.7818608E-02  0.1098149E+00
         -2   -1    0    0    0  501 -0.00000000000E+00  0.00000000000E+00  0.76518260479E+01  0.76518260479E+01  0.00000000000E+00 0. -1.
          2   -1    0    0  501    0  0.00000000000E+00 -0.00000000000E+00 -0.24805600397E+04  0.24805600397E+04  0.00000000000E+00 0. -1.
         35    2    1    2    0    0  0.00000000000E+00  0.00000000000E+00 -0.24729082136E+04  0.24882118657E+04  0.27554174947E+03 0.  0.
         25    1    3    3    0    0  0.18548938830E+02  0.17924798164E+02 -0.67139884967E+03  0.68252602651E+03  0.12000000000E+03 0.  0.
         25    1    3    3    0    0 -0.18548938830E+02 -0.17924798164E+02 -0.18015093640E+04  0.18056858392E+04  0.12000000000E+03 0.  0.
<mgrwt>
<rscale>  0 0.27554175E+03</rscale>
<asrwt>0</asrwt>
<pdfrwt beam="1">  1        2 0.38162470E+00 0.27554175E+03</pdfrwt>
<pdfrwt beam="2">  1       -2 0.11772038E-02 0.27554175E+03</pdfrwt>
<totfact> 0.69103360E+03</totfact>
</mgrwt>
</event>
<event>
 5    1  0.1162308E+001  0.2779291E+03  0.7818608E-02  0.1096825E+00
          1   -1    0    0  501    0  0.00000000000E+00  0.00000000000E+00  0.13906805573E+04  0.13906805573E+04  0.00000000000E+00 0.  1.
         -1   -1    0    0    0  501 -0.00000000000E+00 -0.00000000000E+00 -0.13886108514E+02  0.13886108514E+02  0.00000000000E+00 0.  1.
         35    2    1    2    0    0  0.00000000000E+00  0.00000000000E+00  0.13767944488E+04  0.14045666658E+04  0.27792906381E+03 0.  0.
         25    1    3    3    0    0  0.30340723707E+02 -0.18741228577E+02  0.99327108007E+03  0.10011289785E+04  0.12000000000E+03 0.  0.
         25    1    3    3    0    0 -0.30340723707E+02  0.18741228577E+02  0.38352336870E+03  0.40343768726E+03  0.12000000000E+03 0.  0.
<mgrwt>
<rscale>  0 0.27792906E+03</rscale>
<asrwt>0</asrwt>
<pdfrwt beam="1">  1        1 0.21395075E+00 0.27792906E+03</pdfrwt>
<pdfrwt beam="2">  1       -1 0.21363255E-02 0.27792906E+03</pdfrwt>
<totfact> 0.52719471E+03</totfact>
</mgrwt>
</event>
<event>
 5    1  0.1162308E+001  0.2738296E+03  0.7818608E-02  0.1099108E+00
          1   -1    0    0  501    0  0.00000000000E+00  0.00000000000E+00  0.95490618427E+03  0.95490618427E+03  0.00000000000E+00 0. -1.
         -1   -1    0    0    0  501 -0.00000000000E+00 -0.00000000000E+00 -0.19630896894E+02  0.19630896894E+02  0.00000000000E+00 0. -1.
         35    2    1    2    0    0  0.00000000000E+00  0.00000000000E+00  0.93527528738E+03  0.97453708117E+03  0.27382961744E+03 0.  0.
         25    1    3    3    0    0 -0.25413226155E+02  0.18981948243E+02  0.67330239792E+03  0.68464754836E+03  0.12000000000E+03 0.  0.
         25    1    3    3    0    0  0.25413226155E+02 -0.18981948243E+02  0.26197288946E+03  0.28988953281E+03  0.12000000000E+03 0.  0.
<mgrwt>
<rscale>  0 0.27382962E+03</rscale>
<asrwt>0</asrwt>
<pdfrwt beam="1">  1        1 0.14690861E+00 0.27382962E+03</pdfrwt>
<pdfrwt beam="2">  1       -1 0.30201387E-02 0.27382962E+03</pdfrwt>
<totfact> 0.64563961E+03</totfact>
</mgrwt>
</event>
<event>
 5    1  0.1162308E+001  0.2746703E+03  0.7818608E-02  0.1098636E+00
          2   -1    0    0  501    0  0.00000000000E+00  0.00000000000E+00  0.11386947409E+04  0.11386947409E+04  0.00000000000E+00 0.  1.
         -2   -1    0    0    0  501 -0.00000000000E+00 -0.00000000000E+00 -0.16563650562E+02  0.16563650562E+02  0.00000000000E+00 0.  1.
         35    2    1    2    0    0  0.00000000000E+00  0.00000000000E+00  0.11221310904E+04  0.11552583915E+04  0.27467028806E+03 0.  0.
         25    1    3    3    0    0 -0.38195668685E+02 -0.34728529531E+02  0.73930999282E+03  0.75076244269E+03  0.12000000000E+03 0.  0.
         25    1    3    3    0    0  0.38195668685E+02  0.34728529531E+02  0.38282109753E+03  0.40449594879E+03  0.12000000000E+03 0.  0.
<mgrwt>
<rscale>  0 0.27467029E+03</rscale>
<asrwt>0</asrwt>
<pdfrwt beam="1">  1        2 0.17518374E+00 0.27467029E+03</pdfrwt>
<pdfrwt beam="2">  1       -2 0.25482548E-02 0.27467029E+03</pdfrwt>
<totfact> 0.11690617E+04</totfact>
</mgrwt>
</event>
<event>
 5    1  0.1162308E+001  0.2753703E+03  0.7818608E-02  0.1098245E+00
          1   -1    0    0  501    0  0.00000000000E+00  0.00000000000E+00  0.52608446840E+03  0.52608446840E+03  0.00000000000E+00 0.  1.
         -1   -1    0    0    0  501 -0.00000000000E+00 -0.00000000000E+00 -0.36034510375E+02  0.36034510375E+02  0.00000000000E+00 0.  1.
         35    2    1    2    0    0  0.00000000000E+00  0.00000000000E+00  0.49004995802E+03  0.56211897877E+03  0.27537026880E+03 0.  0.
         25    1    3    3    0    0  0.84874226528E+01 -0.63082210170E+02  0.29093403011E+03  0.32108256175E+03  0.12000000000E+03 0.  0.
         25    1    3    3    0    0 -0.84874226528E+01  0.63082210170E+02  0.19911592791E+03  0.24103641702E+03  0.12000000000E+03 0.  0.
<mgrwt>
<rscale>  0 0.27537027E+03</rscale>
<asrwt>0</asrwt>
<pdfrwt beam="1">  1        1 0.80936067E-01 0.27537027E+03</pdfrwt>
<pdfrwt beam="2">  1       -1 0.55437712E-02 0.27537027E+03</pdfrwt>
<totfact> 0.63219799E+03</totfact>
</mgrwt>
</event>
<event>
 5    1  0.1162308E+001  0.2794854E+03  0.7818608E-02  0.1095970E+00
          3   -1    0    0  501    0  0.00000000000E+00  0.00000000000E+00  0.29220475050E+04  0.29220475050E+04  0.00000000000E+00 0. -1.
         -3   -1    0    0    0  501 -0.00000000000E+00 -0.00000000000E+00 -0.66829938858E+01  0.66829938858E+01  0.00000000000E+00 0. -1.
         35    2    1    2    0    0  0.00000000000E+00  0.00000000000E+00  0.29153645111E+04  0.29287304989E+04  0.27948542438E+03 0.  0.
         25    1    3    3    0    0 -0.10168540556E+01 -0.70708295905E+00  0.70739015602E+03  0.71749729393E+03  0.12000000000E+03 0.  0.
         25    1    3    3    0    0  0.10168540556E+01  0.70708295905E+00  0.22079743551E+04  0.22112332049E+04  0.12000000000E+03 0.  0.
<mgrwt>
<rscale>  0 0.27948542E+03</rscale>
<asrwt>0</asrwt>
<pdfrwt beam="1">  1        3 0.44954475E+00 0.27948542E+03</pdfrwt>
<pdfrwt beam="2">  1       -3 0.10281552E-02 0.27948542E+03</pdfrwt>
<totfact> 0.50031698E+01</totfact>
</mgrwt>
</event>
<event>
 5    1  0.1162308E+001  0.2744990E+03  0.7818608E-02  0.1098732E+00
         -1   -1    0    0    0  501 -0.00000000000E+00  0.00000000000E+00  0.11237351634E+03  0.11237351634E+03  0.00000000000E+00 0. -1.
          1   -1    0    0  501    0  0.00000000000E+00 -0.00000000000E+00 -0.16763221563E+03  0.16763221563E+03  0.00000000000E+00 0. -1.
         35    2    1    2    0    0  0.00000000000E+00  0.00000000000E+00 -0.55258699298E+02  0.28000573197E+03  0.27449897284E+03 0.  0.
         25    1    3    3    0    0  0.37927207658E+02 -0.44388251786E+00 -0.83488770769E+02  0.15102663658E+03  0.12000000000E+03 0.  0.
         25    1    3    3    0    0 -0.37927207658E+02  0.44388251786E+00  0.28230071472E+02  0.12897909539E+03  0.12000000000E+03 0.  0.
<mgrwt>
<rscale>  0 0.27449897E+03</rscale>
<asrwt>0</asrwt>
<pdfrwt beam="1">  1        1 0.25789572E-01 0.27449897E+03</pdfrwt>
<pdfrwt beam="2">  1       -1 0.17288233E-01 0.27449897E+03</pdfrwt>
<totfact> 0.46687557E+03</totfact>
</mgrwt>
</event>
<event>
 5    1  0.1162308E+001  0.2753858E+03  0.7818608E-02  0.1098236E+00
          2   -1    0    0  501    0  0.00000000000E+00  0.00000000000E+00  0.12522600556E+04  0.12522600556E+04  0.00000000000E+00 0. -1.
         -2   -1    0    0    0  501 -0.00000000000E+00 -0.00000000000E+00 -0.15140098637E+02  0.15140098637E+02  0.00000000000E+00 0. -1.
         35    2    1    2    0    0  0.00000000000E+00  0.00000000000E+00  0.12371199570E+04  0.12674001543E+04  0.27538584395E+03 0.  0.
         25    1    3    3    0    0 -0.64234904376E+02 -0.17127087757E+02  0.56412838844E+03  0.58056894399E+03  0.12000000000E+03 0.  0.
         25    1    3    3    0    0  0.64234904376E+02  0.17127087757E+02  0.67299156853E+03  0.68683121026E+03  0.12000000000E+03 0.  0.
<mgrwt>
<rscale>  0 0.27538584E+03</rscale>
<asrwt>0</asrwt>
<pdfrwt beam="1">  1        2 0.19265531E+00 0.27538584E+03</pdfrwt>
<pdfrwt beam="2">  1       -2 0.23292469E-02 0.27538584E+03</pdfrwt>
<totfact> 0.11506268E+04</totfact>
</mgrwt>
</event>
<event>
 5    1  0.1162308E+001  0.2741406E+03  0.7818608E-02  0.1098933E+00
          1   -1    0    0  501    0  0.00000000000E+00  0.00000000000E+00  0.10340991894E+03  0.10340991894E+03  0.00000000000E+00 0.  1.
         -1   -1    0    0    0  501 -0.00000000000E+00 -0.00000000000E+00 -0.18168733834E+03  0.18168733834E+03  0.00000000000E+00 0.  1.
         35    2    1    2    0    0  0.00000000000E+00  0.00000000000E+00 -0.78277419406E+02  0.28509725728E+03  0.27414064222E+03 0.  0.
         25    1    3    3    0    0 -0.35205835399E+02  0.53287503460E+02 -0.57427472988E+02  0.14757006311E+03  0.12000000000E+03 0.  0.
         25    1    3    3    0    0  0.35205835399E+02 -0.53287503460E+02 -0.20849946418E+02  0.13752719417E+03  0.12000000000E+03 0.  0.
<mgrwt>
<rscale>  0 0.27414064E+03</rscale>
<asrwt>0</asrwt>
<pdfrwt beam="1">  1        1 0.15909219E-01 0.27414064E+03</pdfrwt>
<pdfrwt beam="2">  1       -1 0.27951898E-01 0.27414064E+03</pdfrwt>
<totfact> 0.39517274E+03</totfact>
</mgrwt>
</event>
<event>
 5    1  0.1162308E+001  0.2741796E+03  0.7818608E-02  0.1098911E+00
         -1   -1    0    0    0  501 -0.00000000000E+00  0.00000000000E+00  0.16179382058E+04  0.16179382058E+04  0.00000000000E+00 0.  1.
          1   -1    0    0  501    0  0.00000000000E+00 -0.00000000000E+00 -0.11615778432E+02  0.11615778432E+02  0.00000000000E+00 0.  1.
         35    2    1    2    0    0  0.00000000000E+00  0.00000000000E+00  0.16063224274E+04  0.16295539843E+04  0.27417958870E+03 0.  0.
         25    1    3    3    0    0  0.37638352700E+02  0.49201296174E+02  0.94332911415E+03  0.95294660435E+03  0.12000000000E+03 0.  0.
         25    1    3    3    0    0 -0.37638352700E+02 -0.49201296174E+02  0.66299331325E+03  0.67660737992E+03  0.12000000000E+03 0.  0.
<mgrwt>
<rscale>  0 0.27417959E+03</rscale>
<asrwt>0</asrwt>
<pdfrwt beam="1">  1        1 0.17870441E-02 0.27417959E+03</pdfrwt>
<pdfrwt beam="2">  1       -1 0.24891339E+00 0.27417959E+03</pdfrwt>
<totfact> 0.57205196E+02</totfact>
</mgrwt>
</event>
<event>
 5    1  0.1162308E+001  0.2732197E+03  0.7818608E-02  0.1099451E+00
         -1   -1    0    0    0  501 -0.00000000000E+00  0.00000000000E+00  0.12406170755E+04  0.12406170755E+04  0.00000000000E+00 0.  1.
          1   -1    0    0  501    0  0.00000000000E+00 -0.00000000000E+00 -0.15042714004E+02  0.15042714004E+02  0.00000000000E+00 0.  1.
         35    2    1    2    0    0  0.00000000000E+00  0.00000000000E+00  0.12255743615E+04  0.12556597895E+04  0.27321967612E+03 0.  0.
         25    1    3    3    0    0 -0.19626685278E+01 -0.61772843284E+02  0.51611036132E+03  0.53346943801E+03  0.12000000000E+03 0.  0.
         25    1    3    3    0    0  0.19626685278E+01  0.61772843284E+02  0.70946400016E+03  0.72219035147E+03  0.12000000000E+03 0.  0.
<mgrwt>
<rscale>  0 0.27321968E+03</rscale>
<asrwt>0</asrwt>
<pdfrwt beam="1">  1        1 0.23142647E-02 0.27321968E+03</pdfrwt>
<pdfrwt beam="2">  1       -1 0.19086408E+00 0.27321968E+03</pdfrwt>
<totfact> 0.94660131E+02</totfact>
</mgrwt>
</event>
<event>
 5    1  0.1162308E+001  0.2758706E+03  0.7818608E-02  0.1097966E+00
         -4   -1    0    0    0  501 -0.00000000000E+00  0.00000000000E+00  0.11110481738E+03  0.11110481738E+03  0.00000000000E+00 0.  1.
          4   -1    0    0  501    0  0.00000000000E+00 -0.00000000000E+00 -0.17124503970E+03  0.17124503970E+03  0.00000000000E+00 0.  1.
         35    2    1    2    0    0  0.00000000000E+00  0.00000000000E+00 -0.60140222316E+02  0.28234985708E+03  0.27587061361E+03 0.  0.
         25    1    3    3    0    0  0.47529772195E+02  0.40421164531E+02 -0.57783720193E+02  0.14707789809E+03  0.12000000000E+03 0.  0.
         25    1    3    3    0    0 -0.47529772195E+02 -0.40421164531E+02 -0.23565021232E+01  0.13527195899E+03  0.12000000000E+03 0.  0.
<mgrwt>
<rscale>  0 0.27587061E+03</rscale>
<asrwt>0</asrwt>
<pdfrwt beam="1">  1        4 0.26345391E-01 0.27587061E+03</pdfrwt>
<pdfrwt beam="2">  1       -4 0.17093049E-01 0.27587061E+03</pdfrwt>
<totfact> 0.76254385E+02</totfact>
</mgrwt>
</event>
<event>
 5    1  0.1162308E+001  0.2750409E+03  0.7818608E-02  0.1098429E+00
         -4   -1    0    0    0  501 -0.00000000000E+00  0.00000000000E+00  0.27690082498E+03  0.27690082498E+03  0.00000000000E+00 0. -1.
          4   -1    0    0  501    0  0.00000000000E+00 -0.00000000000E+00 -0.68298363785E+02  0.68298363785E+02  0.00000000000E+00 0. -1.
         35    2    1    2    0    0  0.00000000000E+00  0.00000000000E+00  0.20860246119E+03  0.34519918876E+03  0.27504089352E+03 0.  0.
         25    1    3    3    0    0 -0.25226377878E+01  0.60685917746E+02  0.68301364182E+02  0.15084502200E+03  0.12000000000E+03 0.  0.
         25    1    3    3    0    0  0.25226377878E+01 -0.60685917746E+02  0.14030109701E+03  0.19435416676E+03  0.12000000000E+03 0.  0.
<mgrwt>
<rscale>  0 0.27504089E+03</rscale>
<asrwt>0</asrwt>
<pdfrwt beam="1">  1        4 0.10507441E-01 0.27504089E+03</pdfrwt>
<pdfrwt beam="2">  1       -4 0.42600126E-01 0.27504089E+03</pdfrwt>
<totfact> 0.70174370E+02</totfact>
</mgrwt>
</event>
<event>
 5    1  0.1162308E+001  0.2749773E+03  0.7818608E-02  0.1098464E+00
         -2   -1    0    0    0  501 -0.00000000000E+00  0.00000000000E+00  0.12591699387E+02  0.12591699387E+02  0.00000000000E+00 0.  1.
          2   -1    0    0  501    0  0.00000000000E+00 -0.00000000000E+00 -0.15012378487E+04  0.15012378487E+04  0.00000000000E+00 0.  1.
         35    2    1    2    0    0  0.00000000000E+00  0.00000000000E+00 -0.14886461493E+04  0.15138295481E+04  0.27497734960E+03 0.  0.
         25    1    3    3    0    0 -0.45313387643E+02 -0.29272536644E+01 -0.47231148374E+03  0.48942824764E+03  0.12000000000E+03 0.  0.
         25    1    3    3    0    0  0.45313387643E+02  0.29272536644E+01 -0.10163346656E+04  0.10244013004E+04  0.12000000000E+03 0.  0.
<mgrwt>
<rscale>  0 0.27497735E+03</rscale>
<asrwt>0</asrwt>
<pdfrwt beam="1">  1        2 0.23095965E+00 0.27497735E+03</pdfrwt>
<pdfrwt beam="2">  1       -2 0.19371847E-02 0.27497735E+03</pdfrwt>
<totfact> 0.11038343E+04</totfact>
</mgrwt>
</event>
<event>
 5    1  0.1162308E+001  0.2771733E+03  0.7818608E-02  0.1097243E+00
         -2   -1    0    0    0  501 -0.00000000000E+00  0.00000000000E+00  0.14726873118E+02  0.14726873118E+02  0.00000000000E+00 0.  1.
          2   -1    0    0  501    0  0.00000000000E+00 -0.00000000000E+00 -0.13041639870E+04  0.13041639870E+04  0.00000000000E+00 0.  1.
         35    2    1    2    0    0  0.00000000000E+00  0.00000000000E+00 -0.12894371139E+04  0.13188908601E+04  0.27717328559E+03 0.  0.
         25    1    3    3    0    0  0.27683686401E+02  0.27709113929E+02 -0.37253042515E+03  0.39333586049E+03  0.12000000000E+03 0.  0.
         25    1    3    3    0    0 -0.27683686401E+02 -0.27709113929E+02 -0.91690668873E+03  0.92555499962E+03  0.12000000000E+03 0.  0.
<mgrwt>
<rscale>  0 0.27717329E+03</rscale>
<asrwt>0</asrwt>
<pdfrwt beam="1">  1        2 0.20064072E+00 0.27717329E+03</pdfrwt>
<pdfrwt beam="2">  1       -2 0.22656716E-02 0.27717329E+03</pdfrwt>
<totfact> 0.11216442E+04</totfact>
</mgrwt>
</event>
<event>
 5    1  0.1162308E+001  0.2759550E+03  0.7818608E-02  0.1097919E+00
         -1   -1    0    0    0  501 -0.00000000000E+00  0.00000000000E+00  0.24824665457E+02  0.24824665457E+02  0.00000000000E+00 0. -1.
          1   -1    0    0  501    0  0.00000000000E+00 -0.00000000000E+00 -0.76689028462E+03  0.76689028462E+03  0.00000000000E+00 0. -1.
         35    2    1    2    0    0  0.00000000000E+00  0.00000000000E+00 -0.74206561916E+03  0.79171495007E+03  0.27595503082E+03 0.  0.
         25    1    3    3    0    0  0.57889526305E+02  0.29185272607E+02 -0.43085798352E+03  0.45193094534E+03  0.12000000000E+03 0.  0.
         25    1    3    3    0    0 -0.57889526305E+02 -0.29185272607E+02 -0.31120763564E+03  0.33978400474E+03  0.12000000000E+03 0.  0.
<mgrwt>
<rscale>  0 0.27595503E+03</rscale>
<asrwt>0</asrwt>
<pdfrwt beam="1">  1        1 0.11798310E+00 0.27595503E+03</pdfrwt>
<pdfrwt beam="2">  1       -1 0.38191798E-02 0.27595503E+03</pdfrwt>
<totfact> 0.64661734E+03</totfact>
</mgrwt>
</event>
<event>
 5    1  0.1162308E+001  0.2738815E+03  0.7818608E-02  0.1099078E+00
         -1   -1    0    0    0  501 -0.00000000000E+00  0.00000000000E+00  0.10555768081E+02  0.10555768081E+02  0.00000000000E+00 0.  1.
          1   -1    0    0  501    0  0.00000000000E+00 -0.00000000000E+00 -0.17765425476E+04  0.17765425476E+04  0.00000000000E+00 0.  1.
         35    2    1    2    0    0  0.00000000000E+00  0.00000000000E+00 -0.17659867795E+04  0.17870983157E+04  0.27388151539E+03 0.  0.
         25    1    3    3    0    0  0.22466254473E+02  0.53738707458E+02 -0.68080124532E+03  0.69374557073E+03  0.12000000000E+03 0.  0.
         25    1    3    3    0    0 -0.22466254473E+02 -0.53738707458E+02 -0.10851855342E+04  0.10933527449E+04  0.12000000000E+03 0.  0.
<mgrwt>
<rscale>  0 0.27388152E+03</rscale>
<asrwt>0</asrwt>
<pdfrwt beam="1">  1        1 0.27331426E+00 0.27388152E+03</pdfrwt>
<pdfrwt beam="2">  1       -1 0.16239642E-02 0.27388152E+03</pdfrwt>
<totfact> 0.43813202E+03</totfact>
</mgrwt>
</event>
<event>
 5    1  0.1162308E+001  0.2753594E+03  0.7818608E-02  0.1098251E+00
         -1   -1    0    0    0  501 -0.00000000000E+00  0.00000000000E+00  0.72027779636E+03  0.72027779636E+03  0.00000000000E+00 0. -1.
          1   -1    0    0  501    0  0.00000000000E+00 -0.00000000000E+00 -0.26317201204E+02  0.26317201204E+02  0.00000000000E+00 0. -1.
         35    2    1    2    0    0  0.00000000000E+00  0.00000000000E+00  0.69396059516E+03  0.74659499757E+03  0.27535937021E+03 0.  0.
         25    1    3    3    0    0  0.66044329188E+01 -0.55606510315E+02  0.44915146205E+03  0.46826567074E+03  0.12000000000E+03 0.  0.
         25    1    3    3    0    0 -0.66044329188E+01  0.55606510315E+02  0.24480913310E+03  0.27832932683E+03  0.12000000000E+03 0.  0.
<mgrwt>
<rscale>  0 0.27535937E+03</rscale>
<asrwt>0</asrwt>
<pdfrwt beam="1">  1        1 0.40488007E-02 0.27535937E+03</pdfrwt>
<pdfrwt beam="2">  1       -1 0.11081195E+00 0.27535937E+03</pdfrwt>
<totfact> 0.17817433E+03</totfact>
</mgrwt>
</event>
<event>
 5    1  0.1162308E+001  0.2676877E+03  0.7818608E-02  0.1102610E+00
         -2   -1    0    0    0  501 -0.00000000000E+00  0.00000000000E+00  0.62893672605E+02  0.62893672605E+02  0.00000000000E+00 0. -1.
          2   -1    0    0  501    0  0.00000000000E+00 -0.00000000000E+00 -0.28483269038E+03  0.28483269038E+03  0.00000000000E+00 0. -1.
         35    2    1    2    0    0  0.00000000000E+00  0.00000000000E+00 -0.22193901778E+03  0.34772636299E+03  0.26768768351E+03 0.  0.
         25    1    3    3    0    0  0.96047100673E+01 -0.48219052306E+02 -0.67948344700E+02  0.14640459354E+03  0.12000000000E+03 0.  0.
         25    1    3    3    0    0 -0.96047100673E+01  0.48219052306E+02 -0.15399067308E+03  0.20132176945E+03  0.12000000000E+03 0.  0.
<mgrwt>
<rscale>  0 0.26768768E+03</rscale>
<asrwt>0</asrwt>
<pdfrwt beam="1">  1        2 0.43820415E-01 0.26768768E+03</pdfrwt>
<pdfrwt beam="2">  1       -2 0.96759494E-02 0.26768768E+03</pdfrwt>
<totfact> 0.80173159E+03</totfact>
</mgrwt>
</event>
<event>
 5    1  0.1162308E+001  0.2751301E+03  0.7818608E-02  0.1098379E+00
          1   -1    0    0  501    0  0.00000000000E+00  0.00000000000E+00  0.61691552621E+03  0.61691552621E+03  0.00000000000E+00 0.  1.
         -1   -1    0    0    0  501 -0.00000000000E+00 -0.00000000000E+00 -0.30675422345E+02  0.30675422345E+02  0.00000000000E+00 0.  1.
         35    2    1    2    0    0  0.00000000000E+00  0.00000000000E+00  0.58624010386E+03  0.64759094855E+03  0.27513010971E+03 0.  0.
         25    1    3    3    0    0 -0.47808448335E+02 -0.37384189434E+02  0.36137587725E+03  0.38558494526E+03  0.12000000000E+03 0.  0.
         25    1    3    3    0    0  0.47808448335E+02  0.37384189434E+02  0.22486422661E+03  0.26200600329E+03  0.12000000000E+03 0.  0.
<mgrwt>
<rscale>  0 0.27513011E+03</rscale>
<asrwt>0</asrwt>
<pdfrwt beam="1">  1        1 0.94910072E-01 0.27513011E+03</pdfrwt>
<pdfrwt beam="2">  1       -1 0.47192962E-02 0.27513011E+03</pdfrwt>
<totfact> 0.64701336E+03</totfact>
</mgrwt>
</event>
<event>
 5    1  0.1162308E+001  0.2757550E+03  0.7818608E-02  0.1098030E+00
          2   -1    0    0  501    0  0.00000000000E+00  0.00000000000E+00  0.22189162707E+03  0.22189162707E+03  0.00000000000E+00 0.  1.
         -2   -1    0    0    0  501 -0.00000000000E+00 -0.00000000000E+00 -0.85673366185E+02  0.85673366185E+02  0.00000000000E+00 0.  1.
         35    2    1    2    0    0  0.00000000000E+00  0.00000000000E+00  0.13621826088E+03  0.30756499325E+03  0.27575498269E+03 0.  0.
         25    1    3    3    0    0 -0.92962886204E+01 -0.18354556861E+02  0.14027957947E+03  0.18574625476E+03  0.12000000000E+03 0.  0.
         25    1    3    3    0    0  0.92962886204E+01  0.18354556861E+02 -0.40613185901E+01  0.12181873849E+03  0.12000000000E+03 0.  0.
<mgrwt>
<rscale>  0 0.27575498E+03</rscale>
<asrwt>0</asrwt>
<pdfrwt beam="1">  1        2 0.34137173E-01 0.27575498E+03</pdfrwt>
<pdfrwt beam="2">  1       -2 0.13180518E-01 0.27575498E+03</pdfrwt>
<totfact> 0.63984885E+03</totfact>
</mgrwt>
</event>
<event>
 5    1  0.1162308E+001  0.2754967E+03  0.7818608E-02  0.1098174E+00
          1   -1    0    0  501    0  0.00000000000E+00  0.00000000000E+00  0.49589636150E+03  0.49589636150E+03  0.00000000000E+00 0. -1.
         -1   -1    0    0    0  501 -0.00000000000E+00 -0.00000000000E+00 -0.38263252003E+02  0.38263252003E+02  0.00000000000E+00 0. -1.
         35    2    1    2    0    0  0.00000000000E+00  0.00000000000E+00  0.45763310949E+03  0.53415961350E+03  0.27549669651E+03 0.  0.
         25    1    3    3    0    0 -0.43990248301E+02  0.47477319925E+02  0.19075439950E+03  0.23447063522E+03  0.12000000000E+03 0.  0.
         25    1    3    3    0    0  0.43990248301E+02 -0.47477319925E+02  0.26687870999E+03  0.29968897828E+03  0.12000000000E+03 0.  0.
<mgrwt>
<rscale>  0 0.27549670E+03</rscale>
<asrwt>0</asrwt>
<pdfrwt beam="1">  1        1 0.76291743E-01 0.27549670E+03</pdfrwt>
<pdfrwt beam="2">  1       -1 0.58866545E-02 0.27549670E+03</pdfrwt>
<totfact> 0.62499322E+03</totfact>
</mgrwt>
</event>
<event>
 5    1  0.1162308E+001  0.2747457E+03  0.7818608E-02  0.1098594E+00
          1   -1    0    0  501    0  0.00000000000E+00  0.00000000000E+00  0.16471300591E+02  0.16471300591E+02  0.00000000000E+00 0. -1.
         -1   -1    0    0    0  501 -0.00000000000E+00 -0.00000000000E+00 -0.11457079986E+04  0.11457079986E+04  0.00000000000E+00 0. -1.
         35    2    1    2    0    0  0.00000000000E+00  0.00000000000E+00 -0.11292366980E+04  0.11621792992E+04  0.27474570668E+03 0.  0.
         25    1    3    3    0    0 -0.33386904447E+02 -0.57776100792E+02 -0.54640586228E+03  0.56339340566E+03  0.12000000000E+03 0.  0.
         25    1    3    3    0    0  0.33386904447E+02  0.57776100792E+02 -0.58283083573E+03  0.59878589353E+03  0.12000000000E+03 0.  0.
<mgrwt>
<rscale>  0 0.27474571E+03</rscale>
<asrwt>0</asrwt>
<pdfrwt beam="1">  1        1 0.25340456E-02 0.27474571E+03</pdfrwt>
<pdfrwt beam="2">  1       -1 0.17626281E+00 0.27474571E+03</pdfrwt>
<totfact> 0.10508278E+03</totfact>
</mgrwt>
</event>
<event>
 5    1  0.1162308E+001  0.2735938E+03  0.7818608E-02  0.1099240E+00
         -1   -1    0    0    0  501 -0.00000000000E+00  0.00000000000E+00  0.29611910606E+03  0.29611910606E+03  0.00000000000E+00 0. -1.
          1   -1    0    0  501    0  0.00000000000E+00 -0.00000000000E+00 -0.63195490088E+02  0.63195490088E+02  0.00000000000E+00 0. -1.
         35    2    1    2    0    0  0.00000000000E+00  0.00000000000E+00  0.23292361597E+03  0.35931459615E+03  0.27359380133E+03 0.  0.
         25    1    3    3    0    0 -0.24815077504E+02  0.26998953263E+02  0.18801827201E+03  0.22604336345E+03  0.12000000000E+03 0.  0.
         25    1    3    3    0    0  0.24815077504E+02 -0.26998953263E+02  0.44905343959E+02  0.13327123270E+03  0.12000000000E+03 0.  0.
<mgrwt>
<rscale>  0 0.27359380E+03</rscale>
<asrwt>0</asrwt>
<pdfrwt beam="1">  1        1 0.97223833E-02 0.27359380E+03</pdfrwt>
<pdfrwt beam="2">  1       -1 0.45556785E-01 0.27359380E+03</pdfrwt>
<totfact> 0.32377866E+03</totfact>
</mgrwt>
</event>
<event>
 5    1  0.1162308E+001  0.2760396E+03  0.7818608E-02  0.1097872E+00
         -2   -1    0    0    0  501 -0.00000000000E+00  0.00000000000E+00  0.17171625372E+02  0.17171625372E+02  0.00000000000E+00 0. -1.
          2   -1    0    0  501    0  0.00000000000E+00 -0.00000000000E+00 -0.11093572893E+04  0.11093572893E+04  0.00000000000E+00 0. -1.
         35    2    1    2    0    0  0.00000000000E+00  0.00000000000E+00 -0.10921856639E+04  0.11265289147E+04  0.27603961872E+03 0.  0.
         25    1    3    3    0    0  0.19690815215E+02 -0.32258103699E+02 -0.77771316942E+03  0.78782363975E+03  0.12000000000E+03 0.  0.
         25    1    3    3    0    0 -0.19690815215E+02  0.32258103699E+02 -0.31447249450E+03  0.33870527492E+03  0.12000000000E+03 0.  0.
<mgrwt>
<rscale>  0 0.27603962E+03</rscale>
<asrwt>0</asrwt>
<pdfrwt beam="1">  1        2 0.17067030E+00 0.27603962E+03</pdfrwt>
<pdfrwt beam="2">  1       -2 0.26417893E-02 0.27603962E+03</pdfrwt>
<totfact> 0.11528985E+04</totfact>
</mgrwt>
</event>
<event>
 5    1  0.1162308E+001  0.2758678E+03  0.7818608E-02  0.1097968E+00
          1   -1    0    0  501    0  0.00000000000E+00  0.00000000000E+00  0.43343325701E+03  0.43343325701E+03  0.00000000000E+00 0. -1.
         -1   -1    0    0    0  501 -0.00000000000E+00 -0.00000000000E+00 -0.43895466199E+02  0.43895466199E+02  0.00000000000E+00 0. -1.
         35    2    1    2    0    0  0.00000000000E+00  0.00000000000E+00  0.38953779081E+03  0.47732872321E+03  0.27586775732E+03 0.  0.
         25    1    3    3    0    0 -0.56347530778E+02  0.32114401580E+02  0.23020274547E+03  0.26758117093E+03  0.12000000000E+03 0.  0.
         25    1    3    3    0    0  0.56347530778E+02 -0.32114401580E+02  0.15933504534E+03  0.20974755228E+03  0.12000000000E+03 0.  0.
<mgrwt>
<rscale>  0 0.27586776E+03</rscale>
<asrwt>0</asrwt>
<pdfrwt beam="1">  1        1 0.66682037E-01 0.27586776E+03</pdfrwt>
<pdfrwt beam="2">  1       -1 0.67531489E-02 0.27586776E+03</pdfrwt>
<totfact> 0.60586754E+03</totfact>
</mgrwt>
</event>
<event>
 5    1  0.1162308E+001  0.2756211E+03  0.7818608E-02  0.1098105E+00
          2   -1    0    0  501    0  0.00000000000E+00  0.00000000000E+00  0.31436087038E+03  0.31436087038E+03  0.00000000000E+00 0.  1.
         -2   -1    0    0    0  501 -0.00000000000E+00 -0.00000000000E+00 -0.60413862204E+02  0.60413862204E+02  0.00000000000E+00 0.  1.
         35    2    1    2    0    0  0.00000000000E+00  0.00000000000E+00  0.25394700818E+03  0.37477473259E+03  0.27562114800E+03 0.  0.
         25    1    3    3    0    0  0.57467880683E+02  0.18374226327E+02  0.85028377026E+02  0.15896538744E+03  0.12000000000E+03 0.  0.
         25    1    3    3    0    0 -0.57467880683E+02 -0.18374226327E+02  0.16891863115E+03  0.21580934515E+03  0.12000000000E+03 0.  0.
<mgrwt>
<rscale>  0 0.27562115E+03</rscale>
<asrwt>0</asrwt>
<pdfrwt beam="1">  1        2 0.48363210E-01 0.27562115E+03</pdfrwt>
<pdfrwt beam="2">  1       -2 0.92944405E-02 0.27562115E+03</pdfrwt>
<totfact> 0.76933070E+03</totfact>
</mgrwt>
</event>
<event>
 5    1  0.1162308E+001  0.2734072E+03  0.7818608E-02  0.1099345E+00
         -2   -1    0    0    0  501 -0.00000000000E+00  0.00000000000E+00  0.23974121745E+02  0.23974121745E+02  0.00000000000E+00 0. -1.
          2   -1    0    0  501    0  0.00000000000E+00 -0.00000000000E+00 -0.77950194902E+03  0.77950194902E+03  0.00000000000E+00 0. -1.
         35    2    1    2    0    0  0.00000000000E+00  0.00000000000E+00 -0.75552782728E+03  0.80347607077E+03  0.27340720273E+03 0.  0.
         25    1    3    3    0    0 -0.49815468961E+01 -0.60156677901E+01 -0.56882509981E+03  0.58139745291E+03  0.12000000000E+03 0.  0.
         25    1    3    3    0    0  0.49815468961E+01  0.60156677901E+01 -0.18670272746E+03  0.22207861786E+03  0.12000000000E+03 0.  0.
<mgrwt>
<rscale>  0 0.27340720E+03</rscale>
<asrwt>0</asrwt>
<pdfrwt beam="1">  1        2 0.11992336E+00 0.27340720E+03</pdfrwt>
<pdfrwt beam="2">  1       -2 0.36883270E-02 0.27340720E+03</pdfrwt>
<totfact> 0.11348283E+04</totfact>
</mgrwt>
</event>
<event>
 5    1  0.1162308E+001  0.2742862E+03  0.7818608E-02  0.1098851E+00
          2   -1    0    0  501    0  0.00000000000E+00  0.00000000000E+00  0.23482551545E+03  0.23482551545E+03  0.00000000000E+00 0. -1.
         -2   -1    0    0    0  501 -0.00000000000E+00 -0.00000000000E+00 -0.80094479469E+02  0.80094479469E+02  0.00000000000E+00 0. -1.
         35    2    1    2    0    0  0.00000000000E+00  0.00000000000E+00  0.15473103598E+03  0.31491999492E+03  0.27428618212E+03 0.  0.
         25    1    3    3    0    0  0.87271686948E+01  0.65290519892E+02  0.67813681150E+02  0.15276685116E+03  0.12000000000E+03 0.  0.
         25    1    3    3    0    0 -0.87271686948E+01 -0.65290519892E+02  0.86917354832E+02  0.16215314376E+03  0.12000000000E+03 0.  0.
<mgrwt>
<rscale>  0 0.27428618E+03</rscale>
<asrwt>0</asrwt>
<pdfrwt beam="1">  1        2 0.36127002E-01 0.27428618E+03</pdfrwt>
<pdfrwt beam="2">  1       -2 0.12322228E-01 0.27428618E+03</pdfrwt>
<totfact> 0.67108275E+03</totfact>
</mgrwt>
</event>
<event>
 5    1  0.1162308E+001  0.2786090E+03  0.7818608E-02  0.1096451E+00
          1   -1    0    0  501    0  0.00000000000E+00  0.00000000000E+00  0.16190199362E+04  0.16190199362E+04  0.00000000000E+00 0.  1.
         -1   -1    0    0    0  501 -0.00000000000E+00 -0.00000000000E+00 -0.11986109294E+02  0.11986109294E+02  0.00000000000E+00 0.  1.
         35    2    1    2    0    0  0.00000000000E+00  0.00000000000E+00  0.16070338269E+04  0.16310060455E+04  0.27860904439E+03 0.  0.
         25    1    3    3    0    0  0.69002790234E+02  0.12672411068E+02  0.74993512973E+03  0.76270877395E+03  0.12000000000E+03 0.  0.
         25    1    3    3    0    0 -0.69002790234E+02 -0.12672411068E+02  0.85709869714E+03  0.86829727150E+03  0.12000000000E+03 0.  0.
<mgrwt>
<rscale>  0 0.27860904E+03</rscale>
<asrwt>0</asrwt>
<pdfrwt beam="1">  1        1 0.24907982E+00 0.27860904E+03</pdfrwt>
<pdfrwt beam="2">  1       -1 0.18440181E-02 0.27860904E+03</pdfrwt>
<totfact> 0.46127507E+03</totfact>
</mgrwt>
</event>
<event>
 5    1  0.1162308E+001  0.2746819E+03  0.7818608E-02  0.1098630E+00
         -2   -1    0    0    0  501 -0.00000000000E+00  0.00000000000E+00  0.12244201718E+03  0.12244201718E+03  0.00000000000E+00 0.  1.
          2   -1    0    0  501    0  0.00000000000E+00 -0.00000000000E+00 -0.15405282737E+03  0.15405282737E+03  0.00000000000E+00 0.  1.
         35    2    1    2    0    0  0.00000000000E+00  0.00000000000E+00 -0.31610810193E+02  0.27649484456E+03  0.27468191740E+03 0.  0.
         25    1    3    3    0    0  0.94222793130E+01 -0.57146524830E+01 -0.82127308178E+02  0.14582980268E+03  0.12000000000E+03 0.  0.
         25    1    3    3    0    0 -0.94222793130E+01  0.57146524830E+01  0.50516497985E+02  0.13066504188E+03  0.12000000000E+03 0.  0.
<mgrwt>
<rscale>  0 0.27468192E+03</rscale>
<asrwt>0</asrwt>
<pdfrwt beam="1">  1        2 0.23700435E-01 0.27468192E+03</pdfrwt>
<pdfrwt beam="2">  1       -2 0.18837233E-01 0.27468192E+03</pdfrwt>
<totfact> 0.52870318E+03</totfact>
</mgrwt>
</event>
<event>
 5    1  0.1162308E+001  0.2747412E+03  0.7818608E-02  0.1098596E+00
          1   -1    0    0  501    0  0.00000000000E+00  0.00000000000E+00  0.10895040909E+04  0.10895040909E+04  0.00000000000E+00 0.  1.
         -1   -1    0    0    0  501 -0.00000000000E+00 -0.00000000000E+00 -0.17320430996E+02  0.17320430996E+02  0.00000000000E+00 0.  1.
         35    2    1    2    0    0  0.00000000000E+00  0.00000000000E+00  0.10721836599E+04  0.11068245219E+04  0.27474119041E+03 0.  0.
         25    1    3    3    0    0 -0.17554145641E+02 -0.10899323539E+02  0.79227255794E+03  0.80157516762E+03  0.12000000000E+03 0.  0.
         25    1    3    3    0    0  0.17554145641E+02  0.10899323539E+02  0.27991110197E+03  0.30524935428E+03  0.12000000000E+03 0.  0.
<mgrwt>
<rscale>  0 0.27474119E+03</rscale>
<asrwt>0</asrwt>
<pdfrwt beam="1">  1        1 0.16761596E+00 0.27474119E+03</pdfrwt>
<pdfrwt beam="2">  1       -1 0.26646825E-02 0.27474119E+03</pdfrwt>
<totfact> 0.61691753E+03</totfact>
</mgrwt>
</event>
<event>
 5    1  0.1162308E+001  0.2752220E+03  0.7818608E-02  0.1098328E+00
          2   -1    0    0  501    0  0.00000000000E+00  0.00000000000E+00  0.31310007963E+02  0.31310007963E+02  0.00000000000E+00 0. -1.
         -2   -1    0    0    0  501 -0.00000000000E+00 -0.00000000000E+00 -0.60481557577E+03  0.60481557577E+03  0.00000000000E+00 0. -1.
         35    2    1    2    0    0  0.00000000000E+00  0.00000000000E+00 -0.57350556781E+03  0.63612558373E+03  0.27522195039E+03 0.  0.
         25    1    3    3    0    0  0.24278705995E+02 -0.24017196304E+02 -0.15256687596E+03  0.19708610535E+03  0.12000000000E+03 0.  0.
         25    1    3    3    0    0 -0.24278705995E+02  0.24017196304E+02 -0.42093869185E+03  0.43903947838E+03  0.12000000000E+03 0.  0.
<mgrwt>
<rscale>  0 0.27522195E+03</rscale>
<asrwt>0</asrwt>
<pdfrwt beam="1">  1        2 0.48169249E-02 0.27522195E+03</pdfrwt>
<pdfrwt beam="2">  1       -2 0.93048539E-01 0.27522195E+03</pdfrwt>
<totfact> 0.16719302E+03</totfact>
</mgrwt>
</event>
<event>
 5    1  0.1162308E+001  0.2746596E+03  0.7818608E-02  0.1098642E+00
         -1   -1    0    0    0  501 -0.00000000000E+00  0.00000000000E+00  0.32829575264E+03  0.32829575264E+03  0.00000000000E+00 0.  1.
          1   -1    0    0  501    0  0.00000000000E+00 -0.00000000000E+00 -0.57446598675E+02  0.57446598675E+02  0.00000000000E+00 0.  1.
         35    2    1    2    0    0  0.00000000000E+00  0.00000000000E+00  0.27084915396E+03  0.38574235131E+03  0.27465960277E+03 0.  0.
         25    1    3    3    0    0  0.41976180480E+02  0.35485424158E+02  0.18868702584E+03  0.23026942649E+03  0.12000000000E+03 0.  0.
         25    1    3    3    0    0 -0.41976180480E+02 -0.35485424158E+02  0.82162128122E+02  0.15547292482E+03  0.12000000000E+03 0.  0.
<mgrwt>
<rscale>  0 0.27465960E+03</rscale>
<asrwt>0</asrwt>
<pdfrwt beam="1">  1        1 0.88379384E-02 0.27465960E+03</pdfrwt>
<pdfrwt beam="2">  1       -1 0.50507038E-01 0.27465960E+03</pdfrwt>
<totfact> 0.30480615E+03</totfact>
</mgrwt>
</event>
<event>
 5    1  0.1162308E+001  0.2752386E+03  0.7818608E-02  0.1098318E+00
         -1   -1    0    0    0  501 -0.00000000000E+00  0.00000000000E+00  0.13998783202E+02  0.13998783202E+02  0.00000000000E+00 0.  1.
          1   -1    0    0  501    0  0.00000000000E+00 -0.00000000000E+00 -0.13529085834E+04  0.13529085834E+04  0.00000000000E+00 0.  1.
         35    2    1    2    0    0  0.00000000000E+00  0.00000000000E+00 -0.13389098002E+04  0.13669073666E+04  0.27523861612E+03 0.  0.
         25    1    3    3    0    0 -0.60942921241E+02  0.14494351850E+02 -0.54630078205E+03  0.56282205923E+03  0.12000000000E+03 0.  0.
         25    1    3    3    0    0  0.60942921241E+02 -0.14494351850E+02 -0.79260901812E+03  0.80408530734E+03  0.12000000000E+03 0.  0.
<mgrwt>
<rscale>  0 0.27523862E+03</rscale>
<asrwt>0</asrwt>
<pdfrwt beam="1">  1        1 0.20813984E+00 0.27523862E+03</pdfrwt>
<pdfrwt beam="2">  1       -1 0.21536583E-02 0.27523862E+03</pdfrwt>
<totfact> 0.55242979E+03</totfact>
</mgrwt>
</event>
<event>
 5    1  0.1162308E+001  0.2747304E+03  0.7818608E-02  0.1098602E+00
         -2   -1    0    0    0  501 -0.00000000000E+00  0.00000000000E+00  0.50414287296E+02  0.50414287296E+02  0.00000000000E+00 0. -1.
          2   -1    0    0  501    0  0.00000000000E+00 -0.00000000000E+00 -0.37428274248E+03  0.37428274248E+03  0.00000000000E+00 0. -1.
         35    2    1    2    0    0  0.00000000000E+00  0.00000000000E+00 -0.32386845518E+03  0.42469702977E+03  0.27473039664E+03 0.  0.
         25    1    3    3    0    0  0.23826871554E+02  0.27877824741E+02 -0.24834128345E+03  0.27824141674E+03  0.12000000000E+03 0.  0.
         25    1    3    3    0    0 -0.23826871554E+02 -0.27877824741E+02 -0.75527171727E+02  0.14645561303E+03  0.12000000000E+03 0.  0.
<mgrwt>
<rscale>  0 0.27473040E+03</rscale>
<asrwt>0</asrwt>
<pdfrwt beam="1">  1        2 0.57581960E-01 0.27473040E+03</pdfrwt>
<pdfrwt beam="2">  1       -2 0.77560442E-02 0.27473040E+03</pdfrwt>
<totfact> 0.84649790E+03</totfact>
</mgrwt>
</event>
<event>
 5    1  0.1162308E+001  0.2746685E+03  0.7818608E-02  0.1098637E+00
          1   -1    0    0  501    0  0.00000000000E+00  0.00000000000E+00  0.12916260032E+03  0.12916260032E+03  0.00000000000E+00 0.  1.
         -1   -1    0    0    0  501 -0.00000000000E+00 -0.00000000000E+00 -0.14602283865E+03  0.14602283865E+03  0.00000000000E+00 0.  1.
         35    2    1    2    0    0  0.00000000000E+00  0.00000000000E+00 -0.16860238330E+02  0.27518543897E+03  0.27466845138E+03 0.  0.
         25    1    3    3    0    0  0.43413044490E+02 -0.37687449353E+02  0.25628767581E+02  0.13550597772E+03  0.12000000000E+03 0.  0.
         25    1    3    3    0    0 -0.43413044490E+02  0.37687449353E+02 -0.42489005911E+02  0.13967946125E+03  0.12000000000E+03 0.  0.
<mgrwt>
<rscale>  0 0.27466845E+03</rscale>
<asrwt>0</asrwt>
<pdfrwt beam="1">  1        1 0.19871169E-01 0.27466845E+03</pdfrwt>
<pdfrwt beam="2">  1       -1 0.22465052E-01 0.27466845E+03</pdfrwt>
<totfact> 0.42596351E+03</totfact>
</mgrwt>
</event>
<event>
 5    1  0.1162308E+001  0.2753785E+03  0.7818608E-02  0.1098240E+00
         -1   -1    0    0    0  501 -0.00000000000E+00  0.00000000000E+00  0.17798155056E+03  0.17798155056E+03  0.00000000000E+00 0.  1.
          1   -1    0    0  501    0  0.00000000000E+00 -0.00000000000E+00 -0.10651850290E+03  0.10651850290E+03  0.00000000000E+00 0.  1.
         35    2    1    2    0    0  0.00000000000E+00  0.00000000000E+00  0.71463047660E+02  0.28450005347E+03  0.27537849089E+03 0.  0.
         25    1    3    3    0    0 -0.63177090118E+02 -0.21146622961E+02  0.47039577817E+02  0.14509047612E+03  0.12000000000E+03 0.  0.
         25    1    3    3    0    0  0.63177090118E+02  0.21146622961E+02  0.24423469843E+02  0.13940957735E+03  0.12000000000E+03 0.  0.
<mgrwt>
<rscale>  0 0.27537849E+03</rscale>
<asrwt>0</asrwt>
<pdfrwt beam="1">  1        1 0.16387462E-01 0.27537849E+03</pdfrwt>
<pdfrwt beam="2">  1       -1 0.27381777E-01 0.27537849E+03</pdfrwt>
<totfact> 0.39365376E+03</totfact>
</mgrwt>
</event>
<event>
 5    1  0.1162308E+001  0.2752593E+03  0.7818608E-02  0.1098307E+00
          2   -1    0    0  501    0  0.00000000000E+00  0.00000000000E+00  0.31310899251E+04  0.31310899251E+04  0.00000000000E+00 0. -1.
         -2   -1    0    0    0  501 -0.00000000000E+00 -0.00000000000E+00 -0.60496252313E+01  0.60496252313E+01  0.00000000000E+00 0. -1.
         35    2    1    2    0    0  0.00000000000E+00  0.00000000000E+00  0.31250402999E+04  0.31371395504E+04  0.27525930039E+03 0.  0.
         25    1    3    3    0    0  0.29914781266E+02  0.54715970393E+01  0.87707709615E+03  0.88577032300E+03  0.12000000000E+03 0.  0.
         25    1    3    3    0    0 -0.29914781266E+02 -0.54715970393E+01  0.22479632038E+04  0.22513692274E+04  0.12000000000E+03 0.  0.
<mgrwt>
<rscale>  0 0.27525930E+03</rscale>
<asrwt>0</asrwt>
<pdfrwt beam="1">  1        2 0.48170485E+00 0.27525930E+03</pdfrwt>
<pdfrwt beam="2">  1       -2 0.93071407E-03 0.27525930E+03</pdfrwt>
<totfact> 0.41132208E+03</totfact>
</mgrwt>
</event>
<event>
 5    1  0.1162308E+001  0.2751636E+03  0.7818608E-02  0.1098360E+00
          1   -1    0    0  501    0  0.00000000000E+00  0.00000000000E+00  0.11332610150E+03  0.11332610150E+03  0.00000000000E+00 0. -1.
         -1   -1    0    0    0  501 -0.00000000000E+00 -0.00000000000E+00 -0.16702907974E+03  0.16702907974E+03  0.00000000000E+00 0. -1.
         35    2    1    2    0    0  0.00000000000E+00  0.00000000000E+00 -0.53702978248E+02  0.28035518124E+03  0.27516362001E+03 0.  0.
         25    1    3    3    0    0  0.10854014091E+02 -0.64741153428E+02 -0.11755470984E+02  0.13728589755E+03  0.12000000000E+03 0.  0.
         25    1    3    3    0    0 -0.10854014091E+02  0.64741153428E+02 -0.41947507264E+02  0.14306928369E+03  0.12000000000E+03 0.  0.
<mgrwt>
<rscale>  0 0.27516362E+03</rscale>
<asrwt>0</asrwt>
<pdfrwt beam="1">  1        1 0.17434785E-01 0.27516362E+03</pdfrwt>
<pdfrwt beam="2">  1       -1 0.25696781E-01 0.27516362E+03</pdfrwt>
<totfact> 0.40388515E+03</totfact>
</mgrwt>
</event>
<event>
 5    1  0.1162308E+001  0.2745936E+03  0.7818608E-02  0.1098679E+00
          1   -1    0    0  501    0  0.00000000000E+00  0.00000000000E+00  0.60468995961E+02  0.60468995961E+02  0.00000000000E+00 0.  1.
         -1   -1    0    0    0  501 -0.00000000000E+00 -0.00000000000E+00 -0.31173687563E+03  0.31173687563E+03  0.00000000000E+00 0.  1.
         35    2    1    2    0    0  0.00000000000E+00  0.00000000000E+00 -0.25126787967E+03  0.37220587159E+03  0.27459363338E+03 0.  0.
         25    1    3    3    0    0  0.58259355205E+02 -0.24107125103E+02 -0.96088544385E+02  0.16615749851E+03  0.12000000000E+03 0.  0.
         25    1    3    3    0    0 -0.58259355205E+02  0.24107125103E+02 -0.15517933528E+03  0.20604837308E+03  0.12000000000E+03 0.  0.
<mgrwt>
<rscale>  0 0.27459363E+03</rscale>
<asrwt>0</asrwt>
<pdfrwt beam="1">  1        1 0.93029224E-02 0.27459363E+03</pdfrwt>
<pdfrwt beam="2">  1       -1 0.47959520E-01 0.27459363E+03</pdfrwt>
<totfact> 0.31287048E+03</totfact>
</mgrwt>
</event>
<event>
 5    1  0.1162308E+001  0.2796561E+03  0.7818608E-02  0.1095877E+00
         -1   -1    0    0    0  501 -0.00000000000E+00  0.00000000000E+00  0.22035815120E+02  0.22035815120E+02  0.00000000000E+00 0. -1.
          1   -1    0    0  501    0  0.00000000000E+00 -0.00000000000E+00 -0.88727762356E+03  0.88727762356E+03  0.00000000000E+00 0. -1.
         35    2    1    2    0    0  0.00000000000E+00  0.00000000000E+00 -0.86524180844E+03  0.90931343868E+03  0.27965611506E+03 0.  0.
         25    1    3    3    0    0 -0.45963739381E+02  0.53321205316E+02 -0.38709126618E+03  0.41133376305E+03  0.12000000000E+03 0.  0.
         25    1    3    3    0    0  0.45963739381E+02 -0.53321205316E+02 -0.47815054226E+03  0.49797967563E+03  0.12000000000E+03 0.  0.
<mgrwt>
<rscale>  0 0.27965612E+03</rscale>
<asrwt>0</asrwt>
<pdfrwt beam="1">  1        1 0.13650426E+00 0.27965612E+03</pdfrwt>
<pdfrwt beam="2">  1       -1 0.33901252E-02 0.27965612E+03</pdfrwt>
<totfact> 0.61457450E+03</totfact>
</mgrwt>
</event>
<event>
 4    1  0.1162308E+001  0.2479822E+03  0.7818608E-02  0.1114587E+00
          3   -1    0    0  501    0  0.00000000000E+00  0.00000000000E+00  0.64665390569E+03  0.64665390569E+03  0.00000000000E+00 0. -1.
         -3   -1    0    0    0  501 -0.00000000000E+00 -0.00000000000E+00 -0.23774369034E+02  0.23774369034E+02  0.00000000000E+00 0. -1.
         25    1    1    2    0    0 -0.16499727198E+02 -0.26232481229E+02  0.30154153830E+03  0.32601791881E+03  0.12000000000E+03 0.  0.
         25    1    1    2    0    0  0.16499727198E+02  0.26232481229E+02  0.32133799836E+03  0.34441035591E+03  0.12000000000E+03 0.  0.
<mgrwt>
<rscale>  0 0.24798217E+03</rscale>
<asrwt>0</asrwt>
<pdfrwt beam="1">  1        3 0.99485203E-01 0.24798217E+03</pdfrwt>
<pdfrwt beam="2">  1       -3 0.36575957E-02 0.24798217E+03</pdfrwt>
<totfact> 0.86159743E+02</totfact>
</mgrwt>
</event>
<event>
 5    1  0.1162308E+001  0.2741760E+03  0.7818608E-02  0.1098913E+00
          2   -1    0    0  501    0  0.00000000000E+00  0.00000000000E+00  0.23000036493E+03  0.23000036493E+03  0.00000000000E+00 0. -1.
         -2   -1    0    0    0  501 -0.00000000000E+00 -0.00000000000E+00 -0.81709067874E+02  0.81709067874E+02  0.00000000000E+00 0. -1.
         35    2    1    2    0    0  0.00000000000E+00  0.00000000000E+00  0.14829129705E+03  0.31170943280E+03  0.27417596852E+03 0.  0.
         25    1    3    3    0    0 -0.23351744103E+02  0.47422887018E+02  0.28685728731E+02  0.13422781082E+03  0.12000000000E+03 0.  0.
         25    1    3    3    0    0  0.23351744103E+02 -0.47422887018E+02  0.11960556832E+03  0.17748162198E+03  0.12000000000E+03 0.  0.
<mgrwt>
<rscale>  0 0.27417597E+03</rscale>
<asrwt>0</asrwt>
<pdfrwt beam="1">  1        2 0.35384671E-01 0.27417597E+03</pdfrwt>
<pdfrwt beam="2">  1       -2 0.12570626E-01 0.27417597E+03</pdfrwt>
<totfact> 0.66451544E+03</totfact>
</mgrwt>
</event>
<event>
 5    1  0.1162308E+001  0.2735785E+03  0.7818608E-02  0.1099249E+00
          2   -1    0    0  501    0  0.00000000000E+00  0.00000000000E+00  0.59271194833E+03  0.59271194833E+03  0.00000000000E+00 0. -1.
         -2   -1    0    0    0  501 -0.00000000000E+00 -0.00000000000E+00 -0.31568968789E+02  0.31568968789E+02  0.00000000000E+00 0. -1.
         35    2    1    2    0    0  0.00000000000E+00  0.00000000000E+00  0.56114297954E+03  0.62428091711E+03  0.27357854446E+03 0.  0.
         25    1    3    3    0    0 -0.26151491948E+02 -0.32404004006E+02  0.16472372127E+03  0.20800919296E+03  0.12000000000E+03 0.  0.
         25    1    3    3    0    0  0.26151491948E+02  0.32404004006E+02  0.39641925827E+03  0.41627172416E+03  0.12000000000E+03 0.  0.
<mgrwt>
<rscale>  0 0.27357854E+03</rscale>
<asrwt>0</asrwt>
<pdfrwt beam="1">  1        2 0.91186445E-01 0.27357854E+03</pdfrwt>
<pdfrwt beam="2">  1       -2 0.48567649E-02 0.27357854E+03</pdfrwt>
<totfact> 0.10423362E+04</totfact>
</mgrwt>
</event>
<event>
 5    1  0.1162308E+001  0.2748247E+03  0.7818608E-02  0.1098550E+00
          3   -1    0    0  501    0  0.00000000000E+00  0.00000000000E+00  0.11600987083E+03  0.11600987083E+03  0.00000000000E+00 0.  1.
         -3   -1    0    0    0  501 -0.00000000000E+00 -0.00000000000E+00 -0.16276338151E+03  0.16276338151E+03  0.00000000000E+00 0.  1.
         35    2    1    2    0    0  0.00000000000E+00  0.00000000000E+00 -0.46753510679E+02  0.27877325234E+03  0.27482473589E+03 0.  0.
         25    1    3    3    0    0 -0.33169423210E+02 -0.48868141378E+02  0.86016170913E+01  0.13402348188E+03  0.12000000000E+03 0.  0.
         25    1    3    3    0    0  0.33169423210E+02  0.48868141378E+02 -0.55355127770E+02  0.14474977046E+03  0.12000000000E+03 0.  0.
<mgrwt>
<rscale>  0 0.27482474E+03</rscale>
<asrwt>0</asrwt>
<pdfrwt beam="1">  1        3 0.17847673E-01 0.27482474E+03</pdfrwt>
<pdfrwt beam="2">  1       -3 0.25040520E-01 0.27482474E+03</pdfrwt>
<totfact> 0.10451595E+03</totfact>
</mgrwt>
</event>
<event>
 5    1  0.1162308E+001  0.2767768E+03  0.7818608E-02  0.1097463E+00
         -2   -1    0    0    0  501 -0.00000000000E+00  0.00000000000E+00  0.25793654871E+02  0.25793654871E+02  0.00000000000E+00 0. -1.
          2   -1    0    0  501    0  0.00000000000E+00 -0.00000000000E+00 -0.74248307343E+03  0.74248307343E+03  0.00000000000E+00 0. -1.
         35    2    1    2    0    0  0.00000000000E+00  0.00000000000E+00 -0.71668941856E+03  0.76827672830E+03  0.27677682088E+03 0.  0.
         25    1    3    3    0    0  0.51367939329E+02  0.30823272556E+02 -0.26369800067E+03  0.29584687742E+03  0.12000000000E+03 0.  0.
         25    1    3    3    0    0 -0.51367939329E+02 -0.30823272556E+02 -0.45299141789E+03  0.47242985089E+03  0.12000000000E+03 0.  0.
<mgrwt>
<rscale>  0 0.27677682E+03</rscale>
<asrwt>0</asrwt>
<pdfrwt beam="1">  1        2 0.11422816E+00 0.27677682E+03</pdfrwt>
<pdfrwt beam="2">  1       -2 0.39682546E-02 0.27677682E+03</pdfrwt>
<totfact> 0.10809473E+04</totfact>
</mgrwt>
</event>
<event>
 5    1  0.1162308E+001  0.2750478E+03  0.7818608E-02  0.1098425E+00
          2   -1    0    0  501    0  0.00000000000E+00  0.00000000000E+00  0.10703512915E+03  0.10703512915E+03  0.00000000000E+00 0. -1.
         -2   -1    0    0    0  501 -0.00000000000E+00 -0.00000000000E+00 -0.17669732705E+03  0.17669732705E+03  0.00000000000E+00 0. -1.
         35    2    1    2    0    0  0.00000000000E+00  0.00000000000E+00 -0.69662197893E+02  0.28373245620E+03  0.27504778655E+03 0.  0.
         25    1    3    3    0    0  0.60240475930E+02  0.24613953314E+02 -0.52032736686E+02  0.14608958664E+03  0.12000000000E+03 0.  0.
         25    1    3    3    0    0 -0.60240475930E+02 -0.24613953314E+02 -0.17629461207E+02  0.13764286956E+03  0.12000000000E+03 0.  0.
<mgrwt>
<rscale>  0 0.27504779E+03</rscale>
<asrwt>0</asrwt>
<pdfrwt beam="1">  1        2 0.16466943E-01 0.27504779E+03</pdfrwt>
<pdfrwt beam="2">  1       -2 0.27184204E-01 0.27504779E+03</pdfrwt>
<totfact> 0.42406747E+03</totfact>
</mgrwt>
</event>
<event>
 5    1  0.1162308E+001  0.2713112E+03  0.7818608E-02  0.1100531E+00
         -2   -1    0    0    0  501 -0.00000000000E+00  0.00000000000E+00  0.18335478848E+03  0.18335478848E+03  0.00000000000E+00 0.  1.
          2   -1    0    0  501    0  0.00000000000E+00 -0.00000000000E+00 -0.10036524534E+03  0.10036524534E+03  0.00000000000E+00 0.  1.
         35    2    1    2    0    0  0.00000000000E+00  0.00000000000E+00  0.82989543140E+02  0.28372003381E+03  0.27131124804E+03 0.  0.
         25    1    3    3    0    0 -0.23207068746E+02 -0.58792204094E+02  0.38658333051E+02  0.14103034431E+03  0.12000000000E+03 0.  0.
         25    1    3    3    0    0  0.23207068746E+02  0.58792204094E+02  0.44331210089E+02  0.14268968950E+03  0.12000000000E+03 0.  0.
<mgrwt>
<rscale>  0 0.27131125E+03</rscale>
<asrwt>0</asrwt>
<pdfrwt beam="1">  1        2 0.15440807E-01 0.27131125E+03</pdfrwt>
<pdfrwt beam="2">  1       -2 0.28208429E-01 0.27131125E+03</pdfrwt>
<totfact> 0.42787798E+03</totfact>
</mgrwt>
</event>
<event>
 5    1  0.1162308E+001  0.2747979E+03  0.7818608E-02  0.1098565E+00
          4   -1    0    0  501    0  0.00000000000E+00  0.00000000000E+00  0.51258253732E+02  0.51258253732E+02  0.00000000000E+00 0.  1.
         -4   -1    0    0    0  501 -0.00000000000E+00 -0.00000000000E+00 -0.36830101233E+03  0.36830101233E+03  0.00000000000E+00 0.  1.
         35    2    1    2    0    0  0.00000000000E+00  0.00000000000E+00 -0.31704275860E+03  0.41955926606E+03  0.27479786564E+03 0.  0.
         25    1    3    3    0    0 -0.87296390823E+01  0.62960822722E+02 -0.19048188502E+03  0.23393080241E+03  0.12000000000E+03 0.  0.
         25    1    3    3    0    0  0.87296390823E+01 -0.62960822722E+02 -0.12656087358E+03  0.18562846365E+03  0.12000000000E+03 0.  0.
<mgrwt>
<rscale>  0 0.27479787E+03</rscale>
<asrwt>0</asrwt>
<pdfrwt beam="1">  1        4 0.78858848E-02 0.27479787E+03</pdfrwt>
<pdfrwt beam="2">  1       -4 0.56661697E-01 0.27479787E+03</pdfrwt>
<totfact> 0.63428969E+02</totfact>
</mgrwt>
</event>
<event>
 5    1  0.1162308E+001  0.2749685E+03  0.7818608E-02  0.1098469E+00
         -2   -1    0    0    0  501 -0.00000000000E+00  0.00000000000E+00  0.50791501729E+02  0.50791501729E+02  0.00000000000E+00 0.  1.
          2   -1    0    0  501    0  0.00000000000E+00 -0.00000000000E+00 -0.37214723516E+03  0.37214723516E+03  0.00000000000E+00 0.  1.
         35    2    1    2    0    0  0.00000000000E+00  0.00000000000E+00 -0.32135573343E+03  0.42293873689E+03  0.27496848502E+03 0.  0.
         25    1    3    3    0    0 -0.60631336468E+02  0.50286683811E+01 -0.20419569366E+03  0.24453492138E+03  0.12000000000E+03 0.  0.
         25    1    3    3    0    0  0.60631336468E+02 -0.50286683811E+01 -0.11716003978E+03  0.17840381551E+03  0.12000000000E+03 0.  0.
<mgrwt>
<rscale>  0 0.27496849E+03</rscale>
<asrwt>0</asrwt>
<pdfrwt beam="1">  1        2 0.57253419E-01 0.27496849E+03</pdfrwt>
<pdfrwt beam="2">  1       -2 0.78140774E-02 0.27496849E+03</pdfrwt>
<totfact> 0.84193612E+03</totfact>
</mgrwt>
</event>
<event>
 5    1  0.1162308E+001  0.2755337E+03  0.7818608E-02  0.1098154E+00
         -2   -1    0    0    0  501 -0.00000000000E+00  0.00000000000E+00  0.25877052303E+02  0.25877052303E+02  0.00000000000E+00 0. -1.
          2   -1    0    0  501    0  0.00000000000E+00 -0.00000000000E+00 -0.73345681879E+03  0.73345681879E+03  0.00000000000E+00 0. -1.
         35    2    1    2    0    0  0.00000000000E+00  0.00000000000E+00 -0.70757976648E+03  0.75933387109E+03  0.27553366735E+03 0.  0.
         25    1    3    3    0    0  0.61515982275E+01 -0.30923018352E+01 -0.53932120184E+03  0.55255295063E+03  0.12000000000E+03 0.  0.
         25    1    3    3    0    0 -0.61515982275E+01  0.30923018352E+01 -0.16825856464E+03  0.20678092046E+03  0.12000000000E+03 0.  0.
<mgrwt>
<rscale>  0 0.27553367E+03</rscale>
<asrwt>0</asrwt>
<pdfrwt beam="1">  1        2 0.11283950E+00 0.27553367E+03</pdfrwt>
<pdfrwt beam="2">  1       -2 0.39810852E-02 0.27553367E+03</pdfrwt>
<totfact> 0.10919137E+04</totfact>
</mgrwt>
</event>
<event>
 5    1  0.1162308E+001  0.2749570E+03  0.7818608E-02  0.1098476E+00
         -2   -1    0    0    0  501 -0.00000000000E+00  0.00000000000E+00  0.67765381324E+02  0.67765381324E+02  0.00000000000E+00 0.  1.
          2   -1    0    0  501    0  0.00000000000E+00 -0.00000000000E+00 -0.27890836013E+03  0.27890836013E+03  0.00000000000E+00 0.  1.
         35    2    1    2    0    0  0.00000000000E+00  0.00000000000E+00 -0.21114297881E+03  0.34667374146E+03  0.27495695211E+03 0.  0.
         25    1    3    3    0    0 -0.64780871407E+02 -0.15051732194E+02 -0.94492291801E+02  0.16658904271E+03  0.12000000000E+03 0.  0.
         25    1    3    3    0    0  0.64780871407E+02  0.15051732194E+02 -0.11665068701E+03  0.18008469874E+03  0.12000000000E+03 0.  0.
<mgrwt>
<rscale>  0 0.27495695E+03</rscale>
<asrwt>0</asrwt>
<pdfrwt beam="1">  1        2 0.42908978E-01 0.27495695E+03</pdfrwt>
<pdfrwt beam="2">  1       -2 0.10425443E-01 0.27495695E+03</pdfrwt>
<totfact> 0.72911630E+03</totfact>
</mgrwt>
</event>
<event>
 5    1  0.1162308E+001  0.2749612E+03  0.7818608E-02  0.1098473E+00
         -2   -1    0    0    0  501 -0.00000000000E+00  0.00000000000E+00  0.16233265500E+03  0.16233265500E+03  0.00000000000E+00 0.  1.
          2   -1    0    0  501    0  0.00000000000E+00 -0.00000000000E+00 -0.11643324866E+03  0.11643324866E+03  0.00000000000E+00 0.  1.
         35    2    1    2    0    0  0.00000000000E+00  0.00000000000E+00  0.45899406333E+02  0.27876590366E+03  0.27496122189E+03 0.  0.
         25    1    3    3    0    0 -0.64888332642E+02 -0.43622314304E+01  0.39651685218E+02  0.14213296914E+03  0.12000000000E+03 0.  0.
         25    1    3    3    0    0  0.64888332642E+02  0.43622314304E+01  0.62477211156E+01  0.13663293452E+03  0.12000000000E+03 0.  0.
<mgrwt>
<rscale>  0 0.27496122E+03</rscale>
<asrwt>0</asrwt>
<pdfrwt beam="1">  1        2 0.17912807E-01 0.27496122E+03</pdfrwt>
<pdfrwt beam="2">  1       -2 0.24974255E-01 0.27496122E+03</pdfrwt>
<totfact> 0.44686042E+03</totfact>
</mgrwt>
</event>
<event>
 5    1  0.1162308E+001  0.2759047E+03  0.7818608E-02  0.1097947E+00
         -2   -1    0    0    0  501 -0.00000000000E+00  0.00000000000E+00  0.28317770279E+02  0.28317770279E+02  0.00000000000E+00 0. -1.
          2   -1    0    0  501    0  0.00000000000E+00 -0.00000000000E+00 -0.67204641607E+03  0.67204641607E+03  0.00000000000E+00 0. -1.
         35    2    1    2    0    0  0.00000000000E+00  0.00000000000E+00 -0.64372864579E+03  0.70036418635E+03  0.27590473738E+03 0.  0.
         25    1    3    3    0    0 -0.23041516417E+02  0.46050488113E+02 -0.43479716708E+03  0.45398252768E+03  0.12000000000E+03 0.  0.
         25    1    3    3    0    0  0.23041516417E+02 -0.46050488113E+02 -0.20893147871E+03  0.24638165867E+03  0.12000000000E+03 0.  0.
<mgrwt>
<rscale>  0 0.27590474E+03</rscale>
<asrwt>0</asrwt>
<pdfrwt beam="1">  1        2 0.10339174E+00 0.27590474E+03</pdfrwt>
<pdfrwt beam="2">  1       -2 0.43565809E-02 0.27590474E+03</pdfrwt>
<totfact> 0.10601407E+04</totfact>
</mgrwt>
</event>
<event>
 5    1  0.1162308E+001  0.2739480E+03  0.7818608E-02  0.1099041E+00
         -2   -1    0    0    0  501 -0.00000000000E+00  0.00000000000E+00  0.44190722358E+02  0.44190722358E+02  0.00000000000E+00 0. -1.
          2   -1    0    0  501    0  0.00000000000E+00 -0.00000000000E+00 -0.42456584288E+03  0.42456584288E+03  0.00000000000E+00 0. -1.
         35    2    1    2    0    0  0.00000000000E+00  0.00000000000E+00 -0.38037512052E+03  0.46875656524E+03  0.27394796065E+03 0.  0.
         25    1    3    3    0    0 -0.65869642878E+02  0.47986574952E+01 -0.19050455048E+03  0.23463550610E+03  0.12000000000E+03 0.  0.
         25    1    3    3    0    0  0.65869642878E+02 -0.47986574952E+01 -0.18987057004E+03  0.23412105914E+03  0.12000000000E+03 0.  0.
<mgrwt>
<rscale>  0 0.27394796E+03</rscale>
<asrwt>0</asrwt>
<pdfrwt beam="1">  1        2 0.65317825E-01 0.27394796E+03</pdfrwt>
<pdfrwt beam="2">  1       -2 0.67985724E-02 0.27394796E+03</pdfrwt>
<totfact> 0.90552028E+03</totfact>
</mgrwt>
</event>
<event>
 5    1  0.1162308E+001  0.2738962E+03  0.7818608E-02  0.1099070E+00
          1   -1    0    0  501    0  0.00000000000E+00  0.00000000000E+00  0.55169330953E+03  0.55169330953E+03  0.00000000000E+00 0. -1.
         -1   -1    0    0    0  501 -0.00000000000E+00 -0.00000000000E+00 -0.33994950166E+02  0.33994950166E+02  0.00000000000E+00 0. -1.
         35    2    1    2    0    0  0.00000000000E+00  0.00000000000E+00  0.51769835937E+03  0.58568825970E+03  0.27389623265E+03 0.  0.
         25    1    3    3    0    0 -0.42165230671E+02 -0.54881565202E+01  0.36676235507E+03  0.38823015292E+03  0.12000000000E+03 0.  0.
         25    1    3    3    0    0  0.42165230671E+02  0.54881565202E+01  0.15093600429E+03  0.19745810677E+03  0.12000000000E+03 0.  0.
<mgrwt>
<rscale>  0 0.27389623E+03</rscale>
<asrwt>0</asrwt>
<pdfrwt beam="1">  1        1 0.84875887E-01 0.27389623E+03</pdfrwt>
<pdfrwt beam="2">  1       -1 0.52299927E-02 0.27389623E+03</pdfrwt>
<totfact> 0.64701019E+03</totfact>
</mgrwt>
</event>
<event>
 5    1  0.1162308E+001  0.2749784E+03  0.7818608E-02  0.1098464E+00
         -2   -1    0    0    0  501 -0.00000000000E+00  0.00000000000E+00  0.43918813028E+02  0.43918813028E+02  0.00000000000E+00 0. -1.
          2   -1    0    0  501    0  0.00000000000E+00 -0.00000000000E+00 -0.43041422856E+03  0.43041422856E+03  0.00000000000E+00 0. -1.
         35    2    1    2    0    0  0.00000000000E+00  0.00000000000E+00 -0.38649541554E+03  0.47433304159E+03  0.27497841391E+03 0.  0.
         25    1    3    3    0    0  0.18184913388E+02 -0.16850542792E+02 -0.85679430665E+02  0.14951788089E+03  0.12000000000E+03 0.  0.
         25    1    3    3    0    0 -0.18184913388E+02  0.16850542792E+02 -0.30081598487E+03  0.32481516070E+03  0.12000000000E+03 0.  0.
<mgrwt>
<rscale>  0 0.27497841E+03</rscale>
<asrwt>0</asrwt>
<pdfrwt beam="1">  1        2 0.66217576E-01 0.27497841E+03</pdfrwt>
<pdfrwt beam="2">  1       -2 0.67567403E-02 0.27497841E+03</pdfrwt>
<totfact> 0.90074698E+03</totfact>
</mgrwt>
</event>
<event>
 5    1  0.1162308E+001  0.2751656E+03  0.7818608E-02  0.1098359E+00
          2   -1    0    0  501    0  0.00000000000E+00  0.00000000000E+00  0.27599496358E+03  0.27599496358E+03  0.00000000000E+00 0.  1.
         -2   -1    0    0    0  501 -0.00000000000E+00 -0.00000000000E+00 -0.68584700810E+02  0.68584700810E+02  0.00000000000E+00 0.  1.
         35    2    1    2    0    0  0.00000000000E+00  0.00000000000E+00  0.20741026277E+03  0.34457966439E+03  0.27516563741E+03 0.  0.
         25    1    3    3    0    0  0.36524535897E+02  0.56485899679E+02  0.10631194933E+03  0.17385893464E+03  0.12000000000E+03 0.  0.
         25    1    3    3    0    0 -0.36524535897E+02 -0.56485899679E+02  0.10109831344E+03  0.17072072975E+03  0.12000000000E+03 0.  0.
<mgrwt>
<rscale>  0 0.27516564E+03</rscale>
<asrwt>0</asrwt>
<pdfrwt beam="1">  1        2 0.42460763E-01 0.27516564E+03</pdfrwt>
<pdfrwt beam="2">  1       -2 0.10551493E-01 0.27516564E+03</pdfrwt>
<totfact> 0.72341470E+03</totfact>
</mgrwt>
</event>
<event>
 5    1  0.1162308E+001  0.2765372E+03  0.7818608E-02  0.1097595E+00
          1   -1    0    0  501    0  0.00000000000E+00  0.00000000000E+00  0.81881389680E+03  0.81881389680E+03  0.00000000000E+00 0.  1.
         -1   -1    0    0    0  501 -0.00000000000E+00 -0.00000000000E+00 -0.23348658730E+02  0.23348658730E+02  0.00000000000E+00 0.  1.
         35    2    1    2    0    0  0.00000000000E+00  0.00000000000E+00  0.79546523807E+03  0.84216255553E+03  0.27653720357E+03 0.  0.
         25    1    3    3    0    0  0.39821014733E+02  0.23244996078E+02  0.55278324717E+03  0.56753445834E+03  0.12000000000E+03 0.  0.
         25    1    3    3    0    0 -0.39821014733E+02 -0.23244996078E+02  0.24268199091E+03  0.27462809719E+03  0.12000000000E+03 0.  0.
<mgrwt>
<rscale>  0 0.27653720E+03</rscale>
<asrwt>0</asrwt>
<pdfrwt beam="1">  1        1 0.12597135E+00 0.27653720E+03</pdfrwt>
<pdfrwt beam="2">  1       -1 0.35921020E-02 0.27653720E+03</pdfrwt>
<totfact> 0.64051308E+03</totfact>
</mgrwt>
</event>
<event>
 5    1  0.1162308E+001  0.2764919E+03  0.7818608E-02  0.1097621E+00
         -4   -1    0    0    0  501 -0.00000000000E+00  0.00000000000E+00  0.54329545048E+03  0.54329545048E+03  0.00000000000E+00 0. -1.
          4   -1    0    0  501    0  0.00000000000E+00 -0.00000000000E+00 -0.35177806322E+02  0.35177806322E+02  0.00000000000E+00 0. -1.
         35    2    1    2    0    0  0.00000000000E+00  0.00000000000E+00  0.50811764416E+03  0.57847325680E+03  0.27649189596E+03 0.  0.
         25    1    3    3    0    0  0.53945637906E+02 -0.39567264146E+00  0.34286364277E+03  0.36724074656E+03  0.12000000000E+03 0.  0.
         25    1    3    3    0    0 -0.53945637906E+02  0.39567264146E+00  0.16525400139E+03  0.21123251024E+03  0.12000000000E+03 0.  0.
<mgrwt>
<rscale>  0 0.27649190E+03</rscale>
<asrwt>0</asrwt>
<pdfrwt beam="1">  1        4 0.54119706E-02 0.27649190E+03</pdfrwt>
<pdfrwt beam="2">  1       -4 0.83583909E-01 0.27649190E+03</pdfrwt>
<totfact> 0.50692359E+02</totfact>
</mgrwt>
</event>
<event>
 5    1  0.1162308E+001  0.2753511E+03  0.7818608E-02  0.1098256E+00
          2   -1    0    0  501    0  0.00000000000E+00  0.00000000000E+00  0.50623309407E+03  0.50623309407E+03  0.00000000000E+00 0. -1.
         -2   -1    0    0    0  501 -0.00000000000E+00 -0.00000000000E+00 -0.37442343395E+02  0.37442343395E+02  0.00000000000E+00 0. -1.
         35    2    1    2    0    0  0.00000000000E+00  0.00000000000E+00  0.46879075067E+03  0.54367543746E+03  0.27535107297E+03 0.  0.
         25    1    3    3    0    0 -0.17719014556E+02  0.59278880357E+01  0.10635139175E+03  0.16143023837E+03  0.12000000000E+03 0.  0.
         25    1    3    3    0    0  0.17719014556E+02 -0.59278880357E+01  0.36243935892E+03  0.38224519909E+03  0.12000000000E+03 0.  0.
<mgrwt>
<rscale>  0 0.27535107E+03</rscale>
<asrwt>0</asrwt>
<pdfrwt beam="1">  1        2 0.77882009E-01 0.27535107E+03</pdfrwt>
<pdfrwt beam="2">  1       -2 0.57603609E-02 0.27535107E+03</pdfrwt>
<totfact> 0.96196656E+03</totfact>
</mgrwt>
</event>
<event>
 5    1  0.1162308E+001  0.2749200E+03  0.7818608E-02  0.1098496E+00
         -1   -1    0    0    0  501 -0.00000000000E+00  0.00000000000E+00  0.13606580204E+03  0.13606580204E+03  0.00000000000E+00 0. -1.
          1   -1    0    0  501    0  0.00000000000E+00 -0.00000000000E+00 -0.13886850149E+03  0.13886850149E+03  0.00000000000E+00 0. -1.
         35    2    1    2    0    0  0.00000000000E+00  0.00000000000E+00 -0.28026994523E+01  0.27493430353E+03  0.27492001770E+03 0.  0.
         25    1    3    3    0    0  0.16012997706E+02 -0.40174298363E+02 -0.52637435553E+02  0.13798945600E+03  0.12000000000E+03 0.  0.
         25    1    3    3    0    0 -0.16012997706E+02  0.40174298363E+02  0.49834736101E+02  0.13694484754E+03  0.12000000000E+03 0.  0.
<mgrwt>
<rscale>  0 0.27492002E+03</rscale>
<asrwt>0</asrwt>
<pdfrwt beam="1">  1        1 0.21364385E-01 0.27492002E+03</pdfrwt>
<pdfrwt beam="2">  1       -1 0.20933200E-01 0.27492002E+03</pdfrwt>
<totfact> 0.43567829E+03</totfact>
</mgrwt>
</event>
<event>
 5    1  0.1162308E+001  0.2742053E+03  0.7818608E-02  0.1098897E+00
          1   -1    0    0  501    0  0.00000000000E+00  0.00000000000E+00  0.10627563849E+04  0.10627563849E+04  0.00000000000E+00 0. -1.
         -1   -1    0    0    0  501 -0.00000000000E+00 -0.00000000000E+00 -0.17687160829E+02  0.17687160829E+02  0.00000000000E+00 0. -1.
         35    2    1    2    0    0  0.00000000000E+00  0.00000000000E+00  0.10450692241E+04  0.10804435457E+04  0.27420534716E+03 0.  0.
         25    1    3    3    0    0  0.28651985716E+02  0.27563484444E+02  0.73164617201E+03  0.74248690425E+03  0.12000000000E+03 0.  0.
         25    1    3    3    0    0 -0.28651985716E+02 -0.27563484444E+02  0.31342305208E+03  0.33795664150E+03  0.12000000000E+03 0.  0.
<mgrwt>
<rscale>  0 0.27420535E+03</rscale>
<asrwt>0</asrwt>
<pdfrwt beam="1">  1        1 0.16350093E+00 0.27420535E+03</pdfrwt>
<pdfrwt beam="2">  1       -1 0.27211025E-02 0.27420535E+03</pdfrwt>
<totfact> 0.62554655E+03</totfact>
</mgrwt>
</event>
<event>
 5    1  0.1162308E+001  0.2763433E+03  0.7818608E-02  0.1097703E+00
          2   -1    0    0  501    0  0.00000000000E+00  0.00000000000E+00  0.84192658632E+03  0.84192658632E+03  0.00000000000E+00 0. -1.
         -2   -1    0    0    0  501 -0.00000000000E+00 -0.00000000000E+00 -0.22675847611E+02  0.22675847611E+02  0.00000000000E+00 0. -1.
         35    2    1    2    0    0  0.00000000000E+00  0.00000000000E+00  0.81925073871E+03  0.86460243393E+03  0.27634325735E+03 0.  0.
         25    1    3    3    0    0 -0.61407850367E+02  0.20308372154E+02  0.33910434184E+03  0.36547928631E+03  0.12000000000E+03 0.  0.
         25    1    3    3    0    0  0.61407850367E+02 -0.20308372154E+02  0.48014639686E+03  0.49912314762E+03  0.12000000000E+03 0.  0.
<mgrwt>
<rscale>  0 0.27634326E+03</rscale>
<asrwt>0</asrwt>
<pdfrwt beam="1">  1        2 0.12952714E+00 0.27634326E+03</pdfrwt>
<pdfrwt beam="2">  1       -2 0.34885926E-02 0.27634326E+03</pdfrwt>
<totfact> 0.11181420E+04</totfact>
</mgrwt>
</event>
<event>
 5    1  0.1162308E+001  0.2751321E+03  0.7818608E-02  0.1098378E+00
          2   -1    0    0  501    0  0.00000000000E+00  0.00000000000E+00  0.76929603047E+03  0.76929603047E+03  0.00000000000E+00 0. -1.
         -2   -1    0    0    0  501 -0.00000000000E+00 -0.00000000000E+00 -0.24599664238E+02  0.24599664238E+02  0.00000000000E+00 0. -1.
         35    2    1    2    0    0  0.00000000000E+00  0.00000000000E+00  0.74469636624E+03  0.79389569471E+03  0.27513214316E+03 0.  0.
         25    1    3    3    0    0 -0.58375741306E+02 -0.33193271730E+02  0.36120863599E+03  0.38649864058E+03  0.12000000000E+03 0.  0.
         25    1    3    3    0    0  0.58375741306E+02  0.33193271730E+02  0.38348773025E+03  0.40739705413E+03  0.12000000000E+03 0.  0.
<mgrwt>
<rscale>  0 0.27513214E+03</rscale>
<asrwt>0</asrwt>
<pdfrwt beam="1">  1        2 0.11835322E+00 0.27513214E+03</pdfrwt>
<pdfrwt beam="2">  1       -2 0.37845643E-02 0.27513214E+03</pdfrwt>
<totfact> 0.11103061E+04</totfact>
</mgrwt>
</event>
<event>
 5    1  0.1162308E+001  0.2752289E+03  0.7818608E-02  0.1098324E+00
          2   -1    0    0  501    0  0.00000000000E+00  0.00000000000E+00  0.12842811153E+03  0.12842811153E+03  0.00000000000E+00 0. -1.
         -2   -1    0    0    0  501 -0.00000000000E+00 -0.00000000000E+00 -0.14745785958E+03  0.14745785958E+03  0.00000000000E+00 0. -1.
         35    2    1    2    0    0  0.00000000000E+00  0.00000000000E+00 -0.19029748047E+02  0.27588597112E+03  0.27522888247E+03 0.  0.
         25    1    3    3    0    0 -0.65078484854E+02 -0.13716308890E+02 -0.20235646143E+02  0.13868247076E+03  0.12000000000E+03 0.  0.
         25    1    3    3    0    0  0.65078484854E+02  0.13716308890E+02  0.12058980958E+01  0.13720350036E+03  0.12000000000E+03 0.  0.
<mgrwt>
<rscale>  0 0.27522888E+03</rscale>
<asrwt>0</asrwt>
<pdfrwt beam="1">  1        2 0.19758171E-01 0.27522888E+03</pdfrwt>
<pdfrwt beam="2">  1       -2 0.22685824E-01 0.27522888E+03</pdfrwt>
<totfact> 0.47226305E+03</totfact>
</mgrwt>
</event>
<event>
 5    1  0.1162308E+001  0.2747265E+03  0.7818608E-02  0.1098605E+00
         -2   -1    0    0    0  501 -0.00000000000E+00  0.00000000000E+00  0.20314820993E+03  0.20314820993E+03  0.00000000000E+00 0.  1.
          2   -1    0    0  501    0  0.00000000000E+00 -0.00000000000E+00 -0.92881288160E+02  0.92881288160E+02  0.00000000000E+00 0.  1.
         35    2    1    2    0    0  0.00000000000E+00  0.00000000000E+00  0.11026692177E+03  0.29602949809E+03  0.27472653622E+03 0.  0.
         25    1    3    3    0    0  0.54399562523E+02 -0.14938558722E+02  0.93777961551E+02  0.16240929472E+03  0.12000000000E+03 0.  0.
         25    1    3    3    0    0 -0.54399562523E+02  0.14938558722E+02  0.16488960220E+02  0.13362020337E+03  0.12000000000E+03 0.  0.
<mgrwt>
<rscale>  0 0.27472654E+03</rscale>
<asrwt>0</asrwt>
<pdfrwt beam="1">  1        2 0.14289429E-01 0.27472654E+03</pdfrwt>
<pdfrwt beam="2">  1       -2 0.31253570E-01 0.27472654E+03</pdfrwt>
<totfact> 0.38969100E+03</totfact>
</mgrwt>
</event>
<event>
 5    1  0.1162308E+001  0.2746192E+03  0.7818608E-02  0.1098665E+00
         -1   -1    0    0    0  501 -0.00000000000E+00  0.00000000000E+00  0.42442316353E+03  0.42442316353E+03  0.00000000000E+00 0.  1.
          1   -1    0    0  501    0  0.00000000000E+00 -0.00000000000E+00 -0.44422481611E+02  0.44422481611E+02  0.00000000000E+00 0.  1.
         35    2    1    2    0    0  0.00000000000E+00  0.00000000000E+00  0.38000068192E+03  0.46884564514E+03  0.27461922859E+03 0.  0.
         25    1    3    3    0    0 -0.52351857635E+02  0.41304971639E+02  0.19455347048E+03  0.23811314654E+03  0.12000000000E+03 0.  0.
         25    1    3    3    0    0  0.52351857635E+02 -0.41304971639E+02  0.18544721144E+03  0.23073249860E+03  0.12000000000E+03 0.  0.
<mgrwt>
<rscale>  0 0.27461923E+03</rscale>
<asrwt>0</asrwt>
<pdfrwt beam="1">  1        1 0.68342282E-02 0.27461923E+03</pdfrwt>
<pdfrwt beam="2">  1       -1 0.65295869E-01 0.27461923E+03</pdfrwt>
<totfact> 0.26514607E+03</totfact>
</mgrwt>
</event>
<event>
 5    1  0.1162308E+001  0.2749047E+03  0.7818608E-02  0.1098505E+00
         -2   -1    0    0    0  501 -0.00000000000E+00  0.00000000000E+00  0.18108784539E+02  0.18108784539E+02  0.00000000000E+00 0.  1.
          2   -1    0    0  501    0  0.00000000000E+00 -0.00000000000E+00 -0.10433137202E+04  0.10433137202E+04  0.00000000000E+00 0.  1.
         35    2    1    2    0    0  0.00000000000E+00  0.00000000000E+00 -0.10252049356E+04  0.10614225047E+04  0.27490466249E+03 0.  0.
         25    1    3    3    0    0 -0.31590025120E+02  0.43285776840E+02 -0.66808158091E+03  0.68088514958E+03  0.12000000000E+03 0.  0.
         25    1    3    3    0    0  0.31590025120E+02 -0.43285776840E+02 -0.35712335473E+03  0.38053735514E+03  0.12000000000E+03 0.  0.
<mgrwt>
<rscale>  0 0.27490466E+03</rscale>
<asrwt>0</asrwt>
<pdfrwt beam="1">  1        2 0.16050985E+00 0.27490466E+03</pdfrwt>
<pdfrwt beam="2">  1       -2 0.27859661E-02 0.27490466E+03</pdfrwt>
<totfact> 0.11658914E+04</totfact>
</mgrwt>
</event>
<event>
 5    1  0.1162308E+001  0.2747352E+03  0.7818608E-02  0.1098600E+00
         -1   -1    0    0    0  501 -0.00000000000E+00  0.00000000000E+00  0.17624399660E+03  0.17624399660E+03  0.00000000000E+00 0.  1.
          1   -1    0    0  501    0  0.00000000000E+00 -0.00000000000E+00 -0.10706670290E+03  0.10706670290E+03  0.00000000000E+00 0.  1.
         35    2    1    2    0    0  0.00000000000E+00  0.00000000000E+00  0.69177293699E+02  0.28331069949E+03  0.27473524434E+03 0.  0.
         25    1    3    3    0    0  0.93856394139E+01 -0.30330644177E+02  0.95262444823E+02  0.15647035373E+03  0.12000000000E+03 0.  0.
         25    1    3    3    0    0 -0.93856394139E+01  0.30330644177E+02 -0.26085151124E+02  0.12684034576E+03  0.12000000000E+03 0.  0.
<mgrwt>
<rscale>  0 0.27473524E+03</rscale>
<asrwt>0</asrwt>
<pdfrwt beam="1">  1        1 0.16471800E-01 0.27473524E+03</pdfrwt>
<pdfrwt beam="2">  1       -1 0.27114461E-01 0.27473524E+03</pdfrwt>
<totfact> 0.39749879E+03</totfact>
</mgrwt>
</event>
<event>
 5    1  0.1162308E+001  0.2758750E+03  0.7818608E-02  0.1097963E+00
         -2   -1    0    0    0  501 -0.00000000000E+00  0.00000000000E+00  0.16004492143E+03  0.16004492143E+03  0.00000000000E+00 0.  1.
          2   -1    0    0  501    0  0.00000000000E+00 -0.00000000000E+00 -0.11888383184E+03  0.11888383184E+03  0.00000000000E+00 0.  1.
         35    2    1    2    0    0  0.00000000000E+00  0.00000000000E+00  0.41161089597E+02  0.27892875327E+03  0.27587499725E+03 0.  0.
         25    1    3    3    0    0  0.20395093404E+02 -0.29371722745E+02 -0.37922688451E+02  0.13083114397E+03  0.12000000000E+03 0.  0.
         25    1    3    3    0    0 -0.20395093404E+02  0.29371722745E+02  0.79083778048E+02  0.14809760931E+03  0.12000000000E+03 0.  0.
<mgrwt>
<rscale>  0 0.27587500E+03</rscale>
<asrwt>0</asrwt>
<pdfrwt beam="1">  1        2 0.18289820E-01 0.27587500E+03</pdfrwt>
<pdfrwt beam="2">  1       -2 0.24622296E-01 0.27587500E+03</pdfrwt>
<totfact> 0.44729769E+03</totfact>
</mgrwt>
</event>
<event>
 5    1  0.1162308E+001  0.2752374E+03  0.7818608E-02  0.1098319E+00
         -4   -1    0    0    0  501 -0.00000000000E+00  0.00000000000E+00  0.13859364271E+03  0.13859364271E+03  0.00000000000E+00 0. -1.
          4   -1    0    0  501    0  0.00000000000E+00 -0.00000000000E+00 -0.13665062528E+03  0.13665062528E+03  0.00000000000E+00 0. -1.
         35    2    1    2    0    0  0.00000000000E+00  0.00000000000E+00  0.19430174272E+01  0.27524426799E+03  0.27523740978E+03 0.  0.
         25    1    3    3    0    0 -0.20088347877E+02 -0.15235974183E+01  0.65261872212E+02  0.13807597559E+03  0.12000000000E+03 0.  0.
         25    1    3    3    0    0  0.20088347877E+02  0.15235974183E+01 -0.63318854784E+02  0.13716829240E+03  0.12000000000E+03 0.  0.
<mgrwt>
<rscale>  0 0.27523741E+03</rscale>
<asrwt>0</asrwt>
<pdfrwt beam="1">  1        4 0.21023173E-01 0.27523741E+03</pdfrwt>
<pdfrwt beam="2">  1       -4 0.21322099E-01 0.27523741E+03</pdfrwt>
<totfact> 0.77626750E+02</totfact>
</mgrwt>
</event>
<event>
 5    1  0.1162308E+001  0.2749903E+03  0.7818608E-02  0.1098457E+00
         -2   -1    0    0    0  501 -0.00000000000E+00  0.00000000000E+00  0.50451767131E+02  0.50451767131E+02  0.00000000000E+00 0.  1.
          2   -1    0    0  501    0  0.00000000000E+00 -0.00000000000E+00 -0.37471268145E+03  0.37471268145E+03  0.00000000000E+00 0.  1.
         35    2    1    2    0    0  0.00000000000E+00  0.00000000000E+00 -0.32426091432E+03  0.42516444858E+03  0.27499030489E+03 0.  0.
         25    1    3    3    0    0  0.55767031179E+02 -0.23296268970E+02 -0.11699474803E+03  0.17815849399E+03  0.12000000000E+03 0.  0.
         25    1    3    3    0    0 -0.55767031179E+02  0.23296268970E+02 -0.20726616628E+03  0.24700595459E+03  0.12000000000E+03 0.  0.
<mgrwt>
<rscale>  0 0.27499030E+03</rscale>
<asrwt>0</asrwt>
<pdfrwt beam="1">  1        2 0.57648106E-01 0.27499030E+03</pdfrwt>
<pdfrwt beam="2">  1       -2 0.77618102E-02 0.27499030E+03</pdfrwt>
<totfact> 0.84449949E+03</totfact>
</mgrwt>
</event>
<event>
 5    1  0.1162308E+001  0.2753531E+03  0.7818608E-02  0.1098254E+00
         -3   -1    0    0    0  501 -0.00000000000E+00  0.00000000000E+00  0.28334586778E+03  0.28334586778E+03  0.00000000000E+00 0. -1.
          3   -1    0    0  501    0  0.00000000000E+00 -0.00000000000E+00 -0.66896429201E+02  0.66896429201E+02  0.00000000000E+00 0. -1.
         35    2    1    2    0    0  0.00000000000E+00  0.00000000000E+00  0.21644943858E+03  0.35024229698E+03  0.27535305906E+03 0.  0.
         25    1    3    3    0    0  0.16033884977E+02  0.41735096399E+02  0.17253087882E+03  0.21486229982E+03  0.12000000000E+03 0.  0.
         25    1    3    3    0    0 -0.16033884977E+02 -0.41735096399E+02  0.43918559761E+02  0.13537999716E+03  0.12000000000E+03 0.  0.
<mgrwt>
<rscale>  0 0.27535306E+03</rscale>
<asrwt>0</asrwt>
<pdfrwt beam="1">  1        3 0.10291758E-01 0.27535306E+03</pdfrwt>
<pdfrwt beam="2">  1       -3 0.43591671E-01 0.27535306E+03</pdfrwt>
<totfact> 0.93863946E+02</totfact>
</mgrwt>
</event>
<event>
 5    1  0.1162308E+001  0.2762359E+03  0.7818608E-02  0.1097763E+00
         -2   -1    0    0    0  501 -0.00000000000E+00  0.00000000000E+00  0.19164090866E+02  0.19164090866E+02  0.00000000000E+00 0. -1.
          2   -1    0    0  501    0  0.00000000000E+00 -0.00000000000E+00 -0.99543324259E+03  0.99543324259E+03  0.00000000000E+00 0. -1.
         35    2    1    2    0    0  0.00000000000E+00  0.00000000000E+00 -0.97626915173E+03  0.10145973335E+04  0.27623593620E+03 0.  0.
         25    1    3    3    0    0 -0.58028296402E+02  0.22259278024E+02 -0.59291405714E+03  0.60811992058E+03  0.12000000000E+03 0.  0.
         25    1    3    3    0    0  0.58028296402E+02 -0.22259278024E+02 -0.38335509458E+03  0.40647741288E+03  0.12000000000E+03 0.  0.
<mgrwt>
<rscale>  0 0.27623594E+03</rscale>
<asrwt>0</asrwt>
<pdfrwt beam="1">  1        2 0.15314359E+00 0.27623594E+03</pdfrwt>
<pdfrwt beam="2">  1       -2 0.29483214E-02 0.27623594E+03</pdfrwt>
<totfact> 0.11461546E+04</totfact>
</mgrwt>
</event>
<event>
 5    1  0.1162308E+001  0.2680789E+03  0.7818608E-02  0.1102384E+00
          1   -1    0    0  501    0  0.00000000000E+00  0.00000000000E+00  0.62914638869E+02  0.62914638869E+02  0.00000000000E+00 0.  1.
         -1   -1    0    0    0  501 -0.00000000000E+00 -0.00000000000E+00 -0.28557060467E+03  0.28557060467E+03  0.00000000000E+00 0.  1.
         35    2    1    2    0    0  0.00000000000E+00  0.00000000000E+00 -0.22265596580E+03  0.34848524354E+03  0.26807887992E+03 0.  0.
         25    1    3    3    0    0 -0.57858377282E+02  0.10469025247E+02 -0.12492329152E+03  0.18292900556E+03  0.12000000000E+03 0.  0.
         25    1    3    3    0    0  0.57858377282E+02 -0.10469025247E+02 -0.97732674276E+02  0.16555623798E+03  0.12000000000E+03 0.  0.
<mgrwt>
<rscale>  0 0.26807888E+03</rscale>
<asrwt>0</asrwt>
<pdfrwt beam="1">  1        1 0.96791753E-02 0.26807888E+03</pdfrwt>
<pdfrwt beam="2">  1       -1 0.43933939E-01 0.26807888E+03</pdfrwt>
<totfact> 0.34762638E+03</totfact>
</mgrwt>
</event>
<event>
 5    1  0.1162308E+001  0.2747387E+03  0.7818608E-02  0.1098598E+00
         -1   -1    0    0    0  501 -0.00000000000E+00  0.00000000000E+00  0.48137263161E+02  0.48137263161E+02  0.00000000000E+00 0. -1.
          1   -1    0    0  501    0  0.00000000000E+00 -0.00000000000E+00 -0.39201104299E+03  0.39201104299E+03  0.00000000000E+00 0. -1.
         35    2    1    2    0    0  0.00000000000E+00  0.00000000000E+00 -0.34387377983E+03  0.44014830615E+03  0.27473870305E+03 0.  0.
         25    1    3    3    0    0 -0.39295422716E+02 -0.53077701403E+02 -0.18866030258E+03  0.23313961997E+03  0.12000000000E+03 0.  0.
         25    1    3    3    0    0  0.39295422716E+02  0.53077701403E+02 -0.15521347725E+03  0.20700868618E+03  0.12000000000E+03 0.  0.
<mgrwt>
<rscale>  0 0.27473870E+03</rscale>
<asrwt>0</asrwt>
<pdfrwt beam="1">  1        1 0.60309388E-01 0.27473870E+03</pdfrwt>
<pdfrwt beam="2">  1       -1 0.74057331E-02 0.27473870E+03</pdfrwt>
<totfact> 0.59930485E+03</totfact>
</mgrwt>
</event>
<event>
 5    1  0.1162308E+001  0.2752238E+03  0.7818608E-02  0.1098327E+00
         -1   -1    0    0    0  501 -0.00000000000E+00  0.00000000000E+00  0.16304096099E+03  0.16304096099E+03  0.00000000000E+00 0. -1.
          1   -1    0    0  501    0  0.00000000000E+00 -0.00000000000E+00 -0.11614895626E+03  0.11614895626E+03  0.00000000000E+00 0. -1.
         35    2    1    2    0    0  0.00000000000E+00  0.00000000000E+00  0.46892004732E+02  0.27918991725E+03  0.27522381763E+03 0.  0.
         25    1    3    3    0    0 -0.11758248400E+02  0.24670024607E+02 -0.39005532056E+02  0.12910576304E+03  0.12000000000E+03 0.  0.
         25    1    3    3    0    0  0.11758248400E+02 -0.24670024607E+02  0.85897536788E+02  0.15008415421E+03  0.12000000000E+03 0.  0.
<mgrwt>
<rscale>  0 0.27522382E+03</rscale>
<asrwt>0</asrwt>
<pdfrwt beam="1">  1        1 0.17869070E-01 0.27522382E+03</pdfrwt>
<pdfrwt beam="2">  1       -1 0.25083225E-01 0.27522382E+03</pdfrwt>
<totfact> 0.40725703E+03</totfact>
</mgrwt>
</event>
<event>
 5    1  0.1162308E+001  0.2749259E+03  0.7818608E-02  0.1098493E+00
          1   -1    0    0  501    0  0.00000000000E+00  0.00000000000E+00  0.18563485415E+04  0.18563485415E+04  0.00000000000E+00 0.  1.
         -1   -1    0    0    0  501 -0.00000000000E+00 -0.00000000000E+00 -0.10179158979E+02  0.10179158979E+02  0.00000000000E+00 0.  1.
         35    2    1    2    0    0  0.00000000000E+00  0.00000000000E+00  0.18461693825E+04  0.18665277005E+04  0.27492593130E+03 0.  0.
         25    1    3    3    0    0  0.17523969885E+02  0.11736654264E+02  0.13552123815E+04  0.13606783005E+04  0.12000000000E+03 0.  0.
         25    1    3    3    0    0 -0.17523969885E+02 -0.11736654264E+02  0.49095700102E+03  0.50584939994E+03  0.12000000000E+03 0.  0.
<mgrwt>
<rscale>  0 0.27492593E+03</rscale>
<asrwt>0</asrwt>
<pdfrwt beam="1">  1        1 0.28559181E+00 0.27492593E+03</pdfrwt>
<pdfrwt beam="2">  1       -1 0.15660259E-02 0.27492593E+03</pdfrwt>
<totfact> 0.40995069E+03</totfact>
</mgrwt>
</event>
<event>
 5    1  0.1162308E+001  0.2729319E+03  0.7818608E-02  0.1099613E+00
         -2   -1    0    0    0  501 -0.00000000000E+00  0.00000000000E+00  0.86783089547E+03  0.86783089547E+03  0.00000000000E+00 0.  1.
          2   -1    0    0  501    0  0.00000000000E+00 -0.00000000000E+00 -0.21459205906E+02  0.21459205906E+02  0.00000000000E+00 0.  1.
         35    2    1    2    0    0  0.00000000000E+00  0.00000000000E+00  0.84637168957E+03  0.88929010138E+03  0.27293194666E+03 0.  0.
         25    1    3    3    0    0 -0.55308946840E+02 -0.28965600866E+02  0.36445745917E+03  0.38875098094E+03  0.12000000000E+03 0.  0.
         25    1    3    3    0    0  0.55308946840E+02  0.28965600866E+02  0.48191423040E+03  0.50053912044E+03  0.12000000000E+03 0.  0.
<mgrwt>
<rscale>  0 0.27293195E+03</rscale>
<asrwt>0</asrwt>
<pdfrwt beam="1">  1        2 0.33014170E-02 0.27293195E+03</pdfrwt>
<pdfrwt beam="2">  1       -2 0.13351242E+00 0.27293195E+03</pdfrwt>
<totfact> 0.11726646E+03</totfact>
</mgrwt>
</event>
<event>
 5    1  0.1162308E+001  0.2753231E+03  0.7818608E-02  0.1098271E+00
         -1   -1    0    0    0  501 -0.00000000000E+00  0.00000000000E+00  0.13834646056E+02  0.13834646056E+02  0.00000000000E+00 0.  1.
          1   -1    0    0  501    0  0.00000000000E+00 -0.00000000000E+00 -0.13698004356E+04  0.13698004356E+04  0.00000000000E+00 0.  1.
         35    2    1    2    0    0  0.00000000000E+00  0.00000000000E+00 -0.13559657896E+04  0.13836350817E+04  0.27532311341E+03 0.  0.
         25    1    3    3    0    0 -0.49004812849E+02  0.30912234583E+02 -0.50435465875E+03  0.52166144168E+03  0.12000000000E+03 0.  0.
         25    1    3    3    0    0  0.49004812849E+02 -0.30912234583E+02 -0.85161113084E+03  0.86197364002E+03  0.12000000000E+03 0.  0.
<mgrwt>
<rscale>  0 0.27532311E+03</rscale>
<asrwt>0</asrwt>
<pdfrwt beam="1">  1        1 0.21073846E+00 0.27532311E+03</pdfrwt>
<pdfrwt beam="2">  1       -1 0.21284078E-02 0.27532311E+03</pdfrwt>
<totfact> 0.54747043E+03</totfact>
</mgrwt>
</event>
<event>
 5    1  0.1162308E+001  0.2756707E+03  0.7818608E-02  0.1098077E+00
         -3   -1    0    0    0  501 -0.00000000000E+00  0.00000000000E+00  0.84716590119E+02  0.84716590119E+02  0.00000000000E+00 0.  1.
          3   -1    0    0  501    0  0.00000000000E+00 -0.00000000000E+00 -0.22426043976E+03  0.22426043976E+03  0.00000000000E+00 0.  1.
         35    2    1    2    0    0  0.00000000000E+00  0.00000000000E+00 -0.13954384964E+03  0.30897702988E+03  0.27567067131E+03 0.  0.
         25    1    3    3    0    0  0.22503287151E+01 -0.53531852316E+02 -0.23182272041E+02  0.13344714657E+03  0.12000000000E+03 0.  0.
         25    1    3    3    0    0 -0.22503287151E+01  0.53531852316E+02 -0.11636157760E+03  0.17552988331E+03  0.12000000000E+03 0.  0.
<mgrwt>
<rscale>  0 0.27567067E+03</rscale>
<asrwt>0</asrwt>
<pdfrwt beam="1">  1        3 0.34501606E-01 0.27567067E+03</pdfrwt>
<pdfrwt beam="2">  1       -3 0.13033322E-01 0.27567067E+03</pdfrwt>
<totfact> 0.99141163E+02</totfact>
</mgrwt>
</event>
<event>
 5    1  0.1162308E+001  0.2745589E+03  0.7818608E-02  0.1098698E+00
         -3   -1    0    0    0  501 -0.00000000000E+00  0.00000000000E+00  0.73035247147E+03  0.73035247147E+03  0.00000000000E+00 0.  1.
          3   -1    0    0  501    0  0.00000000000E+00 -0.00000000000E+00 -0.25803490312E+02  0.25803490312E+02  0.00000000000E+00 0.  1.
         35    2    1    2    0    0  0.00000000000E+00  0.00000000000E+00  0.70454898116E+03  0.75615596178E+03  0.27455886744E+03 0.  0.
         25    1    3    3    0    0  0.61475315479E+02  0.19393521184E+02  0.30534841155E+03  0.33435456557E+03  0.12000000000E+03 0.  0.
         25    1    3    3    0    0 -0.61475315479E+02 -0.19393521184E+02  0.39920056960E+03  0.42180139621E+03  0.12000000000E+03 0.  0.
<mgrwt>
<rscale>  0 0.27455887E+03</rscale>
<asrwt>0</asrwt>
<pdfrwt beam="1">  1        3 0.39697683E-02 0.27455887E+03</pdfrwt>
<pdfrwt beam="2">  1       -3 0.11236190E+00 0.27455887E+03</pdfrwt>
<totfact> 0.57542856E+02</totfact>
</mgrwt>
</event>
<event>
 5    1  0.1162308E+001  0.2749137E+03  0.7818608E-02  0.1098500E+00
          3   -1    0    0  501    0  0.00000000000E+00  0.00000000000E+00  0.33524157795E+03  0.33524157795E+03  0.00000000000E+00 0.  1.
         -3   -1    0    0    0  501 -0.00000000000E+00 -0.00000000000E+00 -0.56360522040E+02  0.56360522040E+02  0.00000000000E+00 0.  1.
         35    2    1    2    0    0  0.00000000000E+00  0.00000000000E+00  0.27888105591E+03  0.39160209999E+03  0.27491373442E+03 0.  0.
         25    1    3    3    0    0 -0.23940518484E+02 -0.54040260222E+01  0.50574220650E+02  0.13251454153E+03  0.12000000000E+03 0.  0.
         25    1    3    3    0    0  0.23940518484E+02  0.54040260222E+01  0.22830683526E+03  0.25908755846E+03  0.12000000000E+03 0.  0.
<mgrwt>
<rscale>  0 0.27491373E+03</rscale>
<asrwt>0</asrwt>
<pdfrwt beam="1">  1        3 0.51575626E-01 0.27491373E+03</pdfrwt>
<pdfrwt beam="2">  1       -3 0.86708497E-02 0.27491373E+03</pdfrwt>
<totfact> 0.89198266E+02</totfact>
</mgrwt>
</event>
<event>
 5    1  0.1162308E+001  0.2677169E+03  0.7818608E-02  0.1102593E+00
          2   -1    0    0  501    0  0.00000000000E+00  0.00000000000E+00  0.44592236046E+03  0.44592236046E+03  0.00000000000E+00 0.  1.
         -2   -1    0    0    0  501 -0.00000000000E+00 -0.00000000000E+00 -0.40182086460E+02  0.40182086460E+02  0.00000000000E+00 0.  1.
         35    2    1    2    0    0  0.00000000000E+00  0.00000000000E+00  0.40574027400E+03  0.48610444692E+03  0.26771694636E+03 0.  0.
         25    1    3    3    0    0  0.14013568576E+02  0.43516624833E+02  0.13425499296E+03  0.18578073063E+03  0.12000000000E+03 0.  0.
         25    1    3    3    0    0 -0.14013568576E+02 -0.43516624833E+02  0.27148528105E+03  0.30032371629E+03  0.12000000000E+03 0.  0.
<mgrwt>
<rscale>  0 0.26771695E+03</rscale>
<asrwt>0</asrwt>
<pdfrwt beam="1">  1        2 0.68603437E-01 0.26771695E+03</pdfrwt>
<pdfrwt beam="2">  1       -2 0.61818598E-02 0.26771695E+03</pdfrwt>
<totfact> 0.99260200E+03</totfact>
</mgrwt>
</event>
<event>
 5    1  0.1162308E+001  0.2748974E+03  0.7818608E-02  0.1098509E+00
         -2   -1    0    0    0  501 -0.00000000000E+00  0.00000000000E+00  0.16007615645E+02  0.16007615645E+02  0.00000000000E+00 0. -1.
          2   -1    0    0  501    0  0.00000000000E+00 -0.00000000000E+00 -0.11801975362E+04  0.11801975362E+04  0.00000000000E+00 0. -1.
         35    2    1    2    0    0  0.00000000000E+00  0.00000000000E+00 -0.11641899206E+04  0.11962051519E+04  0.27489742483E+03 0.  0.
         25    1    3    3    0    0 -0.30504133437E+02 -0.59558782652E+02 -0.56558359349E+03  0.58203311931E+03  0.12000000000E+03 0.  0.
         25    1    3    3    0    0  0.30504133437E+02  0.59558782652E+02 -0.59860632710E+03  0.61417203257E+03  0.12000000000E+03 0.  0.
<mgrwt>
<rscale>  0 0.27489742E+03</rscale>
<asrwt>0</asrwt>
<pdfrwt beam="1">  1        2 0.18156894E+00 0.27489742E+03</pdfrwt>
<pdfrwt beam="2">  1       -2 0.24627090E-02 0.27489742E+03</pdfrwt>
<totfact> 0.11638964E+04</totfact>
</mgrwt>
</event>
<event>
 5    1  0.1162308E+001  0.2741655E+03  0.7818608E-02  0.1098919E+00
         -1   -1    0    0    0  501 -0.00000000000E+00  0.00000000000E+00  0.24606513939E+02  0.24606513939E+02  0.00000000000E+00 0. -1.
          1   -1    0    0  501    0  0.00000000000E+00 -0.00000000000E+00 -0.76368715970E+03  0.76368715970E+03  0.00000000000E+00 0. -1.
         35    2    1    2    0    0  0.00000000000E+00  0.00000000000E+00 -0.73908064576E+03  0.78829367364E+03  0.27416548827E+03 0.  0.
         25    1    3    3    0    0 -0.54311551666E+02 -0.16097227451E+02 -0.27065465131E+03  0.30143457939E+03  0.12000000000E+03 0.  0.
         25    1    3    3    0    0  0.54311551666E+02  0.16097227451E+02 -0.46842599445E+03  0.48685909425E+03  0.12000000000E+03 0.  0.
<mgrwt>
<rscale>  0 0.27416549E+03</rscale>
<asrwt>0</asrwt>
<pdfrwt beam="1">  1        1 0.11749033E+00 0.27416549E+03</pdfrwt>
<pdfrwt beam="2">  1       -1 0.37856177E-02 0.27416549E+03</pdfrwt>
<totfact> 0.65919066E+03</totfact>
</mgrwt>
</event>
<event>
 5    1  0.1162308E+001  0.2751737E+03  0.7818608E-02  0.1098355E+00
         -2   -1    0    0    0  501 -0.00000000000E+00  0.00000000000E+00  0.47849444067E+01  0.47849444067E+01  0.00000000000E+00 0.  1.
          2   -1    0    0  501    0  0.00000000000E+00 -0.00000000000E+00 -0.39561890603E+04  0.39561890603E+04  0.00000000000E+00 0.  1.
         35    2    1    2    0    0  0.00000000000E+00  0.00000000000E+00 -0.39514041158E+04  0.39609740047E+04  0.27517372488E+03 0.  0.
         25    1    3    3    0    0  0.35865041486E+02 -0.40328397865E+02 -0.25546137484E+04  0.25580000165E+04  0.12000000000E+03 0.  0.
         25    1    3    3    0    0 -0.35865041486E+02  0.40328397865E+02 -0.13967903674E+04  0.14029739881E+04  0.12000000000E+03 0.  0.
<mgrwt>
<rscale>  0 0.27517372E+03</rscale>
<asrwt>0</asrwt>
<pdfrwt beam="1">  1        2 0.60864434E+00 0.27517372E+03</pdfrwt>
<pdfrwt beam="2">  1       -2 0.73614546E-03 0.27517372E+03</pdfrwt>
<totfact> 0.16054855E+03</totfact>
</mgrwt>
</event>
<event>
 5    1  0.1162308E+001  0.2742449E+03  0.7818608E-02  0.1098874E+00
          2   -1    0    0  501    0  0.00000000000E+00  0.00000000000E+00  0.26129902046E+03  0.26129902046E+03  0.00000000000E+00 0. -1.
         -2   -1    0    0    0  501 -0.00000000000E+00 -0.00000000000E+00 -0.71958068476E+02  0.71958068476E+02  0.00000000000E+00 0. -1.
         35    2    1    2    0    0  0.00000000000E+00  0.00000000000E+00  0.18934095198E+03  0.33325708893E+03  0.27424494750E+03 0.  0.
         25    1    3    3    0    0 -0.63758994686E+02 -0.14499041762E+02  0.80968478002E+02  0.15884371579E+03  0.12000000000E+03 0.  0.
         25    1    3    3    0    0  0.63758994686E+02  0.14499041762E+02  0.10837247398E+03  0.17441337314E+03  0.12000000000E+03 0.  0.
<mgrwt>
<rscale>  0 0.27424495E+03</rscale>
<asrwt>0</asrwt>
<pdfrwt beam="1">  1        2 0.40199849E-01 0.27424495E+03</pdfrwt>
<pdfrwt beam="2">  1       -2 0.11070472E-01 0.27424495E+03</pdfrwt>
<totfact> 0.71048984E+03</totfact>
</mgrwt>
</event>
<event>
 5    1  0.1162308E+001  0.2756936E+03  0.7818608E-02  0.1098065E+00
          1   -1    0    0  501    0  0.00000000000E+00  0.00000000000E+00  0.21286818394E+03  0.21286818394E+03  0.00000000000E+00 0. -1.
         -1   -1    0    0    0  501 -0.00000000000E+00 -0.00000000000E+00 -0.89265295380E+02  0.89265295380E+02  0.00000000000E+00 0. -1.
         35    2    1    2    0    0  0.00000000000E+00  0.00000000000E+00  0.12360288856E+03  0.30213347932E+03  0.27569360759E+03 0.  0.
         25    1    3    3    0    0  0.15478055193E+02 -0.19896506565E+02  0.13081985328E+03  0.17930218955E+03  0.12000000000E+03 0.  0.
         25    1    3    3    0    0 -0.15478055193E+02  0.19896506565E+02 -0.72169647189E+01  0.12283128977E+03  0.12000000000E+03 0.  0.
<mgrwt>
<rscale>  0 0.27569361E+03</rscale>
<asrwt>0</asrwt>
<pdfrwt beam="1">  1        1 0.32748951E-01 0.27569361E+03</pdfrwt>
<pdfrwt beam="2">  1       -1 0.13733122E-01 0.27569361E+03</pdfrwt>
<totfact> 0.49787721E+03</totfact>
</mgrwt>
</event>
<event>
 5    1  0.1162308E+001  0.2749600E+03  0.7818608E-02  0.1098474E+00
         -1   -1    0    0    0  501 -0.00000000000E+00  0.00000000000E+00  0.54256227610E+02  0.54256227610E+02  0.00000000000E+00 0. -1.
          1   -1    0    0  501    0  0.00000000000E+00 -0.00000000000E+00 -0.34836089550E+03  0.34836089550E+03  0.00000000000E+00 0. -1.
         35    2    1    2    0    0  0.00000000000E+00  0.00000000000E+00 -0.29410466789E+03  0.40261712311E+03  0.27495998281E+03 0.  0.
         25    1    3    3    0    0 -0.46088500143E+02  0.30570737891E+02 -0.91447874593E+02  0.16069049016E+03  0.12000000000E+03 0.  0.
         25    1    3    3    0    0  0.46088500143E+02 -0.30570737891E+02 -0.20265679330E+03  0.24192663295E+03  0.12000000000E+03 0.  0.
<mgrwt>
<rscale>  0 0.27495998E+03</rscale>
<asrwt>0</asrwt>
<pdfrwt beam="1">  1        1 0.53593983E-01 0.27495998E+03</pdfrwt>
<pdfrwt beam="2">  1       -1 0.83471121E-02 0.27495998E+03</pdfrwt>
<totfact> 0.58027409E+03</totfact>
</mgrwt>
</event>
<event>
 5    1  0.1162308E+001  0.2750521E+03  0.7818608E-02  0.1098422E+00
          4   -1    0    0  501    0  0.00000000000E+00  0.00000000000E+00  0.31381766559E+03  0.31381766559E+03  0.00000000000E+00 0. -1.
         -4   -1    0    0    0  501 -0.00000000000E+00 -0.00000000000E+00 -0.60268793981E+02  0.60268793981E+02  0.00000000000E+00 0. -1.
         35    2    1    2    0    0  0.00000000000E+00  0.00000000000E+00  0.25354887161E+03  0.37408645957E+03  0.27505208405E+03 0.  0.
         25    1    3    3    0    0  0.34319222614E+02 -0.50037892440E+02  0.16600005192E+03  0.21362962566E+03  0.12000000000E+03 0.  0.
         25    1    3    3    0    0 -0.34319222614E+02  0.50037892440E+02  0.87548819687E+02  0.16045683391E+03  0.12000000000E+03 0.  0.
<mgrwt>
<rscale>  0 0.27505208E+03</rscale>
<asrwt>0</asrwt>
<pdfrwt beam="1">  1        4 0.48279640E-01 0.27505208E+03</pdfrwt>
<pdfrwt beam="2">  1       -4 0.92721223E-02 0.27505208E+03</pdfrwt>
<totfact> 0.67349244E+02</totfact>
</mgrwt>
</event>
<event>
 5    1  0.1162308E+001  0.2752576E+03  0.7818608E-02  0.1098308E+00
          2   -1    0    0  501    0  0.00000000000E+00  0.00000000000E+00  0.64538352419E+03  0.64538352419E+03  0.00000000000E+00 0.  1.
         -2   -1    0    0    0  501 -0.00000000000E+00 -0.00000000000E+00 -0.29349513448E+02  0.29349513448E+02  0.00000000000E+00 0.  1.
         35    2    1    2    0    0  0.00000000000E+00  0.00000000000E+00  0.61603401074E+03  0.67473303764E+03  0.27525764238E+03 0.  0.
         25    1    3    3    0    0  0.59253186081E+02  0.32096993979E+02  0.30981052924E+03  0.33900401341E+03  0.12000000000E+03 0.  0.
         25    1    3    3    0    0 -0.59253186081E+02 -0.32096993979E+02  0.30622348151E+03  0.33572902423E+03  0.12000000000E+03 0.  0.
<mgrwt>
<rscale>  0 0.27525764E+03</rscale>
<asrwt>0</asrwt>
<pdfrwt beam="1">  1        2 0.99289762E-01 0.27525764E+03</pdfrwt>
<pdfrwt beam="2">  1       -2 0.45153102E-02 0.27525764E+03</pdfrwt>
<totfact> 0.10538595E+04</totfact>
</mgrwt>
</event>
<event>
 5    1  0.1162308E+001  0.2748435E+03  0.7818608E-02  0.1098539E+00
          2   -1    0    0  501    0  0.00000000000E+00  0.00000000000E+00  0.83242762252E+03  0.83242762252E+03  0.00000000000E+00 0. -1.
         -2   -1    0    0    0  501 -0.00000000000E+00 -0.00000000000E+00 -0.22686340368E+02  0.22686340368E+02  0.00000000000E+00 0. -1.
         35    2    1    2    0    0  0.00000000000E+00  0.00000000000E+00  0.80974128215E+03  0.85511396289E+03  0.27484349275E+03 0.  0.
         25    1    3    3    0    0  0.43798232149E+02  0.42623500734E+02  0.49005874281E+03  0.50822496924E+03  0.12000000000E+03 0.  0.
         25    1    3    3    0    0 -0.43798232149E+02 -0.42623500734E+02  0.31968253934E+03  0.34688899365E+03  0.12000000000E+03 0.  0.
<mgrwt>
<rscale>  0 0.27484349E+03</rscale>
<asrwt>0</asrwt>
<pdfrwt beam="1">  1        2 0.12806577E+00 0.27484349E+03</pdfrwt>
<pdfrwt beam="2">  1       -2 0.34902068E-02 0.27484349E+03</pdfrwt>
<totfact> 0.11337191E+04</totfact>
</mgrwt>
</event>
<event>
 5    1  0.1162308E+001  0.2748441E+03  0.7818608E-02  0.1098539E+00
          2   -1    0    0  501    0  0.00000000000E+00  0.00000000000E+00  0.79384220012E+03  0.79384220012E+03  0.00000000000E+00 0. -1.
         -2   -1    0    0    0  501 -0.00000000000E+00 -0.00000000000E+00 -0.23789143551E+02  0.23789143551E+02  0.00000000000E+00 0. -1.
         35    2    1    2    0    0  0.00000000000E+00  0.00000000000E+00  0.77005305656E+03  0.81763134367E+03  0.27484414533E+03 0.  0.
         25    1    3    3    0    0  0.61240822373E+02  0.26902931941E+02  0.37533185977E+03  0.39968513987E+03  0.12000000000E+03 0.  0.
         25    1    3    3    0    0 -0.61240822373E+02 -0.26902931941E+02  0.39472119679E+03  0.41794620380E+03  0.12000000000E+03 0.  0.
<mgrwt>
<rscale>  0 0.27484415E+03</rscale>
<asrwt>0</asrwt>
<pdfrwt beam="1">  1        2 0.12212955E+00 0.27484415E+03</pdfrwt>
<pdfrwt beam="2">  1       -2 0.36598688E-02 0.27484415E+03</pdfrwt>
<totfact> 0.11221281E+04</totfact>
</mgrwt>
</event>
<event>
 5    1  0.1162308E+001  0.2739236E+03  0.7818608E-02  0.1099055E+00
         -2   -1    0    0    0  501 -0.00000000000E+00  0.00000000000E+00  0.14403754532E+02  0.14403754532E+02  0.00000000000E+00 0.  1.
          2   -1    0    0  501    0  0.00000000000E+00 -0.00000000000E+00 -0.13023367553E+04  0.13023367553E+04  0.00000000000E+00 0.  1.
         35    2    1    2    0    0  0.00000000000E+00  0.00000000000E+00 -0.12879330007E+04  0.13167405098E+04  0.27392363126E+03 0.  0.
         25    1    3    3    0    0  0.34995615176E+02 -0.43914882376E+02 -0.47707912163E+03  0.49513402051E+03  0.12000000000E+03 0.  0.
         25    1    3    3    0    0 -0.34995615176E+02  0.43914882376E+02 -0.81085387911E+03  0.82160648929E+03  0.12000000000E+03 0.  0.
<mgrwt>
<rscale>  0 0.27392363E+03</rscale>
<asrwt>0</asrwt>
<pdfrwt beam="1">  1        2 0.20035958E+00 0.27392363E+03</pdfrwt>
<pdfrwt beam="2">  1       -2 0.22159614E-02 0.27392363E+03</pdfrwt>
<totfact> 0.11613275E+04</totfact>
</mgrwt>
</event>
<event>
 5    1  0.1162308E+001  0.2752381E+03  0.7818608E-02  0.1098319E+00
         -1   -1    0    0    0  501 -0.00000000000E+00  0.00000000000E+00  0.31805883730E+02  0.31805883730E+02  0.00000000000E+00 0. -1.
          1   -1    0    0  501    0  0.00000000000E+00 -0.00000000000E+00 -0.59545598406E+03  0.59545598406E+03  0.00000000000E+00 0. -1.
         35    2    1    2    0    0  0.00000000000E+00  0.00000000000E+00 -0.56365010033E+03  0.62726186779E+03  0.27523810634E+03 0.  0.
         25    1    3    3    0    0 -0.47406127671E+02  0.38052631611E+02 -0.21563021941E+03  0.25414904138E+03  0.12000000000E+03 0.  0.
         25    1    3    3    0    0  0.47406127671E+02 -0.38052631611E+02 -0.34801988092E+03  0.37311282640E+03  0.12000000000E+03 0.  0.
<mgrwt>
<rscale>  0 0.27523811E+03</rscale>
<asrwt>0</asrwt>
<pdfrwt beam="1">  1        1 0.91608613E-01 0.27523811E+03</pdfrwt>
<pdfrwt beam="2">  1       -1 0.48932129E-02 0.27523811E+03</pdfrwt>
<totfact> 0.64390250E+03</totfact>
</mgrwt>
</event>
<event>
 5    1  0.1162308E+001  0.2806886E+03  0.7818608E-02  0.1095313E+00
          1   -1    0    0  501    0  0.00000000000E+00  0.00000000000E+00  0.97505971110E+02  0.97505971110E+02  0.00000000000E+00 0. -1.
         -1   -1    0    0    0  501 -0.00000000000E+00 -0.00000000000E+00 -0.20200323937E+03  0.20200323937E+03  0.00000000000E+00 0. -1.
         35    2    1    2    0    0  0.00000000000E+00  0.00000000000E+00 -0.10449726826E+03  0.29950921048E+03  0.28068859629E+03 0.  0.
         25    1    3    3    0    0  0.11766390508E+02  0.48011752061E+01  0.24215293388E+02  0.12307672267E+03  0.12000000000E+03 0.  0.
         25    1    3    3    0    0 -0.11766390508E+02 -0.48011752061E+01 -0.12871256165E+03  0.17643248781E+03  0.12000000000E+03 0.  0.
<mgrwt>
<rscale>  0 0.28068860E+03</rscale>
<asrwt>0</asrwt>
<pdfrwt beam="1">  1        1 0.15000919E-01 0.28068860E+03</pdfrwt>
<pdfrwt beam="2">  1       -1 0.31077421E-01 0.28068860E+03</pdfrwt>
<totfact> 0.35676059E+03</totfact>
</mgrwt>
</event>
<event>
 5    1  0.1162308E+001  0.2746360E+03  0.7818608E-02  0.1098655E+00
          2   -1    0    0  501    0  0.00000000000E+00  0.00000000000E+00  0.19097106417E+04  0.19097106417E+04  0.00000000000E+00 0.  1.
         -2   -1    0    0    0  501 -0.00000000000E+00 -0.00000000000E+00 -0.98738660930E+01  0.98738660930E+01  0.00000000000E+00 0.  1.
         35    2    1    2    0    0  0.00000000000E+00  0.00000000000E+00  0.18998367756E+04  0.19195845078E+04  0.27463595651E+03 0.  0.
         25    1    3    3    0    0  0.87737549927E+01  0.57790183706E+02  0.11752754011E+04  0.11828309061E+04  0.12000000000E+03 0.  0.
         25    1    3    3    0    0 -0.87737549927E+01 -0.57790183706E+02  0.72456137455E+03  0.73675360169E+03  0.12000000000E+03 0.  0.
<mgrwt>
<rscale>  0 0.27463596E+03</rscale>
<asrwt>0</asrwt>
<pdfrwt beam="1">  1        2 0.29380134E+00 0.27463596E+03</pdfrwt>
<pdfrwt beam="2">  1       -2 0.15190578E-02 0.27463596E+03</pdfrwt>
<totfact> 0.95985208E+03</totfact>
</mgrwt>
</event>
<event>
 5    1  0.1162308E+001  0.2736231E+03  0.7818608E-02  0.1099224E+00
         -4   -1    0    0    0  501 -0.00000000000E+00  0.00000000000E+00  0.38043973764E+02  0.38043973764E+02  0.00000000000E+00 0. -1.
          4   -1    0    0  501    0  0.00000000000E+00 -0.00000000000E+00 -0.49199380032E+03  0.49199380032E+03  0.00000000000E+00 0. -1.
         35    2    1    2    0    0  0.00000000000E+00  0.00000000000E+00 -0.45394982655E+03  0.53003777408E+03  0.27362309282E+03 0.  0.
         25    1    3    3    0    0  0.48450225024E+02  0.15389654148E+01 -0.14104918939E+03  0.19142796700E+03  0.12000000000E+03 0.  0.
         25    1    3    3    0    0 -0.48450225024E+02 -0.15389654148E+01 -0.31290063716E+03  0.33860980708E+03  0.12000000000E+03 0.  0.
<mgrwt>
<rscale>  0 0.27362309E+03</rscale>
<asrwt>0</asrwt>
<pdfrwt beam="1">  1        4 0.75691349E-01 0.27362309E+03</pdfrwt>
<pdfrwt beam="2">  1       -4 0.58529194E-02 0.27362309E+03</pdfrwt>
<totfact> 0.55591135E+02</totfact>
</mgrwt>
</event>
<event>
 5    1  0.1162308E+001  0.2838813E+03  0.7818608E-02  0.1093588E+00
         -1   -1    0    0    0  501 -0.00000000000E+00  0.00000000000E+00  0.79801144165E+01  0.79801144165E+01  0.00000000000E+00 0.  1.
          1   -1    0    0  501    0  0.00000000000E+00 -0.00000000000E+00 -0.25246691395E+04  0.25246691395E+04  0.00000000000E+00 0.  1.
         35    2    1    2    0    0  0.00000000000E+00  0.00000000000E+00 -0.25166890251E+04  0.25326492539E+04  0.28388130334E+03 0.  0.
         25    1    3    3    0    0  0.61086595181E+02 -0.88321093188E+01 -0.86563900148E+03  0.87609386435E+03  0.12000000000E+03 0.  0.
         25    1    3    3    0    0 -0.61086595181E+02  0.88321093188E+01 -0.16510500236E+04  0.16565553896E+04  0.12000000000E+03 0.  0.
<mgrwt>
<rscale>  0 0.28388130E+03</rscale>
<asrwt>0</asrwt>
<pdfrwt beam="1">  1        1 0.38841060E+00 0.28388130E+03</pdfrwt>
<pdfrwt beam="2">  1       -1 0.12277100E-02 0.28388130E+03</pdfrwt>
<totfact> 0.21316998E+03</totfact>
</mgrwt>
</event>
<event>
 5    1  0.1162308E+001  0.2733333E+03  0.7818608E-02  0.1099387E+00
         -1   -1    0    0    0  501 -0.00000000000E+00  0.00000000000E+00  0.32805146188E+03  0.32805146188E+03  0.00000000000E+00 0.  1.
          1   -1    0    0  501    0  0.00000000000E+00 -0.00000000000E+00 -0.56935516780E+02  0.56935516780E+02  0.00000000000E+00 0.  1.
         35    2    1    2    0    0  0.00000000000E+00  0.00000000000E+00  0.27111594510E+03  0.38498697866E+03  0.27333334603E+03 0.  0.
         25    1    3    3    0    0 -0.32939993724E+02 -0.55157639661E+02  0.15282969421E+03  0.20465659977E+03  0.12000000000E+03 0.  0.
         25    1    3    3    0    0  0.32939993724E+02  0.55157639661E+02  0.11828625089E+03  0.18033037889E+03  0.12000000000E+03 0.  0.
<mgrwt>
<rscale>  0 0.27333335E+03</rscale>
<asrwt>0</asrwt>
<pdfrwt beam="1">  1        1 0.87593105E-02 0.27333335E+03</pdfrwt>
<pdfrwt beam="2">  1       -1 0.50469455E-01 0.27333335E+03</pdfrwt>
<totfact> 0.30890004E+03</totfact>
</mgrwt>
</event>
<event>
 5    1  0.1162308E+001  0.2758289E+03  0.7818608E-02  0.1097989E+00
         -1   -1    0    0    0  501 -0.00000000000E+00  0.00000000000E+00  0.12412068822E+02  0.12412068822E+02  0.00000000000E+00 0.  1.
          1   -1    0    0  501    0  0.00000000000E+00 -0.00000000000E+00 -0.15324116404E+04  0.15324116404E+04  0.00000000000E+00 0.  1.
         35    2    1    2    0    0  0.00000000000E+00  0.00000000000E+00 -0.15199995715E+04  0.15448237092E+04  0.27582892338E+03 0.  0.
         25    1    3    3    0    0 -0.54073898294E+02  0.28546246332E+02 -0.92628598760E+03  0.93602596410E+03  0.12000000000E+03 0.  0.
         25    1    3    3    0    0  0.54073898294E+02 -0.28546246332E+02 -0.59371358393E+03  0.60879774507E+03  0.12000000000E+03 0.  0.
<mgrwt>
<rscale>  0 0.27582892E+03</rscale>
<asrwt>0</asrwt>
<pdfrwt beam="1">  1        1 0.23575563E+00 0.27582892E+03</pdfrwt>
<pdfrwt beam="2">  1       -1 0.19095491E-02 0.27582892E+03</pdfrwt>
<totfact> 0.49979279E+03</totfact>
</mgrwt>
</event>
<event>
 5    1  0.1162308E+001  0.2748685E+03  0.7818608E-02  0.1098525E+00
         -1   -1    0    0    0  501 -0.00000000000E+00  0.00000000000E+00  0.10733214987E+02  0.10733214987E+02  0.00000000000E+00 0. -1.
          1   -1    0    0  501    0  0.00000000000E+00 -0.00000000000E+00 -0.17597867462E+04  0.17597867462E+04  0.00000000000E+00 0. -1.
         35    2    1    2    0    0  0.00000000000E+00  0.00000000000E+00 -0.17490535312E+04  0.17705199611E+04  0.27486847385E+03 0.  0.
         25    1    3    3    0    0  0.24515106290E+02 -0.50880224507E+02 -0.64242571552E+03  0.65597300832E+03  0.12000000000E+03 0.  0.
         25    1    3    3    0    0 -0.24515106290E+02  0.50880224507E+02 -0.11066278156E+04  0.11145469528E+04  0.12000000000E+03 0.  0.
<mgrwt>
<rscale>  0 0.27486847E+03</rscale>
<asrwt>0</asrwt>
<pdfrwt beam="1">  1        1 0.27073660E+00 0.27486847E+03</pdfrwt>
<pdfrwt beam="2">  1       -1 0.16512628E-02 0.27486847E+03</pdfrwt>
<totfact> 0.43848902E+03</totfact>
</mgrwt>
</event>
<event>
 5    1  0.1162308E+001  0.2752550E+03  0.7818608E-02  0.1098309E+00
          1   -1    0    0  501    0  0.00000000000E+00  0.00000000000E+00  0.10564483816E+03  0.10564483816E+03  0.00000000000E+00 0. -1.
         -1   -1    0    0    0  501 -0.00000000000E+00 -0.00000000000E+00 -0.17929246971E+03  0.17929246971E+03  0.00000000000E+00 0. -1.
         35    2    1    2    0    0  0.00000000000E+00  0.00000000000E+00 -0.73647631546E+02  0.28493730787E+03  0.27525496505E+03 0.  0.
         25    1    3    3    0    0 -0.52844166501E+02  0.28282370538E+02 -0.49355999630E+01  0.13422651960E+03  0.12000000000E+03 0.  0.
         25    1    3    3    0    0  0.52844166501E+02 -0.28282370538E+02 -0.68712031583E+02  0.15071078827E+03  0.12000000000E+03 0.  0.
<mgrwt>
<rscale>  0 0.27525497E+03</rscale>
<asrwt>0</asrwt>
<pdfrwt beam="1">  1        1 0.16253052E-01 0.27525497E+03</pdfrwt>
<pdfrwt beam="2">  1       -1 0.27583457E-01 0.27525497E+03</pdfrwt>
<totfact> 0.39302040E+03</totfact>
</mgrwt>
</event>
<event>
 5    1  0.1162308E+001  0.2749475E+03  0.7818608E-02  0.1098481E+00
         -2   -1    0    0    0  501 -0.00000000000E+00  0.00000000000E+00  0.90885910023E+02  0.90885910023E+02  0.00000000000E+00 0.  1.
          2   -1    0    0  501    0  0.00000000000E+00 -0.00000000000E+00 -0.20794233991E+03  0.20794233991E+03  0.00000000000E+00 0.  1.
         35    2    1    2    0    0  0.00000000000E+00  0.00000000000E+00 -0.11705642989E+03  0.29882824993E+03  0.27494747713E+03 0.  0.
         25    1    3    3    0    0  0.37733365212E+01 -0.22504968938E+02  0.10024018796E+02  0.12256097523E+03  0.12000000000E+03 0.  0.
         25    1    3    3    0    0 -0.37733365212E+01  0.22504968938E+02 -0.12708044868E+03  0.17626727471E+03  0.12000000000E+03 0.  0.
<mgrwt>
<rscale>  0 0.27494748E+03</rscale>
<asrwt>0</asrwt>
<pdfrwt beam="1">  1        2 0.31991129E-01 0.27494748E+03</pdfrwt>
<pdfrwt beam="2">  1       -2 0.13982448E-01 0.27494748E+03</pdfrwt>
<totfact> 0.62347861E+03</totfact>
</mgrwt>
</event>
<event>
 5    1  0.1162308E+001  0.2852274E+03  0.7818608E-02  0.1092868E+00
          2   -1    0    0  501    0  0.00000000000E+00  0.00000000000E+00  0.60268089755E+02  0.60268089755E+02  0.00000000000E+00 0.  1.
         -2   -1    0    0    0  501 -0.00000000000E+00 -0.00000000000E+00 -0.33747000387E+03  0.33747000387E+03  0.00000000000E+00 0.  1.
         35    2    1    2    0    0  0.00000000000E+00  0.00000000000E+00 -0.27720191411E+03  0.39773809362E+03  0.28522743544E+03 0.  0.
         25    1    3    3    0    0 -0.26335411050E+02 -0.70278638724E+02 -0.16299529237E+03  0.21587057760E+03  0.12000000000E+03 0.  0.
         25    1    3    3    0    0  0.26335411050E+02  0.70278638724E+02 -0.11420662174E+03  0.18186751603E+03  0.12000000000E+03 0.  0.
<mgrwt>
<rscale>  0 0.28522744E+03</rscale>
<asrwt>0</asrwt>
<pdfrwt beam="1">  1        2 0.92720137E-02 0.28522744E+03</pdfrwt>
<pdfrwt beam="2">  1       -2 0.51918463E-01 0.28522744E+03</pdfrwt>
<totfact> 0.25048175E+03</totfact>
</mgrwt>
</event>
<event>
 5    1  0.1162308E+001  0.2757275E+03  0.7818608E-02  0.1098046E+00
         -2   -1    0    0    0  501 -0.00000000000E+00  0.00000000000E+00  0.10413212795E+03  0.10413212795E+03  0.00000000000E+00 0. -1.
          2   -1    0    0  501    0  0.00000000000E+00 -0.00000000000E+00 -0.18252213216E+03  0.18252213216E+03  0.00000000000E+00 0. -1.
         35    2    1    2    0    0  0.00000000000E+00  0.00000000000E+00 -0.78390004212E+02  0.28665426011E+03  0.27572753232E+03 0.  0.
         25    1    3    3    0    0  0.40432116270E+02 -0.19247876876E+02 -0.92217913708E+02  0.15782705851E+03  0.12000000000E+03 0.  0.
         25    1    3    3    0    0 -0.40432116270E+02  0.19247876876E+02  0.13827909496E+02  0.12882720160E+03  0.12000000000E+03 0.  0.
<mgrwt>
<rscale>  0 0.27572753E+03</rscale>
<asrwt>0</asrwt>
<pdfrwt beam="1">  1        2 0.28080328E-01 0.27572753E+03</pdfrwt>
<pdfrwt beam="2">  1       -2 0.16020328E-01 0.27572753E+03</pdfrwt>
<totfact> 0.57467721E+03</totfact>
</mgrwt>
</event>
<event>
 5    1  0.1162308E+001  0.2632009E+03  0.7818608E-02  0.1105235E+00
         -2   -1    0    0    0  501 -0.00000000000E+00  0.00000000000E+00  0.29687800680E+02  0.29687800680E+02  0.00000000000E+00 0.  1.
          2   -1    0    0  501    0  0.00000000000E+00 -0.00000000000E+00 -0.58336024850E+03  0.58336024850E+03  0.00000000000E+00 0.  1.
         35    2    1    2    0    0  0.00000000000E+00  0.00000000000E+00 -0.55367244782E+03  0.61304804918E+03  0.26320093300E+03 0.  0.
         25    1    3    3    0    0  0.48540295097E+02  0.76231953304E+01 -0.32914790633E+03  0.35376915863E+03  0.12000000000E+03 0.  0.
         25    1    3    3    0    0 -0.48540295097E+02 -0.76231953304E+01 -0.22452454149E+03  0.25927889056E+03  0.12000000000E+03 0.  0.
<mgrwt>
<rscale>  0 0.26320093E+03</rscale>
<asrwt>0</asrwt>
<pdfrwt beam="1">  1        2 0.89747734E-01 0.26320093E+03</pdfrwt>
<pdfrwt beam="2">  1       -2 0.45673538E-02 0.26320093E+03</pdfrwt>
<totfact> 0.11633933E+04</totfact>
</mgrwt>
</event>
<event>
 5    1  0.1162308E+001  0.2751676E+03  0.7818608E-02  0.1098358E+00
          2   -1    0    0  501    0  0.00000000000E+00  0.00000000000E+00  0.72038352392E+03  0.72038352392E+03  0.00000000000E+00 0.  1.
         -2   -1    0    0    0  501 -0.00000000000E+00 -0.00000000000E+00 -0.26276699196E+02  0.26276699196E+02  0.00000000000E+00 0.  1.
         35    2    1    2    0    0  0.00000000000E+00  0.00000000000E+00  0.69410682472E+03  0.74666022311E+03  0.27516759376E+03 0.  0.
         25    1    3    3    0    0  0.59633896175E+02 -0.23774210982E+01  0.43145282493E+03  0.45178910328E+03  0.12000000000E+03 0.  0.
         25    1    3    3    0    0 -0.59633896175E+02  0.23774210982E+01  0.26265399979E+03  0.29487111983E+03  0.12000000000E+03 0.  0.
<mgrwt>
<rscale>  0 0.27516759E+03</rscale>
<asrwt>0</asrwt>
<pdfrwt beam="1">  1        2 0.11082822E+00 0.27516759E+03</pdfrwt>
<pdfrwt beam="2">  1       -2 0.40425697E-02 0.27516759E+03</pdfrwt>
<totfact> 0.10908171E+04</totfact>
</mgrwt>
</event>
<event>
 5    1  0.1162308E+001  0.2748406E+03  0.7818608E-02  0.1098541E+00
          3   -1    0    0  501    0  0.00000000000E+00  0.00000000000E+00  0.54622619986E+02  0.54622619986E+02  0.00000000000E+00 0. -1.
         -3   -1    0    0    0  501 -0.00000000000E+00 -0.00000000000E+00 -0.34572386032E+03  0.34572386032E+03  0.00000000000E+00 0. -1.
         35    2    1    2    0    0  0.00000000000E+00  0.00000000000E+00 -0.29110124033E+03  0.40034648031E+03  0.27484063049E+03 0.  0.
         25    1    3    3    0    0  0.14226750654E+02  0.61872574364E+01 -0.24044170077E+03  0.26917075261E+03  0.12000000000E+03 0.  0.
         25    1    3    3    0    0 -0.14226750654E+02 -0.61872574364E+01 -0.50659539563E+02  0.13117572770E+03  0.12000000000E+03 0.  0.
<mgrwt>
<rscale>  0 0.27484063E+03</rscale>
<asrwt>0</asrwt>
<pdfrwt beam="1">  1        3 0.84034801E-02 0.27484063E+03</pdfrwt>
<pdfrwt beam="2">  1       -3 0.53188286E-01 0.27484063E+03</pdfrwt>
<totfact> 0.88176839E+02</totfact>
</mgrwt>
</event>
<event>
 5    1  0.1162308E+001  0.2762699E+03  0.7818608E-02  0.1097744E+00
         -1   -1    0    0    0  501 -0.00000000000E+00  0.00000000000E+00  0.77819674267E+01  0.77819674267E+01  0.00000000000E+00 0. -1.
          1   -1    0    0  501    0  0.00000000000E+00 -0.00000000000E+00 -0.24519841856E+04  0.24519841856E+04  0.00000000000E+00 0. -1.
         35    2    1    2    0    0  0.00000000000E+00  0.00000000000E+00 -0.24442022182E+04  0.24597661531E+04  0.27626987576E+03 0.  0.
         25    1    3    3    0    0 -0.49318805399E+02  0.47363780561E+02 -0.12431495108E+04  0.12507982965E+04  0.12000000000E+03 0.  0.
         25    1    3    3    0    0  0.49318805399E+02 -0.47363780561E+02 -0.12010527074E+04  0.12089678566E+04  0.12000000000E+03 0.  0.
<mgrwt>
<rscale>  0 0.27626988E+03</rscale>
<asrwt>0</asrwt>
<pdfrwt beam="1">  1        1 0.37722916E+00 0.27626988E+03</pdfrwt>
<pdfrwt beam="2">  1       -1 0.11972232E-02 0.27626988E+03</pdfrwt>
<totfact> 0.24723599E+03</totfact>
</mgrwt>
</event>
<event>
 5    1  0.1162308E+001  0.2746087E+03  0.7818608E-02  0.1098671E+00
         -1   -1    0    0    0  501 -0.00000000000E+00  0.00000000000E+00  0.22059744637E+03  0.22059744637E+03  0.00000000000E+00 0.  1.
          1   -1    0    0  501    0  0.00000000000E+00 -0.00000000000E+00 -0.85461023971E+02  0.85461023971E+02  0.00000000000E+00 0.  1.
         35    2    1    2    0    0  0.00000000000E+00  0.00000000000E+00  0.13513642240E+03  0.30605847034E+03  0.27460869361E+03 0.  0.
         25    1    3    3    0    0  0.24115292046E+02 -0.56381462662E+02  0.96888226650E+02  0.16597513400E+03  0.12000000000E+03 0.  0.
         25    1    3    3    0    0 -0.24115292046E+02  0.56381462662E+02  0.38248195747E+02  0.14008333634E+03  0.12000000000E+03 0.  0.
<mgrwt>
<rscale>  0 0.27460869E+03</rscale>
<asrwt>0</asrwt>
<pdfrwt beam="1">  1        1 0.13147850E-01 0.27460869E+03</pdfrwt>
<pdfrwt beam="2">  1       -1 0.33938068E-01 0.27460869E+03</pdfrwt>
<totfact> 0.36458621E+03</totfact>
</mgrwt>
</event>
<event>
 5    1  0.1162308E+001  0.2749265E+03  0.7818608E-02  0.1098493E+00
         -1   -1    0    0    0  501 -0.00000000000E+00  0.00000000000E+00  0.22294856658E+03  0.22294856658E+03  0.00000000000E+00 0.  1.
          1   -1    0    0  501    0  0.00000000000E+00 -0.00000000000E+00 -0.84755646958E+02  0.84755646958E+02  0.00000000000E+00 0.  1.
         35    2    1    2    0    0  0.00000000000E+00  0.00000000000E+00  0.13819291963E+03  0.30770421354E+03  0.27492653564E+03 0.  0.
         25    1    3    3    0    0 -0.63444761027E+02 -0.15020992701E+01  0.93325927464E+02  0.16473379356E+03  0.12000000000E+03 0.  0.
         25    1    3    3    0    0  0.63444761027E+02  0.15020992701E+01  0.44866992162E+02  0.14297041998E+03  0.12000000000E+03 0.  0.
<mgrwt>
<rscale>  0 0.27492654E+03</rscale>
<asrwt>0</asrwt>
<pdfrwt beam="1">  1        1 0.13039330E-01 0.27492654E+03</pdfrwt>
<pdfrwt beam="2">  1       -1 0.34299779E-01 0.27492654E+03</pdfrwt>
<totfact> 0.36191415E+03</totfact>
</mgrwt>
</event>
<event>
 5    1  0.1162308E+001  0.2739651E+03  0.7818608E-02  0.1099032E+00
         -2   -1    0    0    0  501 -0.00000000000E+00  0.00000000000E+00  0.19656062915E+02  0.19656062915E+02  0.00000000000E+00 0. -1.
          2   -1    0    0  501    0  0.00000000000E+00 -0.00000000000E+00 -0.95462725627E+03  0.95462725627E+03  0.00000000000E+00 0. -1.
         35    2    1    2    0    0  0.00000000000E+00  0.00000000000E+00 -0.93497119336E+03  0.97428331919E+03  0.27396505916E+03 0.  0.
         25    1    3    3    0    0  0.97463277257E+01  0.44799421056E+02 -0.63663048925E+03  0.64946159153E+03  0.12000000000E+03 0.  0.
         25    1    3    3    0    0 -0.97463277257E+01 -0.44799421056E+02 -0.29834070411E+03  0.32482172766E+03  0.12000000000E+03 0.  0.
<mgrwt>
<rscale>  0 0.27396506E+03</rscale>
<asrwt>0</asrwt>
<pdfrwt beam="1">  1        2 0.14686566E+00 0.27396506E+03</pdfrwt>
<pdfrwt beam="2">  1       -2 0.30240112E-02 0.27396506E+03</pdfrwt>
<totfact> 0.11696364E+04</totfact>
</mgrwt>
</event>
<event>
 5    1  0.1162308E+001  0.2722556E+03  0.7818608E-02  0.1099996E+00
          2   -1    0    0  501    0  0.00000000000E+00  0.00000000000E+00  0.22980880329E+02  0.22980880329E+02  0.00000000000E+00 0. -1.
         -2   -1    0    0    0  501 -0.00000000000E+00 -0.00000000000E+00 -0.80635633194E+03  0.80635633194E+03  0.00000000000E+00 0. -1.
         35    2    1    2    0    0  0.00000000000E+00  0.00000000000E+00 -0.78337545161E+03  0.82933721227E+03  0.27225560319E+03 0.  0.
         25    1    3    3    0    0 -0.35448435650E+02  0.15630545962E+02 -0.54790235363E+03  0.56222583956E+03  0.12000000000E+03 0.  0.
         25    1    3    3    0    0  0.35448435650E+02 -0.15630545962E+02 -0.23547309798E+03  0.26711137271E+03  0.12000000000E+03 0.  0.
<mgrwt>
<rscale>  0 0.27225560E+03</rscale>
<asrwt>0</asrwt>
<pdfrwt beam="1">  1        2 0.35355199E-02 0.27225560E+03</pdfrwt>
<pdfrwt beam="2">  1       -2 0.12405483E+00 0.27225560E+03</pdfrwt>
<totfact> 0.12815437E+03</totfact>
</mgrwt>
</event>
<event>
 5    1  0.1162308E+001  0.2758101E+03  0.7818608E-02  0.1098000E+00
         -1   -1    0    0    0  501 -0.00000000000E+00  0.00000000000E+00  0.57943108743E+03  0.57943108743E+03  0.00000000000E+00 0. -1.
          1   -1    0    0  501    0  0.00000000000E+00 -0.00000000000E+00 -0.32821516846E+02  0.32821516846E+02  0.00000000000E+00 0. -1.
         35    2    1    2    0    0  0.00000000000E+00  0.00000000000E+00  0.54660957059E+03  0.61225260428E+03  0.27581013178E+03 0.  0.
         25    1    3    3    0    0  0.40910555109E+02  0.25899059385E+02  0.37914621971E+03  0.40061988308E+03  0.12000000000E+03 0.  0.
         25    1    3    3    0    0 -0.40910555109E+02 -0.25899059385E+02  0.16746335087E+03  0.21163272120E+03  0.12000000000E+03 0.  0.
<mgrwt>
<rscale>  0 0.27581013E+03</rscale>
<asrwt>0</asrwt>
<pdfrwt beam="1">  1        1 0.50494646E-02 0.27581013E+03</pdfrwt>
<pdfrwt beam="2">  1       -1 0.89143237E-01 0.27581013E+03</pdfrwt>
<totfact> 0.21267133E+03</totfact>
</mgrwt>
</event>
<event>
 5    1  0.1162308E+001  0.2755744E+03  0.7818608E-02  0.1098131E+00
         -1   -1    0    0    0  501 -0.00000000000E+00  0.00000000000E+00  0.26835551805E+02  0.26835551805E+02  0.00000000000E+00 0.  1.
          1   -1    0    0  501    0  0.00000000000E+00 -0.00000000000E+00 -0.70746862139E+03  0.70746862139E+03  0.00000000000E+00 0.  1.
         35    2    1    2    0    0  0.00000000000E+00  0.00000000000E+00 -0.68063306959E+03  0.73430417320E+03  0.27557438807E+03 0.  0.
         25    1    3    3    0    0 -0.54574676590E+02  0.27905490953E+02 -0.41700049250E+03  0.43823112908E+03  0.12000000000E+03 0.  0.
         25    1    3    3    0    0  0.54574676590E+02 -0.27905490953E+02 -0.26363257709E+03  0.29607304412E+03  0.12000000000E+03 0.  0.
<mgrwt>
<rscale>  0 0.27557439E+03</rscale>
<asrwt>0</asrwt>
<pdfrwt beam="1">  1        1 0.10884131E+00 0.27557439E+03</pdfrwt>
<pdfrwt beam="2">  1       -1 0.41285469E-02 0.27557439E+03</pdfrwt>
<totfact> 0.64929549E+03</totfact>
</mgrwt>
</event>
<event>
 5    1  0.1162308E+001  0.2754710E+03  0.7818608E-02  0.1098189E+00
          1   -1    0    0  501    0  0.00000000000E+00  0.00000000000E+00  0.96269843068E+03  0.96269843068E+03  0.00000000000E+00 0.  1.
         -1   -1    0    0    0  501 -0.00000000000E+00 -0.00000000000E+00 -0.19706131975E+02  0.19706131975E+02  0.00000000000E+00 0.  1.
         35    2    1    2    0    0  0.00000000000E+00  0.00000000000E+00  0.94299229870E+03  0.98240456265E+03  0.27547095910E+03 0.  0.
         25    1    3    3    0    0  0.49726837387E+02 -0.20771897214E+02  0.61709585530E+03  0.63096079490E+03  0.12000000000E+03 0.  0.
         25    1    3    3    0    0 -0.49726837387E+02  0.20771897214E+02  0.32589644340E+03  0.35144376775E+03  0.12000000000E+03 0.  0.
<mgrwt>
<rscale>  0 0.27547096E+03</rscale>
<asrwt>0</asrwt>
<pdfrwt beam="1">  1        1 0.14810741E+00 0.27547096E+03</pdfrwt>
<pdfrwt beam="2">  1       -1 0.30317134E-02 0.27547096E+03</pdfrwt>
<totfact> 0.63336397E+03</totfact>
</mgrwt>
</event>
<event>
 5    1  0.1162308E+001  0.2739212E+03  0.7818608E-02  0.1099056E+00
         -2   -1    0    0    0  501 -0.00000000000E+00  0.00000000000E+00  0.23701887828E+02  0.23701887828E+02  0.00000000000E+00 0.  1.
          2   -1    0    0  501    0  0.00000000000E+00 -0.00000000000E+00 -0.79142230706E+03  0.79142230706E+03  0.00000000000E+00 0.  1.
         35    2    1    2    0    0  0.00000000000E+00  0.00000000000E+00 -0.76772041923E+03  0.81512419489E+03  0.27392117659E+03 0.  0.
         25    1    3    3    0    0  0.22782428084E+02 -0.58469732054E+02 -0.44487814349E+03  0.46503151630E+03  0.12000000000E+03 0.  0.
         25    1    3    3    0    0 -0.22782428084E+02  0.58469732054E+02 -0.32284227575E+03  0.35009267859E+03  0.12000000000E+03 0.  0.
<mgrwt>
<rscale>  0 0.27392118E+03</rscale>
<asrwt>0</asrwt>
<pdfrwt beam="1">  1        2 0.12175729E+00 0.27392118E+03</pdfrwt>
<pdfrwt beam="2">  1       -2 0.36464438E-02 0.27392118E+03</pdfrwt>
<totfact> 0.11325676E+04</totfact>
</mgrwt>
</event>
<event>
 5    1  0.1162308E+001  0.2752459E+03  0.7818608E-02  0.1098314E+00
          2   -1    0    0  501    0  0.00000000000E+00  0.00000000000E+00  0.75228318514E+03  0.75228318514E+03  0.00000000000E+00 0.  1.
         -2   -1    0    0    0  501 -0.00000000000E+00 -0.00000000000E+00 -0.25176786417E+02  0.25176786417E+02  0.00000000000E+00 0.  1.
         35    2    1    2    0    0  0.00000000000E+00  0.00000000000E+00  0.72710639872E+03  0.77745997156E+03  0.27524587610E+03 0.  0.
         25    1    3    3    0    0  0.46783270409E+02 -0.33788276650E+02  0.46179701487E+03  0.48061086647E+03  0.12000000000E+03 0.  0.
         25    1    3    3    0    0 -0.46783270409E+02  0.33788276650E+02  0.26530938385E+03  0.29684910509E+03  0.12000000000E+03 0.  0.
<mgrwt>
<rscale>  0 0.27524588E+03</rscale>
<asrwt>0</asrwt>
<pdfrwt beam="1">  1        2 0.11573586E+00 0.27524588E+03</pdfrwt>
<pdfrwt beam="2">  1       -2 0.38733523E-02 0.27524588E+03</pdfrwt>
<totfact> 0.11026910E+04</totfact>
</mgrwt>
</event>
<event>
 5    1  0.1162308E+001  0.2741786E+03  0.7818608E-02  0.1098912E+00
          2   -1    0    0  501    0  0.00000000000E+00  0.00000000000E+00  0.74457414562E+02  0.74457414562E+02  0.00000000000E+00 0.  1.
         -2   -1    0    0    0  501 -0.00000000000E+00 -0.00000000000E+00 -0.25240561342E+03  0.25240561342E+03  0.00000000000E+00 0.  1.
         35    2    1    2    0    0  0.00000000000E+00  0.00000000000E+00 -0.17794819885E+03  0.32686302798E+03  0.27417855055E+03 0.  0.
         25    1    3    3    0    0  0.40693873672E+02  0.38817235309E+02 -0.47151745413E+02  0.14066291696E+03  0.12000000000E+03 0.  0.
         25    1    3    3    0    0 -0.40693873672E+02 -0.38817235309E+02 -0.13079645344E+03  0.18620011102E+03  0.12000000000E+03 0.  0.
<mgrwt>
<rscale>  0 0.27417855E+03</rscale>
<asrwt>0</asrwt>
<pdfrwt beam="1">  1        2 0.11454987E-01 0.27417855E+03</pdfrwt>
<pdfrwt beam="2">  1       -2 0.38831633E-01 0.27417855E+03</pdfrwt>
<totfact> 0.33965111E+03</totfact>
</mgrwt>
</event>
<event>
 5    1  0.1162308E+001  0.2779601E+03  0.7818608E-02  0.1096808E+00
         -2   -1    0    0    0  501 -0.00000000000E+00  0.00000000000E+00  0.65351369655E+02  0.65351369655E+02  0.00000000000E+00 0. -1.
          2   -1    0    0  501    0  0.00000000000E+00 -0.00000000000E+00 -0.29556321535E+03  0.29556321535E+03  0.00000000000E+00 0. -1.
         35    2    1    2    0    0  0.00000000000E+00  0.00000000000E+00 -0.23021184570E+03  0.36091458501E+03  0.27796014781E+03 0.  0.
         25    1    3    3    0    0  0.56886661570E-01  0.51140441103E+02 -0.17737844907E+03  0.22017825085E+03  0.12000000000E+03 0.  0.
         25    1    3    3    0    0 -0.56886661570E-01 -0.51140441103E+02 -0.52833396621E+02  0.14073633415E+03  0.12000000000E+03 0.  0.
<mgrwt>
<rscale>  0 0.27796015E+03</rscale>
<asrwt>0</asrwt>
<pdfrwt beam="1">  1        2 0.45471264E-01 0.27796015E+03</pdfrwt>
<pdfrwt beam="2">  1       -2 0.10054057E-01 0.27796015E+03</pdfrwt>
<totfact> 0.72605589E+03</totfact>
</mgrwt>
</event>
<event>
 5    1  0.1162308E+001  0.2750579E+03  0.7818608E-02  0.1098419E+00
          1   -1    0    0  501    0  0.00000000000E+00  0.00000000000E+00  0.29939897869E+03  0.29939897869E+03  0.00000000000E+00 0.  1.
         -1   -1    0    0    0  501 -0.00000000000E+00 -0.00000000000E+00 -0.63173919018E+02  0.63173919018E+02  0.00000000000E+00 0.  1.
         35    2    1    2    0    0  0.00000000000E+00  0.00000000000E+00  0.23622505967E+03  0.36257289771E+03  0.27505786180E+03 0.  0.
         25    1    3    3    0    0  0.47269171575E+02 -0.45398634760E+02  0.98614479977E+02  0.16858299523E+03  0.12000000000E+03 0.  0.
         25    1    3    3    0    0 -0.47269171575E+02  0.45398634760E+02  0.13761057970E+03  0.19398990248E+03  0.12000000000E+03 0.  0.
<mgrwt>
<rscale>  0 0.27505786E+03</rscale>
<asrwt>0</asrwt>
<pdfrwt beam="1">  1        1 0.46061381E-01 0.27505786E+03</pdfrwt>
<pdfrwt beam="2">  1       -1 0.97190646E-02 0.27505786E+03</pdfrwt>
<totfact> 0.55602633E+03</totfact>
</mgrwt>
</event>
<event>
 5    1  0.1162308E+001  0.2751342E+03  0.7818608E-02  0.1098377E+00
          2   -1    0    0  501    0  0.00000000000E+00  0.00000000000E+00  0.54800366344E+03  0.54800366344E+03  0.00000000000E+00 0.  1.
         -2   -1    0    0    0  501 -0.00000000000E+00 -0.00000000000E+00 -0.34533905070E+02  0.34533905070E+02  0.00000000000E+00 0.  1.
         35    2    1    2    0    0  0.00000000000E+00  0.00000000000E+00  0.51346975837E+03  0.58253756851E+03  0.27513419629E+03 0.  0.
         25    1    3    3    0    0 -0.40922595668E+02 -0.51163382169E+02  0.22446061913E+03  0.26282107992E+03  0.12000000000E+03 0.  0.
         25    1    3    3    0    0  0.40922595668E+02  0.51163382169E+02  0.28900913924E+03  0.31971648859E+03  0.12000000000E+03 0.  0.
<mgrwt>
<rscale>  0 0.27513420E+03</rscale>
<asrwt>0</asrwt>
<pdfrwt beam="1">  1        2 0.84308250E-01 0.27513420E+03</pdfrwt>
<pdfrwt beam="2">  1       -2 0.53129089E-02 0.27513420E+03</pdfrwt>
<totfact> 0.99517218E+03</totfact>
</mgrwt>
</event>
<event>
 5    1  0.1162308E+001  0.2745898E+03  0.7818608E-02  0.1098681E+00
         -1   -1    0    0    0  501 -0.00000000000E+00  0.00000000000E+00  0.13246212069E+02  0.13246212069E+02  0.00000000000E+00 0.  1.
          1   -1    0    0  501    0  0.00000000000E+00 -0.00000000000E+00 -0.14230398148E+04  0.14230398148E+04  0.00000000000E+00 0.  1.
         35    2    1    2    0    0  0.00000000000E+00  0.00000000000E+00 -0.14097936028E+04  0.14362860269E+04  0.27458978254E+03 0.  0.
         25    1    3    3    0    0 -0.53951682558E+02 -0.38861441006E+02 -0.73301203957E+03  0.74573966356E+03  0.12000000000E+03 0.  0.
         25    1    3    3    0    0  0.53951682558E+02  0.38861441006E+02 -0.67678156318E+03  0.69054636333E+03  0.12000000000E+03 0.  0.
<mgrwt>
<rscale>  0 0.27458978E+03</rscale>
<asrwt>0</asrwt>
<pdfrwt beam="1">  1        1 0.21892912E+00 0.27458978E+03</pdfrwt>
<pdfrwt beam="2">  1       -1 0.20378795E-02 0.27458978E+03</pdfrwt>
<totfact> 0.53726677E+03</totfact>
</mgrwt>
</event>
<event>
 5    1  0.1162308E+001  0.2749373E+03  0.7818608E-02  0.1098487E+00
         -2   -1    0    0    0  501 -0.00000000000E+00  0.00000000000E+00  0.81606510846E+01  0.81606510846E+01  0.00000000000E+00 0.  1.
          2   -1    0    0  501    0  0.00000000000E+00 -0.00000000000E+00 -0.23157020487E+04  0.23157020487E+04  0.00000000000E+00 0.  1.
         35    2    1    2    0    0  0.00000000000E+00  0.00000000000E+00 -0.23075413976E+04  0.23238626997E+04  0.27493734875E+03 0.  0.
         25    1    3    3    0    0 -0.62904862695E+02  0.23133681149E+02 -0.11734983137E+04  0.11815204109E+04  0.12000000000E+03 0.  0.
         25    1    3    3    0    0  0.62904862695E+02 -0.23133681149E+02 -0.11340430838E+04  0.11423422889E+04  0.12000000000E+03 0.  0.
<mgrwt>
<rscale>  0 0.27493735E+03</rscale>
<asrwt>0</asrwt>
<pdfrwt beam="1">  1        2 0.35626204E+00 0.27493735E+03</pdfrwt>
<pdfrwt beam="2">  1       -2 0.12554841E-02 0.27493735E+03</pdfrwt>
<totfact> 0.77280823E+03</totfact>
</mgrwt>
</event>
<event>
 5    1  0.1162308E+001  0.2759576E+03  0.7818608E-02  0.1097918E+00
          2   -1    0    0  501    0  0.00000000000E+00  0.00000000000E+00  0.10758217957E+04  0.10758217957E+04  0.00000000000E+00 0.  1.
         -2   -1    0    0    0  501 -0.00000000000E+00 -0.00000000000E+00 -0.17696377264E+02  0.17696377264E+02  0.00000000000E+00 0.  1.
         35    2    1    2    0    0  0.00000000000E+00  0.00000000000E+00  0.10581254185E+04  0.10935181730E+04  0.27595759360E+03 0.  0.
         25    1    3    3    0    0 -0.43479571054E+02  0.51982658829E+02  0.50233963162E+03  0.52090092668E+03  0.12000000000E+03 0.  0.
         25    1    3    3    0    0  0.43479571054E+02 -0.51982658829E+02  0.55578578684E+03  0.57261724631E+03  0.12000000000E+03 0.  0.
<mgrwt>
<rscale>  0 0.27595759E+03</rscale>
<asrwt>0</asrwt>
<pdfrwt beam="1">  1        2 0.16551099E+00 0.27595759E+03</pdfrwt>
<pdfrwt beam="2">  1       -2 0.27225204E-02 0.27595759E+03</pdfrwt>
<totfact> 0.11538691E+04</totfact>
</mgrwt>
</event>
<event>
 5    1  0.1162308E+001  0.2751449E+03  0.7818608E-02  0.1098371E+00
         -2   -1    0    0    0  501 -0.00000000000E+00  0.00000000000E+00  0.32462898427E+02  0.32462898427E+02  0.00000000000E+00 0. -1.
          2   -1    0    0  501    0  0.00000000000E+00 -0.00000000000E+00 -0.58300969867E+03  0.58300969867E+03  0.00000000000E+00 0. -1.
         35    2    1    2    0    0  0.00000000000E+00  0.00000000000E+00 -0.55054680025E+03  0.61547259710E+03  0.27514494093E+03 0.  0.
         25    1    3    3    0    0  0.40209408505E+02  0.47214530870E+01 -0.15508078060E+03  0.20022271890E+03  0.12000000000E+03 0.  0.
         25    1    3    3    0    0 -0.40209408505E+02 -0.47214530870E+01 -0.39546601964E+03  0.41524987820E+03  0.12000000000E+03 0.  0.
<mgrwt>
<rscale>  0 0.27514494E+03</rscale>
<asrwt>0</asrwt>
<pdfrwt beam="1">  1        2 0.89693801E-01 0.27514494E+03</pdfrwt>
<pdfrwt beam="2">  1       -2 0.49942920E-02 0.27514494E+03</pdfrwt>
<totfact> 0.10185250E+04</totfact>
</mgrwt>
</event>
<event>
 5    1  0.1162308E+001  0.2756509E+03  0.7818608E-02  0.1098088E+00
         -2   -1    0    0    0  501 -0.00000000000E+00  0.00000000000E+00  0.52796555659E+02  0.52796555659E+02  0.00000000000E+00 0. -1.
          2   -1    0    0  501    0  0.00000000000E+00 -0.00000000000E+00 -0.35979332077E+03  0.35979332077E+03  0.00000000000E+00 0. -1.
         35    2    1    2    0    0  0.00000000000E+00  0.00000000000E+00 -0.30699676511E+03  0.41258987643E+03  0.27565085225E+03 0.  0.
         25    1    3    3    0    0 -0.65814585195E+02 -0.39457286654E+01 -0.12989282248E+03  0.18873069102E+03  0.12000000000E+03 0.  0.
         25    1    3    3    0    0  0.65814585195E+02  0.39457286654E+01 -0.17710394263E+03  0.22385918542E+03  0.12000000000E+03 0.  0.
<mgrwt>
<rscale>  0 0.27565085E+03</rscale>
<asrwt>0</asrwt>
<pdfrwt beam="1">  1        2 0.55352822E-01 0.27565085E+03</pdfrwt>
<pdfrwt beam="2">  1       -2 0.81225465E-02 0.27565085E+03</pdfrwt>
<totfact> 0.82209338E+03</totfact>
</mgrwt>
</event>
<event>
 5    1  0.1162308E+001  0.2733002E+03  0.7818608E-02  0.1099406E+00
          3   -1    0    0  501    0  0.00000000000E+00  0.00000000000E+00  0.85559304497E+02  0.85559304497E+02  0.00000000000E+00 0.  1.
         -3   -1    0    0    0  501 -0.00000000000E+00 -0.00000000000E+00 -0.21824925570E+03  0.21824925570E+03  0.00000000000E+00 0.  1.
         35    2    1    2    0    0  0.00000000000E+00  0.00000000000E+00 -0.13268995121E+03  0.30380856020E+03  0.27330023436E+03 0.  0.
         25    1    3    3    0    0 -0.24013526673E+02 -0.79741449438E+01 -0.13334790361E+03  0.18116815351E+03  0.12000000000E+03 0.  0.
         25    1    3    3    0    0  0.24013526673E+02  0.79741449438E+01  0.65795240200E+00  0.12264040669E+03  0.12000000000E+03 0.  0.
<mgrwt>
<rscale>  0 0.27330023E+03</rscale>
<asrwt>0</asrwt>
<pdfrwt beam="1">  1        3 0.13162970E-01 0.27330023E+03</pdfrwt>
<pdfrwt beam="2">  1       -3 0.33576809E-01 0.27330023E+03</pdfrwt>
<totfact> 0.10252902E+03</totfact>
</mgrwt>
</event>
<event>
 5    1  0.1162308E+001  0.2679498E+03  0.7818608E-02  0.1102459E+00
          2   -1    0    0  501    0  0.00000000000E+00  0.00000000000E+00  0.19428096141E+04  0.19428096141E+04  0.00000000000E+00 0. -1.
         -2   -1    0    0    0  501 -0.00000000000E+00 -0.00000000000E+00 -0.92388235966E+01  0.92388235966E+01  0.00000000000E+00 0. -1.
         35    2    1    2    0    0  0.00000000000E+00  0.00000000000E+00  0.19335707905E+04  0.19520484377E+04  0.26794981102E+03 0.  0.
         25    1    3    3    0    0  0.58806258775E+01  0.59256742236E+02  0.95348720444E+03  0.96285190569E+03  0.12000000000E+03 0.  0.
         25    1    3    3    0    0 -0.58806258775E+01 -0.59256742236E+02  0.98008358604E+03  0.98919653198E+03  0.12000000000E+03 0.  0.
<mgrwt>
<rscale>  0 0.26794981E+03</rscale>
<asrwt>0</asrwt>
<pdfrwt beam="1">  1        2 0.29889346E+00 0.26794981E+03</pdfrwt>
<pdfrwt beam="2">  1       -2 0.14213590E-02 0.26794981E+03</pdfrwt>
<totfact> 0.10160158E+04</totfact>
</mgrwt>
</event>
<event>
 5    1  0.1162308E+001  0.2771256E+03  0.7818608E-02  0.1097269E+00
         -1   -1    0    0    0  501 -0.00000000000E+00  0.00000000000E+00  0.23741461518E+02  0.23741461518E+02  0.00000000000E+00 0. -1.
          1   -1    0    0  501    0  0.00000000000E+00 -0.00000000000E+00 -0.80869682597E+03  0.80869682597E+03  0.00000000000E+00 0. -1.
         35    2    1    2    0    0  0.00000000000E+00  0.00000000000E+00 -0.78495536446E+03  0.83243828749E+03  0.27712556413E+03 0.  0.
         25    1    3    3    0    0 -0.43373504268E+02  0.29064895647E+02 -0.25569233521E+03  0.28723613860E+03  0.12000000000E+03 0.  0.
         25    1    3    3    0    0  0.43373504268E+02 -0.29064895647E+02 -0.52926302924E+03  0.54520214889E+03  0.12000000000E+03 0.  0.
<mgrwt>
<rscale>  0 0.27712556E+03</rscale>
<asrwt>0</asrwt>
<pdfrwt beam="1">  1        1 0.12441490E+00 0.27712556E+03</pdfrwt>
<pdfrwt beam="2">  1       -1 0.36525325E-02 0.27712556E+03</pdfrwt>
<totfact> 0.63706609E+03</totfact>
</mgrwt>
</event>
<event>
 5    1  0.1162308E+001  0.2745476E+03  0.7818608E-02  0.1098705E+00
         -2   -1    0    0    0  501 -0.00000000000E+00  0.00000000000E+00  0.66111614295E+01  0.66111614295E+01  0.00000000000E+00 0. -1.
          2   -1    0    0  501    0  0.00000000000E+00 -0.00000000000E+00 -0.28503459248E+04  0.28503459248E+04  0.00000000000E+00 0. -1.
         35    2    1    2    0    0  0.00000000000E+00  0.00000000000E+00 -0.28437347634E+04  0.28569570863E+04  0.27454760636E+03 0.  0.
         25    1    3    3    0    0  0.57730364075E+02 -0.13971165307E+02 -0.11069043766E+04  0.11149732227E+04  0.12000000000E+03 0.  0.
         25    1    3    3    0    0 -0.57730364075E+02  0.13971165307E+02 -0.17368303868E+04  0.17419838636E+04  0.12000000000E+03 0.  0.
<mgrwt>
<rscale>  0 0.27454761E+03</rscale>
<asrwt>0</asrwt>
<pdfrwt beam="1">  1        2 0.43851493E+00 0.27454761E+03</pdfrwt>
<pdfrwt beam="2">  1       -2 0.10171014E-02 0.27454761E+03</pdfrwt>
<totfact> 0.53022360E+03</totfact>
</mgrwt>
</event>
<event>
 5    1  0.1162308E+001  0.2746290E+03  0.7818608E-02  0.1098659E+00
          2   -1    0    0  501    0  0.00000000000E+00  0.00000000000E+00  0.10229824579E+04  0.10229824579E+04  0.00000000000E+00 0.  1.
         -2   -1    0    0    0  501 -0.00000000000E+00 -0.00000000000E+00 -0.18431662431E+02  0.18431662431E+02  0.00000000000E+00 0.  1.
         35    2    1    2    0    0  0.00000000000E+00  0.00000000000E+00  0.10045507955E+04  0.10414141203E+04  0.27462896669E+03 0.  0.
         25    1    3    3    0    0  0.58358696374E+02 -0.27390948608E+02  0.56787567635E+03  0.58398526120E+03  0.12000000000E+03 0.  0.
         25    1    3    3    0    0 -0.58358696374E+02  0.27390948608E+02  0.43667511911E+03  0.45742885912E+03  0.12000000000E+03 0.  0.
<mgrwt>
<rscale>  0 0.27462897E+03</rscale>
<asrwt>0</asrwt>
<pdfrwt beam="1">  1        2 0.15738187E+00 0.27462897E+03</pdfrwt>
<pdfrwt beam="2">  1       -2 0.28356412E-02 0.27462897E+03</pdfrwt>
<totfact> 0.11681948E+04</totfact>
</mgrwt>
</event>
<event>
 5    1  0.1162308E+001  0.2750212E+03  0.7818608E-02  0.1098440E+00
         -1   -1    0    0    0  501 -0.00000000000E+00  0.00000000000E+00  0.10959266063E+02  0.10959266063E+02  0.00000000000E+00 0. -1.
          1   -1    0    0  501    0  0.00000000000E+00 -0.00000000000E+00 -0.17254038681E+04  0.17254038681E+04  0.00000000000E+00 0. -1.
         35    2    1    2    0    0  0.00000000000E+00  0.00000000000E+00 -0.17144446020E+04  0.17363631342E+04  0.27502116323E+03 0.  0.
         25    1    3    3    0    0 -0.46471444872E+02 -0.45803643603E+02 -0.75707895935E+03  0.76930235905E+03  0.12000000000E+03 0.  0.
         25    1    3    3    0    0  0.46471444872E+02  0.45803643603E+02 -0.95736564269E+03  0.96706077511E+03  0.12000000000E+03 0.  0.
<mgrwt>
<rscale>  0 0.27502116E+03</rscale>
<asrwt>0</asrwt>
<pdfrwt beam="1">  1        1 0.26544673E+00 0.27502116E+03</pdfrwt>
<pdfrwt beam="2">  1       -1 0.16860411E-02 0.27502116E+03</pdfrwt>
<totfact> 0.44787492E+03</totfact>
</mgrwt>
</event>
<event>
 5    1  0.1162308E+001  0.2752513E+03  0.7818608E-02  0.1098311E+00
         -2   -1    0    0    0  501 -0.00000000000E+00  0.00000000000E+00  0.61044345426E+02  0.61044345426E+02  0.00000000000E+00 0. -1.
          2   -1    0    0  501    0  0.00000000000E+00 -0.00000000000E+00 -0.31027977843E+03  0.31027977843E+03  0.00000000000E+00 0. -1.
         35    2    1    2    0    0  0.00000000000E+00  0.00000000000E+00 -0.24923543300E+03  0.37132412386E+03  0.27525134676E+03 0.  0.
         25    1    3    3    0    0  0.59302288900E+02  0.31560355239E+02 -0.11747820501E+03  0.18086997027E+03  0.12000000000E+03 0.  0.
         25    1    3    3    0    0 -0.59302288900E+02 -0.31560355239E+02 -0.13175722799E+03  0.19045415359E+03  0.12000000000E+03 0.  0.
<mgrwt>
<rscale>  0 0.27525135E+03</rscale>
<asrwt>0</asrwt>
<pdfrwt beam="1">  1        2 0.47735351E-01 0.27525135E+03</pdfrwt>
<pdfrwt beam="2">  1       -2 0.93914377E-02 0.27525135E+03</pdfrwt>
<totfact> 0.76748193E+03</totfact>
</mgrwt>
</event>
<event>
 5    1  0.1162308E+001  0.2767357E+03  0.7818608E-02  0.1097485E+00
          2   -1    0    0  501    0  0.00000000000E+00  0.00000000000E+00  0.76757496812E+03  0.76757496812E+03  0.00000000000E+00 0. -1.
         -2   -1    0    0    0  501 -0.00000000000E+00 -0.00000000000E+00 -0.24943048883E+02  0.24943048883E+02  0.00000000000E+00 0. -1.
         35    2    1    2    0    0  0.00000000000E+00  0.00000000000E+00  0.74263191924E+03  0.79251801701E+03  0.27673568582E+03 0.  0.
         25    1    3    3    0    0 -0.25173049992E+02  0.23227012882E+02  0.54248652548E+03  0.55665501606E+03  0.12000000000E+03 0.  0.
         25    1    3    3    0    0  0.25173049992E+02 -0.23227012882E+02  0.20014539376E+03  0.23586300095E+03  0.12000000000E+03 0.  0.
<mgrwt>
<rscale>  0 0.27673569E+03</rscale>
<asrwt>0</asrwt>
<pdfrwt beam="1">  1        2 0.11808844E+00 0.27673569E+03</pdfrwt>
<pdfrwt beam="2">  1       -2 0.38373927E-02 0.27673569E+03</pdfrwt>
<totfact> 0.10907173E+04</totfact>
</mgrwt>
</event>
<event>
 5    1  0.1162308E+001  0.2726175E+03  0.7818608E-02  0.1099791E+00
         -2   -1    0    0    0  501 -0.00000000000E+00  0.00000000000E+00  0.31909239035E+02  0.31909239035E+02  0.00000000000E+00 0.  1.
          2   -1    0    0  501    0  0.00000000000E+00 -0.00000000000E+00 -0.58227901817E+03  0.58227901817E+03  0.00000000000E+00 0.  1.
         35    2    1    2    0    0  0.00000000000E+00  0.00000000000E+00 -0.55036977913E+03  0.61418825720E+03  0.27261753704E+03 0.  0.
         25    1    3    3    0    0  0.24052686113E+02 -0.20061321721E+02 -0.40261178033E+03  0.42128046952E+03  0.12000000000E+03 0.  0.
         25    1    3    3    0    0 -0.24052686113E+02  0.20061321721E+02 -0.14775799880E+03  0.19290778768E+03  0.12000000000E+03 0.  0.
<mgrwt>
<rscale>  0 0.27261754E+03</rscale>
<asrwt>0</asrwt>
<pdfrwt beam="1">  1        2 0.89581391E-01 0.27261754E+03</pdfrwt>
<pdfrwt beam="2">  1       -2 0.49091135E-02 0.27261754E+03</pdfrwt>
<totfact> 0.10466296E+04</totfact>
</mgrwt>
</event>
<event>
 5    1  0.1162308E+001  0.2749200E+03  0.7818608E-02  0.1098496E+00
          2   -1    0    0  501    0  0.00000000000E+00  0.00000000000E+00  0.45949034655E+03  0.45949034655E+03  0.00000000000E+00 0.  1.
         -2   -1    0    0    0  501 -0.00000000000E+00 -0.00000000000E+00 -0.41122201733E+02  0.41122201733E+02  0.00000000000E+00 0.  1.
         35    2    1    2    0    0  0.00000000000E+00  0.00000000000E+00  0.41836814481E+03  0.50061254828E+03  0.27492002273E+03 0.  0.
         25    1    3    3    0    0 -0.28748152392E+02  0.59402418464E+02  0.23074133822E+03  0.26832194981E+03  0.12000000000E+03 0.  0.
         25    1    3    3    0    0  0.28748152392E+02 -0.59402418464E+02  0.18762680660E+03  0.23229059847E+03  0.12000000000E+03 0.  0.
<mgrwt>
<rscale>  0 0.27492002E+03</rscale>
<asrwt>0</asrwt>
<pdfrwt beam="1">  1        2 0.70690819E-01 0.27492002E+03</pdfrwt>
<pdfrwt beam="2">  1       -2 0.63264929E-02 0.27492002E+03</pdfrwt>
<totfact> 0.92779029E+03</totfact>
</mgrwt>
</event>
<event>
 5    1  0.1162308E+001  0.2761542E+03  0.7818608E-02  0.1097808E+00
          2   -1    0    0  501    0  0.00000000000E+00  0.00000000000E+00  0.10537112981E+03  0.10537112981E+03  0.00000000000E+00 0.  1.
         -2   -1    0    0    0  501 -0.00000000000E+00 -0.00000000000E+00 -0.18093464165E+03  0.18093464165E+03  0.00000000000E+00 0.  1.
         35    2    1    2    0    0  0.00000000000E+00  0.00000000000E+00 -0.75563511848E+02  0.28630577146E+03  0.27615421498E+03 0.  0.
         25    1    3    3    0    0  0.65753758474E+02  0.18025221265E+02 -0.33529488611E+02  0.14203060220E+03  0.12000000000E+03 0.  0.
         25    1    3    3    0    0 -0.65753758474E+02 -0.18025221265E+02 -0.42034023237E+02  0.14427516926E+03  0.12000000000E+03 0.  0.
<mgrwt>
<rscale>  0 0.27615421E+03</rscale>
<asrwt>0</asrwt>
<pdfrwt beam="1">  1        2 0.16210943E-01 0.27615421E+03</pdfrwt>
<pdfrwt beam="2">  1       -2 0.27836099E-01 0.27615421E+03</pdfrwt>
<totfact> 0.41404036E+03</totfact>
</mgrwt>
</event>
<event>
 5    1  0.1162308E+001  0.2721432E+03  0.7818608E-02  0.1100059E+00
          2   -1    0    0  501    0  0.00000000000E+00  0.00000000000E+00  0.15640849737E+04  0.15640849737E+04  0.00000000000E+00 0. -1.
         -2   -1    0    0    0  501 -0.00000000000E+00 -0.00000000000E+00 -0.11837897977E+02  0.11837897977E+02  0.00000000000E+00 0. -1.
         35    2    1    2    0    0  0.00000000000E+00  0.00000000000E+00  0.15522470757E+04  0.15759228717E+04  0.27214318545E+03 0.  0.
         25    1    3    3    0    0 -0.62261050193E+02  0.14675406299E+02  0.80429820995E+03  0.81571282719E+03  0.12000000000E+03 0.  0.
         25    1    3    3    0    0  0.62261050193E+02 -0.14675406299E+02  0.74794886577E+03  0.76021004448E+03  0.12000000000E+03 0.  0.
<mgrwt>
<rscale>  0 0.27214319E+03</rscale>
<asrwt>0</asrwt>
<pdfrwt beam="1">  1        2 0.24062829E+00 0.27214319E+03</pdfrwt>
<pdfrwt beam="2">  1       -2 0.18212163E-02 0.27214319E+03</pdfrwt>
<totfact> 0.11186154E+04</totfact>
</mgrwt>
</event>
<event>
 5    1  0.1162308E+001  0.2753829E+03  0.7818608E-02  0.1098238E+00
          3   -1    0    0  501    0  0.00000000000E+00  0.00000000000E+00  0.22800268322E+04  0.22800268322E+04  0.00000000000E+00 0.  1.
         -3   -1    0    0    0  501 -0.00000000000E+00 -0.00000000000E+00 -0.83152236755E+01  0.83152236755E+01  0.00000000000E+00 0.  1.
         35    2    1    2    0    0  0.00000000000E+00  0.00000000000E+00  0.22717116085E+04  0.22883420559E+04  0.27538288324E+03 0.  0.
         25    1    3    3    0    0  0.18775994013E+02 -0.66939613711E+01  0.59979576000E+03  0.61200678165E+03  0.12000000000E+03 0.  0.
         25    1    3    3    0    0 -0.18775994013E+02  0.66939613711E+01  0.16719158485E+04  0.16763352742E+04  0.12000000000E+03 0.  0.
<mgrwt>
<rscale>  0 0.27538288E+03</rscale>
<asrwt>0</asrwt>
<pdfrwt beam="1">  1        3 0.35077286E+00 0.27538288E+03</pdfrwt>
<pdfrwt beam="2">  1       -3 0.12792670E-02 0.27538288E+03</pdfrwt>
<totfact> 0.11521131E+02</totfact>
</mgrwt>
</event>
<event>
 5    1  0.1162308E+001  0.2751041E+03  0.7818608E-02  0.1098393E+00
         -1   -1    0    0    0  501 -0.00000000000E+00  0.00000000000E+00  0.20199774310E+02  0.20199774310E+02  0.00000000000E+00 0. -1.
          1   -1    0    0  501    0  0.00000000000E+00 -0.00000000000E+00 -0.93667230590E+03  0.93667230590E+03  0.00000000000E+00 0. -1.
         35    2    1    2    0    0  0.00000000000E+00  0.00000000000E+00 -0.91647253159E+03  0.95687208021E+03  0.27510411979E+03 0.  0.
         25    1    3    3    0    0 -0.44694153782E+02 -0.26975721545E+02 -0.31086025886E+03  0.33728231124E+03  0.12000000000E+03 0.  0.
         25    1    3    3    0    0  0.44694153782E+02  0.26975721545E+02 -0.60561227273E+03  0.61958976898E+03  0.12000000000E+03 0.  0.
<mgrwt>
<rscale>  0 0.27510412E+03</rscale>
<asrwt>0</asrwt>
<pdfrwt beam="1">  1        1 0.14410343E+00 0.27510412E+03</pdfrwt>
<pdfrwt beam="2">  1       -1 0.31076576E-02 0.27510412E+03</pdfrwt>
<totfact> 0.63930903E+03</totfact>
</mgrwt>
</event>
<event>
 5    1  0.1162308E+001  0.2750948E+03  0.7818608E-02  0.1098399E+00
         -3   -1    0    0    0  501 -0.00000000000E+00  0.00000000000E+00  0.14496509957E+02  0.14496509957E+02  0.00000000000E+00 0.  1.
          3   -1    0    0  501    0  0.00000000000E+00 -0.00000000000E+00 -0.13050928077E+04  0.13050928077E+04  0.00000000000E+00 0.  1.
         35    2    1    2    0    0  0.00000000000E+00  0.00000000000E+00 -0.12905962977E+04  0.13195893176E+04  0.27509482642E+03 0.  0.
         25    1    3    3    0    0 -0.16447272663E+02 -0.46137767381E+02 -0.42443006868E+03  0.44377932529E+03  0.12000000000E+03 0.  0.
         25    1    3    3    0    0  0.16447272663E+02  0.46137767381E+02 -0.86616622902E+03  0.87580999232E+03  0.12000000000E+03 0.  0.
<mgrwt>
<rscale>  0 0.27509483E+03</rscale>
<asrwt>0</asrwt>
<pdfrwt beam="1">  1        3 0.20078357E+00 0.27509483E+03</pdfrwt>
<pdfrwt beam="2">  1       -3 0.22302316E-02 0.27509483E+03</pdfrwt>
<totfact> 0.32396526E+02</totfact>
</mgrwt>
</event>
<event>
 5    1  0.1162308E+001  0.2753129E+03  0.7818608E-02  0.1098277E+00
          1   -1    0    0  501    0  0.00000000000E+00  0.00000000000E+00  0.62098038406E+03  0.62098038406E+03  0.00000000000E+00 0. -1.
         -1   -1    0    0    0  501 -0.00000000000E+00 -0.00000000000E+00 -0.30515137494E+02  0.30515137494E+02  0.00000000000E+00 0. -1.
         35    2    1    2    0    0  0.00000000000E+00  0.00000000000E+00  0.59046524656E+03  0.65149552155E+03  0.27531292596E+03 0.  0.
         25    1    3    3    0    0 -0.99534577582E+01 -0.55028871462E+02  0.20599605841E+03  0.24487062726E+03  0.12000000000E+03 0.  0.
         25    1    3    3    0    0  0.99534577582E+01  0.55028871462E+02  0.38446918815E+03  0.40662489429E+03  0.12000000000E+03 0.  0.
<mgrwt>
<rscale>  0 0.27531293E+03</rscale>
<asrwt>0</asrwt>
<pdfrwt beam="1">  1        1 0.95535434E-01 0.27531293E+03</pdfrwt>
<pdfrwt beam="2">  1       -1 0.46946370E-02 0.27531293E+03</pdfrwt>
<totfact> 0.64613933E+03</totfact>
</mgrwt>
</event>
<event>
 5    1  0.1162308E+001  0.2738642E+03  0.7818608E-02  0.1099088E+00
          2   -1    0    0  501    0  0.00000000000E+00  0.00000000000E+00  0.17921129291E+03  0.17921129291E+03  0.00000000000E+00 0.  1.
         -2   -1    0    0    0  501 -0.00000000000E+00 -0.00000000000E+00 -0.10462732629E+03  0.10462732629E+03  0.00000000000E+00 0.  1.
         35    2    1    2    0    0  0.00000000000E+00  0.00000000000E+00  0.74583966621E+02  0.28383861919E+03  0.27386418837E+03 0.  0.
         25    1    3    3    0    0 -0.16375304376E+02 -0.59229381560E+02  0.12458326616E+02  0.13539379652E+03  0.12000000000E+03 0.  0.
         25    1    3    3    0    0  0.16375304376E+02  0.59229381560E+02  0.62125640005E+02  0.14844482268E+03  0.12000000000E+03 0.  0.
<mgrwt>
<rscale>  0 0.27386419E+03</rscale>
<asrwt>0</asrwt>
<pdfrwt beam="1">  1        2 0.27570968E-01 0.27386419E+03</pdfrwt>
<pdfrwt beam="2">  1       -2 0.16096512E-01 0.27386419E+03</pdfrwt>
<totfact> 0.58166153E+03</totfact>
</mgrwt>
</event>
<event>
 5    1  0.1162308E+001  0.2747220E+03  0.7818608E-02  0.1098607E+00
          1   -1    0    0  501    0  0.00000000000E+00  0.00000000000E+00  0.16571789650E+03  0.16571789650E+03  0.00000000000E+00 0.  1.
         -1   -1    0    0    0  501 -0.00000000000E+00 -0.00000000000E+00 -0.11385642899E+03  0.11385642899E+03  0.00000000000E+00 0.  1.
         35    2    1    2    0    0  0.00000000000E+00  0.00000000000E+00  0.51861467513E+02  0.27957432548E+03  0.27472202616E+03 0.  0.
         25    1    3    3    0    0  0.84178014157E+01 -0.10058231156E+02 -0.40770977865E+02  0.12741389261E+03  0.12000000000E+03 0.  0.
         25    1    3    3    0    0 -0.84178014157E+01  0.10058231156E+02  0.92632445378E+02  0.15216043287E+03  0.12000000000E+03 0.  0.
<mgrwt>
<rscale>  0 0.27472203E+03</rscale>
<asrwt>0</asrwt>
<pdfrwt beam="1">  1        1 0.25495061E-01 0.27472203E+03</pdfrwt>
<pdfrwt beam="2">  1       -1 0.17516374E-01 0.27472203E+03</pdfrwt>
<totfact> 0.46388765E+03</totfact>
</mgrwt>
</event>
<event>
 5    1  0.1162308E+001  0.2753591E+03  0.7818608E-02  0.1098251E+00
         -2   -1    0    0    0  501 -0.00000000000E+00  0.00000000000E+00  0.10698909010E+02  0.10698909010E+02  0.00000000000E+00 0. -1.
          2   -1    0    0  501    0  0.00000000000E+00 -0.00000000000E+00 -0.17717378920E+04  0.17717378920E+04  0.00000000000E+00 0. -1.
         35    2    1    2    0    0  0.00000000000E+00  0.00000000000E+00 -0.17610389830E+04  0.17824368010E+04  0.27535912911E+03 0.  0.
         25    1    3    3    0    0 -0.65172999906E+02 -0.10358132478E+02 -0.78878083284E+03  0.80058104716E+03  0.12000000000E+03 0.  0.
         25    1    3    3    0    0  0.65172999906E+02  0.10358132478E+02 -0.97225815016E+03  0.98185575385E+03  0.12000000000E+03 0.  0.
<mgrwt>
<rscale>  0 0.27535913E+03</rscale>
<asrwt>0</asrwt>
<pdfrwt beam="1">  1        2 0.27257483E+00 0.27535913E+03</pdfrwt>
<pdfrwt beam="2">  1       -2 0.16459874E-02 0.27535913E+03</pdfrwt>
<totfact> 0.10083615E+04</totfact>
</mgrwt>
</event>
<event>
 5    1  0.1162308E+001  0.2745537E+03  0.7818608E-02  0.1098701E+00
          2   -1    0    0  501    0  0.00000000000E+00  0.00000000000E+00  0.10686051718E+04  0.10686051718E+04  0.00000000000E+00 0.  1.
         -2   -1    0    0    0  501 -0.00000000000E+00 -0.00000000000E+00 -0.17635076530E+02  0.17635076530E+02  0.00000000000E+00 0.  1.
         35    2    1    2    0    0  0.00000000000E+00  0.00000000000E+00  0.10509700953E+04  0.10862402484E+04  0.27455370320E+03 0.  0.
         25    1    3    3    0    0 -0.23762031342E+00  0.30569939359E-01  0.26171320188E+03  0.28791293378E+03  0.12000000000E+03 0.  0.
         25    1    3    3    0    0  0.23762031342E+00 -0.30569939359E-01  0.78925689342E+03  0.79832731459E+03  0.12000000000E+03 0.  0.
<mgrwt>
<rscale>  0 0.27455370E+03</rscale>
<asrwt>0</asrwt>
<pdfrwt beam="1">  1        2 0.16440075E+00 0.27455370E+03</pdfrwt>
<pdfrwt beam="2">  1       -2 0.27130895E-02 0.27455370E+03</pdfrwt>
<totfact> 0.11711436E+04</totfact>
</mgrwt>
</event>
<event>
 5    1  0.1162308E+001  0.2739344E+03  0.7818608E-02  0.1099049E+00
          2   -1    0    0  501    0  0.00000000000E+00  0.00000000000E+00  0.13372714145E+04  0.13372714145E+04  0.00000000000E+00 0. -1.
         -2   -1    0    0    0  501 -0.00000000000E+00 -0.00000000000E+00 -0.14028578739E+02  0.14028578739E+02  0.00000000000E+00 0. -1.
         35    2    1    2    0    0  0.00000000000E+00  0.00000000000E+00  0.13232428357E+04  0.13512999932E+04  0.27393442524E+03 0.  0.
         25    1    3    3    0    0 -0.53783155877E+02  0.21485231742E+02  0.50517867306E+03  0.52245548590E+03  0.12000000000E+03 0.  0.
         25    1    3    3    0    0  0.53783155877E+02 -0.21485231742E+02  0.81806416268E+03  0.82884450731E+03  0.12000000000E+03 0.  0.
<mgrwt>
<rscale>  0 0.27393443E+03</rscale>
<asrwt>0</asrwt>
<pdfrwt beam="1">  1        2 0.20573396E+00 0.27393443E+03</pdfrwt>
<pdfrwt beam="2">  1       -2 0.21582440E-02 0.27393443E+03</pdfrwt>
<totfact> 0.11550321E+04</totfact>
</mgrwt>
</event>
<event>
 5    1  0.1162308E+001  0.2750816E+03  0.7818608E-02  0.1098406E+00
         -2   -1    0    0    0  501 -0.00000000000E+00  0.00000000000E+00  0.17057602550E+02  0.17057602550E+02  0.00000000000E+00 0. -1.
          2   -1    0    0  501    0  0.00000000000E+00 -0.00000000000E+00 -0.11090348574E+04  0.11090348574E+04  0.00000000000E+00 0. -1.
         35    2    1    2    0    0  0.00000000000E+00  0.00000000000E+00 -0.10919772549E+04  0.11260924600E+04  0.27508163015E+03 0.  0.
         25    1    3    3    0    0 -0.53425554125E+02 -0.33693547273E+02 -0.45192949212E+03  0.47183663572E+03  0.12000000000E+03 0.  0.
         25    1    3    3    0    0  0.53425554125E+02  0.33693547273E+02 -0.64004776273E+03  0.65425582423E+03  0.12000000000E+03 0.  0.
<mgrwt>
<rscale>  0 0.27508163E+03</rscale>
<asrwt>0</asrwt>
<pdfrwt beam="1">  1        2 0.17062083E+00 0.27508163E+03</pdfrwt>
<pdfrwt beam="2">  1       -2 0.26242452E-02 0.27508163E+03</pdfrwt>
<totfact> 0.11647270E+04</totfact>
</mgrwt>
</event>
<event>
 5    1  0.1162308E+001  0.2752424E+03  0.7818608E-02  0.1098316E+00
         -4   -1    0    0    0  501 -0.00000000000E+00  0.00000000000E+00  0.29043813299E+02  0.29043813299E+02  0.00000000000E+00 0.  1.
          4   -1    0    0  501    0  0.00000000000E+00 -0.00000000000E+00 -0.65210428083E+03  0.65210428083E+03  0.00000000000E+00 0.  1.
         35    2    1    2    0    0  0.00000000000E+00  0.00000000000E+00 -0.62306046753E+03  0.68114809413E+03  0.27524240214E+03 0.  0.
         25    1    3    3    0    0 -0.45403323390E+02  0.26952343601E+02 -0.41510563270E+03  0.43531663982E+03  0.12000000000E+03 0.  0.
         25    1    3    3    0    0  0.45403323390E+02 -0.26952343601E+02 -0.20795483483E+03  0.24583145431E+03  0.12000000000E+03 0.  0.
<mgrwt>
<rscale>  0 0.27524240E+03</rscale>
<asrwt>0</asrwt>
<pdfrwt beam="1">  1        4 0.10032374E+00 0.27524240E+03</pdfrwt>
<pdfrwt beam="2">  1       -4 0.44682789E-02 0.27524240E+03</pdfrwt>
<totfact> 0.45444393E+02</totfact>
</mgrwt>
</event>
<event>
 5    1  0.1162308E+001  0.2756423E+03  0.7818608E-02  0.1098093E+00
          1   -1    0    0  501    0  0.00000000000E+00  0.00000000000E+00  0.11958963460E+03  0.11958963460E+03  0.00000000000E+00 0.  1.
         -1   -1    0    0    0  501 -0.00000000000E+00 -0.00000000000E+00 -0.15883207634E+03  0.15883207634E+03  0.00000000000E+00 0.  1.
         35    2    1    2    0    0  0.00000000000E+00  0.00000000000E+00 -0.39242441737E+02  0.27842171094E+03  0.27564230425E+03 0.  0.
         25    1    3    3    0    0  0.58608148339E+02 -0.32424144215E+02 -0.30139181475E+02  0.14069332052E+03  0.12000000000E+03 0.  0.
         25    1    3    3    0    0 -0.58608148339E+02  0.32424144215E+02 -0.91032602616E+01  0.13772839042E+03  0.12000000000E+03 0.  0.
<mgrwt>
<rscale>  0 0.27564230E+03</rscale>
<asrwt>0</asrwt>
<pdfrwt beam="1">  1        1 0.18398405E-01 0.27564230E+03</pdfrwt>
<pdfrwt beam="2">  1       -1 0.24435704E-01 0.27564230E+03</pdfrwt>
<totfact> 0.40956217E+03</totfact>
</mgrwt>
</event>
<event>
 5    1  0.1162308E+001  0.2747733E+03  0.7818608E-02  0.1098578E+00
         -1   -1    0    0    0  501 -0.00000000000E+00  0.00000000000E+00  0.13826975522E+02  0.13826975522E+02  0.00000000000E+00 0.  1.
          1   -1    0    0  501    0  0.00000000000E+00 -0.00000000000E+00 -0.13650914455E+04  0.13650914455E+04  0.00000000000E+00 0.  1.
         35    2    1    2    0    0  0.00000000000E+00  0.00000000000E+00 -0.13512644700E+04  0.13789184210E+04  0.27477325927E+03 0.  0.
         25    1    3    3    0    0 -0.40518005974E+02 -0.17240159579E+02 -0.92835940056E+03  0.93711798004E+03  0.12000000000E+03 0.  0.
         25    1    3    3    0    0  0.40518005974E+02  0.17240159579E+02 -0.42290506941E+03  0.44180044097E+03  0.12000000000E+03 0.  0.
<mgrwt>
<rscale>  0 0.27477326E+03</rscale>
<asrwt>0</asrwt>
<pdfrwt beam="1">  1        1 0.21001408E+00 0.27477326E+03</pdfrwt>
<pdfrwt beam="2">  1       -1 0.21272269E-02 0.27477326E+03</pdfrwt>
<totfact> 0.55192866E+03</totfact>
</mgrwt>
</event>
<event>
 5    1  0.1162308E+001  0.2742634E+03  0.7818608E-02  0.1098864E+00
         -1   -1    0    0    0  501 -0.00000000000E+00  0.00000000000E+00  0.89375834140E+02  0.89375834140E+02  0.00000000000E+00 0.  1.
          1   -1    0    0  501    0  0.00000000000E+00 -0.00000000000E+00 -0.21040472724E+03  0.21040472724E+03  0.00000000000E+00 0.  1.
         35    2    1    2    0    0  0.00000000000E+00  0.00000000000E+00 -0.12102889310E+03  0.29978056138E+03  0.27426336251E+03 0.  0.
         25    1    3    3    0    0  0.61029538656E+02 -0.23670646255E+02 -0.72497760137E+02  0.15472824341E+03  0.12000000000E+03 0.  0.
         25    1    3    3    0    0 -0.61029538656E+02  0.23670646255E+02 -0.48531132961E+02  0.14505231797E+03  0.12000000000E+03 0.  0.
<mgrwt>
<rscale>  0 0.27426336E+03</rscale>
<asrwt>0</asrwt>
<pdfrwt beam="1">  1        1 0.32369958E-01 0.27426336E+03</pdfrwt>
<pdfrwt beam="2">  1       -1 0.13750128E-01 0.27426336E+03</pdfrwt>
<totfact> 0.50415572E+03</totfact>
</mgrwt>
</event>
<event>
 5    1  0.1162308E+001  0.2748592E+03  0.7818608E-02  0.1098530E+00
          2   -1    0    0  501    0  0.00000000000E+00  0.00000000000E+00  0.85672730471E+03  0.85672730471E+03  0.00000000000E+00 0.  1.
         -2   -1    0    0    0  501 -0.00000000000E+00 -0.00000000000E+00 -0.22045393740E+02  0.22045393740E+02  0.00000000000E+00 0.  1.
         35    2    1    2    0    0  0.00000000000E+00  0.00000000000E+00  0.83468191097E+03  0.87877269845E+03  0.27485916947E+03 0.  0.
         25    1    3    3    0    0  0.26443357835E+02 -0.55424613602E+02  0.50287668201E+03  0.52063047959E+03  0.12000000000E+03 0.  0.
         25    1    3    3    0    0 -0.26443357835E+02  0.55424613602E+02  0.33180522896E+03  0.35814221886E+03  0.12000000000E+03 0.  0.
<mgrwt>
<rscale>  0 0.27485917E+03</rscale>
<asrwt>0</asrwt>
<pdfrwt beam="1">  1        2 0.13180418E+00 0.27485917E+03</pdfrwt>
<pdfrwt beam="2">  1       -2 0.33915997E-02 0.27485917E+03</pdfrwt>
<totfact> 0.11398721E+04</totfact>
</mgrwt>
</event>
<event>
 5    1  0.1162308E+001  0.2750507E+03  0.7818608E-02  0.1098423E+00
          2   -1    0    0  501    0  0.00000000000E+00  0.00000000000E+00  0.17053980102E+04  0.17053980102E+04  0.00000000000E+00 0. -1.
         -2   -1    0    0    0  501 -0.00000000000E+00 -0.00000000000E+00 -0.11090213157E+02  0.11090213157E+02  0.00000000000E+00 0. -1.
         35    2    1    2    0    0  0.00000000000E+00  0.00000000000E+00  0.16943077971E+04  0.17164882234E+04  0.27505074042E+03 0.  0.
         25    1    3    3    0    0  0.51377566692E+02 -0.23992695724E+02  0.62232476758E+03  0.63632021825E+03  0.12000000000E+03 0.  0.
         25    1    3    3    0    0 -0.51377566692E+02  0.23992695724E+02  0.10719830295E+04  0.10801680051E+04  0.12000000000E+03 0.  0.
<mgrwt>
<rscale>  0 0.27505074E+03</rscale>
<asrwt>0</asrwt>
<pdfrwt beam="1">  1        2 0.26236872E+00 0.27505074E+03</pdfrwt>
<pdfrwt beam="2">  1       -2 0.17061880E-02 0.27505074E+03</pdfrwt>
<totfact> 0.10366403E+04</totfact>
</mgrwt>
</event>
<event>
 5    1  0.1162308E+001  0.2776119E+03  0.7818608E-02  0.1097000E+00
         -2   -1    0    0    0  501 -0.00000000000E+00  0.00000000000E+00  0.17737420639E+02  0.17737420639E+02  0.00000000000E+00 0.  1.
          2   -1    0    0  501    0  0.00000000000E+00 -0.00000000000E+00 -0.10862394414E+04  0.10862394414E+04  0.00000000000E+00 0.  1.
         35    2    1    2    0    0  0.00000000000E+00  0.00000000000E+00 -0.10685020207E+04  0.11039768620E+04  0.27761185772E+03 0.  0.
         25    1    3    3    0    0  0.61106482340E+02 -0.22118718404E+02 -0.43334594701E+03  0.45432581885E+03  0.12000000000E+03 0.  0.
         25    1    3    3    0    0 -0.61106482340E+02  0.22118718404E+02 -0.63515607371E+03  0.64965104315E+03  0.12000000000E+03 0.  0.
<mgrwt>
<rscale>  0 0.27761186E+03</rscale>
<asrwt>0</asrwt>
<pdfrwt beam="1">  1        2 0.16711375E+00 0.27761186E+03</pdfrwt>
<pdfrwt beam="2">  1       -2 0.27288341E-02 0.27761186E+03</pdfrwt>
<totfact> 0.11339011E+04</totfact>
</mgrwt>
</event>
<event>
 5    1  0.1162308E+001  0.2743610E+03  0.7818608E-02  0.1098809E+00
         -2   -1    0    0    0  501 -0.00000000000E+00  0.00000000000E+00  0.24049596480E+03  0.24049596480E+03  0.00000000000E+00 0.  1.
          2   -1    0    0  501    0  0.00000000000E+00 -0.00000000000E+00 -0.78248684744E+02  0.78248684744E+02  0.00000000000E+00 0.  1.
         35    2    1    2    0    0  0.00000000000E+00  0.00000000000E+00  0.16224728005E+03  0.31874464954E+03  0.27436102443E+03 0.  0.
         25    1    3    3    0    0  0.14148509702E+02  0.55653973550E+02  0.12002037865E+03  0.17917152784E+03  0.12000000000E+03 0.  0.
         25    1    3    3    0    0 -0.14148509702E+02 -0.55653973550E+02  0.42226901407E+02  0.13957312170E+03  0.12000000000E+03 0.  0.
<mgrwt>
<rscale>  0 0.27436102E+03</rscale>
<asrwt>0</asrwt>
<pdfrwt beam="1">  1        2 0.12038259E-01 0.27436102E+03</pdfrwt>
<pdfrwt beam="2">  1       -2 0.36999379E-01 0.27436102E+03</pdfrwt>
<totfact> 0.35027931E+03</totfact>
</mgrwt>
</event>
<event>
 5    1  0.1162308E+001  0.2751858E+03  0.7818608E-02  0.1098348E+00
         -2   -1    0    0    0  501 -0.00000000000E+00  0.00000000000E+00  0.21858855625E+04  0.21858855625E+04  0.00000000000E+00 0.  1.
          2   -1    0    0  501    0  0.00000000000E+00 -0.00000000000E+00 -0.86609300575E+01  0.86609300575E+01  0.00000000000E+00 0.  1.
         35    2    1    2    0    0  0.00000000000E+00  0.00000000000E+00  0.21772246325E+04  0.21945464926E+04  0.27518576977E+03 0.  0.
         25    1    3    3    0    0 -0.57795250988E+02 -0.34404430725E+02  0.10662742697E+04  0.10751115171E+04  0.12000000000E+03 0.  0.
         25    1    3    3    0    0  0.57795250988E+02  0.34404430725E+02  0.11109503627E+04  0.11194349755E+04  0.12000000000E+03 0.  0.
<mgrwt>
<rscale>  0 0.27518577E+03</rscale>
<asrwt>0</asrwt>
<pdfrwt beam="1">  1        2 0.13324525E-02 0.27518577E+03</pdfrwt>
<pdfrwt beam="2">  1       -2 0.33628965E+00 0.27518577E+03</pdfrwt>
<totfact> 0.21537954E+02</totfact>
</mgrwt>
</event>
<event>
 5    1  0.1162308E+001  0.2747050E+03  0.7818608E-02  0.1098617E+00
          1   -1    0    0  501    0  0.00000000000E+00  0.00000000000E+00  0.11690894925E+04  0.11690894925E+04  0.00000000000E+00 0. -1.
         -1   -1    0    0    0  501 -0.00000000000E+00 -0.00000000000E+00 -0.16137096090E+02  0.16137096090E+02  0.00000000000E+00 0. -1.
         35    2    1    2    0    0  0.00000000000E+00  0.00000000000E+00  0.11529523964E+04  0.11852265886E+04  0.27470500161E+03 0.  0.
         25    1    3    3    0    0 -0.30693891463E+02  0.31700396617E+02  0.35994461049E+03  0.38197794798E+03  0.12000000000E+03 0.  0.
         25    1    3    3    0    0  0.30693891463E+02 -0.31700396617E+02  0.79300778590E+03  0.80324864060E+03  0.12000000000E+03 0.  0.
<mgrwt>
<rscale>  0 0.27470500E+03</rscale>
<asrwt>0</asrwt>
<pdfrwt beam="1">  1        1 0.17985986E+00 0.27470500E+03</pdfrwt>
<pdfrwt beam="2">  1       -1 0.24826311E-02 0.27470500E+03</pdfrwt>
<totfact> 0.60057586E+03</totfact>
</mgrwt>
</event>
<event>
 5    1  0.1162308E+001  0.2742875E+03  0.7818608E-02  0.1098851E+00
         -2   -1    0    0    0  501 -0.00000000000E+00  0.00000000000E+00  0.58445905605E+02  0.58445905605E+02  0.00000000000E+00 0.  1.
          2   -1    0    0  501    0  0.00000000000E+00 -0.00000000000E+00 -0.32180887259E+03  0.32180887259E+03  0.00000000000E+00 0.  1.
         35    2    1    2    0    0  0.00000000000E+00  0.00000000000E+00 -0.26336296698E+03  0.38025477819E+03  0.27428752061E+03 0.  0.
         25    1    3    3    0    0  0.16656300338E+02  0.60313240060E+02 -0.16247225319E+03  0.21145295534E+03  0.12000000000E+03 0.  0.
         25    1    3    3    0    0 -0.16656300338E+02 -0.60313240060E+02 -0.10089071380E+03  0.16880182285E+03  0.12000000000E+03 0.  0.
<mgrwt>
<rscale>  0 0.27428752E+03</rscale>
<asrwt>0</asrwt>
<pdfrwt beam="1">  1        2 0.49509058E-01 0.27428752E+03</pdfrwt>
<pdfrwt beam="2">  1       -2 0.89916778E-02 0.27428752E+03</pdfrwt>
<totfact> 0.79028951E+03</totfact>
</mgrwt>
</event>
<event>
 5    1  0.1162308E+001  0.2737565E+03  0.7818608E-02  0.1099149E+00
         -2   -1    0    0    0  501 -0.00000000000E+00  0.00000000000E+00  0.82043755580E+01  0.82043755580E+01  0.00000000000E+00 0. -1.
          2   -1    0    0  501    0  0.00000000000E+00 -0.00000000000E+00 -0.22836169964E+04  0.22836169964E+04  0.00000000000E+00 0. -1.
         35    2    1    2    0    0  0.00000000000E+00  0.00000000000E+00 -0.22754126208E+04  0.22918213719E+04  0.27375647184E+03 0.  0.
         25    1    3    3    0    0 -0.29065923113E+01 -0.25557018411E+02 -0.63026195228E+03  0.64209947669E+03  0.12000000000E+03 0.  0.
         25    1    3    3    0    0  0.29065923113E+01  0.25557018411E+02 -0.16451506685E+04  0.16497218952E+04  0.12000000000E+03 0.  0.
<mgrwt>
<rscale>  0 0.27375647E+03</rscale>
<asrwt>0</asrwt>
<pdfrwt beam="1">  1        2 0.35132614E+00 0.27375647E+03</pdfrwt>
<pdfrwt beam="2">  1       -2 0.12622100E-02 0.27375647E+03</pdfrwt>
<totfact> 0.79780051E+03</totfact>
</mgrwt>
</event>
<event>
 5    1  0.1162308E+001  0.2746413E+03  0.7818608E-02  0.1098652E+00
          3   -1    0    0  501    0  0.00000000000E+00  0.00000000000E+00  0.84460289111E+03  0.84460289111E+03  0.00000000000E+00 0.  1.
         -3   -1    0    0    0  501 -0.00000000000E+00 -0.00000000000E+00 -0.22326417911E+02  0.22326417911E+02  0.00000000000E+00 0.  1.
         35    2    1    2    0    0  0.00000000000E+00  0.00000000000E+00  0.82227647320E+03  0.86692930902E+03  0.27464127232E+03 0.  0.
         25    1    3    3    0    0 -0.22907195344E+02 -0.47799919358E+01  0.60850373090E+03  0.62066446526E+03  0.12000000000E+03 0.  0.
         25    1    3    3    0    0  0.22907195344E+02  0.47799919358E+01  0.21377274230E+03  0.24626484376E+03  0.12000000000E+03 0.  0.
<mgrwt>
<rscale>  0 0.27464127E+03</rscale>
<asrwt>0</asrwt>
<pdfrwt beam="1">  1        3 0.12993888E+00 0.27464127E+03</pdfrwt>
<pdfrwt beam="2">  1       -3 0.34348342E-02 0.27464127E+03</pdfrwt>
<totfact> 0.51193882E+02</totfact>
</mgrwt>
</event>
<event>
 5    1  0.1162308E+001  0.2756947E+03  0.7818608E-02  0.1098064E+00
          3   -1    0    0  501    0  0.00000000000E+00  0.00000000000E+00  0.25845584282E+03  0.25845584282E+03  0.00000000000E+00 0.  1.
         -3   -1    0    0    0  501 -0.00000000000E+00 -0.00000000000E+00 -0.73520819084E+02  0.73520819084E+02  0.00000000000E+00 0.  1.
         35    2    1    2    0    0  0.00000000000E+00  0.00000000000E+00  0.18493502374E+03  0.33197666191E+03  0.27569465183E+03 0.  0.
         25    1    3    3    0    0  0.12331185808E+02  0.51952719986E+02  0.42083785101E+02  0.13792094919E+03  0.12000000000E+03 0.  0.
         25    1    3    3    0    0 -0.12331185808E+02 -0.51952719986E+02  0.14285123864E+03  0.19405571272E+03  0.12000000000E+03 0.  0.
<mgrwt>
<rscale>  0 0.27569465E+03</rscale>
<asrwt>0</asrwt>
<pdfrwt beam="1">  1        3 0.39762437E-01 0.27569465E+03</pdfrwt>
<pdfrwt beam="2">  1       -3 0.11310895E-01 0.27569465E+03</pdfrwt>
<totfact> 0.95952023E+02</totfact>
</mgrwt>
</event>
<event>
 5    1  0.1162308E+001  0.2746617E+03  0.7818608E-02  0.1098641E+00
         -1   -1    0    0    0  501 -0.00000000000E+00  0.00000000000E+00  0.72166391203E+01  0.72166391203E+01  0.00000000000E+00 0.  1.
          1   -1    0    0  501    0  0.00000000000E+00 -0.00000000000E+00 -0.26133725516E+04  0.26133725516E+04  0.00000000000E+00 0.  1.
         35    2    1    2    0    0  0.00000000000E+00  0.00000000000E+00 -0.26061559125E+04  0.26205891907E+04  0.27466173080E+03 0.  0.
         25    1    3    3    0    0  0.50518530129E+01  0.66527834157E+02 -0.13305535823E+04  0.13376188953E+04  0.12000000000E+03 0.  0.
         25    1    3    3    0    0 -0.50518530129E+01 -0.66527834157E+02 -0.12756023302E+04  0.12829702954E+04  0.12000000000E+03 0.  0.
<mgrwt>
<rscale>  0 0.27466173E+03</rscale>
<asrwt>0</asrwt>
<pdfrwt beam="1">  1        1 0.40205756E+00 0.27466173E+03</pdfrwt>
<pdfrwt beam="2">  1       -1 0.11102515E-02 0.27466173E+03</pdfrwt>
<totfact> 0.21528572E+03</totfact>
</mgrwt>
</event>
<event>
 5    1  0.1162308E+001  0.2750609E+03  0.7818608E-02  0.1098418E+00
         -1   -1    0    0    0  501 -0.00000000000E+00  0.00000000000E+00  0.17887477535E+02  0.17887477535E+02  0.00000000000E+00 0. -1.
          1   -1    0    0  501    0  0.00000000000E+00 -0.00000000000E+00 -0.10574223421E+04  0.10574223421E+04  0.00000000000E+00 0. -1.
         35    2    1    2    0    0  0.00000000000E+00  0.00000000000E+00 -0.10395348646E+04  0.10753098196E+04  0.27506085428E+03 0.  0.
         25    1    3    3    0    0  0.64125853458E+02  0.17389422061E+02 -0.55888075400E+03  0.57546695325E+03  0.12000000000E+03 0.  0.
         25    1    3    3    0    0 -0.64125853458E+02 -0.17389422061E+02 -0.48065411057E+03  0.49984286640E+03  0.12000000000E+03 0.  0.
<mgrwt>
<rscale>  0 0.27506085E+03</rscale>
<asrwt>0</asrwt>
<pdfrwt beam="1">  1        1 0.16268036E+00 0.27506085E+03</pdfrwt>
<pdfrwt beam="2">  1       -1 0.27519196E-02 0.27506085E+03</pdfrwt>
<totfact> 0.62084814E+03</totfact>
</mgrwt>
</event>
<event>
 5    1  0.1162308E+001  0.2762079E+03  0.7818608E-02  0.1097778E+00
         -2   -1    0    0    0  501 -0.00000000000E+00  0.00000000000E+00  0.84689937615E+01  0.84689937615E+01  0.00000000000E+00 0. -1.
          2   -1    0    0  501    0  0.00000000000E+00 -0.00000000000E+00 -0.22520630448E+04  0.22520630448E+04  0.00000000000E+00 0. -1.
         35    2    1    2    0    0  0.00000000000E+00  0.00000000000E+00 -0.22435940510E+04  0.22605320385E+04  0.27620794975E+03 0.  0.
         25    1    3    3    0    0 -0.24429907720E+02  0.11435895190E+02 -0.16358453278E+04  0.16404625983E+04  0.12000000000E+03 0.  0.
         25    1    3    3    0    0  0.24429907720E+02 -0.11435895190E+02 -0.60774872325E+03  0.62006944022E+03  0.12000000000E+03 0.  0.
<mgrwt>
<rscale>  0 0.27620795E+03</rscale>
<asrwt>0</asrwt>
<pdfrwt beam="1">  1        2 0.34647204E+00 0.27620795E+03</pdfrwt>
<pdfrwt beam="2">  1       -2 0.13029191E-02 0.27620795E+03</pdfrwt>
<totfact> 0.79189781E+03</totfact>
</mgrwt>
</event>
<event>
 5    1  0.1162308E+001  0.2758067E+03  0.7818608E-02  0.1098002E+00
          2   -1    0    0  501    0  0.00000000000E+00  0.00000000000E+00  0.71895491369E+03  0.71895491369E+03  0.00000000000E+00 0. -1.
         -2   -1    0    0    0  501 -0.00000000000E+00 -0.00000000000E+00 -0.26451358557E+02  0.26451358557E+02  0.00000000000E+00 0. -1.
         35    2    1    2    0    0  0.00000000000E+00  0.00000000000E+00  0.69250355513E+03  0.74540627225E+03  0.27580670194E+03 0.  0.
         25    1    3    3    0    0  0.29824965685E+02 -0.36875339849E+02  0.47776833942E+03  0.49488574987E+03  0.12000000000E+03 0.  0.
         25    1    3    3    0    0 -0.29824965685E+02  0.36875339849E+02  0.21473521571E+03  0.25052052238E+03  0.12000000000E+03 0.  0.
<mgrwt>
<rscale>  0 0.27580670E+03</rscale>
<asrwt>0</asrwt>
<pdfrwt beam="1">  1        2 0.11060843E+00 0.27580670E+03</pdfrwt>
<pdfrwt beam="2">  1       -2 0.40694403E-02 0.27580670E+03</pdfrwt>
<totfact> 0.10827139E+04</totfact>
</mgrwt>
</event>
<event>
 5    1  0.1162308E+001  0.2735390E+03  0.7818608E-02  0.1099271E+00
         -2   -1    0    0    0  501 -0.00000000000E+00  0.00000000000E+00  0.46704701481E+02  0.46704701481E+02  0.00000000000E+00 0.  1.
          2   -1    0    0  501    0  0.00000000000E+00 -0.00000000000E+00 -0.40051427153E+03  0.40051427153E+03  0.00000000000E+00 0.  1.
         35    2    1    2    0    0  0.00000000000E+00  0.00000000000E+00 -0.35380957005E+03  0.44721897301E+03  0.27353902457E+03 0.  0.
         25    1    3    3    0    0  0.19821778282E+02  0.44302161508E+01 -0.74889851026E+02  0.14290213258E+03  0.12000000000E+03 0.  0.
         25    1    3    3    0    0 -0.19821778282E+02 -0.44302161508E+01 -0.27891971902E+03  0.30431684043E+03  0.12000000000E+03 0.  0.
<mgrwt>
<rscale>  0 0.27353902E+03</rscale>
<asrwt>0</asrwt>
<pdfrwt beam="1">  1        2 0.61617580E-01 0.27353902E+03</pdfrwt>
<pdfrwt beam="2">  1       -2 0.71853387E-02 0.27353902E+03</pdfrwt>
<totfact> 0.88567492E+03</totfact>
</mgrwt>
</event>
<event>
 5    1  0.1162308E+001  0.2841181E+03  0.7818608E-02  0.1093461E+00
         -4   -1    0    0    0  501 -0.00000000000E+00  0.00000000000E+00  0.14772251677E+02  0.14772251677E+02  0.00000000000E+00 0.  1.
          4   -1    0    0  501    0  0.00000000000E+00 -0.00000000000E+00 -0.13661271832E+04  0.13661271832E+04  0.00000000000E+00 0.  1.
         35    2    1    2    0    0  0.00000000000E+00  0.00000000000E+00 -0.13513549315E+04  0.13808994348E+04  0.28411810623E+03 0.  0.
         25    1    3    3    0    0 -0.71352766546E+02  0.23129099470E+02 -0.61524494002E+03  0.63131015259E+03  0.12000000000E+03 0.  0.
         25    1    3    3    0    0  0.71352766546E+02 -0.23129099470E+02 -0.73610999146E+03  0.74958928225E+03  0.12000000000E+03 0.  0.
<mgrwt>
<rscale>  0 0.28411811E+03</rscale>
<asrwt>0</asrwt>
<pdfrwt beam="1">  1        4 0.21017352E+00 0.28411811E+03</pdfrwt>
<pdfrwt beam="2">  1       -4 0.22726530E-02 0.28411811E+03</pdfrwt>
<totfact> 0.19423326E+02</totfact>
</mgrwt>
</event>
<event>
 5    1  0.1162308E+001  0.2744476E+03  0.7818608E-02  0.1098761E+00
         -2   -1    0    0    0  501 -0.00000000000E+00  0.00000000000E+00  0.26292824281E+02  0.26292824281E+02  0.00000000000E+00 0.  1.
          2   -1    0    0  501    0  0.00000000000E+00 -0.00000000000E+00 -0.71617931863E+03  0.71617931863E+03  0.00000000000E+00 0.  1.
         35    2    1    2    0    0  0.00000000000E+00  0.00000000000E+00 -0.68988649435E+03  0.74247214291E+03  0.27444764148E+03 0.  0.
         25    1    3    3    0    0  0.54429325403E+02  0.20667517753E+02 -0.25767040829E+03  0.29014433833E+03  0.12000000000E+03 0.  0.
         25    1    3    3    0    0 -0.54429325403E+02 -0.20667517753E+02 -0.43221608606E+03  0.45232780459E+03  0.12000000000E+03 0.  0.
<mgrwt>
<rscale>  0 0.27444764E+03</rscale>
<asrwt>0</asrwt>
<pdfrwt beam="1">  1        2 0.11018143E+00 0.27444764E+03</pdfrwt>
<pdfrwt beam="2">  1       -2 0.40450499E-02 0.27444764E+03</pdfrwt>
<totfact> 0.10975403E+04</totfact>
</mgrwt>
</event>
<event>
 5    1  0.1162308E+001  0.2750985E+03  0.7818608E-02  0.1098397E+00
         -1   -1    0    0    0  501 -0.00000000000E+00  0.00000000000E+00  0.31382546835E+02  0.31382546835E+02  0.00000000000E+00 0. -1.
          1   -1    0    0  501    0  0.00000000000E+00 -0.00000000000E+00 -0.60287655128E+03  0.60287655128E+03  0.00000000000E+00 0. -1.
         35    2    1    2    0    0  0.00000000000E+00  0.00000000000E+00 -0.57149400445E+03  0.63425909812E+03  0.27509853948E+03 0.  0.
         25    1    3    3    0    0 -0.65999003026E+01  0.56521722705E+02 -0.36828313737E+03  0.39149806270E+03  0.12000000000E+03 0.  0.
         25    1    3    3    0    0  0.65999003026E+01 -0.56521722705E+02 -0.20321086707E+03  0.24276103542E+03  0.12000000000E+03 0.  0.
<mgrwt>
<rscale>  0 0.27509854E+03</rscale>
<asrwt>0</asrwt>
<pdfrwt beam="1">  1        1 0.92750233E-01 0.27509854E+03</pdfrwt>
<pdfrwt beam="2">  1       -1 0.48280844E-02 0.27509854E+03</pdfrwt>
<totfact> 0.64573805E+03</totfact>
</mgrwt>
</event>
<event>
 5    1  0.1162308E+001  0.2744697E+03  0.7818608E-02  0.1098748E+00
          2   -1    0    0  501    0  0.00000000000E+00  0.00000000000E+00  0.71107156602E+03  0.71107156602E+03  0.00000000000E+00 0.  1.
         -2   -1    0    0    0  501 -0.00000000000E+00 -0.00000000000E+00 -0.26485939682E+02  0.26485939682E+02  0.00000000000E+00 0.  1.
         35    2    1    2    0    0  0.00000000000E+00  0.00000000000E+00  0.68458562633E+03  0.73755750570E+03  0.27446966031E+03 0.  0.
         25    1    3    3    0    0  0.34817066143E+02  0.46902657575E+02  0.42817055077E+03  0.44848869320E+03  0.12000000000E+03 0.  0.
         25    1    3    3    0    0 -0.34817066143E+02 -0.46902657575E+02  0.25641507557E+03  0.28906881250E+03  0.12000000000E+03 0.  0.
<mgrwt>
<rscale>  0 0.27446966E+03</rscale>
<asrwt>0</asrwt>
<pdfrwt beam="1">  1        2 0.10939561E+00 0.27446966E+03</pdfrwt>
<pdfrwt beam="2">  1       -2 0.40747605E-02 0.27446966E+03</pdfrwt>
<totfact> 0.10950505E+04</totfact>
</mgrwt>
</event>
<event>
 5    1  0.1162308E+001  0.2757836E+03  0.7818608E-02  0.1098014E+00
          2   -1    0    0  501    0  0.00000000000E+00  0.00000000000E+00  0.10059218726E+03  0.10059218726E+03  0.00000000000E+00 0.  1.
         -2   -1    0    0    0  501 -0.00000000000E+00 -0.00000000000E+00 -0.18902208479E+03  0.18902208479E+03  0.00000000000E+00 0.  1.
         35    2    1    2    0    0  0.00000000000E+00  0.00000000000E+00 -0.88429897528E+02  0.28961427206E+03  0.27578357421E+03 0.  0.
         25    1    3    3    0    0 -0.47996341742E+02  0.19833880569E+02 -0.90195635723E+02  0.15884673224E+03  0.12000000000E+03 0.  0.
         25    1    3    3    0    0  0.47996341742E+02 -0.19833880569E+02  0.17657381952E+01  0.13076753982E+03  0.12000000000E+03 0.  0.
<mgrwt>
<rscale>  0 0.27578357E+03</rscale>
<asrwt>0</asrwt>
<pdfrwt beam="1">  1        2 0.15475721E-01 0.27578357E+03</pdfrwt>
<pdfrwt beam="2">  1       -2 0.29080321E-01 0.27578357E+03</pdfrwt>
<totfact> 0.40417279E+03</totfact>
</mgrwt>
</event>
<event>
 5    1  0.1162308E+001  0.2749325E+03  0.7818608E-02  0.1098489E+00
          3   -1    0    0  501    0  0.00000000000E+00  0.00000000000E+00  0.58481135295E+02  0.58481135295E+02  0.00000000000E+00 0.  1.
         -3   -1    0    0    0  501 -0.00000000000E+00 -0.00000000000E+00 -0.32312922624E+03  0.32312922624E+03  0.00000000000E+00 0.  1.
         35    2    1    2    0    0  0.00000000000E+00  0.00000000000E+00 -0.26464809095E+03  0.38161036154E+03  0.27493245714E+03 0.  0.
         25    1    3    3    0    0  0.15539302568E+02 -0.65063237879E+02 -0.12577397510E+03  0.18626268456E+03  0.12000000000E+03 0.  0.
         25    1    3    3    0    0 -0.15539302568E+02  0.65063237879E+02 -0.13887411584E+03  0.19534767697E+03  0.12000000000E+03 0.  0.
<mgrwt>
<rscale>  0 0.27493246E+03</rscale>
<asrwt>0</asrwt>
<pdfrwt beam="1">  1        3 0.89970979E-02 0.27493246E+03</pdfrwt>
<pdfrwt beam="2">  1       -3 0.49712188E-01 0.27493246E+03</pdfrwt>
<totfact> 0.90338715E+02</totfact>
</mgrwt>
</event>
<event>
 5    1  0.1162308E+001  0.2751495E+03  0.7818608E-02  0.1098368E+00
         -1   -1    0    0    0  501 -0.00000000000E+00  0.00000000000E+00  0.14901846090E+02  0.14901846090E+02  0.00000000000E+00 0. -1.
          1   -1    0    0  501    0  0.00000000000E+00 -0.00000000000E+00 -0.12700984564E+04  0.12700984564E+04  0.00000000000E+00 0. -1.
         35    2    1    2    0    0  0.00000000000E+00  0.00000000000E+00 -0.12551966103E+04  0.12850003025E+04  0.27514949912E+03 0.  0.
         25    1    3    3    0    0 -0.28359578969E+02 -0.16323134961E+02 -0.35304433215E+03  0.37431405386E+03  0.12000000000E+03 0.  0.
         25    1    3    3    0    0  0.28359578969E+02  0.16323134961E+02 -0.90215227816E+03  0.91068624863E+03  0.12000000000E+03 0.  0.
<mgrwt>
<rscale>  0 0.27514950E+03</rscale>
<asrwt>0</asrwt>
<pdfrwt beam="1">  1        1 0.19539968E+00 0.27514950E+03</pdfrwt>
<pdfrwt beam="2">  1       -1 0.22925927E-02 0.27514950E+03</pdfrwt>
<totfact> 0.57410392E+03</totfact>
</mgrwt>
</event>
<event>
 5    1  0.1162308E+001  0.2746500E+03  0.7818608E-02  0.1098647E+00
          1   -1    0    0  501    0  0.00000000000E+00  0.00000000000E+00  0.37444346465E+03  0.37444346465E+03  0.00000000000E+00 0. -1.
         -1   -1    0    0    0  501 -0.00000000000E+00 -0.00000000000E+00 -0.50363148608E+02  0.50363148608E+02  0.00000000000E+00 0. -1.
         35    2    1    2    0    0  0.00000000000E+00  0.00000000000E+00  0.32408031605E+03  0.42480661326E+03  0.27464997255E+03 0.  0.
         25    1    3    3    0    0  0.41139339050E+02 -0.22144046045E+02  0.23581964149E+03  0.26868886710E+03  0.12000000000E+03 0.  0.
         25    1    3    3    0    0 -0.41139339050E+02  0.22144046045E+02  0.88260674555E+02  0.15611774616E+03  0.12000000000E+03 0.  0.
<mgrwt>
<rscale>  0 0.27464997E+03</rscale>
<asrwt>0</asrwt>
<pdfrwt beam="1">  1        1 0.57606685E-01 0.27464997E+03</pdfrwt>
<pdfrwt beam="2">  1       -1 0.77481769E-02 0.27464997E+03</pdfrwt>
<totfact> 0.59314389E+03</totfact>
</mgrwt>
</event>
<event>
 5    1  0.1162308E+001  0.2795747E+03  0.7818608E-02  0.1095921E+00
          2   -1    0    0  501    0  0.00000000000E+00  0.00000000000E+00  0.17396380812E+03  0.17396380812E+03  0.00000000000E+00 0.  1.
         -2   -1    0    0    0  501 -0.00000000000E+00 -0.00000000000E+00 -0.11232510408E+03  0.11232510408E+03  0.00000000000E+00 0.  1.
         35    2    1    2    0    0  0.00000000000E+00  0.00000000000E+00  0.61638704033E+02  0.28628891220E+03  0.27957469738E+03 0.  0.
         25    1    3    3    0    0  0.60801609176E+02 -0.36858279383E+02  0.21370930824E+02  0.14111018787E+03  0.12000000000E+03 0.  0.
         25    1    3    3    0    0 -0.60801609176E+02  0.36858279383E+02  0.40267773209E+02  0.14517872433E+03  0.12000000000E+03 0.  0.
<mgrwt>
<rscale>  0 0.27957470E+03</rscale>
<asrwt>0</asrwt>
<pdfrwt beam="1">  1        2 0.26763663E-01 0.27957470E+03</pdfrwt>
<pdfrwt beam="2">  1       -2 0.17280785E-01 0.27957470E+03</pdfrwt>
<totfact> 0.53423975E+03</totfact>
</mgrwt>
</event>
<event>
 4    1  0.1162308E+001  0.3055489E+03  0.7818608E-02  0.1082499E+00
          2   -1    0    0  501    0  0.00000000000E+00  0.00000000000E+00  0.27045175318E+03  0.27045175318E+03  0.00000000000E+00 0.  1.
         -2   -1    0    0    0  501 -0.00000000000E+00 -0.00000000000E+00 -0.86300183331E+02  0.86300183331E+02  0.00000000000E+00 0.  1.
         25    1    1    2    0    0 -0.46183026203E+02  0.72237045344E+02  0.45533909735E+02  0.15435154539E+03  0.12000000000E+03 0.  0.
         25    1    1    2    0    0  0.46183026203E+02 -0.72237045344E+02  0.13861766011E+03  0.20240039111E+03  0.12000000000E+03 0.  0.
<mgrwt>
<rscale>  0 0.30554892E+03</rscale>
<asrwt>0</asrwt>
<pdfrwt beam="1">  1        2 0.41607962E-01 0.30554892E+03</pdfrwt>
<pdfrwt beam="2">  1       -2 0.13276951E-01 0.30554892E+03</pdfrwt>
<totfact> 0.51190958E+03</totfact>
</mgrwt>
</event>
<event>
 5    1  0.1162308E+001  0.2752798E+03  0.7818608E-02  0.1098295E+00
         -3   -1    0    0    0  501 -0.00000000000E+00  0.00000000000E+00  0.57636411680E+02  0.57636411680E+02  0.00000000000E+00 0.  1.
          3   -1    0    0  501    0  0.00000000000E+00 -0.00000000000E+00 -0.32869402641E+03  0.32869402641E+03  0.00000000000E+00 0.  1.
         35    2    1    2    0    0  0.00000000000E+00  0.00000000000E+00 -0.27105761473E+03  0.38633043809E+03  0.27527981563E+03 0.  0.
         25    1    3    3    0    0  0.44831968881E+02 -0.52277474461E+01 -0.65252999521E+02  0.14385822439E+03  0.12000000000E+03 0.  0.
         25    1    3    3    0    0 -0.44831968881E+02  0.52277474461E+01 -0.20580461521E+03  0.24247221370E+03  0.12000000000E+03 0.  0.
<mgrwt>
<rscale>  0 0.27527982E+03</rscale>
<asrwt>0</asrwt>
<pdfrwt beam="1">  1        3 0.50568312E-01 0.27527982E+03</pdfrwt>
<pdfrwt beam="2">  1       -3 0.88671403E-02 0.27527982E+03</pdfrwt>
<totfact> 0.89469320E+02</totfact>
</mgrwt>
</event>
<event>
 5    1  0.1162308E+001  0.2755875E+03  0.7818608E-02  0.1098124E+00
          1   -1    0    0  501    0  0.00000000000E+00  0.00000000000E+00  0.16158195101E+03  0.16158195101E+03  0.00000000000E+00 0. -1.
         -1   -1    0    0    0  501 -0.00000000000E+00 -0.00000000000E+00 -0.11750763051E+03  0.11750763051E+03  0.00000000000E+00 0. -1.
         35    2    1    2    0    0  0.00000000000E+00  0.00000000000E+00  0.44074320494E+02  0.27908958152E+03  0.27558746123E+03 0.  0.
         25    1    3    3    0    0  0.55859472223E+02 -0.37268237303E+02  0.30975994952E+02  0.14095642735E+03  0.12000000000E+03 0.  0.
         25    1    3    3    0    0 -0.55859472223E+02  0.37268237303E+02  0.13098325542E+02  0.13813315417E+03  0.12000000000E+03 0.  0.
<mgrwt>
<rscale>  0 0.27558746E+03</rscale>
<asrwt>0</asrwt>
<pdfrwt beam="1">  1        1 0.24858762E-01 0.27558746E+03</pdfrwt>
<pdfrwt beam="2">  1       -1 0.18078097E-01 0.27558746E+03</pdfrwt>
<totfact> 0.45537862E+03</totfact>
</mgrwt>
</event>
<event>
 5    1  0.1162308E+001  0.2749144E+03  0.7818608E-02  0.1098499E+00
          2   -1    0    0  501    0  0.00000000000E+00  0.00000000000E+00  0.16065623489E+04  0.16065623489E+04  0.00000000000E+00 0. -1.
         -2   -1    0    0    0  501 -0.00000000000E+00 -0.00000000000E+00 -0.11760816275E+02  0.11760816275E+02  0.00000000000E+00 0. -1.
         35    2    1    2    0    0  0.00000000000E+00  0.00000000000E+00  0.15948015326E+04  0.16183231651E+04  0.27491442028E+03 0.  0.
         25    1    3    3    0    0 -0.46157809302E+02  0.27514585327E+01  0.51164859420E+03  0.52756269564E+03  0.12000000000E+03 0.  0.
         25    1    3    3    0    0  0.46157809302E+02 -0.27514585327E+01  0.10831529384E+04  0.10907604695E+04  0.12000000000E+03 0.  0.
<mgrwt>
<rscale>  0 0.27491442E+03</rscale>
<asrwt>0</asrwt>
<pdfrwt beam="1">  1        2 0.24716326E+00 0.27491442E+03</pdfrwt>
<pdfrwt beam="2">  1       -2 0.18093576E-02 0.27491442E+03</pdfrwt>
<totfact> 0.10724966E+04</totfact>
</mgrwt>
</event>
<event>
 5    1  0.1162308E+001  0.2717206E+03  0.7818608E-02  0.1100299E+00
          2   -1    0    0  501    0  0.00000000000E+00  0.00000000000E+00  0.20698444353E+03  0.20698444353E+03  0.00000000000E+00 0.  1.
         -2   -1    0    0    0  501 -0.00000000000E+00 -0.00000000000E+00 -0.89175887433E+02  0.89175887433E+02  0.00000000000E+00 0.  1.
         35    2    1    2    0    0  0.00000000000E+00  0.00000000000E+00  0.11780855610E+03  0.29616033096E+03  0.27172060236E+03 0.  0.
         25    1    3    3    0    0  0.49491442682E+02  0.38017709361E+02  0.44977181365E+02  0.14254015563E+03  0.12000000000E+03 0.  0.
         25    1    3    3    0    0 -0.49491442682E+02 -0.38017709361E+02  0.72831374732E+02  0.15362017533E+03  0.12000000000E+03 0.  0.
<mgrwt>
<rscale>  0 0.27172060E+03</rscale>
<asrwt>0</asrwt>
<pdfrwt beam="1">  1        2 0.31843760E-01 0.27172060E+03</pdfrwt>
<pdfrwt beam="2">  1       -2 0.13719367E-01 0.27172060E+03</pdfrwt>
<totfact> 0.64615067E+03</totfact>
</mgrwt>
</event>
<event>
 5    1  0.1162308E+001  0.2736489E+03  0.7818608E-02  0.1099209E+00
          2   -1    0    0  501    0  0.00000000000E+00  0.00000000000E+00  0.90737703364E+03  0.90737703364E+03  0.00000000000E+00 0. -1.
         -2   -1    0    0    0  501 -0.00000000000E+00 -0.00000000000E+00 -0.20631917736E+02  0.20631917736E+02  0.00000000000E+00 0. -1.
         35    2    1    2    0    0  0.00000000000E+00  0.00000000000E+00  0.88674511590E+03  0.92800895138E+03  0.27364888681E+03 0.  0.
         25    1    3    3    0    0 -0.21112213150E+02  0.61952991575E+02  0.46400891418E+03  0.48372323817E+03  0.12000000000E+03 0.  0.
         25    1    3    3    0    0  0.21112213150E+02 -0.61952991575E+02  0.42273620172E+03  0.44428571320E+03  0.12000000000E+03 0.  0.
<mgrwt>
<rscale>  0 0.27364889E+03</rscale>
<asrwt>0</asrwt>
<pdfrwt beam="1">  1        2 0.13959644E+00 0.27364889E+03</pdfrwt>
<pdfrwt beam="2">  1       -2 0.31741419E-02 0.27364889E+03</pdfrwt>
<totfact> 0.11659191E+04</totfact>
</mgrwt>
</event>
<event>
 5    1  0.1162308E+001  0.2749848E+03  0.7818608E-02  0.1098460E+00
         -1   -1    0    0    0  501 -0.00000000000E+00  0.00000000000E+00  0.27638305873E+03  0.27638305873E+03  0.00000000000E+00 0.  1.
          1   -1    0    0  501    0  0.00000000000E+00 -0.00000000000E+00 -0.68398384227E+02  0.68398384227E+02  0.00000000000E+00 0.  1.
         35    2    1    2    0    0  0.00000000000E+00  0.00000000000E+00  0.20798467450E+03  0.34478144295E+03  0.27498476063E+03 0.  0.
         25    1    3    3    0    0 -0.28491996776E+02 -0.36956699564E+02  0.43514997902E+02  0.13590859636E+03  0.12000000000E+03 0.  0.
         25    1    3    3    0    0  0.28491996776E+02  0.36956699564E+02  0.16446967660E+03  0.20887284659E+03  0.12000000000E+03 0.  0.
<mgrwt>
<rscale>  0 0.27498476E+03</rscale>
<asrwt>0</asrwt>
<pdfrwt beam="1">  1        1 0.10522828E-01 0.27498476E+03</pdfrwt>
<pdfrwt beam="2">  1       -1 0.42520470E-01 0.27498476E+03</pdfrwt>
<totfact> 0.32978452E+03</totfact>
</mgrwt>
</event>
<event>
 5    1  0.1162308E+001  0.2742992E+03  0.7818608E-02  0.1098844E+00
         -2   -1    0    0    0  501 -0.00000000000E+00  0.00000000000E+00  0.30546521934E+03  0.30546521934E+03  0.00000000000E+00 0.  1.
          2   -1    0    0  501    0  0.00000000000E+00 -0.00000000000E+00 -0.61578232215E+02  0.61578232215E+02  0.00000000000E+00 0.  1.
         35    2    1    2    0    0  0.00000000000E+00  0.00000000000E+00  0.24388698712E+03  0.36704345155E+03  0.27429916668E+03 0.  0.
         25    1    3    3    0    0  0.25057875107E+02  0.42155329016E+02  0.18186109794E+03  0.22333478863E+03  0.12000000000E+03 0.  0.
         25    1    3    3    0    0 -0.25057875107E+02 -0.42155329016E+02  0.62025889180E+02  0.14370866292E+03  0.12000000000E+03 0.  0.
<mgrwt>
<rscale>  0 0.27429917E+03</rscale>
<asrwt>0</asrwt>
<pdfrwt beam="1">  1        2 0.94735744E-02 0.27429917E+03</pdfrwt>
<pdfrwt beam="2">  1       -2 0.46994648E-01 0.27429917E+03</pdfrwt>
<totfact> 0.29700746E+03</totfact>
</mgrwt>
</event>
<event>
 5    1  0.1162308E+001  0.2757446E+03  0.7818608E-02  0.1098036E+00
          2   -1    0    0  501    0  0.00000000000E+00  0.00000000000E+00  0.89017868679E+03  0.89017868679E+03  0.00000000000E+00 0. -1.
         -2   -1    0    0    0  501 -0.00000000000E+00 -0.00000000000E+00 -0.21353879871E+02  0.21353879871E+02  0.00000000000E+00 0. -1.
         35    2    1    2    0    0  0.00000000000E+00  0.00000000000E+00  0.86882480692E+03  0.91153256666E+03  0.27574458284E+03 0.  0.
         25    1    3    3    0    0  0.48874498744E+02 -0.38222694208E+02  0.52548932323E+03  0.54257600372E+03  0.12000000000E+03 0.  0.
         25    1    3    3    0    0 -0.48874498744E+02  0.38222694208E+02  0.34333548369E+03  0.36895656294E+03  0.12000000000E+03 0.  0.
<mgrwt>
<rscale>  0 0.27574458E+03</rscale>
<asrwt>0</asrwt>
<pdfrwt beam="1">  1        2 0.13695054E+00 0.27574458E+03</pdfrwt>
<pdfrwt beam="2">  1       -2 0.32852130E-02 0.27574458E+03</pdfrwt>
<totfact> 0.11366086E+04</totfact>
</mgrwt>
</event>
<event>
 5    1  0.1162308E+001  0.2769700E+03  0.7818608E-02  0.1097355E+00
          2   -1    0    0  501    0  0.00000000000E+00  0.00000000000E+00  0.28025734588E+03  0.28025734588E+03  0.00000000000E+00 0.  1.
         -2   -1    0    0    0  501 -0.00000000000E+00 -0.00000000000E+00 -0.68430326163E+02  0.68430326163E+02  0.00000000000E+00 0.  1.
         35    2    1    2    0    0  0.00000000000E+00  0.00000000000E+00  0.21182701971E+03  0.34868767204E+03  0.27697004595E+03 0.  0.
         25    1    3    3    0    0 -0.40038521043E+01  0.23018378053E+02  0.24012705782E+02  0.12458927160E+03  0.12000000000E+03 0.  0.
         25    1    3    3    0    0  0.40038521043E+01 -0.23018378053E+02  0.18781431393E+03  0.22409840043E+03  0.12000000000E+03 0.  0.
<mgrwt>
<rscale>  0 0.27697005E+03</rscale>
<asrwt>0</asrwt>
<pdfrwt beam="1">  1        2 0.43116514E-01 0.27697005E+03</pdfrwt>
<pdfrwt beam="2">  1       -2 0.10527743E-01 0.27697005E+03</pdfrwt>
<totfact> 0.71432427E+03</totfact>
</mgrwt>
</event>
<event>
 5    1  0.1162308E+001  0.2776775E+03  0.7818608E-02  0.1096964E+00
          1   -1    0    0  501    0  0.00000000000E+00  0.00000000000E+00  0.11757927597E+04  0.11757927597E+04  0.00000000000E+00 0. -1.
         -1   -1    0    0    0  501 -0.00000000000E+00 -0.00000000000E+00 -0.16394209928E+02  0.16394209928E+02  0.00000000000E+00 0. -1.
         35    2    1    2    0    0  0.00000000000E+00  0.00000000000E+00  0.11593985498E+04  0.11921869697E+04  0.27767746279E+03 0.  0.
         25    1    3    3    0    0  0.38645537728E+02 -0.15967652838E+02  0.33958402591E+03  0.36258206543E+03  0.12000000000E+03 0.  0.
         25    1    3    3    0    0 -0.38645537728E+02  0.15967652838E+02  0.81981452390E+03  0.82960490423E+03  0.12000000000E+03 0.  0.
<mgrwt>
<rscale>  0 0.27767746E+03</rscale>
<asrwt>0</asrwt>
<pdfrwt beam="1">  1        1 0.18089113E+00 0.27767746E+03</pdfrwt>
<pdfrwt beam="2">  1       -1 0.25221871E-02 0.27767746E+03</pdfrwt>
<totfact> 0.58053876E+03</totfact>
</mgrwt>
</event>
<event>
 5    1  0.1162308E+001  0.2750336E+03  0.7818608E-02  0.1098433E+00
         -1   -1    0    0    0  501 -0.00000000000E+00  0.00000000000E+00  0.22094128063E+02  0.22094128063E+02  0.00000000000E+00 0.  1.
          1   -1    0    0  501    0  0.00000000000E+00 -0.00000000000E+00 -0.85592295693E+03  0.85592295693E+03  0.00000000000E+00 0.  1.
         35    2    1    2    0    0  0.00000000000E+00  0.00000000000E+00 -0.83382882887E+03  0.87801708500E+03  0.27503360829E+03 0.  0.
         25    1    3    3    0    0 -0.44419453020E+02  0.48898499762E+02 -0.37824546639E+03  0.40228569938E+03  0.12000000000E+03 0.  0.
         25    1    3    3    0    0  0.44419453020E+02 -0.48898499762E+02 -0.45558336248E+03  0.47573138561E+03  0.12000000000E+03 0.  0.
<mgrwt>
<rscale>  0 0.27503361E+03</rscale>
<asrwt>0</asrwt>
<pdfrwt beam="1">  1        1 0.13168045E+00 0.27503361E+03</pdfrwt>
<pdfrwt beam="2">  1       -1 0.33990967E-02 0.27503361E+03</pdfrwt>
<totfact> 0.64825502E+03</totfact>
</mgrwt>
</event>
<event>
 5    1  0.1162308E+001  0.2778214E+03  0.7818608E-02  0.1096885E+00
         -1   -1    0    0    0  501 -0.00000000000E+00  0.00000000000E+00  0.13069392611E+03  0.13069392611E+03  0.00000000000E+00 0. -1.
          1   -1    0    0  501    0  0.00000000000E+00 -0.00000000000E+00 -0.14764401791E+03  0.14764401791E+03  0.00000000000E+00 0. -1.
         35    2    1    2    0    0  0.00000000000E+00  0.00000000000E+00 -0.16950091806E+02  0.27833794402E+03  0.27782135531E+03 0.  0.
         25    1    3    3    0    0 -0.13630975509E+01 -0.40438103585E+02  0.48719441755E+02  0.13568596929E+03  0.12000000000E+03 0.  0.
         25    1    3    3    0    0  0.13630975509E+01  0.40438103585E+02 -0.65669533561E+02  0.14265197473E+03  0.12000000000E+03 0.  0.
<mgrwt>
<rscale>  0 0.27782136E+03</rscale>
<asrwt>0</asrwt>
<pdfrwt beam="1">  1        1 0.22714464E-01 0.27782136E+03</pdfrwt>
<pdfrwt beam="2">  1       -1 0.20106758E-01 0.27782136E+03</pdfrwt>
<totfact> 0.43024227E+03</totfact>
</mgrwt>
</event>
<event>
 5    1  0.1162308E+001  0.2748085E+03  0.7818608E-02  0.1098559E+00
         -2   -1    0    0    0  501 -0.00000000000E+00  0.00000000000E+00  0.38284304432E+02  0.38284304432E+02  0.00000000000E+00 0. -1.
          2   -1    0    0  501    0  0.00000000000E+00 -0.00000000000E+00 -0.49315064237E+03  0.49315064237E+03  0.00000000000E+00 0. -1.
         35    2    1    2    0    0  0.00000000000E+00  0.00000000000E+00 -0.45486633794E+03  0.53143494681E+03  0.27480851023E+03 0.  0.
         25    1    3    3    0    0 -0.65400483401E+02  0.13834045142E+02 -0.22092521327E+03  0.26014717737E+03  0.12000000000E+03 0.  0.
         25    1    3    3    0    0  0.65400483401E+02 -0.13834045142E+02 -0.23394112467E+03  0.27128776943E+03  0.12000000000E+03 0.  0.
<mgrwt>
<rscale>  0 0.27480851E+03</rscale>
<asrwt>0</asrwt>
<pdfrwt beam="1">  1        2 0.75869328E-01 0.27480851E+03</pdfrwt>
<pdfrwt beam="2">  1       -2 0.58898931E-02 0.27480851E+03</pdfrwt>
<totfact> 0.95731670E+03</totfact>
</mgrwt>
</event>
<event>
 5    1  0.1162308E+001  0.2752742E+03  0.7818608E-02  0.1098298E+00
          4   -1    0    0  501    0  0.00000000000E+00  0.00000000000E+00  0.80049799533E+03  0.80049799533E+03  0.00000000000E+00 0. -1.
         -4   -1    0    0    0  501 -0.00000000000E+00 -0.00000000000E+00 -0.23665240522E+02  0.23665240522E+02  0.00000000000E+00 0. -1.
         35    2    1    2    0    0  0.00000000000E+00  0.00000000000E+00  0.77683275481E+03  0.82416323585E+03  0.27527424578E+03 0.  0.
         25    1    3    3    0    0 -0.45640768149E+01 -0.44105035894E+02  0.54042914533E+03  0.55536451643E+03  0.12000000000E+03 0.  0.
         25    1    3    3    0    0  0.45640768149E+01  0.44105035894E+02  0.23640360948E+03  0.26879871942E+03  0.12000000000E+03 0.  0.
<mgrwt>
<rscale>  0 0.27527425E+03</rscale>
<asrwt>0</asrwt>
<pdfrwt beam="1">  1        4 0.12315352E+00 0.27527425E+03</pdfrwt>
<pdfrwt beam="2">  1       -4 0.36408068E-02 0.27527425E+03</pdfrwt>
<totfact> 0.38603010E+02</totfact>
</mgrwt>
</event>
<event>
 5    1  0.1162308E+001  0.2758938E+03  0.7818608E-02  0.1097953E+00
          1   -1    0    0  501    0  0.00000000000E+00  0.00000000000E+00  0.34730459877E+02  0.34730459877E+02  0.00000000000E+00 0. -1.
         -1   -1    0    0    0  501 -0.00000000000E+00 -0.00000000000E+00 -0.54791522374E+03  0.54791522374E+03  0.00000000000E+00 0. -1.
         35    2    1    2    0    0  0.00000000000E+00  0.00000000000E+00 -0.51318476386E+03  0.58264568362E+03  0.27589380344E+03 0.  0.
         25    1    3    3    0    0  0.50777739329E+02  0.24218591249E+01 -0.16108867451E+03  0.20720474239E+03  0.12000000000E+03 0.  0.
         25    1    3    3    0    0 -0.50777739329E+02 -0.24218591249E+01 -0.35209608935E+03  0.37544094123E+03  0.12000000000E+03 0.  0.
<mgrwt>
<rscale>  0 0.27589380E+03</rscale>
<asrwt>0</asrwt>
<pdfrwt beam="1">  1        1 0.53431479E-02 0.27589380E+03</pdfrwt>
<pdfrwt beam="2">  1       -1 0.84294647E-01 0.27589380E+03</pdfrwt>
<totfact> 0.22147568E+03</totfact>
</mgrwt>
</event>
<event>
 4    1  0.1162308E+001  0.2992500E+03  0.7818608E-02  0.1085616E+00
          2   -1    0    0  501    0  0.00000000000E+00  0.00000000000E+00  0.66884376223E+03  0.66884376223E+03  0.00000000000E+00 0.  1.
         -2   -1    0    0    0  501 -0.00000000000E+00 -0.00000000000E+00 -0.33472157625E+02  0.33472157625E+02  0.00000000000E+00 0.  1.
         25    1    1    2    0    0 -0.62941898672E+02  0.29416047115E+02  0.44962900882E+03  0.47052442233E+03  0.12000000000E+03 0.  0.
         25    1    1    2    0    0  0.62941898672E+02 -0.29416047115E+02  0.18574259579E+03  0.23179149753E+03  0.12000000000E+03 0.  0.
<mgrwt>
<rscale>  0 0.29925002E+03</rscale>
<asrwt>0</asrwt>
<pdfrwt beam="1">  1        2 0.10289903E+00 0.29925002E+03</pdfrwt>
<pdfrwt beam="2">  1       -2 0.51495632E-02 0.29925002E+03</pdfrwt>
<totfact> 0.82944072E+03</totfact>
</mgrwt>
</event>
<event>
 5    1  0.1162308E+001  0.2758784E+03  0.7818608E-02  0.1097962E+00
          1   -1    0    0  501    0  0.00000000000E+00  0.00000000000E+00  0.17683616059E+03  0.17683616059E+03  0.00000000000E+00 0.  1.
         -1   -1    0    0    0  501 -0.00000000000E+00 -0.00000000000E+00 -0.10759802745E+03  0.10759802745E+03  0.00000000000E+00 0.  1.
         35    2    1    2    0    0  0.00000000000E+00  0.00000000000E+00  0.69238133136E+02  0.28443418804E+03  0.27587839394E+03 0.  0.
         25    1    3    3    0    0  0.42931937050E+02 -0.14908825346E+02 -0.17564832855E+02  0.12951427584E+03  0.12000000000E+03 0.  0.
         25    1    3    3    0    0 -0.42931937050E+02  0.14908825346E+02  0.86802965990E+02  0.15491991220E+03  0.12000000000E+03 0.  0.
<mgrwt>
<rscale>  0 0.27587839E+03</rscale>
<asrwt>0</asrwt>
<pdfrwt beam="1">  1        1 0.27205563E-01 0.27587839E+03</pdfrwt>
<pdfrwt beam="2">  1       -1 0.16553543E-01 0.27587839E+03</pdfrwt>
<totfact> 0.46774881E+03</totfact>
</mgrwt>
</event>
<event>
 5    1  0.1162308E+001  0.2758716E+03  0.7818608E-02  0.1097965E+00
          4   -1    0    0  501    0  0.00000000000E+00  0.00000000000E+00  0.58840119933E+02  0.58840119933E+02  0.00000000000E+00 0.  1.
         -4   -1    0    0    0  501 -0.00000000000E+00 -0.00000000000E+00 -0.32335559289E+03  0.32335559289E+03  0.00000000000E+00 0.  1.
         35    2    1    2    0    0  0.00000000000E+00  0.00000000000E+00 -0.26451547296E+03  0.38219571283E+03  0.27587157785E+03 0.  0.
         25    1    3    3    0    0  0.66346194682E+02  0.99447623931E+01 -0.14778213973E+03  0.20184220736E+03  0.12000000000E+03 0.  0.
         25    1    3    3    0    0 -0.66346194682E+02 -0.99447623931E+01 -0.11673333323E+03  0.18035350547E+03  0.12000000000E+03 0.  0.
<mgrwt>
<rscale>  0 0.27587158E+03</rscale>
<asrwt>0</asrwt>
<pdfrwt beam="1">  1        4 0.90523263E-02 0.27587158E+03</pdfrwt>
<pdfrwt beam="2">  1       -4 0.49747014E-01 0.27587158E+03</pdfrwt>
<totfact> 0.65984085E+02</totfact>
</mgrwt>
</event>
<event>
 5    1  0.1162308E+001  0.2727488E+03  0.7818608E-02  0.1099717E+00
          1   -1    0    0  501    0  0.00000000000E+00  0.00000000000E+00  0.54066362090E+04  0.54066362090E+04  0.00000000000E+00 0. -1.
         -1   -1    0    0    0  501 -0.00000000000E+00 -0.00000000000E+00 -0.34398427455E+01  0.34398427455E+01  0.00000000000E+00 0. -1.
         35    2    1    2    0    0  0.00000000000E+00  0.00000000000E+00  0.54031963663E+04  0.54100760518E+04  0.27274881002E+03 0.  0.
         25    1    3    3    0    0 -0.25105367350E+02  0.56278165594E+02  0.23046591156E+04  0.23086037231E+04  0.12000000000E+03 0.  0.
         25    1    3    3    0    0  0.25105367350E+02 -0.56278165594E+02  0.30985372507E+04  0.31014723287E+04  0.12000000000E+03 0.  0.
<mgrwt>
<rscale>  0 0.27274881E+03</rscale>
<asrwt>0</asrwt>
<pdfrwt beam="1">  1        1 0.83178338E+00 0.27274881E+03</pdfrwt>
<pdfrwt beam="2">  1       -1 0.52921090E-03 0.27274881E+03</pdfrwt>
<totfact> 0.16157643E+01</totfact>
</mgrwt>
</event>
<event>
 5    1  0.1162308E+001  0.2753466E+03  0.7818608E-02  0.1098258E+00
          1   -1    0    0  501    0  0.00000000000E+00  0.00000000000E+00  0.73087990830E+03  0.73087990830E+03  0.00000000000E+00 0. -1.
         -1   -1    0    0    0  501 -0.00000000000E+00 -0.00000000000E+00 -0.25933041821E+02  0.25933041821E+02  0.00000000000E+00 0. -1.
         35    2    1    2    0    0  0.00000000000E+00  0.00000000000E+00  0.70494686647E+03  0.75681295012E+03  0.27534661231E+03 0.  0.
         25    1    3    3    0    0 -0.10870893784E+02 -0.51844043192E+02  0.23755906758E+03  0.27136744782E+03  0.12000000000E+03 0.  0.
         25    1    3    3    0    0  0.10870893784E+02  0.51844043192E+02  0.46738779890E+03  0.48544550230E+03  0.12000000000E+03 0.  0.
<mgrwt>
<rscale>  0 0.27534661E+03</rscale>
<asrwt>0</asrwt>
<pdfrwt beam="1">  1        1 0.11244305E+00 0.27534661E+03</pdfrwt>
<pdfrwt beam="2">  1       -1 0.39896993E-02 0.27534661E+03</pdfrwt>
<totfact> 0.65117439E+03</totfact>
</mgrwt>
</event>
<event>
 5    1  0.1162308E+001  0.2745427E+03  0.7818608E-02  0.1098708E+00
          3   -1    0    0  501    0  0.00000000000E+00  0.00000000000E+00  0.36303599239E+02  0.36303599239E+02  0.00000000000E+00 0.  1.
         -3   -1    0    0    0  501 -0.00000000000E+00 -0.00000000000E+00 -0.51905099865E+03  0.51905099865E+03  0.00000000000E+00 0.  1.
         35    2    1    2    0    0  0.00000000000E+00  0.00000000000E+00 -0.48274739941E+03  0.55535459789E+03  0.27454267020E+03 0.  0.
         25    1    3    3    0    0 -0.29707436916E+02  0.18801766647E+02 -0.12681296022E+03  0.17809425908E+03  0.12000000000E+03 0.  0.
         25    1    3    3    0    0  0.29707436916E+02 -0.18801766647E+02 -0.35593443919E+03  0.37726033881E+03  0.12000000000E+03 0.  0.
<mgrwt>
<rscale>  0 0.27454267E+03</rscale>
<asrwt>0</asrwt>
<pdfrwt beam="1">  1        3 0.55851691E-02 0.27454267E+03</pdfrwt>
<pdfrwt beam="2">  1       -3 0.79854000E-01 0.27454267E+03</pdfrwt>
<totfact> 0.72597863E+02</totfact>
</mgrwt>
</event>
<event>
 5    1  0.1162308E+001  0.2751634E+03  0.7818608E-02  0.1098360E+00
         -2   -1    0    0    0  501 -0.00000000000E+00  0.00000000000E+00  0.13615156782E+02  0.13615156782E+02  0.00000000000E+00 0.  1.
          2   -1    0    0  501    0  0.00000000000E+00 -0.00000000000E+00 -0.13902682855E+04  0.13902682855E+04  0.00000000000E+00 0.  1.
         35    2    1    2    0    0  0.00000000000E+00  0.00000000000E+00 -0.13766531287E+04  0.14038834423E+04  0.27516337457E+03 0.  0.
         25    1    3    3    0    0  0.24986991356E+02 -0.21417882697E+02 -0.38884112976E+03  0.40826523197E+03  0.12000000000E+03 0.  0.
         25    1    3    3    0    0 -0.24986991356E+02  0.21417882697E+02 -0.98781199897E+03  0.99561821034E+03  0.12000000000E+03 0.  0.
<mgrwt>
<rscale>  0 0.27516337E+03</rscale>
<asrwt>0</asrwt>
<pdfrwt beam="1">  1        2 0.21388738E+00 0.27516337E+03</pdfrwt>
<pdfrwt beam="2">  1       -2 0.20946400E-02 0.27516337E+03</pdfrwt>
<totfact> 0.11293171E+04</totfact>
</mgrwt>
</event>
<event>
 5    1  0.1162308E+001  0.2755318E+03  0.7818608E-02  0.1098155E+00
         -2   -1    0    0    0  501 -0.00000000000E+00  0.00000000000E+00  0.39060043976E+02  0.39060043976E+02  0.00000000000E+00 0. -1.
          2   -1    0    0  501    0  0.00000000000E+00 -0.00000000000E+00 -0.48590435886E+03  0.48590435886E+03  0.00000000000E+00 0. -1.
         35    2    1    2    0    0  0.00000000000E+00  0.00000000000E+00 -0.44684431488E+03  0.52496440283E+03  0.27553181758E+03 0.  0.
         25    1    3    3    0    0 -0.20329826949E+02  0.57203805188E+02 -0.28038542566E+03  0.31096875103E+03  0.12000000000E+03 0.  0.
         25    1    3    3    0    0  0.20329826949E+02 -0.57203805188E+02 -0.16645888922E+03  0.21399565181E+03  0.12000000000E+03 0.  0.
<mgrwt>
<rscale>  0 0.27553182E+03</rscale>
<asrwt>0</asrwt>
<pdfrwt beam="1">  1        2 0.74754514E-01 0.27553182E+03</pdfrwt>
<pdfrwt beam="2">  1       -2 0.60092377E-02 0.27553182E+03</pdfrwt>
<totfact> 0.94386093E+03</totfact>
</mgrwt>
</event>
<event>
 5    1  0.1162308E+001  0.2755167E+03  0.7818608E-02  0.1098163E+00
          2   -1    0    0  501    0  0.00000000000E+00  0.00000000000E+00  0.13733449577E+02  0.13733449577E+02  0.00000000000E+00 0.  1.
         -2   -1    0    0    0  501 -0.00000000000E+00 -0.00000000000E+00 -0.13818353666E+04  0.13818353666E+04  0.00000000000E+00 0.  1.
         35    2    1    2    0    0  0.00000000000E+00  0.00000000000E+00 -0.13681019170E+04  0.13955688162E+04  0.27551672422E+03 0.  0.
         25    1    3    3    0    0 -0.17381500031E+02  0.52573207467E+01 -0.35392807762E+03  0.37415884340E+03  0.12000000000E+03 0.  0.
         25    1    3    3    0    0  0.17381500031E+02 -0.52573207467E+01 -0.10141738394E+04  0.10214099728E+04  0.12000000000E+03 0.  0.
<mgrwt>
<rscale>  0 0.27551672E+03</rscale>
<asrwt>0</asrwt>
<pdfrwt beam="1">  1        2 0.21128376E-02 0.27551672E+03</pdfrwt>
<pdfrwt beam="2">  1       -2 0.21259014E+00 0.27551672E+03</pdfrwt>
<totfact> 0.61073149E+02</totfact>
</mgrwt>
</event>
<event>
 5    1  0.1162308E+001  0.2749087E+03  0.7818608E-02  0.1098503E+00
         -3   -1    0    0    0  501 -0.00000000000E+00  0.00000000000E+00  0.24057245939E+03  0.24057245939E+03  0.00000000000E+00 0. -1.
          3   -1    0    0  501    0  0.00000000000E+00 -0.00000000000E+00 -0.78536411764E+02  0.78536411764E+02  0.00000000000E+00 0. -1.
         35    2    1    2    0    0  0.00000000000E+00  0.00000000000E+00  0.16203604763E+03  0.31910887116E+03  0.27490869561E+03 0.  0.
         25    1    3    3    0    0 -0.31855786255E+01  0.37374695390E+02  0.16527434941E+02  0.12680761756E+03  0.12000000000E+03 0.  0.
         25    1    3    3    0    0  0.31855786255E+01 -0.37374695390E+02  0.14550861269E+03  0.19230125359E+03  0.12000000000E+03 0.  0.
<mgrwt>
<rscale>  0 0.27490870E+03</rscale>
<asrwt>0</asrwt>
<pdfrwt beam="1">  1        3 0.12082525E-01 0.27490870E+03</pdfrwt>
<pdfrwt beam="2">  1       -3 0.37011147E-01 0.27490870E+03</pdfrwt>
<totfact> 0.98532341E+02</totfact>
</mgrwt>
</event>
<event>
 5    1  0.1162308E+001  0.2749359E+03  0.7818608E-02  0.1098487E+00
         -2   -1    0    0    0  501 -0.00000000000E+00  0.00000000000E+00  0.31912738684E+02  0.31912738684E+02  0.00000000000E+00 0.  1.
          2   -1    0    0  501    0  0.00000000000E+00 -0.00000000000E+00 -0.59215966861E+03  0.59215966861E+03  0.00000000000E+00 0.  1.
         35    2    1    2    0    0  0.00000000000E+00  0.00000000000E+00 -0.56024692993E+03  0.62407240730E+03  0.27493589626E+03 0.  0.
         25    1    3    3    0    0 -0.26777537315E+02 -0.50345659679E+02 -0.20000864722E+03  0.24011493272E+03  0.12000000000E+03 0.  0.
         25    1    3    3    0    0  0.26777537315E+02  0.50345659679E+02 -0.36023828271E+03  0.38395747458E+03  0.12000000000E+03 0.  0.
<mgrwt>
<rscale>  0 0.27493590E+03</rscale>
<asrwt>0</asrwt>
<pdfrwt beam="1">  1        2 0.91101485E-01 0.27493590E+03</pdfrwt>
<pdfrwt beam="2">  1       -2 0.49096522E-02 0.27493590E+03</pdfrwt>
<totfact> 0.10266421E+04</totfact>
</mgrwt>
</event>
<event>
 5    1  0.1162308E+001  0.2757272E+03  0.7818608E-02  0.1098046E+00
         -3   -1    0    0    0  501 -0.00000000000E+00  0.00000000000E+00  0.82635341069E+03  0.82635341069E+03  0.00000000000E+00 0.  1.
          3   -1    0    0  501    0  0.00000000000E+00 -0.00000000000E+00 -0.23000297784E+02  0.23000297784E+02  0.00000000000E+00 0.  1.
         35    2    1    2    0    0  0.00000000000E+00  0.00000000000E+00  0.80335311291E+03  0.84935370848E+03  0.27572721680E+03 0.  0.
         25    1    3    3    0    0 -0.58665009647E+02 -0.16248527941E+02  0.49412880432E+03  0.51212193203E+03  0.12000000000E+03 0.  0.
         25    1    3    3    0    0  0.58665009647E+02  0.16248527941E+02  0.30922430859E+03  0.33723177644E+03  0.12000000000E+03 0.  0.
<mgrwt>
<rscale>  0 0.27572722E+03</rscale>
<asrwt>0</asrwt>
<pdfrwt beam="1">  1        3 0.35385080E-02 0.27572722E+03</pdfrwt>
<pdfrwt beam="2">  1       -3 0.12713127E+00 0.27572722E+03</pdfrwt>
<totfact> 0.51376663E+02</totfact>
</mgrwt>
</event>
<event>
 5    1  0.1162308E+001  0.2743743E+03  0.7818608E-02  0.1098802E+00
         -2   -1    0    0    0  501 -0.00000000000E+00  0.00000000000E+00  0.14288678026E+02  0.14288678026E+02  0.00000000000E+00 0.  1.
          2   -1    0    0  501    0  0.00000000000E+00 -0.00000000000E+00 -0.13171489652E+04  0.13171489652E+04  0.00000000000E+00 0.  1.
         35    2    1    2    0    0  0.00000000000E+00  0.00000000000E+00 -0.13028602872E+04  0.13314376432E+04  0.27437432443E+03 0.  0.
         25    1    3    3    0    0  0.31395241391E+02 -0.80638646968E+01 -0.36974204665E+03  0.39007674650E+03  0.12000000000E+03 0.  0.
         25    1    3    3    0    0 -0.31395241391E+02  0.80638646968E+01 -0.93311824053E+03  0.94136089674E+03  0.12000000000E+03 0.  0.
<mgrwt>
<rscale>  0 0.27437432E+03</rscale>
<asrwt>0</asrwt>
<pdfrwt beam="1">  1        2 0.20263828E+00 0.27437432E+03</pdfrwt>
<pdfrwt beam="2">  1       -2 0.21982584E-02 0.27437432E+03</pdfrwt>
<totfact> 0.11532572E+04</totfact>
</mgrwt>
</event>
<event>
 5    1  0.1162308E+001  0.2725612E+03  0.7818608E-02  0.1099823E+00
         -2   -1    0    0    0  501 -0.00000000000E+00  0.00000000000E+00  0.22201103239E+02  0.22201103239E+02  0.00000000000E+00 0. -1.
          2   -1    0    0  501    0  0.00000000000E+00 -0.00000000000E+00 -0.83655304905E+03  0.83655304905E+03  0.00000000000E+00 0. -1.
         35    2    1    2    0    0  0.00000000000E+00  0.00000000000E+00 -0.81435194581E+03  0.85875415229E+03  0.27256119024E+03 0.  0.
         25    1    3    3    0    0  0.41175969210E+01  0.23754059750E+02 -0.21836637662E+03  0.25032995106E+03  0.12000000000E+03 0.  0.
         25    1    3    3    0    0 -0.41175969210E+01 -0.23754059750E+02 -0.59598556919E+03  0.60842420123E+03  0.12000000000E+03 0.  0.
<mgrwt>
<rscale>  0 0.27256119E+03</rscale>
<asrwt>0</asrwt>
<pdfrwt beam="1">  1        2 0.12870045E+00 0.27256119E+03</pdfrwt>
<pdfrwt beam="2">  1       -2 0.34155548E-02 0.27256119E+03</pdfrwt>
<totfact> 0.11631660E+04</totfact>
</mgrwt>
</event>
<event>
 5    1  0.1162308E+001  0.2755798E+03  0.7818608E-02  0.1098128E+00
         -2   -1    0    0    0  501 -0.00000000000E+00  0.00000000000E+00  0.29332045145E+02  0.29332045145E+02  0.00000000000E+00 0.  1.
          2   -1    0    0  501    0  0.00000000000E+00 -0.00000000000E+00 -0.64728040575E+03  0.64728040575E+03  0.00000000000E+00 0.  1.
         35    2    1    2    0    0  0.00000000000E+00  0.00000000000E+00 -0.61794836060E+03  0.67661245089E+03  0.27557981118E+03 0.  0.
         25    1    3    3    0    0 -0.27176493525E+02 -0.61973483980E+02 -0.31536890137E+03  0.34414650728E+03  0.12000000000E+03 0.  0.
         25    1    3    3    0    0  0.27176493525E+02  0.61973483980E+02 -0.30257945923E+03  0.33246594361E+03  0.12000000000E+03 0.  0.
<mgrwt>
<rscale>  0 0.27557981E+03</rscale>
<asrwt>0</asrwt>
<pdfrwt beam="1">  1        2 0.99581592E-01 0.27557981E+03</pdfrwt>
<pdfrwt beam="2">  1       -2 0.45126227E-02 0.27557981E+03</pdfrwt>
<totfact> 0.10511932E+04</totfact>
</mgrwt>
</event>
<event>
 5    1  0.1162308E+001  0.2751524E+03  0.7818608E-02  0.1098366E+00
         -2   -1    0    0    0  501 -0.00000000000E+00  0.00000000000E+00  0.67193284418E+02  0.67193284418E+02  0.00000000000E+00 0.  1.
          2   -1    0    0  501    0  0.00000000000E+00 -0.00000000000E+00 -0.28168309574E+03  0.28168309574E+03  0.00000000000E+00 0.  1.
         35    2    1    2    0    0  0.00000000000E+00  0.00000000000E+00 -0.21448981132E+03  0.34887638016E+03  0.27515241135E+03 0.  0.
         25    1    3    3    0    0  0.15923756410E+02 -0.46397554052E+02 -0.48852051300E+02  0.13853816065E+03  0.12000000000E+03 0.  0.
         25    1    3    3    0    0 -0.15923756410E+02  0.46397554052E+02 -0.16563776002E+03  0.21033821950E+03  0.12000000000E+03 0.  0.
<mgrwt>
<rscale>  0 0.27515241E+03</rscale>
<asrwt>0</asrwt>
<pdfrwt beam="1">  1        2 0.43335860E-01 0.27515241E+03</pdfrwt>
<pdfrwt beam="2">  1       -2 0.10337429E-01 0.27515241E+03</pdfrwt>
<totfact> 0.73123004E+03</totfact>
</mgrwt>
</event>
<event>
 5    1  0.1162308E+001  0.2758316E+03  0.7818608E-02  0.1097988E+00
         -1   -1    0    0    0  501 -0.00000000000E+00  0.00000000000E+00  0.76718337971E+03  0.76718337971E+03  0.00000000000E+00 0. -1.
          1   -1    0    0  501    0  0.00000000000E+00 -0.00000000000E+00 -0.24792986314E+02  0.24792986314E+02  0.00000000000E+00 0. -1.
         35    2    1    2    0    0  0.00000000000E+00  0.00000000000E+00  0.74239039339E+03  0.79197636602E+03  0.27583159379E+03 0.  0.
         25    1    3    3    0    0 -0.14822960356E+02 -0.66334180595E+02  0.37380053559E+03  0.39843040054E+03  0.12000000000E+03 0.  0.
         25    1    3    3    0    0  0.14822960356E+02  0.66334180595E+02  0.36858985781E+03  0.39354596548E+03  0.12000000000E+03 0.  0.
<mgrwt>
<rscale>  0 0.27583159E+03</rscale>
<asrwt>0</asrwt>
<pdfrwt beam="1">  1        1 0.38143062E-02 0.27583159E+03</pdfrwt>
<pdfrwt beam="2">  1       -1 0.11802819E+00 0.27583159E+03</pdfrwt>
<totfact> 0.16714025E+03</totfact>
</mgrwt>
</event>
<event>
 5    1  0.1162308E+001  0.2753138E+03  0.7818608E-02  0.1098276E+00
         -2   -1    0    0    0  501 -0.00000000000E+00  0.00000000000E+00  0.73167537907E+02  0.73167537907E+02  0.00000000000E+00 0. -1.
          2   -1    0    0  501    0  0.00000000000E+00 -0.00000000000E+00 -0.25898667529E+03  0.25898667529E+03  0.00000000000E+00 0. -1.
         35    2    1    2    0    0  0.00000000000E+00  0.00000000000E+00 -0.18581913739E+03  0.33215421320E+03  0.27531376560E+03 0.  0.
         25    1    3    3    0    0  0.49172523884E+02  0.80190752779E+00 -0.14860082004E+03  0.19723281643E+03  0.12000000000E+03 0.  0.
         25    1    3    3    0    0 -0.49172523884E+02 -0.80190752779E+00 -0.37218317351E+02  0.13492139677E+03  0.12000000000E+03 0.  0.
<mgrwt>
<rscale>  0 0.27531377E+03</rscale>
<asrwt>0</asrwt>
<pdfrwt beam="1">  1        2 0.39844104E-01 0.27531377E+03</pdfrwt>
<pdfrwt beam="2">  1       -2 0.11256544E-01 0.27531377E+03</pdfrwt>
<totfact> 0.69850352E+03</totfact>
</mgrwt>
</event>
<event>
 5    1  0.1162308E+001  0.2748532E+03  0.7818608E-02  0.1098534E+00
          2   -1    0    0  501    0  0.00000000000E+00  0.00000000000E+00  0.73548718494E+02  0.73548718494E+02  0.00000000000E+00 0.  1.
         -2   -1    0    0    0  501 -0.00000000000E+00 -0.00000000000E+00 -0.25678308657E+03  0.25678308657E+03  0.00000000000E+00 0.  1.
         35    2    1    2    0    0  0.00000000000E+00  0.00000000000E+00 -0.18323436808E+03  0.33033180507E+03  0.27485317498E+03 0.  0.
         25    1    3    3    0    0  0.55368241419E+02 -0.11927333347E+02 -0.48649411551E+02  0.14133176813E+03  0.12000000000E+03 0.  0.
         25    1    3    3    0    0 -0.55368241419E+02  0.11927333347E+02 -0.13458495653E+03  0.18900003694E+03  0.12000000000E+03 0.  0.
<mgrwt>
<rscale>  0 0.27485317E+03</rscale>
<asrwt>0</asrwt>
<pdfrwt beam="1">  1        2 0.11315187E-01 0.27485317E+03</pdfrwt>
<pdfrwt beam="2">  1       -2 0.39505090E-01 0.27485317E+03</pdfrwt>
<totfact> 0.33372684E+03</totfact>
</mgrwt>
</event>
<event>
 5    1  0.1162308E+001  0.2756892E+03  0.7818608E-02  0.1098067E+00
         -1   -1    0    0    0  501 -0.00000000000E+00  0.00000000000E+00  0.32579915827E+02  0.32579915827E+02  0.00000000000E+00 0.  1.
          1   -1    0    0  501    0  0.00000000000E+00 -0.00000000000E+00 -0.58321608873E+03  0.58321608873E+03  0.00000000000E+00 0.  1.
         35    2    1    2    0    0  0.00000000000E+00  0.00000000000E+00 -0.55063617290E+03  0.61579600456E+03  0.27568918063E+03 0.  0.
         25    1    3    3    0    0  0.18020485989E+02 -0.69751824699E+01 -0.42055308318E+03  0.43776510466E+03  0.12000000000E+03 0.  0.
         25    1    3    3    0    0 -0.18020485989E+02  0.69751824699E+01 -0.13008308972E+03  0.17803089989E+03  0.12000000000E+03 0.  0.
<mgrwt>
<rscale>  0 0.27568918E+03</rscale>
<asrwt>0</asrwt>
<pdfrwt beam="1">  1        1 0.89725546E-01 0.27568918E+03</pdfrwt>
<pdfrwt beam="2">  1       -1 0.50122951E-02 0.27568918E+03</pdfrwt>
<totfact> 0.63924373E+03</totfact>
</mgrwt>
</event>
<event>
 5    1  0.1162308E+001  0.2746109E+03  0.7818608E-02  0.1098669E+00
          1   -1    0    0  501    0  0.00000000000E+00  0.00000000000E+00  0.63267474541E+03  0.63267474541E+03  0.00000000000E+00 0. -1.
         -1   -1    0    0    0  501 -0.00000000000E+00 -0.00000000000E+00 -0.29798553724E+02  0.29798553724E+02  0.00000000000E+00 0. -1.
         35    2    1    2    0    0  0.00000000000E+00  0.00000000000E+00  0.60287619168E+03  0.66247329913E+03  0.27461094218E+03 0.  0.
         25    1    3    3    0    0  0.30637196876E+02 -0.54829205920E+02  0.24706987863E+03  0.28175948001E+03  0.12000000000E+03 0.  0.
         25    1    3    3    0    0 -0.30637196876E+02  0.54829205920E+02  0.35580631306E+03  0.38071381912E+03  0.12000000000E+03 0.  0.
<mgrwt>
<rscale>  0 0.27461094E+03</rscale>
<asrwt>0</asrwt>
<pdfrwt beam="1">  1        1 0.97334566E-01 0.27461094E+03</pdfrwt>
<pdfrwt beam="2">  1       -1 0.45843933E-02 0.27461094E+03</pdfrwt>
<totfact> 0.65210684E+03</totfact>
</mgrwt>
</event>
<event>
 5    1  0.1162308E+001  0.2752144E+03  0.7818608E-02  0.1098332E+00
          4   -1    0    0  501    0  0.00000000000E+00  0.00000000000E+00  0.70446399139E+02  0.70446399139E+02  0.00000000000E+00 0. -1.
         -4   -1    0    0    0  501 -0.00000000000E+00 -0.00000000000E+00 -0.26879650828E+03  0.26879650828E+03  0.00000000000E+00 0. -1.
         35    2    1    2    0    0  0.00000000000E+00  0.00000000000E+00 -0.19835010915E+03  0.33924290742E+03  0.27521443356E+03 0.  0.
         25    1    3    3    0    0  0.14521088561E+02  0.65356821928E+02 -0.10818014055E+03  0.17488658895E+03  0.12000000000E+03 0.  0.
         25    1    3    3    0    0 -0.14521088561E+02 -0.65356821928E+02 -0.90169968596E+02  0.16435631847E+03  0.12000000000E+03 0.  0.
<mgrwt>
<rscale>  0 0.27521443E+03</rscale>
<asrwt>0</asrwt>
<pdfrwt beam="1">  1        4 0.10837908E-01 0.27521443E+03</pdfrwt>
<pdfrwt beam="2">  1       -4 0.41353308E-01 0.27521443E+03</pdfrwt>
<totfact> 0.70640508E+02</totfact>
</mgrwt>
</event>
<event>
 5    1  0.1162308E+001  0.2741071E+03  0.7818608E-02  0.1098952E+00
         -2   -1    0    0    0  501 -0.00000000000E+00  0.00000000000E+00  0.16158625657E+03  0.16158625657E+03  0.00000000000E+00 0.  1.
          2   -1    0    0  501    0  0.00000000000E+00 -0.00000000000E+00 -0.11624553308E+03  0.11624553308E+03  0.00000000000E+00 0.  1.
         35    2    1    2    0    0  0.00000000000E+00  0.00000000000E+00  0.45340723496E+02  0.27783178965E+03  0.27410713623E+03 0.  0.
         25    1    3    3    0    0  0.26253482019E+02 -0.20908754760E+02  0.80518282436E+02  0.14835637887E+03  0.12000000000E+03 0.  0.
         25    1    3    3    0    0 -0.26253482019E+02  0.20908754760E+02 -0.35177558940E+02  0.12947541078E+03  0.12000000000E+03 0.  0.
<mgrwt>
<rscale>  0 0.27410714E+03</rscale>
<asrwt>0</asrwt>
<pdfrwt beam="1">  1        2 0.17883928E-01 0.27410714E+03</pdfrwt>
<pdfrwt beam="2">  1       -2 0.24859424E-01 0.27410714E+03</pdfrwt>
<totfact> 0.45130407E+03</totfact>
</mgrwt>
</event>
<event>
 5    1  0.1162308E+001  0.2749493E+03  0.7818608E-02  0.1098480E+00
         -1   -1    0    0    0  501 -0.00000000000E+00  0.00000000000E+00  0.36842638208E+03  0.36842638208E+03  0.00000000000E+00 0. -1.
          1   -1    0    0  501    0  0.00000000000E+00 -0.00000000000E+00 -0.51297290774E+02  0.51297290774E+02  0.00000000000E+00 0. -1.
         35    2    1    2    0    0  0.00000000000E+00  0.00000000000E+00  0.31712909131E+03  0.41972367285E+03  0.27494926987E+03 0.  0.
         25    1    3    3    0    0 -0.63717643751E+02 -0.17758498835E+02  0.14156747121E+03  0.19701941861E+03  0.12000000000E+03 0.  0.
         25    1    3    3    0    0  0.63717643751E+02  0.17758498835E+02  0.17556162010E+03  0.22270425424E+03  0.12000000000E+03 0.  0.
<mgrwt>
<rscale>  0 0.27494927E+03</rscale>
<asrwt>0</asrwt>
<pdfrwt beam="1">  1        1 0.78918911E-02 0.27494927E+03</pdfrwt>
<pdfrwt beam="2">  1       -1 0.56680980E-01 0.27494927E+03</pdfrwt>
<totfact> 0.28631450E+03</totfact>
</mgrwt>
</event>
<event>
 5    1  0.1162308E+001  0.2740735E+03  0.7818608E-02  0.1098971E+00
         -4   -1    0    0    0  501 -0.00000000000E+00  0.00000000000E+00  0.24285399350E+03  0.24285399350E+03  0.00000000000E+00 0.  1.
          4   -1    0    0  501    0  0.00000000000E+00 -0.00000000000E+00 -0.77326600208E+02  0.77326600208E+02  0.00000000000E+00 0.  1.
         35    2    1    2    0    0  0.00000000000E+00  0.00000000000E+00  0.16552739329E+03  0.32018059371E+03  0.27407352054E+03 0.  0.
         25    1    3    3    0    0  0.50126870077E+02  0.20872749716E+02  0.38575930618E+02  0.13724604624E+03  0.12000000000E+03 0.  0.
         25    1    3    3    0    0 -0.50126870077E+02 -0.20872749716E+02  0.12695146268E+03  0.18293454748E+03  0.12000000000E+03 0.  0.
<mgrwt>
<rscale>  0 0.27407352E+03</rscale>
<asrwt>0</asrwt>
<pdfrwt beam="1">  1        4 0.11896400E-01 0.27407352E+03</pdfrwt>
<pdfrwt beam="2">  1       -4 0.37362153E-01 0.27407352E+03</pdfrwt>
<totfact> 0.73558272E+02</totfact>
</mgrwt>
</event>
<event>
 5    1  0.1162308E+001  0.2743462E+03  0.7818608E-02  0.1098818E+00
         -2   -1    0    0    0  501 -0.00000000000E+00  0.00000000000E+00  0.23451794726E+02  0.23451794726E+02  0.00000000000E+00 0.  1.
          2   -1    0    0  501    0  0.00000000000E+00 -0.00000000000E+00 -0.80234607815E+03  0.80234607815E+03  0.00000000000E+00 0.  1.
         35    2    1    2    0    0  0.00000000000E+00  0.00000000000E+00 -0.77889428343E+03  0.82579787288E+03  0.27434617201E+03 0.  0.
         25    1    3    3    0    0  0.90488718121E+01 -0.51876099850E+02 -0.51147311254E+03  0.52799408772E+03  0.12000000000E+03 0.  0.
         25    1    3    3    0    0 -0.90488718121E+01  0.51876099850E+02 -0.26742117089E+03  0.29780378516E+03  0.12000000000E+03 0.  0.
<mgrwt>
<rscale>  0 0.27434617E+03</rscale>
<asrwt>0</asrwt>
<pdfrwt beam="1">  1        2 0.12343786E+00 0.27434617E+03</pdfrwt>
<pdfrwt beam="2">  1       -2 0.36079685E-02 0.27434617E+03</pdfrwt>
<totfact> 0.11309001E+04</totfact>
</mgrwt>
</event>
<event>
 5    1  0.1162308E+001  0.2746480E+03  0.7818608E-02  0.1098649E+00
         -2   -1    0    0    0  501 -0.00000000000E+00  0.00000000000E+00  0.13194926982E+02  0.13194926982E+02  0.00000000000E+00 0.  1.
          2   -1    0    0  501    0  0.00000000000E+00 -0.00000000000E+00 -0.14291764695E+04  0.14291764695E+04  0.00000000000E+00 0.  1.
         35    2    1    2    0    0  0.00000000000E+00  0.00000000000E+00 -0.14159815425E+04  0.14423713965E+04  0.27464798677E+03 0.  0.
         25    1    3    3    0    0 -0.31956276495E+02  0.44243101580E+02 -0.50600648573E+03  0.52289694898E+03  0.12000000000E+03 0.  0.
         25    1    3    3    0    0  0.31956276495E+02 -0.44243101580E+02 -0.90997505678E+03  0.91947444750E+03  0.12000000000E+03 0.  0.
<mgrwt>
<rscale>  0 0.27464799E+03</rscale>
<asrwt>0</asrwt>
<pdfrwt beam="1">  1        2 0.21987316E+00 0.27464799E+03</pdfrwt>
<pdfrwt beam="2">  1       -2 0.20299901E-02 0.27464799E+03</pdfrwt>
<totfact> 0.11265493E+04</totfact>
</mgrwt>
</event>
<event>
 5    1  0.1162308E+001  0.2639579E+03  0.7818608E-02  0.1104788E+00
          2   -1    0    0  501    0  0.00000000000E+00  0.00000000000E+00  0.13430200220E+04  0.13430200220E+04  0.00000000000E+00 0.  1.
         -2   -1    0    0    0  501 -0.00000000000E+00 -0.00000000000E+00 -0.12969605903E+02  0.12969605903E+02  0.00000000000E+00 0.  1.
         35    2    1    2    0    0  0.00000000000E+00  0.00000000000E+00  0.13300504161E+04  0.13559896279E+04  0.26395787850E+03 0.  0.
         25    1    3    3    0    0  0.27488825967E+02  0.45326574714E+02  0.73916871519E+03  0.75072000336E+03  0.12000000000E+03 0.  0.
         25    1    3    3    0    0 -0.27488825967E+02 -0.45326574714E+02  0.59088170086E+03  0.60526962450E+03  0.12000000000E+03 0.  0.
<mgrwt>
<rscale>  0 0.26395788E+03</rscale>
<asrwt>0</asrwt>
<pdfrwt beam="1">  1        2 0.20661836E+00 0.26395788E+03</pdfrwt>
<pdfrwt beam="2">  1       -2 0.19953250E-02 0.26395788E+03</pdfrwt>
<totfact> 0.12858345E+04</totfact>
</mgrwt>
</event>
<event>
 5    1  0.1162308E+001  0.2746555E+03  0.7818608E-02  0.1098644E+00
          1   -1    0    0  501    0  0.00000000000E+00  0.00000000000E+00  0.95201293494E+03  0.95201293494E+03  0.00000000000E+00 0.  1.
         -1   -1    0    0    0  501 -0.00000000000E+00 -0.00000000000E+00 -0.19809511185E+02  0.19809511185E+02  0.00000000000E+00 0.  1.
         35    2    1    2    0    0  0.00000000000E+00  0.00000000000E+00  0.93220342375E+03  0.97182244612E+03  0.27465549973E+03 0.  0.
         25    1    3    3    0    0 -0.26128557108E+02 -0.50578993869E+02  0.58958772556E+03  0.60436298882E+03  0.12000000000E+03 0.  0.
         25    1    3    3    0    0  0.26128557108E+02  0.50578993869E+02  0.34261569819E+03  0.36745945731E+03  0.12000000000E+03 0.  0.
<mgrwt>
<rscale>  0 0.27465550E+03</rscale>
<asrwt>0</asrwt>
<pdfrwt beam="1">  1        1 0.14646349E+00 0.27465550E+03</pdfrwt>
<pdfrwt beam="2">  1       -1 0.30476178E-02 0.27465550E+03</pdfrwt>
<totfact> 0.64036143E+03</totfact>
</mgrwt>
</event>
<event>
 5    1  0.1162308E+001  0.2756859E+03  0.7818608E-02  0.1098069E+00
          2   -1    0    0  501    0  0.00000000000E+00  0.00000000000E+00  0.15331498082E+03  0.15331498082E+03  0.00000000000E+00 0. -1.
         -2   -1    0    0    0  501 -0.00000000000E+00 -0.00000000000E+00 -0.12393234034E+03  0.12393234034E+03  0.00000000000E+00 0. -1.
         35    2    1    2    0    0  0.00000000000E+00  0.00000000000E+00  0.29382640481E+02  0.27724732116E+03  0.27568594003E+03 0.  0.
         25    1    3    3    0    0  0.16584799286E+02 -0.30328039100E+02 -0.43998771592E+02  0.13240369113E+03  0.12000000000E+03 0.  0.
         25    1    3    3    0    0 -0.16584799286E+02  0.30328039100E+02  0.73381412073E+02  0.14484363003E+03  0.12000000000E+03 0.  0.
<mgrwt>
<rscale>  0 0.27568594E+03</rscale>
<asrwt>0</asrwt>
<pdfrwt beam="1">  1        2 0.23586920E-01 0.27568594E+03</pdfrwt>
<pdfrwt beam="2">  1       -2 0.19066514E-01 0.27568594E+03</pdfrwt>
<totfact> 0.52081739E+03</totfact>
</mgrwt>
</event>
<event>
 5    1  0.1162308E+001  0.2736020E+03  0.7818608E-02  0.1099236E+00
          2   -1    0    0  501    0  0.00000000000E+00  0.00000000000E+00  0.26272850306E+03  0.26272850306E+03  0.00000000000E+00 0. -1.
         -2   -1    0    0    0  501 -0.00000000000E+00 -0.00000000000E+00 -0.71231373715E+02  0.71231373715E+02  0.00000000000E+00 0. -1.
         35    2    1    2    0    0  0.00000000000E+00  0.00000000000E+00  0.19149712934E+03  0.33395987677E+03  0.27360198966E+03 0.  0.
         25    1    3    3    0    0 -0.48467725728E+02 -0.44076437237E+02  0.89938251615E+02  0.16364822596E+03  0.12000000000E+03 0.  0.
         25    1    3    3    0    0  0.48467725728E+02  0.44076437237E+02  0.10155887773E+03  0.17031165081E+03  0.12000000000E+03 0.  0.
<mgrwt>
<rscale>  0 0.27360199E+03</rscale>
<asrwt>0</asrwt>
<pdfrwt beam="1">  1        2 0.40419769E-01 0.27360199E+03</pdfrwt>
<pdfrwt beam="2">  1       -2 0.10958673E-01 0.27360199E+03</pdfrwt>
<totfact> 0.71784329E+03</totfact>
</mgrwt>
</event>
<event>
 5    1  0.1162308E+001  0.2746329E+03  0.7818608E-02  0.1098657E+00
          2   -1    0    0  501    0  0.00000000000E+00  0.00000000000E+00  0.10777748100E+03  0.10777748100E+03  0.00000000000E+00 0.  1.
         -2   -1    0    0    0  501 -0.00000000000E+00 -0.00000000000E+00 -0.17495124325E+03  0.17495124325E+03  0.00000000000E+00 0.  1.
         35    2    1    2    0    0  0.00000000000E+00  0.00000000000E+00 -0.67173762243E+02  0.28272872425E+03  0.27463287710E+03 0.  0.
         25    1    3    3    0    0 -0.16300232808E+02  0.54674676977E+02 -0.69260756247E+02  0.14984014899E+03  0.12000000000E+03 0.  0.
         25    1    3    3    0    0  0.16300232808E+02 -0.54674676977E+02  0.20869940040E+01  0.13288857527E+03  0.12000000000E+03 0.  0.
<mgrwt>
<rscale>  0 0.27463288E+03</rscale>
<asrwt>0</asrwt>
<pdfrwt beam="1">  1        2 0.16581151E-01 0.27463288E+03</pdfrwt>
<pdfrwt beam="2">  1       -2 0.26915575E-01 0.27463288E+03</pdfrwt>
<totfact> 0.42815065E+03</totfact>
</mgrwt>
</event>
<event>
 5    1  0.1162308E+001  0.2746886E+03  0.7818608E-02  0.1098626E+00
         -1   -1    0    0    0  501 -0.00000000000E+00  0.00000000000E+00  0.11538318318E+03  0.11538318318E+03  0.00000000000E+00 0. -1.
          1   -1    0    0  501    0  0.00000000000E+00 -0.00000000000E+00 -0.16348533106E+03  0.16348533106E+03  0.00000000000E+00 0. -1.
         35    2    1    2    0    0  0.00000000000E+00  0.00000000000E+00 -0.48102147876E+02  0.27886851424E+03  0.27468860844E+03 0.  0.
         25    1    3    3    0    0  0.25954884688E+02  0.99086229241E+01 -0.85734344210E+02  0.15007403048E+03  0.12000000000E+03 0.  0.
         25    1    3    3    0    0 -0.25954884688E+02 -0.99086229241E+01  0.37632196333E+02  0.12879448376E+03  0.12000000000E+03 0.  0.
<mgrwt>
<rscale>  0 0.27468861E+03</rscale>
<asrwt>0</asrwt>
<pdfrwt beam="1">  1        1 0.25151589E-01 0.27468861E+03</pdfrwt>
<pdfrwt beam="2">  1       -1 0.17751259E-01 0.27468861E+03</pdfrwt>
<totfact> 0.46196229E+03</totfact>
</mgrwt>
</event>
<event>
 5    1  0.1162308E+001  0.2749667E+03  0.7818608E-02  0.1098470E+00
          2   -1    0    0  501    0  0.00000000000E+00  0.00000000000E+00  0.20839819759E+02  0.20839819759E+02  0.00000000000E+00 0.  1.
         -2   -1    0    0    0  501 -0.00000000000E+00 -0.00000000000E+00 -0.90699810794E+03  0.90699810794E+03  0.00000000000E+00 0.  1.
         35    2    1    2    0    0  0.00000000000E+00  0.00000000000E+00 -0.88615828818E+03  0.92783792770E+03  0.27496674047E+03 0.  0.
         25    1    3    3    0    0  0.20228531506E+02 -0.37700978231E+01 -0.22758774466E+03  0.25810770745E+03  0.12000000000E+03 0.  0.
         25    1    3    3    0    0 -0.20228531506E+02  0.37700978231E+01 -0.65857054352E+03  0.66973022025E+03  0.12000000000E+03 0.  0.
<mgrwt>
<rscale>  0 0.27496674E+03</rscale>
<asrwt>0</asrwt>
<pdfrwt beam="1">  1        2 0.32061269E-02 0.27496674E+03</pdfrwt>
<pdfrwt beam="2">  1       -2 0.13953814E+00 0.27496674E+03</pdfrwt>
<totfact> 0.10923434E+03</totfact>
</mgrwt>
</event>
<event>
 5    1  0.1162308E+001  0.2751904E+03  0.7818608E-02  0.1098345E+00
         -2   -1    0    0    0  501 -0.00000000000E+00  0.00000000000E+00  0.34267284573E+02  0.34267284573E+02  0.00000000000E+00 0. -1.
          2   -1    0    0  501    0  0.00000000000E+00 -0.00000000000E+00 -0.55249327488E+03  0.55249327488E+03  0.00000000000E+00 0. -1.
         35    2    1    2    0    0  0.00000000000E+00  0.00000000000E+00 -0.51822599031E+03  0.58676055945E+03  0.27519043788E+03 0.  0.
         25    1    3    3    0    0  0.42157314589E+02  0.51639885606E+02 -0.27917462549E+03  0.31109867964E+03  0.12000000000E+03 0.  0.
         25    1    3    3    0    0 -0.42157314589E+02 -0.51639885606E+02 -0.23905136482E+03  0.27566187981E+03  0.12000000000E+03 0.  0.
<mgrwt>
<rscale>  0 0.27519044E+03</rscale>
<asrwt>0</asrwt>
<pdfrwt beam="1">  1        2 0.84998962E-01 0.27519044E+03</pdfrwt>
<pdfrwt beam="2">  1       -2 0.52718901E-02 0.27519044E+03</pdfrwt>
<totfact> 0.99769161E+03</totfact>
</mgrwt>
</event>
<event>
 5    1  0.1162308E+001  0.2752188E+03  0.7818608E-02  0.1098329E+00
         -2   -1    0    0    0  501 -0.00000000000E+00  0.00000000000E+00  0.20876305014E+02  0.20876305014E+02  0.00000000000E+00 0.  1.
          2   -1    0    0  501    0  0.00000000000E+00 -0.00000000000E+00 -0.90707352640E+03  0.90707352640E+03  0.00000000000E+00 0.  1.
         35    2    1    2    0    0  0.00000000000E+00  0.00000000000E+00 -0.88619722139E+03  0.92794983142E+03  0.27521877558E+03 0.  0.
         25    1    3    3    0    0  0.47076715450E+02 -0.48114659120E+02 -0.43547977050E+03  0.45669888119E+03  0.12000000000E+03 0.  0.
         25    1    3    3    0    0 -0.47076715450E+02  0.48114659120E+02 -0.45071745089E+03  0.47125095023E+03  0.12000000000E+03 0.  0.
<mgrwt>
<rscale>  0 0.27521878E+03</rscale>
<asrwt>0</asrwt>
<pdfrwt beam="1">  1        2 0.13954975E+00 0.27521878E+03</pdfrwt>
<pdfrwt beam="2">  1       -2 0.32117397E-02 0.27521878E+03</pdfrwt>
<totfact> 0.11463560E+04</totfact>
</mgrwt>
</event>
<event>
 5    1  0.1162308E+001  0.2756525E+03  0.7818608E-02  0.1098087E+00
         -1   -1    0    0    0  501 -0.00000000000E+00  0.00000000000E+00  0.37961841199E+02  0.37961841199E+02  0.00000000000E+00 0. -1.
          1   -1    0    0  501    0  0.00000000000E+00 -0.00000000000E+00 -0.50039915370E+03  0.50039915370E+03  0.00000000000E+00 0. -1.
         35    2    1    2    0    0  0.00000000000E+00  0.00000000000E+00 -0.46243731250E+03  0.53836099490E+03  0.27565248563E+03 0.  0.
         25    1    3    3    0    0 -0.52443572868E+02 -0.42953567689E+02 -0.23289406225E+03  0.27061962520E+03  0.12000000000E+03 0.  0.
         25    1    3    3    0    0  0.52443572868E+02  0.42953567689E+02 -0.22954325025E+03  0.26774136970E+03  0.12000000000E+03 0.  0.
<mgrwt>
<rscale>  0 0.27565249E+03</rscale>
<asrwt>0</asrwt>
<pdfrwt beam="1">  1        1 0.76984486E-01 0.27565249E+03</pdfrwt>
<pdfrwt beam="2">  1       -1 0.58402832E-02 0.27565249E+03</pdfrwt>
<totfact> 0.62495167E+03</totfact>
</mgrwt>
</event>
<event>
 5    1  0.1162308E+001  0.2748261E+03  0.7818608E-02  0.1098549E+00
          3   -1    0    0  501    0  0.00000000000E+00  0.00000000000E+00  0.30015411794E+03  0.30015411794E+03  0.00000000000E+00 0. -1.
         -3   -1    0    0    0  501 -0.00000000000E+00 -0.00000000000E+00 -0.62908814284E+02  0.62908814284E+02  0.00000000000E+00 0. -1.
         35    2    1    2    0    0  0.00000000000E+00  0.00000000000E+00  0.23724530366E+03  0.36306293222E+03  0.27482605162E+03 0.  0.
         25    1    3    3    0    0 -0.33719153640E+02 -0.57826806643E+02  0.12019620167E+03  0.18255971019E+03  0.12000000000E+03 0.  0.
         25    1    3    3    0    0  0.33719153640E+02  0.57826806643E+02  0.11704910199E+03  0.18050322203E+03  0.12000000000E+03 0.  0.
<mgrwt>
<rscale>  0 0.27482605E+03</rscale>
<asrwt>0</asrwt>
<pdfrwt beam="1">  1        3 0.46177556E-01 0.27482605E+03</pdfrwt>
<pdfrwt beam="2">  1       -3 0.96782793E-02 0.27482605E+03</pdfrwt>
<totfact> 0.92803691E+02</totfact>
</mgrwt>
</event>
<event>
 5    1  0.1162308E+001  0.2762327E+03  0.7818608E-02  0.1097765E+00
          2   -1    0    0  501    0  0.00000000000E+00  0.00000000000E+00  0.15672087816E+04  0.15672087816E+04  0.00000000000E+00 0.  1.
         -2   -1    0    0    0  501 -0.00000000000E+00 -0.00000000000E+00 -0.12172037671E+02  0.12172037671E+02  0.00000000000E+00 0.  1.
         35    2    1    2    0    0  0.00000000000E+00  0.00000000000E+00  0.15550367439E+04  0.15793808193E+04  0.27623268690E+03 0.  0.
         25    1    3    3    0    0  0.36254495154E+02  0.40776218117E+02  0.10131931328E+04  0.10217325544E+04  0.12000000000E+03 0.  0.
         25    1    3    3    0    0 -0.36254495154E+02 -0.40776218117E+02  0.54184361107E+03  0.55764826480E+03  0.12000000000E+03 0.  0.
<mgrwt>
<rscale>  0 0.27623269E+03</rscale>
<asrwt>0</asrwt>
<pdfrwt beam="1">  1        2 0.24110888E+00 0.27623269E+03</pdfrwt>
<pdfrwt beam="2">  1       -2 0.18726224E-02 0.27623269E+03</pdfrwt>
<totfact> 0.10700311E+04</totfact>
</mgrwt>
</event>
<event>
 5    1  0.1162308E+001  0.2755191E+03  0.7818608E-02  0.1098162E+00
         -2   -1    0    0    0  501 -0.00000000000E+00  0.00000000000E+00  0.82677481686E+02  0.82677481686E+02  0.00000000000E+00 0.  1.
          2   -1    0    0  501    0  0.00000000000E+00 -0.00000000000E+00 -0.22953881393E+03  0.22953881393E+03  0.00000000000E+00 0.  1.
         35    2    1    2    0    0  0.00000000000E+00  0.00000000000E+00 -0.14686133224E+03  0.31221629561E+03  0.27551908162E+03 0.  0.
         25    1    3    3    0    0  0.61317037132E+02 -0.19159266360E+02 -0.49369732098E+02  0.14479028620E+03  0.12000000000E+03 0.  0.
         25    1    3    3    0    0 -0.61317037132E+02  0.19159266360E+02 -0.97491600142E+02  0.16742600941E+03  0.12000000000E+03 0.  0.
<mgrwt>
<rscale>  0 0.27551908E+03</rscale>
<asrwt>0</asrwt>
<pdfrwt beam="1">  1        2 0.35313663E-01 0.27551908E+03</pdfrwt>
<pdfrwt beam="2">  1       -2 0.12719613E-01 0.27551908E+03</pdfrwt>
<totfact> 0.65347247E+03</totfact>
</mgrwt>
</event>
<event>
 5    1  0.1162308E+001  0.2755974E+03  0.7818608E-02  0.1098118E+00
         -1   -1    0    0    0  501 -0.00000000000E+00  0.00000000000E+00  0.19165418325E+03  0.19165418325E+03  0.00000000000E+00 0.  1.
          1   -1    0    0  501    0  0.00000000000E+00 -0.00000000000E+00 -0.99076795082E+02  0.99076795082E+02  0.00000000000E+00 0.  1.
         35    2    1    2    0    0  0.00000000000E+00  0.00000000000E+00  0.92577388168E+02  0.29073097833E+03  0.27559740377E+03 0.  0.
         25    1    3    3    0    0 -0.25514716121E+02  0.62724685950E+02  0.48144641884E+02  0.14595647813E+03  0.12000000000E+03 0.  0.
         25    1    3    3    0    0  0.25514716121E+02 -0.62724685950E+02  0.44432746284E+02  0.14477450020E+03  0.12000000000E+03 0.  0.
<mgrwt>
<rscale>  0 0.27559740E+03</rscale>
<asrwt>0</asrwt>
<pdfrwt beam="1">  1        1 0.15242584E-01 0.27559740E+03</pdfrwt>
<pdfrwt beam="2">  1       -1 0.29485259E-01 0.27559740E+03</pdfrwt>
<totfact> 0.38190568E+03</totfact>
</mgrwt>
</event>
<event>
 5    1  0.1162308E+001  0.2745453E+03  0.7818608E-02  0.1098706E+00
         -4   -1    0    0    0  501 -0.00000000000E+00  0.00000000000E+00  0.64154777417E+02  0.64154777417E+02  0.00000000000E+00 0. -1.
          4   -1    0    0  501    0  0.00000000000E+00 -0.00000000000E+00 -0.29372382926E+03  0.29372382926E+03  0.00000000000E+00 0. -1.
         35    2    1    2    0    0  0.00000000000E+00  0.00000000000E+00 -0.22956905184E+03  0.35787860668E+03  0.27454534699E+03 0.  0.
         25    1    3    3    0    0  0.11190683631E+02  0.40709246130E+02 -0.18203101408E+03  0.22207603249E+03  0.12000000000E+03 0.  0.
         25    1    3    3    0    0 -0.11190683631E+02 -0.40709246130E+02 -0.47538037762E+02  0.13580257418E+03  0.12000000000E+03 0.  0.
<mgrwt>
<rscale>  0 0.27454535E+03</rscale>
<asrwt>0</asrwt>
<pdfrwt beam="1">  1        4 0.45188281E-01 0.27454535E+03</pdfrwt>
<pdfrwt beam="2">  1       -4 0.98699658E-02 0.27454535E+03</pdfrwt>
<totfact> 0.69299352E+02</totfact>
</mgrwt>
</event>
<event>
 5    1  0.1162308E+001  0.2737242E+03  0.7818608E-02  0.1099167E+00
         -2   -1    0    0    0  501 -0.00000000000E+00  0.00000000000E+00  0.91456785265E+01  0.91456785265E+01  0.00000000000E+00 0.  1.
          2   -1    0    0  501    0  0.00000000000E+00 -0.00000000000E+00 -0.20480970150E+04  0.20480970150E+04  0.00000000000E+00 0.  1.
         35    2    1    2    0    0  0.00000000000E+00  0.00000000000E+00 -0.20389513365E+04  0.20572426936E+04  0.27372421808E+03 0.  0.
         25    1    3    3    0    0 -0.19556560582E+02  0.77795890670E+01 -0.14881268541E+04  0.14931056610E+04  0.12000000000E+03 0.  0.
         25    1    3    3    0    0  0.19556560582E+02 -0.77795890670E+01 -0.55082448243E+03  0.56413703256E+03  0.12000000000E+03 0.  0.
<mgrwt>
<rscale>  0 0.27372422E+03</rscale>
<asrwt>0</asrwt>
<pdfrwt beam="1">  1        2 0.31509189E+00 0.27372422E+03</pdfrwt>
<pdfrwt beam="2">  1       -2 0.14070273E-02 0.27372422E+03</pdfrwt>
<totfact> 0.90796167E+03</totfact>
</mgrwt>
</event>
<event>
 4    1  0.1162308E+001  0.2569692E+03  0.7818608E-02  0.1108978E+00
         -1   -1    0    0    0  501 -0.00000000000E+00  0.00000000000E+00  0.15667342465E+02  0.15667342465E+02  0.00000000000E+00 0. -1.
          1   -1    0    0  501    0  0.00000000000E+00 -0.00000000000E+00 -0.10536755633E+04  0.10536755633E+04  0.00000000000E+00 0. -1.
         25    1    1    2    0    0 -0.42722964799E+02  0.15809036250E+02 -0.49505598471E+03  0.51142507305E+03  0.12000000000E+03 0.  0.
         25    1    1    2    0    0  0.42722964799E+02 -0.15809036250E+02 -0.54295223615E+03  0.55791783274E+03  0.12000000000E+03 0.  0.
<mgrwt>
<rscale>  0 0.25696923E+03</rscale>
<asrwt>0</asrwt>
<pdfrwt beam="1">  1        1 0.16210396E+00 0.25696923E+03</pdfrwt>
<pdfrwt beam="2">  1       -1 0.24103600E-02 0.25696923E+03</pdfrwt>
<totfact> 0.75788585E+03</totfact>
</mgrwt>
</event>
<event>
 5    1  0.1162308E+001  0.2747810E+03  0.7818608E-02  0.1098574E+00
          1   -1    0    0  501    0  0.00000000000E+00  0.00000000000E+00  0.10212861798E+04  0.10212861798E+04  0.00000000000E+00 0. -1.
         -1   -1    0    0    0  501 -0.00000000000E+00 -0.00000000000E+00 -0.18482719046E+02  0.18482719046E+02  0.00000000000E+00 0. -1.
         35    2    1    2    0    0  0.00000000000E+00  0.00000000000E+00  0.10028034607E+04  0.10397688988E+04  0.27478097115E+03 0.  0.
         25    1    3    3    0    0  0.37267667023E+02  0.44670803308E+02  0.62643307447E+03  0.64047073037E+03  0.12000000000E+03 0.  0.
         25    1    3    3    0    0 -0.37267667023E+02 -0.44670803308E+02  0.37637038626E+03  0.39929816845E+03  0.12000000000E+03 0.  0.
<mgrwt>
<rscale>  0 0.27478097E+03</rscale>
<asrwt>0</asrwt>
<pdfrwt beam="1">  1        1 0.15712091E+00 0.27478097E+03</pdfrwt>
<pdfrwt beam="2">  1       -1 0.28434960E-02 0.27478097E+03</pdfrwt>
<totfact> 0.62901767E+03</totfact>
</mgrwt>
</event>
<event>
 5    1  0.1162308E+001  0.2753699E+03  0.7818608E-02  0.1098245E+00
          3   -1    0    0  501    0  0.00000000000E+00  0.00000000000E+00  0.11831675474E+04  0.11831675474E+04  0.00000000000E+00 0.  1.
         -3   -1    0    0    0  501 -0.00000000000E+00 -0.00000000000E+00 -0.16022369836E+02  0.16022369836E+02  0.00000000000E+00 0.  1.
         35    2    1    2    0    0  0.00000000000E+00  0.00000000000E+00  0.11671451776E+04  0.11991899172E+04  0.27536991863E+03 0.  0.
         25    1    3    3    0    0  0.25054228727E+02  0.52255309104E+02  0.73435399682E+03  0.74634718755E+03  0.12000000000E+03 0.  0.
         25    1    3    3    0    0 -0.25054228727E+02 -0.52255309104E+02  0.43279118075E+03  0.45284272970E+03  0.12000000000E+03 0.  0.
<mgrwt>
<rscale>  0 0.27536992E+03</rscale>
<asrwt>0</asrwt>
<pdfrwt beam="1">  1        3 0.18202571E+00 0.27536992E+03</pdfrwt>
<pdfrwt beam="2">  1       -3 0.24649809E-02 0.27536992E+03</pdfrwt>
<totfact> 0.36347188E+02</totfact>
</mgrwt>
</event>
<event>
 5    1  0.1162308E+001  0.2751541E+03  0.7818608E-02  0.1098365E+00
         -2   -1    0    0    0  501 -0.00000000000E+00  0.00000000000E+00  0.99264111086E+02  0.99264111086E+02  0.00000000000E+00 0. -1.
          2   -1    0    0  501    0  0.00000000000E+00 -0.00000000000E+00 -0.19067760671E+03  0.19067760671E+03  0.00000000000E+00 0. -1.
         35    2    1    2    0    0  0.00000000000E+00  0.00000000000E+00 -0.91413495620E+02  0.28994171779E+03  0.27515408871E+03 0.  0.
         25    1    3    3    0    0  0.62403591649E+02  0.14363288620E+02 -0.67479508147E+02  0.15183542515E+03  0.12000000000E+03 0.  0.
         25    1    3    3    0    0 -0.62403591649E+02 -0.14363288620E+02 -0.23933987473E+02  0.13810629264E+03  0.12000000000E+03 0.  0.
<mgrwt>
<rscale>  0 0.27515409E+03</rscale>
<asrwt>0</asrwt>
<pdfrwt beam="1">  1        2 0.29335016E-01 0.27515409E+03</pdfrwt>
<pdfrwt beam="2">  1       -2 0.15271402E-01 0.27515409E+03</pdfrwt>
<totfact> 0.59290839E+03</totfact>
</mgrwt>
</event>
<event>
 5    1  0.1162308E+001  0.2748181E+03  0.7818608E-02  0.1098553E+00
          2   -1    0    0  501    0  0.00000000000E+00  0.00000000000E+00  0.20121468157E+03  0.20121468157E+03  0.00000000000E+00 0. -1.
         -2   -1    0    0    0  501 -0.00000000000E+00 -0.00000000000E+00 -0.93836336949E+02  0.93836336949E+02  0.00000000000E+00 0. -1.
         35    2    1    2    0    0  0.00000000000E+00  0.00000000000E+00  0.10737834462E+03  0.29505101852E+03  0.27481811192E+03 0.  0.
         25    1    3    3    0    0 -0.15843183895E+02  0.10568283271E+02 -0.15211605770E+02  0.12245034927E+03  0.12000000000E+03 0.  0.
         25    1    3    3    0    0  0.15843183895E+02 -0.10568283271E+02  0.12258995039E+03  0.17260066925E+03  0.12000000000E+03 0.  0.
<mgrwt>
<rscale>  0 0.27481811E+03</rscale>
<asrwt>0</asrwt>
<pdfrwt beam="1">  1        2 0.30956105E-01 0.27481811E+03</pdfrwt>
<pdfrwt beam="2">  1       -2 0.14436360E-01 0.27481811E+03</pdfrwt>
<totfact> 0.61325604E+03</totfact>
</mgrwt>
</event>
<event>
 5    1  0.1162308E+001  0.2746081E+03  0.7818608E-02  0.1098671E+00
          2   -1    0    0  501    0  0.00000000000E+00  0.00000000000E+00  0.85550173764E+03  0.85550173764E+03  0.00000000000E+00 0.  1.
         -2   -1    0    0    0  501 -0.00000000000E+00 -0.00000000000E+00 -0.22036658565E+02  0.22036658565E+02  0.00000000000E+00 0.  1.
         35    2    1    2    0    0  0.00000000000E+00  0.00000000000E+00  0.83346507908E+03  0.87753839621E+03  0.27460808214E+03 0.  0.
         25    1    3    3    0    0 -0.33724849609E+01  0.48145818880E+02  0.56397343173E+03  0.57861509247E+03  0.12000000000E+03 0.  0.
         25    1    3    3    0    0  0.33724849609E+01 -0.48145818880E+02  0.26949164734E+03  0.29892330374E+03  0.12000000000E+03 0.  0.
<mgrwt>
<rscale>  0 0.27460808E+03</rscale>
<asrwt>0</asrwt>
<pdfrwt beam="1">  1        2 0.13161563E+00 0.27460808E+03</pdfrwt>
<pdfrwt beam="2">  1       -2 0.33902558E-02 0.27460808E+03</pdfrwt>
<totfact> 0.11426511E+04</totfact>
</mgrwt>
</event>
<event>
 5    1  0.1162308E+001  0.2767941E+03  0.7818608E-02  0.1097453E+00
          1   -1    0    0  501    0  0.00000000000E+00  0.00000000000E+00  0.10033128720E+03  0.10033128720E+03  0.00000000000E+00 0. -1.
         -1   -1    0    0    0  501 -0.00000000000E+00 -0.00000000000E+00 -0.19090500510E+03  0.19090500510E+03  0.00000000000E+00 0. -1.
         35    2    1    2    0    0  0.00000000000E+00  0.00000000000E+00 -0.90573717903E+02  0.29123629230E+03  0.27679411045E+03 0.  0.
         25    1    3    3    0    0 -0.39864245679E+02  0.54768997443E+02 -0.31773710308E+02  0.14141559260E+03  0.12000000000E+03 0.  0.
         25    1    3    3    0    0  0.39864245679E+02 -0.54768997443E+02 -0.58800007595E+02  0.14982069970E+03  0.12000000000E+03 0.  0.
<mgrwt>
<rscale>  0 0.27679411E+03</rscale>
<asrwt>0</asrwt>
<pdfrwt beam="1">  1        1 0.15435583E-01 0.27679411E+03</pdfrwt>
<pdfrwt beam="2">  1       -1 0.29370001E-01 0.27679411E+03</pdfrwt>
<totfact> 0.37821312E+03</totfact>
</mgrwt>
</event>
<event>
 5    1  0.1162308E+001  0.2743685E+03  0.7818608E-02  0.1098805E+00
          2   -1    0    0  501    0  0.00000000000E+00  0.00000000000E+00  0.15244736211E+03  0.15244736211E+03  0.00000000000E+00 0.  1.
         -2   -1    0    0    0  501 -0.00000000000E+00 -0.00000000000E+00 -0.12344931345E+03  0.12344931345E+03  0.00000000000E+00 0.  1.
         35    2    1    2    0    0  0.00000000000E+00  0.00000000000E+00  0.28998048662E+02  0.27589667556E+03  0.27436852727E+03 0.  0.
         25    1    3    3    0    0  0.30818214193E+02 -0.29607952442E+02  0.65705423541E+02  0.14333037311E+03  0.12000000000E+03 0.  0.
         25    1    3    3    0    0 -0.30818214193E+02  0.29607952442E+02 -0.36707374880E+02  0.13256630245E+03  0.12000000000E+03 0.  0.
<mgrwt>
<rscale>  0 0.27436853E+03</rscale>
<asrwt>0</asrwt>
<pdfrwt beam="1">  1        2 0.23453440E-01 0.27436853E+03</pdfrwt>
<pdfrwt beam="2">  1       -2 0.18992202E-01 0.27436853E+03</pdfrwt>
<totfact> 0.52755363E+03</totfact>
</mgrwt>
</event>
<event>
 5    1  0.1162308E+001  0.2729896E+03  0.7818608E-02  0.1099581E+00
         -2   -1    0    0    0  501 -0.00000000000E+00  0.00000000000E+00  0.83755427768E+03  0.83755427768E+03  0.00000000000E+00 0.  1.
          2   -1    0    0  501    0  0.00000000000E+00 -0.00000000000E+00 -0.22244318722E+02  0.22244318722E+02  0.00000000000E+00 0.  1.
         35    2    1    2    0    0  0.00000000000E+00  0.00000000000E+00  0.81530995896E+03  0.85979859640E+03  0.27298955511E+03 0.  0.
         25    1    3    3    0    0 -0.63958842952E+02  0.11329755150E+02  0.41844073977E+03  0.44012696991E+03  0.12000000000E+03 0.  0.
         25    1    3    3    0    0  0.63958842952E+02 -0.11329755150E+02  0.39686921919E+03  0.41967162649E+03  0.12000000000E+03 0.  0.
<mgrwt>
<rscale>  0 0.27298956E+03</rscale>
<asrwt>0</asrwt>
<pdfrwt beam="1">  1        2 0.34222035E-02 0.27298956E+03</pdfrwt>
<pdfrwt beam="2">  1       -2 0.12885448E+00 0.27298956E+03</pdfrwt>
<totfact> 0.12198567E+03</totfact>
</mgrwt>
</event>
<event>
 5    1  0.1162308E+001  0.2746587E+03  0.7818608E-02  0.1098643E+00
         -2   -1    0    0    0  501 -0.00000000000E+00  0.00000000000E+00  0.78217521647E+01  0.78217521647E+01  0.00000000000E+00 0.  1.
          2   -1    0    0  501    0  0.00000000000E+00 -0.00000000000E+00 -0.24111413373E+04  0.24111413373E+04  0.00000000000E+00 0.  1.
         35    2    1    2    0    0  0.00000000000E+00  0.00000000000E+00 -0.24033195851E+04  0.24189630894E+04  0.27465869711E+03 0.  0.
         25    1    3    3    0    0  0.50063006959E+02 -0.17106751780E+02 -0.84278511317E+03  0.85292771828E+03  0.12000000000E+03 0.  0.
         25    1    3    3    0    0 -0.50063006959E+02  0.17106751780E+02 -0.15605344719E+04  0.15660353712E+04  0.12000000000E+03 0.  0.
<mgrwt>
<rscale>  0 0.27465870E+03</rscale>
<asrwt>0</asrwt>
<pdfrwt beam="1">  1        2 0.37094446E+00 0.27465870E+03</pdfrwt>
<pdfrwt beam="2">  1       -2 0.12033477E-02 0.27465870E+03</pdfrwt>
<totfact> 0.73014990E+03</totfact>
</mgrwt>
</event>
<event>
 5    1  0.1162308E+001  0.2762181E+03  0.7818608E-02  0.1097773E+00
         -1   -1    0    0    0  501 -0.00000000000E+00  0.00000000000E+00  0.11791817408E+02  0.11791817408E+02  0.00000000000E+00 0. -1.
          1   -1    0    0  501    0  0.00000000000E+00 -0.00000000000E+00 -0.16175711851E+04  0.16175711851E+04  0.00000000000E+00 0. -1.
         35    2    1    2    0    0  0.00000000000E+00  0.00000000000E+00 -0.16057793677E+04  0.16293630025E+04  0.27621805921E+03 0.  0.
         25    1    3    3    0    0 -0.19142590419E+02  0.45241599898E+02 -0.52240903867E+03  0.53826057335E+03  0.12000000000E+03 0.  0.
         25    1    3    3    0    0  0.19142590419E+02 -0.45241599898E+02 -0.10833703290E+04  0.10911024291E+04  0.12000000000E+03 0.  0.
<mgrwt>
<rscale>  0 0.27621806E+03</rscale>
<asrwt>0</asrwt>
<pdfrwt beam="1">  1        1 0.24885712E+00 0.27621806E+03</pdfrwt>
<pdfrwt beam="2">  1       -1 0.18141256E-02 0.27621806E+03</pdfrwt>
<totfact> 0.47343112E+03</totfact>
</mgrwt>
</event>
<event>
 5    1  0.1162308E+001  0.2726673E+03  0.7818608E-02  0.1099763E+00
         -2   -1    0    0    0  501 -0.00000000000E+00  0.00000000000E+00  0.18506802320E+03  0.18506802320E+03  0.00000000000E+00 0. -1.
          2   -1    0    0  501    0  0.00000000000E+00 -0.00000000000E+00 -0.10043261256E+03  0.10043261256E+03  0.00000000000E+00 0. -1.
         35    2    1    2    0    0  0.00000000000E+00  0.00000000000E+00  0.84635410633E+02  0.28550063576E+03  0.27266730696E+03 0.  0.
         25    1    3    3    0    0  0.50953552029E+02 -0.39477065291E+02  0.36379639351E+02  0.14099000428E+03  0.12000000000E+03 0.  0.
         25    1    3    3    0    0 -0.50953552029E+02  0.39477065291E+02  0.48255771282E+02  0.14451063148E+03  0.12000000000E+03 0.  0.
<mgrwt>
<rscale>  0 0.27266731E+03</rscale>
<asrwt>0</asrwt>
<pdfrwt beam="1">  1        2 0.15451171E-01 0.27266731E+03</pdfrwt>
<pdfrwt beam="2">  1       -2 0.28472004E-01 0.27266731E+03</pdfrwt>
<totfact> 0.42051449E+03</totfact>
</mgrwt>
</event>
<event>
 5    1  0.1162308E+001  0.2768340E+03  0.7818608E-02  0.1097431E+00
         -2   -1    0    0    0  501 -0.00000000000E+00  0.00000000000E+00  0.15118853030E+03  0.15118853030E+03  0.00000000000E+00 0. -1.
          2   -1    0    0  501    0  0.00000000000E+00 -0.00000000000E+00 -0.12672436426E+03  0.12672436426E+03  0.00000000000E+00 0. -1.
         35    2    1    2    0    0  0.00000000000E+00  0.00000000000E+00  0.24464166036E+02  0.27791289456E+03  0.27683403249E+03 0.  0.
         25    1    3    3    0    0  0.51205819814E+02 -0.25307059547E+02 -0.26607024377E+02  0.13553751138E+03  0.12000000000E+03 0.  0.
         25    1    3    3    0    0 -0.51205819814E+02  0.25307059547E+02  0.51071190412E+02  0.14237538318E+03  0.12000000000E+03 0.  0.
<mgrwt>
<rscale>  0 0.27683403E+03</rscale>
<asrwt>0</asrwt>
<pdfrwt beam="1">  1        2 0.19496056E-01 0.27683403E+03</pdfrwt>
<pdfrwt beam="2">  1       -2 0.23259774E-01 0.27683403E+03</pdfrwt>
<totfact> 0.45920981E+03</totfact>
</mgrwt>
</event>
<event>
 5    1  0.1162308E+001  0.2747895E+03  0.7818608E-02  0.1098569E+00
          2   -1    0    0  501    0  0.00000000000E+00  0.00000000000E+00  0.15233574112E+04  0.15233574112E+04  0.00000000000E+00 0. -1.
         -2   -1    0    0    0  501 -0.00000000000E+00 -0.00000000000E+00 -0.12391916185E+02  0.12391916185E+02  0.00000000000E+00 0. -1.
         35    2    1    2    0    0  0.00000000000E+00  0.00000000000E+00  0.15109654951E+04  0.15357493274E+04  0.27478950024E+03 0.  0.
         25    1    3    3    0    0  0.35386234183E+02  0.20986947212E+02  0.10504051987E+04  0.10580376737E+04  0.12000000000E+03 0.  0.
         25    1    3    3    0    0 -0.35386234183E+02 -0.20986947212E+02  0.46056029639E+03  0.47771165375E+03  0.12000000000E+03 0.  0.
<mgrwt>
<rscale>  0 0.27478950E+03</rscale>
<asrwt>0</asrwt>
<pdfrwt beam="1">  1        2 0.23436253E+00 0.27478950E+03</pdfrwt>
<pdfrwt beam="2">  1       -2 0.19064499E-02 0.27478950E+03</pdfrwt>
<totfact> 0.10997257E+04</totfact>
</mgrwt>
</event>
<event>
 5    1  0.1162308E+001  0.2757392E+03  0.7818608E-02  0.1098039E+00
          1   -1    0    0  501    0  0.00000000000E+00  0.00000000000E+00  0.14515256487E+04  0.14515256487E+04  0.00000000000E+00 0.  1.
         -1   -1    0    0    0  501 -0.00000000000E+00 -0.00000000000E+00 -0.13095208510E+02  0.13095208510E+02  0.00000000000E+00 0.  1.
         35    2    1    2    0    0  0.00000000000E+00  0.00000000000E+00  0.14384304402E+04  0.14646208572E+04  0.27573923208E+03 0.  0.
         25    1    3    3    0    0 -0.49551560449E+02  0.70281586297E+01  0.96281398511E+03  0.97155314938E+03  0.12000000000E+03 0.  0.
         25    1    3    3    0    0  0.49551560449E+02 -0.70281586297E+01  0.47561645510E+03  0.49306770784E+03  0.12000000000E+03 0.  0.
<mgrwt>
<rscale>  0 0.27573923E+03</rscale>
<asrwt>0</asrwt>
<pdfrwt beam="1">  1        1 0.22331151E+00 0.27573923E+03</pdfrwt>
<pdfrwt beam="2">  1       -1 0.20146486E-02 0.27573923E+03</pdfrwt>
<totfact> 0.52294798E+03</totfact>
</mgrwt>
</event>
<event>
 5    1  0.1162308E+001  0.2762752E+03  0.7818608E-02  0.1097741E+00
         -2   -1    0    0    0  501 -0.00000000000E+00  0.00000000000E+00  0.33363738032E+02  0.33363738032E+02  0.00000000000E+00 0. -1.
          2   -1    0    0  501    0  0.00000000000E+00 -0.00000000000E+00 -0.57193825098E+03  0.57193825098E+03  0.00000000000E+00 0. -1.
         35    2    1    2    0    0  0.00000000000E+00  0.00000000000E+00 -0.53857451295E+03  0.60530198901E+03  0.27627521044E+03 0.  0.
         25    1    3    3    0    0 -0.61855746998E+02  0.21291404423E+02 -0.31324496523E+03  0.34176287918E+03  0.12000000000E+03 0.  0.
         25    1    3    3    0    0  0.61855746998E+02 -0.21291404423E+02 -0.22532954771E+03  0.26353910983E+03  0.12000000000E+03 0.  0.
<mgrwt>
<rscale>  0 0.27627521E+03</rscale>
<asrwt>0</asrwt>
<pdfrwt beam="1">  1        2 0.87990510E-01 0.27627521E+03</pdfrwt>
<pdfrwt beam="2">  1       -2 0.51328822E-02 0.27627521E+03</pdfrwt>
<totfact> 0.99895563E+03</totfact>
</mgrwt>
</event>
<event>
 5    1  0.1162308E+001  0.2746781E+03  0.7818608E-02  0.1098632E+00
          2   -1    0    0  501    0  0.00000000000E+00  0.00000000000E+00  0.15219883114E+04  0.15219883114E+04  0.00000000000E+00 0.  1.
         -2   -1    0    0    0  501 -0.00000000000E+00 -0.00000000000E+00 -0.12393008719E+02  0.12393008719E+02  0.00000000000E+00 0.  1.
         35    2    1    2    0    0  0.00000000000E+00  0.00000000000E+00  0.15095953027E+04  0.15343813201E+04  0.27467809823E+03 0.  0.
         25    1    3    3    0    0 -0.61461475507E+02  0.70087492236E+01  0.89560510881E+03  0.90572354858E+03  0.12000000000E+03 0.  0.
         25    1    3    3    0    0  0.61461475507E+02 -0.70087492236E+01  0.61399019385E+03  0.62865777151E+03  0.12000000000E+03 0.  0.
<mgrwt>
<rscale>  0 0.27467810E+03</rscale>
<asrwt>0</asrwt>
<pdfrwt beam="1">  1        2 0.23415190E+00 0.27467810E+03</pdfrwt>
<pdfrwt beam="2">  1       -2 0.19066179E-02 0.27467810E+03</pdfrwt>
<totfact> 0.11014262E+04</totfact>
</mgrwt>
</event>
<event>
 5    1  0.1162308E+001  0.2732294E+03  0.7818608E-02  0.1099445E+00
          1   -1    0    0  501    0  0.00000000000E+00  0.00000000000E+00  0.63338736050E+02  0.63338736050E+02  0.00000000000E+00 0.  1.
         -1   -1    0    0    0  501 -0.00000000000E+00 -0.00000000000E+00 -0.29466289782E+03  0.29466289782E+03  0.00000000000E+00 0.  1.
         35    2    1    2    0    0  0.00000000000E+00  0.00000000000E+00 -0.23132416177E+03  0.35800163387E+03  0.27322939453E+03 0.  0.
         25    1    3    3    0    0 -0.52825652573E+02  0.13870943563E+02 -0.68773378441E+02  0.14870349770E+03  0.12000000000E+03 0.  0.
         25    1    3    3    0    0  0.52825652573E+02 -0.13870943563E+02 -0.16255078333E+03  0.20929813618E+03  0.12000000000E+03 0.  0.
<mgrwt>
<rscale>  0 0.27322939E+03</rscale>
<asrwt>0</asrwt>
<pdfrwt beam="1">  1        1 0.97444213E-02 0.27322939E+03</pdfrwt>
<pdfrwt beam="2">  1       -1 0.45332752E-01 0.27322939E+03</pdfrwt>
<totfact> 0.32568344E+03</totfact>
</mgrwt>
</event>
<event>
 5    1  0.1162308E+001  0.2890334E+03  0.7818608E-02  0.1090855E+00
          1   -1    0    0  501    0  0.00000000000E+00  0.00000000000E+00  0.59842024584E+03  0.59842024584E+03  0.00000000000E+00 0. -1.
         -1   -1    0    0    0  501 -0.00000000000E+00 -0.00000000000E+00 -0.34900353469E+02  0.34900353469E+02  0.00000000000E+00 0. -1.
         35    2    1    2    0    0  0.00000000000E+00  0.00000000000E+00  0.56351989237E+03  0.63332059931E+03  0.28903341055E+03 0.  0.
         25    1    3    3    0    0 -0.24853193642E+02 -0.74769753966E+02  0.24529950190E+03  0.28421830162E+03  0.12000000000E+03 0.  0.
         25    1    3    3    0    0  0.24853193642E+02  0.74769753966E+02  0.31822039047E+03  0.34910229769E+03  0.12000000000E+03 0.  0.
<mgrwt>
<rscale>  0 0.28903341E+03</rscale>
<asrwt>0</asrwt>
<pdfrwt beam="1">  1        1 0.92064646E-01 0.28903341E+03</pdfrwt>
<pdfrwt beam="2">  1       -1 0.53692856E-02 0.28903341E+03</pdfrwt>
<totfact> 0.55703377E+03</totfact>
</mgrwt>
</event>
<event>
 5    1  0.1162308E+001  0.2751550E+03  0.7818608E-02  0.1098365E+00
         -4   -1    0    0    0  501 -0.00000000000E+00  0.00000000000E+00  0.10190394067E+03  0.10190394067E+03  0.00000000000E+00 0. -1.
          4   -1    0    0  501    0  0.00000000000E+00 -0.00000000000E+00 -0.18573925792E+03  0.18573925792E+03  0.00000000000E+00 0. -1.
         35    2    1    2    0    0  0.00000000000E+00  0.00000000000E+00 -0.83835317254E+02  0.28764319859E+03  0.27515495503E+03 0.  0.
         25    1    3    3    0    0 -0.19365666884E+02 -0.19028700967E+02 -0.10627849632E+03  0.16257994739E+03  0.12000000000E+03 0.  0.
         25    1    3    3    0    0  0.19365666884E+02  0.19028700967E+02  0.22443179067E+02  0.12506325120E+03  0.12000000000E+03 0.  0.
<mgrwt>
<rscale>  0 0.27515496E+03</rscale>
<asrwt>0</asrwt>
<pdfrwt beam="1">  1        4 0.28575271E-01 0.27515496E+03</pdfrwt>
<pdfrwt beam="2">  1       -4 0.15677529E-01 0.27515496E+03</pdfrwt>
<totfact> 0.76259135E+02</totfact>
</mgrwt>
</event>
<event>
 5    1  0.1162308E+001  0.2749182E+03  0.7818608E-02  0.1098497E+00
         -2   -1    0    0    0  501 -0.00000000000E+00  0.00000000000E+00  0.48806076814E+03  0.48806076814E+03  0.00000000000E+00 0. -1.
          2   -1    0    0  501    0  0.00000000000E+00 -0.00000000000E+00 -0.38714463080E+02  0.38714463080E+02  0.00000000000E+00 0. -1.
         35    2    1    2    0    0  0.00000000000E+00  0.00000000000E+00  0.44934630506E+03  0.52677523122E+03  0.27491824668E+03 0.  0.
         25    1    3    3    0    0  0.43191311958E+02 -0.50481059543E+02  0.24193774913E+03  0.27811454701E+03  0.12000000000E+03 0.  0.
         25    1    3    3    0    0 -0.43191311958E+02  0.50481059543E+02  0.20740855592E+03  0.24866068421E+03  0.12000000000E+03 0.  0.
<mgrwt>
<rscale>  0 0.27491825E+03</rscale>
<asrwt>0</asrwt>
<pdfrwt beam="1">  1        2 0.59560716E-02 0.27491825E+03</pdfrwt>
<pdfrwt beam="2">  1       -2 0.75086267E-01 0.27491825E+03</pdfrwt>
<totfact> 0.20388592E+03</totfact>
</mgrwt>
</event>
<event>
 5    1  0.1162308E+001  0.2748390E+03  0.7818608E-02  0.1098542E+00
          1   -1    0    0  501    0  0.00000000000E+00  0.00000000000E+00  0.39637813682E+02  0.39637813682E+02  0.00000000000E+00 0.  1.
         -1   -1    0    0    0  501 -0.00000000000E+00 -0.00000000000E+00 -0.47641682041E+03  0.47641682041E+03  0.00000000000E+00 0.  1.
         35    2    1    2    0    0  0.00000000000E+00  0.00000000000E+00 -0.43677900673E+03  0.51605463409E+03  0.27483901588E+03 0.  0.
         25    1    3    3    0    0  0.30107355150E+02 -0.21313833344E+02 -0.11345209739E+03  0.16921025598E+03  0.12000000000E+03 0.  0.
         25    1    3    3    0    0 -0.30107355150E+02  0.21313833344E+02 -0.32332690934E+03  0.34684437812E+03  0.12000000000E+03 0.  0.
<mgrwt>
<rscale>  0 0.27483902E+03</rscale>
<asrwt>0</asrwt>
<pdfrwt beam="1">  1        1 0.60981251E-02 0.27483902E+03</pdfrwt>
<pdfrwt beam="2">  1       -1 0.73294897E-01 0.27483902E+03</pdfrwt>
<totfact> 0.24627434E+03</totfact>
</mgrwt>
</event>
<event>
 5    1  0.1162308E+001  0.2752793E+03  0.7818608E-02  0.1098296E+00
         -1   -1    0    0    0  501 -0.00000000000E+00  0.00000000000E+00  0.17778858673E+04  0.17778858673E+04  0.00000000000E+00 0.  1.
          1   -1    0    0  501    0  0.00000000000E+00 -0.00000000000E+00 -0.10655728917E+02  0.10655728917E+02  0.00000000000E+00 0.  1.
         35    2    1    2    0    0  0.00000000000E+00  0.00000000000E+00  0.17672301384E+04  0.17885415962E+04  0.27527927526E+03 0.  0.
         25    1    3    3    0    0 -0.39742918280E+02 -0.49223828769E+02  0.73232888544E+03  0.74478727253E+03  0.12000000000E+03 0.  0.
         25    1    3    3    0    0  0.39742918280E+02  0.49223828769E+02  0.10349012529E+04  0.10437543237E+04  0.12000000000E+03 0.  0.
<mgrwt>
<rscale>  0 0.27527928E+03</rscale>
<asrwt>0</asrwt>
<pdfrwt beam="1">  1        1 0.16393443E-02 0.27527928E+03</pdfrwt>
<pdfrwt beam="2">  1       -1 0.27352067E+00 0.27527928E+03</pdfrwt>
<totfact> 0.45320240E+02</totfact>
</mgrwt>
</event>
<event>
 5    1  0.1162308E+001  0.2759966E+03  0.7818608E-02  0.1097896E+00
         -1   -1    0    0    0  501 -0.00000000000E+00  0.00000000000E+00  0.36899504820E+03  0.36899504820E+03  0.00000000000E+00 0.  1.
          1   -1    0    0  501    0  0.00000000000E+00 -0.00000000000E+00 -0.51609167101E+02  0.51609167101E+02  0.00000000000E+00 0.  1.
         35    2    1    2    0    0  0.00000000000E+00  0.00000000000E+00  0.31738588110E+03  0.42060421530E+03  0.27599657318E+03 0.  0.
         25    1    3    3    0    0  0.27639705214E+02 -0.58207128304E+02  0.19247868283E+03  0.23579666332E+03  0.12000000000E+03 0.  0.
         25    1    3    3    0    0 -0.27639705214E+02  0.58207128304E+02  0.12490719827E+03  0.18480755198E+03  0.12000000000E+03 0.  0.
<mgrwt>
<rscale>  0 0.27599657E+03</rscale>
<asrwt>0</asrwt>
<pdfrwt beam="1">  1        1 0.79398721E-02 0.27599657E+03</pdfrwt>
<pdfrwt beam="2">  1       -1 0.56768468E-01 0.27599657E+03</pdfrwt>
<totfact> 0.28316050E+03</totfact>
</mgrwt>
</event>
<event>
 5    1  0.1162308E+001  0.2744236E+03  0.7818608E-02  0.1098774E+00
         -2   -1    0    0    0  501 -0.00000000000E+00  0.00000000000E+00  0.21310204855E+02  0.21310204855E+02  0.00000000000E+00 0. -1.
          2   -1    0    0  501    0  0.00000000000E+00 -0.00000000000E+00 -0.88347686267E+03  0.88347686267E+03  0.00000000000E+00 0. -1.
         35    2    1    2    0    0  0.00000000000E+00  0.00000000000E+00 -0.86216665781E+03  0.90478706752E+03  0.27442356260E+03 0.  0.
         25    1    3    3    0    0  0.14572966442E+02  0.34154701643E+02 -0.24905301463E+03  0.27893784091E+03  0.12000000000E+03 0.  0.
         25    1    3    3    0    0 -0.14572966442E+02 -0.34154701643E+02 -0.61311364318E+03  0.62584922661E+03  0.12000000000E+03 0.  0.
<mgrwt>
<rscale>  0 0.27442356E+03</rscale>
<asrwt>0</asrwt>
<pdfrwt beam="1">  1        2 0.13591953E+00 0.27442356E+03</pdfrwt>
<pdfrwt beam="2">  1       -2 0.32784927E-02 0.27442356E+03</pdfrwt>
<totfact> 0.11514168E+04</totfact>
</mgrwt>
</event>
<event>
 5    1  0.1162308E+001  0.2749331E+03  0.7818608E-02  0.1098489E+00
          2   -1    0    0  501    0  0.00000000000E+00  0.00000000000E+00  0.16033562166E+03  0.16033562166E+03  0.00000000000E+00 0.  1.
         -2   -1    0    0    0  501 -0.00000000000E+00 -0.00000000000E+00 -0.11785933661E+03  0.11785933661E+03  0.00000000000E+00 0.  1.
         35    2    1    2    0    0  0.00000000000E+00  0.00000000000E+00  0.42476285049E+02  0.27819495827E+03  0.27493308279E+03 0.  0.
         25    1    3    3    0    0  0.18245822757E+02  0.63459138446E+02  0.33085068177E+02  0.14090633072E+03  0.12000000000E+03 0.  0.
         25    1    3    3    0    0 -0.18245822757E+02 -0.63459138446E+02  0.93912168721E+01  0.13728862755E+03  0.12000000000E+03 0.  0.
<mgrwt>
<rscale>  0 0.27493308E+03</rscale>
<asrwt>0</asrwt>
<pdfrwt beam="1">  1        2 0.24667019E-01 0.27493308E+03</pdfrwt>
<pdfrwt beam="2">  1       -2 0.18132206E-01 0.27493308E+03</pdfrwt>
<totfact> 0.53926311E+03</totfact>
</mgrwt>
</event>
<event>
 5    1  0.1162308E+001  0.2817588E+03  0.7818608E-02  0.1094732E+00
          1   -1    0    0  501    0  0.00000000000E+00  0.00000000000E+00  0.32585084938E+03  0.32585084938E+03  0.00000000000E+00 0.  1.
         -1   -1    0    0    0  501 -0.00000000000E+00 -0.00000000000E+00 -0.60908237267E+02  0.60908237267E+02  0.00000000000E+00 0.  1.
         35    2    1    2    0    0  0.00000000000E+00  0.00000000000E+00  0.26494261212E+03  0.38675908665E+03  0.28175876808E+03 0.  0.
         25    1    3    3    0    0  0.11572420096E+00  0.61115745452E+02  0.18926450542E+03  0.23228474066E+03  0.12000000000E+03 0.  0.
         25    1    3    3    0    0 -0.11572420096E+00 -0.61115745452E+02  0.75678106697E+02  0.15447434598E+03  0.12000000000E+03 0.  0.
<mgrwt>
<rscale>  0 0.28175877E+03</rscale>
<asrwt>0</asrwt>
<pdfrwt beam="1">  1        1 0.50130899E-01 0.28175877E+03</pdfrwt>
<pdfrwt beam="2">  1       -1 0.93704983E-02 0.28175877E+03</pdfrwt>
<totfact> 0.52911008E+03</totfact>
</mgrwt>
</event>
<event>
 5    1  0.1162308E+001  0.2745889E+03  0.7818608E-02  0.1098682E+00
          2   -1    0    0  501    0  0.00000000000E+00  0.00000000000E+00  0.33654193231E+04  0.33654193231E+04  0.00000000000E+00 0. -1.
         -2   -1    0    0    0  501 -0.00000000000E+00 -0.00000000000E+00 -0.56010140067E+01  0.56010140067E+01  0.00000000000E+00 0. -1.
         35    2    1    2    0    0  0.00000000000E+00  0.00000000000E+00  0.33598183091E+04  0.33710203371E+04  0.27458886188E+03 0.  0.
         25    1    3    3    0    0  0.44852433159E+02 -0.26033475156E+02  0.11648357711E+04  0.11721483934E+04  0.12000000000E+03 0.  0.
         25    1    3    3    0    0 -0.44852433159E+02  0.26033475156E+02  0.21949825380E+04  0.21988719437E+04  0.12000000000E+03 0.  0.
<mgrwt>
<rscale>  0 0.27458886E+03</rscale>
<asrwt>0</asrwt>
<pdfrwt beam="1">  1        2 0.51775520E+00 0.27458886E+03</pdfrwt>
<pdfrwt beam="2">  1       -2 0.86169715E-03 0.27458886E+03</pdfrwt>
<totfact> 0.32846187E+03</totfact>
</mgrwt>
</event>
<event>
 5    1  0.1162308E+001  0.2776977E+03  0.7818608E-02  0.1096953E+00
         -4   -1    0    0    0  501 -0.00000000000E+00  0.00000000000E+00  0.18214114723E+04  0.18214114723E+04  0.00000000000E+00 0.  1.
          4   -1    0    0  501    0  0.00000000000E+00 -0.00000000000E+00 -0.10584647010E+02  0.10584647010E+02  0.00000000000E+00 0.  1.
         35    2    1    2    0    0  0.00000000000E+00  0.00000000000E+00  0.18108268253E+04  0.18319961194E+04  0.27769765930E+03 0.  0.
         25    1    3    3    0    0  0.13752029835E+02 -0.67979736114E+02  0.85075915042E+03  0.86197534470E+03  0.12000000000E+03 0.  0.
         25    1    3    3    0    0 -0.13752029835E+02  0.67979736114E+02  0.96006767491E+03  0.97002077465E+03  0.12000000000E+03 0.  0.
<mgrwt>
<rscale>  0 0.27769766E+03</rscale>
<asrwt>0</asrwt>
<pdfrwt beam="1">  1        4 0.16284087E-02 0.27769766E+03</pdfrwt>
<pdfrwt beam="2">  1       -4 0.28021690E+00 0.27769766E+03</pdfrwt>
<totfact> 0.12392348E+02</totfact>
</mgrwt>
</event>
<event>
 5    1  0.1162308E+001  0.2742335E+03  0.7818608E-02  0.1098881E+00
          2   -1    0    0  501    0  0.00000000000E+00  0.00000000000E+00  0.21242591642E+03  0.21242591642E+03  0.00000000000E+00 0.  1.
         -2   -1    0    0    0  501 -0.00000000000E+00 -0.00000000000E+00 -0.88506135087E+02  0.88506135087E+02  0.00000000000E+00 0.  1.
         35    2    1    2    0    0  0.00000000000E+00  0.00000000000E+00  0.12391978133E+03  0.30093205151E+03  0.27423345423E+03 0.  0.
         25    1    3    3    0    0  0.72428840169E+01  0.34270712386E+02  0.13614872617E+00  0.12500783829E+03  0.12000000000E+03 0.  0.
         25    1    3    3    0    0 -0.72428840169E+01 -0.34270712386E+02  0.12378363261E+03  0.17592421322E+03  0.12000000000E+03 0.  0.
<mgrwt>
<rscale>  0 0.27423345E+03</rscale>
<asrwt>0</asrwt>
<pdfrwt beam="1">  1        2 0.32680910E-01 0.27423345E+03</pdfrwt>
<pdfrwt beam="2">  1       -2 0.13616329E-01 0.27423345E+03</pdfrwt>
<totfact> 0.63612132E+03</totfact>
</mgrwt>
</event>
<event>
 5    1  0.1162308E+001  0.2740434E+03  0.7818608E-02  0.1098988E+00
          4   -1    0    0  501    0  0.00000000000E+00  0.00000000000E+00  0.41171785894E+02  0.41171785894E+02  0.00000000000E+00 0. -1.
         -4   -1    0    0    0  501 -0.00000000000E+00 -0.00000000000E+00 -0.45601484989E+03  0.45601484989E+03  0.00000000000E+00 0. -1.
         35    2    1    2    0    0  0.00000000000E+00  0.00000000000E+00 -0.41484306400E+03  0.49718663579E+03  0.27404339630E+03 0.  0.
         25    1    3    3    0    0  0.14730144084E+02  0.60391799447E+02 -0.16641762871E+03  0.21438044158E+03  0.12000000000E+03 0.  0.
         25    1    3    3    0    0 -0.14730144084E+02 -0.60391799447E+02 -0.24842543528E+03  0.28280619421E+03  0.12000000000E+03 0.  0.
<mgrwt>
<rscale>  0 0.27404340E+03</rscale>
<asrwt>0</asrwt>
<pdfrwt beam="1">  1        4 0.63341211E-02 0.27404340E+03</pdfrwt>
<pdfrwt beam="2">  1       -4 0.70156129E-01 0.27404340E+03</pdfrwt>
<totfact> 0.57709625E+02</totfact>
</mgrwt>
</event>
<event>
 5    1  0.1162308E+001  0.2791830E+03  0.7818608E-02  0.1096136E+00
         -4   -1    0    0    0  501 -0.00000000000E+00  0.00000000000E+00  0.22481959834E+04  0.22481959834E+04  0.00000000000E+00 0.  1.
          4   -1    0    0  501    0  0.00000000000E+00 -0.00000000000E+00 -0.86673004898E+01  0.86673004898E+01  0.00000000000E+00 0.  1.
         35    2    1    2    0    0  0.00000000000E+00  0.00000000000E+00  0.22395286829E+04  0.22568632839E+04  0.27918302347E+03 0.  0.
         25    1    3    3    0    0 -0.46374734950E+02  0.48093871231E+02  0.91812973410E+03  0.92834575732E+03  0.12000000000E+03 0.  0.
         25    1    3    3    0    0  0.46374734950E+02 -0.48093871231E+02  0.13213989488E+04  0.13285175265E+04  0.12000000000E+03 0.  0.
<mgrwt>
<rscale>  0 0.27918302E+03</rscale>
<asrwt>0</asrwt>
<pdfrwt beam="1">  1        4 0.13334326E-02 0.27918302E+03</pdfrwt>
<pdfrwt beam="2">  1       -4 0.34587584E+00 0.27918302E+03</pdfrwt>
<totfact> 0.67938650E+01</totfact>
</mgrwt>
</event>
<event>
 5    1  0.1162308E+001  0.2749465E+03  0.7818608E-02  0.1098481E+00
          1   -1    0    0  501    0  0.00000000000E+00  0.00000000000E+00  0.36326133203E+02  0.36326133203E+02  0.00000000000E+00 0. -1.
         -1   -1    0    0    0  501 -0.00000000000E+00 -0.00000000000E+00 -0.52025632920E+03  0.52025632920E+03  0.00000000000E+00 0. -1.
         35    2    1    2    0    0  0.00000000000E+00  0.00000000000E+00 -0.48393019600E+03  0.55658246240E+03  0.27494654545E+03 0.  0.
         25    1    3    3    0    0  0.16449039070E+02 -0.64359784902E+02 -0.22317609928E+03  0.26195481307E+03  0.12000000000E+03 0.  0.
         25    1    3    3    0    0 -0.16449039070E+02  0.64359784902E+02 -0.26075409672E+03  0.29462764934E+03  0.12000000000E+03 0.  0.
<mgrwt>
<rscale>  0 0.27494655E+03</rscale>
<asrwt>0</asrwt>
<pdfrwt beam="1">  1        1 0.55886360E-02 0.27494655E+03</pdfrwt>
<pdfrwt beam="2">  1       -1 0.80039433E-01 0.27494655E+03</pdfrwt>
<totfact> 0.23192552E+03</totfact>
</mgrwt>
</event>
<event>
 5    1  0.1162308E+001  0.2749417E+03  0.7818608E-02  0.1098484E+00
          2   -1    0    0  501    0  0.00000000000E+00  0.00000000000E+00  0.88883365376E+01  0.88883365376E+01  0.00000000000E+00 0. -1.
         -2   -1    0    0    0  501 -0.00000000000E+00 -0.00000000000E+00 -0.21261833554E+04  0.21261833554E+04  0.00000000000E+00 0. -1.
         35    2    1    2    0    0  0.00000000000E+00  0.00000000000E+00 -0.21172950188E+04  0.21350716919E+04  0.27494168984E+03 0.  0.
         25    1    3    3    0    0 -0.39990338340E+02 -0.34464934879E+02 -0.13798796489E+04  0.13860933967E+04  0.12000000000E+03 0.  0.
         25    1    3    3    0    0  0.39990338340E+02  0.34464934879E+02 -0.73741536998E+03  0.74897829527E+03  0.12000000000E+03 0.  0.
<mgrwt>
<rscale>  0 0.27494169E+03</rscale>
<asrwt>0</asrwt>
<pdfrwt beam="1">  1        2 0.13674351E-02 0.27494169E+03</pdfrwt>
<pdfrwt beam="2">  1       -2 0.32710545E+00 0.27494169E+03</pdfrwt>
<totfact> 0.23564631E+02</totfact>
</mgrwt>
</event>
<event>
 5    1  0.1162308E+001  0.2749168E+03  0.7818608E-02  0.1098498E+00
          2   -1    0    0  501    0  0.00000000000E+00  0.00000000000E+00  0.49551046937E+03  0.49551046937E+03  0.00000000000E+00 0. -1.
         -2   -1    0    0    0  501 -0.00000000000E+00 -0.00000000000E+00 -0.38131999720E+02  0.38131999720E+02  0.00000000000E+00 0. -1.
         35    2    1    2    0    0  0.00000000000E+00  0.00000000000E+00  0.45737846965E+03  0.53364246909E+03  0.27491675161E+03 0.  0.
         25    1    3    3    0    0 -0.11009608921E+01  0.24391905039E+02  0.34988992036E+03  0.37070086797E+03  0.12000000000E+03 0.  0.
         25    1    3    3    0    0  0.11009608921E+01 -0.24391905039E+02  0.10748854929E+03  0.16294160112E+03  0.12000000000E+03 0.  0.
<mgrwt>
<rscale>  0 0.27491675E+03</rscale>
<asrwt>0</asrwt>
<pdfrwt beam="1">  1        2 0.76232375E-01 0.27491675E+03</pdfrwt>
<pdfrwt beam="2">  1       -2 0.58664619E-02 0.27491675E+03</pdfrwt>
<totfact> 0.95807599E+03</totfact>
</mgrwt>
</event>
<event>
 5    1  0.1162308E+001  0.2741779E+03  0.7818608E-02  0.1098912E+00
          4   -1    0    0  501    0  0.00000000000E+00  0.00000000000E+00  0.67274751171E+02  0.67274751171E+02  0.00000000000E+00 0.  1.
         -4   -1    0    0    0  501 -0.00000000000E+00 -0.00000000000E+00 -0.27935256008E+03  0.27935256008E+03  0.00000000000E+00 0.  1.
         35    2    1    2    0    0  0.00000000000E+00  0.00000000000E+00 -0.21207780891E+03  0.34662731125E+03  0.27417785445E+03 0.  0.
         25    1    3    3    0    0  0.48578483092E+02 -0.43126318734E+02 -0.12269745692E+03  0.18350589724E+03  0.12000000000E+03 0.  0.
         25    1    3    3    0    0 -0.48578483092E+02  0.43126318734E+02 -0.89380351986E+02  0.16312141401E+03  0.12000000000E+03 0.  0.
<mgrwt>
<rscale>  0 0.27417785E+03</rscale>
<asrwt>0</asrwt>
<pdfrwt beam="1">  1        4 0.10349961E-01 0.27417785E+03</pdfrwt>
<pdfrwt beam="2">  1       -4 0.42977318E-01 0.27417785E+03</pdfrwt>
<totfact> 0.70711507E+02</totfact>
</mgrwt>
</event>
<event>
 5    1  0.1162308E+001  0.2750564E+03  0.7818608E-02  0.1098420E+00
         -1   -1    0    0    0  501 -0.00000000000E+00  0.00000000000E+00  0.19154638162E+02  0.19154638162E+02  0.00000000000E+00 0.  1.
          1   -1    0    0  501    0  0.00000000000E+00 -0.00000000000E+00 -0.98743730163E+03  0.98743730163E+03  0.00000000000E+00 0.  1.
         35    2    1    2    0    0  0.00000000000E+00  0.00000000000E+00 -0.96828266346E+03  0.10065919398E+04  0.27505638855E+03 0.  0.
         25    1    3    3    0    0  0.11599518671E+02 -0.33762639153E+02 -0.69243369983E+03  0.70366106421E+03  0.12000000000E+03 0.  0.
         25    1    3    3    0    0 -0.11599518671E+02  0.33762639153E+02 -0.27584896364E+03  0.30293087557E+03  0.12000000000E+03 0.  0.
<mgrwt>
<rscale>  0 0.27505639E+03</rscale>
<asrwt>0</asrwt>
<pdfrwt beam="1">  1        1 0.15191347E+00 0.27505639E+03</pdfrwt>
<pdfrwt beam="2">  1       -1 0.29468666E-02 0.27505639E+03</pdfrwt>
<totfact> 0.63256390E+03</totfact>
</mgrwt>
</event>
<event>
 5    1  0.1162308E+001  0.2751305E+03  0.7818608E-02  0.1098379E+00
          2   -1    0    0  501    0  0.00000000000E+00  0.00000000000E+00  0.65714307698E+03  0.65714307698E+03  0.00000000000E+00 0. -1.
         -2   -1    0    0    0  501 -0.00000000000E+00 -0.00000000000E+00 -0.28797674905E+02  0.28797674905E+02  0.00000000000E+00 0. -1.
         35    2    1    2    0    0  0.00000000000E+00  0.00000000000E+00  0.62834540207E+03  0.68594075188E+03  0.27513046139E+03 0.  0.
         25    1    3    3    0    0 -0.67157173156E+02 -0.20144434603E+01  0.32207594152E+03  0.35021001699E+03  0.12000000000E+03 0.  0.
         25    1    3    3    0    0  0.67157173156E+02  0.20144434603E+01  0.30626946055E+03  0.33573073490E+03  0.12000000000E+03 0.  0.
<mgrwt>
<rscale>  0 0.27513046E+03</rscale>
<asrwt>0</asrwt>
<pdfrwt beam="1">  1        2 0.10109892E+00 0.27513046E+03</pdfrwt>
<pdfrwt beam="2">  1       -2 0.44304120E-02 0.27513046E+03</pdfrwt>
<totfact> 0.10615154E+04</totfact>
</mgrwt>
</event>
<event>
 5    1  0.1162308E+001  0.2753434E+03  0.7818608E-02  0.1098260E+00
          1   -1    0    0  501    0  0.00000000000E+00  0.00000000000E+00  0.16786675014E+04  0.16786675014E+04  0.00000000000E+00 0. -1.
         -1   -1    0    0    0  501 -0.00000000000E+00 -0.00000000000E+00 -0.11290796738E+02  0.11290796738E+02  0.00000000000E+00 0. -1.
         35    2    1    2    0    0  0.00000000000E+00  0.00000000000E+00  0.16673767047E+04  0.16899582982E+04  0.27534337507E+03 0.  0.
         25    1    3    3    0    0 -0.13531873984E+02  0.55277945208E+02  0.10562343356E+04  0.10645514241E+04  0.12000000000E+03 0.  0.
         25    1    3    3    0    0  0.13531873984E+02 -0.55277945208E+02  0.61114236912E+03  0.62540687410E+03  0.12000000000E+03 0.  0.
<mgrwt>
<rscale>  0 0.27534338E+03</rscale>
<asrwt>0</asrwt>
<pdfrwt beam="1">  1        1 0.25825634E+00 0.27534338E+03</pdfrwt>
<pdfrwt beam="2">  1       -1 0.17370470E-02 0.27534338E+03</pdfrwt>
<totfact> 0.46002187E+03</totfact>
</mgrwt>
</event>
<event>
 5    1  0.1162308E+001  0.2757479E+03  0.7818608E-02  0.1098034E+00
         -3   -1    0    0    0  501 -0.00000000000E+00  0.00000000000E+00  0.39356892159E+03  0.39356892159E+03  0.00000000000E+00 0.  1.
          3   -1    0    0  501    0  0.00000000000E+00 -0.00000000000E+00 -0.48299615639E+02  0.48299615639E+02  0.00000000000E+00 0.  1.
         35    2    1    2    0    0  0.00000000000E+00  0.00000000000E+00  0.34526930595E+03  0.44186853723E+03  0.27574791125E+03 0.  0.
         25    1    3    3    0    0  0.29927823179E+02  0.54906070144E+02  0.21499710275E+03  0.25403563791E+03  0.12000000000E+03 0.  0.
         25    1    3    3    0    0 -0.29927823179E+02 -0.54906070144E+02  0.13027220321E+03  0.18783289932E+03  0.12000000000E+03 0.  0.
<mgrwt>
<rscale>  0 0.27574791E+03</rscale>
<asrwt>0</asrwt>
<pdfrwt beam="1">  1        3 0.74307104E-02 0.27574791E+03</pdfrwt>
<pdfrwt beam="2">  1       -3 0.60549063E-01 0.27574791E+03</pdfrwt>
<totfact> 0.82640117E+02</totfact>
</mgrwt>
</event>
<event>
 5    1  0.1162308E+001  0.2750696E+03  0.7818608E-02  0.1098413E+00
         -2   -1    0    0    0  501 -0.00000000000E+00  0.00000000000E+00  0.99889670857E+02  0.99889670857E+02  0.00000000000E+00 0. -1.
          2   -1    0    0  501    0  0.00000000000E+00 -0.00000000000E+00 -0.18936708771E+03  0.18936708771E+03  0.00000000000E+00 0. -1.
         35    2    1    2    0    0  0.00000000000E+00  0.00000000000E+00 -0.89477416853E+02  0.28925675857E+03  0.27506956257E+03 0.  0.
         25    1    3    3    0    0 -0.46077021619E+02 -0.48731216595E+02 -0.40278154541E+02  0.14324857111E+03  0.12000000000E+03 0.  0.
         25    1    3    3    0    0  0.46077021619E+02  0.48731216595E+02 -0.49199262312E+02  0.14600818746E+03  0.12000000000E+03 0.  0.
<mgrwt>
<rscale>  0 0.27506956E+03</rscale>
<asrwt>0</asrwt>
<pdfrwt beam="1">  1        2 0.29133398E-01 0.27506956E+03</pdfrwt>
<pdfrwt beam="2">  1       -2 0.15367642E-01 0.27506956E+03</pdfrwt>
<totfact> 0.59123381E+03</totfact>
</mgrwt>
</event>
<event>
 5    1  0.1162308E+001  0.2742778E+03  0.7818608E-02  0.1098856E+00
         -3   -1    0    0    0  501 -0.00000000000E+00  0.00000000000E+00  0.26757605150E+02  0.26757605150E+02  0.00000000000E+00 0.  1.
          3   -1    0    0  501    0  0.00000000000E+00 -0.00000000000E+00 -0.70286849484E+03  0.70286849484E+03  0.00000000000E+00 0.  1.
         35    2    1    2    0    0  0.00000000000E+00  0.00000000000E+00 -0.67611088969E+03  0.72962609999E+03  0.27427779828E+03 0.  0.
         25    1    3    3    0    0  0.36781646821E+02  0.27988048573E+02 -0.21128890859E+03  0.24734434156E+03  0.12000000000E+03 0.  0.
         25    1    3    3    0    0 -0.36781646821E+02 -0.27988048573E+02 -0.46482198110E+03  0.48228175844E+03  0.12000000000E+03 0.  0.
<mgrwt>
<rscale>  0 0.27427780E+03</rscale>
<asrwt>0</asrwt>
<pdfrwt beam="1">  1        3 0.10813360E+00 0.27427780E+03</pdfrwt>
<pdfrwt beam="2">  1       -3 0.41165553E-02 0.27427780E+03</pdfrwt>
<totfact> 0.59579197E+02</totfact>
</mgrwt>
</event>
<event>
 5    1  0.1162308E+001  0.2750811E+03  0.7818608E-02  0.1098406E+00
         -1   -1    0    0    0  501 -0.00000000000E+00  0.00000000000E+00  0.10582326454E+04  0.10582326454E+04  0.00000000000E+00 0. -1.
          1   -1    0    0  501    0  0.00000000000E+00 -0.00000000000E+00 -0.17876409644E+02  0.17876409644E+02  0.00000000000E+00 0. -1.
         35    2    1    2    0    0  0.00000000000E+00  0.00000000000E+00  0.10403562357E+04  0.10761090550E+04  0.27508108090E+03 0.  0.
         25    1    3    3    0    0  0.24633385707E+01  0.63715589461E+01  0.78174638207E+03  0.79093240588E+03  0.12000000000E+03 0.  0.
         25    1    3    3    0    0 -0.24633385707E+01 -0.63715589461E+01  0.25860985366E+03  0.28517664913E+03  0.12000000000E+03 0.  0.
<mgrwt>
<rscale>  0 0.27508108E+03</rscale>
<asrwt>0</asrwt>
<pdfrwt beam="1">  1        1 0.27502177E-02 0.27508108E+03</pdfrwt>
<pdfrwt beam="2">  1       -1 0.16280497E+00 0.27508108E+03</pdfrwt>
<totfact> 0.11689332E+03</totfact>
</mgrwt>
</event>
<event>
 5    1  0.1162308E+001  0.2772024E+03  0.7818608E-02  0.1097227E+00
          1   -1    0    0  501    0  0.00000000000E+00  0.00000000000E+00  0.53413511856E+03  0.53413511856E+03  0.00000000000E+00 0.  1.
         -1   -1    0    0    0  501 -0.00000000000E+00 -0.00000000000E+00 -0.35965237353E+02  0.35965237353E+02  0.00000000000E+00 0.  1.
         35    2    1    2    0    0  0.00000000000E+00  0.00000000000E+00  0.49816988121E+03  0.57010035591E+03  0.27720242652E+03 0.  0.
         25    1    3    3    0    0 -0.52449085768E+02 -0.40709019022E+02  0.29032855188E+03  0.32109001676E+03  0.12000000000E+03 0.  0.
         25    1    3    3    0    0  0.52449085768E+02  0.40709019022E+02  0.20784132933E+03  0.24901033915E+03  0.12000000000E+03 0.  0.
<mgrwt>
<rscale>  0 0.27720243E+03</rscale>
<asrwt>0</asrwt>
<pdfrwt beam="1">  1        1 0.82174628E-01 0.27720243E+03</pdfrwt>
<pdfrwt beam="2">  1       -1 0.55331138E-02 0.27720243E+03</pdfrwt>
<totfact> 0.62132763E+03</totfact>
</mgrwt>
</event>
<event>
 5    1  0.1162308E+001  0.2758960E+03  0.7818608E-02  0.1097952E+00
          2   -1    0    0  501    0  0.00000000000E+00  0.00000000000E+00  0.15578535702E+04  0.15578535702E+04  0.00000000000E+00 0. -1.
         -2   -1    0    0    0  501 -0.00000000000E+00 -0.00000000000E+00 -0.12215301271E+02  0.12215301271E+02  0.00000000000E+00 0. -1.
         35    2    1    2    0    0  0.00000000000E+00  0.00000000000E+00  0.15456382689E+04  0.15700688715E+04  0.27589599995E+03 0.  0.
         25    1    3    3    0    0  0.29623309942E+02 -0.60547237755E+02  0.82563705411E+03  0.83703049742E+03  0.12000000000E+03 0.  0.
         25    1    3    3    0    0 -0.29623309942E+02  0.60547237755E+02  0.72000121482E+03  0.73303837406E+03  0.12000000000E+03 0.  0.
<mgrwt>
<rscale>  0 0.27589600E+03</rscale>
<asrwt>0</asrwt>
<pdfrwt beam="1">  1        2 0.23966962E+00 0.27589600E+03</pdfrwt>
<pdfrwt beam="2">  1       -2 0.18792784E-02 0.27589600E+03</pdfrwt>
<totfact> 0.10767063E+04</totfact>
</mgrwt>
</event>
<event>
 5    1  0.1162308E+001  0.2748592E+03  0.7818608E-02  0.1098530E+00
         -1   -1    0    0    0  501 -0.00000000000E+00  0.00000000000E+00  0.70409171208E+03  0.70409171208E+03  0.00000000000E+00 0.  1.
          1   -1    0    0  501    0  0.00000000000E+00 -0.00000000000E+00 -0.26824483849E+02  0.26824483849E+02  0.00000000000E+00 0.  1.
         35    2    1    2    0    0  0.00000000000E+00  0.00000000000E+00  0.67726722823E+03  0.73091619592E+03  0.27485921312E+03 0.  0.
         25    1    3    3    0    0 -0.52674002783E+02  0.36470886962E+02  0.39062295694E+03  0.41363144301E+03  0.12000000000E+03 0.  0.
         25    1    3    3    0    0  0.52674002783E+02 -0.36470886962E+02  0.28664427129E+03  0.31728475291E+03  0.12000000000E+03 0.  0.
<mgrwt>
<rscale>  0 0.27485921E+03</rscale>
<asrwt>0</asrwt>
<pdfrwt beam="1">  1        1 0.41268442E-02 0.27485921E+03</pdfrwt>
<pdfrwt beam="2">  1       -1 0.10832179E+00 0.27485921E+03</pdfrwt>
<totfact> 0.18279958E+03</totfact>
</mgrwt>
</event>
<event>
 5    1  0.1162308E+001  0.2751620E+03  0.7818608E-02  0.1098361E+00
          1   -1    0    0  501    0  0.00000000000E+00  0.00000000000E+00  0.19734899427E+04  0.19734899427E+04  0.00000000000E+00 0. -1.
         -1   -1    0    0    0  501 -0.00000000000E+00 -0.00000000000E+00 -0.95914013265E+01  0.95914013265E+01  0.00000000000E+00 0. -1.
         35    2    1    2    0    0  0.00000000000E+00  0.00000000000E+00  0.19638985414E+04  0.19830813440E+04  0.27516201812E+03 0.  0.
         25    1    3    3    0    0 -0.60808068534E+02 -0.56704851845E+01  0.77826392872E+03  0.78982562528E+03  0.12000000000E+03 0.  0.
         25    1    3    3    0    0  0.60808068534E+02  0.56704851845E+01  0.11856346127E+04  0.11932557187E+04  0.12000000000E+03 0.  0.
<mgrwt>
<rscale>  0 0.27516202E+03</rscale>
<asrwt>0</asrwt>
<pdfrwt beam="1">  1        1 0.30361352E+00 0.27516202E+03</pdfrwt>
<pdfrwt beam="2">  1       -1 0.14756018E-02 0.27516202E+03</pdfrwt>
<totfact> 0.37522835E+03</totfact>
</mgrwt>
</event>
<event>
 5    1  0.1162308E+001  0.2747454E+03  0.7818608E-02  0.1098594E+00
          2   -1    0    0  501    0  0.00000000000E+00  0.00000000000E+00  0.40947154984E+03  0.40947154984E+03  0.00000000000E+00 0. -1.
         -2   -1    0    0    0  501 -0.00000000000E+00 -0.00000000000E+00 -0.46086863603E+02  0.46086863603E+02  0.00000000000E+00 0. -1.
         35    2    1    2    0    0  0.00000000000E+00  0.00000000000E+00  0.36338468623E+03  0.45555841344E+03  0.27474540554E+03 0.  0.
         25    1    3    3    0    0 -0.29370977305E+02  0.51889902857E+02  0.13150761258E+03  0.18774841808E+03  0.12000000000E+03 0.  0.
         25    1    3    3    0    0  0.29370977305E+02 -0.51889902857E+02  0.23187707366E+03  0.26780999536E+03  0.12000000000E+03 0.  0.
<mgrwt>
<rscale>  0 0.27474541E+03</rscale>
<asrwt>0</asrwt>
<pdfrwt beam="1">  1        2 0.62995621E-01 0.27474541E+03</pdfrwt>
<pdfrwt beam="2">  1       -2 0.70902870E-02 0.27474541E+03</pdfrwt>
<totfact> 0.88280204E+03</totfact>
</mgrwt>
</event>
<event>
 5    1  0.1162308E+001  0.2749732E+03  0.7818608E-02  0.1098467E+00
          1   -1    0    0  501    0  0.00000000000E+00  0.00000000000E+00  0.62180931457E+03  0.62180931457E+03  0.00000000000E+00 0.  1.
         -1   -1    0    0    0  501 -0.00000000000E+00 -0.00000000000E+00 -0.30399289110E+02  0.30399289110E+02  0.00000000000E+00 0.  1.
         35    2    1    2    0    0  0.00000000000E+00  0.00000000000E+00  0.59141002546E+03  0.65220860368E+03  0.27497317051E+03 0.  0.
         25    1    3    3    0    0 -0.36153950168E+02 -0.36339938606E+02  0.19300255393E+03  0.23297571778E+03  0.12000000000E+03 0.  0.
         25    1    3    3    0    0  0.36153950168E+02  0.36339938606E+02  0.39840747153E+03  0.41923288590E+03  0.12000000000E+03 0.  0.
<mgrwt>
<rscale>  0 0.27497317E+03</rscale>
<asrwt>0</asrwt>
<pdfrwt beam="1">  1        1 0.95662961E-01 0.27497317E+03</pdfrwt>
<pdfrwt beam="2">  1       -1 0.46768142E-02 0.27497317E+03</pdfrwt>
<totfact> 0.64858575E+03</totfact>
</mgrwt>
</event>
<event>
 4    1  0.1162308E+001  0.2576658E+03  0.7818608E-02  0.1108554E+00
          2   -1    0    0  501    0  0.00000000000E+00  0.00000000000E+00  0.20723837655E+04  0.20723837655E+04  0.00000000000E+00 0.  1.
         -2   -1    0    0    0  501 -0.00000000000E+00 -0.00000000000E+00 -0.80090944213E+01  0.80090944213E+01  0.00000000000E+00 0.  1.
         25    1    1    2    0    0  0.26139891698E+02  0.28518016462E+02  0.81836417708E+03  0.82801962388E+03  0.12000000000E+03 0.  0.
         25    1    1    2    0    0 -0.26139891698E+02 -0.28518016462E+02  0.12460104940E+04  0.12523732361E+04  0.12000000000E+03 0.  0.
<mgrwt>
<rscale>  0 0.25766581E+03</rscale>
<asrwt>0</asrwt>
<pdfrwt beam="1">  1        2 0.31882784E+00 0.25766581E+03</pdfrwt>
<pdfrwt beam="2">  1       -2 0.12321700E-02 0.25766581E+03</pdfrwt>
<totfact> 0.10690907E+04</totfact>
</mgrwt>
</event>
<event>
 5    1  0.1162308E+001  0.2746138E+03  0.7818608E-02  0.1098668E+00
         -2   -1    0    0    0  501 -0.00000000000E+00  0.00000000000E+00  0.11541215254E+03  0.11541215254E+03  0.00000000000E+00 0. -1.
          2   -1    0    0  501    0  0.00000000000E+00 -0.00000000000E+00 -0.16335528106E+03  0.16335528106E+03  0.00000000000E+00 0. -1.
         35    2    1    2    0    0  0.00000000000E+00  0.00000000000E+00 -0.47943128522E+02  0.27876743360E+03  0.27461379875E+03 0.  0.
         25    1    3    3    0    0 -0.13918413826E+01 -0.44724891832E+02 -0.74227256898E+02  0.14802681797E+03  0.12000000000E+03 0.  0.
         25    1    3    3    0    0  0.13918413826E+01  0.44724891832E+02  0.26284128375E+02  0.13074061563E+03  0.12000000000E+03 0.  0.
<mgrwt>
<rscale>  0 0.27461380E+03</rscale>
<asrwt>0</asrwt>
<pdfrwt beam="1">  1        2 0.25131582E-01 0.27461380E+03</pdfrwt>
<pdfrwt beam="2">  1       -2 0.17755716E-01 0.27461380E+03</pdfrwt>
<totfact> 0.54713058E+03</totfact>
</mgrwt>
</event>
<event>
 5    1  0.1162308E+001  0.2702951E+03  0.7818608E-02  0.1101111E+00
          1   -1    0    0  501    0  0.00000000000E+00  0.00000000000E+00  0.13875496372E+04  0.13875496372E+04  0.00000000000E+00 0. -1.
         -1   -1    0    0    0  501 -0.00000000000E+00 -0.00000000000E+00 -0.13163393675E+02  0.13163393675E+02  0.00000000000E+00 0. -1.
         35    2    1    2    0    0  0.00000000000E+00  0.00000000000E+00  0.13743862435E+04  0.14007130309E+04  0.27029511367E+03 0.  0.
         25    1    3    3    0    0 -0.11952125252E+02 -0.56213424756E+02  0.56433547374E+03  0.57980801076E+03  0.12000000000E+03 0.  0.
         25    1    3    3    0    0  0.11952125252E+02  0.56213424756E+02  0.81005076979E+03  0.82090502012E+03  0.12000000000E+03 0.  0.
<mgrwt>
<rscale>  0 0.27029511E+03</rscale>
<asrwt>0</asrwt>
<pdfrwt beam="1">  1        1 0.21346906E+00 0.27029511E+03</pdfrwt>
<pdfrwt beam="2">  1       -1 0.20251386E-02 0.27029511E+03</pdfrwt>
<totfact> 0.57267644E+03</totfact>
</mgrwt>
</event>
<event>
 5    1  0.1162308E+001  0.2751449E+03  0.7818608E-02  0.1098371E+00
          2   -1    0    0  501    0  0.00000000000E+00  0.00000000000E+00  0.13898599956E+03  0.13898599956E+03  0.00000000000E+00 0. -1.
         -2   -1    0    0    0  501 -0.00000000000E+00 -0.00000000000E+00 -0.13617332059E+03  0.13617332059E+03  0.00000000000E+00 0. -1.
         35    2    1    2    0    0  0.00000000000E+00  0.00000000000E+00  0.28126789738E+01  0.27515932015E+03  0.27514494417E+03 0.  0.
         25    1    3    3    0    0  0.93863269334E+01 -0.59199712553E+02  0.31960774914E+02  0.13789198756E+03  0.12000000000E+03 0.  0.
         25    1    3    3    0    0 -0.93863269334E+01  0.59199712553E+02 -0.29148095940E+02  0.13726733259E+03  0.12000000000E+03 0.  0.
<mgrwt>
<rscale>  0 0.27514494E+03</rscale>
<asrwt>0</asrwt>
<pdfrwt beam="1">  1        2 0.21382462E-01 0.27514494E+03</pdfrwt>
<pdfrwt beam="2">  1       -2 0.20949741E-01 0.27514494E+03</pdfrwt>
<totfact> 0.49527577E+03</totfact>
</mgrwt>
</event>
<event>
 5    1  0.1162308E+001  0.2759346E+03  0.7818608E-02  0.1097930E+00
         -2   -1    0    0    0  501 -0.00000000000E+00  0.00000000000E+00  0.88646161635E+01  0.88646161635E+01  0.00000000000E+00 0. -1.
          2   -1    0    0  501    0  0.00000000000E+00 -0.00000000000E+00 -0.21472986037E+04  0.21472986037E+04  0.00000000000E+00 0. -1.
         35    2    1    2    0    0  0.00000000000E+00  0.00000000000E+00 -0.21384339875E+04  0.21561632199E+04  0.27593461479E+03 0.  0.
         25    1    3    3    0    0  0.27592303808E+02 -0.41346052906E+02 -0.70570496486E+03  0.71755858907E+03  0.12000000000E+03 0.  0.
         25    1    3    3    0    0 -0.27592303808E+02  0.41346052906E+02 -0.14327290227E+04  0.14386046308E+04  0.12000000000E+03 0.  0.
<mgrwt>
<rscale>  0 0.27593461E+03</rscale>
<asrwt>0</asrwt>
<pdfrwt beam="1">  1        2 0.33035334E+00 0.27593461E+03</pdfrwt>
<pdfrwt beam="2">  1       -2 0.13637883E-02 0.27593461E+03</pdfrwt>
<totfact> 0.84230009E+03</totfact>
</mgrwt>
</event>
<event>
 5    1  0.1162308E+001  0.2749738E+03  0.7818608E-02  0.1098466E+00
          1   -1    0    0  501    0  0.00000000000E+00  0.00000000000E+00  0.16301525006E+04  0.16301525006E+04  0.00000000000E+00 0. -1.
         -1   -1    0    0    0  501 -0.00000000000E+00 -0.00000000000E+00 -0.11595630921E+02  0.11595630921E+02  0.00000000000E+00 0. -1.
         35    2    1    2    0    0  0.00000000000E+00  0.00000000000E+00  0.16185568697E+04  0.16417481315E+04  0.27497379324E+03 0.  0.
         25    1    3    3    0    0 -0.32470074527E+02 -0.48511920074E+02  0.10068431207E+04  0.10156479616E+04  0.12000000000E+03 0.  0.
         25    1    3    3    0    0  0.32470074527E+02  0.48511920074E+02  0.61171374897E+03  0.62610016995E+03  0.12000000000E+03 0.  0.
<mgrwt>
<rscale>  0 0.27497379E+03</rscale>
<asrwt>0</asrwt>
<pdfrwt beam="1">  1        1 0.25079251E+00 0.27497379E+03</pdfrwt>
<pdfrwt beam="2">  1       -1 0.17839445E-02 0.27497379E+03</pdfrwt>
<totfact> 0.47603035E+03</totfact>
</mgrwt>
</event>
<event>
 5    1  0.1162308E+001  0.2749640E+03  0.7818608E-02  0.1098472E+00
         -2   -1    0    0    0  501 -0.00000000000E+00  0.00000000000E+00  0.34682162524E+02  0.34682162524E+02  0.00000000000E+00 0. -1.
          2   -1    0    0  501    0  0.00000000000E+00 -0.00000000000E+00 -0.54498632808E+03  0.54498632808E+03  0.00000000000E+00 0. -1.
         35    2    1    2    0    0  0.00000000000E+00  0.00000000000E+00 -0.51030416555E+03  0.57966849060E+03  0.27496402968E+03 0.  0.
         25    1    3    3    0    0  0.31358920726E+02 -0.56081344623E+02 -0.29585680892E+03  0.32566816011E+03  0.12000000000E+03 0.  0.
         25    1    3    3    0    0 -0.31358920726E+02  0.56081344623E+02 -0.21444735663E+03  0.25400033049E+03  0.12000000000E+03 0.  0.
<mgrwt>
<rscale>  0 0.27496403E+03</rscale>
<asrwt>0</asrwt>
<pdfrwt beam="1">  1        2 0.83844044E-01 0.27496403E+03</pdfrwt>
<pdfrwt beam="2">  1       -2 0.53357177E-02 0.27496403E+03</pdfrwt>
<totfact> 0.99489729E+03</totfact>
</mgrwt>
</event>
<event>
 5    1  0.1162308E+001  0.2747253E+03  0.7818608E-02  0.1098605E+00
         -1   -1    0    0    0  501 -0.00000000000E+00  0.00000000000E+00  0.18418305190E+02  0.18418305190E+02  0.00000000000E+00 0.  1.
          1   -1    0    0  501    0  0.00000000000E+00 -0.00000000000E+00 -0.10244423974E+04  0.10244423974E+04  0.00000000000E+00 0.  1.
         35    2    1    2    0    0  0.00000000000E+00  0.00000000000E+00 -0.10060240923E+04  0.10428607026E+04  0.27472526441E+03 0.  0.
         25    1    3    3    0    0 -0.54040880885E+02  0.30601537931E+02 -0.40913288957E+03  0.43086725596E+03  0.12000000000E+03 0.  0.
         25    1    3    3    0    0  0.54040880885E+02 -0.30601537931E+02 -0.59689120269E+03  0.61199344668E+03  0.12000000000E+03 0.  0.
<mgrwt>
<rscale>  0 0.27472526E+03</rscale>
<asrwt>0</asrwt>
<pdfrwt beam="1">  1        1 0.15760658E+00 0.27472526E+03</pdfrwt>
<pdfrwt beam="2">  1       -1 0.28335844E-02 0.27472526E+03</pdfrwt>
<totfact> 0.62886039E+03</totfact>
</mgrwt>
</event>
<event>
 5    1  0.1162308E+001  0.2719504E+03  0.7818608E-02  0.1100169E+00
         -2   -1    0    0    0  501 -0.00000000000E+00  0.00000000000E+00  0.42519785891E+02  0.42519785891E+02  0.00000000000E+00 0.  1.
          2   -1    0    0  501    0  0.00000000000E+00 -0.00000000000E+00 -0.43483884559E+03  0.43483884559E+03  0.00000000000E+00 0.  1.
         35    2    1    2    0    0  0.00000000000E+00  0.00000000000E+00 -0.39231905969E+03  0.47735863148E+03  0.27195039703E+03 0.  0.
         25    1    3    3    0    0 -0.22319586694E+02  0.10156045254E+02 -0.92492675178E+02  0.15348030547E+03  0.12000000000E+03 0.  0.
         25    1    3    3    0    0  0.22319586694E+02 -0.10156045254E+02 -0.29982638452E+03  0.32387832601E+03  0.12000000000E+03 0.  0.
<mgrwt>
<rscale>  0 0.27195040E+03</rscale>
<asrwt>0</asrwt>
<pdfrwt beam="1">  1        2 0.66898287E-01 0.27195040E+03</pdfrwt>
<pdfrwt beam="2">  1       -2 0.65415053E-02 0.27195040E+03</pdfrwt>
<totfact> 0.93594318E+03</totfact>
</mgrwt>
</event>
<event>
 5    1  0.1162308E+001  0.2751383E+03  0.7818608E-02  0.1098374E+00
          1   -1    0    0  501    0  0.00000000000E+00  0.00000000000E+00  0.85194108572E+03  0.85194108572E+03  0.00000000000E+00 0.  1.
         -1   -1    0    0    0  501 -0.00000000000E+00 -0.00000000000E+00 -0.22214298179E+02  0.22214298179E+02  0.00000000000E+00 0.  1.
         35    2    1    2    0    0  0.00000000000E+00  0.00000000000E+00  0.82972678754E+03  0.87415538390E+03  0.27513831656E+03 0.  0.
         25    1    3    3    0    0 -0.50270354514E+02 -0.30963685446E+02  0.51729454186E+03  0.53430281807E+03  0.12000000000E+03 0.  0.
         25    1    3    3    0    0  0.50270354514E+02  0.30963685446E+02  0.31243224567E+03  0.33985256582E+03  0.12000000000E+03 0.  0.
<mgrwt>
<rscale>  0 0.27513832E+03</rscale>
<asrwt>0</asrwt>
<pdfrwt beam="1">  1        1 0.13106783E+00 0.27513832E+03</pdfrwt>
<pdfrwt beam="2">  1       -1 0.34175850E-02 0.27513832E+03</pdfrwt>
<totfact> 0.64785062E+03</totfact>
</mgrwt>
</event>
<event>
 5    1  0.1162308E+001  0.2752172E+03  0.7818608E-02  0.1098330E+00
          1   -1    0    0  501    0  0.00000000000E+00  0.00000000000E+00  0.17387898974E+04  0.17387898974E+04  0.00000000000E+00 0. -1.
         -1   -1    0    0    0  501 -0.00000000000E+00 -0.00000000000E+00 -0.10890405471E+02  0.10890405471E+02  0.00000000000E+00 0. -1.
         35    2    1    2    0    0  0.00000000000E+00  0.00000000000E+00  0.17278994919E+04  0.17496803029E+04  0.27521720158E+03 0.  0.
         25    1    3    3    0    0 -0.70531481845E+01 -0.50416400949E+02  0.11442958610E+04  0.11516963914E+04  0.12000000000E+03 0.  0.
         25    1    3    3    0    0  0.70531481845E+01  0.50416400949E+02  0.58360363089E+03  0.59798391147E+03  0.12000000000E+03 0.  0.
<mgrwt>
<rscale>  0 0.27521720E+03</rscale>
<asrwt>0</asrwt>
<pdfrwt beam="1">  1        1 0.26750592E+00 0.27521720E+03</pdfrwt>
<pdfrwt beam="2">  1       -1 0.16754484E-02 0.27521720E+03</pdfrwt>
<totfact> 0.44302411E+03</totfact>
</mgrwt>
</event>
<event>
 5    1  0.1162308E+001  0.2754058E+03  0.7818608E-02  0.1098225E+00
         -2   -1    0    0    0  501 -0.00000000000E+00  0.00000000000E+00  0.12630191884E+02  0.12630191884E+02  0.00000000000E+00 0. -1.
          2   -1    0    0  501    0  0.00000000000E+00 -0.00000000000E+00 -0.15013300443E+04  0.15013300443E+04  0.00000000000E+00 0. -1.
         35    2    1    2    0    0  0.00000000000E+00  0.00000000000E+00 -0.14886998524E+04  0.15139602362E+04  0.27540578455E+03 0.  0.
         25    1    3    3    0    0  0.64356631126E+02  0.16702737389E+01 -0.85667596568E+03  0.86743200077E+03  0.12000000000E+03 0.  0.
         25    1    3    3    0    0 -0.64356631126E+02 -0.16702737389E+01 -0.63202388673E+03  0.64652823541E+03  0.12000000000E+03 0.  0.
<mgrwt>
<rscale>  0 0.27540578E+03</rscale>
<asrwt>0</asrwt>
<pdfrwt beam="1">  1        2 0.23097380E+00 0.27540578E+03</pdfrwt>
<pdfrwt beam="2">  1       -2 0.19431069E-02 0.27540578E+03</pdfrwt>
<totfact> 0.10988029E+04</totfact>
</mgrwt>
</event>
<event>
 5    1  0.1162308E+001  0.2765882E+03  0.7818608E-02  0.1097567E+00
          2   -1    0    0  501    0  0.00000000000E+00  0.00000000000E+00  0.39667269985E+02  0.39667269985E+02  0.00000000000E+00 0.  1.
         -2   -1    0    0    0  501 -0.00000000000E+00 -0.00000000000E+00 -0.48214205290E+03  0.48214205290E+03  0.00000000000E+00 0.  1.
         35    2    1    2    0    0  0.00000000000E+00  0.00000000000E+00 -0.44247478292E+03  0.52180932289E+03  0.27658820643E+03 0.  0.
         25    1    3    3    0    0  0.78934038711E+01 -0.66137198337E+02 -0.25329971052E+03  0.28809230843E+03  0.12000000000E+03 0.  0.
         25    1    3    3    0    0 -0.78934038711E+01  0.66137198337E+02 -0.18917507240E+03  0.23371701445E+03  0.12000000000E+03 0.  0.
<mgrwt>
<rscale>  0 0.27658821E+03</rscale>
<asrwt>0</asrwt>
<pdfrwt beam="1">  1        2 0.61026567E-02 0.27658821E+03</pdfrwt>
<pdfrwt beam="2">  1       -2 0.74175703E-01 0.27658821E+03</pdfrwt>
<totfact> 0.20286482E+03</totfact>
</mgrwt>
</event>
<event>
 5    1  0.1162308E+001  0.2748915E+03  0.7818608E-02  0.1098512E+00
          2   -1    0    0  501    0  0.00000000000E+00  0.00000000000E+00  0.34053034533E+04  0.34053034533E+04  0.00000000000E+00 0. -1.
         -2   -1    0    0    0  501 -0.00000000000E+00 -0.00000000000E+00 -0.55476203869E+01  0.55476203869E+01  0.00000000000E+00 0. -1.
         35    2    1    2    0    0  0.00000000000E+00  0.00000000000E+00  0.33997558329E+04  0.34108510737E+04  0.27489147576E+03 0.  0.
         25    1    3    3    0    0 -0.52861060774E+02 -0.25527136565E+01  0.22100444863E+04  0.22139325733E+04  0.12000000000E+03 0.  0.
         25    1    3    3    0    0  0.52861060774E+02  0.25527136565E+01  0.11897113467E+04  0.11969185004E+04  0.12000000000E+03 0.  0.
<mgrwt>
<rscale>  0 0.27489148E+03</rscale>
<asrwt>0</asrwt>
<pdfrwt beam="1">  1        2 0.52389117E+00 0.27489148E+03</pdfrwt>
<pdfrwt beam="2">  1       -2 0.85348278E-03 0.27489148E+03</pdfrwt>
<totfact> 0.31391650E+03</totfact>
</mgrwt>
</event>
<event>
 5    1  0.1162308E+001  0.2759576E+03  0.7818608E-02  0.1097918E+00
          2   -1    0    0  501    0  0.00000000000E+00  0.00000000000E+00  0.93518389683E+03  0.93518389683E+03  0.00000000000E+00 0. -1.
         -2   -1    0    0    0  501 -0.00000000000E+00 -0.00000000000E+00 -0.20357656524E+02  0.20357656524E+02  0.00000000000E+00 0. -1.
         35    2    1    2    0    0  0.00000000000E+00  0.00000000000E+00  0.91482624031E+03  0.95554155336E+03  0.27595762398E+03 0.  0.
         25    1    3    3    0    0 -0.45707512211E+02  0.29841954279E+02  0.59842517186E+03  0.61277435098E+03  0.12000000000E+03 0.  0.
         25    1    3    3    0    0  0.45707512211E+02 -0.29841954279E+02  0.31640106845E+03  0.34276720237E+03  0.12000000000E+03 0.  0.
<mgrwt>
<rscale>  0 0.27595762E+03</rscale>
<asrwt>0</asrwt>
<pdfrwt beam="1">  1        2 0.14387441E+00 0.27595762E+03</pdfrwt>
<pdfrwt beam="2">  1       -2 0.31319479E-02 0.27595762E+03</pdfrwt>
<totfact> 0.11421162E+04</totfact>
</mgrwt>
</event>
<event>
 5    1  0.1162308E+001  0.2746720E+03  0.7818608E-02  0.1098635E+00
         -2   -1    0    0    0  501 -0.00000000000E+00  0.00000000000E+00  0.49606825015E+02  0.49606825015E+02  0.00000000000E+00 0.  1.
          2   -1    0    0  501    0  0.00000000000E+00 -0.00000000000E+00 -0.38021335681E+03  0.38021335681E+03  0.00000000000E+00 0.  1.
         35    2    1    2    0    0  0.00000000000E+00  0.00000000000E+00 -0.33060653180E+03  0.42982018183E+03  0.27467200411E+03 0.  0.
         25    1    3    3    0    0 -0.34209653023E+02  0.50346537439E+02 -0.20833243549E+03  0.24800701173E+03  0.12000000000E+03 0.  0.
         25    1    3    3    0    0  0.34209653023E+02 -0.50346537439E+02 -0.12227409631E+03  0.18181317010E+03  0.12000000000E+03 0.  0.
<mgrwt>
<rscale>  0 0.27467200E+03</rscale>
<asrwt>0</asrwt>
<pdfrwt beam="1">  1        2 0.58494363E-01 0.27467200E+03</pdfrwt>
<pdfrwt beam="2">  1       -2 0.76318192E-02 0.27467200E+03</pdfrwt>
<totfact> 0.85341525E+03</totfact>
</mgrwt>
</event>
<event>
 5    1  0.1162308E+001  0.2782644E+03  0.7818608E-02  0.1096641E+00
         -2   -1    0    0    0  501 -0.00000000000E+00  0.00000000000E+00  0.23040812095E+02  0.23040812095E+02  0.00000000000E+00 0.  1.
          2   -1    0    0  501    0  0.00000000000E+00 -0.00000000000E+00 -0.84015121007E+03  0.84015121007E+03  0.00000000000E+00 0.  1.
         35    2    1    2    0    0  0.00000000000E+00  0.00000000000E+00 -0.81711039797E+03  0.86319202217E+03  0.27826437906E+03 0.  0.
         25    1    3    3    0    0 -0.54131995224E+00  0.67012300380E+02 -0.34153175637E+03  0.36815062412E+03  0.12000000000E+03 0.  0.
         25    1    3    3    0    0  0.54131995224E+00 -0.67012300380E+02 -0.47557864161E+03  0.49504139805E+03  0.12000000000E+03 0.  0.
<mgrwt>
<rscale>  0 0.27826438E+03</rscale>
<asrwt>0</asrwt>
<pdfrwt beam="1">  1        2 0.12925403E+00 0.27826438E+03</pdfrwt>
<pdfrwt beam="2">  1       -2 0.35447404E-02 0.27826438E+03</pdfrwt>
<totfact> 0.10949891E+04</totfact>
</mgrwt>
</event>
<event>
 5    1  0.1162308E+001  0.2743237E+03  0.7818608E-02  0.1098830E+00
         -2   -1    0    0    0  501 -0.00000000000E+00  0.00000000000E+00  0.11914238465E+03  0.11914238465E+03  0.00000000000E+00 0.  1.
          2   -1    0    0  501    0  0.00000000000E+00 -0.00000000000E+00 -0.15790669110E+03  0.15790669110E+03  0.00000000000E+00 0.  1.
         35    2    1    2    0    0  0.00000000000E+00  0.00000000000E+00 -0.38764306447E+02  0.27704907575E+03  0.27432374837E+03 0.  0.
         25    1    3    3    0    0  0.17086226873E+02 -0.62119321343E+02 -0.35749032407E+02  0.14081456796E+03  0.12000000000E+03 0.  0.
         25    1    3    3    0    0 -0.17086226873E+02  0.62119321343E+02 -0.30152740396E+01  0.13623450778E+03  0.12000000000E+03 0.  0.
<mgrwt>
<rscale>  0 0.27432375E+03</rscale>
<asrwt>0</asrwt>
<pdfrwt beam="1">  1        2 0.24293337E-01 0.27432375E+03</pdfrwt>
<pdfrwt beam="2">  1       -2 0.18329598E-01 0.27432375E+03</pdfrwt>
<totfact> 0.53857406E+03</totfact>
</mgrwt>
</event>
<event>
 5    1  0.1162308E+001  0.2745855E+03  0.7818608E-02  0.1098684E+00
         -2   -1    0    0    0  501 -0.00000000000E+00  0.00000000000E+00  0.99990303821E+01  0.99990303821E+01  0.00000000000E+00 0.  1.
          2   -1    0    0  501    0  0.00000000000E+00 -0.00000000000E+00 -0.18851127518E+04  0.18851127518E+04  0.00000000000E+00 0.  1.
         35    2    1    2    0    0  0.00000000000E+00  0.00000000000E+00 -0.18751137214E+04  0.18951117822E+04  0.27458550347E+03 0.  0.
         25    1    3    3    0    0 -0.29656120185E+02  0.59381184500E+02 -0.89193804744E+03  0.90241846779E+03  0.12000000000E+03 0.  0.
         25    1    3    3    0    0  0.29656120185E+02 -0.59381184500E+02 -0.98317567396E+03  0.99269331437E+03  0.12000000000E+03 0.  0.
<mgrwt>
<rscale>  0 0.27458550E+03</rscale>
<asrwt>0</asrwt>
<pdfrwt beam="1">  1        2 0.29001740E+00 0.27458550E+03</pdfrwt>
<pdfrwt beam="2">  1       -2 0.15383121E-02 0.27458550E+03</pdfrwt>
<totfact> 0.97075408E+03</totfact>
</mgrwt>
</event>
<event>
 5    1  0.1162308E+001  0.2735797E+03  0.7818608E-02  0.1099248E+00
          4   -1    0    0  501    0  0.00000000000E+00  0.00000000000E+00  0.26228054518E+03  0.26228054518E+03  0.00000000000E+00 0. -1.
         -4   -1    0    0    0  501 -0.00000000000E+00 -0.00000000000E+00 -0.71341399581E+02  0.71341399581E+02  0.00000000000E+00 0. -1.
         35    2    1    2    0    0  0.00000000000E+00  0.00000000000E+00  0.19093914560E+03  0.33362194476E+03  0.27357968621E+03 0.  0.
         25    1    3    3    0    0 -0.29878371850E+02 -0.58306380696E+02  0.10080048567E+03  0.16986197057E+03  0.12000000000E+03 0.  0.
         25    1    3    3    0    0  0.29878371850E+02  0.58306380696E+02  0.90138659937E+02  0.16375997420E+03  0.12000000000E+03 0.  0.
<mgrwt>
<rscale>  0 0.27357969E+03</rscale>
<asrwt>0</asrwt>
<pdfrwt beam="1">  1        4 0.40350853E-01 0.27357969E+03</pdfrwt>
<pdfrwt beam="2">  1       -4 0.10975600E-01 0.27357969E+03</pdfrwt>
<totfact> 0.72535142E+02</totfact>
</mgrwt>
</event>
<event>
 5    1  0.1162308E+001  0.2745018E+03  0.7818608E-02  0.1098730E+00
         -4   -1    0    0    0  501 -0.00000000000E+00  0.00000000000E+00  0.18274697847E+03  0.18274697847E+03  0.00000000000E+00 0. -1.
          4   -1    0    0  501    0  0.00000000000E+00 -0.00000000000E+00 -0.10308140105E+03  0.10308140105E+03  0.00000000000E+00 0. -1.
         35    2    1    2    0    0  0.00000000000E+00  0.00000000000E+00  0.79665577424E+02  0.28582837953E+03  0.27450183663E+03 0.  0.
         25    1    3    3    0    0  0.61995831541E+02  0.23540830494E+02  0.46431528469E+02  0.14475337877E+03  0.12000000000E+03 0.  0.
         25    1    3    3    0    0 -0.61995831541E+02 -0.23540830494E+02  0.33234048955E+02  0.14107500076E+03  0.12000000000E+03 0.  0.
<mgrwt>
<rscale>  0 0.27450184E+03</rscale>
<asrwt>0</asrwt>
<pdfrwt beam="1">  1        4 0.15858677E-01 0.27450184E+03</pdfrwt>
<pdfrwt beam="2">  1       -4 0.28114920E-01 0.27450184E+03</pdfrwt>
<totfact> 0.77031700E+02</totfact>
</mgrwt>
</event>
<event>
 5    1  0.1162308E+001  0.2747051E+03  0.7818608E-02  0.1098617E+00
         -2   -1    0    0    0  501 -0.00000000000E+00  0.00000000000E+00  0.32069369540E+02  0.32069369540E+02  0.00000000000E+00 0. -1.
          2   -1    0    0  501    0  0.00000000000E+00 -0.00000000000E+00 -0.58827858173E+03  0.58827858173E+03  0.00000000000E+00 0. -1.
         35    2    1    2    0    0  0.00000000000E+00  0.00000000000E+00 -0.55620921219E+03  0.62034795127E+03  0.27470510174E+03 0.  0.
         25    1    3    3    0    0  0.65654093309E+02  0.10601966514E+02 -0.29288897035E+03  0.32342976149E+03  0.12000000000E+03 0.  0.
         25    1    3    3    0    0 -0.65654093309E+02 -0.10601966514E+02 -0.26332024184E+03  0.29691818978E+03  0.12000000000E+03 0.  0.
<mgrwt>
<rscale>  0 0.27470510E+03</rscale>
<asrwt>0</asrwt>
<pdfrwt beam="1">  1        2 0.90504401E-01 0.27470510E+03</pdfrwt>
<pdfrwt beam="2">  1       -2 0.49337489E-02 0.27470510E+03</pdfrwt>
<totfact> 0.10267865E+04</totfact>
</mgrwt>
</event>
<event>
 5    1  0.1162308E+001  0.2751081E+03  0.7818608E-02  0.1098391E+00
         -2   -1    0    0    0  501 -0.00000000000E+00  0.00000000000E+00  0.17656903447E+02  0.17656903447E+02  0.00000000000E+00 0.  1.
          2   -1    0    0  501    0  0.00000000000E+00 -0.00000000000E+00 -0.10715985945E+04  0.10715985945E+04  0.00000000000E+00 0.  1.
         35    2    1    2    0    0  0.00000000000E+00  0.00000000000E+00 -0.10539416910E+04  0.10892554979E+04  0.27510807271E+03 0.  0.
         25    1    3    3    0    0 -0.44535292611E+02  0.23136457064E+02 -0.34979498373E+03  0.37319595198E+03  0.12000000000E+03 0.  0.
         25    1    3    3    0    0  0.44535292611E+02 -0.23136457064E+02 -0.70414670731E+03  0.71605954595E+03  0.12000000000E+03 0.  0.
<mgrwt>
<rscale>  0 0.27510807E+03</rscale>
<asrwt>0</asrwt>
<pdfrwt beam="1">  1        2 0.16486133E+00 0.27510807E+03</pdfrwt>
<pdfrwt beam="2">  1       -2 0.27164465E-02 0.27510807E+03</pdfrwt>
<totfact> 0.11642900E+04</totfact>
</mgrwt>
</event>
<event>
 5    1  0.1162308E+001  0.2748321E+03  0.7818608E-02  0.1098546E+00
          2   -1    0    0  501    0  0.00000000000E+00  0.00000000000E+00  0.74906846352E+03  0.74906846352E+03  0.00000000000E+00 0. -1.
         -2   -1    0    0    0  501 -0.00000000000E+00 -0.00000000000E+00 -0.25208864313E+02  0.25208864313E+02  0.00000000000E+00 0. -1.
         35    2    1    2    0    0  0.00000000000E+00  0.00000000000E+00  0.72385959921E+03  0.77427732783E+03  0.27483205969E+03 0.  0.
         25    1    3    3    0    0 -0.64301765424E+01  0.59362129632E+01  0.17491328753E+03  0.21229989154E+03  0.12000000000E+03 0.  0.
         25    1    3    3    0    0  0.64301765424E+01 -0.59362129632E+01  0.54894631168E+03  0.56197743629E+03  0.12000000000E+03 0.  0.
<mgrwt>
<rscale>  0 0.27483206E+03</rscale>
<asrwt>0</asrwt>
<pdfrwt beam="1">  1        2 0.11524128E+00 0.27483206E+03</pdfrwt>
<pdfrwt beam="2">  1       -2 0.38782874E-02 0.27483206E+03</pdfrwt>
<totfact> 0.11063963E+04</totfact>
</mgrwt>
</event>
<event>
 5    1  0.1162308E+001  0.2749895E+03  0.7818608E-02  0.1098457E+00
          2   -1    0    0  501    0  0.00000000000E+00  0.00000000000E+00  0.10257063112E+04  0.10257063112E+04  0.00000000000E+00 0.  1.
         -2   -1    0    0    0  501 -0.00000000000E+00 -0.00000000000E+00 -0.18431011491E+02  0.18431011491E+02  0.00000000000E+00 0.  1.
         35    2    1    2    0    0  0.00000000000E+00  0.00000000000E+00  0.10072752997E+04  0.10441373227E+04  0.27498948931E+03 0.  0.
         25    1    3    3    0    0 -0.58898671761E+02 -0.27685827150E+02  0.56594171091E+03  0.58217315182E+03  0.12000000000E+03 0.  0.
         25    1    3    3    0    0  0.58898671761E+02  0.27685827150E+02  0.44133358882E+03  0.46196417089E+03  0.12000000000E+03 0.  0.
<mgrwt>
<rscale>  0 0.27498949E+03</rscale>
<asrwt>0</asrwt>
<pdfrwt beam="1">  1        2 0.15780093E+00 0.27498949E+03</pdfrwt>
<pdfrwt beam="2">  1       -2 0.28355410E-02 0.27498949E+03</pdfrwt>
<totfact> 0.11638736E+04</totfact>
</mgrwt>
</event>
<event>
 5    1  0.1162308E+001  0.2742694E+03  0.7818608E-02  0.1098861E+00
         -1   -1    0    0    0  501 -0.00000000000E+00  0.00000000000E+00  0.25213878242E+03  0.25213878242E+03  0.00000000000E+00 0. -1.
          1   -1    0    0  501    0  0.00000000000E+00 -0.00000000000E+00 -0.74585603154E+02  0.74585603154E+02  0.00000000000E+00 0. -1.
         35    2    1    2    0    0  0.00000000000E+00  0.00000000000E+00  0.17755317927E+03  0.32672438558E+03  0.27426937974E+03 0.  0.
         25    1    3    3    0    0  0.86380576878E+01  0.43052441402E+02  0.14807415470E+03  0.19558651294E+03  0.12000000000E+03 0.  0.
         25    1    3    3    0    0 -0.86380576878E+01 -0.43052441402E+02  0.29479024565E+02  0.13113787264E+03  0.12000000000E+03 0.  0.
<mgrwt>
<rscale>  0 0.27426938E+03</rscale>
<asrwt>0</asrwt>
<pdfrwt beam="1">  1        1 0.11474708E-01 0.27426938E+03</pdfrwt>
<pdfrwt beam="2">  1       -1 0.38790582E-01 0.27426938E+03</pdfrwt>
<totfact> 0.34585078E+03</totfact>
</mgrwt>
</event>
<event>
 5    1  0.1162308E+001  0.2754725E+03  0.7818608E-02  0.1098188E+00
          2   -1    0    0  501    0  0.00000000000E+00  0.00000000000E+00  0.13871127498E+02  0.13871127498E+02  0.00000000000E+00 0. -1.
         -2   -1    0    0    0  501 -0.00000000000E+00 -0.00000000000E+00 -0.13676809553E+04  0.13676809553E+04  0.00000000000E+00 0. -1.
         35    2    1    2    0    0  0.00000000000E+00  0.00000000000E+00 -0.13538098278E+04  0.13815520828E+04  0.27547251702E+03 0.  0.
         25    1    3    3    0    0  0.41880531268E+01  0.62796273640E+02 -0.55300133700E+03  0.56936051013E+03  0.12000000000E+03 0.  0.
         25    1    3    3    0    0 -0.41880531268E+01 -0.62796273640E+02 -0.80080849082E+03  0.81219157268E+03  0.12000000000E+03 0.  0.
<mgrwt>
<rscale>  0 0.27547252E+03</rscale>
<asrwt>0</asrwt>
<pdfrwt beam="1">  1        2 0.21340205E-02 0.27547252E+03</pdfrwt>
<pdfrwt beam="2">  1       -2 0.21041236E+00 0.27547252E+03</pdfrwt>
<totfact> 0.62134385E+02</totfact>
</mgrwt>
</event>
<event>
 5    1  0.1162308E+001  0.2750092E+03  0.7818608E-02  0.1098446E+00
         -1   -1    0    0    0  501 -0.00000000000E+00  0.00000000000E+00  0.10051529453E+03  0.10051529453E+03  0.00000000000E+00 0.  1.
          1   -1    0    0  501    0  0.00000000000E+00 -0.00000000000E+00 -0.18810587897E+03  0.18810587897E+03  0.00000000000E+00 0.  1.
         35    2    1    2    0    0  0.00000000000E+00  0.00000000000E+00 -0.87590584433E+02  0.28862117350E+03  0.27500922041E+03 0.  0.
         25    1    3    3    0    0  0.17709874490E+02 -0.64756823822E+02 -0.44485045054E+02  0.14451991254E+03  0.12000000000E+03 0.  0.
         25    1    3    3    0    0 -0.17709874490E+02  0.64756823822E+02 -0.43105539379E+02  0.14410126096E+03  0.12000000000E+03 0.  0.
<mgrwt>
<rscale>  0 0.27500922E+03</rscale>
<asrwt>0</asrwt>
<pdfrwt beam="1">  1        1 0.28939365E-01 0.27500922E+03</pdfrwt>
<pdfrwt beam="2">  1       -1 0.15463892E-01 0.27500922E+03</pdfrwt>
<totfact> 0.48214753E+03</totfact>
</mgrwt>
</event>
<event>
 5    1  0.1162308E+001  0.2722836E+03  0.7818608E-02  0.1099980E+00
          1   -1    0    0  501    0  0.00000000000E+00  0.00000000000E+00  0.10436937252E+04  0.10436937252E+04  0.00000000000E+00 0.  1.
         -1   -1    0    0    0  501 -0.00000000000E+00 -0.00000000000E+00 -0.17758642496E+02  0.17758642496E+02  0.00000000000E+00 0.  1.
         35    2    1    2    0    0  0.00000000000E+00  0.00000000000E+00  0.10259350827E+04  0.10614523677E+04  0.27228355618E+03 0.  0.
         25    1    3    3    0    0 -0.25970456531E+02 -0.11905646758E+02  0.28840267649E+03  0.31367548970E+03  0.12000000000E+03 0.  0.
         25    1    3    3    0    0  0.25970456531E+02  0.11905646758E+02  0.73753240619E+03  0.74777687796E+03  0.12000000000E+03 0.  0.
<mgrwt>
<rscale>  0 0.27228356E+03</rscale>
<asrwt>0</asrwt>
<pdfrwt beam="1">  1        1 0.16056822E+00 0.27228356E+03</pdfrwt>
<pdfrwt beam="2">  1       -1 0.27320997E-02 0.27228356E+03</pdfrwt>
<totfact> 0.64207779E+03</totfact>
</mgrwt>
</event>
<event>
 5    1  0.1162308E+001  0.2741256E+03  0.7818608E-02  0.1098941E+00
         -4   -1    0    0    0  501 -0.00000000000E+00  0.00000000000E+00  0.96895324446E+02  0.96895324446E+02  0.00000000000E+00 0. -1.
          4   -1    0    0  501    0  0.00000000000E+00 -0.00000000000E+00 -0.19388145407E+03  0.19388145407E+03  0.00000000000E+00 0. -1.
         35    2    1    2    0    0  0.00000000000E+00  0.00000000000E+00 -0.96986129626E+02  0.29077677852E+03  0.27412556536E+03 0.  0.
         25    1    3    3    0    0  0.21297944351E+02 -0.59402283892E+02 -0.27173116283E+02  0.13827730115E+03  0.12000000000E+03 0.  0.
         25    1    3    3    0    0 -0.21297944351E+02  0.59402283892E+02 -0.69813013343E+02  0.15249947737E+03  0.12000000000E+03 0.  0.
<mgrwt>
<rscale>  0 0.27412557E+03</rscale>
<asrwt>0</asrwt>
<pdfrwt beam="1">  1        4 0.29827916E-01 0.27412557E+03</pdfrwt>
<pdfrwt beam="2">  1       -4 0.14906973E-01 0.27412557E+03</pdfrwt>
<totfact> 0.76785582E+02</totfact>
</mgrwt>
</event>
<event>
 5    1  0.1162308E+001  0.2754325E+03  0.7818608E-02  0.1098210E+00
         -1   -1    0    0    0  501 -0.00000000000E+00  0.00000000000E+00  0.12363108754E+02  0.12363108754E+02  0.00000000000E+00 0.  1.
          1   -1    0    0  501    0  0.00000000000E+00 -0.00000000000E+00 -0.15340611284E+04  0.15340611284E+04  0.00000000000E+00 0.  1.
         35    2    1    2    0    0  0.00000000000E+00  0.00000000000E+00 -0.15216980197E+04  0.15464242372E+04  0.27543249311E+03 0.  0.
         25    1    3    3    0    0 -0.37384719669E+02  0.20039902781E+01 -0.10766698065E+04  0.10839831666E+04  0.12000000000E+03 0.  0.
         25    1    3    3    0    0  0.37384719669E+02 -0.20039902781E+01 -0.44502821322E+03  0.46244107063E+03  0.12000000000E+03 0.  0.
<mgrwt>
<rscale>  0 0.27543249E+03</rscale>
<asrwt>0</asrwt>
<pdfrwt beam="1">  1        1 0.23600935E+00 0.27543249E+03</pdfrwt>
<pdfrwt beam="2">  1       -1 0.19020172E-02 0.27543249E+03</pdfrwt>
<totfact> 0.50142221E+03</totfact>
</mgrwt>
</event>
<event>
 5    1  0.1162308E+001  0.2750972E+03  0.7818608E-02  0.1098397E+00
         -2   -1    0    0    0  501 -0.00000000000E+00  0.00000000000E+00  0.12451723183E+02  0.12451723183E+02  0.00000000000E+00 0.  1.
          2   -1    0    0  501    0  0.00000000000E+00 -0.00000000000E+00 -0.15194374266E+04  0.15194374266E+04  0.00000000000E+00 0.  1.
         35    2    1    2    0    0  0.00000000000E+00  0.00000000000E+00 -0.15069857034E+04  0.15318891497E+04  0.27509717722E+03 0.  0.
         25    1    3    3    0    0 -0.39042661201E+02 -0.23008300812E+02 -0.47697116694E+03  0.49391821731E+03  0.12000000000E+03 0.  0.
         25    1    3    3    0    0  0.39042661201E+02  0.23008300812E+02 -0.10300145364E+04  0.10379709324E+04  0.12000000000E+03 0.  0.
<mgrwt>
<rscale>  0 0.27509718E+03</rscale>
<asrwt>0</asrwt>
<pdfrwt beam="1">  1        2 0.23375954E+00 0.27509718E+03</pdfrwt>
<pdfrwt beam="2">  1       -2 0.19156503E-02 0.27509718E+03</pdfrwt>
<totfact> 0.10972720E+04</totfact>
</mgrwt>
</event>
<event>
 5    1  0.1162308E+001  0.2748440E+03  0.7818608E-02  0.1098539E+00
          2   -1    0    0  501    0  0.00000000000E+00  0.00000000000E+00  0.14409147651E+03  0.14409147651E+03  0.00000000000E+00 0. -1.
         -2   -1    0    0    0  501 -0.00000000000E+00 -0.00000000000E+00 -0.13106120582E+03  0.13106120582E+03  0.00000000000E+00 0. -1.
         35    2    1    2    0    0  0.00000000000E+00  0.00000000000E+00  0.13030270681E+02  0.27515268233E+03  0.27484397508E+03 0.  0.
         25    1    3    3    0    0  0.11849818401E+02 -0.63699744253E+02 -0.10436900417E+02  0.13677355192E+03  0.12000000000E+03 0.  0.
         25    1    3    3    0    0 -0.11849818401E+02  0.63699744253E+02  0.23467171098E+02  0.13837913041E+03  0.12000000000E+03 0.  0.
<mgrwt>
<rscale>  0 0.27484398E+03</rscale>
<asrwt>0</asrwt>
<pdfrwt beam="1">  1        2 0.22167920E-01 0.27484398E+03</pdfrwt>
<pdfrwt beam="2">  1       -2 0.20163262E-01 0.27484398E+03</pdfrwt>
<totfact> 0.50768164E+03</totfact>
</mgrwt>
</event>
<event>
 5    1  0.1162308E+001  0.2753077E+03  0.7818608E-02  0.1098280E+00
          2   -1    0    0  501    0  0.00000000000E+00  0.00000000000E+00  0.46236846369E+03  0.46236846369E+03  0.00000000000E+00 0.  1.
         -2   -1    0    0    0  501 -0.00000000000E+00 -0.00000000000E+00 -0.40981572749E+02  0.40981572749E+02  0.00000000000E+00 0.  1.
         35    2    1    2    0    0  0.00000000000E+00  0.00000000000E+00  0.42138689094E+03  0.50335003644E+03  0.27530773205E+03 0.  0.
         25    1    3    3    0    0  0.60888806792E+02  0.28855099524E+02  0.20535573725E+03  0.24720647723E+03  0.12000000000E+03 0.  0.
         25    1    3    3    0    0 -0.60888806792E+02 -0.28855099524E+02  0.21603115369E+03  0.25614355921E+03  0.12000000000E+03 0.  0.
<mgrwt>
<rscale>  0 0.27530773E+03</rscale>
<asrwt>0</asrwt>
<pdfrwt beam="1">  1        2 0.71133606E-01 0.27530773E+03</pdfrwt>
<pdfrwt beam="2">  1       -2 0.63048577E-02 0.27530773E+03</pdfrwt>
<totfact> 0.92633324E+03</totfact>
</mgrwt>
</event>
<event>
 5    1  0.1162308E+001  0.2749015E+03  0.7818608E-02  0.1098507E+00
          1   -1    0    0  501    0  0.00000000000E+00  0.00000000000E+00  0.12048595829E+04  0.12048595829E+04  0.00000000000E+00 0.  1.
         -1   -1    0    0    0  501 -0.00000000000E+00 -0.00000000000E+00 -0.15680421684E+02  0.15680421684E+02  0.00000000000E+00 0.  1.
         35    2    1    2    0    0  0.00000000000E+00  0.00000000000E+00  0.11891791613E+04  0.12205400046E+04  0.27490148294E+03 0.  0.
         25    1    3    3    0    0  0.67881334215E+01 -0.13603359723E+02  0.30474841741E+03  0.32787608645E+03  0.12000000000E+03 0.  0.
         25    1    3    3    0    0 -0.67881334215E+01  0.13603359723E+02  0.88443074384E+03  0.89266391817E+03  0.12000000000E+03 0.  0.
<mgrwt>
<rscale>  0 0.27490148E+03</rscale>
<asrwt>0</asrwt>
<pdfrwt beam="1">  1        1 0.18536294E+00 0.27490148E+03</pdfrwt>
<pdfrwt beam="2">  1       -1 0.24123735E-02 0.27490148E+03</pdfrwt>
<totfact> 0.59123993E+03</totfact>
</mgrwt>
</event>
<event>
 5    1  0.1162308E+001  0.2749869E+03  0.7818608E-02  0.1098459E+00
          1   -1    0    0  501    0  0.00000000000E+00  0.00000000000E+00  0.23407023598E+03  0.23407023598E+03  0.00000000000E+00 0.  1.
         -1   -1    0    0    0  501 -0.00000000000E+00 -0.00000000000E+00 -0.80763993694E+02  0.80763993694E+02  0.00000000000E+00 0.  1.
         35    2    1    2    0    0  0.00000000000E+00  0.00000000000E+00  0.15330624229E+03  0.31483422968E+03  0.27498688742E+03 0.  0.
         25    1    3    3    0    0 -0.25858018063E+02  0.58008553039E+02  0.51810559995E+02  0.14532021006E+03  0.12000000000E+03 0.  0.
         25    1    3    3    0    0  0.25858018063E+02 -0.58008553039E+02  0.10149568230E+03  0.16951401962E+03  0.12000000000E+03 0.  0.
<mgrwt>
<rscale>  0 0.27498689E+03</rscale>
<asrwt>0</asrwt>
<pdfrwt beam="1">  1        1 0.36010805E-01 0.27498689E+03</pdfrwt>
<pdfrwt beam="2">  1       -1 0.12425230E-01 0.27498689E+03</pdfrwt>
<totfact> 0.51704957E+03</totfact>
</mgrwt>
</event>
<event>
 5    1  0.1162308E+001  0.2762751E+03  0.7818608E-02  0.1097741E+00
          1   -1    0    0  501    0  0.00000000000E+00  0.00000000000E+00  0.25641005790E+03  0.25641005790E+03  0.00000000000E+00 0.  1.
         -1   -1    0    0    0  501 -0.00000000000E+00 -0.00000000000E+00 -0.74419813337E+02  0.74419813337E+02  0.00000000000E+00 0.  1.
         35    2    1    2    0    0  0.00000000000E+00  0.00000000000E+00  0.18199024456E+03  0.33082987124E+03  0.27627514290E+03 0.  0.
         25    1    3    3    0    0  0.14232826703E+02 -0.48805426381E+02  0.14583648797E+03  0.19558329229E+03  0.12000000000E+03 0.  0.
         25    1    3    3    0    0 -0.14232826703E+02  0.48805426381E+02  0.36153756590E+02  0.13524657894E+03  0.12000000000E+03 0.  0.
<mgrwt>
<rscale>  0 0.27627514E+03</rscale>
<asrwt>0</asrwt>
<pdfrwt beam="1">  1        1 0.39447701E-01 0.27627514E+03</pdfrwt>
<pdfrwt beam="2">  1       -1 0.11449202E-01 0.27627514E+03</pdfrwt>
<totfact> 0.52404073E+03</totfact>
</mgrwt>
</event>
<event>
 5    1  0.1162308E+001  0.2744955E+03  0.7818608E-02  0.1098734E+00
         -4   -1    0    0    0  501 -0.00000000000E+00  0.00000000000E+00  0.17370504938E+03  0.17370504938E+03  0.00000000000E+00 0.  1.
          4   -1    0    0  501    0  0.00000000000E+00 -0.00000000000E+00 -0.10844212755E+03  0.10844212755E+03  0.00000000000E+00 0.  1.
         35    2    1    2    0    0  0.00000000000E+00  0.00000000000E+00  0.65262921828E+02  0.28214717693E+03  0.27449550176E+03 0.  0.
         25    1    3    3    0    0  0.65653732248E+02  0.41791275700E+01  0.43366115345E+02  0.14355660077E+03  0.12000000000E+03 0.  0.
         25    1    3    3    0    0 -0.65653732248E+02 -0.41791275700E+01  0.21896806484E+02  0.13859057616E+03  0.12000000000E+03 0.  0.
<mgrwt>
<rscale>  0 0.27449550E+03</rscale>
<asrwt>0</asrwt>
<pdfrwt beam="1">  1        4 0.16683404E-01 0.27449550E+03</pdfrwt>
<pdfrwt beam="2">  1       -4 0.26723854E-01 0.27449550E+03</pdfrwt>
<totfact> 0.77466168E+02</totfact>
</mgrwt>
</event>
<event>
 5    1  0.1162308E+001  0.2757179E+03  0.7818608E-02  0.1098051E+00
          1   -1    0    0  501    0  0.00000000000E+00  0.00000000000E+00  0.15863911607E+04  0.15863911607E+04  0.00000000000E+00 0. -1.
         -1   -1    0    0    0  501 -0.00000000000E+00 -0.00000000000E+00 -0.11980079238E+02  0.11980079238E+02  0.00000000000E+00 0. -1.
         35    2    1    2    0    0  0.00000000000E+00  0.00000000000E+00  0.15744110815E+04  0.15983712400E+04  0.27571791242E+03 0.  0.
         25    1    3    3    0    0  0.40593632283E+02  0.46654924624E+02  0.62524182858E+03  0.63964980198E+03  0.12000000000E+03 0.  0.
         25    1    3    3    0    0 -0.40593632283E+02 -0.46654924624E+02  0.94916925290E+03  0.95872143797E+03  0.12000000000E+03 0.  0.
<mgrwt>
<rscale>  0 0.27571791E+03</rscale>
<asrwt>0</asrwt>
<pdfrwt beam="1">  1        1 0.24406001E+00 0.27571791E+03</pdfrwt>
<pdfrwt beam="2">  1       -1 0.18430904E-02 0.27571791E+03</pdfrwt>
<totfact> 0.48493631E+03</totfact>
</mgrwt>
</event>
<event>
 5    1  0.1162308E+001  0.2751976E+03  0.7818608E-02  0.1098341E+00
          1   -1    0    0  501    0  0.00000000000E+00  0.00000000000E+00  0.21388381861E+02  0.21388381861E+02  0.00000000000E+00 0. -1.
         -1   -1    0    0    0  501 -0.00000000000E+00 -0.00000000000E+00 -0.88522015273E+03  0.88522015273E+03  0.00000000000E+00 0. -1.
         35    2    1    2    0    0  0.00000000000E+00  0.00000000000E+00 -0.86383177087E+03  0.90660853459E+03  0.27519757744E+03 0.  0.
         25    1    3    3    0    0 -0.70558728755E+01  0.64853039885E+02 -0.48681714635E+03  0.50561510668E+03  0.12000000000E+03 0.  0.
         25    1    3    3    0    0  0.70558728755E+01 -0.64853039885E+02 -0.37701462452E+03  0.40099342791E+03  0.12000000000E+03 0.  0.
<mgrwt>
<rscale>  0 0.27519758E+03</rscale>
<asrwt>0</asrwt>
<pdfrwt beam="1">  1        1 0.32905208E-02 0.27519758E+03</pdfrwt>
<pdfrwt beam="2">  1       -1 0.13618769E+00 0.27519758E+03</pdfrwt>
<totfact> 0.14501090E+03</totfact>
</mgrwt>
</event>
<event>
 5    1  0.1162308E+001  0.2747928E+03  0.7818608E-02  0.1098567E+00
          3   -1    0    0  501    0  0.00000000000E+00  0.00000000000E+00  0.55866937636E+02  0.55866937636E+02  0.00000000000E+00 0. -1.
         -3   -1    0    0    0  501 -0.00000000000E+00 -0.00000000000E+00 -0.33790598701E+03  0.33790598701E+03  0.00000000000E+00 0. -1.
         35    2    1    2    0    0  0.00000000000E+00  0.00000000000E+00 -0.28203904937E+03  0.39377292464E+03  0.27479281434E+03 0.  0.
         25    1    3    3    0    0  0.23366017633E+02 -0.24542163540E+02 -0.58334101408E+02  0.13766319754E+03  0.12000000000E+03 0.  0.
         25    1    3    3    0    0 -0.23366017633E+02  0.24542163540E+02 -0.22370494796E+03  0.25610972710E+03  0.12000000000E+03 0.  0.
<mgrwt>
<rscale>  0 0.27479281E+03</rscale>
<asrwt>0</asrwt>
<pdfrwt beam="1">  1        3 0.85949135E-02 0.27479281E+03</pdfrwt>
<pdfrwt beam="2">  1       -3 0.51985537E-01 0.27479281E+03</pdfrwt>
<totfact> 0.89005160E+02</totfact>
</mgrwt>
</event>
<event>
 5    1  0.1162308E+001  0.2745866E+03  0.7818608E-02  0.1098683E+00
          3   -1    0    0  501    0  0.00000000000E+00  0.00000000000E+00  0.46608980968E+02  0.46608980968E+02  0.00000000000E+00 0.  1.
         -3   -1    0    0    0  501 -0.00000000000E+00 -0.00000000000E+00 -0.40441676914E+03  0.40441676914E+03  0.00000000000E+00 0.  1.
         35    2    1    2    0    0  0.00000000000E+00  0.00000000000E+00 -0.35780778817E+03  0.45102575011E+03  0.27458662382E+03 0.  0.
         25    1    3    3    0    0  0.51801233878E+02 -0.38094773925E+02 -0.14975713528E+03  0.20239016577E+03  0.12000000000E+03 0.  0.
         25    1    3    3    0    0 -0.51801233878E+02  0.38094773925E+02 -0.20805065289E+03  0.24863558434E+03  0.12000000000E+03 0.  0.
<mgrwt>
<rscale>  0 0.27458662E+03</rscale>
<asrwt>0</asrwt>
<pdfrwt beam="1">  1        3 0.71706123E-02 0.27458662E+03</pdfrwt>
<pdfrwt beam="2">  1       -3 0.62217966E-01 0.27458662E+03</pdfrwt>
<totfact> 0.82716814E+02</totfact>
</mgrwt>
</event>
<event>
 5    1  0.1162308E+001  0.2758882E+03  0.7818608E-02  0.1097956E+00
         -1   -1    0    0    0  501 -0.00000000000E+00  0.00000000000E+00  0.24083791959E+02  0.24083791959E+02  0.00000000000E+00 0.  1.
          1   -1    0    0  501    0  0.00000000000E+00 -0.00000000000E+00 -0.79009902639E+03  0.79009902639E+03  0.00000000000E+00 0.  1.
         35    2    1    2    0    0  0.00000000000E+00  0.00000000000E+00 -0.76601523443E+03  0.81418281835E+03  0.27588824243E+03 0.  0.
         25    1    3    3    0    0 -0.57363589190E+02 -0.32626725732E+02 -0.43181260580E+03  0.45300906296E+03  0.12000000000E+03 0.  0.
         25    1    3    3    0    0  0.57363589190E+02  0.32626725732E+02 -0.33420262863E+03  0.36117375538E+03  0.12000000000E+03 0.  0.
<mgrwt>
<rscale>  0 0.27588824E+03</rscale>
<asrwt>0</asrwt>
<pdfrwt beam="1">  1        1 0.12155371E+00 0.27588824E+03</pdfrwt>
<pdfrwt beam="2">  1       -1 0.37051985E-02 0.27588824E+03</pdfrwt>
<totfact> 0.64635330E+03</totfact>
</mgrwt>
</event>
<event>
 5    1  0.1162308E+001  0.2763053E+03  0.7818608E-02  0.1097724E+00
         -2   -1    0    0    0  501 -0.00000000000E+00  0.00000000000E+00  0.19737376001E+03  0.19737376001E+03  0.00000000000E+00 0. -1.
          2   -1    0    0  501    0  0.00000000000E+00 -0.00000000000E+00 -0.96700583401E+02  0.96700583401E+02  0.00000000000E+00 0. -1.
         35    2    1    2    0    0  0.00000000000E+00  0.00000000000E+00  0.10067317661E+03  0.29407434341E+03  0.27630532200E+03 0.  0.
         25    1    3    3    0    0 -0.52422563859E+02 -0.26553601546E+02  0.87707925967E+02  0.15983084569E+03  0.12000000000E+03 0.  0.
         25    1    3    3    0    0  0.52422563859E+02  0.26553601546E+02  0.12965250645E+02  0.13424349772E+03  0.12000000000E+03 0.  0.
<mgrwt>
<rscale>  0 0.27630532E+03</rscale>
<asrwt>0</asrwt>
<pdfrwt beam="1">  1        2 0.14877013E-01 0.27630532E+03</pdfrwt>
<pdfrwt beam="2">  1       -2 0.30365194E-01 0.27630532E+03</pdfrwt>
<totfact> 0.39158704E+03</totfact>
</mgrwt>
</event>
<event>
 5    1  0.1162308E+001  0.2737600E+03  0.7818608E-02  0.1099147E+00
         -2   -1    0    0    0  501 -0.00000000000E+00  0.00000000000E+00  0.10756985796E+02  0.10756985796E+02  0.00000000000E+00 0.  1.
          2   -1    0    0  501    0  0.00000000000E+00 -0.00000000000E+00 -0.17417649442E+04  0.17417649442E+04  0.00000000000E+00 0.  1.
         35    2    1    2    0    0  0.00000000000E+00  0.00000000000E+00 -0.17310079585E+04  0.17525219300E+04  0.27376004650E+03 0.  0.
         25    1    3    3    0    0 -0.42719428938E+02  0.50110813164E+02 -0.86750351287E+03  0.87823595238E+03  0.12000000000E+03 0.  0.
         25    1    3    3    0    0  0.42719428938E+02 -0.50110813164E+02 -0.86350444558E+03  0.87428597767E+03  0.12000000000E+03 0.  0.
<mgrwt>
<rscale>  0 0.27376005E+03</rscale>
<asrwt>0</asrwt>
<pdfrwt beam="1">  1        2 0.26796375E+00 0.27376005E+03</pdfrwt>
<pdfrwt beam="2">  1       -2 0.16549214E-02 0.27376005E+03</pdfrwt>
<totfact> 0.10372494E+04</totfact>
</mgrwt>
</event>
<event>
 5    1  0.1162308E+001  0.2717079E+03  0.7818608E-02  0.1100306E+00
         -2   -1    0    0    0  501 -0.00000000000E+00  0.00000000000E+00  0.39661811128E+03  0.39661811128E+03  0.00000000000E+00 0. -1.
          2   -1    0    0  501    0  0.00000000000E+00 -0.00000000000E+00 -0.46534164783E+02  0.46534164783E+02  0.00000000000E+00 0. -1.
         35    2    1    2    0    0  0.00000000000E+00  0.00000000000E+00  0.35008394649E+03  0.44315227606E+03  0.27170787656E+03 0.  0.
         25    1    3    3    0    0  0.65685920434E+01  0.58433779285E+02  0.13513640764E+03  0.19005131316E+03  0.12000000000E+03 0.  0.
         25    1    3    3    0    0 -0.65685920434E+01 -0.58433779285E+02  0.21494753885E+03  0.25310096290E+03  0.12000000000E+03 0.  0.
<mgrwt>
<rscale>  0 0.27170788E+03</rscale>
<asrwt>0</asrwt>
<pdfrwt beam="1">  1        2 0.71591025E-02 0.27170788E+03</pdfrwt>
<pdfrwt beam="2">  1       -2 0.61018169E-01 0.27170788E+03</pdfrwt>
<totfact> 0.24965522E+03</totfact>
</mgrwt>
</event>
<event>
 5    1  0.1162308E+001  0.2738653E+03  0.7818608E-02  0.1099088E+00
          1   -1    0    0  501    0  0.00000000000E+00  0.00000000000E+00  0.32060848949E+02  0.32060848949E+02  0.00000000000E+00 0. -1.
         -1   -1    0    0    0  501 -0.00000000000E+00 -0.00000000000E+00 -0.58484273922E+03  0.58484273922E+03  0.00000000000E+00 0. -1.
         35    2    1    2    0    0  0.00000000000E+00  0.00000000000E+00 -0.55278189027E+03  0.61690358816E+03  0.27386532983E+03 0.  0.
         25    1    3    3    0    0  0.25499877811E+02  0.59042852038E+02 -0.24341909888E+03  0.27890708102E+03  0.12000000000E+03 0.  0.
         25    1    3    3    0    0 -0.25499877811E+02 -0.59042852038E+02 -0.30936279139E+03  0.33799650714E+03  0.12000000000E+03 0.  0.
<mgrwt>
<rscale>  0 0.27386533E+03</rscale>
<asrwt>0</asrwt>
<pdfrwt beam="1">  1        1 0.49324384E-02 0.27386533E+03</pdfrwt>
<pdfrwt beam="2">  1       -1 0.89975804E-01 0.27386533E+03</pdfrwt>
<totfact> 0.21532476E+03</totfact>
</mgrwt>
</event>
<event>
 5    1  0.1162308E+001  0.2735828E+03  0.7818608E-02  0.1099246E+00
          1   -1    0    0  501    0  0.00000000000E+00  0.00000000000E+00  0.48706168094E+02  0.48706168094E+02  0.00000000000E+00 0. -1.
         -1   -1    0    0    0  501 -0.00000000000E+00 -0.00000000000E+00 -0.38417891577E+03  0.38417891577E+03  0.00000000000E+00 0. -1.
         35    2    1    2    0    0  0.00000000000E+00  0.00000000000E+00 -0.33547274767E+03  0.43288508386E+03  0.27358276882E+03 0.  0.
         25    1    3    3    0    0  0.51052359010E+02  0.39748049521E+02 -0.15000125508E+03  0.20269836538E+03  0.12000000000E+03 0.  0.
         25    1    3    3    0    0 -0.51052359010E+02 -0.39748049521E+02 -0.18547149259E+03  0.23018671848E+03  0.12000000000E+03 0.  0.
<mgrwt>
<rscale>  0 0.27358277E+03</rscale>
<asrwt>0</asrwt>
<pdfrwt beam="1">  1        1 0.74932563E-02 0.27358277E+03</pdfrwt>
<pdfrwt beam="2">  1       -1 0.59104451E-01 0.27358277E+03</pdfrwt>
<totfact> 0.28363043E+03</totfact>
</mgrwt>
</event>
<event>
 5    1  0.1162308E+001  0.2744900E+03  0.7818608E-02  0.1098737E+00
         -1   -1    0    0    0  501 -0.00000000000E+00  0.00000000000E+00  0.19070893242E+02  0.19070893242E+02  0.00000000000E+00 0. -1.
          1   -1    0    0  501    0  0.00000000000E+00 -0.00000000000E+00 -0.98769315726E+03  0.98769315726E+03  0.00000000000E+00 0. -1.
         35    2    1    2    0    0  0.00000000000E+00  0.00000000000E+00 -0.96862226401E+03  0.10067640505E+04  0.27449000534E+03 0.  0.
         25    1    3    3    0    0  0.32396852543E+02  0.24433868125E+02 -0.67803081486E+03  0.68976253585E+03  0.12000000000E+03 0.  0.
         25    1    3    3    0    0 -0.32396852543E+02 -0.24433868125E+02 -0.29059144916E+03  0.31700151465E+03  0.12000000000E+03 0.  0.
<mgrwt>
<rscale>  0 0.27449001E+03</rscale>
<asrwt>0</asrwt>
<pdfrwt beam="1">  1        1 0.15195283E+00 0.27449001E+03</pdfrwt>
<pdfrwt beam="2">  1       -1 0.29339829E-02 0.27449001E+03</pdfrwt>
<totfact> 0.63635488E+03</totfact>
</mgrwt>
</event>
<event>
 5    1  0.1162308E+001  0.2824057E+03  0.7818608E-02  0.1094382E+00
         -2   -1    0    0    0  501 -0.00000000000E+00  0.00000000000E+00  0.37479362467E+02  0.37479362467E+02  0.00000000000E+00 0.  1.
          2   -1    0    0  501    0  0.00000000000E+00 -0.00000000000E+00 -0.53197923114E+03  0.53197923114E+03  0.00000000000E+00 0.  1.
         35    2    1    2    0    0  0.00000000000E+00  0.00000000000E+00 -0.49449986868E+03  0.56945859361E+03  0.28240568287E+03 0.  0.
         25    1    3    3    0    0  0.35305932677E+02  0.33096810549E+02 -0.36125255705E+03  0.38372557607E+03  0.12000000000E+03 0.  0.
         25    1    3    3    0    0 -0.35305932677E+02 -0.33096810549E+02 -0.13324731162E+03  0.18573301754E+03  0.12000000000E+03 0.  0.
<mgrwt>
<rscale>  0 0.28240568E+03</rscale>
<asrwt>0</asrwt>
<pdfrwt beam="1">  1        2 0.81842961E-01 0.28240568E+03</pdfrwt>
<pdfrwt beam="2">  1       -2 0.57660556E-02 0.28240568E+03</pdfrwt>
<totfact> 0.90914507E+03</totfact>
</mgrwt>
</event>
<event>
 5    1  0.1162308E+001  0.2725242E+03  0.7818608E-02  0.1099844E+00
          1   -1    0    0  501    0  0.00000000000E+00  0.00000000000E+00  0.16735356312E+04  0.16735356312E+04  0.00000000000E+00 0. -1.
         -1   -1    0    0    0  501 -0.00000000000E+00 -0.00000000000E+00 -0.11094690589E+02  0.11094690589E+02  0.00000000000E+00 0. -1.
         35    2    1    2    0    0  0.00000000000E+00  0.00000000000E+00  0.16624409406E+04  0.16846303218E+04  0.27252420089E+03 0.  0.
         25    1    3    3    0    0  0.48679113003E+02  0.39980915509E+02  0.74396808480E+03  0.75621203432E+03  0.12000000000E+03 0.  0.
         25    1    3    3    0    0 -0.48679113003E+02 -0.39980915509E+02  0.91847285578E+03  0.92841828744E+03  0.12000000000E+03 0.  0.
<mgrwt>
<rscale>  0 0.27252420E+03</rscale>
<asrwt>0</asrwt>
<pdfrwt beam="1">  1        1 0.25746682E+00 0.27252420E+03</pdfrwt>
<pdfrwt beam="2">  1       -1 0.17068768E-02 0.27252420E+03</pdfrwt>
<totfact> 0.47556386E+03</totfact>
</mgrwt>
</event>
<event>
 5    1  0.1162308E+001  0.2741153E+03  0.7818608E-02  0.1098947E+00
         -2   -1    0    0    0  501 -0.00000000000E+00  0.00000000000E+00  0.21423423813E+02  0.21423423813E+02  0.00000000000E+00 0. -1.
          2   -1    0    0  501    0  0.00000000000E+00 -0.00000000000E+00 -0.87683453149E+03  0.87683453149E+03  0.00000000000E+00 0. -1.
         35    2    1    2    0    0  0.00000000000E+00  0.00000000000E+00 -0.85541110768E+03  0.89825795530E+03  0.27411528802E+03 0.  0.
         25    1    3    3    0    0  0.95647224949E+01 -0.40390199173E+02 -0.59677588703E+03  0.61013466665E+03  0.12000000000E+03 0.  0.
         25    1    3    3    0    0 -0.95647224949E+01  0.40390199173E+02 -0.25863522064E+03  0.28812328865E+03  0.12000000000E+03 0.  0.
<mgrwt>
<rscale>  0 0.27411529E+03</rscale>
<asrwt>0</asrwt>
<pdfrwt beam="1">  1        2 0.13489763E+00 0.27411529E+03</pdfrwt>
<pdfrwt beam="2">  1       -2 0.32959112E-02 0.27411529E+03</pdfrwt>
<totfact> 0.11537808E+04</totfact>
</mgrwt>
</event>
<event>
 5    1  0.1162308E+001  0.2747669E+03  0.7818608E-02  0.1098582E+00
         -1   -1    0    0    0  501 -0.00000000000E+00  0.00000000000E+00  0.50599423492E+01  0.50599423492E+01  0.00000000000E+00 0. -1.
          1   -1    0    0  501    0  0.00000000000E+00 -0.00000000000E+00 -0.37301246637E+04  0.37301246637E+04  0.00000000000E+00 0. -1.
         35    2    1    2    0    0  0.00000000000E+00  0.00000000000E+00 -0.37250647214E+04  0.37351846061E+04  0.27476692489E+03 0.  0.
         25    1    3    3    0    0  0.21250590823E+02 -0.11266086275E+02 -0.27110103144E+04  0.27137714416E+04  0.12000000000E+03 0.  0.
         25    1    3    3    0    0 -0.21250590823E+02  0.11266086275E+02 -0.10140544069E+04  0.10214131645E+04  0.12000000000E+03 0.  0.
<mgrwt>
<rscale>  0 0.27476692E+03</rscale>
<asrwt>0</asrwt>
<pdfrwt beam="1">  1        1 0.57386571E+00 0.27476692E+03</pdfrwt>
<pdfrwt beam="2">  1       -1 0.77845216E-03 0.27476692E+03</pdfrwt>
<totfact> 0.56268172E+02</totfact>
</mgrwt>
</event>
<event>
 5    1  0.1162308E+001  0.2827630E+03  0.7818608E-02  0.1094189E+00
         -1   -1    0    0    0  501 -0.00000000000E+00  0.00000000000E+00  0.17907568200E+03  0.17907568200E+03  0.00000000000E+00 0. -1.
          1   -1    0    0  501    0  0.00000000000E+00 -0.00000000000E+00 -0.11162171328E+03  0.11162171328E+03  0.00000000000E+00 0. -1.
         35    2    1    2    0    0  0.00000000000E+00  0.00000000000E+00  0.67453968714E+02  0.29069739528E+03  0.28276304166E+03 0.  0.
         25    1    3    3    0    0  0.11680893111E+02  0.23267902503E+02  0.10577115712E+03  0.16206596258E+03  0.12000000000E+03 0.  0.
         25    1    3    3    0    0 -0.11680893111E+02 -0.23267902503E+02 -0.38317188401E+02  0.12863143270E+03  0.12000000000E+03 0.  0.
<mgrwt>
<rscale>  0 0.28276304E+03</rscale>
<asrwt>0</asrwt>
<pdfrwt beam="1">  1        1 0.17172571E-01 0.28276304E+03</pdfrwt>
<pdfrwt beam="2">  1       -1 0.27550105E-01 0.28276304E+03</pdfrwt>
<totfact> 0.36682969E+03</totfact>
</mgrwt>
</event>
<event>
 5    1  0.1162308E+001  0.2748474E+03  0.7818608E-02  0.1098537E+00
         -2   -1    0    0    0  501 -0.00000000000E+00  0.00000000000E+00  0.12299492532E+03  0.12299492532E+03  0.00000000000E+00 0.  1.
          2   -1    0    0  501    0  0.00000000000E+00 -0.00000000000E+00 -0.15354514459E+03  0.15354514459E+03  0.00000000000E+00 0.  1.
         35    2    1    2    0    0  0.00000000000E+00  0.00000000000E+00 -0.30550219261E+02  0.27654006991E+03  0.27484740197E+03 0.  0.
         25    1    3    3    0    0  0.40434652963E+02  0.17803272976E+02  0.35367320267E+02  0.13267541231E+03  0.12000000000E+03 0.  0.
         25    1    3    3    0    0 -0.40434652963E+02 -0.17803272976E+02 -0.65917539527E+02  0.14386465760E+03  0.12000000000E+03 0.  0.
<mgrwt>
<rscale>  0 0.27484740E+03</rscale>
<asrwt>0</asrwt>
<pdfrwt beam="1">  1        2 0.23622330E-01 0.27484740E+03</pdfrwt>
<pdfrwt beam="2">  1       -2 0.18922296E-01 0.27484740E+03</pdfrwt>
<totfact> 0.52663525E+03</totfact>
</mgrwt>
</event>
<event>
 5    1  0.1162308E+001  0.2750826E+03  0.7818608E-02  0.1098405E+00
         -2   -1    0    0    0  501 -0.00000000000E+00  0.00000000000E+00  0.96983104309E+01  0.96983104309E+01  0.00000000000E+00 0.  1.
          2   -1    0    0  501    0  0.00000000000E+00 -0.00000000000E+00 -0.19506081438E+04  0.19506081438E+04  0.00000000000E+00 0.  1.
         35    2    1    2    0    0  0.00000000000E+00  0.00000000000E+00 -0.19409098334E+04  0.19603064542E+04  0.27508255712E+03 0.  0.
         25    1    3    3    0    0  0.50773614498E+02 -0.15524518456E+01 -0.65680016105E+03  0.66960198744E+03  0.12000000000E+03 0.  0.
         25    1    3    3    0    0 -0.50773614498E+02  0.15524518456E+01 -0.12841096723E+04  0.12907044668E+04  0.12000000000E+03 0.  0.
<mgrwt>
<rscale>  0 0.27508256E+03</rscale>
<asrwt>0</asrwt>
<pdfrwt beam="1">  1        2 0.30009382E+00 0.27508256E+03</pdfrwt>
<pdfrwt beam="2">  1       -2 0.14920464E-02 0.27508256E+03</pdfrwt>
<totfact> 0.93784389E+03</totfact>
</mgrwt>
</event>
<event>
 5    1  0.1162308E+001  0.2739248E+03  0.7818608E-02  0.1099054E+00
         -2   -1    0    0    0  501 -0.00000000000E+00  0.00000000000E+00  0.11019241084E+02  0.11019241084E+02  0.00000000000E+00 0. -1.
          2   -1    0    0  501    0  0.00000000000E+00 -0.00000000000E+00 -0.17023585250E+04  0.17023585250E+04  0.00000000000E+00 0. -1.
         35    2    1    2    0    0  0.00000000000E+00  0.00000000000E+00 -0.16913392839E+04  0.17133777661E+04  0.27392479989E+03 0.  0.
         25    1    3    3    0    0  0.59684603644E+02  0.14361034429E+02 -0.99762787603E+03  0.10066925401E+04  0.12000000000E+03 0.  0.
         25    1    3    3    0    0 -0.59684603644E+02 -0.14361034429E+02 -0.69371140791E+03  0.70668522603E+03  0.12000000000E+03 0.  0.
<mgrwt>
<rscale>  0 0.27392480E+03</rscale>
<asrwt>0</asrwt>
<pdfrwt beam="1">  1        2 0.26190117E+00 0.27392480E+03</pdfrwt>
<pdfrwt beam="2">  1       -2 0.16952688E-02 0.27392480E+03</pdfrwt>
<totfact> 0.10502357E+04</totfact>
</mgrwt>
</event>
<event>
 5    1  0.1162308E+001  0.2748100E+03  0.7818608E-02  0.1098558E+00
          2   -1    0    0  501    0  0.00000000000E+00  0.00000000000E+00  0.96699272030E+03  0.96699272030E+03  0.00000000000E+00 0. -1.
         -2   -1    0    0    0  501 -0.00000000000E+00 -0.00000000000E+00 -0.19524585653E+02  0.19524585653E+02  0.00000000000E+00 0. -1.
         35    2    1    2    0    0  0.00000000000E+00  0.00000000000E+00  0.94746813465E+03  0.98651730596E+03  0.27480998667E+03 0.  0.
         25    1    3    3    0    0 -0.12576406939E+02 -0.42315197354E+02  0.65434820798E+03  0.66672357032E+03  0.12000000000E+03 0.  0.
         25    1    3    3    0    0  0.12576406939E+02  0.42315197354E+02  0.29311992667E+03  0.31979373564E+03  0.12000000000E+03 0.  0.
<mgrwt>
<rscale>  0 0.27480999E+03</rscale>
<asrwt>0</asrwt>
<pdfrwt beam="1">  1        2 0.14876807E+00 0.27480999E+03</pdfrwt>
<pdfrwt beam="2">  1       -2 0.30037832E-02 0.27480999E+03</pdfrwt>
<totfact> 0.11606752E+04</totfact>
</mgrwt>
</event>
<event>
 5    1  0.1162308E+001  0.2756709E+03  0.7818608E-02  0.1098077E+00
          2   -1    0    0  501    0  0.00000000000E+00  0.00000000000E+00  0.15246563772E+04  0.15246563772E+04  0.00000000000E+00 0. -1.
         -2   -1    0    0    0  501 -0.00000000000E+00 -0.00000000000E+00 -0.12460914860E+02  0.12460914860E+02  0.00000000000E+00 0. -1.
         35    2    1    2    0    0  0.00000000000E+00  0.00000000000E+00  0.15121954624E+04  0.15371172921E+04  0.27567091474E+03 0.  0.
         25    1    3    3    0    0 -0.11793708071E+02  0.69601841352E+01  0.38576814518E+03  0.40423334542E+03  0.12000000000E+03 0.  0.
         25    1    3    3    0    0  0.11793708071E+02 -0.69601841352E+01  0.11264273172E+04  0.11328839467E+04  0.12000000000E+03 0.  0.
<mgrwt>
<rscale>  0 0.27567091E+03</rscale>
<asrwt>0</asrwt>
<pdfrwt beam="1">  1        2 0.23456237E+00 0.27567091E+03</pdfrwt>
<pdfrwt beam="2">  1       -2 0.19170650E-02 0.27567091E+03</pdfrwt>
<totfact> 0.10891184E+04</totfact>
</mgrwt>
</event>
<event>
 5    1  0.1162308E+001  0.2721455E+03  0.7818608E-02  0.1100058E+00
          2   -1    0    0  501    0  0.00000000000E+00  0.00000000000E+00  0.15321170405E+04  0.15321170405E+04  0.00000000000E+00 0. -1.
         -2   -1    0    0    0  501 -0.00000000000E+00 -0.00000000000E+00 -0.12085106366E+02  0.12085106366E+02  0.00000000000E+00 0. -1.
         35    2    1    2    0    0  0.00000000000E+00  0.00000000000E+00  0.15200319341E+04  0.15442021469E+04  0.27214553018E+03 0.  0.
         25    1    3    3    0    0 -0.20851205002E+02  0.59202058862E+02  0.68470937021E+03  0.69797319302E+03  0.12000000000E+03 0.  0.
         25    1    3    3    0    0  0.20851205002E+02 -0.59202058862E+02  0.83532256393E+03  0.84622895385E+03  0.12000000000E+03 0.  0.
<mgrwt>
<rscale>  0 0.27214553E+03</rscale>
<asrwt>0</asrwt>
<pdfrwt beam="1">  1        2 0.23571016E+00 0.27214553E+03</pdfrwt>
<pdfrwt beam="2">  1       -2 0.18592484E-02 0.27214553E+03</pdfrwt>
<totfact> 0.11285434E+04</totfact>
</mgrwt>
</event>
<event>
 5    1  0.1162308E+001  0.2715456E+03  0.7818608E-02  0.1100398E+00
          3   -1    0    0  501    0  0.00000000000E+00  0.00000000000E+00  0.20011364904E+03  0.20011364904E+03  0.00000000000E+00 0.  1.
         -3   -1    0    0    0  501 -0.00000000000E+00 -0.00000000000E+00 -0.92118937241E+02  0.92118937241E+02  0.00000000000E+00 0.  1.
         35    2    1    2    0    0  0.00000000000E+00  0.00000000000E+00  0.10799471179E+03  0.29223258628E+03  0.27154562546E+03 0.  0.
         25    1    3    3    0    0 -0.77284765124E+00  0.19926955485E+02 -0.10900769863E+02  0.12213315533E+03  0.12000000000E+03 0.  0.
         25    1    3    3    0    0  0.77284765124E+00 -0.19926955485E+02  0.11889548166E+03  0.17009943094E+03  0.12000000000E+03 0.  0.
<mgrwt>
<rscale>  0 0.27154563E+03</rscale>
<asrwt>0</asrwt>
<pdfrwt beam="1">  1        3 0.30786715E-01 0.27154563E+03</pdfrwt>
<pdfrwt beam="2">  1       -3 0.14172144E-01 0.27154563E+03</pdfrwt>
<totfact> 0.10634504E+03</totfact>
</mgrwt>
</event>
<event>
 5    1  0.1162308E+001  0.2766405E+03  0.7818608E-02  0.1097538E+00
         -2   -1    0    0    0  501 -0.00000000000E+00  0.00000000000E+00  0.12804318237E+02  0.12804318237E+02  0.00000000000E+00 0. -1.
          2   -1    0    0  501    0  0.00000000000E+00 -0.00000000000E+00 -0.14942218219E+04  0.14942218219E+04  0.00000000000E+00 0. -1.
         35    2    1    2    0    0  0.00000000000E+00  0.00000000000E+00 -0.14814175037E+04  0.15070261401E+04  0.27664050119E+03 0.  0.
         25    1    3    3    0    0 -0.51685408909E+02 -0.30966472963E+02 -0.55985279437E+03  0.57573036685E+03  0.12000000000E+03 0.  0.
         25    1    3    3    0    0  0.51685408909E+02  0.30966472963E+02 -0.92156470930E+03  0.93129577330E+03  0.12000000000E+03 0.  0.
<mgrwt>
<rscale>  0 0.27664050E+03</rscale>
<asrwt>0</asrwt>
<pdfrwt beam="1">  1        2 0.22988029E+00 0.27664050E+03</pdfrwt>
<pdfrwt beam="2">  1       -2 0.19698950E-02 0.27664050E+03</pdfrwt>
<totfact> 0.10864793E+04</totfact>
</mgrwt>
</event>
<event>
 5    1  0.1162308E+001  0.2749666E+03  0.7818608E-02  0.1098470E+00
          3   -1    0    0  501    0  0.00000000000E+00  0.00000000000E+00  0.20711365352E+02  0.20711365352E+02  0.00000000000E+00 0. -1.
         -3   -1    0    0    0  501 -0.00000000000E+00 -0.00000000000E+00 -0.91262240373E+03  0.91262240373E+03  0.00000000000E+00 0. -1.
         35    2    1    2    0    0  0.00000000000E+00  0.00000000000E+00 -0.89191103838E+03  0.93333376908E+03  0.27496658730E+03 0.  0.
         25    1    3    3    0    0  0.23301847104E+02 -0.57421900037E+02 -0.53325082841E+03  0.55008789905E+03  0.12000000000E+03 0.  0.
         25    1    3    3    0    0 -0.23301847104E+02  0.57421900037E+02 -0.35866020997E+03  0.38324587003E+03  0.12000000000E+03 0.  0.
<mgrwt>
<rscale>  0 0.27496659E+03</rscale>
<asrwt>0</asrwt>
<pdfrwt beam="1">  1        3 0.31863638E-02 0.27496659E+03</pdfrwt>
<pdfrwt beam="2">  1       -3 0.14040345E+00 0.27496659E+03</pdfrwt>
<totfact> 0.47454670E+02</totfact>
</mgrwt>
</event>
<event>
 5    1  0.1162308E+001  0.2737317E+03  0.7818608E-02  0.1099163E+00
          1   -1    0    0  501    0  0.00000000000E+00  0.00000000000E+00  0.32894488129E+03  0.32894488129E+03  0.00000000000E+00 0.  1.
         -1   -1    0    0    0  501 -0.00000000000E+00 -0.00000000000E+00 -0.56946507727E+02  0.56946507727E+02  0.00000000000E+00 0.  1.
         35    2    1    2    0    0  0.00000000000E+00  0.00000000000E+00  0.27199837356E+03  0.38589138902E+03  0.27373170970E+03 0.  0.
         25    1    3    3    0    0  0.11216597384E+02 -0.32370031516E+02  0.56769226190E+02  0.13709987615E+03  0.12000000000E+03 0.  0.
         25    1    3    3    0    0 -0.11216597384E+02  0.32370031516E+02  0.21522914737E+03  0.24879151287E+03  0.12000000000E+03 0.  0.
<mgrwt>
<rscale>  0 0.27373171E+03</rscale>
<asrwt>0</asrwt>
<pdfrwt beam="1">  1        1 0.50606904E-01 0.27373171E+03</pdfrwt>
<pdfrwt beam="2">  1       -1 0.87610013E-02 0.27373171E+03</pdfrwt>
<totfact> 0.57926170E+03</totfact>
</mgrwt>
</event>
<event>
 5    1  0.1162308E+001  0.2748389E+03  0.7818608E-02  0.1098542E+00
         -1   -1    0    0    0  501 -0.00000000000E+00  0.00000000000E+00  0.94487435406E+02  0.94487435406E+02  0.00000000000E+00 0.  1.
          1   -1    0    0  501    0  0.00000000000E+00 -0.00000000000E+00 -0.19985831681E+03  0.19985831681E+03  0.00000000000E+00 0.  1.
         35    2    1    2    0    0  0.00000000000E+00  0.00000000000E+00 -0.10537088140E+03  0.29434575222E+03  0.27483886043E+03 0.  0.
         25    1    3    3    0    0 -0.45490979344E+01  0.37188807624E+02  0.67551417986E+01  0.12589413666E+03  0.12000000000E+03 0.  0.
         25    1    3    3    0    0  0.45490979344E+01 -0.37188807624E+02 -0.11212602320E+03  0.16845161556E+03  0.12000000000E+03 0.  0.
<mgrwt>
<rscale>  0 0.27483886E+03</rscale>
<asrwt>0</asrwt>
<pdfrwt beam="1">  1        1 0.30747433E-01 0.27483886E+03</pdfrwt>
<pdfrwt beam="2">  1       -1 0.14536529E-01 0.27483886E+03</pdfrwt>
<totfact> 0.49268411E+03</totfact>
</mgrwt>
</event>
<event>
 5    1  0.1162308E+001  0.2747792E+03  0.7818608E-02  0.1098575E+00
          2   -1    0    0  501    0  0.00000000000E+00  0.00000000000E+00  0.11683900419E+04  0.11683900419E+04  0.00000000000E+00 0. -1.
         -2   -1    0    0    0  501 -0.00000000000E+00 -0.00000000000E+00 -0.16155482137E+02  0.16155482137E+02  0.00000000000E+00 0. -1.
         35    2    1    2    0    0  0.00000000000E+00  0.00000000000E+00  0.11522345598E+04  0.11845455240E+04  0.27477921647E+03 0.  0.
         25    1    3    3    0    0 -0.52700907788E+02 -0.38554735240E+02  0.51334206600E+03  0.53120987380E+03  0.12000000000E+03 0.  0.
         25    1    3    3    0    0  0.52700907788E+02  0.38554735240E+02  0.63889249377E+03  0.65333565025E+03  0.12000000000E+03 0.  0.
<mgrwt>
<rscale>  0 0.27477922E+03</rscale>
<asrwt>0</asrwt>
<pdfrwt beam="1">  1        2 0.17975225E+00 0.27477922E+03</pdfrwt>
<pdfrwt beam="2">  1       -2 0.24854597E-02 0.27477922E+03</pdfrwt>
<totfact> 0.11661730E+04</totfact>
</mgrwt>
</event>
<event>
 5    1  0.1162308E+001  0.2708082E+03  0.7818608E-02  0.1100818E+00
         -1   -1    0    0    0  501 -0.00000000000E+00  0.00000000000E+00  0.41100602839E+02  0.41100602839E+02  0.00000000000E+00 0. -1.
          1   -1    0    0  501    0  0.00000000000E+00 -0.00000000000E+00 -0.44608272994E+03  0.44608272994E+03  0.00000000000E+00 0. -1.
         35    2    1    2    0    0  0.00000000000E+00  0.00000000000E+00 -0.40498212710E+03  0.48718333277E+03  0.27080819128E+03 0.  0.
         25    1    3    3    0    0  0.44239338491E+02 -0.20760759698E+02 -0.27322945179E+03  0.30239454615E+03  0.12000000000E+03 0.  0.
         25    1    3    3    0    0 -0.44239338491E+02  0.20760759698E+02 -0.13175267530E+03  0.18478878663E+03  0.12000000000E+03 0.  0.
<mgrwt>
<rscale>  0 0.27080819E+03</rscale>
<asrwt>0</asrwt>
<pdfrwt beam="1">  1        1 0.68628115E-01 0.27080819E+03</pdfrwt>
<pdfrwt beam="2">  1       -1 0.63231694E-02 0.27080819E+03</pdfrwt>
<totfact> 0.64437618E+03</totfact>
</mgrwt>
</event>
<event>
 5    1  0.1162308E+001  0.2752171E+03  0.7818608E-02  0.1098330E+00
          1   -1    0    0  501    0  0.00000000000E+00  0.00000000000E+00  0.27492223566E+02  0.27492223566E+02  0.00000000000E+00 0.  1.
         -1   -1    0    0    0  501 -0.00000000000E+00 -0.00000000000E+00 -0.68878059887E+03  0.68878059887E+03  0.00000000000E+00 0.  1.
         35    2    1    2    0    0  0.00000000000E+00  0.00000000000E+00 -0.66128837530E+03  0.71627282243E+03  0.27521707950E+03 0.  0.
         25    1    3    3    0    0 -0.27531299908E+02 -0.44120900694E+02 -0.44202352734E+03  0.46096575260E+03  0.12000000000E+03 0.  0.
         25    1    3    3    0    0  0.27531299908E+02  0.44120900694E+02 -0.21926484797E+03  0.25530706983E+03  0.12000000000E+03 0.  0.
<mgrwt>
<rscale>  0 0.27521708E+03</rscale>
<asrwt>0</asrwt>
<pdfrwt beam="1">  1        1 0.42295725E-02 0.27521708E+03</pdfrwt>
<pdfrwt beam="2">  1       -1 0.10596625E+00 0.27521708E+03</pdfrwt>
<totfact> 0.18574151E+03</totfact>
</mgrwt>
</event>
<event>
 5    1  0.1162308E+001  0.2716457E+03  0.7818608E-02  0.1100341E+00
         -2   -1    0    0    0  501 -0.00000000000E+00  0.00000000000E+00  0.11775781015E+02  0.11775781015E+02  0.00000000000E+00 0.  1.
          2   -1    0    0  501    0  0.00000000000E+00 -0.00000000000E+00 -0.15665919560E+04  0.15665919560E+04  0.00000000000E+00 0.  1.
         35    2    1    2    0    0  0.00000000000E+00  0.00000000000E+00 -0.15548161749E+04  0.15783677370E+04  0.27164567961E+03 0.  0.
         25    1    3    3    0    0 -0.24485421401E+02 -0.57540920779E+02 -0.70931228578E+03  0.72210415605E+03  0.12000000000E+03 0.  0.
         25    1    3    3    0    0  0.24485421401E+02  0.57540920779E+02 -0.84550388916E+03  0.85626358092E+03  0.12000000000E+03 0.  0.
<mgrwt>
<rscale>  0 0.27164568E+03</rscale>
<asrwt>0</asrwt>
<pdfrwt beam="1">  1        2 0.24101431E+00 0.27164568E+03</pdfrwt>
<pdfrwt beam="2">  1       -2 0.18116574E-02 0.27164568E+03</pdfrwt>
<totfact> 0.11237911E+04</totfact>
</mgrwt>
</event>
<event>
 5    1  0.1162308E+001  0.2756629E+03  0.7818608E-02  0.1098082E+00
         -1   -1    0    0    0  501 -0.00000000000E+00  0.00000000000E+00  0.72025755799E+02  0.72025755799E+02  0.00000000000E+00 0.  1.
          1   -1    0    0  501    0  0.00000000000E+00 -0.00000000000E+00 -0.26375999182E+03  0.26375999182E+03  0.00000000000E+00 0.  1.
         35    2    1    2    0    0  0.00000000000E+00  0.00000000000E+00 -0.19173423602E+03  0.33578574761E+03  0.27566293012E+03 0.  0.
         25    1    3    3    0    0 -0.45866325776E+02  0.35759361782E+02 -0.13832740497E+03  0.19213777026E+03  0.12000000000E+03 0.  0.
         25    1    3    3    0    0  0.45866325776E+02 -0.35759361782E+02 -0.53406831048E+02  0.14364797735E+03  0.12000000000E+03 0.  0.
<mgrwt>
<rscale>  0 0.27566293E+03</rscale>
<asrwt>0</asrwt>
<pdfrwt beam="1">  1        1 0.40578460E-01 0.27566293E+03</pdfrwt>
<pdfrwt beam="2">  1       -1 0.11080886E-01 0.27566293E+03</pdfrwt>
<totfact> 0.53215368E+03</totfact>
</mgrwt>
</event>
<event>
 5    1  0.1162308E+001  0.2747202E+03  0.7818608E-02  0.1098608E+00
          2   -1    0    0  501    0  0.00000000000E+00  0.00000000000E+00  0.38712356489E+02  0.38712356489E+02  0.00000000000E+00 0. -1.
         -2   -1    0    0    0  501 -0.00000000000E+00 -0.00000000000E+00 -0.48738422854E+03  0.48738422854E+03  0.00000000000E+00 0. -1.
         35    2    1    2    0    0  0.00000000000E+00  0.00000000000E+00 -0.44867187205E+03  0.52609658503E+03  0.27472016309E+03 0.  0.
         25    1    3    3    0    0 -0.53614784866E+02  0.35294292901E+02 -0.26003770009E+03  0.29349589049E+03  0.12000000000E+03 0.  0.
         25    1    3    3    0    0  0.53614784866E+02 -0.35294292901E+02 -0.18863417196E+03  0.23260069453E+03  0.12000000000E+03 0.  0.
<mgrwt>
<rscale>  0 0.27472016E+03</rscale>
<asrwt>0</asrwt>
<pdfrwt beam="1">  1        2 0.59557474E-02 0.27472016E+03</pdfrwt>
<pdfrwt beam="2">  1       -2 0.74982185E-01 0.27472016E+03</pdfrwt>
<totfact> 0.20451228E+03</totfact>
</mgrwt>
</event>
<event>
 5    1  0.1162308E+001  0.2749886E+03  0.7818608E-02  0.1098458E+00
         -1   -1    0    0    0  501 -0.00000000000E+00  0.00000000000E+00  0.95341325910E+03  0.95341325910E+03  0.00000000000E+00 0. -1.
          1   -1    0    0  501    0  0.00000000000E+00 -0.00000000000E+00 -0.19828425134E+02  0.19828425134E+02  0.00000000000E+00 0. -1.
         35    2    1    2    0    0  0.00000000000E+00  0.00000000000E+00  0.93358483397E+03  0.97324168423E+03  0.27498860653E+03 0.  0.
         25    1    3    3    0    0  0.58567044223E+02  0.12231167308E+02  0.35915260042E+03  0.38336704411E+03  0.12000000000E+03 0.  0.
         25    1    3    3    0    0 -0.58567044223E+02 -0.12231167308E+02  0.57443223354E+03  0.58987464012E+03  0.12000000000E+03 0.  0.
<mgrwt>
<rscale>  0 0.27498861E+03</rscale>
<asrwt>0</asrwt>
<pdfrwt beam="1">  1        1 0.30505277E-02 0.27498861E+03</pdfrwt>
<pdfrwt beam="2">  1       -1 0.14667893E+00 0.27498861E+03</pdfrwt>
<totfact> 0.13341202E+03</totfact>
</mgrwt>
</event>
<event>
 5    1  0.1162308E+001  0.2756339E+03  0.7818608E-02  0.1098098E+00
         -2   -1    0    0    0  501 -0.00000000000E+00  0.00000000000E+00  0.43976118271E+02  0.43976118271E+02  0.00000000000E+00 0. -1.
          2   -1    0    0  501    0  0.00000000000E+00 -0.00000000000E+00 -0.43190524629E+03  0.43190524629E+03  0.00000000000E+00 0. -1.
         35    2    1    2    0    0  0.00000000000E+00  0.00000000000E+00 -0.38792912802E+03  0.47588136457E+03  0.27563393255E+03 0.  0.
         25    1    3    3    0    0 -0.60120629078E+02 -0.16868796797E+02 -0.23946260670E+03  0.27502979175E+03  0.12000000000E+03 0.  0.
         25    1    3    3    0    0  0.60120629078E+02  0.16868796797E+02 -0.14846652133E+03  0.20085157281E+03  0.12000000000E+03 0.  0.
<mgrwt>
<rscale>  0 0.27563393E+03</rscale>
<asrwt>0</asrwt>
<pdfrwt beam="1">  1        2 0.66446958E-01 0.27563393E+03</pdfrwt>
<pdfrwt beam="2">  1       -2 0.67655569E-02 0.27563393E+03</pdfrwt>
<totfact> 0.89561740E+03</totfact>
</mgrwt>
</event>
<event>
 5    1  0.1162308E+001  0.2755813E+03  0.7818608E-02  0.1098127E+00
         -2   -1    0    0    0  501 -0.00000000000E+00  0.00000000000E+00  0.30893113580E+02  0.30893113580E+02  0.00000000000E+00 0. -1.
          2   -1    0    0  501    0  0.00000000000E+00 -0.00000000000E+00 -0.61457900567E+03  0.61457900567E+03  0.00000000000E+00 0. -1.
         35    2    1    2    0    0  0.00000000000E+00  0.00000000000E+00 -0.58368589209E+03  0.64547211925E+03  0.27558126951E+03 0.  0.
         25    1    3    3    0    0 -0.35999692591E+02 -0.57221454564E+02 -0.28247807652E+03  0.31426761915E+03  0.12000000000E+03 0.  0.
         25    1    3    3    0    0  0.35999692591E+02  0.57221454564E+02 -0.30120781557E+03  0.33120450010E+03  0.12000000000E+03 0.  0.
<mgrwt>
<rscale>  0 0.27558127E+03</rscale>
<asrwt>0</asrwt>
<pdfrwt beam="1">  1        2 0.94550604E-01 0.27558127E+03</pdfrwt>
<pdfrwt beam="2">  1       -2 0.47527873E-02 0.27558127E+03</pdfrwt>
<totfact> 0.10329530E+04</totfact>
</mgrwt>
</event>
<event>
 5    1  0.1162308E+001  0.2759673E+03  0.7818608E-02  0.1097912E+00
         -2   -1    0    0    0  501 -0.00000000000E+00  0.00000000000E+00  0.14657116151E+02  0.14657116151E+02  0.00000000000E+00 0. -1.
          2   -1    0    0  501    0  0.00000000000E+00 -0.00000000000E+00 -0.12989928523E+04  0.12989928523E+04  0.00000000000E+00 0. -1.
         35    2    1    2    0    0  0.00000000000E+00  0.00000000000E+00 -0.12843357361E+04  0.13136499684E+04  0.27596731049E+03 0.  0.
         25    1    3    3    0    0 -0.22987505018E+02  0.63972279051E+02 -0.62163215971E+03  0.63674753228E+03  0.12000000000E+03 0.  0.
         25    1    3    3    0    0  0.22987505018E+02 -0.63972279051E+02 -0.66270357643E+03  0.67690243616E+03  0.12000000000E+03 0.  0.
<mgrwt>
<rscale>  0 0.27596731E+03</rscale>
<asrwt>0</asrwt>
<pdfrwt beam="1">  1        2 0.19984512E+00 0.27596731E+03</pdfrwt>
<pdfrwt beam="2">  1       -2 0.22549402E-02 0.27596731E+03</pdfrwt>
<totfact> 0.11368814E+04</totfact>
</mgrwt>
</event>
<event>
 5    1  0.1162308E+001  0.2707656E+03  0.7818608E-02  0.1100842E+00
         -2   -1    0    0    0  501 -0.00000000000E+00  0.00000000000E+00  0.46589118693E+02  0.46589118693E+02  0.00000000000E+00 0.  1.
          2   -1    0    0  501    0  0.00000000000E+00 -0.00000000000E+00 -0.39340743768E+03  0.39340743768E+03  0.00000000000E+00 0.  1.
         35    2    1    2    0    0  0.00000000000E+00  0.00000000000E+00 -0.34681831898E+03  0.43999655637E+03  0.27076562417E+03 0.  0.
         25    1    3    3    0    0  0.54878062286E+02 -0.28815393275E+02 -0.15828896019E+03  0.20808008921E+03  0.12000000000E+03 0.  0.
         25    1    3    3    0    0 -0.54878062286E+02  0.28815393275E+02 -0.18852935880E+03  0.23191646716E+03  0.12000000000E+03 0.  0.
<mgrwt>
<rscale>  0 0.27076562E+03</rscale>
<asrwt>0</asrwt>
<pdfrwt beam="1">  1        2 0.60524226E-01 0.27076562E+03</pdfrwt>
<pdfrwt beam="2">  1       -2 0.71675562E-02 0.27076562E+03</pdfrwt>
<totfact> 0.90617453E+03</totfact>
</mgrwt>
</event>
<event>
 5    1  0.1162308E+001  0.2743430E+03  0.7818608E-02  0.1098819E+00
         -1   -1    0    0    0  501 -0.00000000000E+00  0.00000000000E+00  0.53779811516E+03  0.53779811516E+03  0.00000000000E+00 0.  1.
          1   -1    0    0  501    0  0.00000000000E+00 -0.00000000000E+00 -0.34987132045E+02  0.34987132045E+02  0.00000000000E+00 0.  1.
         35    2    1    2    0    0  0.00000000000E+00  0.00000000000E+00  0.50281098312E+03  0.57278524721E+03  0.27434295084E+03 0.  0.
         25    1    3    3    0    0  0.45151454196E+02  0.41550645155E+02  0.19813871682E+03  0.23963318015E+03  0.12000000000E+03 0.  0.
         25    1    3    3    0    0 -0.45151454196E+02 -0.41550645155E+02  0.30467226630E+03  0.33315206705E+03  0.12000000000E+03 0.  0.
<mgrwt>
<rscale>  0 0.27434295E+03</rscale>
<asrwt>0</asrwt>
<pdfrwt beam="1">  1        1 0.53826361E-02 0.27434295E+03</pdfrwt>
<pdfrwt beam="2">  1       -1 0.82738165E-01 0.27434295E+03</pdfrwt>
<totfact> 0.22795552E+03</totfact>
</mgrwt>
</event>
<event>
 5    1  0.1162308E+001  0.2744596E+03  0.7818608E-02  0.1098754E+00
          4   -1    0    0  501    0  0.00000000000E+00  0.00000000000E+00  0.32920500581E+03  0.32920500581E+03  0.00000000000E+00 0.  1.
         -4   -1    0    0    0  501 -0.00000000000E+00 -0.00000000000E+00 -0.57204522069E+02  0.57204522069E+02  0.00000000000E+00 0.  1.
         35    2    1    2    0    0  0.00000000000E+00  0.00000000000E+00  0.27200048374E+03  0.38640952788E+03  0.27445957823E+03 0.  0.
         25    1    3    3    0    0  0.65942816455E+02  0.58823310057E+01  0.14585127952E+03  0.20013908313E+03  0.12000000000E+03 0.  0.
         25    1    3    3    0    0 -0.65942816455E+02 -0.58823310057E+01  0.12614920422E+03  0.18627044475E+03  0.12000000000E+03 0.  0.
<mgrwt>
<rscale>  0 0.27445958E+03</rscale>
<asrwt>0</asrwt>
<pdfrwt beam="1">  1        4 0.50646923E-01 0.27445958E+03</pdfrwt>
<pdfrwt beam="2">  1       -4 0.88006959E-02 0.27445958E+03</pdfrwt>
<totfact> 0.66639635E+02</totfact>
</mgrwt>
</event>
<event>
 5    1  0.1162308E+001  0.2767361E+03  0.7818608E-02  0.1097485E+00
         -2   -1    0    0    0  501 -0.00000000000E+00  0.00000000000E+00  0.44770106450E+02  0.44770106450E+02  0.00000000000E+00 0.  1.
          2   -1    0    0  501    0  0.00000000000E+00 -0.00000000000E+00 -0.42764505488E+03  0.42764505488E+03  0.00000000000E+00 0.  1.
         35    2    1    2    0    0  0.00000000000E+00  0.00000000000E+00 -0.38287494843E+03  0.47241516133E+03  0.27673608098E+03 0.  0.
         25    1    3    3    0    0  0.59119026101E+01  0.31967117981E+02 -0.29511976002E+03  0.32023822380E+03  0.12000000000E+03 0.  0.
         25    1    3    3    0    0 -0.59119026101E+01 -0.31967117981E+02 -0.87755188407E+02  0.15217693753E+03  0.12000000000E+03 0.  0.
<mgrwt>
<rscale>  0 0.27673608E+03</rscale>
<asrwt>0</asrwt>
<pdfrwt beam="1">  1        2 0.65791547E-01 0.27673608E+03</pdfrwt>
<pdfrwt beam="2">  1       -2 0.68877087E-02 0.27673608E+03</pdfrwt>
<totfact> 0.88081855E+03</totfact>
</mgrwt>
</event>
<event>
 5    1  0.1162308E+001  0.2735091E+03  0.7818608E-02  0.1099288E+00
          2   -1    0    0  501    0  0.00000000000E+00  0.00000000000E+00  0.17082571995E+04  0.17082571995E+04  0.00000000000E+00 0. -1.
         -2   -1    0    0    0  501 -0.00000000000E+00 -0.00000000000E+00 -0.10947889787E+02  0.10947889787E+02  0.00000000000E+00 0. -1.
         35    2    1    2    0    0  0.00000000000E+00  0.00000000000E+00  0.16973093097E+04  0.17192050893E+04  0.27350913365E+03 0.  0.
         25    1    3    3    0    0  0.14556319780E+02  0.48831100423E+02  0.58907228762E+03  0.60332621595E+03  0.12000000000E+03 0.  0.
         25    1    3    3    0    0 -0.14556319780E+02 -0.48831100423E+02  0.11082370221E+04  0.11158788734E+04  0.12000000000E+03 0.  0.
<mgrwt>
<rscale>  0 0.27350913E+03</rscale>
<asrwt>0</asrwt>
<pdfrwt beam="1">  1        2 0.26280859E+00 0.27350913E+03</pdfrwt>
<pdfrwt beam="2">  1       -2 0.16842921E-02 0.27350913E+03</pdfrwt>
<totfact> 0.10527032E+04</totfact>
</mgrwt>
</event>
<event>
 5    1  0.1162308E+001  0.2745726E+03  0.7818608E-02  0.1098691E+00
         -1   -1    0    0    0  501 -0.00000000000E+00  0.00000000000E+00  0.17412783733E+03  0.17412783733E+03  0.00000000000E+00 0.  1.
          1   -1    0    0  501    0  0.00000000000E+00 -0.00000000000E+00 -0.10823959760E+03  0.10823959760E+03  0.00000000000E+00 0.  1.
         35    2    1    2    0    0  0.00000000000E+00  0.00000000000E+00  0.65888239724E+02  0.28236743493E+03  0.27457259181E+03 0.  0.
         25    1    3    3    0    0  0.17249078197E+02 -0.17948882802E+02 -0.30681784812E+02  0.12633710861E+03  0.12000000000E+03 0.  0.
         25    1    3    3    0    0 -0.17249078197E+02  0.17948882802E+02  0.96570024536E+02  0.15603032632E+03  0.12000000000E+03 0.  0.
<mgrwt>
<rscale>  0 0.27457259E+03</rscale>
<asrwt>0</asrwt>
<pdfrwt beam="1">  1        1 0.16652246E-01 0.27457259E+03</pdfrwt>
<pdfrwt beam="2">  1       -1 0.26788898E-01 0.27457259E+03</pdfrwt>
<totfact> 0.39990755E+03</totfact>
</mgrwt>
</event>
<event>
 5    1  0.1162308E+001  0.2744193E+03  0.7818608E-02  0.1098777E+00
         -1   -1    0    0    0  501 -0.00000000000E+00  0.00000000000E+00  0.27540322048E+02  0.27540322048E+02  0.00000000000E+00 0. -1.
          1   -1    0    0  501    0  0.00000000000E+00 -0.00000000000E+00 -0.68359707742E+03  0.68359707742E+03  0.00000000000E+00 0. -1.
         35    2    1    2    0    0  0.00000000000E+00  0.00000000000E+00 -0.65605675537E+03  0.71113739947E+03  0.27441926801E+03 0.  0.
         25    1    3    3    0    0  0.19325455210E+02 -0.36084216647E+02 -0.46394715445E+03  0.48095998381E+03  0.12000000000E+03 0.  0.
         25    1    3    3    0    0 -0.19325455210E+02  0.36084216647E+02 -0.19210960092E+03  0.23017741565E+03  0.12000000000E+03 0.  0.
<mgrwt>
<rscale>  0 0.27441927E+03</rscale>
<asrwt>0</asrwt>
<pdfrwt beam="1">  1        1 0.10516877E+00 0.27441927E+03</pdfrwt>
<pdfrwt beam="2">  1       -1 0.42369729E-02 0.27441927E+03</pdfrwt>
<totfact> 0.65665161E+03</totfact>
</mgrwt>
</event>
<event>
 5    1  0.1162308E+001  0.2746344E+03  0.7818608E-02  0.1098656E+00
         -1   -1    0    0    0  501 -0.00000000000E+00  0.00000000000E+00  0.37898966619E+02  0.37898966619E+02  0.00000000000E+00 0.  1.
          1   -1    0    0  501    0  0.00000000000E+00 -0.00000000000E+00 -0.49753380747E+03  0.49753380747E+03  0.00000000000E+00 0.  1.
         35    2    1    2    0    0  0.00000000000E+00  0.00000000000E+00 -0.45963484085E+03  0.53543277409E+03  0.27463442727E+03 0.  0.
         25    1    3    3    0    0 -0.52769500220E+02 -0.20585837925E+02 -0.16095358831E+03  0.20860118520E+03  0.12000000000E+03 0.  0.
         25    1    3    3    0    0  0.52769500220E+02  0.20585837925E+02 -0.29868125253E+03  0.32683158888E+03  0.12000000000E+03 0.  0.
<mgrwt>
<rscale>  0 0.27463443E+03</rscale>
<asrwt>0</asrwt>
<pdfrwt beam="1">  1        1 0.76543661E-01 0.27463443E+03</pdfrwt>
<pdfrwt beam="2">  1       -1 0.58306104E-02 0.27463443E+03</pdfrwt>
<totfact> 0.63123944E+03</totfact>
</mgrwt>
</event>
<event>
 5    1  0.1162308E+001  0.2741810E+03  0.7818608E-02  0.1098910E+00
          2   -1    0    0  501    0  0.00000000000E+00  0.00000000000E+00  0.29161624918E+03  0.29161624918E+03  0.00000000000E+00 0.  1.
         -2   -1    0    0    0  501 -0.00000000000E+00 -0.00000000000E+00 -0.64447036217E+02  0.64447036217E+02  0.00000000000E+00 0.  1.
         35    2    1    2    0    0  0.00000000000E+00  0.00000000000E+00  0.22716921296E+03  0.35606328540E+03  0.27418098382E+03 0.  0.
         25    1    3    3    0    0  0.32302847031E+02  0.57628053722E+02  0.12061846771E+03  0.18251926269E+03  0.12000000000E+03 0.  0.
         25    1    3    3    0    0 -0.32302847031E+02 -0.57628053722E+02  0.10655074526E+03  0.17354402271E+03  0.12000000000E+03 0.  0.
<mgrwt>
<rscale>  0 0.27418098E+03</rscale>
<asrwt>0</asrwt>
<pdfrwt beam="1">  1        2 0.44864038E-01 0.27418098E+03</pdfrwt>
<pdfrwt beam="2">  1       -2 0.99149288E-02 0.27418098E+03</pdfrwt>
<totfact> 0.75273457E+03</totfact>
</mgrwt>
</event>
<event>
 5    1  0.1162308E+001  0.2747508E+03  0.7818608E-02  0.1098591E+00
          2   -1    0    0  501    0  0.00000000000E+00  0.00000000000E+00  0.52211665365E+03  0.52211665365E+03  0.00000000000E+00 0.  1.
         -2   -1    0    0    0  501 -0.00000000000E+00 -0.00000000000E+00 -0.36145172230E+02  0.36145172230E+02  0.00000000000E+00 0.  1.
         35    2    1    2    0    0  0.00000000000E+00  0.00000000000E+00  0.48597148142E+03  0.55826182588E+03  0.27475076976E+03 0.  0.
         25    1    3    3    0    0 -0.18894341952E+02 -0.50619854977E+02  0.16292251757E+03  0.20943522293E+03  0.12000000000E+03 0.  0.
         25    1    3    3    0    0  0.18894341952E+02  0.50619854977E+02  0.32304896385E+03  0.34882660295E+03  0.12000000000E+03 0.  0.
<mgrwt>
<rscale>  0 0.27475077E+03</rscale>
<asrwt>0</asrwt>
<pdfrwt beam="1">  1        2 0.80325633E-01 0.27475077E+03</pdfrwt>
<pdfrwt beam="2">  1       -2 0.55607961E-02 0.27475077E+03</pdfrwt>
<totfact> 0.98051760E+03</totfact>
</mgrwt>
</event>
<event>
 5    1  0.1162308E+001  0.2734996E+03  0.7818608E-02  0.1099293E+00
          2   -1    0    0  501    0  0.00000000000E+00  0.00000000000E+00  0.58900347799E+03  0.58900347799E+03  0.00000000000E+00 0.  1.
         -2   -1    0    0    0  501 -0.00000000000E+00 -0.00000000000E+00 -0.31749397708E+02  0.31749397708E+02  0.00000000000E+00 0.  1.
         35    2    1    2    0    0  0.00000000000E+00  0.00000000000E+00  0.55725408029E+03  0.62075287570E+03  0.27349958445E+03 0.  0.
         25    1    3    3    0    0  0.25642361950E+02  0.44989884485E+02  0.36994792296E+03  0.39235581573E+03  0.12000000000E+03 0.  0.
         25    1    3    3    0    0 -0.25642361950E+02 -0.44989884485E+02  0.18730615732E+03  0.22839705997E+03  0.12000000000E+03 0.  0.
<mgrwt>
<rscale>  0 0.27349958E+03</rscale>
<asrwt>0</asrwt>
<pdfrwt beam="1">  1        2 0.90615911E-01 0.27349958E+03</pdfrwt>
<pdfrwt beam="2">  1       -2 0.48845232E-02 0.27349958E+03</pdfrwt>
<totfact> 0.10408799E+04</totfact>
</mgrwt>
</event>
<event>
 5    1  0.1162308E+001  0.2741740E+03  0.7818608E-02  0.1098914E+00
         -3   -1    0    0    0  501 -0.00000000000E+00  0.00000000000E+00  0.62941958212E+02  0.62941958212E+02  0.00000000000E+00 0.  1.
          3   -1    0    0  501    0  0.00000000000E+00 -0.00000000000E+00 -0.29857424976E+03  0.29857424976E+03  0.00000000000E+00 0.  1.
         35    2    1    2    0    0  0.00000000000E+00  0.00000000000E+00 -0.23563229155E+03  0.36151620797E+03  0.27417401738E+03 0.  0.
         25    1    3    3    0    0 -0.48048317578E+02  0.22731508735E+02 -0.65612208072E+02  0.14673215108E+03  0.12000000000E+03 0.  0.
         25    1    3    3    0    0  0.48048317578E+02 -0.22731508735E+02 -0.17002008347E+03  0.21478405689E+03  0.12000000000E+03 0.  0.
<mgrwt>
<rscale>  0 0.27417402E+03</rscale>
<asrwt>0</asrwt>
<pdfrwt beam="1">  1        3 0.45934500E-01 0.27417402E+03</pdfrwt>
<pdfrwt beam="2">  1       -3 0.96833782E-02 0.27417402E+03</pdfrwt>
<totfact> 0.93677014E+02</totfact>
</mgrwt>
</event>
<event>
 5    1  0.1162308E+001  0.2730033E+03  0.7818608E-02  0.1099573E+00
         -1   -1    0    0    0  501 -0.00000000000E+00  0.00000000000E+00  0.24362665538E+02  0.24362665538E+02  0.00000000000E+00 0.  1.
          1   -1    0    0  501    0  0.00000000000E+00 -0.00000000000E+00 -0.76480539037E+03  0.76480539037E+03  0.00000000000E+00 0.  1.
         35    2    1    2    0    0  0.00000000000E+00  0.00000000000E+00 -0.74044272483E+03  0.78916805590E+03  0.27300328150E+03 0.  0.
         25    1    3    3    0    0  0.58056219732E+02  0.23898708760E+02 -0.41953497027E+03  0.44085288273E+03  0.12000000000E+03 0.  0.
         25    1    3    3    0    0 -0.58056219732E+02 -0.23898708760E+02 -0.32090775456E+03  0.34831517318E+03  0.12000000000E+03 0.  0.
<mgrwt>
<rscale>  0 0.27300328E+03</rscale>
<asrwt>0</asrwt>
<pdfrwt beam="1">  1        1 0.11766238E+00 0.27300328E+03</pdfrwt>
<pdfrwt beam="2">  1       -1 0.37481021E-02 0.27300328E+03</pdfrwt>
<totfact> 0.66745770E+03</totfact>
</mgrwt>
</event>
<event>
 5    1  0.1162308E+001  0.2748594E+03  0.7818608E-02  0.1098530E+00
          1   -1    0    0  501    0  0.00000000000E+00  0.00000000000E+00  0.37023408366E+03  0.37023408366E+03  0.00000000000E+00 0.  1.
         -1   -1    0    0    0  501 -0.00000000000E+00 -0.00000000000E+00 -0.51013448333E+02  0.51013448333E+02  0.00000000000E+00 0.  1.
         35    2    1    2    0    0  0.00000000000E+00  0.00000000000E+00  0.31922063533E+03  0.42124753200E+03  0.27485936257E+03 0.  0.
         25    1    3    3    0    0  0.16388871738E+01 -0.61936006386E+02  0.12059197923E+03  0.18105573808E+03  0.12000000000E+03 0.  0.
         25    1    3    3    0    0 -0.16388871738E+01  0.61936006386E+02  0.19862865610E+03  0.24019179391E+03  0.12000000000E+03 0.  0.
<mgrwt>
<rscale>  0 0.27485936E+03</rscale>
<asrwt>0</asrwt>
<pdfrwt beam="1">  1        1 0.56959088E-01 0.27485936E+03</pdfrwt>
<pdfrwt beam="2">  1       -1 0.78482231E-02 0.27485936E+03</pdfrwt>
<totfact> 0.59009943E+03</totfact>
</mgrwt>
</event>
<event>
 5    1  0.1162308E+001  0.2748938E+03  0.7818608E-02  0.1098511E+00
         -1   -1    0    0    0  501 -0.00000000000E+00  0.00000000000E+00  0.30498126000E+02  0.30498126000E+02  0.00000000000E+00 0. -1.
          1   -1    0    0  501    0  0.00000000000E+00 -0.00000000000E+00 -0.61943660961E+03  0.61943660961E+03  0.00000000000E+00 0. -1.
         35    2    1    2    0    0  0.00000000000E+00  0.00000000000E+00 -0.58893848361E+03  0.64993473561E+03  0.27489383965E+03 0.  0.
         25    1    3    3    0    0  0.63461907658E+02 -0.19257009575E+02 -0.27161848643E+03  0.30426115150E+03  0.12000000000E+03 0.  0.
         25    1    3    3    0    0 -0.63461907658E+02  0.19257009575E+02 -0.31731999718E+03  0.34567358411E+03  0.12000000000E+03 0.  0.
<mgrwt>
<rscale>  0 0.27489384E+03</rscale>
<asrwt>0</asrwt>
<pdfrwt beam="1">  1        1 0.95297932E-01 0.27489384E+03</pdfrwt>
<pdfrwt beam="2">  1       -1 0.46920198E-02 0.27489384E+03</pdfrwt>
<totfact> 0.64891095E+03</totfact>
</mgrwt>
</event>
<event>
 5    1  0.1162308E+001  0.2747172E+03  0.7818608E-02  0.1098610E+00
          2   -1    0    0  501    0  0.00000000000E+00  0.00000000000E+00  0.36274641547E+04  0.36274641547E+04  0.00000000000E+00 0.  1.
         -2   -1    0    0    0  501 -0.00000000000E+00 -0.00000000000E+00 -0.52012609262E+01  0.52012609262E+01  0.00000000000E+00 0.  1.
         35    2    1    2    0    0  0.00000000000E+00  0.00000000000E+00  0.36222628938E+04  0.36326654156E+04  0.27471721875E+03 0.  0.
         25    1    3    3    0    0 -0.29566169334E+02  0.27409105338E+02  0.25160667717E+04  0.25192493757E+04  0.12000000000E+03 0.  0.
         25    1    3    3    0    0  0.29566169334E+02 -0.27409105338E+02  0.11061961221E+04  0.11134160400E+04  0.12000000000E+03 0.  0.
<mgrwt>
<rscale>  0 0.27471722E+03</rscale>
<asrwt>0</asrwt>
<pdfrwt beam="1">  1        2 0.55806939E+00 0.27471722E+03</pdfrwt>
<pdfrwt beam="2">  1       -2 0.80019689E-03 0.27471722E+03</pdfrwt>
<totfact> 0.24520394E+03</totfact>
</mgrwt>
</event>
<event>
 5    1  0.1162308E+001  0.2751390E+03  0.7818608E-02  0.1098374E+00
          2   -1    0    0  501    0  0.00000000000E+00  0.00000000000E+00  0.16585475097E+03  0.16585475097E+03  0.00000000000E+00 0. -1.
         -2   -1    0    0    0  501 -0.00000000000E+00 -0.00000000000E+00 -0.11410810301E+03  0.11410810301E+03  0.00000000000E+00 0. -1.
         35    2    1    2    0    0  0.00000000000E+00  0.00000000000E+00  0.51746647959E+02  0.27996285397E+03  0.27513902673E+03 0.  0.
         25    1    3    3    0    0  0.27782771468E+02  0.60175409925E+02  0.14164685234E+02  0.13781727271E+03  0.12000000000E+03 0.  0.
         25    1    3    3    0    0 -0.27782771468E+02 -0.60175409925E+02  0.37581962725E+02  0.14214558126E+03  0.12000000000E+03 0.  0.
<mgrwt>
<rscale>  0 0.27513903E+03</rscale>
<asrwt>0</asrwt>
<pdfrwt beam="1">  1        2 0.25516115E-01 0.27513903E+03</pdfrwt>
<pdfrwt beam="2">  1       -2 0.17555093E-01 0.27513903E+03</pdfrwt>
<totfact> 0.54836125E+03</totfact>
</mgrwt>
</event>
<event>
 5    1  0.1162308E+001  0.2754974E+03  0.7818608E-02  0.1098174E+00
         -1   -1    0    0    0  501 -0.00000000000E+00  0.00000000000E+00  0.96310222582E+02  0.96310222582E+02  0.00000000000E+00 0.  1.
          1   -1    0    0  501    0  0.00000000000E+00 -0.00000000000E+00 -0.19701646870E+03  0.19701646870E+03  0.00000000000E+00 0.  1.
         35    2    1    2    0    0  0.00000000000E+00  0.00000000000E+00 -0.10070624612E+03  0.29332669129E+03  0.27549736807E+03 0.  0.
         25    1    3    3    0    0 -0.51146955745E+02  0.15321736497E+02 -0.61457861128E+01  0.13148588281E+03  0.12000000000E+03 0.  0.
         25    1    3    3    0    0  0.51146955745E+02 -0.15321736497E+02 -0.94560460009E+02  0.16184080848E+03  0.12000000000E+03 0.  0.
<mgrwt>
<rscale>  0 0.27549737E+03</rscale>
<asrwt>0</asrwt>
<pdfrwt beam="1">  1        1 0.30310226E-01 0.27549737E+03</pdfrwt>
<pdfrwt beam="2">  1       -1 0.14816957E-01 0.27549737E+03</pdfrwt>
<totfact> 0.48674260E+03</totfact>
</mgrwt>
</event>
<event>
 5    1  0.1162308E+001  0.2736726E+03  0.7818608E-02  0.1099196E+00
         -2   -1    0    0    0  501 -0.00000000000E+00  0.00000000000E+00  0.67562632788E+02  0.67562632788E+02  0.00000000000E+00 0.  1.
          2   -1    0    0  501    0  0.00000000000E+00 -0.00000000000E+00 -0.27713809307E+03  0.27713809307E+03  0.00000000000E+00 0.  1.
         35    2    1    2    0    0  0.00000000000E+00  0.00000000000E+00 -0.20957546028E+03  0.34470072585E+03  0.27367264542E+03 0.  0.
         25    1    3    3    0    0 -0.45590321656E+02  0.16066689065E+02 -0.48634946435E+02  0.13820989089E+03  0.12000000000E+03 0.  0.
         25    1    3    3    0    0  0.45590321656E+02 -0.16066689065E+02 -0.16094051384E+03  0.20649083496E+03  0.12000000000E+03 0.  0.
<mgrwt>
<rscale>  0 0.27367265E+03</rscale>
<asrwt>0</asrwt>
<pdfrwt beam="1">  1        2 0.42636629E-01 0.27367265E+03</pdfrwt>
<pdfrwt beam="2">  1       -2 0.10394251E-01 0.27367265E+03</pdfrwt>
<totfact> 0.73751189E+03</totfact>
</mgrwt>
</event>
<event>
 5    1  0.1162308E+001  0.2753498E+03  0.7818608E-02  0.1098256E+00
         -2   -1    0    0    0  501 -0.00000000000E+00  0.00000000000E+00  0.80894894539E+01  0.80894894539E+01  0.00000000000E+00 0.  1.
          2   -1    0    0  501    0  0.00000000000E+00 -0.00000000000E+00 -0.23430864948E+04  0.23430864948E+04  0.00000000000E+00 0.  1.
         35    2    1    2    0    0  0.00000000000E+00  0.00000000000E+00 -0.23349970054E+04  0.23511759843E+04  0.27534976658E+03 0.  0.
         25    1    3    3    0    0  0.40162190421E+01  0.57589012492E+02 -0.14659621492E+04  0.14719978422E+04  0.12000000000E+03 0.  0.
         25    1    3    3    0    0 -0.40162190421E+01 -0.57589012492E+02 -0.86903485612E+03  0.87917814209E+03  0.12000000000E+03 0.  0.
<mgrwt>
<rscale>  0 0.27534977E+03</rscale>
<asrwt>0</asrwt>
<pdfrwt beam="1">  1        2 0.36047518E+00 0.27534977E+03</pdfrwt>
<pdfrwt beam="2">  1       -2 0.12445357E-02 0.27534977E+03</pdfrwt>
<totfact> 0.75663713E+03</totfact>
</mgrwt>
</event>
<event>
 5    1  0.1162308E+001  0.2751492E+03  0.7818608E-02  0.1098368E+00
          2   -1    0    0  501    0  0.00000000000E+00  0.00000000000E+00  0.13075351679E+04  0.13075351679E+04  0.00000000000E+00 0. -1.
         -2   -1    0    0    0  501 -0.00000000000E+00 -0.00000000000E+00 -0.14475154600E+02  0.14475154600E+02  0.00000000000E+00 0. -1.
         35    2    1    2    0    0  0.00000000000E+00  0.00000000000E+00  0.12930600133E+04  0.13220103225E+04  0.27514922278E+03 0.  0.
         25    1    3    3    0    0 -0.44983853545E+02  0.12349278759E+02  0.41357760852E+03  0.43315411811E+03  0.12000000000E+03 0.  0.
         25    1    3    3    0    0  0.44983853545E+02 -0.12349278759E+02  0.87948240475E+03  0.88885620436E+03  0.12000000000E+03 0.  0.
<mgrwt>
<rscale>  0 0.27514922E+03</rscale>
<asrwt>0</asrwt>
<pdfrwt beam="1">  1        2 0.20115916E+00 0.27514922E+03</pdfrwt>
<pdfrwt beam="2">  1       -2 0.22269479E-02 0.27514922E+03</pdfrwt>
<totfact> 0.11454091E+04</totfact>
</mgrwt>
</event>
<event>
 5    1  0.1162308E+001  0.2752371E+03  0.7818608E-02  0.1098319E+00
          2   -1    0    0  501    0  0.00000000000E+00  0.00000000000E+00  0.28768974678E+03  0.28768974678E+03  0.00000000000E+00 0. -1.
         -2   -1    0    0    0  501 -0.00000000000E+00 -0.00000000000E+00 -0.65830874787E+02  0.65830874787E+02  0.00000000000E+00 0. -1.
         35    2    1    2    0    0  0.00000000000E+00  0.00000000000E+00  0.22185887200E+03  0.35352062157E+03  0.27523711740E+03 0.  0.
         25    1    3    3    0    0  0.59881156038E+02 -0.20737107047E+02  0.81553290210E+02  0.15832472833E+03  0.12000000000E+03 0.  0.
         25    1    3    3    0    0 -0.59881156038E+02  0.20737107047E+02  0.14030558179E+03  0.19519589324E+03  0.12000000000E+03 0.  0.
<mgrwt>
<rscale>  0 0.27523712E+03</rscale>
<asrwt>0</asrwt>
<pdfrwt beam="1">  1        2 0.44259960E-01 0.27523712E+03</pdfrwt>
<pdfrwt beam="2">  1       -2 0.10127827E-01 0.27523712E+03</pdfrwt>
<totfact> 0.73853269E+03</totfact>
</mgrwt>
</event>
<event>
 5    1  0.1162308E+001  0.2744361E+03  0.7818608E-02  0.1098767E+00
          2   -1    0    0  501    0  0.00000000000E+00  0.00000000000E+00  0.76816201927E+02  0.76816201927E+02  0.00000000000E+00 0.  1.
         -2   -1    0    0    0  501 -0.00000000000E+00 -0.00000000000E+00 -0.24511484889E+03  0.24511484889E+03  0.00000000000E+00 0.  1.
         35    2    1    2    0    0  0.00000000000E+00  0.00000000000E+00 -0.16829864696E+03  0.32193105082E+03  0.27443608894E+03 0.  0.
         25    1    3    3    0    0 -0.25891754324E+02  0.56699223855E+02 -0.11149974891E+03  0.17526374107E+03  0.12000000000E+03 0.  0.
         25    1    3    3    0    0  0.25891754324E+02 -0.56699223855E+02 -0.56798898056E+02  0.14666730975E+03  0.12000000000E+03 0.  0.
<mgrwt>
<rscale>  0 0.27443609E+03</rscale>
<asrwt>0</asrwt>
<pdfrwt beam="1">  1        2 0.11817877E-01 0.27443609E+03</pdfrwt>
<pdfrwt beam="2">  1       -2 0.37709977E-01 0.27443609E+03</pdfrwt>
<totfact> 0.34563020E+03</totfact>
</mgrwt>
</event>
<event>
 5    1  0.1162308E+001  0.2742902E+03  0.7818608E-02  0.1098849E+00
          2   -1    0    0  501    0  0.00000000000E+00  0.00000000000E+00  0.15421285694E+04  0.15421285694E+04  0.00000000000E+00 0. -1.
         -2   -1    0    0    0  501 -0.00000000000E+00 -0.00000000000E+00 -0.12196634828E+02  0.12196634828E+02  0.00000000000E+00 0. -1.
         35    2    1    2    0    0  0.00000000000E+00  0.00000000000E+00  0.15299319346E+04  0.15543252043E+04  0.27429020412E+03 0.  0.
         25    1    3    3    0    0  0.10828984896E+01 -0.66329320464E+02  0.78102148715E+03  0.79296614985E+03  0.12000000000E+03 0.  0.
         25    1    3    3    0    0 -0.10828984896E+01  0.66329320464E+02  0.74891044747E+03  0.76135905442E+03  0.12000000000E+03 0.  0.
<mgrwt>
<rscale>  0 0.27429020E+03</rscale>
<asrwt>0</asrwt>
<pdfrwt beam="1">  1        2 0.23725039E+00 0.27429020E+03</pdfrwt>
<pdfrwt beam="2">  1       -2 0.18764066E-02 0.27429020E+03</pdfrwt>
<totfact> 0.11000037E+04</totfact>
</mgrwt>
</event>
<event>
 5    1  0.1162308E+001  0.2751369E+03  0.7818608E-02  0.1098375E+00
          2   -1    0    0  501    0  0.00000000000E+00  0.00000000000E+00  0.10148246133E+03  0.10148246133E+03  0.00000000000E+00 0. -1.
         -2   -1    0    0    0  501 -0.00000000000E+00 -0.00000000000E+00 -0.18648619072E+03  0.18648619072E+03  0.00000000000E+00 0. -1.
         35    2    1    2    0    0  0.00000000000E+00  0.00000000000E+00 -0.85003729389E+02  0.28796865205E+03  0.27513689421E+03 0.  0.
         25    1    3    3    0    0 -0.29980741408E+02  0.14117415430E+02  0.18768305421E+02  0.12589835409E+03  0.12000000000E+03 0.  0.
         25    1    3    3    0    0  0.29980741408E+02 -0.14117415430E+02 -0.10377203481E+03  0.16207029796E+03  0.12000000000E+03 0.  0.
<mgrwt>
<rscale>  0 0.27513689E+03</rscale>
<asrwt>0</asrwt>
<pdfrwt beam="1">  1        2 0.15612686E-01 0.27513689E+03</pdfrwt>
<pdfrwt beam="2">  1       -2 0.28690183E-01 0.27513689E+03</pdfrwt>
<totfact> 0.40983138E+03</totfact>
</mgrwt>
</event>
<event>
 5    1  0.1162308E+001  0.2750300E+03  0.7818608E-02  0.1098435E+00
          2   -1    0    0  501    0  0.00000000000E+00  0.00000000000E+00  0.35932569866E+02  0.35932569866E+02  0.00000000000E+00 0.  1.
         -2   -1    0    0    0  501 -0.00000000000E+00 -0.00000000000E+00 -0.52627409397E+03  0.52627409397E+03  0.00000000000E+00 0.  1.
         35    2    1    2    0    0  0.00000000000E+00  0.00000000000E+00 -0.49034152411E+03  0.56220666384E+03  0.27503003945E+03 0.  0.
         25    1    3    3    0    0  0.50373610316E+02 -0.25075770900E+02 -0.17022806027E+03  0.21574032402E+03  0.12000000000E+03 0.  0.
         25    1    3    3    0    0 -0.50373610316E+02  0.25075770900E+02 -0.32011346383E+03  0.34646633982E+03  0.12000000000E+03 0.  0.
<mgrwt>
<rscale>  0 0.27503004E+03</rscale>
<asrwt>0</asrwt>
<pdfrwt beam="1">  1        2 0.55280878E-02 0.27503004E+03</pdfrwt>
<pdfrwt beam="2">  1       -2 0.80965244E-01 0.27503004E+03</pdfrwt>
<totfact> 0.19052823E+03</totfact>
</mgrwt>
</event>
<event>
 5    1  0.1162308E+001  0.2753566E+03  0.7818608E-02  0.1098252E+00
         -3   -1    0    0    0  501 -0.00000000000E+00  0.00000000000E+00  0.32572152348E+03  0.32572152348E+03  0.00000000000E+00 0. -1.
          3   -1    0    0  501    0  0.00000000000E+00 -0.00000000000E+00 -0.58194858445E+02  0.58194858445E+02  0.00000000000E+00 0. -1.
         35    2    1    2    0    0  0.00000000000E+00  0.00000000000E+00  0.26752666504E+03  0.38391638193E+03  0.27535662659E+03 0.  0.
         25    1    3    3    0    0  0.24148555937E+02 -0.62528220943E+02  0.12275079478E+03  0.18428426083E+03  0.12000000000E+03 0.  0.
         25    1    3    3    0    0 -0.24148555937E+02  0.62528220943E+02  0.14477587026E+03  0.19963212110E+03  0.12000000000E+03 0.  0.
<mgrwt>
<rscale>  0 0.27535663E+03</rscale>
<asrwt>0</asrwt>
<pdfrwt beam="1">  1        3 0.89530554E-02 0.27535663E+03</pdfrwt>
<pdfrwt beam="2">  1       -3 0.50111002E-01 0.27535663E+03</pdfrwt>
<totfact> 0.89635012E+02</totfact>
</mgrwt>
</event>
<event>
 5    1  0.1162308E+001  0.2754462E+03  0.7818608E-02  0.1098202E+00
          2   -1    0    0  501    0  0.00000000000E+00  0.00000000000E+00  0.34270157176E+03  0.34270157176E+03  0.00000000000E+00 0. -1.
         -2   -1    0    0    0  501 -0.00000000000E+00 -0.00000000000E+00 -0.55347452894E+02  0.55347452894E+02  0.00000000000E+00 0. -1.
         35    2    1    2    0    0  0.00000000000E+00  0.00000000000E+00  0.28735411886E+03  0.39804902465E+03  0.27544624956E+03 0.  0.
         25    1    3    3    0    0 -0.15175632432E+02 -0.15982329343E+02  0.51349324607E+02  0.13237253419E+03  0.12000000000E+03 0.  0.
         25    1    3    3    0    0  0.15175632432E+02  0.15982329343E+02  0.23600479426E+03  0.26567649046E+03  0.12000000000E+03 0.  0.
<mgrwt>
<rscale>  0 0.27544625E+03</rscale>
<asrwt>0</asrwt>
<pdfrwt beam="1">  1        2 0.52723318E-01 0.27544625E+03</pdfrwt>
<pdfrwt beam="2">  1       -2 0.85149929E-02 0.27544625E+03</pdfrwt>
<totfact> 0.80468570E+03</totfact>
</mgrwt>
</event>
<event>
 5    1  0.1162308E+001  0.2749849E+03  0.7818608E-02  0.1098460E+00
          2   -1    0    0  501    0  0.00000000000E+00  0.00000000000E+00  0.24440297518E+04  0.24440297518E+04  0.00000000000E+00 0. -1.
         -2   -1    0    0    0  501 -0.00000000000E+00 -0.00000000000E+00 -0.77348386494E+01  0.77348386494E+01  0.00000000000E+00 0. -1.
         35    2    1    2    0    0  0.00000000000E+00  0.00000000000E+00  0.24362949131E+04  0.24517645904E+04  0.27498491438E+03 0.  0.
         25    1    3    3    0    0  0.65959235969E+02 -0.51446046133E+01  0.11176344641E+04  0.11260035005E+04  0.12000000000E+03 0.  0.
         25    1    3    3    0    0 -0.65959235969E+02  0.51446046133E+01  0.13186604490E+04  0.13257610899E+04  0.12000000000E+03 0.  0.
<mgrwt>
<rscale>  0 0.27498491E+03</rscale>
<asrwt>0</asrwt>
<pdfrwt beam="1">  1        2 0.37600396E+00 0.27498491E+03</pdfrwt>
<pdfrwt beam="2">  1       -2 0.11899771E-02 0.27498491E+03</pdfrwt>
<totfact> 0.71221069E+03</totfact>
</mgrwt>
</event>
<event>
 5    1  0.1162308E+001  0.2752165E+03  0.7818608E-02  0.1098331E+00
         -1   -1    0    0    0  501 -0.00000000000E+00  0.00000000000E+00  0.23809687112E+03  0.23809687112E+03  0.00000000000E+00 0.  1.
          1   -1    0    0  501    0  0.00000000000E+00 -0.00000000000E+00 -0.79530791533E+02  0.79530791533E+02  0.00000000000E+00 0.  1.
         35    2    1    2    0    0  0.00000000000E+00  0.00000000000E+00  0.15856607959E+03  0.31762766266E+03  0.27521651565E+03 0.  0.
         25    1    3    3    0    0  0.43754573558E+01  0.58099739142E+02  0.40293750793E+02  0.13934959874E+03  0.12000000000E+03 0.  0.
         25    1    3    3    0    0 -0.43754573558E+01 -0.58099739142E+02  0.11827232880E+03  0.17827806392E+03  0.12000000000E+03 0.  0.
<mgrwt>
<rscale>  0 0.27521652E+03</rscale>
<asrwt>0</asrwt>
<pdfrwt beam="1">  1        1 0.12235507E-01 0.27521652E+03</pdfrwt>
<pdfrwt beam="2">  1       -1 0.36630288E-01 0.27521652E+03</pdfrwt>
<totfact> 0.35120125E+03</totfact>
</mgrwt>
</event>
<event>
 5    1  0.1162308E+001  0.2756585E+03  0.7818608E-02  0.1098084E+00
         -2   -1    0    0    0  501 -0.00000000000E+00  0.00000000000E+00  0.14881340976E+02  0.14881340976E+02  0.00000000000E+00 0.  1.
          2   -1    0    0  501    0  0.00000000000E+00 -0.00000000000E+00 -0.12765584327E+04  0.12765584327E+04  0.00000000000E+00 0.  1.
         35    2    1    2    0    0  0.00000000000E+00  0.00000000000E+00 -0.12616770917E+04  0.12914397737E+04  0.27565849389E+03 0.  0.
         25    1    3    3    0    0  0.21492480208E+02  0.45008450025E+02 -0.84599932330E+03  0.85592204218E+03  0.12000000000E+03 0.  0.
         25    1    3    3    0    0 -0.21492480208E+02 -0.45008450025E+02 -0.41567776844E+03  0.43551773151E+03  0.12000000000E+03 0.  0.
<mgrwt>
<rscale>  0 0.27565849E+03</rscale>
<asrwt>0</asrwt>
<pdfrwt beam="1">  1        2 0.19639370E+00 0.27565849E+03</pdfrwt>
<pdfrwt beam="2">  1       -2 0.22894360E-02 0.27565849E+03</pdfrwt>
<totfact> 0.11440115E+04</totfact>
</mgrwt>
</event>
<event>
 5    1  0.1162308E+001  0.2753154E+03  0.7818608E-02  0.1098275E+00
         -2   -1    0    0    0  501 -0.00000000000E+00  0.00000000000E+00  0.26212545982E+02  0.26212545982E+02  0.00000000000E+00 0. -1.
          2   -1    0    0  501    0  0.00000000000E+00 -0.00000000000E+00 -0.72292238564E+03  0.72292238564E+03  0.00000000000E+00 0. -1.
         35    2    1    2    0    0  0.00000000000E+00  0.00000000000E+00 -0.69670983966E+03  0.74913493162E+03  0.27531535573E+03 0.  0.
         25    1    3    3    0    0 -0.66530909478E+02  0.46745737130E+01 -0.37575786485E+03  0.40005272971E+03  0.12000000000E+03 0.  0.
         25    1    3    3    0    0  0.66530909478E+02 -0.46745737130E+01 -0.32095197481E+03  0.34908220191E+03  0.12000000000E+03 0.  0.
<mgrwt>
<rscale>  0 0.27531536E+03</rscale>
<asrwt>0</asrwt>
<pdfrwt beam="1">  1        2 0.11121881E+00 0.27531536E+03</pdfrwt>
<pdfrwt beam="2">  1       -2 0.40327001E-02 0.27531536E+03</pdfrwt>
<totfact> 0.10901469E+04</totfact>
</mgrwt>
</event>
<event>
 5    1  0.1162308E+001  0.2722296E+03  0.7818608E-02  0.1100010E+00
         -2   -1    0    0    0  501 -0.00000000000E+00  0.00000000000E+00  0.49145861750E+02  0.49145861750E+02  0.00000000000E+00 0. -1.
          2   -1    0    0  501    0  0.00000000000E+00 -0.00000000000E+00 -0.37698474767E+03  0.37698474767E+03  0.00000000000E+00 0. -1.
         35    2    1    2    0    0  0.00000000000E+00  0.00000000000E+00 -0.32783888592E+03  0.42613060942E+03  0.27222961111E+03 0.  0.
         25    1    3    3    0    0  0.12837659805E+02  0.59317728750E+02 -0.13094165758E+03  0.18769420914E+03  0.12000000000E+03 0.  0.
         25    1    3    3    0    0 -0.12837659805E+02 -0.59317728750E+02 -0.19689722834E+03  0.23843640029E+03  0.12000000000E+03 0.  0.
<mgrwt>
<rscale>  0 0.27222961E+03</rscale>
<asrwt>0</asrwt>
<pdfrwt beam="1">  1        2 0.57997654E-01 0.27222961E+03</pdfrwt>
<pdfrwt beam="2">  1       -2 0.75609018E-02 0.27222961E+03</pdfrwt>
<totfact> 0.87363035E+03</totfact>
</mgrwt>
</event>
<event>
 5    1  0.1162308E+001  0.2762527E+03  0.7818608E-02  0.1097753E+00
         -2   -1    0    0    0  501 -0.00000000000E+00  0.00000000000E+00  0.28957592145E+03  0.28957592145E+03  0.00000000000E+00 0.  1.
          2   -1    0    0  501    0  0.00000000000E+00 -0.00000000000E+00 -0.65885617290E+02  0.65885617290E+02  0.00000000000E+00 0.  1.
         35    2    1    2    0    0  0.00000000000E+00  0.00000000000E+00  0.22369030416E+03  0.35546153874E+03  0.27625269836E+03 0.  0.
         25    1    3    3    0    0 -0.25099304461E+01 -0.67788212291E+02  0.12316152977E+03  0.18485211357E+03  0.12000000000E+03 0.  0.
         25    1    3    3    0    0  0.25099304461E+01  0.67788212291E+02  0.10052877439E+03  0.17060942517E+03  0.12000000000E+03 0.  0.
<mgrwt>
<rscale>  0 0.27625270E+03</rscale>
<asrwt>0</asrwt>
<pdfrwt beam="1">  1        2 0.10136249E-01 0.27625270E+03</pdfrwt>
<pdfrwt beam="2">  1       -2 0.44550141E-01 0.27625270E+03</pdfrwt>
<totfact> 0.30323001E+03</totfact>
</mgrwt>
</event>
<event>
 5    1  0.1162308E+001  0.2757872E+03  0.7818608E-02  0.1098012E+00
         -4   -1    0    0    0  501 -0.00000000000E+00  0.00000000000E+00  0.15093905179E+04  0.15093905179E+04  0.00000000000E+00 0. -1.
          4   -1    0    0  501    0  0.00000000000E+00 -0.00000000000E+00 -0.12597565610E+02  0.12597565610E+02  0.00000000000E+00 0. -1.
         35    2    1    2    0    0  0.00000000000E+00  0.00000000000E+00  0.14967929523E+04  0.15219880835E+04  0.27578720841E+03 0.  0.
         25    1    3    3    0    0 -0.48111693556E+02  0.23472315150E+02  0.97919193062E+03  0.98796888697E+03  0.12000000000E+03 0.  0.
         25    1    3    3    0    0  0.48111693556E+02 -0.23472315150E+02  0.51760102164E+03  0.53401919651E+03  0.12000000000E+03 0.  0.
<mgrwt>
<rscale>  0 0.27578721E+03</rscale>
<asrwt>0</asrwt>
<pdfrwt beam="1">  1        4 0.19380882E-02 0.27578721E+03</pdfrwt>
<pdfrwt beam="2">  1       -4 0.23221378E+00 0.27578721E+03</pdfrwt>
<totfact> 0.18206382E+02</totfact>
</mgrwt>
</event>
<event>
 5    1  0.1162308E+001  0.2747374E+03  0.7818608E-02  0.1098598E+00
         -3   -1    0    0    0  501 -0.00000000000E+00  0.00000000000E+00  0.40392239214E+03  0.40392239214E+03  0.00000000000E+00 0.  1.
          3   -1    0    0  501    0  0.00000000000E+00 -0.00000000000E+00 -0.46717281022E+02  0.46717281022E+02  0.00000000000E+00 0.  1.
         35    2    1    2    0    0  0.00000000000E+00  0.00000000000E+00  0.35720511112E+03  0.45063967316E+03  0.27473737208E+03 0.  0.
         25    1    3    3    0    0  0.29784272240E+01  0.18619912748E+02  0.28381682292E+03  0.30871922705E+03  0.12000000000E+03 0.  0.
         25    1    3    3    0    0 -0.29784272240E+01 -0.18619912748E+02  0.73388288202E+02  0.14192044611E+03  0.12000000000E+03 0.  0.
<mgrwt>
<rscale>  0 0.27473737E+03</rscale>
<asrwt>0</asrwt>
<pdfrwt beam="1">  1        3 0.71872743E-02 0.27473737E+03</pdfrwt>
<pdfrwt beam="2">  1       -3 0.62141904E-01 0.27473737E+03</pdfrwt>
<totfact> 0.82620360E+02</totfact>
</mgrwt>
</event>
<event>
 5    1  0.1162308E+001  0.2744684E+03  0.7818608E-02  0.1098749E+00
         -1   -1    0    0    0  501 -0.00000000000E+00  0.00000000000E+00  0.35214879735E+02  0.35214879735E+02  0.00000000000E+00 0. -1.
          1   -1    0    0  501    0  0.00000000000E+00 -0.00000000000E+00 -0.53480893318E+03  0.53480893318E+03  0.00000000000E+00 0. -1.
         35    2    1    2    0    0  0.00000000000E+00  0.00000000000E+00 -0.49959405345E+03  0.57002381291E+03  0.27446844819E+03 0.  0.
         25    1    3    3    0    0  0.43797244029E+02 -0.50136824077E+02 -0.24739961682E+03  0.28291071050E+03  0.12000000000E+03 0.  0.
         25    1    3    3    0    0 -0.43797244029E+02  0.50136824077E+02 -0.25219443662E+03  0.28711310241E+03  0.12000000000E+03 0.  0.
<mgrwt>
<rscale>  0 0.27446845E+03</rscale>
<asrwt>0</asrwt>
<pdfrwt beam="1">  1        1 0.82278294E-01 0.27446845E+03</pdfrwt>
<pdfrwt beam="2">  1       -1 0.54176740E-02 0.27446845E+03</pdfrwt>
<totfact> 0.64005532E+03</totfact>
</mgrwt>
</event>
<event>
 5    1  0.1162308E+001  0.2754297E+03  0.7818608E-02  0.1098212E+00
         -1   -1    0    0    0  501 -0.00000000000E+00  0.00000000000E+00  0.75323367715E+02  0.75323367715E+02  0.00000000000E+00 0. -1.
          1   -1    0    0  501    0  0.00000000000E+00 -0.00000000000E+00 -0.25178616733E+03  0.25178616733E+03  0.00000000000E+00 0. -1.
         35    2    1    2    0    0  0.00000000000E+00  0.00000000000E+00 -0.17646279961E+03  0.32710953504E+03  0.27542971566E+03 0.  0.
         25    1    3    3    0    0  0.26214469778E+02  0.59811347071E+02 -0.67634042161E+02  0.15244329872E+03  0.12000000000E+03 0.  0.
         25    1    3    3    0    0 -0.26214469778E+02 -0.59811347071E+02 -0.10882875745E+03  0.17466623633E+03  0.12000000000E+03 0.  0.
<mgrwt>
<rscale>  0 0.27542972E+03</rscale>
<asrwt>0</asrwt>
<pdfrwt beam="1">  1        1 0.38736334E-01 0.27542972E+03</pdfrwt>
<pdfrwt beam="2">  1       -1 0.11588210E-01 0.27542972E+03</pdfrwt>
<totfact> 0.52611232E+03</totfact>
</mgrwt>
</event>
<event>
 5    1  0.1162308E+001  0.2747102E+03  0.7818608E-02  0.1098614E+00
          2   -1    0    0  501    0  0.00000000000E+00  0.00000000000E+00  0.61012662942E+03  0.61012662942E+03  0.00000000000E+00 0.  1.
         -2   -1    0    0    0  501 -0.00000000000E+00 -0.00000000000E+00 -0.30922139587E+02  0.30922139587E+02  0.00000000000E+00 0.  1.
         35    2    1    2    0    0  0.00000000000E+00  0.00000000000E+00  0.57920448984E+03  0.64104876901E+03  0.27471018038E+03 0.  0.
         25    1    3    3    0    0 -0.10655043765E+02  0.65630607517E+02  0.30534532744E+03  0.33474867526E+03  0.12000000000E+03 0.  0.
         25    1    3    3    0    0  0.10655043765E+02 -0.65630607517E+02  0.27385916240E+03  0.30630009375E+03  0.12000000000E+03 0.  0.
<mgrwt>
<rscale>  0 0.27471018E+03</rscale>
<asrwt>0</asrwt>
<pdfrwt beam="1">  1        2 0.93865626E-01 0.27471018E+03</pdfrwt>
<pdfrwt beam="2">  1       -2 0.47572527E-02 0.27471018E+03</pdfrwt>
<totfact> 0.10401535E+04</totfact>
</mgrwt>
</event>
<event>
 5    1  0.1162308E+001  0.2699034E+03  0.7818608E-02  0.1101335E+00
         -1   -1    0    0    0  501 -0.00000000000E+00  0.00000000000E+00  0.17137309194E+02  0.17137309194E+02  0.00000000000E+00 0.  1.
          1   -1    0    0  501    0  0.00000000000E+00 -0.00000000000E+00 -0.10627086769E+04  0.10627086769E+04  0.00000000000E+00 0.  1.
         35    2    1    2    0    0  0.00000000000E+00  0.00000000000E+00 -0.10455713677E+04  0.10798459861E+04  0.26990344333E+03 0.  0.
         25    1    3    3    0    0 -0.47120581928E+02  0.36917844254E+02 -0.46228257948E+03  0.48134027440E+03  0.12000000000E+03 0.  0.
         25    1    3    3    0    0  0.47120581928E+02 -0.36917844254E+02 -0.58328878824E+03  0.59850571172E+03  0.12000000000E+03 0.  0.
<mgrwt>
<rscale>  0 0.26990344E+03</rscale>
<asrwt>0</asrwt>
<pdfrwt beam="1">  1        1 0.16349367E+00 0.26990344E+03</pdfrwt>
<pdfrwt beam="2">  1       -1 0.26365087E-02 0.26990344E+03</pdfrwt>
<totfact> 0.65513395E+03</totfact>
</mgrwt>
</event>
<event>
 5    1  0.1162308E+001  0.2749944E+03  0.7818608E-02  0.1098455E+00
          2   -1    0    0  501    0  0.00000000000E+00  0.00000000000E+00  0.29455874697E+04  0.29455874697E+04  0.00000000000E+00 0. -1.
         -2   -1    0    0    0  501 -0.00000000000E+00 -0.00000000000E+00 -0.64182363902E+01  0.64182363902E+01  0.00000000000E+00 0. -1.
         35    2    1    2    0    0  0.00000000000E+00  0.00000000000E+00  0.29391692333E+04  0.29520057061E+04  0.27499437586E+03 0.  0.
         25    1    3    3    0    0 -0.62012264152E+02  0.21670176501E+02  0.16176932433E+04  0.16234674456E+04  0.12000000000E+03 0.  0.
         25    1    3    3    0    0  0.62012264152E+02 -0.21670176501E+02  0.13214759901E+04  0.13285382606E+04  0.12000000000E+03 0.  0.
<mgrwt>
<rscale>  0 0.27499438E+03</rscale>
<asrwt>0</asrwt>
<pdfrwt beam="1">  1        2 0.45316623E+00 0.27499438E+03</pdfrwt>
<pdfrwt beam="2">  1       -2 0.98742333E-03 0.27499438E+03</pdfrwt>
<totfact> 0.48720909E+03</totfact>
</mgrwt>
</event>
<event>
 5    1  0.1162308E+001  0.2747698E+03  0.7818608E-02  0.1098580E+00
          2   -1    0    0  501    0  0.00000000000E+00  0.00000000000E+00  0.53335942350E+03  0.53335942350E+03  0.00000000000E+00 0.  1.
         -2   -1    0    0    0  501 -0.00000000000E+00 -0.00000000000E+00 -0.35388162194E+02  0.35388162194E+02  0.00000000000E+00 0.  1.
         35    2    1    2    0    0  0.00000000000E+00  0.00000000000E+00  0.49797126130E+03  0.56874758569E+03  0.27476979300E+03 0.  0.
         25    1    3    3    0    0 -0.58240631086E+02 -0.32386456009E+02  0.26101179119E+03  0.29490338890E+03  0.12000000000E+03 0.  0.
         25    1    3    3    0    0  0.58240631086E+02  0.32386456009E+02  0.23695947012E+03  0.27384419680E+03  0.12000000000E+03 0.  0.
<mgrwt>
<rscale>  0 0.27476979E+03</rscale>
<asrwt>0</asrwt>
<pdfrwt beam="1">  1        2 0.82055290E-01 0.27476979E+03</pdfrwt>
<pdfrwt beam="2">  1       -2 0.54443330E-02 0.27476979E+03</pdfrwt>
<totfact> 0.98864344E+03</totfact>
</mgrwt>
</event>
<event>
 5    1  0.1162308E+001  0.2756065E+03  0.7818608E-02  0.1098113E+00
         -2   -1    0    0    0  501 -0.00000000000E+00  0.00000000000E+00  0.30261409727E+02  0.30261409727E+02  0.00000000000E+00 0. -1.
          2   -1    0    0  501    0  0.00000000000E+00 -0.00000000000E+00 -0.62752331530E+03  0.62752331530E+03  0.00000000000E+00 0. -1.
         35    2    1    2    0    0  0.00000000000E+00  0.00000000000E+00 -0.59726190557E+03  0.65778472503E+03  0.27560653227E+03 0.  0.
         25    1    3    3    0    0  0.54576828408E+02 -0.39575275569E+02 -0.28263707314E+03  0.31437008088E+03  0.12000000000E+03 0.  0.
         25    1    3    3    0    0 -0.54576828408E+02  0.39575275569E+02 -0.31462483243E+03  0.34341464415E+03  0.12000000000E+03 0.  0.
<mgrwt>
<rscale>  0 0.27560653E+03</rscale>
<asrwt>0</asrwt>
<pdfrwt beam="1">  1        2 0.96542045E-01 0.27560653E+03</pdfrwt>
<pdfrwt beam="2">  1       -2 0.46556017E-02 0.27560653E+03</pdfrwt>
<totfact> 0.10400868E+04</totfact>
</mgrwt>
</event>
<event>
 5    1  0.1162308E+001  0.2753204E+03  0.7818608E-02  0.1098273E+00
          1   -1    0    0  501    0  0.00000000000E+00  0.00000000000E+00  0.31203964964E+02  0.31203964964E+02  0.00000000000E+00 0. -1.
         -1   -1    0    0    0  501 -0.00000000000E+00 -0.00000000000E+00 -0.60730510059E+03  0.60730510059E+03  0.00000000000E+00 0. -1.
         35    2    1    2    0    0  0.00000000000E+00  0.00000000000E+00 -0.57610113563E+03  0.63850906556E+03  0.27532037397E+03 0.  0.
         25    1    3    3    0    0  0.24384379028E+02 -0.22143605501E+02 -0.42457323620E+03  0.44243346404E+03  0.12000000000E+03 0.  0.
         25    1    3    3    0    0 -0.24384379028E+02  0.22143605501E+02 -0.15152789943E+03  0.19607560152E+03  0.12000000000E+03 0.  0.
<mgrwt>
<rscale>  0 0.27532037E+03</rscale>
<asrwt>0</asrwt>
<pdfrwt beam="1">  1        1 0.48006103E-02 0.27532037E+03</pdfrwt>
<pdfrwt beam="2">  1       -1 0.93431549E-01 0.27532037E+03</pdfrwt>
<totfact> 0.20609765E+03</totfact>
</mgrwt>
</event>
<event>
 5    1  0.1162308E+001  0.2760106E+03  0.7818608E-02  0.1097888E+00
          4   -1    0    0  501    0  0.00000000000E+00  0.00000000000E+00  0.12860287323E+03  0.12860287323E+03  0.00000000000E+00 0. -1.
         -4   -1    0    0    0  501 -0.00000000000E+00 -0.00000000000E+00 -0.14809511356E+03  0.14809511356E+03  0.00000000000E+00 0. -1.
         35    2    1    2    0    0  0.00000000000E+00  0.00000000000E+00 -0.19492240337E+02  0.27669798679E+03  0.27601055861E+03 0.  0.
         25    1    3    3    0    0  0.43647580046E+02  0.23808431186E+02  0.36990851924E+02  0.13505656506E+03  0.12000000000E+03 0.  0.
         25    1    3    3    0    0 -0.43647580046E+02 -0.23808431186E+02 -0.56483092261E+02  0.14164142173E+03  0.12000000000E+03 0.  0.
<mgrwt>
<rscale>  0 0.27601056E+03</rscale>
<asrwt>0</asrwt>
<pdfrwt beam="1">  1        4 0.19785057E-01 0.27601056E+03</pdfrwt>
<pdfrwt beam="2">  1       -4 0.22783864E-01 0.27601056E+03</pdfrwt>
<totfact> 0.76786736E+02</totfact>
</mgrwt>
</event>
<event>
 5    1  0.1162308E+001  0.2749419E+03  0.7818608E-02  0.1098484E+00
          1   -1    0    0  501    0  0.00000000000E+00  0.00000000000E+00  0.35539045122E+03  0.35539045122E+03  0.00000000000E+00 0. -1.
         -1   -1    0    0    0  501 -0.00000000000E+00 -0.00000000000E+00 -0.53176062411E+02  0.53176062411E+02  0.00000000000E+00 0. -1.
         35    2    1    2    0    0  0.00000000000E+00  0.00000000000E+00  0.30221438881E+03  0.40856651363E+03  0.27494191979E+03 0.  0.
         25    1    3    3    0    0  0.37652739626E+02 -0.47135494840E+02  0.10755971156E+03  0.17207142478E+03  0.12000000000E+03 0.  0.
         25    1    3    3    0    0 -0.37652739626E+02  0.47135494840E+02  0.19465467725E+03  0.23649508885E+03  0.12000000000E+03 0.  0.
<mgrwt>
<rscale>  0 0.27494192E+03</rscale>
<asrwt>0</asrwt>
<pdfrwt beam="1">  1        1 0.54675453E-01 0.27494192E+03</pdfrwt>
<pdfrwt beam="2">  1       -1 0.81809329E-02 0.27494192E+03</pdfrwt>
<totfact> 0.58342553E+03</totfact>
</mgrwt>
</event>
<event>
 5    1  0.1162308E+001  0.2744056E+03  0.7818608E-02  0.1098784E+00
          2   -1    0    0  501    0  0.00000000000E+00  0.00000000000E+00  0.10274693835E+03  0.10274693835E+03  0.00000000000E+00 0.  1.
         -2   -1    0    0    0  501 -0.00000000000E+00 -0.00000000000E+00 -0.18321326531E+03  0.18321326531E+03  0.00000000000E+00 0.  1.
         35    2    1    2    0    0  0.00000000000E+00  0.00000000000E+00 -0.80466326952E+02  0.28596020366E+03  0.27440555443E+03 0.  0.
         25    1    3    3    0    0 -0.20482809446E+02  0.38023309378E+02  0.12486421909E+02  0.12814534042E+03  0.12000000000E+03 0.  0.
         25    1    3    3    0    0  0.20482809446E+02 -0.38023309378E+02 -0.92952748860E+02  0.15781486324E+03  0.12000000000E+03 0.  0.
<mgrwt>
<rscale>  0 0.27440555E+03</rscale>
<asrwt>0</asrwt>
<pdfrwt beam="1">  1        2 0.15807221E-01 0.27440555E+03</pdfrwt>
<pdfrwt beam="2">  1       -2 0.28186656E-01 0.27440555E+03</pdfrwt>
<totfact> 0.41693948E+03</totfact>
</mgrwt>
</event>
<event>
 5    1  0.1162308E+001  0.2736393E+03  0.7818608E-02  0.1099215E+00
         -2   -1    0    0    0  501 -0.00000000000E+00  0.00000000000E+00  0.45551204773E+02  0.45551204773E+02  0.00000000000E+00 0. -1.
          2   -1    0    0  501    0  0.00000000000E+00 -0.00000000000E+00 -0.41095756648E+03  0.41095756648E+03  0.00000000000E+00 0. -1.
         35    2    1    2    0    0  0.00000000000E+00  0.00000000000E+00 -0.36540636171E+03  0.45650877125E+03  0.27363926812E+03 0.  0.
         25    1    3    3    0    0 -0.51843177313E+02 -0.38969089214E+02 -0.20046141106E+03  0.24246872432E+03  0.12000000000E+03 0.  0.
         25    1    3    3    0    0  0.51843177313E+02  0.38969089214E+02 -0.16494495065E+03  0.21404004694E+03  0.12000000000E+03 0.  0.
<mgrwt>
<rscale>  0 0.27363927E+03</rscale>
<asrwt>0</asrwt>
<pdfrwt beam="1">  1        2 0.63224241E-01 0.27363927E+03</pdfrwt>
<pdfrwt beam="2">  1       -2 0.70078777E-02 0.27363927E+03</pdfrwt>
<totfact> 0.89525511E+03</totfact>
</mgrwt>
</event>
<event>
 5    1  0.1162308E+001  0.2750139E+03  0.7818608E-02  0.1098444E+00
          1   -1    0    0  501    0  0.00000000000E+00  0.00000000000E+00  0.14569865781E+04  0.14569865781E+04  0.00000000000E+00 0.  1.
         -1   -1    0    0    0  501 -0.00000000000E+00 -0.00000000000E+00 -0.12977580517E+02  0.12977580517E+02  0.00000000000E+00 0.  1.
         35    2    1    2    0    0  0.00000000000E+00  0.00000000000E+00  0.14440089976E+04  0.14699641586E+04  0.27501389513E+03 0.  0.
         25    1    3    3    0    0  0.55542372617E+02  0.30451908537E+02  0.84103091452E+03  0.85190684530E+03  0.12000000000E+03 0.  0.
         25    1    3    3    0    0 -0.55542372617E+02 -0.30451908537E+02  0.60297808304E+03  0.61805731330E+03  0.12000000000E+03 0.  0.
<mgrwt>
<rscale>  0 0.27501390E+03</rscale>
<asrwt>0</asrwt>
<pdfrwt beam="1">  1        1 0.22415165E+00 0.27501390E+03</pdfrwt>
<pdfrwt beam="2">  1       -1 0.19965520E-02 0.27501390E+03</pdfrwt>
<totfact> 0.52545778E+03</totfact>
</mgrwt>
</event>
<event>
 4    1  0.1162308E+001  0.2472297E+03  0.7818608E-02  0.1115068E+00
          2   -1    0    0  501    0  0.00000000000E+00  0.00000000000E+00  0.43388895970E+02  0.43388895970E+02  0.00000000000E+00 0.  1.
         -2   -1    0    0    0  501 -0.00000000000E+00 -0.00000000000E+00 -0.35217836844E+03  0.35217836844E+03  0.00000000000E+00 0.  1.
         25    1    1    2    0    0  0.82019652084E+01 -0.14222588478E+02 -0.19394664455E+03  0.22865881831E+03  0.12000000000E+03 0.  0.
         25    1    1    2    0    0 -0.82019652084E+01  0.14222588478E+02 -0.11484282792E+03  0.16690844610E+03  0.12000000000E+03 0.  0.
<mgrwt>
<rscale>  0 0.24722970E+03</rscale>
<asrwt>0</asrwt>
<pdfrwt beam="1">  1        2 0.66752150E-02 0.24722970E+03</pdfrwt>
<pdfrwt beam="2">  1       -2 0.54181285E-01 0.24722970E+03</pdfrwt>
<totfact> 0.34748390E+03</totfact>
</mgrwt>
</event>
<event>
 5    1  0.1162308E+001  0.2753261E+03  0.7818608E-02  0.1098269E+00
         -1   -1    0    0    0  501 -0.00000000000E+00  0.00000000000E+00  0.50943727004E+02  0.50943727004E+02  0.00000000000E+00 0. -1.
          1   -1    0    0  501    0  0.00000000000E+00 -0.00000000000E+00 -0.37200093518E+03  0.37200093518E+03  0.00000000000E+00 0. -1.
         35    2    1    2    0    0  0.00000000000E+00  0.00000000000E+00 -0.32105720818E+03  0.42294466219E+03  0.27532609093E+03 0.  0.
         25    1    3    3    0    0 -0.23437057902E+02  0.63010940373E+02 -0.15191517567E+03  0.20493387931E+03  0.12000000000E+03 0.  0.
         25    1    3    3    0    0  0.23437057902E+02 -0.63010940373E+02 -0.16914203251E+03  0.21801078288E+03  0.12000000000E+03 0.  0.
<mgrwt>
<rscale>  0 0.27532609E+03</rscale>
<asrwt>0</asrwt>
<pdfrwt beam="1">  1        1 0.57230911E-01 0.27532609E+03</pdfrwt>
<pdfrwt beam="2">  1       -1 0.78374967E-02 0.27532609E+03</pdfrwt>
<totfact> 0.58778784E+03</totfact>
</mgrwt>
</event>
<event>
 5    1  0.1162308E+001  0.2743912E+03  0.7818608E-02  0.1098792E+00
         -2   -1    0    0    0  501 -0.00000000000E+00  0.00000000000E+00  0.35887278368E+02  0.35887278368E+02  0.00000000000E+00 0.  1.
          2   -1    0    0  501    0  0.00000000000E+00 -0.00000000000E+00 -0.52449316185E+03  0.52449316185E+03  0.00000000000E+00 0.  1.
         35    2    1    2    0    0  0.00000000000E+00  0.00000000000E+00 -0.48860588349E+03  0.56038044022E+03  0.27439119593E+03 0.  0.
         25    1    3    3    0    0 -0.77449167263E+01 -0.40024261105E+02 -0.13699720393E+03  0.18662839842E+03  0.12000000000E+03 0.  0.
         25    1    3    3    0    0  0.77449167263E+01  0.40024261105E+02 -0.35160867955E+03  0.37375204180E+03  0.12000000000E+03 0.  0.
<mgrwt>
<rscale>  0 0.27439120E+03</rscale>
<asrwt>0</asrwt>
<pdfrwt beam="1">  1        2 0.80691250E-01 0.27439120E+03</pdfrwt>
<pdfrwt beam="2">  1       -2 0.55211201E-02 0.27439120E+03</pdfrwt>
<totfact> 0.98618634E+03</totfact>
</mgrwt>
</event>
<event>
 5    1  0.1162308E+001  0.2743191E+03  0.7818608E-02  0.1098833E+00
         -1   -1    0    0    0  501 -0.00000000000E+00  0.00000000000E+00  0.69275254578E+02  0.69275254578E+02  0.00000000000E+00 0.  1.
          1   -1    0    0  501    0  0.00000000000E+00 -0.00000000000E+00 -0.27156508845E+03  0.27156508845E+03  0.00000000000E+00 0.  1.
         35    2    1    2    0    0  0.00000000000E+00  0.00000000000E+00 -0.20228983387E+03  0.34084034303E+03  0.27431908892E+03 0.  0.
         25    1    3    3    0    0  0.63334145740E+02  0.10966683297E+02 -0.12198252067E+03  0.18278735599E+03  0.12000000000E+03 0.  0.
         25    1    3    3    0    0 -0.63334145740E+02 -0.10966683297E+02 -0.80307313200E+02  0.15805298704E+03  0.12000000000E+03 0.  0.
<mgrwt>
<rscale>  0 0.27431909E+03</rscale>
<asrwt>0</asrwt>
<pdfrwt beam="1">  1        1 0.41779244E-01 0.27431909E+03</pdfrwt>
<pdfrwt beam="2">  1       -1 0.10657732E-01 0.27431909E+03</pdfrwt>
<totfact> 0.54492473E+03</totfact>
</mgrwt>
</event>
<event>
 5    1  0.1162308E+001  0.2746445E+03  0.7818608E-02  0.1098650E+00
         -2   -1    0    0    0  501 -0.00000000000E+00  0.00000000000E+00  0.11698227654E+02  0.11698227654E+02  0.00000000000E+00 0. -1.
          2   -1    0    0  501    0  0.00000000000E+00 -0.00000000000E+00 -0.16119873971E+04  0.16119873971E+04  0.00000000000E+00 0. -1.
         35    2    1    2    0    0  0.00000000000E+00  0.00000000000E+00 -0.16002891695E+04  0.16236856248E+04  0.27464446506E+03 0.  0.
         25    1    3    3    0    0 -0.45460742314E+02  0.45562483983E+02 -0.69525502751E+03  0.70846465848E+03  0.12000000000E+03 0.  0.
         25    1    3    3    0    0  0.45460742314E+02 -0.45562483983E+02 -0.90503414196E+03  0.91522096630E+03  0.12000000000E+03 0.  0.
<mgrwt>
<rscale>  0 0.27464447E+03</rscale>
<asrwt>0</asrwt>
<pdfrwt beam="1">  1        2 0.24799792E+00 0.27464447E+03</pdfrwt>
<pdfrwt beam="2">  1       -2 0.17997284E-02 0.27464447E+03</pdfrwt>
<totfact> 0.10737839E+04</totfact>
</mgrwt>
</event>
<event>
 5    1  0.1162308E+001  0.2744376E+03  0.7818608E-02  0.1098766E+00
          1   -1    0    0  501    0  0.00000000000E+00  0.00000000000E+00  0.49556096749E+02  0.49556096749E+02  0.00000000000E+00 0. -1.
         -1   -1    0    0    0  501 -0.00000000000E+00 -0.00000000000E+00 -0.37995311943E+03  0.37995311943E+03  0.00000000000E+00 0. -1.
         35    2    1    2    0    0  0.00000000000E+00  0.00000000000E+00 -0.33039702268E+03  0.42950921618E+03  0.27443755972E+03 0.  0.
         25    1    3    3    0    0  0.21355617259E+02  0.61034661502E+02 -0.18983013498E+03  0.23370231586E+03  0.12000000000E+03 0.  0.
         25    1    3    3    0    0 -0.21355617259E+02 -0.61034661502E+02 -0.14056688770E+03  0.19580690031E+03  0.12000000000E+03 0.  0.
<mgrwt>
<rscale>  0 0.27443756E+03</rscale>
<asrwt>0</asrwt>
<pdfrwt beam="1">  1        1 0.76240150E-02 0.27443756E+03</pdfrwt>
<pdfrwt beam="2">  1       -1 0.58454325E-01 0.27443756E+03</pdfrwt>
<totfact> 0.28297339E+03</totfact>
</mgrwt>
</event>
<event>
 5    1  0.1162308E+001  0.2738540E+03  0.7818608E-02  0.1099094E+00
         -2   -1    0    0    0  501 -0.00000000000E+00  0.00000000000E+00  0.14779392795E+03  0.14779392795E+03  0.00000000000E+00 0. -1.
          2   -1    0    0  501    0  0.00000000000E+00 -0.00000000000E+00 -0.12685907613E+03  0.12685907613E+03  0.00000000000E+00 0. -1.
         35    2    1    2    0    0  0.00000000000E+00  0.00000000000E+00  0.20934851829E+02  0.27465300408E+03  0.27385398414E+03 0.  0.
         25    1    3    3    0    0 -0.60138316445E+02  0.27046730581E+02  0.11396637286E+02  0.13739732924E+03  0.12000000000E+03 0.  0.
         25    1    3    3    0    0  0.60138316445E+02 -0.27046730581E+02  0.95382145423E+01  0.13725567484E+03  0.12000000000E+03 0.  0.
<mgrwt>
<rscale>  0 0.27385398E+03</rscale>
<asrwt>0</asrwt>
<pdfrwt beam="1">  1        2 0.19516781E-01 0.27385398E+03</pdfrwt>
<pdfrwt beam="2">  1       -2 0.22737527E-01 0.27385398E+03</pdfrwt>
<totfact> 0.47699560E+03</totfact>
</mgrwt>
</event>
<event>
 5    1  0.1162308E+001  0.2760472E+03  0.7818608E-02  0.1097868E+00
          1   -1    0    0  501    0  0.00000000000E+00  0.00000000000E+00  0.50642828459E+02  0.50642828459E+02  0.00000000000E+00 0. -1.
         -1   -1    0    0    0  501 -0.00000000000E+00 -0.00000000000E+00 -0.37617393175E+03  0.37617393175E+03  0.00000000000E+00 0. -1.
         35    2    1    2    0    0  0.00000000000E+00  0.00000000000E+00 -0.32553110329E+03  0.42681676020E+03  0.27604718362E+03 0.  0.
         25    1    3    3    0    0  0.20534492337E+02 -0.33103695840E+02 -0.24930971351E+03  0.27941519877E+03  0.12000000000E+03 0.  0.
         25    1    3    3    0    0 -0.20534492337E+02  0.33103695840E+02 -0.76221389779E+02  0.14740156144E+03  0.12000000000E+03 0.  0.
<mgrwt>
<rscale>  0 0.27604718E+03</rscale>
<asrwt>0</asrwt>
<pdfrwt beam="1">  1        1 0.77912041E-02 0.27604718E+03</pdfrwt>
<pdfrwt beam="2">  1       -1 0.57872915E-01 0.27604718E+03</pdfrwt>
<totfact> 0.28007442E+03</totfact>
</mgrwt>
</event>
<event>
 5    1  0.1162308E+001  0.2751278E+03  0.7818608E-02  0.1098380E+00
         -2   -1    0    0    0  501 -0.00000000000E+00  0.00000000000E+00  0.95986434061E+02  0.95986434061E+02  0.00000000000E+00 0. -1.
          2   -1    0    0  501    0  0.00000000000E+00 -0.00000000000E+00 -0.19715105101E+03  0.19715105101E+03  0.00000000000E+00 0. -1.
         35    2    1    2    0    0  0.00000000000E+00  0.00000000000E+00 -0.10116461695E+03  0.29313748507E+03  0.27512779836E+03 0.  0.
         25    1    3    3    0    0 -0.17922602578E+02  0.43600595750E+02  0.53303829978E+00  0.12892833576E+03  0.12000000000E+03 0.  0.
         25    1    3    3    0    0  0.17922602578E+02 -0.43600595750E+02 -0.10169765525E+03  0.16420914931E+03  0.12000000000E+03 0.  0.
<mgrwt>
<rscale>  0 0.27512780E+03</rscale>
<asrwt>0</asrwt>
<pdfrwt beam="1">  1        2 0.30330931E-01 0.27512780E+03</pdfrwt>
<pdfrwt beam="2">  1       -2 0.14767144E-01 0.27512780E+03</pdfrwt>
<totfact> 0.60417126E+03</totfact>
</mgrwt>
</event>
<event>
 5    1  0.1162308E+001  0.2749174E+03  0.7818608E-02  0.1098498E+00
         -4   -1    0    0    0  501 -0.00000000000E+00  0.00000000000E+00  0.38028584003E+02  0.38028584003E+02  0.00000000000E+00 0.  1.
          4   -1    0    0  501    0  0.00000000000E+00 -0.00000000000E+00 -0.49686033825E+03  0.49686033825E+03  0.00000000000E+00 0.  1.
         35    2    1    2    0    0  0.00000000000E+00  0.00000000000E+00 -0.45883175424E+03  0.53488892225E+03  0.27491740658E+03 0.  0.
         25    1    3    3    0    0 -0.25316381563E+02  0.56564901393E+02 -0.17964457717E+03  0.22475026441E+03  0.12000000000E+03 0.  0.
         25    1    3    3    0    0  0.25316381563E+02 -0.56564901393E+02 -0.27918717708E+03  0.31013865784E+03  0.12000000000E+03 0.  0.
<mgrwt>
<rscale>  0 0.27491741E+03</rscale>
<asrwt>0</asrwt>
<pdfrwt beam="1">  1        4 0.76440055E-01 0.27491741E+03</pdfrwt>
<pdfrwt beam="2">  1       -4 0.58505511E-02 0.27491741E+03</pdfrwt>
<totfact> 0.54462940E+02</totfact>
</mgrwt>
</event>
<event>
 5    1  0.1162308E+001  0.2757998E+03  0.7818608E-02  0.1098005E+00
          2   -1    0    0  501    0  0.00000000000E+00  0.00000000000E+00  0.40204485468E+02  0.40204485468E+02  0.00000000000E+00 0.  1.
         -2   -1    0    0    0  501 -0.00000000000E+00 -0.00000000000E+00 -0.47299172357E+03  0.47299172357E+03  0.00000000000E+00 0.  1.
         35    2    1    2    0    0  0.00000000000E+00  0.00000000000E+00 -0.43278723810E+03  0.51319620903E+03  0.27579984682E+03 0.  0.
         25    1    3    3    0    0  0.54622915600E+02  0.33519635135E+02 -0.25838078581E+03  0.29200660835E+03  0.12000000000E+03 0.  0.
         25    1    3    3    0    0 -0.54622915600E+02 -0.33519635135E+02 -0.17440645229E+03  0.22118960068E+03  0.12000000000E+03 0.  0.
<mgrwt>
<rscale>  0 0.27579985E+03</rscale>
<asrwt>0</asrwt>
<pdfrwt beam="1">  1        2 0.61853051E-02 0.27579985E+03</pdfrwt>
<pdfrwt beam="2">  1       -2 0.72767962E-01 0.27579985E+03</pdfrwt>
<totfact> 0.20776939E+03</totfact>
</mgrwt>
</event>
<event>
 5    1  0.1162308E+001  0.2743053E+03  0.7818608E-02  0.1098841E+00
         -2   -1    0    0    0  501 -0.00000000000E+00  0.00000000000E+00  0.26333462122E+02  0.26333462122E+02  0.00000000000E+00 0. -1.
          2   -1    0    0  501    0  0.00000000000E+00 -0.00000000000E+00 -0.71433267852E+03  0.71433267852E+03  0.00000000000E+00 0. -1.
         35    2    1    2    0    0  0.00000000000E+00  0.00000000000E+00 -0.68799921640E+03  0.74066614065E+03  0.27430532283E+03 0.  0.
         25    1    3    3    0    0  0.16904983005E+02 -0.43781944360E+02 -0.21711499020E+03  0.25247090144E+03  0.12000000000E+03 0.  0.
         25    1    3    3    0    0 -0.16904983005E+02  0.43781944360E+02 -0.47088422620E+03  0.48819523921E+03  0.12000000000E+03 0.  0.
<mgrwt>
<rscale>  0 0.27430532E+03</rscale>
<asrwt>0</asrwt>
<pdfrwt beam="1">  1        2 0.10989733E+00 0.27430532E+03</pdfrwt>
<pdfrwt beam="2">  1       -2 0.40513021E-02 0.27430532E+03</pdfrwt>
<totfact> 0.10984317E+04</totfact>
</mgrwt>
</event>
<event>
 5    1  0.1162308E+001  0.2739818E+03  0.7818608E-02  0.1099022E+00
          1   -1    0    0  501    0  0.00000000000E+00  0.00000000000E+00  0.87563906634E+02  0.87563906634E+02  0.00000000000E+00 0.  1.
         -1   -1    0    0    0  501 -0.00000000000E+00 -0.00000000000E+00 -0.21431789533E+03  0.21431789533E+03  0.00000000000E+00 0.  1.
         35    2    1    2    0    0  0.00000000000E+00  0.00000000000E+00 -0.12675398869E+03  0.30188180196E+03  0.27398184010E+03 0.  0.
         25    1    3    3    0    0 -0.27923450489E+02  0.41832932481E+02 -0.11059916593E+03  0.17076852412E+03  0.12000000000E+03 0.  0.
         25    1    3    3    0    0  0.27923450489E+02 -0.41832932481E+02 -0.16154822766E+02  0.13111327784E+03  0.12000000000E+03 0.  0.
<mgrwt>
<rscale>  0 0.27398184E+03</rscale>
<asrwt>0</asrwt>
<pdfrwt beam="1">  1        1 0.13471370E-01 0.27398184E+03</pdfrwt>
<pdfrwt beam="2">  1       -1 0.32971984E-01 0.27398184E+03</pdfrwt>
<totfact> 0.37108278E+03</totfact>
</mgrwt>
</event>
<event>
 5    1  0.1162308E+001  0.2757175E+03  0.7818608E-02  0.1098051E+00
          2   -1    0    0  501    0  0.00000000000E+00  0.00000000000E+00  0.21447003636E+03  0.21447003636E+03  0.00000000000E+00 0. -1.
         -2   -1    0    0    0  501 -0.00000000000E+00 -0.00000000000E+00 -0.88613939858E+02  0.88613939858E+02  0.00000000000E+00 0. -1.
         35    2    1    2    0    0  0.00000000000E+00  0.00000000000E+00  0.12585609650E+03  0.30308397622E+03  0.27571749965E+03 0.  0.
         25    1    3    3    0    0  0.39458248009E+02  0.49995574532E+02  0.88673261853E+02  0.16223272844E+03  0.12000000000E+03 0.  0.
         25    1    3    3    0    0 -0.39458248009E+02 -0.49995574532E+02  0.37182834647E+02  0.14085124778E+03  0.12000000000E+03 0.  0.
<mgrwt>
<rscale>  0 0.27571750E+03</rscale>
<asrwt>0</asrwt>
<pdfrwt beam="1">  1        2 0.32995390E-01 0.27571750E+03</pdfrwt>
<pdfrwt beam="2">  1       -2 0.13632914E-01 0.27571750E+03</pdfrwt>
<totfact> 0.62838744E+03</totfact>
</mgrwt>
</event>
<event>
 5    1  0.1162308E+001  0.2764204E+03  0.7818608E-02  0.1097660E+00
          1   -1    0    0  501    0  0.00000000000E+00  0.00000000000E+00  0.17957466366E+04  0.17957466366E+04  0.00000000000E+00 0. -1.
         -1   -1    0    0    0  501 -0.00000000000E+00 -0.00000000000E+00 -0.10637394970E+02  0.10637394970E+02  0.00000000000E+00 0. -1.
         35    2    1    2    0    0  0.00000000000E+00  0.00000000000E+00  0.17851092417E+04  0.18063840316E+04  0.27642044960E+03 0.  0.
         25    1    3    3    0    0  0.56811287043E+02  0.18065049204E+02  0.67111858875E+03  0.68436395910E+03  0.12000000000E+03 0.  0.
         25    1    3    3    0    0 -0.56811287043E+02 -0.18065049204E+02  0.11139906529E+04  0.11220200725E+04  0.12000000000E+03 0.  0.
<mgrwt>
<rscale>  0 0.27642045E+03</rscale>
<asrwt>0</asrwt>
<pdfrwt beam="1">  1        1 0.27626847E+00 0.27642045E+03</pdfrwt>
<pdfrwt beam="2">  1       -1 0.16365237E-02 0.27642045E+03</pdfrwt>
<totfact> 0.42096502E+03</totfact>
</mgrwt>
</event>
<event>
 5    1  0.1162308E+001  0.2764967E+03  0.7818608E-02  0.1097618E+00
          2   -1    0    0  501    0  0.00000000000E+00  0.00000000000E+00  0.41232033751E+03  0.41232033751E+03  0.00000000000E+00 0.  1.
         -2   -1    0    0    0  501 -0.00000000000E+00 -0.00000000000E+00 -0.46353794632E+02  0.46353794632E+02  0.00000000000E+00 0.  1.
         35    2    1    2    0    0  0.00000000000E+00  0.00000000000E+00  0.36596654287E+03  0.45867413214E+03  0.27649674318E+03 0.  0.
         25    1    3    3    0    0  0.17331188987E+02 -0.39891836659E+02  0.94877003951E+02  0.15903890915E+03  0.12000000000E+03 0.  0.
         25    1    3    3    0    0 -0.17331188987E+02  0.39891836659E+02  0.27108953892E+03  0.29963522299E+03  0.12000000000E+03 0.  0.
<mgrwt>
<rscale>  0 0.27649674E+03</rscale>
<asrwt>0</asrwt>
<pdfrwt beam="1">  1        2 0.63433895E-01 0.27649674E+03</pdfrwt>
<pdfrwt beam="2">  1       -2 0.71313533E-02 0.27649674E+03</pdfrwt>
<totfact> 0.86856064E+03</totfact>
</mgrwt>
</event>
<event>
 5    1  0.1162308E+001  0.2754266E+03  0.7818608E-02  0.1098213E+00
          2   -1    0    0  501    0  0.00000000000E+00  0.00000000000E+00  0.48244632950E+03  0.48244632950E+03  0.00000000000E+00 0.  1.
         -2   -1    0    0    0  501 -0.00000000000E+00 -0.00000000000E+00 -0.39309965151E+02  0.39309965151E+02  0.00000000000E+00 0.  1.
         35    2    1    2    0    0  0.00000000000E+00  0.00000000000E+00  0.44313636435E+03  0.52175629465E+03  0.27542656662E+03 0.  0.
         25    1    3    3    0    0  0.42772296749E+02  0.39772277203E+02  0.28591068679E+03  0.31552531471E+03  0.12000000000E+03 0.  0.
         25    1    3    3    0    0 -0.42772296749E+02 -0.39772277203E+02  0.15722567756E+03  0.20623097994E+03  0.12000000000E+03 0.  0.
<mgrwt>
<rscale>  0 0.27542657E+03</rscale>
<asrwt>0</asrwt>
<pdfrwt beam="1">  1        2 0.74222508E-01 0.27542657E+03</pdfrwt>
<pdfrwt beam="2">  1       -2 0.60476873E-02 0.27542657E+03</pdfrwt>
<totfact> 0.94211326E+03</totfact>
</mgrwt>
</event>
<event>
 5    1  0.1162308E+001  0.2753342E+03  0.7818608E-02  0.1098265E+00
          2   -1    0    0  501    0  0.00000000000E+00  0.00000000000E+00  0.15578312224E+04  0.15578312224E+04  0.00000000000E+00 0.  1.
         -2   -1    0    0    0  501 -0.00000000000E+00 -0.00000000000E+00 -0.12165782150E+02  0.12165782150E+02  0.00000000000E+00 0.  1.
         35    2    1    2    0    0  0.00000000000E+00  0.00000000000E+00  0.15456654403E+04  0.15699970046E+04  0.27533423527E+03 0.  0.
         25    1    3    3    0    0  0.48300187146E+02  0.16245061624E+02  0.52068258259E+03  0.53675614753E+03  0.12000000000E+03 0.  0.
         25    1    3    3    0    0 -0.48300187146E+02 -0.16245061624E+02  0.10249828577E+04  0.10332408570E+04  0.12000000000E+03 0.  0.
<mgrwt>
<rscale>  0 0.27533424E+03</rscale>
<asrwt>0</asrwt>
<pdfrwt beam="1">  1        2 0.23966618E+00 0.27533424E+03</pdfrwt>
<pdfrwt beam="2">  1       -2 0.18716600E-02 0.27533424E+03</pdfrwt>
<totfact> 0.10831379E+04</totfact>
</mgrwt>
</event>
<event>
 5    1  0.1162308E+001  0.2751315E+03  0.7818608E-02  0.1098378E+00
         -2   -1    0    0    0  501 -0.00000000000E+00  0.00000000000E+00  0.11513776146E+02  0.11513776146E+02  0.00000000000E+00 0.  1.
          2   -1    0    0  501    0  0.00000000000E+00 -0.00000000000E+00 -0.16436260077E+04  0.16436260077E+04  0.00000000000E+00 0.  1.
         35    2    1    2    0    0  0.00000000000E+00  0.00000000000E+00 -0.16321122316E+04  0.16551397838E+04  0.27513154614E+03 0.  0.
         25    1    3    3    0    0 -0.59870843463E+02 -0.35427680335E+01 -0.63286768035E+03  0.64693011209E+03  0.12000000000E+03 0.  0.
         25    1    3    3    0    0  0.59870843463E+02  0.35427680335E+01 -0.99924455121E+03  0.10082096718E+04  0.12000000000E+03 0.  0.
<mgrwt>
<rscale>  0 0.27513155E+03</rscale>
<asrwt>0</asrwt>
<pdfrwt beam="1">  1        2 0.25286551E+00 0.27513155E+03</pdfrwt>
<pdfrwt beam="2">  1       -2 0.17713504E-02 0.27513155E+03</pdfrwt>
<totfact> 0.10576183E+04</totfact>
</mgrwt>
</event>
<event>
 5    1  0.1162308E+001  0.2753520E+03  0.7818608E-02  0.1098255E+00
          3   -1    0    0  501    0  0.00000000000E+00  0.00000000000E+00  0.18165677532E+04  0.18165677532E+04  0.00000000000E+00 0.  1.
         -3   -1    0    0    0  501 -0.00000000000E+00 -0.00000000000E+00 -0.10434335252E+02  0.10434335252E+02  0.00000000000E+00 0.  1.
         35    2    1    2    0    0  0.00000000000E+00  0.00000000000E+00  0.18061334180E+04  0.18270020885E+04  0.27535197072E+03 0.  0.
         25    1    3    3    0    0  0.27064791365E+02 -0.53274425585E+02  0.11112042985E+04  0.11192612118E+04  0.12000000000E+03 0.  0.
         25    1    3    3    0    0 -0.27064791365E+02  0.53274425585E+02  0.69492911950E+03  0.70774087665E+03  0.12000000000E+03 0.  0.
<mgrwt>
<rscale>  0 0.27535197E+03</rscale>
<asrwt>0</asrwt>
<pdfrwt beam="1">  1        3 0.27947171E+00 0.27535197E+03</pdfrwt>
<pdfrwt beam="2">  1       -3 0.16052838E-02 0.27535197E+03</pdfrwt>
<totfact> 0.19345059E+02</totfact>
</mgrwt>
</event>
<event>
 5    1  0.1162308E+001  0.2734223E+03  0.7818608E-02  0.1099337E+00
          2   -1    0    0  501    0  0.00000000000E+00  0.00000000000E+00  0.32048680005E+04  0.32048680005E+04  0.00000000000E+00 0.  1.
         -2   -1    0    0    0  501 -0.00000000000E+00 -0.00000000000E+00 -0.58317332221E+01  0.58317332221E+01  0.00000000000E+00 0.  1.
         35    2    1    2    0    0  0.00000000000E+00  0.00000000000E+00  0.31990362673E+04  0.32106997337E+04  0.27342227554E+03 0.  0.
         25    1    3    3    0    0 -0.62174803990E+02 -0.11738147699E+02  0.17982585940E+04  0.18033683654E+04  0.12000000000E+03 0.  0.
         25    1    3    3    0    0  0.62174803990E+02  0.11738147699E+02  0.14007776733E+04  0.14073313683E+04  0.12000000000E+03 0.  0.
<mgrwt>
<rscale>  0 0.27342228E+03</rscale>
<asrwt>0</asrwt>
<pdfrwt beam="1">  1        2 0.49305521E+00 0.27342228E+03</pdfrwt>
<pdfrwt beam="2">  1       -2 0.89719228E-03 0.27342228E+03</pdfrwt>
<totfact> 0.39096183E+03</totfact>
</mgrwt>
</event>
<event>
 5    1  0.1162308E+001  0.2751302E+03  0.7818608E-02  0.1098379E+00
          1   -1    0    0  501    0  0.00000000000E+00  0.00000000000E+00  0.81430764072E+02  0.81430764072E+02  0.00000000000E+00 0.  1.
         -1   -1    0    0    0  501 -0.00000000000E+00 -0.00000000000E+00 -0.23239562207E+03  0.23239562207E+03  0.00000000000E+00 0.  1.
         35    2    1    2    0    0  0.00000000000E+00  0.00000000000E+00 -0.15096485800E+03  0.31382638614E+03  0.27513017335E+03 0.  0.
         25    1    3    3    0    0  0.18344348767E+02 -0.35797615995E+02 -0.13991417197E+02  0.12733320147E+03  0.12000000000E+03 0.  0.
         25    1    3    3    0    0 -0.18344348767E+02  0.35797615995E+02 -0.13697344080E+03  0.18649318467E+03  0.12000000000E+03 0.  0.
<mgrwt>
<rscale>  0 0.27513017E+03</rscale>
<asrwt>0</asrwt>
<pdfrwt beam="1">  1        1 0.12527810E-01 0.27513017E+03</pdfrwt>
<pdfrwt beam="2">  1       -1 0.35753172E-01 0.27513017E+03</pdfrwt>
<totfact> 0.35507672E+03</totfact>
</mgrwt>
</event>
<event>
 5    1  0.1162308E+001  0.2757729E+03  0.7818608E-02  0.1098020E+00
          3   -1    0    0  501    0  0.00000000000E+00  0.00000000000E+00  0.12217324823E+04  0.12217324823E+04  0.00000000000E+00 0.  1.
         -3   -1    0    0    0  501 -0.00000000000E+00 -0.00000000000E+00 -0.15562058301E+02  0.15562058301E+02  0.00000000000E+00 0.  1.
         35    2    1    2    0    0  0.00000000000E+00  0.00000000000E+00  0.12061704240E+04  0.12372945406E+04  0.27577289292E+03 0.  0.
         25    1    3    3    0    0  0.17054510387E+01 -0.67624399959E+02  0.63026704370E+03  0.64514534363E+03  0.12000000000E+03 0.  0.
         25    1    3    3    0    0 -0.17054510387E+01  0.67624399959E+02  0.57590338030E+03  0.59214919698E+03  0.12000000000E+03 0.  0.
<mgrwt>
<rscale>  0 0.27577289E+03</rscale>
<asrwt>0</asrwt>
<pdfrwt beam="1">  1        3 0.18795877E+00 0.27577289E+03</pdfrwt>
<pdfrwt beam="2">  1       -3 0.23941638E-02 0.27577289E+03</pdfrwt>
<totfact> 0.34861053E+02</totfact>
</mgrwt>
</event>
<event>
 5    1  0.1162308E+001  0.2758474E+03  0.7818608E-02  0.1097979E+00
         -2   -1    0    0    0  501 -0.00000000000E+00  0.00000000000E+00  0.66611008004E+02  0.66611008004E+02  0.00000000000E+00 0.  1.
          2   -1    0    0  501    0  0.00000000000E+00 -0.00000000000E+00 -0.28558271691E+03  0.28558271691E+03  0.00000000000E+00 0.  1.
         35    2    1    2    0    0  0.00000000000E+00  0.00000000000E+00 -0.21897170891E+03  0.35219372492E+03  0.27584744075E+03 0.  0.
         25    1    3    3    0    0 -0.37243897958E+02  0.31354708423E+02 -0.48886648473E+02  0.13842012164E+03  0.12000000000E+03 0.  0.
         25    1    3    3    0    0  0.37243897958E+02 -0.31354708423E+02 -0.17008506044E+03  0.21377360328E+03  0.12000000000E+03 0.  0.
<mgrwt>
<rscale>  0 0.27584744E+03</rscale>
<asrwt>0</asrwt>
<pdfrwt beam="1">  1        2 0.43935803E-01 0.27584744E+03</pdfrwt>
<pdfrwt beam="2">  1       -2 0.10247847E-01 0.27584744E+03</pdfrwt>
<totfact> 0.73062604E+03</totfact>
</mgrwt>
</event>
<event>
 5    1  0.1162308E+001  0.2752519E+03  0.7818608E-02  0.1098311E+00
          1   -1    0    0  501    0  0.00000000000E+00  0.00000000000E+00  0.99090466203E+03  0.99090466203E+03  0.00000000000E+00 0. -1.
         -1   -1    0    0    0  501 -0.00000000000E+00 -0.00000000000E+00 -0.19114752751E+02  0.19114752751E+02  0.00000000000E+00 0. -1.
         35    2    1    2    0    0  0.00000000000E+00  0.00000000000E+00  0.97178990927E+03  0.10100194148E+04  0.27525186731E+03 0.  0.
         25    1    3    3    0    0  0.11989033471E+02 -0.30133137995E+02  0.70264518106E+03  0.71355587966E+03  0.12000000000E+03 0.  0.
         25    1    3    3    0    0 -0.11989033471E+02  0.30133137995E+02  0.26914472821E+03  0.29646353512E+03  0.12000000000E+03 0.  0.
<mgrwt>
<rscale>  0 0.27525187E+03</rscale>
<asrwt>0</asrwt>
<pdfrwt beam="1">  1        1 0.15244683E+00 0.27525187E+03</pdfrwt>
<pdfrwt beam="2">  1       -1 0.29407320E-02 0.27525187E+03</pdfrwt>
<totfact> 0.63072271E+03</totfact>
</mgrwt>
</event>
<event>
 5    1  0.1162308E+001  0.2752346E+03  0.7818608E-02  0.1098321E+00
          2   -1    0    0  501    0  0.00000000000E+00  0.00000000000E+00  0.11303682776E+04  0.11303682776E+04  0.00000000000E+00 0.  1.
         -2   -1    0    0    0  501 -0.00000000000E+00 -0.00000000000E+00 -0.16754295230E+02  0.16754295230E+02  0.00000000000E+00 0.  1.
         35    2    1    2    0    0  0.00000000000E+00  0.00000000000E+00  0.11136139824E+04  0.11471225728E+04  0.27523461876E+03 0.  0.
         25    1    3    3    0    0 -0.36865056417E+02  0.21483358413E+02  0.77409113742E+03  0.78449834679E+03  0.12000000000E+03 0.  0.
         25    1    3    3    0    0  0.36865056417E+02 -0.21483358413E+02  0.33952284495E+03  0.36262422605E+03  0.12000000000E+03 0.  0.
<mgrwt>
<rscale>  0 0.27523462E+03</rscale>
<asrwt>0</asrwt>
<pdfrwt beam="1">  1        2 0.17390275E+00 0.27523462E+03</pdfrwt>
<pdfrwt beam="2">  1       -2 0.25775848E-02 0.27523462E+03</pdfrwt>
<totfact> 0.11623406E+04</totfact>
</mgrwt>
</event>
<event>
 5    1  0.1162308E+001  0.2752189E+03  0.7818608E-02  0.1098329E+00
         -1   -1    0    0    0  501 -0.00000000000E+00  0.00000000000E+00  0.23619744971E+02  0.23619744971E+02  0.00000000000E+00 0.  1.
          1   -1    0    0  501    0  0.00000000000E+00 -0.00000000000E+00 -0.80171762017E+03  0.80171762017E+03  0.00000000000E+00 0.  1.
         35    2    1    2    0    0  0.00000000000E+00  0.00000000000E+00 -0.77809787520E+03  0.82533736514E+03  0.27521893632E+03 0.  0.
         25    1    3    3    0    0 -0.44669116319E+02  0.46174504522E+02 -0.32840480583E+03  0.35549561364E+03  0.12000000000E+03 0.  0.
         25    1    3    3    0    0  0.44669116319E+02 -0.46174504522E+02 -0.44969306937E+03  0.46984175151E+03  0.12000000000E+03 0.  0.
<mgrwt>
<rscale>  0 0.27521894E+03</rscale>
<asrwt>0</asrwt>
<pdfrwt beam="1">  1        1 0.12334117E+00 0.27521894E+03</pdfrwt>
<pdfrwt beam="2">  1       -1 0.36338070E-02 0.27521894E+03</pdfrwt>
<totfact> 0.65048267E+03</totfact>
</mgrwt>
</event>
<event>
 5    1  0.1162308E+001  0.2748824E+03  0.7818608E-02  0.1098517E+00
          2   -1    0    0  501    0  0.00000000000E+00  0.00000000000E+00  0.22542284880E+03  0.22542284880E+03  0.00000000000E+00 0.  1.
         -2   -1    0    0    0  501 -0.00000000000E+00 -0.00000000000E+00 -0.83798432985E+02  0.83798432985E+02  0.00000000000E+00 0.  1.
         35    2    1    2    0    0  0.00000000000E+00  0.00000000000E+00  0.14162441581E+03  0.30922128178E+03  0.27488238567E+03 0.  0.
         25    1    3    3    0    0  0.54895762896E+02 -0.65041275145E+01  0.11341443711E+03  0.17412260911E+03  0.12000000000E+03 0.  0.
         25    1    3    3    0    0 -0.54895762896E+02  0.65041275145E+01  0.28209978701E+02  0.13509867267E+03  0.12000000000E+03 0.  0.
<mgrwt>
<rscale>  0 0.27488239E+03</rscale>
<asrwt>0</asrwt>
<pdfrwt beam="1">  1        2 0.34680438E-01 0.27488239E+03</pdfrwt>
<pdfrwt beam="2">  1       -2 0.12892067E-01 0.27488239E+03</pdfrwt>
<totfact> 0.65195941E+03</totfact>
</mgrwt>
</event>
<event>
 5    1  0.1162308E+001  0.2742229E+03  0.7818608E-02  0.1098887E+00
          1   -1    0    0  501    0  0.00000000000E+00  0.00000000000E+00  0.70782318333E+03  0.70782318333E+03  0.00000000000E+00 0. -1.
         -1   -1    0    0    0  501 -0.00000000000E+00 -0.00000000000E+00 -0.26559671606E+02  0.26559671606E+02  0.00000000000E+00 0. -1.
         35    2    1    2    0    0  0.00000000000E+00  0.00000000000E+00  0.68126351172E+03  0.73438285493E+03  0.27422291154E+03 0.  0.
         25    1    3    3    0    0  0.33074155909E+02 -0.33137004619E+02  0.46645997321E+03  0.48391824462E+03  0.12000000000E+03 0.  0.
         25    1    3    3    0    0 -0.33074155909E+02  0.33137004619E+02  0.21480353851E+03  0.25046461031E+03  0.12000000000E+03 0.  0.
<mgrwt>
<rscale>  0 0.27422291E+03</rscale>
<asrwt>0</asrwt>
<pdfrwt beam="1">  1        1 0.10889586E+00 0.27422291E+03</pdfrwt>
<pdfrwt beam="2">  1       -1 0.40861039E-02 0.27422291E+03</pdfrwt>
<totfact> 0.65878678E+03</totfact>
</mgrwt>
</event>
<event>
 5    1  0.1162308E+001  0.2722652E+03  0.7818608E-02  0.1099990E+00
          4   -1    0    0  501    0  0.00000000000E+00  0.00000000000E+00  0.14751174447E+03  0.14751174447E+03  0.00000000000E+00 0.  1.
         -4   -1    0    0    0  501 -0.00000000000E+00 -0.00000000000E+00 -0.12563123835E+03  0.12563123835E+03  0.00000000000E+00 0.  1.
         35    2    1    2    0    0  0.00000000000E+00  0.00000000000E+00  0.21880506120E+02  0.27314298282E+03  0.27226518785E+03 0.  0.
         25    1    3    3    0    0  0.63792124670E+02  0.79042404097E+01  0.11355038505E+02  0.13660471839E+03  0.12000000000E+03 0.  0.
         25    1    3    3    0    0 -0.63792124670E+02 -0.79042404097E+01  0.10525467615E+02  0.13653826443E+03  0.12000000000E+03 0.  0.
<mgrwt>
<rscale>  0 0.27226519E+03</rscale>
<asrwt>0</asrwt>
<pdfrwt beam="1">  1        4 0.22694115E-01 0.27226519E+03</pdfrwt>
<pdfrwt beam="2">  1       -4 0.19327883E-01 0.27226519E+03</pdfrwt>
<totfact> 0.80536616E+02</totfact>
</mgrwt>
</event>
<event>
 5    1  0.1162308E+001  0.2732242E+03  0.7818608E-02  0.1099448E+00
         -1   -1    0    0    0  501 -0.00000000000E+00  0.00000000000E+00  0.10019295701E+03  0.10019295701E+03  0.00000000000E+00 0. -1.
          1   -1    0    0  501    0  0.00000000000E+00 -0.00000000000E+00 -0.18626922432E+03  0.18626922432E+03  0.00000000000E+00 0. -1.
         35    2    1    2    0    0  0.00000000000E+00  0.00000000000E+00 -0.86076267319E+02  0.28646218133E+03  0.27322418915E+03 0.  0.
         25    1    3    3    0    0 -0.63380135625E+02  0.15373071498E+02 -0.39808042532E+02  0.14226051163E+03  0.12000000000E+03 0.  0.
         25    1    3    3    0    0  0.63380135625E+02 -0.15373071498E+02 -0.46268224787E+02  0.14420166970E+03  0.12000000000E+03 0.  0.
<mgrwt>
<rscale>  0 0.27322419E+03</rscale>
<asrwt>0</asrwt>
<pdfrwt beam="1">  1        1 0.28656804E-01 0.27322419E+03</pdfrwt>
<pdfrwt beam="2">  1       -1 0.15414301E-01 0.27322419E+03</pdfrwt>
<totfact> 0.49055941E+03</totfact>
</mgrwt>
</event>
<event>
 5    1  0.1162308E+001  0.2753591E+03  0.7818608E-02  0.1098251E+00
         -1   -1    0    0    0  501 -0.00000000000E+00  0.00000000000E+00  0.10219866388E+03  0.10219866388E+03  0.00000000000E+00 0.  1.
          1   -1    0    0  501    0  0.00000000000E+00 -0.00000000000E+00 -0.18547849843E+03  0.18547849843E+03  0.00000000000E+00 0.  1.
         35    2    1    2    0    0  0.00000000000E+00  0.00000000000E+00 -0.83279834542E+02  0.28767716231E+03  0.27535907262E+03 0.  0.
         25    1    3    3    0    0 -0.47311220487E+02 -0.42943583734E+02 -0.64365039162E+02  0.15041729034E+03  0.12000000000E+03 0.  0.
         25    1    3    3    0    0  0.47311220487E+02  0.42943583734E+02 -0.18914795380E+02  0.13725987197E+03  0.12000000000E+03 0.  0.
<mgrwt>
<rscale>  0 0.27535907E+03</rscale>
<asrwt>0</asrwt>
<pdfrwt beam="1">  1        1 0.28535154E-01 0.27535907E+03</pdfrwt>
<pdfrwt beam="2">  1       -1 0.15722871E-01 0.27535907E+03</pdfrwt>
<totfact> 0.47801269E+03</totfact>
</mgrwt>
</event>
<event>
 5    1  0.1162308E+001  0.2747790E+03  0.7818608E-02  0.1098575E+00
          1   -1    0    0  501    0  0.00000000000E+00  0.00000000000E+00  0.80183667507E+03  0.80183667507E+03  0.00000000000E+00 0. -1.
         -1   -1    0    0    0  501 -0.00000000000E+00 -0.00000000000E+00 -0.23540792437E+02  0.23540792437E+02  0.00000000000E+00 0. -1.
         35    2    1    2    0    0  0.00000000000E+00  0.00000000000E+00  0.77829588263E+03  0.82537746751E+03  0.27477897108E+03 0.  0.
         25    1    3    3    0    0 -0.74395115476E+01 -0.66484251400E+02  0.38732397159E+03  0.41096880780E+03  0.12000000000E+03 0.  0.
         25    1    3    3    0    0  0.74395115476E+01  0.66484251400E+02  0.39097191104E+03  0.41440865971E+03  0.12000000000E+03 0.  0.
<mgrwt>
<rscale>  0 0.27477897E+03</rscale>
<asrwt>0</asrwt>
<pdfrwt beam="1">  1        1 0.12335947E+00 0.27477897E+03</pdfrwt>
<pdfrwt beam="2">  1       -1 0.36216610E-02 0.27477897E+03</pdfrwt>
<totfact> 0.65354457E+03</totfact>
</mgrwt>
</event>
<event>
 5    1  0.1162308E+001  0.2742237E+03  0.7818608E-02  0.1098886E+00
          1   -1    0    0  501    0  0.00000000000E+00  0.00000000000E+00  0.23909569762E+03  0.23909569762E+03  0.00000000000E+00 0. -1.
         -1   -1    0    0    0  501 -0.00000000000E+00 -0.00000000000E+00 -0.78628152964E+02  0.78628152964E+02  0.00000000000E+00 0. -1.
         35    2    1    2    0    0  0.00000000000E+00  0.00000000000E+00  0.16046754466E+03  0.31772385058E+03  0.27422365387E+03 0.  0.
         25    1    3    3    0    0 -0.60974663054E+00 -0.48525596828E+02  0.13262318535E+03  0.18532138201E+03  0.12000000000E+03 0.  0.
         25    1    3    3    0    0  0.60974663054E+00  0.48525596828E+02  0.27844359302E+02  0.13240246857E+03  0.12000000000E+03 0.  0.
<mgrwt>
<rscale>  0 0.27422365E+03</rscale>
<asrwt>0</asrwt>
<pdfrwt beam="1">  1        1 0.36783953E-01 0.27422365E+03</pdfrwt>
<pdfrwt beam="2">  1       -1 0.12096639E-01 0.27422365E+03</pdfrwt>
<totfact> 0.52494357E+03</totfact>
</mgrwt>
</event>
<event>
 5    1  0.1162308E+001  0.2734505E+03  0.7818608E-02  0.1099321E+00
          1   -1    0    0  501    0  0.00000000000E+00  0.00000000000E+00  0.27001158474E+03  0.27001158474E+03  0.00000000000E+00 0.  1.
         -1   -1    0    0    0  501 -0.00000000000E+00 -0.00000000000E+00 -0.69233307878E+02  0.69233307878E+02  0.00000000000E+00 0.  1.
         35    2    1    2    0    0  0.00000000000E+00  0.00000000000E+00  0.20077827686E+03  0.33924489262E+03  0.27345050870E+03 0.  0.
         25    1    3    3    0    0  0.56214611464E+02  0.10939411944E+02  0.60883186332E+02  0.14624129257E+03  0.12000000000E+03 0.  0.
         25    1    3    3    0    0 -0.56214611464E+02 -0.10939411944E+02  0.13989509053E+03  0.19300360005E+03  0.12000000000E+03 0.  0.
<mgrwt>
<rscale>  0 0.27345051E+03</rscale>
<asrwt>0</asrwt>
<pdfrwt beam="1">  1        1 0.41540243E-01 0.27345051E+03</pdfrwt>
<pdfrwt beam="2">  1       -1 0.10651278E-01 0.27345051E+03</pdfrwt>
<totfact> 0.54931912E+03</totfact>
</mgrwt>
</event>
<event>
 5    1  0.1162308E+001  0.2755574E+03  0.7818608E-02  0.1098140E+00
          1   -1    0    0  501    0  0.00000000000E+00  0.00000000000E+00  0.76978954779E+03  0.76978954779E+03  0.00000000000E+00 0. -1.
         -1   -1    0    0    0  501 -0.00000000000E+00 -0.00000000000E+00 -0.24659943749E+02  0.24659943749E+02  0.00000000000E+00 0. -1.
         35    2    1    2    0    0  0.00000000000E+00  0.00000000000E+00  0.74512960404E+03  0.79444949154E+03  0.27555737658E+03 0.  0.
         25    1    3    3    0    0  0.33823938067E+02  0.47643383843E+02  0.27399032014E+03  0.30476982518E+03  0.12000000000E+03 0.  0.
         25    1    3    3    0    0 -0.33823938067E+02 -0.47643383843E+02  0.47113928390E+03  0.48967966636E+03  0.12000000000E+03 0.  0.
<mgrwt>
<rscale>  0 0.27555738E+03</rscale>
<asrwt>0</asrwt>
<pdfrwt beam="1">  1        1 0.11842914E+00 0.27555738E+03</pdfrwt>
<pdfrwt beam="2">  1       -1 0.37938381E-02 0.27555738E+03</pdfrwt>
<totfact> 0.64930082E+03</totfact>
</mgrwt>
</event>
<event>
 5    1  0.1162308E+001  0.2755946E+03  0.7818608E-02  0.1098120E+00
         -2   -1    0    0    0  501 -0.00000000000E+00  0.00000000000E+00  0.10800879642E+02  0.10800879642E+02  0.00000000000E+00 0.  1.
          2   -1    0    0  501    0  0.00000000000E+00 -0.00000000000E+00 -0.17580132179E+04  0.17580132179E+04  0.00000000000E+00 0.  1.
         35    2    1    2    0    0  0.00000000000E+00  0.00000000000E+00 -0.17472123382E+04  0.17688140975E+04  0.27559455130E+03 0.  0.
         25    1    3    3    0    0 -0.41690013090E+02  0.49162028466E+00 -0.12162303541E+04  0.12228469132E+04  0.12000000000E+03 0.  0.
         25    1    3    3    0    0  0.41690013090E+02 -0.49162028466E+00 -0.53098198416E+03  0.54596718435E+03  0.12000000000E+03 0.  0.
<mgrwt>
<rscale>  0 0.27559455E+03</rscale>
<asrwt>0</asrwt>
<pdfrwt beam="1">  1        2 0.27046344E+00 0.27559455E+03</pdfrwt>
<pdfrwt beam="2">  1       -2 0.16616746E-02 0.27559455E+03</pdfrwt>
<totfact> 0.10111046E+04</totfact>
</mgrwt>
</event>
<event>
 5    1  0.1162308E+001  0.2759172E+03  0.7818608E-02  0.1097940E+00
         -2   -1    0    0    0  501 -0.00000000000E+00  0.00000000000E+00  0.50918874896E+02  0.50918874896E+02  0.00000000000E+00 0.  1.
          2   -1    0    0  501    0  0.00000000000E+00 -0.00000000000E+00 -0.37378220383E+03  0.37378220383E+03  0.00000000000E+00 0.  1.
         35    2    1    2    0    0  0.00000000000E+00  0.00000000000E+00 -0.32286332894E+03  0.42470107873E+03  0.27591715623E+03 0.  0.
         25    1    3    3    0    0  0.59483305235E+02  0.88960170689E+01 -0.11238908446E+03  0.17506772697E+03  0.12000000000E+03 0.  0.
         25    1    3    3    0    0 -0.59483305235E+02 -0.88960170689E+01 -0.21047424448E+03  0.24963335176E+03  0.12000000000E+03 0.  0.
<mgrwt>
<rscale>  0 0.27591716E+03</rscale>
<asrwt>0</asrwt>
<pdfrwt beam="1">  1        2 0.57504955E-01 0.27591716E+03</pdfrwt>
<pdfrwt beam="2">  1       -2 0.78336730E-02 0.27591716E+03</pdfrwt>
<totfact> 0.83479798E+03</totfact>
</mgrwt>
</event>
<event>
 5    1  0.1162308E+001  0.2752238E+03  0.7818608E-02  0.1098327E+00
          1   -1    0    0  501    0  0.00000000000E+00  0.00000000000E+00  0.48699103256E+03  0.48699103256E+03  0.00000000000E+00 0. -1.
         -1   -1    0    0    0  501 -0.00000000000E+00 -0.00000000000E+00 -0.38885798914E+02  0.38885798914E+02  0.00000000000E+00 0. -1.
         35    2    1    2    0    0  0.00000000000E+00  0.00000000000E+00  0.44810523364E+03  0.52587683147E+03  0.27522380250E+03 0.  0.
         25    1    3    3    0    0 -0.35306018723E+02  0.47871261702E+02  0.28444065860E+03  0.31439570754E+03  0.12000000000E+03 0.  0.
         25    1    3    3    0    0  0.35306018723E+02 -0.47871261702E+02  0.16366457504E+03  0.21148112393E+03  0.12000000000E+03 0.  0.
<mgrwt>
<rscale>  0 0.27522380E+03</rscale>
<asrwt>0</asrwt>
<pdfrwt beam="1">  1        1 0.74921693E-01 0.27522380E+03</pdfrwt>
<pdfrwt beam="2">  1       -1 0.59824310E-02 0.27522380E+03</pdfrwt>
<totfact> 0.62476382E+03</totfact>
</mgrwt>
</event>
<event>
 5    1  0.1162308E+001  0.2748832E+03  0.7818608E-02  0.1098517E+00
         -1   -1    0    0    0  501 -0.00000000000E+00  0.00000000000E+00  0.54483044645E+02  0.54483044645E+02  0.00000000000E+00 0.  1.
          1   -1    0    0  501    0  0.00000000000E+00 -0.00000000000E+00 -0.34671686396E+03  0.34671686396E+03  0.00000000000E+00 0.  1.
         35    2    1    2    0    0  0.00000000000E+00  0.00000000000E+00 -0.29223381932E+03  0.40119990861E+03  0.27488317794E+03 0.  0.
         25    1    3    3    0    0 -0.44352894409E+02 -0.50165304182E+02 -0.14240919158E+03  0.19789925425E+03  0.12000000000E+03 0.  0.
         25    1    3    3    0    0  0.44352894409E+02  0.50165304182E+02 -0.14982462774E+03  0.20330065436E+03  0.12000000000E+03 0.  0.
<mgrwt>
<rscale>  0 0.27488318E+03</rscale>
<asrwt>0</asrwt>
<pdfrwt beam="1">  1        1 0.53341055E-01 0.27488318E+03</pdfrwt>
<pdfrwt beam="2">  1       -1 0.83820071E-02 0.27488318E+03</pdfrwt>
<totfact> 0.58004262E+03</totfact>
</mgrwt>
</event>
<event>
 5    1  0.1162308E+001  0.2750924E+03  0.7818608E-02  0.1098400E+00
         -2   -1    0    0    0  501 -0.00000000000E+00  0.00000000000E+00  0.66908304603E+01  0.66908304603E+01  0.00000000000E+00 0. -1.
          2   -1    0    0  501    0  0.00000000000E+00 -0.00000000000E+00 -0.28275943828E+04  0.28275943828E+04  0.00000000000E+00 0. -1.
         35    2    1    2    0    0  0.00000000000E+00  0.00000000000E+00 -0.28209035524E+04  0.28342852133E+04  0.27509238176E+03 0.  0.
         25    1    3    3    0    0 -0.31820279143E+02 -0.29216353981E+02 -0.19411157755E+04  0.19453011539E+04  0.12000000000E+03 0.  0.
         25    1    3    3    0    0  0.31820279143E+02  0.29216353981E+02 -0.87978777687E+03  0.88898405938E+03  0.12000000000E+03 0.  0.
<mgrwt>
<rscale>  0 0.27509238E+03</rscale>
<asrwt>0</asrwt>
<pdfrwt beam="1">  1        2 0.43501338E+00 0.27509238E+03</pdfrwt>
<pdfrwt beam="2">  1       -2 0.10293612E-02 0.27509238E+03</pdfrwt>
<totfact> 0.53702135E+03</totfact>
</mgrwt>
</event>
<event>
 5    1  0.1162308E+001  0.2756204E+03  0.7818608E-02  0.1098105E+00
          2   -1    0    0  501    0  0.00000000000E+00  0.00000000000E+00  0.14941817814E+04  0.14941817814E+04  0.00000000000E+00 0.  1.
         -2   -1    0    0    0  501 -0.00000000000E+00 -0.00000000000E+00 -0.12710401249E+02  0.12710401249E+02  0.00000000000E+00 0.  1.
         35    2    1    2    0    0  0.00000000000E+00  0.00000000000E+00  0.14814713801E+04  0.15068921826E+04  0.27562039098E+03 0.  0.
         25    1    3    3    0    0  0.27537609534E+02 -0.34296648445E+02  0.10225560266E+04  0.10305122064E+04  0.12000000000E+03 0.  0.
         25    1    3    3    0    0 -0.27537609534E+02  0.34296648445E+02  0.45891535356E+03  0.47637997625E+03  0.12000000000E+03 0.  0.
<mgrwt>
<rscale>  0 0.27562039E+03</rscale>
<asrwt>0</asrwt>
<pdfrwt beam="1">  1        2 0.22987398E+00 0.27562039E+03</pdfrwt>
<pdfrwt beam="2">  1       -2 0.19554475E-02 0.27562039E+03</pdfrwt>
<totfact> 0.10982771E+04</totfact>
</mgrwt>
</event>
<event>
 5    1  0.1162308E+001  0.2750009E+03  0.7818608E-02  0.1098451E+00
         -3   -1    0    0    0  501 -0.00000000000E+00  0.00000000000E+00  0.36651317108E+03  0.36651317108E+03  0.00000000000E+00 0. -1.
          3   -1    0    0  501    0  0.00000000000E+00 -0.00000000000E+00 -0.51584428612E+02  0.51584428612E+02  0.00000000000E+00 0. -1.
         35    2    1    2    0    0  0.00000000000E+00  0.00000000000E+00  0.31492874246E+03  0.41809759969E+03  0.27500089097E+03 0.  0.
         25    1    3    3    0    0 -0.23171260537E+02 -0.41760782781E+02  0.22918722955E+03  0.26307348114E+03  0.12000000000E+03 0.  0.
         25    1    3    3    0    0  0.23171260537E+02  0.41760782781E+02  0.85741512916E+02  0.15502411854E+03  0.12000000000E+03 0.  0.
<mgrwt>
<rscale>  0 0.27500089E+03</rscale>
<asrwt>0</asrwt>
<pdfrwt beam="1">  1        3 0.79360662E-02 0.27500089E+03</pdfrwt>
<pdfrwt beam="2">  1       -3 0.56386640E-01 0.27500089E+03</pdfrwt>
<totfact> 0.85965829E+02</totfact>
</mgrwt>
</event>
<event>
 5    1  0.1162308E+001  0.2751569E+03  0.7818608E-02  0.1098364E+00
         -1   -1    0    0    0  501 -0.00000000000E+00  0.00000000000E+00  0.39782877658E+02  0.39782877658E+02  0.00000000000E+00 0.  1.
          1   -1    0    0  501    0  0.00000000000E+00 -0.00000000000E+00 -0.47577843849E+03  0.47577843849E+03  0.00000000000E+00 0.  1.
         35    2    1    2    0    0  0.00000000000E+00  0.00000000000E+00 -0.43599556084E+03  0.51556131615E+03  0.27515694002E+03 0.  0.
         25    1    3    3    0    0 -0.21287959041E+02 -0.41277423440E+02 -0.12676513019E+03  0.18062779719E+03  0.12000000000E+03 0.  0.
         25    1    3    3    0    0  0.21287959041E+02  0.41277423440E+02 -0.30923043064E+03  0.33493351896E+03  0.12000000000E+03 0.  0.
<mgrwt>
<rscale>  0 0.27515694E+03</rscale>
<asrwt>0</asrwt>
<pdfrwt beam="1">  1        1 0.73196687E-01 0.27515694E+03</pdfrwt>
<pdfrwt beam="2">  1       -1 0.61204423E-02 0.27515694E+03</pdfrwt>
<totfact> 0.62245873E+03</totfact>
</mgrwt>
</event>
<event>
 5    1  0.1162308E+001  0.2756871E+03  0.7818608E-02  0.1098068E+00
          2   -1    0    0  501    0  0.00000000000E+00  0.00000000000E+00  0.25680710191E+04  0.25680710191E+04  0.00000000000E+00 0.  1.
         -2   -1    0    0    0  501 -0.00000000000E+00 -0.00000000000E+00 -0.73988762749E+01  0.73988762749E+01  0.00000000000E+00 0.  1.
         35    2    1    2    0    0  0.00000000000E+00  0.00000000000E+00  0.25606721429E+04  0.25754698954E+04  0.27568706706E+03 0.  0.
         25    1    3    3    0    0 -0.36420194890E+01  0.60509296419E+02  0.99602577720E+03  0.10050582013E+04  0.12000000000E+03 0.  0.
         25    1    3    3    0    0  0.36420194890E+01 -0.60509296419E+02  0.15646463657E+04  0.15704116941E+04  0.12000000000E+03 0.  0.
<mgrwt>
<rscale>  0 0.27568707E+03</rscale>
<asrwt>0</asrwt>
<pdfrwt beam="1">  1        2 0.39508714E+00 0.27568707E+03</pdfrwt>
<pdfrwt beam="2">  1       -2 0.11382907E-02 0.27568707E+03</pdfrwt>
<totfact> 0.64959824E+03</totfact>
</mgrwt>
</event>
<event>
 5    1  0.1162308E+001  0.2806432E+03  0.7818608E-02  0.1095338E+00
         -2   -1    0    0    0  501 -0.00000000000E+00  0.00000000000E+00  0.27681121884E+02  0.27681121884E+02  0.00000000000E+00 0.  1.
          2   -1    0    0  501    0  0.00000000000E+00 -0.00000000000E+00 -0.71132074685E+03  0.71132074685E+03  0.00000000000E+00 0.  1.
         35    2    1    2    0    0  0.00000000000E+00  0.00000000000E+00 -0.68363962497E+03  0.73900186873E+03  0.28064323467E+03 0.  0.
         25    1    3    3    0    0 -0.68080284355E+02 -0.18421830597E+02 -0.38861953898E+03  0.41279466450E+03  0.12000000000E+03 0.  0.
         25    1    3    3    0    0  0.68080284355E+02  0.18421830597E+02 -0.29502008599E+03  0.32620720424E+03  0.12000000000E+03 0.  0.
<mgrwt>
<rscale>  0 0.28064323E+03</rscale>
<asrwt>0</asrwt>
<pdfrwt beam="1">  1        2 0.10943396E+00 0.28064323E+03</pdfrwt>
<pdfrwt beam="2">  1       -2 0.42586344E-02 0.28064323E+03</pdfrwt>
<totfact> 0.10249550E+04</totfact>
</mgrwt>
</event>
<event>
 5    1  0.1162308E+001  0.2754481E+03  0.7818608E-02  0.1098201E+00
         -2   -1    0    0    0  501 -0.00000000000E+00  0.00000000000E+00  0.12362111711E+02  0.12362111711E+02  0.00000000000E+00 0.  1.
          2   -1    0    0  501    0  0.00000000000E+00 -0.00000000000E+00 -0.15343583851E+04  0.15343583851E+04  0.00000000000E+00 0.  1.
         35    2    1    2    0    0  0.00000000000E+00  0.00000000000E+00 -0.15219962733E+04  0.15467204968E+04  0.27544806960E+03 0.  0.
         25    1    3    3    0    0 -0.18955369813E+02 -0.17832533063E+02 -0.11112501569E+04  0.11180135136E+04  0.12000000000E+03 0.  0.
         25    1    3    3    0    0  0.18955369813E+02  0.17832533063E+02 -0.41074611642E+03  0.42870698318E+03  0.12000000000E+03 0.  0.
<mgrwt>
<rscale>  0 0.27544807E+03</rscale>
<asrwt>0</asrwt>
<pdfrwt beam="1">  1        2 0.23605523E+00 0.27544807E+03</pdfrwt>
<pdfrwt beam="2">  1       -2 0.19018626E-02 0.27544807E+03</pdfrwt>
<totfact> 0.10888621E+04</totfact>
</mgrwt>
</event>
<event>
 5    1  0.1162308E+001  0.2779041E+03  0.7818608E-02  0.1096839E+00
          2   -1    0    0  501    0  0.00000000000E+00  0.00000000000E+00  0.14286123848E+03  0.14286123848E+03  0.00000000000E+00 0. -1.
         -2   -1    0    0    0  501 -0.00000000000E+00 -0.00000000000E+00 -0.13514981635E+03  0.13514981635E+03  0.00000000000E+00 0. -1.
         35    2    1    2    0    0  0.00000000000E+00  0.00000000000E+00  0.77114221292E+01  0.27801105483E+03  0.27790408521E+03 0.  0.
         25    1    3    3    0    0 -0.66247723570E+02 -0.37111461029E+01  0.26339607640E+02  0.13962918181E+03  0.12000000000E+03 0.  0.
         25    1    3    3    0    0  0.66247723570E+02  0.37111461029E+01 -0.18628185511E+02  0.13838187301E+03  0.12000000000E+03 0.  0.
<mgrwt>
<rscale>  0 0.27790409E+03</rscale>
<asrwt>0</asrwt>
<pdfrwt beam="1">  1        2 0.21978652E-01 0.27790409E+03</pdfrwt>
<pdfrwt beam="2">  1       -2 0.20792279E-01 0.27790409E+03</pdfrwt>
<totfact> 0.48649707E+03</totfact>
</mgrwt>
</event>
<event>
 5    1  0.1162308E+001  0.2754117E+03  0.7818608E-02  0.1098222E+00
         -1   -1    0    0    0  501 -0.00000000000E+00  0.00000000000E+00  0.12086737634E+03  0.12086737634E+03  0.00000000000E+00 0. -1.
          1   -1    0    0  501    0  0.00000000000E+00 -0.00000000000E+00 -0.15689012817E+03  0.15689012817E+03  0.00000000000E+00 0. -1.
         35    2    1    2    0    0  0.00000000000E+00  0.00000000000E+00 -0.36022751834E+02  0.27775750451E+03  0.27541167852E+03 0.  0.
         25    1    3    3    0    0  0.63884818033E+02 -0.19439525156E+02 -0.77396829609E+01  0.13754660231E+03  0.12000000000E+03 0.  0.
         25    1    3    3    0    0 -0.63884818033E+02  0.19439525156E+02 -0.28283068873E+02  0.14021090221E+03  0.12000000000E+03 0.  0.
<mgrwt>
<rscale>  0 0.27541168E+03</rscale>
<asrwt>0</asrwt>
<pdfrwt beam="1">  1        1 0.24136943E-01 0.27541168E+03</pdfrwt>
<pdfrwt beam="2">  1       -1 0.18594981E-01 0.27541168E+03</pdfrwt>
<totfact> 0.45177925E+03</totfact>
</mgrwt>
</event>
<event>
 5    1  0.1162308E+001  0.2752278E+03  0.7818608E-02  0.1098324E+00
          2   -1    0    0  501    0  0.00000000000E+00  0.00000000000E+00  0.18500145266E+02  0.18500145266E+02  0.00000000000E+00 0. -1.
         -2   -1    0    0    0  501 -0.00000000000E+00 -0.00000000000E+00 -0.10236454628E+04  0.10236454628E+04  0.00000000000E+00 0. -1.
         35    2    1    2    0    0  0.00000000000E+00  0.00000000000E+00 -0.10051453176E+04  0.10421456081E+04  0.27522783117E+03 0.  0.
         25    1    3    3    0    0  0.35656017607E+02 -0.56384032359E+02 -0.53790666958E+03  0.55515231773E+03  0.12000000000E+03 0.  0.
         25    1    3    3    0    0 -0.35656017607E+02  0.56384032359E+02 -0.46723864800E+03  0.48699329038E+03  0.12000000000E+03 0.  0.
<mgrwt>
<rscale>  0 0.27522783E+03</rscale>
<asrwt>0</asrwt>
<pdfrwt beam="1">  1        2 0.28461759E-02 0.27522783E+03</pdfrwt>
<pdfrwt beam="2">  1       -2 0.15748393E+00 0.27522783E+03</pdfrwt>
<totfact> 0.94042131E+02</totfact>
</mgrwt>
</event>
<event>
 5    1  0.1162308E+001  0.2755121E+03  0.7818608E-02  0.1098166E+00
          1   -1    0    0  501    0  0.00000000000E+00  0.00000000000E+00  0.50624712941E+03  0.50624712941E+03  0.00000000000E+00 0. -1.
         -1   -1    0    0    0  501 -0.00000000000E+00 -0.00000000000E+00 -0.37485105672E+02  0.37485105672E+02  0.00000000000E+00 0. -1.
         35    2    1    2    0    0  0.00000000000E+00  0.00000000000E+00  0.46876202374E+03  0.54373223508E+03  0.27551208425E+03 0.  0.
         25    1    3    3    0    0 -0.43755596098E+02  0.19925599573E+02  0.14045357437E+03  0.19088946608E+03  0.12000000000E+03 0.  0.
         25    1    3    3    0    0  0.43755596098E+02 -0.19925599573E+02  0.32830844937E+03  0.35284276900E+03  0.12000000000E+03 0.  0.
<mgrwt>
<rscale>  0 0.27551208E+03</rscale>
<asrwt>0</asrwt>
<pdfrwt beam="1">  1        1 0.77884169E-01 0.27551208E+03</pdfrwt>
<pdfrwt beam="2">  1       -1 0.57669397E-02 0.27551208E+03</pdfrwt>
<totfact> 0.62718214E+03</totfact>
</mgrwt>
</event>
<event>
 5    1  0.1162308E+001  0.2755126E+03  0.7818608E-02  0.1098165E+00
          4   -1    0    0  501    0  0.00000000000E+00  0.00000000000E+00  0.97837347290E+01  0.97837347290E+01  0.00000000000E+00 0. -1.
         -4   -1    0    0    0  501 -0.00000000000E+00 -0.00000000000E+00 -0.19396272485E+04  0.19396272485E+04  0.00000000000E+00 0. -1.
         35    2    1    2    0    0  0.00000000000E+00  0.00000000000E+00 -0.19298435138E+04  0.19494109832E+04  0.27551260205E+03 0.  0.
         25    1    3    3    0    0  0.34038229559E+02 -0.52992401025E+02 -0.79016745854E+03  0.80170531255E+03  0.12000000000E+03 0.  0.
         25    1    3    3    0    0 -0.34038229559E+02  0.52992401025E+02 -0.11396760552E+04  0.11477056707E+04  0.12000000000E+03 0.  0.
<mgrwt>
<rscale>  0 0.27551260E+03</rscale>
<asrwt>0</asrwt>
<pdfrwt beam="1">  1        4 0.15051901E-02 0.27551260E+03</pdfrwt>
<pdfrwt beam="2">  1       -4 0.29840416E+00 0.27551260E+03</pdfrwt>
<totfact> 0.10916967E+02</totfact>
</mgrwt>
</event>
<event>
 5    1  0.1162308E+001  0.2746992E+03  0.7818608E-02  0.1098620E+00
          1   -1    0    0  501    0  0.00000000000E+00  0.00000000000E+00  0.27288121662E+03  0.27288121662E+03  0.00000000000E+00 0. -1.
         -1   -1    0    0    0  501 -0.00000000000E+00 -0.00000000000E+00 -0.69132323815E+02  0.69132323815E+02  0.00000000000E+00 0. -1.
         35    2    1    2    0    0  0.00000000000E+00  0.00000000000E+00  0.20374889280E+03  0.34201354043E+03  0.27469920007E+03 0.  0.
         25    1    3    3    0    0  0.54010042851E+02  0.12505091835E+02  0.55431496324E+02  0.14333915318E+03  0.12000000000E+03 0.  0.
         25    1    3    3    0    0 -0.54010042851E+02 -0.12505091835E+02  0.14831739648E+03  0.19867438725E+03  0.12000000000E+03 0.  0.
<mgrwt>
<rscale>  0 0.27469920E+03</rscale>
<asrwt>0</asrwt>
<pdfrwt beam="1">  1        1 0.41981725E-01 0.27469920E+03</pdfrwt>
<pdfrwt beam="2">  1       -1 0.10635742E-01 0.27469920E+03</pdfrwt>
<totfact> 0.54339157E+03</totfact>
</mgrwt>
</event>
<event>
 4    1  0.1162308E+001  0.2528700E+03  0.7818608E-02  0.1111504E+00
          1   -1    0    0  501    0  0.00000000000E+00  0.00000000000E+00  0.19655873707E+02  0.19655873707E+02  0.00000000000E+00 0. -1.
         -1   -1    0    0    0  501 -0.00000000000E+00 -0.00000000000E+00 -0.81328423923E+03  0.81328423923E+03  0.00000000000E+00 0. -1.
         25    1    1    2    0    0  0.34126752624E+02 -0.35737960964E+01 -0.46338164013E+03  0.47989577167E+03  0.12000000000E+03 0.  0.
         25    1    1    2    0    0 -0.34126752624E+02  0.35737960964E+01 -0.33024672539E+03  0.35304434126E+03  0.12000000000E+03 0.  0.
<mgrwt>
<rscale>  0 0.25287002E+03</rscale>
<asrwt>0</asrwt>
<pdfrwt beam="1">  1        1 0.30239810E-02 0.25287002E+03</pdfrwt>
<pdfrwt beam="2">  1       -1 0.12512064E+00 0.25287002E+03</pdfrwt>
<totfact> 0.20079282E+03</totfact>
</mgrwt>
</event>
<event>
 5    1  0.1162308E+001  0.2748819E+03  0.7818608E-02  0.1098518E+00
          1   -1    0    0  501    0  0.00000000000E+00  0.00000000000E+00  0.11793452247E+03  0.11793452247E+03  0.00000000000E+00 0. -1.
         -1   -1    0    0    0  501 -0.00000000000E+00 -0.00000000000E+00 -0.16017377133E+03  0.16017377133E+03  0.00000000000E+00 0. -1.
         35    2    1    2    0    0  0.00000000000E+00  0.00000000000E+00 -0.42239248852E+02  0.27810829380E+03  0.27488191817E+03 0.  0.
         25    1    3    3    0    0 -0.14113281839E+02  0.37587638722E+02 -0.75396308571E+02  0.14729772115E+03  0.12000000000E+03 0.  0.
         25    1    3    3    0    0  0.14113281839E+02 -0.37587638722E+02  0.33157059719E+02  0.13081057265E+03  0.12000000000E+03 0.  0.
<mgrwt>
<rscale>  0 0.27488192E+03</rscale>
<asrwt>0</asrwt>
<pdfrwt beam="1">  1        1 0.18143773E-01 0.27488192E+03</pdfrwt>
<pdfrwt beam="2">  1       -1 0.24642118E-01 0.27488192E+03</pdfrwt>
<totfact> 0.41121143E+03</totfact>
</mgrwt>
</event>
<event>
 5    1  0.1162308E+001  0.2749271E+03  0.7818608E-02  0.1098492E+00
         -2   -1    0    0    0  501 -0.00000000000E+00  0.00000000000E+00  0.20148710193E+02  0.20148710193E+02  0.00000000000E+00 0.  1.
          2   -1    0    0  501    0  0.00000000000E+00 -0.00000000000E+00 -0.93783803736E+03  0.93783803736E+03  0.00000000000E+00 0.  1.
         35    2    1    2    0    0  0.00000000000E+00  0.00000000000E+00 -0.91768932717E+03  0.95798674755E+03  0.27492709450E+03 0.  0.
         25    1    3    3    0    0  0.39380560905E+02  0.19031697301E+02 -0.63594539910E+03  0.64864442087E+03  0.12000000000E+03 0.  0.
         25    1    3    3    0    0 -0.39380560905E+02 -0.19031697301E+02 -0.28174392806E+03  0.30934232669E+03  0.12000000000E+03 0.  0.
<mgrwt>
<rscale>  0 0.27492709E+03</rscale>
<asrwt>0</asrwt>
<pdfrwt beam="1">  1        2 0.14428275E+00 0.27492709E+03</pdfrwt>
<pdfrwt beam="2">  1       -2 0.30998021E-02 0.27492709E+03</pdfrwt>
<totfact> 0.11551952E+04</totfact>
</mgrwt>
</event>
<event>
 5    1  0.1162308E+001  0.2735928E+03  0.7818608E-02  0.1099241E+00
         -1   -1    0    0    0  501 -0.00000000000E+00  0.00000000000E+00  0.17964694305E+04  0.17964694305E+04  0.00000000000E+00 0.  1.
          1   -1    0    0  501    0  0.00000000000E+00 -0.00000000000E+00 -0.10416681138E+02  0.10416681138E+02  0.00000000000E+00 0.  1.
         35    2    1    2    0    0  0.00000000000E+00  0.00000000000E+00  0.17860527493E+04  0.18068861116E+04  0.27359275744E+03 0.  0.
         25    1    3    3    0    0 -0.47260737744E+02 -0.36898901450E+02  0.71604333896E+03  0.72850063111E+03  0.12000000000E+03 0.  0.
         25    1    3    3    0    0  0.47260737744E+02  0.36898901450E+02  0.10700094104E+04  0.10783854805E+04  0.12000000000E+03 0.  0.
<mgrwt>
<rscale>  0 0.27359276E+03</rscale>
<asrwt>0</asrwt>
<pdfrwt beam="1">  1        1 0.16025678E-02 0.27359276E+03</pdfrwt>
<pdfrwt beam="2">  1       -1 0.27637967E+00 0.27359276E+03</pdfrwt>
<totfact> 0.44920547E+02</totfact>
</mgrwt>
</event>
<event>
 5    1  0.1162308E+001  0.2756469E+03  0.7818608E-02  0.1098091E+00
         -1   -1    0    0    0  501 -0.00000000000E+00  0.00000000000E+00  0.12252513847E+03  0.12252513847E+03  0.00000000000E+00 0. -1.
          1   -1    0    0  501    0  0.00000000000E+00 -0.00000000000E+00 -0.15503193540E+03  0.15503193540E+03  0.00000000000E+00 0. -1.
         35    2    1    2    0    0  0.00000000000E+00  0.00000000000E+00 -0.32506796936E+02  0.27755707387E+03  0.27564694340E+03 0.  0.
         25    1    3    3    0    0 -0.26398688677E+02 -0.89505299379E+01 -0.78474044850E+02  0.14606566491E+03  0.12000000000E+03 0.  0.
         25    1    3    3    0    0  0.26398688677E+02  0.89505299379E+01  0.45967247913E+02  0.13149140896E+03  0.12000000000E+03 0.  0.
<mgrwt>
<rscale>  0 0.27564694E+03</rscale>
<asrwt>0</asrwt>
<pdfrwt beam="1">  1        1 0.23851067E-01 0.27564694E+03</pdfrwt>
<pdfrwt beam="2">  1       -1 0.18850021E-01 0.27564694E+03</pdfrwt>
<totfact> 0.44872330E+03</totfact>
</mgrwt>
</event>
<event>
 5    1  0.1162308E+001  0.2753144E+03  0.7818608E-02  0.1098276E+00
         -2   -1    0    0    0  501 -0.00000000000E+00  0.00000000000E+00  0.15139659016E+02  0.15139659016E+02  0.00000000000E+00 0.  1.
          2   -1    0    0  501    0  0.00000000000E+00 -0.00000000000E+00 -0.12516471355E+04  0.12516471355E+04  0.00000000000E+00 0.  1.
         35    2    1    2    0    0  0.00000000000E+00  0.00000000000E+00 -0.12365074765E+04  0.12667867945E+04  0.27531444451E+03 0.  0.
         25    1    3    3    0    0  0.54340925733E+02  0.31265456231E+02 -0.50377207050E+03  0.52164812276E+03  0.12000000000E+03 0.  0.
         25    1    3    3    0    0 -0.54340925733E+02 -0.31265456231E+02 -0.73273540597E+03  0.74513867174E+03  0.12000000000E+03 0.  0.
<mgrwt>
<rscale>  0 0.27531444E+03</rscale>
<asrwt>0</asrwt>
<pdfrwt beam="1">  1        2 0.19256110E+00 0.27531444E+03</pdfrwt>
<pdfrwt beam="2">  1       -2 0.23291783E-02 0.27531444E+03</pdfrwt>
<totfact> 0.11515784E+04</totfact>
</mgrwt>
</event>
<event>
 5    1  0.1162308E+001  0.2754262E+03  0.7818608E-02  0.1098214E+00
         -2   -1    0    0    0  501 -0.00000000000E+00  0.00000000000E+00  0.30267066471E+02  0.30267066471E+02  0.00000000000E+00 0.  1.
          2   -1    0    0  501    0  0.00000000000E+00 -0.00000000000E+00 -0.62658520576E+03  0.62658520576E+03  0.00000000000E+00 0.  1.
         35    2    1    2    0    0  0.00000000000E+00  0.00000000000E+00 -0.59631813929E+03  0.65685227223E+03  0.27542618665E+03 0.  0.
         25    1    3    3    0    0 -0.62464491112E+02 -0.10702444136E+02 -0.35401471433E+03  0.37913424129E+03  0.12000000000E+03 0.  0.
         25    1    3    3    0    0  0.62464491112E+02  0.10702444136E+02 -0.24230342496E+03  0.27771803094E+03  0.12000000000E+03 0.  0.
<mgrwt>
<rscale>  0 0.27542619E+03</rscale>
<asrwt>0</asrwt>
<pdfrwt beam="1">  1        2 0.96397723E-01 0.27542619E+03</pdfrwt>
<pdfrwt beam="2">  1       -2 0.46564718E-02 0.27542619E+03</pdfrwt>
<totfact> 0.10415963E+04</totfact>
</mgrwt>
</event>
<event>
 5    1  0.1162308E+001  0.2749587E+03  0.7818608E-02  0.1098475E+00
         -2   -1    0    0    0  501 -0.00000000000E+00  0.00000000000E+00  0.14291281724E+02  0.14291281724E+02  0.00000000000E+00 0. -1.
          2   -1    0    0  501    0  0.00000000000E+00 -0.00000000000E+00 -0.13225243569E+04  0.13225243569E+04  0.00000000000E+00 0. -1.
         35    2    1    2    0    0  0.00000000000E+00  0.00000000000E+00 -0.13082330752E+04  0.13368156387E+04  0.27495867451E+03 0.  0.
         25    1    3    3    0    0  0.23953465391E+02  0.55332059305E+02 -0.51111094206E+03  0.52845983800E+03  0.12000000000E+03 0.  0.
         25    1    3    3    0    0 -0.23953465391E+02 -0.55332059305E+02 -0.79712213316E+03  0.80835580066E+03  0.12000000000E+03 0.  0.
<mgrwt>
<rscale>  0 0.27495867E+03</rscale>
<asrwt>0</asrwt>
<pdfrwt beam="1">  1        2 0.20346538E+00 0.27495867E+03</pdfrwt>
<pdfrwt beam="2">  1       -2 0.21986577E-02 0.27495867E+03</pdfrwt>
<totfact> 0.11451664E+04</totfact>
</mgrwt>
</event>
<event>
 5    1  0.1162308E+001  0.2750091E+03  0.7818608E-02  0.1098447E+00
          1   -1    0    0  501    0  0.00000000000E+00  0.00000000000E+00  0.15417497607E+02  0.15417497607E+02  0.00000000000E+00 0.  1.
         -1   -1    0    0    0  501 -0.00000000000E+00 -0.00000000000E+00 -0.12263663688E+04  0.12263663688E+04  0.00000000000E+00 0.  1.
         35    2    1    2    0    0  0.00000000000E+00  0.00000000000E+00 -0.12109488711E+04  0.12417838664E+04  0.27500909480E+03 0.  0.
         25    1    3    3    0    0 -0.41476215531E+02 -0.16989757346E+02 -0.37976749590E+03  0.40078956979E+03  0.12000000000E+03 0.  0.
         25    1    3    3    0    0  0.41476215531E+02  0.16989757346E+02 -0.83118137524E+03  0.84099429657E+03  0.12000000000E+03 0.  0.
<mgrwt>
<rscale>  0 0.27500909E+03</rscale>
<asrwt>0</asrwt>
<pdfrwt beam="1">  1        1 0.23719227E-02 0.27500909E+03</pdfrwt>
<pdfrwt beam="2">  1       -1 0.18867175E+00 0.27500909E+03</pdfrwt>
<totfact> 0.94632138E+02</totfact>
</mgrwt>
</event>
<event>
 5    1  0.1162308E+001  0.2752359E+03  0.7818608E-02  0.1098320E+00
         -2   -1    0    0    0  501 -0.00000000000E+00  0.00000000000E+00  0.25566868459E+03  0.25566868459E+03  0.00000000000E+00 0.  1.
          2   -1    0    0  501    0  0.00000000000E+00 -0.00000000000E+00 -0.74075144510E+02  0.74075144510E+02  0.00000000000E+00 0.  1.
         35    2    1    2    0    0  0.00000000000E+00  0.00000000000E+00  0.18159354008E+03  0.32974382909E+03  0.27523586072E+03 0.  0.
         25    1    3    3    0    0  0.10809048403E+02  0.34681993934E+02  0.15876929409E+03  0.20230512840E+03  0.12000000000E+03 0.  0.
         25    1    3    3    0    0 -0.10809048403E+02 -0.34681993934E+02  0.22824245988E+02  0.12743870070E+03  0.12000000000E+03 0.  0.
<mgrwt>
<rscale>  0 0.27523586E+03</rscale>
<asrwt>0</asrwt>
<pdfrwt beam="1">  1        2 0.11396176E-01 0.27523586E+03</pdfrwt>
<pdfrwt beam="2">  1       -2 0.39333644E-01 0.27523586E+03</pdfrwt>
<totfact> 0.33359018E+03</totfact>
</mgrwt>
</event>
<event>
 5    1  0.1162308E+001  0.2747241E+03  0.7818608E-02  0.1098606E+00
         -2   -1    0    0    0  501 -0.00000000000E+00  0.00000000000E+00  0.73163111942E+02  0.73163111942E+02  0.00000000000E+00 0. -1.
          2   -1    0    0  501    0  0.00000000000E+00 -0.00000000000E+00 -0.25789409443E+03  0.25789409443E+03  0.00000000000E+00 0. -1.
         35    2    1    2    0    0  0.00000000000E+00  0.00000000000E+00 -0.18473098249E+03  0.33105720637E+03  0.27472411252E+03 0.  0.
         25    1    3    3    0    0 -0.11821440405E+02  0.65788724897E+02 -0.93157279170E+02  0.16597042339E+03  0.12000000000E+03 0.  0.
         25    1    3    3    0    0  0.11821440405E+02 -0.65788724897E+02 -0.91573703319E+02  0.16508678298E+03  0.12000000000E+03 0.  0.
<mgrwt>
<rscale>  0 0.27472411E+03</rscale>
<asrwt>0</asrwt>
<pdfrwt beam="1">  1        2 0.39676015E-01 0.27472411E+03</pdfrwt>
<pdfrwt beam="2">  1       -2 0.11255863E-01 0.27472411E+03</pdfrwt>
<totfact> 0.70170498E+03</totfact>
</mgrwt>
</event>
<event>
 5    1  0.1162308E+001  0.2745948E+03  0.7818608E-02  0.1098678E+00
         -1   -1    0    0    0  501 -0.00000000000E+00  0.00000000000E+00  0.37767352949E+03  0.37767352949E+03  0.00000000000E+00 0.  1.
          1   -1    0    0  501    0  0.00000000000E+00 -0.00000000000E+00 -0.49912372305E+02  0.49912372305E+02  0.00000000000E+00 0.  1.
         35    2    1    2    0    0  0.00000000000E+00  0.00000000000E+00  0.32776115718E+03  0.42758590179E+03  0.27459484200E+03 0.  0.
         25    1    3    3    0    0  0.50251687736E+02  0.38670658726E+02  0.13159342198E+03  0.18904359464E+03  0.12000000000E+03 0.  0.
         25    1    3    3    0    0 -0.50251687736E+02 -0.38670658726E+02  0.19616773520E+03  0.23854230715E+03  0.12000000000E+03 0.  0.
<mgrwt>
<rscale>  0 0.27459484E+03</rscale>
<asrwt>0</asrwt>
<pdfrwt beam="1">  1        1 0.76788267E-02 0.27459484E+03</pdfrwt>
<pdfrwt beam="2">  1       -1 0.58103618E-01 0.27459484E+03</pdfrwt>
<totfact> 0.28347127E+03</totfact>
</mgrwt>
</event>
<event>
 5    1  0.1162308E+001  0.2759190E+03  0.7818608E-02  0.1097939E+00
          1   -1    0    0  501    0  0.00000000000E+00  0.00000000000E+00  0.28684614479E+04  0.28684614479E+04  0.00000000000E+00 0.  1.
         -1   -1    0    0    0  501 -0.00000000000E+00 -0.00000000000E+00 -0.66352036828E+01  0.66352036828E+01  0.00000000000E+00 0.  1.
         35    2    1    2    0    0  0.00000000000E+00  0.00000000000E+00  0.28618262442E+04  0.28750966515E+04  0.27591901684E+03 0.  0.
         25    1    3    3    0    0 -0.61989671639E+02  0.28089569583E+02  0.14200709681E+04  0.14267562153E+04  0.12000000000E+03 0.  0.
         25    1    3    3    0    0  0.61989671639E+02 -0.28089569583E+02  0.14417552760E+04  0.14483404362E+04  0.12000000000E+03 0.  0.
<mgrwt>
<rscale>  0 0.27591902E+03</rscale>
<asrwt>0</asrwt>
<pdfrwt beam="1">  1        1 0.44130077E+00 0.27591902E+03</pdfrwt>
<pdfrwt beam="2">  1       -1 0.10208029E-02 0.27591902E+03</pdfrwt>
<totfact> 0.16307082E+03</totfact>
</mgrwt>
</event>
<event>
 5    1  0.1162308E+001  0.2841179E+03  0.7818608E-02  0.1093461E+00
          4   -1    0    0  501    0  0.00000000000E+00  0.00000000000E+00  0.31413673489E+03  0.31413673489E+03  0.00000000000E+00 0.  1.
         -4   -1    0    0    0  501 -0.00000000000E+00 -0.00000000000E+00 -0.64241936049E+02  0.64241936049E+02  0.00000000000E+00 0.  1.
         35    2    1    2    0    0  0.00000000000E+00  0.00000000000E+00  0.24989479884E+03  0.37837867094E+03  0.28411794758E+03 0.  0.
         25    1    3    3    0    0 -0.63321838685E+02  0.26647958044E+02  0.16832666691E+03  0.21783855424E+03  0.12000000000E+03 0.  0.
         25    1    3    3    0    0  0.63321838685E+02 -0.26647958044E+02  0.81568131938E+02  0.16054011670E+03  0.12000000000E+03 0.  0.
<mgrwt>
<rscale>  0 0.28411795E+03</rscale>
<asrwt>0</asrwt>
<pdfrwt beam="1">  1        4 0.48328727E-01 0.28411795E+03</pdfrwt>
<pdfrwt beam="2">  1       -4 0.98833750E-02 0.28411795E+03</pdfrwt>
<totfact> 0.60580975E+02</totfact>
</mgrwt>
</event>
<event>
 5    1  0.1162308E+001  0.2751850E+03  0.7818608E-02  0.1098348E+00
         -2   -1    0    0    0  501 -0.00000000000E+00  0.00000000000E+00  0.26003620963E+02  0.26003620963E+02  0.00000000000E+00 0.  1.
          2   -1    0    0  501    0  0.00000000000E+00 -0.00000000000E+00 -0.72804085546E+03  0.72804085546E+03  0.00000000000E+00 0.  1.
         35    2    1    2    0    0  0.00000000000E+00  0.00000000000E+00 -0.70203723450E+03  0.75404447642E+03  0.27518501740E+03 0.  0.
         25    1    3    3    0    0  0.42725123949E+02 -0.41910192220E+01 -0.20893527736E+03  0.24473853596E+03  0.12000000000E+03 0.  0.
         25    1    3    3    0    0 -0.42725123949E+02  0.41910192220E+01 -0.49310195713E+03  0.50930594046E+03  0.12000000000E+03 0.  0.
<mgrwt>
<rscale>  0 0.27518502E+03</rscale>
<asrwt>0</asrwt>
<pdfrwt beam="1">  1        2 0.11200630E+00 0.27518502E+03</pdfrwt>
<pdfrwt beam="2">  1       -2 0.40005566E-02 0.27518502E+03</pdfrwt>
<totfact> 0.10938145E+04</totfact>
</mgrwt>
</event>
<event>
 5    1  0.1162308E+001  0.2751326E+03  0.7818608E-02  0.1098378E+00
          2   -1    0    0  501    0  0.00000000000E+00  0.00000000000E+00  0.15687415862E+04  0.15687415862E+04  0.00000000000E+00 0. -1.
         -2   -1    0    0    0  501 -0.00000000000E+00 -0.00000000000E+00 -0.12063479024E+02  0.12063479024E+02  0.00000000000E+00 0. -1.
         35    2    1    2    0    0  0.00000000000E+00  0.00000000000E+00  0.15566781072E+04  0.15808050652E+04  0.27513255874E+03 0.  0.
         25    1    3    3    0    0 -0.34655821403E+02  0.57192044939E+02  0.73669812275E+03  0.74939714439E+03  0.12000000000E+03 0.  0.
         25    1    3    3    0    0  0.34655821403E+02 -0.57192044939E+02  0.81997998444E+03  0.83140792085E+03  0.12000000000E+03 0.  0.
<mgrwt>
<rscale>  0 0.27513256E+03</rscale>
<asrwt>0</asrwt>
<pdfrwt beam="1">  1        2 0.24134470E+00 0.27513256E+03</pdfrwt>
<pdfrwt beam="2">  1       -2 0.18559211E-02 0.27513256E+03</pdfrwt>
<totfact> 0.10820912E+04</totfact>
</mgrwt>
</event>
<event>
 5    1  0.1162308E+001  0.2765759E+03  0.7818608E-02  0.1097574E+00
          1   -1    0    0  501    0  0.00000000000E+00  0.00000000000E+00  0.56306682752E+03  0.56306682752E+03  0.00000000000E+00 0. -1.
         -1   -1    0    0    0  501 -0.00000000000E+00 -0.00000000000E+00 -0.33963215797E+02  0.33963215797E+02  0.00000000000E+00 0. -1.
         35    2    1    2    0    0  0.00000000000E+00  0.00000000000E+00  0.52910361173E+03  0.59703004332E+03  0.27657592210E+03 0.  0.
         25    1    3    3    0    0 -0.46358440345E+02  0.27815797463E+01  0.37391492660E+03  0.39543547452E+03  0.12000000000E+03 0.  0.
         25    1    3    3    0    0  0.46358440345E+02 -0.27815797463E+01  0.15518868513E+03  0.20159456880E+03  0.12000000000E+03 0.  0.
<mgrwt>
<rscale>  0 0.27657592E+03</rscale>
<asrwt>0</asrwt>
<pdfrwt beam="1">  1        1 0.86625659E-01 0.27657592E+03</pdfrwt>
<pdfrwt beam="2">  1       -1 0.52251105E-02 0.27657592E+03</pdfrwt>
<totfact> 0.63033998E+03</totfact>
</mgrwt>
</event>
<event>
 5    1  0.1162308E+001  0.2815785E+03  0.7818608E-02  0.1094830E+00
          2   -1    0    0  501    0  0.00000000000E+00  0.00000000000E+00  0.37080374644E+03  0.37080374644E+03  0.00000000000E+00 0. -1.
         -2   -1    0    0    0  501 -0.00000000000E+00 -0.00000000000E+00 -0.53455817267E+02  0.53455817267E+02  0.00000000000E+00 0. -1.
         35    2    1    2    0    0  0.00000000000E+00  0.00000000000E+00  0.31734792917E+03  0.42425956371E+03  0.28157853122E+03 0.  0.
         25    1    3    3    0    0  0.42357106957E+01 -0.52017480065E+02  0.80413642308E+02  0.15359073327E+03  0.12000000000E+03 0.  0.
         25    1    3    3    0    0 -0.42357106957E+01  0.52017480065E+02  0.23693428687E+03  0.27066883044E+03  0.12000000000E+03 0.  0.
<mgrwt>
<rscale>  0 0.28157853E+03</rscale>
<asrwt>0</asrwt>
<pdfrwt beam="1">  1        2 0.57046729E-01 0.28157853E+03</pdfrwt>
<pdfrwt beam="2">  1       -2 0.82239721E-02 0.28157853E+03</pdfrwt>
<totfact> 0.78102643E+03</totfact>
</mgrwt>
</event>
<event>
 5    1  0.1162308E+001  0.2745313E+03  0.7818608E-02  0.1098714E+00
          2   -1    0    0  501    0  0.00000000000E+00  0.00000000000E+00  0.10030006519E+03  0.10030006519E+03  0.00000000000E+00 0.  1.
         -2   -1    0    0    0  501 -0.00000000000E+00 -0.00000000000E+00 -0.18785485250E+03  0.18785485250E+03  0.00000000000E+00 0.  1.
         35    2    1    2    0    0  0.00000000000E+00  0.00000000000E+00 -0.87554787310E+02  0.28815491770E+03  0.27453126564E+03 0.  0.
         25    1    3    3    0    0  0.50054647751E+01 -0.61410843363E+02 -0.70445053136E+02  0.15218032682E+03  0.12000000000E+03 0.  0.
         25    1    3    3    0    0 -0.50054647751E+01  0.61410843363E+02 -0.17109734173E+02  0.13597459088E+03  0.12000000000E+03 0.  0.
<mgrwt>
<rscale>  0 0.27453127E+03</rscale>
<asrwt>0</asrwt>
<pdfrwt beam="1">  1        2 0.15430779E-01 0.27453127E+03</pdfrwt>
<pdfrwt beam="2">  1       -2 0.28900746E-01 0.27453127E+03</pdfrwt>
<totfact> 0.41006569E+03</totfact>
</mgrwt>
</event>
<event>
 5    1  0.1162308E+001  0.2742151E+03  0.7818608E-02  0.1098891E+00
          3   -1    0    0  501    0  0.00000000000E+00  0.00000000000E+00  0.57222298576E+02  0.57222298576E+02  0.00000000000E+00 0.  1.
         -3   -1    0    0    0  501 -0.00000000000E+00 -0.00000000000E+00 -0.32851666712E+03  0.32851666712E+03  0.00000000000E+00 0.  1.
         35    2    1    2    0    0  0.00000000000E+00  0.00000000000E+00 -0.27129436854E+03  0.38573896570E+03  0.27421508940E+03 0.  0.
         25    1    3    3    0    0  0.63417894419E+02 -0.17945492032E+02 -0.14604239898E+03  0.20018054930E+03  0.12000000000E+03 0.  0.
         25    1    3    3    0    0 -0.63417894419E+02  0.17945492032E+02 -0.12525196956E+03  0.18555841640E+03  0.12000000000E+03 0.  0.
<mgrwt>
<rscale>  0 0.27421509E+03</rscale>
<asrwt>0</asrwt>
<pdfrwt beam="1">  1        3 0.88034307E-02 0.27421509E+03</pdfrwt>
<pdfrwt beam="2">  1       -3 0.50541025E-01 0.27421509E+03</pdfrwt>
<totfact> 0.90553447E+02</totfact>
</mgrwt>
</event>
<event>
 5    1  0.1162308E+001  0.2737029E+03  0.7818608E-02  0.1099179E+00
          2   -1    0    0  501    0  0.00000000000E+00  0.00000000000E+00  0.28904914122E+03  0.28904914122E+03  0.00000000000E+00 0. -1.
         -2   -1    0    0    0  501 -0.00000000000E+00 -0.00000000000E+00 -0.64792874621E+02  0.64792874621E+02  0.00000000000E+00 0. -1.
         35    2    1    2    0    0  0.00000000000E+00  0.00000000000E+00  0.22425626660E+03  0.35384201584E+03  0.27370293946E+03 0.  0.
         25    1    3    3    0    0 -0.13220581242E+02  0.46542560397E+01  0.19522865134E+03  0.22958804884E+03  0.12000000000E+03 0.  0.
         25    1    3    3    0    0  0.13220581242E+02 -0.46542560397E+01  0.29027615262E+02  0.12425396700E+03  0.12000000000E+03 0.  0.
<mgrwt>
<rscale>  0 0.27370294E+03</rscale>
<asrwt>0</asrwt>
<pdfrwt beam="1">  1        2 0.44469098E-01 0.27370294E+03</pdfrwt>
<pdfrwt beam="2">  1       -2 0.99681347E-02 0.27370294E+03</pdfrwt>
<totfact> 0.75344156E+03</totfact>
</mgrwt>
</event>
<event>
 5    1  0.1162308E+001  0.2749393E+03  0.7818608E-02  0.1098486E+00
          1   -1    0    0  501    0  0.00000000000E+00  0.00000000000E+00  0.39243452536E+02  0.39243452536E+02  0.00000000000E+00 0.  1.
         -1   -1    0    0    0  501 -0.00000000000E+00 -0.00000000000E+00 -0.48155556319E+03  0.48155556319E+03  0.00000000000E+00 0.  1.
         35    2    1    2    0    0  0.00000000000E+00  0.00000000000E+00 -0.44231211066E+03  0.52079901573E+03  0.27493928703E+03 0.  0.
         25    1    3    3    0    0  0.60581345590E+02 -0.19403772898E+02 -0.18091544114E+03  0.22622334689E+03  0.12000000000E+03 0.  0.
         25    1    3    3    0    0 -0.60581345590E+02  0.19403772898E+02 -0.26139666952E+03  0.29457566884E+03  0.12000000000E+03 0.  0.
<mgrwt>
<rscale>  0 0.27493929E+03</rscale>
<asrwt>0</asrwt>
<pdfrwt beam="1">  1        1 0.60374542E-02 0.27493929E+03</pdfrwt>
<pdfrwt beam="2">  1       -1 0.74085471E-01 0.27493929E+03</pdfrwt>
<totfact> 0.24431966E+03</totfact>
</mgrwt>
</event>
<event>
 5    1  0.1162308E+001  0.2749508E+03  0.7818608E-02  0.1098479E+00
         -2   -1    0    0    0  501 -0.00000000000E+00  0.00000000000E+00  0.63889377960E+01  0.63889377960E+01  0.00000000000E+00 0. -1.
          2   -1    0    0  501    0  0.00000000000E+00 -0.00000000000E+00 -0.29581570636E+04  0.29581570636E+04  0.00000000000E+00 0. -1.
         35    2    1    2    0    0  0.00000000000E+00  0.00000000000E+00 -0.29517681258E+04  0.29645460014E+04  0.27495076992E+03 0.  0.
         25    1    3    3    0    0 -0.17137860505E+02 -0.44265221791E+02 -0.96485753061E+03  0.97344911038E+03  0.12000000000E+03 0.  0.
         25    1    3    3    0    0  0.17137860505E+02  0.44265221791E+02 -0.19869105952E+04  0.19910968910E+04  0.12000000000E+03 0.  0.
<mgrwt>
<rscale>  0 0.27495077E+03</rscale>
<asrwt>0</asrwt>
<pdfrwt beam="1">  1        2 0.45510230E+00 0.27495077E+03</pdfrwt>
<pdfrwt beam="2">  1       -2 0.98291090E-03 0.27495077E+03</pdfrwt>
<totfact> 0.48218335E+03</totfact>
</mgrwt>
</event>
<event>
 5    1  0.1162308E+001  0.2751581E+03  0.7818608E-02  0.1098363E+00
         -2   -1    0    0    0  501 -0.00000000000E+00  0.00000000000E+00  0.28047276664E+02  0.28047276664E+02  0.00000000000E+00 0. -1.
          2   -1    0    0  501    0  0.00000000000E+00 -0.00000000000E+00 -0.67486051421E+03  0.67486051421E+03  0.00000000000E+00 0. -1.
         35    2    1    2    0    0  0.00000000000E+00  0.00000000000E+00 -0.64681323755E+03  0.70290779088E+03  0.27515813309E+03 0.  0.
         25    1    3    3    0    0  0.11317397832E+02  0.17669971927E+02 -0.48673245139E+03  0.50174574302E+03  0.12000000000E+03 0.  0.
         25    1    3    3    0    0 -0.11317397832E+02 -0.17669971927E+02 -0.16008078616E+03  0.20116204786E+03  0.12000000000E+03 0.  0.
<mgrwt>
<rscale>  0 0.27515813E+03</rscale>
<asrwt>0</asrwt>
<pdfrwt beam="1">  1        2 0.10382469E+00 0.27515813E+03</pdfrwt>
<pdfrwt beam="2">  1       -2 0.43149658E-02 0.27515813E+03</pdfrwt>
<totfact> 0.10701316E+04</totfact>
</mgrwt>
</event>
<event>
 5    1  0.1162308E+001  0.2755146E+03  0.7818608E-02  0.1098164E+00
          2   -1    0    0  501    0  0.00000000000E+00  0.00000000000E+00  0.47691777623E+04  0.47691777623E+04  0.00000000000E+00 0.  1.
         -2   -1    0    0    0  501 -0.00000000000E+00 -0.00000000000E+00 -0.39791083771E+01  0.39791083771E+01  0.00000000000E+00 0.  1.
         35    2    1    2    0    0  0.00000000000E+00  0.00000000000E+00  0.47651986539E+04  0.47731568707E+04  0.27551461076E+03 0.  0.
         25    1    3    3    0    0 -0.13161512641E+02 -0.31200089730E+02  0.13679085359E+04  0.13735794239E+04  0.12000000000E+03 0.  0.
         25    1    3    3    0    0  0.13161512641E+02  0.31200089730E+02  0.33972901180E+04  0.33995774468E+04  0.12000000000E+03 0.  0.
<mgrwt>
<rscale>  0 0.27551461E+03</rscale>
<asrwt>0</asrwt>
<pdfrwt beam="1">  1        2 0.73371508E+00 0.27551461E+03</pdfrwt>
<pdfrwt beam="2">  1       -2 0.61217434E-03 0.27551461E+03</pdfrwt>
<totfact> 0.39914053E+02</totfact>
</mgrwt>
</event>
<event>
 5    1  0.1162308E+001  0.2733540E+03  0.7818608E-02  0.1099375E+00
          2   -1    0    0  501    0  0.00000000000E+00  0.00000000000E+00  0.44040354816E+03  0.44040354816E+03  0.00000000000E+00 0. -1.
         -2   -1    0    0    0  501 -0.00000000000E+00 -0.00000000000E+00 -0.42417013830E+02  0.42417013830E+02  0.00000000000E+00 0. -1.
         35    2    1    2    0    0  0.00000000000E+00  0.00000000000E+00  0.39798653433E+03  0.48282056199E+03  0.27335400779E+03 0.  0.
         25    1    3    3    0    0  0.41675463689E+02  0.48505993838E+02  0.22339916340E+03  0.26152793717E+03  0.12000000000E+03 0.  0.
         25    1    3    3    0    0 -0.41675463689E+02 -0.48505993838E+02  0.17458737093E+03  0.22129262482E+03  0.12000000000E+03 0.  0.
<mgrwt>
<rscale>  0 0.27335401E+03</rscale>
<asrwt>0</asrwt>
<pdfrwt beam="1">  1        2 0.67754389E-01 0.27335401E+03</pdfrwt>
<pdfrwt beam="2">  1       -2 0.65256948E-02 0.27335401E+03</pdfrwt>
<totfact> 0.92661603E+03</totfact>
</mgrwt>
</event>
<event>
 5    1  0.1162308E+001  0.2760001E+03  0.7818608E-02  0.1097894E+00
          1   -1    0    0  501    0  0.00000000000E+00  0.00000000000E+00  0.86336546008E+02  0.86336546008E+02  0.00000000000E+00 0.  1.
         -1   -1    0    0    0  501 -0.00000000000E+00 -0.00000000000E+00 -0.22057886215E+03  0.22057886215E+03  0.00000000000E+00 0.  1.
         35    2    1    2    0    0  0.00000000000E+00  0.00000000000E+00 -0.13424231614E+03  0.30691540816E+03  0.27600012377E+03 0.  0.
         25    1    3    3    0    0 -0.15144650047E+02 -0.14691436036E+02 -0.13917762418E+03  0.18497461931E+03  0.12000000000E+03 0.  0.
         25    1    3    3    0    0  0.15144650047E+02  0.14691436036E+02  0.49353080406E+01  0.12194078884E+03  0.12000000000E+03 0.  0.
<mgrwt>
<rscale>  0 0.27600012E+03</rscale>
<asrwt>0</asrwt>
<pdfrwt beam="1">  1        1 0.13282545E-01 0.27600012E+03</pdfrwt>
<pdfrwt beam="2">  1       -1 0.33935210E-01 0.27600012E+03</pdfrwt>
<totfact> 0.35980939E+03</totfact>
</mgrwt>
</event>
<event>
 5    1  0.1162308E+001  0.2747161E+03  0.7818608E-02  0.1098610E+00
          2   -1    0    0  501    0  0.00000000000E+00  0.00000000000E+00  0.17450439969E+04  0.17450439969E+04  0.00000000000E+00 0. -1.
         -2   -1    0    0    0  501 -0.00000000000E+00 -0.00000000000E+00 -0.10811897861E+02  0.10811897861E+02  0.00000000000E+00 0. -1.
         35    2    1    2    0    0  0.00000000000E+00  0.00000000000E+00  0.17342320990E+04  0.17558558947E+04  0.27471612589E+03 0.  0.
         25    1    3    3    0    0 -0.38432270774E+02  0.25063669435E+02  0.55648445353E+03  0.57112185564E+03  0.12000000000E+03 0.  0.
         25    1    3    3    0    0  0.38432270774E+02 -0.25063669435E+02  0.11777476455E+04  0.11847340391E+04  0.12000000000E+03 0.  0.
<mgrwt>
<rscale>  0 0.27471613E+03</rscale>
<asrwt>0</asrwt>
<pdfrwt beam="1">  1        2 0.26846808E+00 0.27471613E+03</pdfrwt>
<pdfrwt beam="2">  1       -2 0.16633703E-02 0.27471613E+03</pdfrwt>
<totfact> 0.10255172E+04</totfact>
</mgrwt>
</event>
<event>
 5    1  0.1162308E+001  0.2747909E+03  0.7818608E-02  0.1098569E+00
         -2   -1    0    0    0  501 -0.00000000000E+00  0.00000000000E+00  0.12291293176E+03  0.12291293176E+03  0.00000000000E+00 0. -1.
          2   -1    0    0  501    0  0.00000000000E+00 -0.00000000000E+00 -0.15358437233E+03  0.15358437233E+03  0.00000000000E+00 0. -1.
         35    2    1    2    0    0  0.00000000000E+00  0.00000000000E+00 -0.30671440567E+02  0.27649730409E+03  0.27479086939E+03 0.  0.
         25    1    3    3    0    0  0.41490333451E+02  0.68680875887E+01 -0.67705898744E+02  0.14405799916E+03  0.12000000000E+03 0.  0.
         25    1    3    3    0    0 -0.41490333451E+02 -0.68680875887E+01  0.37034458178E+02  0.13243930493E+03  0.12000000000E+03 0.  0.
<mgrwt>
<rscale>  0 0.27479087E+03</rscale>
<asrwt>0</asrwt>
<pdfrwt beam="1">  1        2 0.23628365E-01 0.27479087E+03</pdfrwt>
<pdfrwt beam="2">  1       -2 0.18909682E-01 0.27479087E+03</pdfrwt>
<totfact> 0.52707685E+03</totfact>
</mgrwt>
</event>
<event>
 5    1  0.1162308E+001  0.2752424E+03  0.7818608E-02  0.1098316E+00
          1   -1    0    0  501    0  0.00000000000E+00  0.00000000000E+00  0.12202080166E+04  0.12202080166E+04  0.00000000000E+00 0.  1.
         -1   -1    0    0    0  501 -0.00000000000E+00 -0.00000000000E+00 -0.15521613215E+02  0.15521613215E+02  0.00000000000E+00 0.  1.
         35    2    1    2    0    0  0.00000000000E+00  0.00000000000E+00  0.12046864034E+04  0.12357296299E+04  0.27524241589E+03 0.  0.
         25    1    3    3    0    0  0.35054575677E+02  0.43027775531E+01  0.85994870833E+03  0.86899891722E+03  0.12000000000E+03 0.  0.
         25    1    3    3    0    0 -0.35054575677E+02 -0.43027775531E+01  0.34473769510E+03  0.36673071264E+03  0.12000000000E+03 0.  0.
<mgrwt>
<rscale>  0 0.27524242E+03</rscale>
<asrwt>0</asrwt>
<pdfrwt beam="1">  1        1 0.18772424E+00 0.27524242E+03</pdfrwt>
<pdfrwt beam="2">  1       -1 0.23879414E-02 0.27524242E+03</pdfrwt>
<totfact> 0.58553907E+03</totfact>
</mgrwt>
</event>
<event>
 5    1  0.1162308E+001  0.2738446E+03  0.7818608E-02  0.1099099E+00
         -2   -1    0    0    0  501 -0.00000000000E+00  0.00000000000E+00  0.90430473073E+01  0.90430473073E+01  0.00000000000E+00 0.  1.
          2   -1    0    0  501    0  0.00000000000E+00 -0.00000000000E+00 -0.20731628544E+04  0.20731628544E+04  0.00000000000E+00 0.  1.
         35    2    1    2    0    0  0.00000000000E+00  0.00000000000E+00 -0.20641198071E+04  0.20822059017E+04  0.27384455275E+03 0.  0.
         25    1    3    3    0    0  0.49806721362E+01  0.43082443700E+02 -0.14097077738E+04  0.14154705619E+04  0.12000000000E+03 0.  0.
         25    1    3    3    0    0 -0.49806721362E+01 -0.43082443700E+02 -0.65441203329E+03  0.66673533982E+03  0.12000000000E+03 0.  0.
<mgrwt>
<rscale>  0 0.27384455E+03</rscale>
<asrwt>0</asrwt>
<pdfrwt beam="1">  1        2 0.31894816E+00 0.27384455E+03</pdfrwt>
<pdfrwt beam="2">  1       -2 0.13912379E-02 0.27384455E+03</pdfrwt>
<totfact> 0.89538516E+03</totfact>
</mgrwt>
</event>
<event>
 5    1  0.1162308E+001  0.2756348E+03  0.7818608E-02  0.1098097E+00
          3   -1    0    0  501    0  0.00000000000E+00  0.00000000000E+00  0.50032022984E+02  0.50032022984E+02  0.00000000000E+00 0.  1.
         -3   -1    0    0    0  501 -0.00000000000E+00 -0.00000000000E+00 -0.37962953300E+03  0.37962953300E+03  0.00000000000E+00 0.  1.
         35    2    1    2    0    0  0.00000000000E+00  0.00000000000E+00 -0.32959751002E+03  0.42966155598E+03  0.27563478387E+03 0.  0.
         25    1    3    3    0    0 -0.30300839595E+02 -0.52409355216E+02 -0.11729342005E+03  0.17838897887E+03  0.12000000000E+03 0.  0.
         25    1    3    3    0    0  0.30300839595E+02  0.52409355216E+02 -0.21230408997E+03  0.25127257712E+03  0.12000000000E+03 0.  0.
<mgrwt>
<rscale>  0 0.27563478E+03</rscale>
<asrwt>0</asrwt>
<pdfrwt beam="1">  1        3 0.76972342E-02 0.27563478E+03</pdfrwt>
<pdfrwt beam="2">  1       -3 0.58404544E-01 0.27563478E+03</pdfrwt>
<totfact> 0.84074790E+02</totfact>
</mgrwt>
</event>
<event>
 5    1  0.1162308E+001  0.2740572E+03  0.7818608E-02  0.1098980E+00
          2   -1    0    0  501    0  0.00000000000E+00  0.00000000000E+00  0.59209566889E+02  0.59209566889E+02  0.00000000000E+00 0.  1.
         -2   -1    0    0    0  501 -0.00000000000E+00 -0.00000000000E+00 -0.31712494098E+03  0.31712494098E+03  0.00000000000E+00 0.  1.
         35    2    1    2    0    0  0.00000000000E+00  0.00000000000E+00 -0.25791537409E+03  0.37633450787E+03  0.27405715028E+03 0.  0.
         25    1    3    3    0    0 -0.34332279904E+02  0.25785484329E+02 -0.59842969311E+02  0.14080048871E+03  0.12000000000E+03 0.  0.
         25    1    3    3    0    0  0.34332279904E+02 -0.25785484329E+02 -0.19807240478E+03  0.23553401916E+03  0.12000000000E+03 0.  0.
<mgrwt>
<rscale>  0 0.27405715E+03</rscale>
<asrwt>0</asrwt>
<pdfrwt beam="1">  1        2 0.91091641E-02 0.27405715E+03</pdfrwt>
<pdfrwt beam="2">  1       -2 0.48788453E-01 0.27405715E+03</pdfrwt>
<totfact> 0.28967489E+03</totfact>
</mgrwt>
</event>
<event>
 5    1  0.1162308E+001  0.2742450E+03  0.7818608E-02  0.1098874E+00
         -2   -1    0    0    0  501 -0.00000000000E+00  0.00000000000E+00  0.10439313159E+02  0.10439313159E+02  0.00000000000E+00 0.  1.
          2   -1    0    0  501    0  0.00000000000E+00 -0.00000000000E+00 -0.18011318007E+04  0.18011318007E+04  0.00000000000E+00 0.  1.
         35    2    1    2    0    0  0.00000000000E+00  0.00000000000E+00 -0.17906924876E+04  0.18115711139E+04  0.27424499199E+03 0.  0.
         25    1    3    3    0    0 -0.28412304530E+02  0.58163199458E+02 -0.79908417859E+03  0.81063292635E+03  0.12000000000E+03 0.  0.
         25    1    3    3    0    0  0.28412304530E+02 -0.58163199458E+02 -0.99160830898E+03  0.10009381875E+04  0.12000000000E+03 0.  0.
<mgrwt>
<rscale>  0 0.27424499E+03</rscale>
<asrwt>0</asrwt>
<pdfrwt beam="1">  1        2 0.27709735E+00 0.27424499E+03</pdfrwt>
<pdfrwt beam="2">  1       -2 0.16060473E-02 0.27424499E+03</pdfrwt>
<totfact> 0.10087437E+04</totfact>
</mgrwt>
</event>
<event>
 5    1  0.1162308E+001  0.2751482E+03  0.7818608E-02  0.1098369E+00
          1   -1    0    0  501    0  0.00000000000E+00  0.00000000000E+00  0.70524747250E+03  0.70524747250E+03  0.00000000000E+00 0. -1.
         -1   -1    0    0    0  501 -0.00000000000E+00 -0.00000000000E+00 -0.26836861305E+02  0.26836861305E+02  0.00000000000E+00 0. -1.
         35    2    1    2    0    0  0.00000000000E+00  0.00000000000E+00  0.67841061119E+03  0.73208433380E+03  0.27514816812E+03 0.  0.
         25    1    3    3    0    0 -0.49833347317E+02 -0.44774340534E+02  0.35571971936E+03  0.38134580477E+03  0.12000000000E+03 0.  0.
         25    1    3    3    0    0  0.49833347317E+02  0.44774340534E+02  0.32269089183E+03  0.35073852903E+03  0.12000000000E+03 0.  0.
<mgrwt>
<rscale>  0 0.27514817E+03</rscale>
<asrwt>0</asrwt>
<pdfrwt beam="1">  1        1 0.10849960E+00 0.27514817E+03</pdfrwt>
<pdfrwt beam="2">  1       -1 0.41287484E-02 0.27514817E+03</pdfrwt>
<totfact> 0.65221753E+03</totfact>
</mgrwt>
</event>
<event>
 5    1  0.1162308E+001  0.2759480E+03  0.7818608E-02  0.1097923E+00
          1   -1    0    0  501    0  0.00000000000E+00  0.00000000000E+00  0.15393313994E+04  0.15393313994E+04  0.00000000000E+00 0.  1.
         -1   -1    0    0    0  501 -0.00000000000E+00 -0.00000000000E+00 -0.12366941937E+02  0.12366941937E+02  0.00000000000E+00 0.  1.
         35    2    1    2    0    0  0.00000000000E+00  0.00000000000E+00  0.15269644575E+04  0.15516983413E+04  0.27594798088E+03 0.  0.
         25    1    3    3    0    0 -0.57370923435E+02 -0.31180876950E+02  0.65485892264E+03  0.66895730694E+03  0.12000000000E+03 0.  0.
         25    1    3    3    0    0  0.57370923435E+02  0.31180876950E+02  0.87210553482E+03  0.88274103440E+03  0.12000000000E+03 0.  0.
<mgrwt>
<rscale>  0 0.27594798E+03</rscale>
<asrwt>0</asrwt>
<pdfrwt beam="1">  1        1 0.23682006E+00 0.27594798E+03</pdfrwt>
<pdfrwt beam="2">  1       -1 0.19026077E-02 0.27594798E+03</pdfrwt>
<totfact> 0.49720121E+03</totfact>
</mgrwt>
</event>
<event>
 5    1  0.1162308E+001  0.2755229E+03  0.7818608E-02  0.1098160E+00
          2   -1    0    0  501    0  0.00000000000E+00  0.00000000000E+00  0.15877819412E+03  0.15877819412E+03  0.00000000000E+00 0.  1.
         -2   -1    0    0    0  501 -0.00000000000E+00 -0.00000000000E+00 -0.11952659913E+03  0.11952659913E+03  0.00000000000E+00 0.  1.
         35    2    1    2    0    0  0.00000000000E+00  0.00000000000E+00  0.39251594987E+02  0.27830479324E+03  0.27552290328E+03 0.  0.
         25    1    3    3    0    0  0.40764646922E+01  0.45289789314E+02 -0.30984334362E+02  0.13201443692E+03  0.12000000000E+03 0.  0.
         25    1    3    3    0    0 -0.40764646922E+01 -0.45289789314E+02  0.70235929349E+02  0.14629035632E+03  0.12000000000E+03 0.  0.
<mgrwt>
<rscale>  0 0.27552290E+03</rscale>
<asrwt>0</asrwt>
<pdfrwt beam="1">  1        2 0.24427415E-01 0.27552290E+03</pdfrwt>
<pdfrwt beam="2">  1       -2 0.18388708E-01 0.27552290E+03</pdfrwt>
<totfact> 0.53243864E+03</totfact>
</mgrwt>
</event>
<event>
 5    1  0.1162308E+001  0.2753414E+03  0.7818608E-02  0.1098261E+00
          2   -1    0    0  501    0  0.00000000000E+00  0.00000000000E+00  0.75016183215E+03  0.75016183215E+03  0.00000000000E+00 0. -1.
         -2   -1    0    0    0  501 -0.00000000000E+00 -0.00000000000E+00 -0.25265510384E+02  0.25265510384E+02  0.00000000000E+00 0. -1.
         35    2    1    2    0    0  0.00000000000E+00  0.00000000000E+00  0.72489632176E+03  0.77542734253E+03  0.27534139943E+03 0.  0.
         25    1    3    3    0    0 -0.62044549660E+02 -0.18700169447E+02  0.41543532322E+03  0.43724790481E+03  0.12000000000E+03 0.  0.
         25    1    3    3    0    0  0.62044549660E+02  0.18700169447E+02  0.30946099854E+03  0.33817943772E+03  0.12000000000E+03 0.  0.
<mgrwt>
<rscale>  0 0.27534140E+03</rscale>
<asrwt>0</asrwt>
<pdfrwt beam="1">  1        2 0.11540950E+00 0.27534140E+03</pdfrwt>
<pdfrwt beam="2">  1       -2 0.38870022E-02 0.27534140E+03</pdfrwt>
<totfact> 0.11007490E+04</totfact>
</mgrwt>
</event>
<event>
 5    1  0.1162308E+001  0.2759699E+03  0.7818608E-02  0.1097911E+00
         -1   -1    0    0    0  501 -0.00000000000E+00  0.00000000000E+00  0.21844603511E+02  0.21844603511E+02  0.00000000000E+00 0.  1.
          1   -1    0    0  501    0  0.00000000000E+00 -0.00000000000E+00 -0.87160428663E+03  0.87160428663E+03  0.00000000000E+00 0.  1.
         35    2    1    2    0    0  0.00000000000E+00  0.00000000000E+00 -0.84975968312E+03  0.89344889014E+03  0.27596992633E+03 0.  0.
         25    1    3    3    0    0 -0.42148887979E+02  0.52084278461E+02 -0.38515636613E+03  0.40894342786E+03  0.12000000000E+03 0.  0.
         25    1    3    3    0    0  0.42148887979E+02 -0.52084278461E+02 -0.46460331699E+03  0.48450546228E+03  0.12000000000E+03 0.  0.
<mgrwt>
<rscale>  0 0.27596993E+03</rscale>
<asrwt>0</asrwt>
<pdfrwt beam="1">  1        1 0.13409294E+00 0.27596993E+03</pdfrwt>
<pdfrwt beam="2">  1       -1 0.33607089E-02 0.27596993E+03</pdfrwt>
<totfact> 0.64047959E+03</totfact>
</mgrwt>
</event>
<event>
 5    1  0.1162308E+001  0.2743200E+03  0.7818608E-02  0.1098832E+00
          1   -1    0    0  501    0  0.00000000000E+00  0.00000000000E+00  0.67056671131E+02  0.67056671131E+02  0.00000000000E+00 0.  1.
         -1   -1    0    0    0  501 -0.00000000000E+00 -0.00000000000E+00 -0.28055175573E+03  0.28055175573E+03  0.00000000000E+00 0.  1.
         35    2    1    2    0    0  0.00000000000E+00  0.00000000000E+00 -0.21349508460E+03  0.34760842686E+03  0.27432000889E+03 0.  0.
         25    1    3    3    0    0 -0.23981753114E+02 -0.61922638842E+02 -0.10443548517E+03  0.17238418793E+03  0.12000000000E+03 0.  0.
         25    1    3    3    0    0  0.23981753114E+02  0.61922638842E+02 -0.10905959942E+03  0.17522423893E+03  0.12000000000E+03 0.  0.
<mgrwt>
<rscale>  0 0.27432001E+03</rscale>
<asrwt>0</asrwt>
<pdfrwt beam="1">  1        1 0.10316411E-01 0.27432001E+03</pdfrwt>
<pdfrwt beam="2">  1       -1 0.43161809E-01 0.27432001E+03</pdfrwt>
<totfact> 0.32965452E+03</totfact>
</mgrwt>
</event>
<event>
 5    1  0.1162308E+001  0.2737951E+03  0.7818608E-02  0.1099127E+00
         -2   -1    0    0    0  501 -0.00000000000E+00  0.00000000000E+00  0.85231837121E+02  0.85231837121E+02  0.00000000000E+00 0. -1.
          2   -1    0    0  501    0  0.00000000000E+00 -0.00000000000E+00 -0.21988188215E+03  0.21988188215E+03  0.00000000000E+00 0. -1.
         35    2    1    2    0    0  0.00000000000E+00  0.00000000000E+00 -0.13465004503E+03  0.30511371928E+03  0.27379508225E+03 0.  0.
         25    1    3    3    0    0  0.51614504869E+02  0.28677281319E+02 -0.34749574656E+02  0.13818095569E+03  0.12000000000E+03 0.  0.
         25    1    3    3    0    0 -0.51614504869E+02 -0.28677281319E+02 -0.99900470377E+02  0.16693276359E+03  0.12000000000E+03 0.  0.
<mgrwt>
<rscale>  0 0.27379508E+03</rscale>
<asrwt>0</asrwt>
<pdfrwt beam="1">  1        2 0.33827981E-01 0.27379508E+03</pdfrwt>
<pdfrwt beam="2">  1       -2 0.13112591E-01 0.27379508E+03</pdfrwt>
<totfact> 0.65150484E+03</totfact>
</mgrwt>
</event>
<event>
 5    1  0.1162308E+001  0.2748068E+03  0.7818608E-02  0.1098560E+00
          1   -1    0    0  501    0  0.00000000000E+00  0.00000000000E+00  0.10415283241E+03  0.10415283241E+03  0.00000000000E+00 0. -1.
         -1   -1    0    0    0  501 -0.00000000000E+00 -0.00000000000E+00 -0.18126914933E+03  0.18126914933E+03  0.00000000000E+00 0. -1.
         35    2    1    2    0    0  0.00000000000E+00  0.00000000000E+00 -0.77116316924E+02  0.28542198174E+03  0.27480680728E+03 0.  0.
         25    1    3    3    0    0  0.61518678096E+02  0.25826929970E+02 -0.44065556528E+02  0.14419899909E+03  0.12000000000E+03 0.  0.
         25    1    3    3    0    0 -0.61518678096E+02 -0.25826929970E+02 -0.33050760396E+02  0.14122298265E+03  0.12000000000E+03 0.  0.
<mgrwt>
<rscale>  0 0.27480681E+03</rscale>
<asrwt>0</asrwt>
<pdfrwt beam="1">  1        1 0.16023513E-01 0.27480681E+03</pdfrwt>
<pdfrwt beam="2">  1       -1 0.27887561E-01 0.27480681E+03</pdfrwt>
<totfact> 0.39304472E+03</totfact>
</mgrwt>
</event>
<event>
 5    1  0.1162308E+001  0.2747994E+03  0.7818608E-02  0.1098564E+00
          1   -1    0    0  501    0  0.00000000000E+00  0.00000000000E+00  0.53717321210E+03  0.53717321210E+03  0.00000000000E+00 0.  1.
         -1   -1    0    0    0  501 -0.00000000000E+00 -0.00000000000E+00 -0.35144476809E+02  0.35144476809E+02  0.00000000000E+00 0.  1.
         35    2    1    2    0    0  0.00000000000E+00  0.00000000000E+00  0.50202873530E+03  0.57231768891E+03  0.27479935586E+03 0.  0.
         25    1    3    3    0    0  0.32435813524E+02 -0.46682935372E+02  0.32456826823E+03  0.35067925401E+03  0.12000000000E+03 0.  0.
         25    1    3    3    0    0 -0.32435813524E+02  0.46682935372E+02  0.17746046707E+03  0.22163843490E+03  0.12000000000E+03 0.  0.
<mgrwt>
<rscale>  0 0.27479936E+03</rscale>
<asrwt>0</asrwt>
<pdfrwt beam="1">  1        1 0.82642027E-01 0.27479936E+03</pdfrwt>
<pdfrwt beam="2">  1       -1 0.54068430E-02 0.27479936E+03</pdfrwt>
<totfact> 0.63819767E+03</totfact>
</mgrwt>
</event>
<event>
 5    1  0.1162308E+001  0.2744019E+03  0.7818608E-02  0.1098786E+00
         -2   -1    0    0    0  501 -0.00000000000E+00  0.00000000000E+00  0.45602801808E+02  0.45602801808E+02  0.00000000000E+00 0. -1.
          2   -1    0    0  501    0  0.00000000000E+00 -0.00000000000E+00 -0.41278376714E+03  0.41278376714E+03  0.00000000000E+00 0. -1.
         35    2    1    2    0    0  0.00000000000E+00  0.00000000000E+00 -0.36718096533E+03  0.45838656895E+03  0.27440186823E+03 0.  0.
         25    1    3    3    0    0  0.12806902953E+02 -0.46293423060E+02 -0.26045131788E+03  0.29076104754E+03  0.12000000000E+03 0.  0.
         25    1    3    3    0    0 -0.12806902953E+02  0.46293423060E+02 -0.10672964746E+03  0.16762552141E+03  0.12000000000E+03 0.  0.
<mgrwt>
<rscale>  0 0.27440187E+03</rscale>
<asrwt>0</asrwt>
<pdfrwt beam="1">  1        2 0.63505194E-01 0.27440187E+03</pdfrwt>
<pdfrwt beam="2">  1       -2 0.70158157E-02 0.27440187E+03</pdfrwt>
<totfact> 0.88947524E+03</totfact>
</mgrwt>
</event>
<event>
 5    1  0.1162308E+001  0.2743150E+03  0.7818608E-02  0.1098835E+00
         -1   -1    0    0    0  501 -0.00000000000E+00  0.00000000000E+00  0.11332889537E+02  0.11332889537E+02  0.00000000000E+00 0.  1.
          1   -1    0    0  501    0  0.00000000000E+00 -0.00000000000E+00 -0.16599627976E+04  0.16599627976E+04  0.00000000000E+00 0.  1.
         35    2    1    2    0    0  0.00000000000E+00  0.00000000000E+00 -0.16486299081E+04  0.16712956871E+04  0.27431496511E+03 0.  0.
         25    1    3    3    0    0  0.16951288246E+02  0.18178813372E+02 -0.11996101756E+04  0.12058533861E+04  0.12000000000E+03 0.  0.
         25    1    3    3    0    0 -0.16951288246E+02 -0.18178813372E+02 -0.44901973244E+03  0.46544230099E+03  0.12000000000E+03 0.  0.
<mgrwt>
<rscale>  0 0.27431497E+03</rscale>
<asrwt>0</asrwt>
<pdfrwt beam="1">  1        1 0.25537883E+00 0.27431497E+03</pdfrwt>
<pdfrwt beam="2">  1       -1 0.17435219E-02 0.27431497E+03</pdfrwt>
<totfact> 0.47058648E+03</totfact>
</mgrwt>
</event>
<event>
 5    1  0.1162308E+001  0.2755845E+03  0.7818608E-02  0.1098125E+00
         -1   -1    0    0    0  501 -0.00000000000E+00  0.00000000000E+00  0.79373272058E+03  0.79373272058E+03  0.00000000000E+00 0. -1.
          1   -1    0    0  501    0  0.00000000000E+00 -0.00000000000E+00 -0.23920770506E+02  0.23920770506E+02  0.00000000000E+00 0. -1.
         35    2    1    2    0    0  0.00000000000E+00  0.00000000000E+00  0.76981195007E+03  0.81765349108E+03  0.27558445712E+03 0.  0.
         25    1    3    3    0    0  0.18368226116E+02  0.29812987916E+02  0.21291089417E+03  0.24689523048E+03  0.12000000000E+03 0.  0.
         25    1    3    3    0    0 -0.18368226116E+02 -0.29812987916E+02  0.55690105590E+03  0.57075826060E+03  0.12000000000E+03 0.  0.
<mgrwt>
<rscale>  0 0.27558446E+03</rscale>
<asrwt>0</asrwt>
<pdfrwt beam="1">  1        1 0.36801192E-02 0.27558446E+03</pdfrwt>
<pdfrwt beam="2">  1       -1 0.12211271E+00 0.27558446E+03</pdfrwt>
<totfact> 0.16201924E+03</totfact>
</mgrwt>
</event>
<event>
 5    1  0.1162308E+001  0.2745749E+03  0.7818608E-02  0.1098689E+00
         -2   -1    0    0    0  501 -0.00000000000E+00  0.00000000000E+00  0.16556429760E+02  0.16556429760E+02  0.00000000000E+00 0.  1.
          2   -1    0    0  501    0  0.00000000000E+00 -0.00000000000E+00 -0.11383998799E+04  0.11383998799E+04  0.00000000000E+00 0.  1.
         35    2    1    2    0    0  0.00000000000E+00  0.00000000000E+00 -0.11218434502E+04  0.11549563097E+04  0.27457485428E+03 0.  0.
         25    1    3    3    0    0 -0.42673992282E+01 -0.44379111021E+02 -0.76955475668E+03  0.78012963007E+03  0.12000000000E+03 0.  0.
         25    1    3    3    0    0  0.42673992282E+01  0.44379111021E+02 -0.35228869349E+03  0.37482667961E+03  0.12000000000E+03 0.  0.
<mgrwt>
<rscale>  0 0.27457485E+03</rscale>
<asrwt>0</asrwt>
<pdfrwt beam="1">  1        2 0.17513843E+00 0.27457485E+03</pdfrwt>
<pdfrwt beam="2">  1       -2 0.25471432E-02 0.27457485E+03</pdfrwt>
<totfact> 0.11702651E+04</totfact>
</mgrwt>
</event>
<event>
 5    1  0.1162308E+001  0.2749989E+03  0.7818608E-02  0.1098452E+00
         -2   -1    0    0    0  501 -0.00000000000E+00  0.00000000000E+00  0.17204686405E+03  0.17204686405E+03  0.00000000000E+00 0.  1.
          2   -1    0    0  501    0  0.00000000000E+00 -0.00000000000E+00 -0.10988921655E+03  0.10988921655E+03  0.00000000000E+00 0.  1.
         35    2    1    2    0    0  0.00000000000E+00  0.00000000000E+00  0.62157647505E+02  0.28193608060E+03  0.27499887345E+03 0.  0.
         25    1    3    3    0    0  0.51932414945E+02 -0.36383477248E+02  0.84921326797E+01  0.13598841662E+03  0.12000000000E+03 0.  0.
         25    1    3    3    0    0 -0.51932414945E+02  0.36383477248E+02  0.53665514825E+02  0.14594766398E+03  0.12000000000E+03 0.  0.
<mgrwt>
<rscale>  0 0.27499887E+03</rscale>
<asrwt>0</asrwt>
<pdfrwt beam="1">  1        2 0.16906033E-01 0.27499887E+03</pdfrwt>
<pdfrwt beam="2">  1       -2 0.26468748E-01 0.27499887E+03</pdfrwt>
<totfact> 0.43123169E+03</totfact>
</mgrwt>
</event>
<event>
 5    1  0.1162308E+001  0.2764917E+03  0.7818608E-02  0.1097621E+00
          2   -1    0    0  501    0  0.00000000000E+00  0.00000000000E+00  0.65580019048E+03  0.65580019048E+03  0.00000000000E+00 0.  1.
         -2   -1    0    0    0  501 -0.00000000000E+00 -0.00000000000E+00 -0.29142884316E+02  0.29142884316E+02  0.00000000000E+00 0.  1.
         35    2    1    2    0    0  0.00000000000E+00  0.00000000000E+00  0.62665730616E+03  0.68494307479E+03  0.27649165691E+03 0.  0.
         25    1    3    3    0    0  0.51062635461E+02 -0.30723264170E+02  0.39772297763E+03  0.41968426065E+03  0.12000000000E+03 0.  0.
         25    1    3    3    0    0 -0.51062635461E+02  0.30723264170E+02  0.22893432853E+03  0.26525881414E+03  0.12000000000E+03 0.  0.
<mgrwt>
<rscale>  0 0.27649166E+03</rscale>
<asrwt>0</asrwt>
<pdfrwt beam="1">  1        2 0.10089233E+00 0.27649166E+03</pdfrwt>
<pdfrwt beam="2">  1       -2 0.44835212E-02 0.27649166E+03</pdfrwt>
<totfact> 0.10452977E+04</totfact>
</mgrwt>
</event>
<event>
 5    1  0.1162308E+001  0.2747481E+03  0.7818608E-02  0.1098592E+00
         -2   -1    0    0    0  501 -0.00000000000E+00  0.00000000000E+00  0.12190877348E+02  0.12190877348E+02  0.00000000000E+00 0. -1.
          2   -1    0    0  501    0  0.00000000000E+00 -0.00000000000E+00 -0.15480128037E+04  0.15480128037E+04  0.00000000000E+00 0. -1.
         35    2    1    2    0    0  0.00000000000E+00  0.00000000000E+00 -0.15358219263E+04  0.15602036810E+04  0.27474813355E+03 0.  0.
         25    1    3    3    0    0 -0.28262106873E+02  0.42259739425E+02 -0.10145902722E+04  0.10229262205E+04  0.12000000000E+03 0.  0.
         25    1    3    3    0    0  0.28262106873E+02 -0.42259739425E+02 -0.52123165416E+03  0.53727746050E+03  0.12000000000E+03 0.  0.
<mgrwt>
<rscale>  0 0.27474813E+03</rscale>
<asrwt>0</asrwt>
<pdfrwt beam="1">  1        2 0.23815596E+00 0.27474813E+03</pdfrwt>
<pdfrwt beam="2">  1       -2 0.18755185E-02 0.27474813E+03</pdfrwt>
<totfact> 0.10928886E+04</totfact>
</mgrwt>
</event>
<event>
 5    1  0.1162308E+001  0.2750759E+03  0.7818608E-02  0.1098409E+00
          1   -1    0    0  501    0  0.00000000000E+00  0.00000000000E+00  0.37785459420E+03  0.37785459420E+03  0.00000000000E+00 0. -1.
         -1   -1    0    0    0  501 -0.00000000000E+00 -0.00000000000E+00 -0.50063390077E+02  0.50063390077E+02  0.00000000000E+00 0. -1.
         35    2    1    2    0    0  0.00000000000E+00  0.00000000000E+00  0.32779120412E+03  0.42791798427E+03  0.27507585821E+03 0.  0.
         25    1    3    3    0    0  0.64769515030E+02  0.13953284118E+02  0.14637153187E+03  0.20053530751E+03  0.12000000000E+03 0.  0.
         25    1    3    3    0    0 -0.64769515030E+02 -0.13953284118E+02  0.18141967225E+03  0.22738267676E+03  0.12000000000E+03 0.  0.
<mgrwt>
<rscale>  0 0.27507586E+03</rscale>
<asrwt>0</asrwt>
<pdfrwt beam="1">  1        1 0.58131474E-01 0.27507586E+03</pdfrwt>
<pdfrwt beam="2">  1       -1 0.77020603E-02 0.27507586E+03</pdfrwt>
<totfact> 0.59171869E+03</totfact>
</mgrwt>
</event>
<event>
 5    1  0.1162308E+001  0.2760343E+03  0.7818608E-02  0.1097875E+00
          2   -1    0    0  501    0  0.00000000000E+00  0.00000000000E+00  0.20099889842E+03  0.20099889842E+03  0.00000000000E+00 0.  1.
         -2   -1    0    0    0  501 -0.00000000000E+00 -0.00000000000E+00 -0.94770316385E+02  0.94770316385E+02  0.00000000000E+00 0.  1.
         35    2    1    2    0    0  0.00000000000E+00  0.00000000000E+00  0.10622858204E+03  0.29576921481E+03  0.27603426741E+03 0.  0.
         25    1    3    3    0    0  0.68173354815E+02 -0.18470165892E+00  0.51996246602E+02  0.14748305015E+03  0.12000000000E+03 0.  0.
         25    1    3    3    0    0 -0.68173354815E+02  0.18470165892E+00  0.54232335436E+02  0.14828616466E+03  0.12000000000E+03 0.  0.
<mgrwt>
<rscale>  0 0.27603427E+03</rscale>
<asrwt>0</asrwt>
<pdfrwt beam="1">  1        2 0.30922907E-01 0.27603427E+03</pdfrwt>
<pdfrwt beam="2">  1       -2 0.14580049E-01 0.27603427E+03</pdfrwt>
<totfact> 0.60414447E+03</totfact>
</mgrwt>
</event>
<event>
 5    1  0.1162308E+001  0.2720213E+03  0.7818608E-02  0.1100128E+00
         -2   -1    0    0    0  501 -0.00000000000E+00  0.00000000000E+00  0.21268082000E+03  0.21268082000E+03  0.00000000000E+00 0.  1.
          2   -1    0    0  501    0  0.00000000000E+00 -0.00000000000E+00 -0.86979622107E+02  0.86979622107E+02  0.00000000000E+00 0.  1.
         35    2    1    2    0    0  0.00000000000E+00  0.00000000000E+00  0.12570119789E+03  0.29966044210E+03  0.27202130323E+03 0.  0.
         25    1    3    3    0    0  0.11128810862E+02 -0.43473052754E+02  0.12547565897E+02  0.12872916591E+03  0.12000000000E+03 0.  0.
         25    1    3    3    0    0 -0.11128810862E+02  0.43473052754E+02  0.11315363199E+03  0.17093127619E+03  0.12000000000E+03 0.  0.
<mgrwt>
<rscale>  0 0.27202130E+03</rscale>
<asrwt>0</asrwt>
<pdfrwt beam="1">  1        2 0.13381480E-01 0.27202130E+03</pdfrwt>
<pdfrwt beam="2">  1       -2 0.32720126E-01 0.27202130E+03</pdfrwt>
<totfact> 0.38739235E+03</totfact>
</mgrwt>
</event>
<event>
 5    1  0.1162308E+001  0.2756465E+03  0.7818608E-02  0.1098091E+00
         -1   -1    0    0    0  501 -0.00000000000E+00  0.00000000000E+00  0.15291057697E+03  0.15291057697E+03  0.00000000000E+00 0.  1.
          1   -1    0    0  501    0  0.00000000000E+00 -0.00000000000E+00 -0.12422454891E+03  0.12422454891E+03  0.00000000000E+00 0.  1.
         35    2    1    2    0    0  0.00000000000E+00  0.00000000000E+00  0.28686028059E+02  0.27713512588E+03  0.27564649424E+03 0.  0.
         25    1    3    3    0    0 -0.21349535929E+02  0.38826794484E+01  0.78911096315E+02  0.14525095182E+03  0.12000000000E+03 0.  0.
         25    1    3    3    0    0  0.21349535929E+02 -0.38826794484E+01 -0.50225068256E+02  0.13188417405E+03  0.12000000000E+03 0.  0.
<mgrwt>
<rscale>  0 0.27564649E+03</rscale>
<asrwt>0</asrwt>
<pdfrwt beam="1">  1        1 0.19111469E-01 0.27564649E+03</pdfrwt>
<pdfrwt beam="2">  1       -1 0.23524704E-01 0.27564649E+03</pdfrwt>
<totfact> 0.41521571E+03</totfact>
</mgrwt>
</event>
<event>
 5    1  0.1162308E+001  0.2759959E+03  0.7818608E-02  0.1097896E+00
          1   -1    0    0  501    0  0.00000000000E+00  0.00000000000E+00  0.53717300740E+03  0.53717300740E+03  0.00000000000E+00 0. -1.
         -1   -1    0    0    0  501 -0.00000000000E+00 -0.00000000000E+00 -0.35451220577E+02  0.35451220577E+02  0.00000000000E+00 0. -1.
         35    2    1    2    0    0  0.00000000000E+00  0.00000000000E+00  0.50172178682E+03  0.57262422797E+03  0.27599593311E+03 0.  0.
         25    1    3    3    0    0  0.45804624159E+02  0.49849261267E+02  0.26698887968E+03  0.30044312992E+03  0.12000000000E+03 0.  0.
         25    1    3    3    0    0 -0.45804624159E+02 -0.49849261267E+02  0.23473290714E+03  0.27218109805E+03  0.12000000000E+03 0.  0.
<mgrwt>
<rscale>  0 0.27599593E+03</rscale>
<asrwt>0</asrwt>
<pdfrwt beam="1">  1        1 0.82641995E-01 0.27599593E+03</pdfrwt>
<pdfrwt beam="2">  1       -1 0.54540343E-02 0.27599593E+03</pdfrwt>
<totfact> 0.63000062E+03</totfact>
</mgrwt>
</event>
<event>
 5    1  0.1162308E+001  0.2738553E+03  0.7818608E-02  0.1099093E+00
          2   -1    0    0  501    0  0.00000000000E+00  0.00000000000E+00  0.13177999270E+03  0.13177999270E+03  0.00000000000E+00 0.  1.
         -2   -1    0    0    0  501 -0.00000000000E+00 -0.00000000000E+00 -0.14227638830E+03  0.14227638830E+03  0.00000000000E+00 0.  1.
         35    2    1    2    0    0  0.00000000000E+00  0.00000000000E+00 -0.10496395602E+02  0.27405638100E+03  0.27385530056E+03 0.  0.
         25    1    3    3    0    0 -0.59708680246E+02 -0.19649617900E+02 -0.25211465019E+02  0.13779278627E+03  0.12000000000E+03 0.  0.
         25    1    3    3    0    0  0.59708680246E+02  0.19649617900E+02  0.14715069417E+02  0.13626359473E+03  0.12000000000E+03 0.  0.
<mgrwt>
<rscale>  0 0.27385530E+03</rscale>
<asrwt>0</asrwt>
<pdfrwt beam="1">  1        2 0.20273845E-01 0.27385530E+03</pdfrwt>
<pdfrwt beam="2">  1       -2 0.21888675E-01 0.27385530E+03</pdfrwt>
<totfact> 0.48782171E+03</totfact>
</mgrwt>
</event>
<event>
 5    1  0.1162308E+001  0.2749426E+03  0.7818608E-02  0.1098484E+00
         -1   -1    0    0    0  501 -0.00000000000E+00  0.00000000000E+00  0.61614675818E+03  0.61614675818E+03  0.00000000000E+00 0.  1.
          1   -1    0    0  501    0  0.00000000000E+00 -0.00000000000E+00 -0.30671848307E+02  0.30671848307E+02  0.00000000000E+00 0.  1.
         35    2    1    2    0    0  0.00000000000E+00  0.00000000000E+00  0.58547490987E+03  0.64681860648E+03  0.27494261148E+03 0.  0.
         25    1    3    3    0    0 -0.18927445835E+02  0.14486173119E+02  0.44022360156E+03  0.45690799598E+03  0.12000000000E+03 0.  0.
         25    1    3    3    0    0  0.18927445835E+02 -0.14486173119E+02  0.14525130831E+03  0.18991061051E+03  0.12000000000E+03 0.  0.
<mgrwt>
<rscale>  0 0.27494261E+03</rscale>
<asrwt>0</asrwt>
<pdfrwt beam="1">  1        1 0.47187464E-02 0.27494261E+03</pdfrwt>
<pdfrwt beam="2">  1       -1 0.94791799E-01 0.27494261E+03</pdfrwt>
<totfact> 0.20452287E+03</totfact>
</mgrwt>
</event>
<event>
 5    1  0.1162308E+001  0.2738013E+03  0.7818608E-02  0.1099124E+00
          2   -1    0    0  501    0  0.00000000000E+00  0.00000000000E+00  0.10255185661E+03  0.10255185661E+03  0.00000000000E+00 0. -1.
         -2   -1    0    0    0  501 -0.00000000000E+00 -0.00000000000E+00 -0.18275430727E+03  0.18275430727E+03  0.00000000000E+00 0. -1.
         35    2    1    2    0    0  0.00000000000E+00  0.00000000000E+00 -0.80202450657E+02  0.28530616388E+03  0.27380134049E+03 0.  0.
         25    1    3    3    0    0 -0.55850201108E+02  0.13721587927E+02 -0.73612568032E+02  0.15207345959E+03  0.12000000000E+03 0.  0.
         25    1    3    3    0    0  0.55850201108E+02 -0.13721587927E+02 -0.65898826253E+01  0.13323270429E+03  0.12000000000E+03 0.  0.
<mgrwt>
<rscale>  0 0.27380134E+03</rscale>
<asrwt>0</asrwt>
<pdfrwt beam="1">  1        2 0.15777209E-01 0.27380134E+03</pdfrwt>
<pdfrwt beam="2">  1       -2 0.28116047E-01 0.27380134E+03</pdfrwt>
<totfact> 0.41973180E+03</totfact>
</mgrwt>
</event>
<event>
 5    1  0.1162308E+001  0.2753788E+03  0.7818608E-02  0.1098240E+00
          1   -1    0    0  501    0  0.00000000000E+00  0.00000000000E+00  0.92450464335E+01  0.92450464335E+01  0.00000000000E+00 0. -1.
         -1   -1    0    0    0  501 -0.00000000000E+00 -0.00000000000E+00 -0.20506518887E+04  0.20506518887E+04  0.00000000000E+00 0. -1.
         35    2    1    2    0    0  0.00000000000E+00  0.00000000000E+00 -0.20414068423E+04  0.20598969352E+04  0.27537880768E+03 0.  0.
         25    1    3    3    0    0  0.29106350260E+01  0.11366129710E+02 -0.15180521927E+04  0.15228329260E+04  0.12000000000E+03 0.  0.
         25    1    3    3    0    0 -0.29106350260E+01 -0.11366129710E+02 -0.52335464958E+03  0.53706400916E+03  0.12000000000E+03 0.  0.
<mgrwt>
<rscale>  0 0.27537881E+03</rscale>
<asrwt>0</asrwt>
<pdfrwt beam="1">  1        1 0.14223120E-02 0.27537881E+03</pdfrwt>
<pdfrwt beam="2">  1       -1 0.31548552E+00 0.27537881E+03</pdfrwt>
<totfact> 0.30310868E+02</totfact>
</mgrwt>
</event>
<event>
 5    1  0.1162308E+001  0.2748290E+03  0.7818608E-02  0.1098547E+00
          2   -1    0    0  501    0  0.00000000000E+00  0.00000000000E+00  0.31161692826E+03  0.31161692826E+03  0.00000000000E+00 0. -1.
         -2   -1    0    0    0  501 -0.00000000000E+00 -0.00000000000E+00 -0.60596019765E+02  0.60596019765E+02  0.00000000000E+00 0. -1.
         35    2    1    2    0    0  0.00000000000E+00  0.00000000000E+00  0.25102090849E+03  0.37221294803E+03  0.27482900534E+03 0.  0.
         25    1    3    3    0    0 -0.53359017910E+02 -0.16432914467E+02  0.75463465119E+02  0.15235471781E+03  0.12000000000E+03 0.  0.
         25    1    3    3    0    0  0.53359017910E+02  0.16432914467E+02  0.17555744338E+03  0.21985823022E+03  0.12000000000E+03 0.  0.
<mgrwt>
<rscale>  0 0.27482901E+03</rscale>
<asrwt>0</asrwt>
<pdfrwt beam="1">  1        2 0.47941065E-01 0.27482901E+03</pdfrwt>
<pdfrwt beam="2">  1       -2 0.93224648E-02 0.27482901E+03</pdfrwt>
<totfact> 0.77284946E+03</totfact>
</mgrwt>
</event>
<event>
 5    1  0.1162308E+001  0.2775548E+03  0.7818608E-02  0.1097032E+00
         -2   -1    0    0    0  501 -0.00000000000E+00  0.00000000000E+00  0.13598375232E+03  0.13598375232E+03  0.00000000000E+00 0.  1.
          2   -1    0    0  501    0  0.00000000000E+00 -0.00000000000E+00 -0.14162841715E+03  0.14162841715E+03  0.00000000000E+00 0.  1.
         35    2    1    2    0    0  0.00000000000E+00  0.00000000000E+00 -0.56446648269E+01  0.27761216947E+03  0.27755477729E+03 0.  0.
         25    1    3    3    0    0 -0.31108931606E+02 -0.60446312162E+02 -0.18241139362E+02  0.13911959404E+03  0.12000000000E+03 0.  0.
         25    1    3    3    0    0  0.31108931606E+02  0.60446312162E+02  0.12596474536E+02  0.13849257543E+03  0.12000000000E+03 0.  0.
<mgrwt>
<rscale>  0 0.27755478E+03</rscale>
<asrwt>0</asrwt>
<pdfrwt beam="1">  1        2 0.21788987E-01 0.27755478E+03</pdfrwt>
<pdfrwt beam="2">  1       -2 0.20920577E-01 0.27755478E+03</pdfrwt>
<totfact> 0.48610787E+03</totfact>
</mgrwt>
</event>
<event>
 5    1  0.1162308E+001  0.2753412E+03  0.7818608E-02  0.1098261E+00
         -2   -1    0    0    0  501 -0.00000000000E+00  0.00000000000E+00  0.11069135133E+02  0.11069135133E+02  0.00000000000E+00 0.  1.
          2   -1    0    0  501    0  0.00000000000E+00 -0.00000000000E+00 -0.17122558569E+04  0.17122558569E+04  0.00000000000E+00 0.  1.
         35    2    1    2    0    0  0.00000000000E+00  0.00000000000E+00 -0.17011867217E+04  0.17233249920E+04  0.27534118080E+03 0.  0.
         25    1    3    3    0    0 -0.51140372907E+02  0.12320272858E+02 -0.58608183748E+03  0.60054895478E+03  0.12000000000E+03 0.  0.
         25    1    3    3    0    0  0.51140372907E+02 -0.12320272858E+02 -0.11151048843E+04  0.11227760372E+04  0.12000000000E+03 0.  0.
<mgrwt>
<rscale>  0 0.27534118E+03</rscale>
<asrwt>0</asrwt>
<pdfrwt beam="1">  1        2 0.26342394E+00 0.27534118E+03</pdfrwt>
<pdfrwt beam="2">  1       -2 0.17029441E-02 0.27534118E+03</pdfrwt>
<totfact> 0.10309470E+04</totfact>
</mgrwt>
</event>
<event>
 5    1  0.1162308E+001  0.2751083E+03  0.7818608E-02  0.1098391E+00
         -1   -1    0    0    0  501 -0.00000000000E+00  0.00000000000E+00  0.12846660018E+02  0.12846660018E+02  0.00000000000E+00 0. -1.
          1   -1    0    0  501    0  0.00000000000E+00 -0.00000000000E+00 -0.14728453480E+04  0.14728453480E+04  0.00000000000E+00 0. -1.
         35    2    1    2    0    0  0.00000000000E+00  0.00000000000E+00 -0.14599986879E+04  0.14856920080E+04  0.27510829463E+03 0.  0.
         25    1    3    3    0    0  0.20636736276E+02  0.22806979004E+02 -0.40709802194E+03  0.42552888579E+03  0.12000000000E+03 0.  0.
         25    1    3    3    0    0 -0.20636736276E+02 -0.22806979004E+02 -0.10529006660E+04  0.10601631222E+04  0.12000000000E+03 0.  0.
<mgrwt>
<rscale>  0 0.27510829E+03</rscale>
<asrwt>0</asrwt>
<pdfrwt beam="1">  1        1 0.22659172E+00 0.27510829E+03</pdfrwt>
<pdfrwt beam="2">  1       -1 0.19764081E-02 0.27510829E+03</pdfrwt>
<totfact> 0.52049784E+03</totfact>
</mgrwt>
</event>
<event>
 5    1  0.1162308E+001  0.2704106E+03  0.7818608E-02  0.1101045E+00
          2   -1    0    0  501    0  0.00000000000E+00  0.00000000000E+00  0.91048552464E+02  0.91048552464E+02  0.00000000000E+00 0.  1.
         -2   -1    0    0    0  501 -0.00000000000E+00 -0.00000000000E+00 -0.20077726823E+03  0.20077726823E+03  0.00000000000E+00 0.  1.
         35    2    1    2    0    0  0.00000000000E+00  0.00000000000E+00 -0.10972871576E+03  0.29182582069E+03  0.27041064801E+03 0.  0.
         25    1    3    3    0    0  0.36014817088E+02  0.25881318754E+02 -0.76556519901E+01  0.12816207987E+03  0.12000000000E+03 0.  0.
         25    1    3    3    0    0 -0.36014817088E+02 -0.25881318754E+02 -0.10207306377E+03  0.16366374082E+03  0.12000000000E+03 0.  0.
<mgrwt>
<rscale>  0 0.27041065E+03</rscale>
<asrwt>0</asrwt>
<pdfrwt beam="1">  1        2 0.14007470E-01 0.27041065E+03</pdfrwt>
<pdfrwt beam="2">  1       -2 0.30888810E-01 0.27041065E+03</pdfrwt>
<totfact> 0.40750836E+03</totfact>
</mgrwt>
</event>
<event>
 5    1  0.1162308E+001  0.2758696E+03  0.7818608E-02  0.1097967E+00
         -2   -1    0    0    0  501 -0.00000000000E+00  0.00000000000E+00  0.31078143812E+03  0.31078143812E+03  0.00000000000E+00 0. -1.
          2   -1    0    0  501    0  0.00000000000E+00 -0.00000000000E+00 -0.61219882186E+02  0.61219882186E+02  0.00000000000E+00 0. -1.
         35    2    1    2    0    0  0.00000000000E+00  0.00000000000E+00  0.24956155593E+03  0.37200132031E+03  0.27586955633E+03 0.  0.
         25    1    3    3    0    0  0.42062543123E+02  0.23555138376E+02  0.60083796142E+02  0.14259791246E+03  0.12000000000E+03 0.  0.
         25    1    3    3    0    0 -0.42062543123E+02 -0.23555138376E+02  0.18947775979E+03  0.22940340785E+03  0.12000000000E+03 0.  0.
<mgrwt>
<rscale>  0 0.27586956E+03</rscale>
<asrwt>0</asrwt>
<pdfrwt beam="1">  1        2 0.94184436E-02 0.27586956E+03</pdfrwt>
<pdfrwt beam="2">  1       -2 0.47812528E-01 0.27586956E+03</pdfrwt>
<totfact> 0.28921444E+03</totfact>
</mgrwt>
</event>
<event>
 5    1  0.1162308E+001  0.2753077E+03  0.7818608E-02  0.1098280E+00
         -2   -1    0    0    0  501 -0.00000000000E+00  0.00000000000E+00  0.13872311587E+02  0.13872311587E+02  0.00000000000E+00 0. -1.
          2   -1    0    0  501    0  0.00000000000E+00 -0.00000000000E+00 -0.13659282268E+04  0.13659282268E+04  0.00000000000E+00 0. -1.
         35    2    1    2    0    0  0.00000000000E+00  0.00000000000E+00 -0.13520559152E+04  0.13798005384E+04  0.27530769672E+03 0.  0.
         25    1    3    3    0    0 -0.41694353168E+02 -0.52492394683E+02 -0.63895674431E+03  0.65357447295E+03  0.12000000000E+03 0.  0.
         25    1    3    3    0    0  0.41694353168E+02  0.52492394683E+02 -0.71309917090E+03  0.72622606544E+03  0.12000000000E+03 0.  0.
<mgrwt>
<rscale>  0 0.27530770E+03</rscale>
<asrwt>0</asrwt>
<pdfrwt beam="1">  1        2 0.21014286E+00 0.27530770E+03</pdfrwt>
<pdfrwt beam="2">  1       -2 0.21342012E-02 0.27530770E+03</pdfrwt>
<totfact> 0.11327055E+04</totfact>
</mgrwt>
</event>
<event>
 5    1  0.1162308E+001  0.2739938E+03  0.7818608E-02  0.1099015E+00
          2   -1    0    0  501    0  0.00000000000E+00  0.00000000000E+00  0.13550351589E+04  0.13550351589E+04  0.00000000000E+00 0. -1.
         -2   -1    0    0    0  501 -0.00000000000E+00 -0.00000000000E+00 -0.13850672821E+02  0.13850672821E+02  0.00000000000E+00 0. -1.
         35    2    1    2    0    0  0.00000000000E+00  0.00000000000E+00  0.13411844860E+04  0.13688858317E+04  0.27399378567E+03 0.  0.
         25    1    3    3    0    0 -0.28261905673E+02 -0.37050283802E+02  0.43643322791E+03  0.45502244039E+03  0.12000000000E+03 0.  0.
         25    1    3    3    0    0  0.28261905673E+02  0.37050283802E+02  0.90475125813E+03  0.91386339128E+03  0.12000000000E+03 0.  0.
<mgrwt>
<rscale>  0 0.27399379E+03</rscale>
<asrwt>0</asrwt>
<pdfrwt beam="1">  1        2 0.20846684E+00 0.27399379E+03</pdfrwt>
<pdfrwt beam="2">  1       -2 0.21308738E-02 0.27399379E+03</pdfrwt>
<totfact> 0.11508631E+04</totfact>
</mgrwt>
</event>
<event>
 5    1  0.1162308E+001  0.2756652E+03  0.7818608E-02  0.1098080E+00
          2   -1    0    0  501    0  0.00000000000E+00  0.00000000000E+00  0.63332435990E+03  0.63332435990E+03  0.00000000000E+00 0.  1.
         -2   -1    0    0    0  501 -0.00000000000E+00 -0.00000000000E+00 -0.29996996102E+02  0.29996996102E+02  0.00000000000E+00 0.  1.
         35    2    1    2    0    0  0.00000000000E+00  0.00000000000E+00  0.60332736379E+03  0.66332135600E+03  0.27566521982E+03 0.  0.
         25    1    3    3    0    0 -0.32444598278E+02  0.83039612241E+01  0.44353534848E+03  0.46070078477E+03  0.12000000000E+03 0.  0.
         25    1    3    3    0    0  0.32444598278E+02 -0.83039612241E+01  0.15979201531E+03  0.20262057123E+03  0.12000000000E+03 0.  0.
<mgrwt>
<rscale>  0 0.27566522E+03</rscale>
<asrwt>0</asrwt>
<pdfrwt beam="1">  1        2 0.97434507E-01 0.27566522E+03</pdfrwt>
<pdfrwt beam="2">  1       -2 0.46149229E-02 0.27566522E+03</pdfrwt>
<totfact> 0.10426587E+04</totfact>
</mgrwt>
</event>
<event>
 5    1  0.1162308E+001  0.2735712E+03  0.7818608E-02  0.1099253E+00
          2   -1    0    0  501    0  0.00000000000E+00  0.00000000000E+00  0.20741052867E+03  0.20741052867E+03  0.00000000000E+00 0. -1.
         -2   -1    0    0    0  501 -0.00000000000E+00 -0.00000000000E+00 -0.90208987967E+02  0.90208987967E+02  0.00000000000E+00 0. -1.
         35    2    1    2    0    0  0.00000000000E+00  0.00000000000E+00  0.11720154070E+03  0.29761951664E+03  0.27357115261E+03 0.  0.
         25    1    3    3    0    0 -0.76417943916E+01 -0.42320403211E+02  0.11256877420E+03  0.17006217238E+03  0.12000000000E+03 0.  0.
         25    1    3    3    0    0  0.76417943916E+01  0.42320403211E+02  0.46327665084E+01  0.12755734426E+03  0.12000000000E+03 0.  0.
<mgrwt>
<rscale>  0 0.27357115E+03</rscale>
<asrwt>0</asrwt>
<pdfrwt beam="1">  1        2 0.31909312E-01 0.27357115E+03</pdfrwt>
<pdfrwt beam="2">  1       -2 0.13878306E-01 0.27357115E+03</pdfrwt>
<totfact> 0.63281637E+03</totfact>
</mgrwt>
</event>
<event>
 5    1  0.1162308E+001  0.2746474E+03  0.7818608E-02  0.1098649E+00
         -2   -1    0    0    0  501 -0.00000000000E+00  0.00000000000E+00  0.42206652887E+02  0.42206652887E+02  0.00000000000E+00 0.  1.
          2   -1    0    0  501    0  0.00000000000E+00 -0.00000000000E+00 -0.44679674789E+03  0.44679674789E+03  0.00000000000E+00 0.  1.
         35    2    1    2    0    0  0.00000000000E+00  0.00000000000E+00 -0.40459009500E+03  0.48900340078E+03  0.27464737573E+03 0.  0.
         25    1    3    3    0    0  0.51934963265E+02  0.22322762459E+02 -0.13903799332E+03  0.19216427795E+03  0.12000000000E+03 0.  0.
         25    1    3    3    0    0 -0.51934963265E+02 -0.22322762459E+02 -0.26555210169E+03  0.29683912283E+03  0.12000000000E+03 0.  0.
<mgrwt>
<rscale>  0 0.27464738E+03</rscale>
<asrwt>0</asrwt>
<pdfrwt beam="1">  1        2 0.68737961E-01 0.27464738E+03</pdfrwt>
<pdfrwt beam="2">  1       -2 0.64933313E-02 0.27464738E+03</pdfrwt>
<totfact> 0.91924139E+03</totfact>
</mgrwt>
</event>
<event>
 5    1  0.1162308E+001  0.2751837E+03  0.7818608E-02  0.1098349E+00
          2   -1    0    0  501    0  0.00000000000E+00  0.00000000000E+00  0.41031148071E+04  0.41031148071E+04  0.00000000000E+00 0. -1.
         -2   -1    0    0    0  501 -0.00000000000E+00 -0.00000000000E+00 -0.46139376860E+01  0.46139376860E+01  0.00000000000E+00 0. -1.
         35    2    1    2    0    0  0.00000000000E+00  0.00000000000E+00  0.40985008694E+04  0.41077287448E+04  0.27518369166E+03 0.  0.
         25    1    3    3    0    0 -0.56329439301E+02 -0.12802467153E+02  0.25651814281E+04  0.25686363440E+04  0.12000000000E+03 0.  0.
         25    1    3    3    0    0  0.56329439301E+02  0.12802467153E+02  0.15333194414E+04  0.15390924008E+04  0.12000000000E+03 0.  0.
<mgrwt>
<rscale>  0 0.27518369E+03</rscale>
<asrwt>0</asrwt>
<pdfrwt beam="1">  1        2 0.63124552E+00 0.27518369E+03</pdfrwt>
<pdfrwt beam="2">  1       -2 0.70983985E-03 0.27518369E+03</pdfrwt>
<totfact> 0.13021091E+03</totfact>
</mgrwt>
</event>
<event>
 5    1  0.1162308E+001  0.2751281E+03  0.7818608E-02  0.1098380E+00
         -1   -1    0    0    0  501 -0.00000000000E+00  0.00000000000E+00  0.53965054446E+02  0.53965054446E+02  0.00000000000E+00 0. -1.
          1   -1    0    0  501    0  0.00000000000E+00 -0.00000000000E+00 -0.35066902384E+03  0.35066902384E+03  0.00000000000E+00 0. -1.
         35    2    1    2    0    0  0.00000000000E+00  0.00000000000E+00 -0.29670396939E+03  0.40463407829E+03  0.27512813716E+03 0.  0.
         25    1    3    3    0    0  0.20848151131E+01  0.57174700035E+02 -0.20036154957E+03  0.24045382784E+03  0.12000000000E+03 0.  0.
         25    1    3    3    0    0 -0.20848151131E+01 -0.57174700035E+02 -0.96342419823E+02  0.16418025044E+03  0.12000000000E+03 0.  0.
<mgrwt>
<rscale>  0 0.27512814E+03</rscale>
<asrwt>0</asrwt>
<pdfrwt beam="1">  1        1 0.53949079E-01 0.27512814E+03</pdfrwt>
<pdfrwt beam="2">  1       -1 0.83023163E-02 0.27512814E+03</pdfrwt>
<totfact> 0.58020503E+03</totfact>
</mgrwt>
</event>
<event>
 5    1  0.1162308E+001  0.2748978E+03  0.7818608E-02  0.1098509E+00
          2   -1    0    0  501    0  0.00000000000E+00  0.00000000000E+00  0.90735369503E+03  0.90735369503E+03  0.00000000000E+00 0.  1.
         -2   -1    0    0    0  501 -0.00000000000E+00 -0.00000000000E+00 -0.20821203385E+02  0.20821203385E+02  0.00000000000E+00 0.  1.
         35    2    1    2    0    0  0.00000000000E+00  0.00000000000E+00  0.88653249164E+03  0.92817489841E+03  0.27489776883E+03 0.  0.
         25    1    3    3    0    0 -0.47685140718E+02 -0.46172877409E+02  0.47464868924E+03  0.49406192471E+03  0.12000000000E+03 0.  0.
         25    1    3    3    0    0  0.47685140718E+02  0.46172877409E+02  0.41188380240E+03  0.43411297370E+03  0.12000000000E+03 0.  0.
<mgrwt>
<rscale>  0 0.27489777E+03</rscale>
<asrwt>0</asrwt>
<pdfrwt beam="1">  1        2 0.13959285E+00 0.27489777E+03</pdfrwt>
<pdfrwt beam="2">  1       -2 0.32032628E-02 0.27489777E+03</pdfrwt>
<totfact> 0.11503624E+04</totfact>
</mgrwt>
</event>
<event>
 5    1  0.1162308E+001  0.2747208E+03  0.7818608E-02  0.1098608E+00
          2   -1    0    0  501    0  0.00000000000E+00  0.00000000000E+00  0.83950101312E+03  0.83950101312E+03  0.00000000000E+00 0. -1.
         -2   -1    0    0    0  501 -0.00000000000E+00 -0.00000000000E+00 -0.22475116398E+02  0.22475116398E+02  0.00000000000E+00 0. -1.
         35    2    1    2    0    0  0.00000000000E+00  0.00000000000E+00  0.81702589672E+03  0.86197612951E+03  0.27472082547E+03 0.  0.
         25    1    3    3    0    0  0.42827008382E+02 -0.47263674221E+02  0.47125605537E+03  0.49045925139E+03  0.12000000000E+03 0.  0.
         25    1    3    3    0    0 -0.42827008382E+02  0.47263674221E+02  0.34576984135E+03  0.37151687813E+03  0.12000000000E+03 0.  0.
<mgrwt>
<rscale>  0 0.27472083E+03</rscale>
<asrwt>0</asrwt>
<pdfrwt beam="1">  1        2 0.12915398E+00 0.27472083E+03</pdfrwt>
<pdfrwt beam="2">  1       -2 0.34577109E-02 0.27472083E+03</pdfrwt>
<totfact> 0.11371405E+04</totfact>
</mgrwt>
</event>
<event>
 5    1  0.1162308E+001  0.2760318E+03  0.7818608E-02  0.1097876E+00
         -1   -1    0    0    0  501 -0.00000000000E+00  0.00000000000E+00  0.24720538684E+04  0.24720538684E+04  0.00000000000E+00 0. -1.
          1   -1    0    0  501    0  0.00000000000E+00 -0.00000000000E+00 -0.77054921168E+01  0.77054921168E+01  0.00000000000E+00 0. -1.
         35    2    1    2    0    0  0.00000000000E+00  0.00000000000E+00  0.24643483763E+04  0.24797593606E+04  0.27603182132E+03 0.  0.
         25    1    3    3    0    0 -0.67569355681E+02  0.41661046313E+01  0.11595139478E+04  0.11676710022E+04  0.12000000000E+03 0.  0.
         25    1    3    3    0    0  0.67569355681E+02 -0.41661046313E+01  0.13048344285E+04  0.13120883583E+04  0.12000000000E+03 0.  0.
<mgrwt>
<rscale>  0 0.27603182E+03</rscale>
<asrwt>0</asrwt>
<pdfrwt beam="1">  1        1 0.11854623E-02 0.27603182E+03</pdfrwt>
<pdfrwt beam="2">  1       -1 0.38031535E+00 0.27603182E+03</pdfrwt>
<totfact> 0.15079055E+02</totfact>
</mgrwt>
</event>
<event>
 5    1  0.1162308E+001  0.2771035E+03  0.7818608E-02  0.1097282E+00
          2   -1    0    0  501    0  0.00000000000E+00  0.00000000000E+00  0.31698494633E+04  0.31698494633E+04  0.00000000000E+00 0.  1.
         -2   -1    0    0    0  501 -0.00000000000E+00 -0.00000000000E+00 -0.60559919345E+01  0.60559919345E+01  0.00000000000E+00 0.  1.
         35    2    1    2    0    0  0.00000000000E+00  0.00000000000E+00  0.31637934714E+04  0.31759054552E+04  0.27710346648E+03 0.  0.
         25    1    3    3    0    0  0.20034915691E+02  0.65433582502E+02  0.14597239612E+04  0.14662458847E+04  0.12000000000E+03 0.  0.
         25    1    3    3    0    0 -0.20034915691E+02 -0.65433582502E+02  0.17040695102E+04  0.17096595705E+04  0.12000000000E+03 0.  0.
<mgrwt>
<rscale>  0 0.27710347E+03</rscale>
<asrwt>0</asrwt>
<pdfrwt beam="1">  1        2 0.48766782E+00 0.27710347E+03</pdfrwt>
<pdfrwt beam="2">  1       -2 0.93169360E-03 0.27710347E+03</pdfrwt>
<totfact> 0.38882846E+03</totfact>
</mgrwt>
</event>
<event>
 5    1  0.1162308E+001  0.2747864E+03  0.7818608E-02  0.1098571E+00
          3   -1    0    0  501    0  0.00000000000E+00  0.00000000000E+00  0.24669217551E+03  0.24669217551E+03  0.00000000000E+00 0. -1.
         -3   -1    0    0    0  501 -0.00000000000E+00 -0.00000000000E+00 -0.76520051896E+02  0.76520051896E+02  0.00000000000E+00 0. -1.
         35    2    1    2    0    0  0.00000000000E+00  0.00000000000E+00  0.17017212361E+03  0.32321222740E+03  0.27478644852E+03 0.  0.
         25    1    3    3    0    0  0.32310166580E+02 -0.14666714136E+01  0.16190669567E+02  0.12533250085E+03  0.12000000000E+03 0.  0.
         25    1    3    3    0    0 -0.32310166580E+02  0.14666714136E+01  0.15398145404E+03  0.19787972655E+03  0.12000000000E+03 0.  0.
<mgrwt>
<rscale>  0 0.27478645E+03</rscale>
<asrwt>0</asrwt>
<pdfrwt beam="1">  1        3 0.37952642E-01 0.27478645E+03</pdfrwt>
<pdfrwt beam="2">  1       -3 0.11772316E-01 0.27478645E+03</pdfrwt>
<totfact> 0.98124192E+02</totfact>
</mgrwt>
</event>
<event>
 5    1  0.1162308E+001  0.2753786E+03  0.7818608E-02  0.1098240E+00
          2   -1    0    0  501    0  0.00000000000E+00  0.00000000000E+00  0.13694332715E+04  0.13694332715E+04  0.00000000000E+00 0.  1.
         -2   -1    0    0    0  501 -0.00000000000E+00 -0.00000000000E+00 -0.13843936361E+02  0.13843936361E+02  0.00000000000E+00 0.  1.
         35    2    1    2    0    0  0.00000000000E+00  0.00000000000E+00  0.13555893351E+04  0.13832772079E+04  0.27537862707E+03 0.  0.
         25    1    3    3    0    0 -0.84224603025E+01  0.40944947768E+02  0.41147498140E+03  0.43064961036E+03  0.12000000000E+03 0.  0.
         25    1    3    3    0    0  0.84224603025E+01 -0.40944947768E+02  0.94411435375E+03  0.95262759751E+03  0.12000000000E+03 0.  0.
<mgrwt>
<rscale>  0 0.27537863E+03</rscale>
<asrwt>0</asrwt>
<pdfrwt beam="1">  1        2 0.21068194E+00 0.27537863E+03</pdfrwt>
<pdfrwt beam="2">  1       -2 0.21298374E-02 0.27537863E+03</pdfrwt>
<totfact> 0.11311386E+04</totfact>
</mgrwt>
</event>
<event>
 5    1  0.1162308E+001  0.2729002E+03  0.7818608E-02  0.1099631E+00
          2   -1    0    0  501    0  0.00000000000E+00  0.00000000000E+00  0.43441860681E+04  0.43441860681E+04  0.00000000000E+00 0.  1.
         -2   -1    0    0    0  501 -0.00000000000E+00 -0.00000000000E+00 -0.42858719684E+01  0.42858719684E+01  0.00000000000E+00 0.  1.
         35    2    1    2    0    0  0.00000000000E+00  0.00000000000E+00  0.43399001961E+04  0.43484719401E+04  0.27290016705E+03 0.  0.
         25    1    3    3    0    0 -0.49822927444E+02  0.25104215340E+00  0.15059968181E+04  0.15115914802E+04  0.12000000000E+03 0.  0.
         25    1    3    3    0    0  0.49822927444E+02 -0.25104215340E+00  0.28339033781E+04  0.28368804598E+04  0.12000000000E+03 0.  0.
<mgrwt>
<rscale>  0 0.27290017E+03</rscale>
<asrwt>0</asrwt>
<pdfrwt beam="1">  1        2 0.66833279E+00 0.27290017E+03</pdfrwt>
<pdfrwt beam="2">  1       -2 0.65936840E-03 0.27290017E+03</pdfrwt>
<totfact> 0.91413948E+02</totfact>
</mgrwt>
</event>
<event>
 5    1  0.1162308E+001  0.2743494E+03  0.7818608E-02  0.1098816E+00
          2   -1    0    0  501    0  0.00000000000E+00  0.00000000000E+00  0.14926336177E+03  0.14926336177E+03  0.00000000000E+00 0.  1.
         -2   -1    0    0    0  501 -0.00000000000E+00 -0.00000000000E+00 -0.12606507967E+03  0.12606507967E+03  0.00000000000E+00 0.  1.
         35    2    1    2    0    0  0.00000000000E+00  0.00000000000E+00  0.23198282099E+02  0.27532844143E+03  0.27434939470E+03 0.  0.
         25    1    3    3    0    0 -0.44020786116E+02 -0.44075166854E+02 -0.11644852337E+02  0.13570575717E+03  0.12000000000E+03 0.  0.
         25    1    3    3    0    0  0.44020786116E+02  0.44075166854E+02  0.34843134436E+02  0.13962268426E+03  0.12000000000E+03 0.  0.
<mgrwt>
<rscale>  0 0.27434939E+03</rscale>
<asrwt>0</asrwt>
<pdfrwt beam="1">  1        2 0.22963594E-01 0.27434939E+03</pdfrwt>
<pdfrwt beam="2">  1       -2 0.19394628E-01 0.27434939E+03</pdfrwt>
<totfact> 0.52130871E+03</totfact>
</mgrwt>
</event>
<event>
 5    1  0.1162308E+001  0.2746028E+03  0.7818608E-02  0.1098674E+00
          1   -1    0    0  501    0  0.00000000000E+00  0.00000000000E+00  0.12855990130E+03  0.12855990130E+03  0.00000000000E+00 0. -1.
         -1   -1    0    0    0  501 -0.00000000000E+00 -0.00000000000E+00 -0.14663727947E+03  0.14663727947E+03  0.00000000000E+00 0. -1.
         35    2    1    2    0    0  0.00000000000E+00  0.00000000000E+00 -0.18077378167E+02  0.27519718077E+03  0.27460279806E+03 0.  0.
         25    1    3    3    0    0  0.86659706815E+01  0.49081166625E+02  0.35415121800E+02  0.13467847199E+03  0.12000000000E+03 0.  0.
         25    1    3    3    0    0 -0.86659706815E+01 -0.49081166625E+02 -0.53492499968E+02  0.14051870878E+03  0.12000000000E+03 0.  0.
<mgrwt>
<rscale>  0 0.27460280E+03</rscale>
<asrwt>0</asrwt>
<pdfrwt beam="1">  1        1 0.19778447E-01 0.27460280E+03</pdfrwt>
<pdfrwt beam="2">  1       -1 0.22559581E-01 0.27460280E+03</pdfrwt>
<totfact> 0.42558729E+03</totfact>
</mgrwt>
</event>
<event>
 5    1  0.1162308E+001  0.2775160E+03  0.7818608E-02  0.1097053E+00
         -1   -1    0    0    0  501 -0.00000000000E+00  0.00000000000E+00  0.11770581567E+02  0.11770581567E+02  0.00000000000E+00 0.  1.
          1   -1    0    0  501    0  0.00000000000E+00 -0.00000000000E+00 -0.16357550628E+04  0.16357550628E+04  0.00000000000E+00 0.  1.
         35    2    1    2    0    0  0.00000000000E+00  0.00000000000E+00 -0.16239844813E+04  0.16475256444E+04  0.27751604200E+03 0.  0.
         25    1    3    3    0    0  0.12786553047E+02 -0.27634230543E+02 -0.11840023403E+04  0.11904573442E+04  0.12000000000E+03 0.  0.
         25    1    3    3    0    0 -0.12786553047E+02  0.27634230543E+02 -0.43998214097E+03  0.45706830016E+03  0.12000000000E+03 0.  0.
<mgrwt>
<rscale>  0 0.27751604E+03</rscale>
<asrwt>0</asrwt>
<pdfrwt beam="1">  1        1 0.25165461E+00 0.27751604E+03</pdfrwt>
<pdfrwt beam="2">  1       -1 0.18108588E-02 0.27751604E+03</pdfrwt>
<totfact> 0.46183740E+03</totfact>
</mgrwt>
</event>
<event>
 5    1  0.1162308E+001  0.2752460E+03  0.7818608E-02  0.1098314E+00
         -2   -1    0    0    0  501 -0.00000000000E+00  0.00000000000E+00  0.24975622258E+02  0.24975622258E+02  0.00000000000E+00 0.  1.
          2   -1    0    0  501    0  0.00000000000E+00 -0.00000000000E+00 -0.75834334007E+03  0.75834334007E+03  0.00000000000E+00 0.  1.
         35    2    1    2    0    0  0.00000000000E+00  0.00000000000E+00 -0.73336771782E+03  0.78331896233E+03  0.27524604850E+03 0.  0.
         25    1    3    3    0    0 -0.59984103458E+02 -0.11538313030E+02 -0.44762276031E+03  0.46743701275E+03  0.12000000000E+03 0.  0.
         25    1    3    3    0    0  0.59984103458E+02  0.11538313030E+02 -0.28574495750E+03  0.31588194959E+03  0.12000000000E+03 0.  0.
<mgrwt>
<rscale>  0 0.27524605E+03</rscale>
<asrwt>0</asrwt>
<pdfrwt beam="1">  1        2 0.11666821E+00 0.27524605E+03</pdfrwt>
<pdfrwt beam="2">  1       -2 0.38424032E-02 0.27524605E+03</pdfrwt>
<totfact> 0.11049617E+04</totfact>
</mgrwt>
</event>
<event>
 5    1  0.1162308E+001  0.2747164E+03  0.7818608E-02  0.1098610E+00
         -2   -1    0    0    0  501 -0.00000000000E+00  0.00000000000E+00  0.57965467410E+02  0.57965467410E+02  0.00000000000E+00 0. -1.
          2   -1    0    0  501    0  0.00000000000E+00 -0.00000000000E+00 -0.32549171309E+03  0.32549171309E+03  0.00000000000E+00 0. -1.
         35    2    1    2    0    0  0.00000000000E+00  0.00000000000E+00 -0.26752624568E+03  0.38345718050E+03  0.27471643043E+03 0.  0.
         25    1    3    3    0    0  0.20809589743E+02 -0.63377408324E+02 -0.12791655212E+03  0.18764961822E+03  0.12000000000E+03 0.  0.
         25    1    3    3    0    0 -0.20809589743E+02  0.63377408324E+02 -0.13960969356E+03  0.19580756229E+03  0.12000000000E+03 0.  0.
<mgrwt>
<rscale>  0 0.27471643E+03</rscale>
<asrwt>0</asrwt>
<pdfrwt beam="1">  1        2 0.50075648E-01 0.27471643E+03</pdfrwt>
<pdfrwt beam="2">  1       -2 0.89177643E-02 0.27471643E+03</pdfrwt>
<totfact> 0.79093498E+03</totfact>
</mgrwt>
</event>
<event>
 5    1  0.1162308E+001  0.2742122E+03  0.7818608E-02  0.1098893E+00
         -3   -1    0    0    0  501 -0.00000000000E+00  0.00000000000E+00  0.30031888813E+03  0.30031888813E+03  0.00000000000E+00 0.  1.
          3   -1    0    0  501    0  0.00000000000E+00 -0.00000000000E+00 -0.62593731282E+02  0.62593731282E+02  0.00000000000E+00 0.  1.
         35    2    1    2    0    0  0.00000000000E+00  0.00000000000E+00  0.23772515685E+03  0.36291261942E+03  0.27421217903E+03 0.  0.
         25    1    3    3    0    0 -0.26709893296E+02 -0.19727522156E+02  0.19483834352E+03  0.23122407668E+03  0.12000000000E+03 0.  0.
         25    1    3    3    0    0  0.26709893296E+02  0.19727522156E+02  0.42886813332E+02  0.13168854274E+03  0.12000000000E+03 0.  0.
<mgrwt>
<rscale>  0 0.27421218E+03</rscale>
<asrwt>0</asrwt>
<pdfrwt beam="1">  1        3 0.96298050E-02 0.27421218E+03</pdfrwt>
<pdfrwt beam="2">  1       -3 0.46202905E-01 0.27421218E+03</pdfrwt>
<totfact> 0.93415317E+02</totfact>
</mgrwt>
</event>
<event>
 5    1  0.1162308E+001  0.2742006E+03  0.7818608E-02  0.1098899E+00
         -2   -1    0    0    0  501 -0.00000000000E+00  0.00000000000E+00  0.16761172759E+02  0.16761172759E+02  0.00000000000E+00 0.  1.
          2   -1    0    0  501    0  0.00000000000E+00 -0.00000000000E+00 -0.11214309242E+04  0.11214309242E+04  0.00000000000E+00 0.  1.
         35    2    1    2    0    0  0.00000000000E+00  0.00000000000E+00 -0.11046697515E+04  0.11381920970E+04  0.27420063791E+03 0.  0.
         25    1    3    3    0    0  0.13268639081E+02  0.62404395709E+02 -0.62729734075E+03  0.64185069844E+03  0.12000000000E+03 0.  0.
         25    1    3    3    0    0 -0.13268639081E+02 -0.62404395709E+02 -0.47737241071E+03  0.49634139853E+03  0.12000000000E+03 0.  0.
<mgrwt>
<rscale>  0 0.27420064E+03</rscale>
<asrwt>0</asrwt>
<pdfrwt beam="1">  1        2 0.17252785E+00 0.27420064E+03</pdfrwt>
<pdfrwt beam="2">  1       -2 0.25786418E-02 0.27420064E+03</pdfrwt>
<totfact> 0.11754989E+04</totfact>
</mgrwt>
</event>
<event>
 5    1  0.1162308E+001  0.2755386E+03  0.7818608E-02  0.1098151E+00
          1   -1    0    0  501    0  0.00000000000E+00  0.00000000000E+00  0.36102012220E+03  0.36102012220E+03  0.00000000000E+00 0. -1.
         -1   -1    0    0    0  501 -0.00000000000E+00 -0.00000000000E+00 -0.52574317129E+02  0.52574317129E+02  0.00000000000E+00 0. -1.
         35    2    1    2    0    0  0.00000000000E+00  0.00000000000E+00  0.30844580507E+03  0.41359443933E+03  0.27553864625E+03 0.  0.
         25    1    3    3    0    0  0.43119611497E+02 -0.23174861738E+02  0.22437159971E+03  0.25911192537E+03  0.12000000000E+03 0.  0.
         25    1    3    3    0    0 -0.43119611497E+02  0.23174861738E+02  0.84074205364E+02  0.15448251396E+03  0.12000000000E+03 0.  0.
<mgrwt>
<rscale>  0 0.27553865E+03</rscale>
<asrwt>0</asrwt>
<pdfrwt beam="1">  1        1 0.55541556E-01 0.27553865E+03</pdfrwt>
<pdfrwt beam="2">  1       -1 0.80883567E-02 0.27553865E+03</pdfrwt>
<totfact> 0.58196869E+03</totfact>
</mgrwt>
</event>
<event>
 5    1  0.1162308E+001  0.2738779E+03  0.7818608E-02  0.1099080E+00
          2   -1    0    0  501    0  0.00000000000E+00  0.00000000000E+00  0.26115527491E+03  0.26115527491E+03  0.00000000000E+00 0. -1.
         -2   -1    0    0    0  501 -0.00000000000E+00 -0.00000000000E+00 -0.71805070928E+02  0.71805070928E+02  0.00000000000E+00 0. -1.
         35    2    1    2    0    0  0.00000000000E+00  0.00000000000E+00  0.18935020399E+03  0.33296034584E+03  0.27387787818E+03 0.  0.
         25    1    3    3    0    0  0.47120182564E+02  0.45017548089E+02  0.82194993499E+02  0.15938289807E+03  0.12000000000E+03 0.  0.
         25    1    3    3    0    0 -0.47120182564E+02 -0.45017548089E+02  0.10715521049E+03  0.17357744777E+03  0.12000000000E+03 0.  0.
<mgrwt>
<rscale>  0 0.27387788E+03</rscale>
<asrwt>0</asrwt>
<pdfrwt beam="1">  1        2 0.40177734E-01 0.27387788E+03</pdfrwt>
<pdfrwt beam="2">  1       -2 0.11046934E-01 0.27387788E+03</pdfrwt>
<totfact> 0.71330428E+03</totfact>
</mgrwt>
</event>
<event>
 5    1  0.1162308E+001  0.2745965E+03  0.7818608E-02  0.1098677E+00
          1   -1    0    0  501    0  0.00000000000E+00  0.00000000000E+00  0.58580692509E+02  0.58580692509E+02  0.00000000000E+00 0.  1.
         -1   -1    0    0    0  501 -0.00000000000E+00 -0.00000000000E+00 -0.32179214307E+03  0.32179214307E+03  0.00000000000E+00 0.  1.
         35    2    1    2    0    0  0.00000000000E+00  0.00000000000E+00 -0.26321145056E+03  0.38037283558E+03  0.27459647911E+03 0.  0.
         25    1    3    3    0    0 -0.17802197880E+02 -0.59355942989E+02 -0.16583911889E+03  0.21387533652E+03  0.12000000000E+03 0.  0.
         25    1    3    3    0    0  0.17802197880E+02  0.59355942989E+02 -0.97372331673E+02  0.16649749906E+03  0.12000000000E+03 0.  0.
<mgrwt>
<rscale>  0 0.27459648E+03</rscale>
<asrwt>0</asrwt>
<pdfrwt beam="1">  1        1 0.90124144E-02 0.27459648E+03</pdfrwt>
<pdfrwt beam="2">  1       -1 0.49506483E-01 0.27459648E+03</pdfrwt>
<totfact> 0.30804044E+03</totfact>
</mgrwt>
</event>
<event>
 5    1  0.1162308E+001  0.2745522E+03  0.7818608E-02  0.1098702E+00
          1   -1    0    0  501    0  0.00000000000E+00  0.00000000000E+00  0.96716365158E+03  0.96716365158E+03  0.00000000000E+00 0. -1.
         -1   -1    0    0    0  501 -0.00000000000E+00 -0.00000000000E+00 -0.19484529008E+02  0.19484529008E+02  0.00000000000E+00 0. -1.
         35    2    1    2    0    0  0.00000000000E+00  0.00000000000E+00  0.94767912257E+03  0.98664818059E+03  0.27455220432E+03 0.  0.
         25    1    3    3    0    0  0.21585585076E+02  0.34043476607E+02  0.28300851308E+03  0.31003018282E+03  0.12000000000E+03 0.  0.
         25    1    3    3    0    0 -0.21585585076E+02 -0.34043476607E+02  0.66467060949E+03  0.67661799777E+03  0.12000000000E+03 0.  0.
<mgrwt>
<rscale>  0 0.27455220E+03</rscale>
<asrwt>0</asrwt>
<pdfrwt beam="1">  1        1 0.14879437E+00 0.27455220E+03</pdfrwt>
<pdfrwt beam="2">  1       -1 0.29976206E-02 0.27455220E+03</pdfrwt>
<totfact> 0.63896193E+03</totfact>
</mgrwt>
</event>
<event>
 5    1  0.1162308E+001  0.2744627E+03  0.7818608E-02  0.1098752E+00
         -1   -1    0    0    0  501 -0.00000000000E+00  0.00000000000E+00  0.97412617914E+03  0.97412617914E+03  0.00000000000E+00 0. -1.
          1   -1    0    0  501    0  0.00000000000E+00 -0.00000000000E+00 -0.19332647415E+02  0.19332647415E+02  0.00000000000E+00 0. -1.
         35    2    1    2    0    0  0.00000000000E+00  0.00000000000E+00  0.95479353172E+03  0.99345882655E+03  0.27446266018E+03 0.  0.
         25    1    3    3    0    0 -0.47024304825E+02  0.21640158400E+02  0.32585241345E+03  0.35108314835E+03  0.12000000000E+03 0.  0.
         25    1    3    3    0    0  0.47024304825E+02 -0.21640158400E+02  0.62894111827E+03  0.64237567820E+03  0.12000000000E+03 0.  0.
<mgrwt>
<rscale>  0 0.27446266E+03</rscale>
<asrwt>0</asrwt>
<pdfrwt beam="1">  1        1 0.29742542E-02 0.27446266E+03</pdfrwt>
<pdfrwt beam="2">  1       -1 0.14986553E+00 0.27446266E+03</pdfrwt>
<totfact> 0.13069994E+03</totfact>
</mgrwt>
</event>
<event>
 5    1  0.1162308E+001  0.2771903E+03  0.7818608E-02  0.1097234E+00
          2   -1    0    0  501    0  0.00000000000E+00  0.00000000000E+00  0.13908883471E+04  0.13908883471E+04  0.00000000000E+00 0.  1.
         -2   -1    0    0    0  501 -0.00000000000E+00 -0.00000000000E+00 -0.13810319327E+02  0.13810319327E+02  0.00000000000E+00 0.  1.
         35    2    1    2    0    0  0.00000000000E+00  0.00000000000E+00  0.13770780278E+04  0.14046986664E+04  0.27719027560E+03 0.  0.
         25    1    3    3    0    0  0.66766930352E+02 -0.16947512430E+02  0.72894399352E+03  0.74195982833E+03  0.12000000000E+03 0.  0.
         25    1    3    3    0    0 -0.66766930352E+02  0.16947512430E+02  0.64813403425E+03  0.66273883809E+03  0.12000000000E+03 0.  0.
<mgrwt>
<rscale>  0 0.27719028E+03</rscale>
<asrwt>0</asrwt>
<pdfrwt beam="1">  1        2 0.21398271E+00 0.27719028E+03</pdfrwt>
<pdfrwt beam="2">  1       -2 0.21246656E-02 0.27719028E+03</pdfrwt>
<totfact> 0.11052091E+04</totfact>
</mgrwt>
</event>
<event>
 5    1  0.1162308E+001  0.2756663E+03  0.7818608E-02  0.1098080E+00
         -1   -1    0    0    0  501 -0.00000000000E+00  0.00000000000E+00  0.18252628736E+02  0.18252628736E+02  0.00000000000E+00 0. -1.
          1   -1    0    0  501    0  0.00000000000E+00 -0.00000000000E+00 -0.10408348321E+04  0.10408348321E+04  0.00000000000E+00 0. -1.
         35    2    1    2    0    0  0.00000000000E+00  0.00000000000E+00 -0.10225822033E+04  0.10590874608E+04  0.27566626029E+03 0.  0.
         25    1    3    3    0    0  0.94105747648E+01 -0.52857979857E+02 -0.67041552411E+03  0.68318335746E+03  0.12000000000E+03 0.  0.
         25    1    3    3    0    0 -0.94105747648E+01  0.52857979857E+02 -0.35216667924E+03  0.37590410335E+03  0.12000000000E+03 0.  0.
<mgrwt>
<rscale>  0 0.27566626E+03</rscale>
<asrwt>0</asrwt>
<pdfrwt beam="1">  1        1 0.16012846E+00 0.27566626E+03</pdfrwt>
<pdfrwt beam="2">  1       -1 0.28080963E-02 0.27566626E+03</pdfrwt>
<totfact> 0.61980558E+03</totfact>
</mgrwt>
</event>
<event>
 5    1  0.1162308E+001  0.2748142E+03  0.7818608E-02  0.1098556E+00
          4   -1    0    0  501    0  0.00000000000E+00  0.00000000000E+00  0.32563718040E+02  0.32563718040E+02  0.00000000000E+00 0. -1.
         -4   -1    0    0    0  501 -0.00000000000E+00 -0.00000000000E+00 -0.57980804121E+03  0.57980804121E+03  0.00000000000E+00 0. -1.
         35    2    1    2    0    0  0.00000000000E+00  0.00000000000E+00 -0.54724432317E+03  0.61237175925E+03  0.27481415954E+03 0.  0.
         25    1    3    3    0    0 -0.66760119214E+02 -0.42375289334E+01 -0.26823932186E+03  0.30137551984E+03  0.12000000000E+03 0.  0.
         25    1    3    3    0    0  0.66760119214E+02  0.42375289334E+01 -0.27900500131E+03  0.31099623941E+03  0.12000000000E+03 0.  0.
<mgrwt>
<rscale>  0 0.27481416E+03</rscale>
<asrwt>0</asrwt>
<pdfrwt beam="1">  1        4 0.50098026E-02 0.27481416E+03</pdfrwt>
<pdfrwt beam="2">  1       -4 0.89201241E-01 0.27481416E+03</pdfrwt>
<totfact> 0.49548279E+02</totfact>
</mgrwt>
</event>
<event>
 5    1  0.1162308E+001  0.2786662E+03  0.7818608E-02  0.1096420E+00
          2   -1    0    0  501    0  0.00000000000E+00  0.00000000000E+00  0.20442408269E+03  0.20442408269E+03  0.00000000000E+00 0.  1.
         -2   -1    0    0    0  501 -0.00000000000E+00 -0.00000000000E+00 -0.94967824051E+02  0.94967824051E+02  0.00000000000E+00 0.  1.
         35    2    1    2    0    0  0.00000000000E+00  0.00000000000E+00  0.10945625864E+03  0.29939190674E+03  0.27866618249E+03 0.  0.
         25    1    3    3    0    0  0.68715822115E+02  0.91206753479E+01  0.70247523120E+02  0.15536977001E+03  0.12000000000E+03 0.  0.
         25    1    3    3    0    0 -0.68715822115E+02 -0.91206753479E+01  0.39208735518E+02  0.14402213673E+03  0.12000000000E+03 0.  0.
<mgrwt>
<rscale>  0 0.27866618E+03</rscale>
<asrwt>0</asrwt>
<pdfrwt beam="1">  1        2 0.31449859E-01 0.27866618E+03</pdfrwt>
<pdfrwt beam="2">  1       -2 0.14610435E-01 0.27866618E+03</pdfrwt>
<totfact> 0.59124570E+03</totfact>
</mgrwt>
</event>
<event>
 5    1  0.1162308E+001  0.2729756E+03  0.7818608E-02  0.1099589E+00
         -2   -1    0    0    0  501 -0.00000000000E+00  0.00000000000E+00  0.30933022732E+02  0.30933022732E+02  0.00000000000E+00 0. -1.
          2   -1    0    0  501    0  0.00000000000E+00 -0.00000000000E+00 -0.60223420429E+03  0.60223420429E+03  0.00000000000E+00 0. -1.
         35    2    1    2    0    0  0.00000000000E+00  0.00000000000E+00 -0.57130118156E+03  0.63316722702E+03  0.27297563504E+03 0.  0.
         25    1    3    3    0    0 -0.33010277853E+02  0.55050148674E+02 -0.30983654809E+03  0.33840638860E+03  0.12000000000E+03 0.  0.
         25    1    3    3    0    0  0.33010277853E+02 -0.55050148674E+02 -0.26146463347E+03  0.29476083842E+03  0.12000000000E+03 0.  0.
<mgrwt>
<rscale>  0 0.27297564E+03</rscale>
<asrwt>0</asrwt>
<pdfrwt beam="1">  1        2 0.92651411E-01 0.27297564E+03</pdfrwt>
<pdfrwt beam="2">  1       -2 0.47589268E-02 0.27297564E+03</pdfrwt>
<totfact> 0.10552250E+04</totfact>
</mgrwt>
</event>
