<event>
 9    1  0.4246427E-036  0.9997234E+03  0.7818608E-02  0.8681301E-01
          2   -1    0    0  501    0  0.00000000000E+00  0.00000000000E+00  0.80598461280E+03  0.80598461280E+03  0.00000000000E+00 0. -1.
         -2   -1    0    0    0  501 -0.00000000000E+00 -0.00000000000E+00 -0.31000802294E+03  0.31000802294E+03  0.00000000000E+00 0. -1.
         36    2    1    2    0    0 -0.71054273576E-14 -0.71054273576E-14  0.49597658985E+03  0.11159926357E+04  0.99972335441E+03 0.  0.
         25    2    3    3    0    0 -0.48555820676E+02 -0.38813101615E+02 -0.46911964719E+02  0.14718186690E+03  0.12489053180E+03 0.  0.
         35    2    3    3    0    0  0.48555820676E+02  0.38813101615E+02  0.54288855457E+03  0.96881076884E+03  0.80000137409E+03 0.  0.
         22    1    5    5    0    0  0.20737251117E+02 -0.17627244372E+03 -0.15646076020E+03  0.23660510873E+03  0.00000000000E+00 0. -1.
         22    1    5    5    0    0  0.27818569559E+02  0.21508554533E+03  0.69934931477E+03  0.73220566010E+03  0.00000000000E+00 0. -1.
          5    1    4    4  502    0 -0.23833959172E+02  0.37793169729E+02  0.12950061269E+02  0.46756554352E+02  0.47000000000E+01 0.  1.
         -5    1    4    4    0  502 -0.24721861504E+02 -0.76606271344E+02 -0.59862025988E+02  0.10042531255E+03  0.47000000000E+01 0.  1.
<mgrwt>
<rscale>  0 0.99972335E+03</rscale>
<asrwt>0</asrwt>
<pdfrwt beam="1">  1        2 0.12399763E+00 0.99972335E+03</pdfrwt>
<pdfrwt beam="2">  1       -2 0.47693542E-01 0.99972335E+03</pdfrwt>
<totfact> 0.17194895E+02</totfact>
</mgrwt>
</event>
<event>
 9    1  0.4246427E-036  0.9993878E+03  0.7818608E-02  0.8681621E-01
         -2   -1    0    0    0  501 -0.00000000000E+00  0.00000000000E+00  0.10253625089E+03  0.10253625089E+03  0.00000000000E+00 0. -1.
          2   -1    0    0  501    0  0.00000000000E+00 -0.00000000000E+00 -0.24351777508E+04  0.24351777508E+04  0.00000000000E+00 0. -1.
         36    2    1    2    0    0 -0.35527136788E-14  0.00000000000E+00 -0.23326415000E+04  0.25377140017E+04  0.99938780624E+03 0.  0.
         25    2    3    3    0    0  0.27562380372E+02  0.83553556508E+02 -0.71697840378E+03  0.73334246415E+03  0.12646049434E+03 0.  0.
         35    2    3    3    0    0 -0.27562380372E+02 -0.83553556508E+02 -0.16156630962E+04  0.18043715376E+04  0.79852897483E+03 0.  0.
         22    1    5    5    0    0  0.64425791338E+02 -0.11940973241E+03 -0.16806858773E+04  0.16861537252E+04  0.00000000000E+00 0. -1.
         22    1    5    5    0    0 -0.91988171710E+02  0.35856175907E+02  0.65022781170E+02  0.11821781235E+03  0.00000000000E+00 0. -1.
          5    1    4    4  502    0 -0.19569491086E+02  0.10054771126E+03 -0.43624637803E+03  0.44813591640E+03  0.47000000000E+01 0. -1.
         -5    1    4    4    0  502  0.47131871458E+02 -0.16994154749E+02 -0.28073202575E+03  0.28520654776E+03  0.47000000000E+01 0. -1.
<mgrwt>
<rscale>  0 0.99938781E+03</rscale>
<asrwt>0</asrwt>
<pdfrwt beam="1">  1        2 0.37464275E+00 0.99938781E+03</pdfrwt>
<pdfrwt beam="2">  1       -2 0.15774807E-01 0.99938781E+03</pdfrwt>
<totfact> 0.14004717E+02</totfact>
</mgrwt>
</event>
<event>
 9    1  0.4246427E-036  0.1000139E+04  0.7818608E-02  0.8680905E-01
          2   -1    0    0  501    0  0.00000000000E+00  0.00000000000E+00  0.20511186641E+04  0.20511186641E+04  0.00000000000E+00 0.  1.
         -2   -1    0    0    0  501 -0.00000000000E+00 -0.00000000000E+00 -0.12191870860E+03  0.12191870860E+03  0.00000000000E+00 0.  1.
         36    2    1    2    0    0 -0.14210854715E-13  0.00000000000E+00  0.19291999555E+04  0.21730373727E+04  0.10001394677E+04 0.  0.
         25    2    3    3    0    0  0.40185957822E+02 -0.13587825233E+03  0.37668440857E+03  0.42200255180E+03  0.12695353245E+03 0.  0.
         35    2    3    3    0    0 -0.40185957822E+02  0.13587825233E+03  0.15525155469E+04  0.17510348209E+04  0.79733343708E+03 0.  0.
         22    1    5    5    0    0 -0.35785237919E+03  0.82852738031E+02  0.12718782244E+04  0.13238569104E+04  0.00000000000E+00 0. -1.
         22    1    5    5    0    0  0.31766642137E+03  0.53025514300E+02  0.28063732255E+03  0.42717791052E+03  0.00000000000E+00 0. -1.
          5    1    4    4  502    0 -0.11985712808E+02  0.23329014512E+01 -0.39589356245E+01  0.13669780977E+02  0.47000000000E+01 0.  1.
         -5    1    4    4    0  502  0.52171670630E+02 -0.13821115378E+03  0.38064334420E+03  0.40833277082E+03  0.47000000000E+01 0.  1.
<mgrwt>
<rscale>  0 0.10001395E+04</rscale>
<asrwt>0</asrwt>
<pdfrwt beam="1">  1        2 0.31555669E+00 0.10001395E+04</pdfrwt>
<pdfrwt beam="2">  1       -2 0.18756726E-01 0.10001395E+04</pdfrwt>
<totfact> 0.17507342E+02</totfact>
</mgrwt>
</event>
<event>
 9    1  0.4246427E-036  0.1002118E+04  0.7818608E-02  0.8679024E-01
         -3   -1    0    0    0  501 -0.00000000000E+00  0.00000000000E+00  0.50897380421E+03  0.50897380421E+03  0.00000000000E+00 0. -1.
          3   -1    0    0  501    0  0.00000000000E+00 -0.00000000000E+00 -0.49326729421E+03  0.49326729421E+03  0.00000000000E+00 0. -1.
         36    2    1    2    0    0 -0.28421709430E-13  0.00000000000E+00  0.15706509998E+02  0.10022410984E+04  0.10021180195E+04 0.  0.
         25    2    3    3    0    0 -0.10858610134E+03 -0.58019738451E+02  0.74074671346E+02  0.19082643776E+03  0.12558041630E+03 0.  0.
         35    2    3    3    0    0  0.10858610134E+03  0.58019738451E+02 -0.58368161348E+02  0.81141466067E+03  0.79989354156E+03 0.  0.
         22    1    5    5    0    0  0.38895960080E+03 -0.11353591855E+03 -0.20194807823E+03  0.45272839778E+03  0.00000000000E+00 0. -1.
         22    1    5    5    0    0 -0.28037349946E+03  0.17155565700E+03  0.14357991689E+03  0.35868626288E+03  0.00000000000E+00 0. -1.
          5    1    4    4  502    0 -0.12282791098E+02 -0.76189564393E+02  0.39299429801E+02  0.86730916415E+02  0.47000000000E+01 0. -1.
         -5    1    4    4    0  502 -0.96303310246E+02  0.18169825942E+02  0.34775241545E+02  0.10409552134E+03  0.47000000000E+01 0.  1.
<mgrwt>
<rscale>  0 0.10021180E+04</rscale>
<asrwt>0</asrwt>
<pdfrwt beam="1">  1        3 0.75887276E-01 0.10021180E+04</pdfrwt>
<pdfrwt beam="2">  1       -3 0.78303663E-01 0.10021180E+04</pdfrwt>
<totfact> 0.98874859E+00</totfact>
</mgrwt>
</event>
<event>
 9    1  0.4246427E-036  0.9992946E+03  0.7818608E-02  0.8681710E-01
         -2   -1    0    0    0  501 -0.00000000000E+00  0.00000000000E+00  0.11235444681E+04  0.11235444681E+04  0.00000000000E+00 0.  1.
          2   -1    0    0  501    0  0.00000000000E+00 -0.00000000000E+00 -0.22219628314E+03  0.22219628314E+03  0.00000000000E+00 0.  1.
         36    2    1    2    0    0  0.00000000000E+00 -0.14210854715E-13  0.90134818494E+03  0.13457407512E+04  0.99929456069E+03 0.  0.
         25    2    3    3    0    0  0.58437923326E+02 -0.19004546141E+02  0.29252046685E+00  0.13948095947E+03  0.12521457116E+03 0.  0.
         35    2    3    3    0    0 -0.58437923326E+02  0.19004546141E+02  0.90105566448E+03  0.12062597918E+04  0.79961566460E+03 0.  0.
         22    1    5    5    0    0 -0.33795873407E+03 -0.15335586860E+03  0.17691278610E+03  0.41113533326E+03  0.00000000000E+00 0.  1.
         22    1    5    5    0    0  0.27952081074E+03  0.17236041474E+03  0.72414287838E+03  0.79512445851E+03  0.00000000000E+00 0.  1.
          5    1    4    4  502    0  0.15859476510E+02  0.50809181610E+02 -0.16389793141E+02  0.55891065925E+02  0.47000000000E+01 0.  1.
         -5    1    4    4    0  502  0.42578446816E+02 -0.69813727751E+02  0.16682313608E+02  0.83589893546E+02  0.47000000000E+01 0.  1.
<mgrwt>
<rscale>  0 0.99929456E+03</rscale>
<asrwt>0</asrwt>
<pdfrwt beam="1">  1        2 0.34184044E-01 0.99929456E+03</pdfrwt>
<pdfrwt beam="2">  1       -2 0.17285299E+00 0.99929456E+03</pdfrwt>
<totfact> 0.34693345E+01</totfact>
</mgrwt>
</event>
<event>
 9    1  0.4246427E-036  0.9998606E+03  0.7818608E-02  0.8681171E-01
          1   -1    0    0  501    0  0.00000000000E+00  0.00000000000E+00  0.24894658318E+03  0.24894658318E+03  0.00000000000E+00 0.  1.
         -1   -1    0    0    0  501 -0.00000000000E+00 -0.00000000000E+00 -0.10039514622E+04  0.10039514622E+04  0.00000000000E+00 0.  1.
         36    2    1    2    0    0 -0.28421709430E-13  0.71054273576E-14 -0.75500487906E+03  0.12528980454E+04  0.99986056268E+03 0.  0.
         25    2    3    3    0    0  0.42791483703E+00  0.12537443141E+02 -0.31735968791E+03  0.34093433678E+03  0.12394224417E+03 0.  0.
         35    2    3    3    0    0 -0.42791483703E+00 -0.12537443141E+02 -0.43764519115E+03  0.91196370864E+03  0.79999195118E+03 0.  0.
         22    1    5    5    0    0  0.31862711788E+03 -0.17322800808E+03 -0.21203692439E+02  0.36329159033E+03  0.00000000000E+00 0. -1.
         22    1    5    5    0    0 -0.31905503272E+03  0.16069056494E+03 -0.41644149871E+03  0.54867211831E+03  0.00000000000E+00 0. -1.
          5    1    4    4  502    0  0.28115622568E+02  0.40725077044E+02 -0.28595635333E+03  0.29024497608E+03  0.47000000000E+01 0.  1.
         -5    1    4    4    0  502 -0.27687707731E+02 -0.28187633903E+02 -0.31403334586E+02  0.50689360693E+02  0.47000000000E+01 0.  1.
<mgrwt>
<rscale>  0 0.99986056E+03</rscale>
<asrwt>0</asrwt>
<pdfrwt beam="1">  1        1 0.38299476E-01 0.99986056E+03</pdfrwt>
<pdfrwt beam="2">  1       -1 0.15445407E+00 0.99986056E+03</pdfrwt>
<totfact> 0.42048480E+01</totfact>
</mgrwt>
</event>
<event>
 9    1  0.4246427E-036  0.1000524E+04  0.7818608E-02  0.8680539E-01
          2   -1    0    0  501    0  0.00000000000E+00  0.00000000000E+00  0.16738839229E+04  0.16738839229E+04  0.00000000000E+00 0.  1.
         -2   -1    0    0    0  501 -0.00000000000E+00 -0.00000000000E+00 -0.14950979675E+03  0.14950979675E+03  0.00000000000E+00 0.  1.
         36    2    1    2    0    0  0.00000000000E+00 -0.14210854715E-13  0.15243741261E+04  0.18233937196E+04  0.10005239529E+04 0.  0.
         25    2    3    3    0    0 -0.12129661161E+03 -0.80410082488E+02  0.28527717259E+03  0.34073223317E+03  0.11634749749E+03 0.  0.
         35    2    3    3    0    0  0.12129661161E+03  0.80410082488E+02  0.12390969535E+04  0.14826614865E+04  0.80108999108E+03 0.  0.
         22    1    5    5    0    0  0.33175291975E+03 -0.24912043623E+03  0.53183298677E+03  0.67451265172E+03  0.00000000000E+00 0.  1.
         22    1    5    5    0    0 -0.21045630814E+03  0.32953051872E+03  0.70726396677E+03  0.80814883474E+03  0.00000000000E+00 0.  1.
          5    1    4    4  502    0 -0.11543113617E+03 -0.69820450816E+02  0.29506151691E+03  0.32447285142E+03  0.47000000000E+01 0. -1.
         -5    1    4    4    0  502 -0.58654754393E+01 -0.10589631673E+02 -0.97843443234E+01  0.16259381751E+02  0.47000000000E+01 0. -1.
<mgrwt>
<rscale>  0 0.10005240E+04</rscale>
<asrwt>0</asrwt>
<pdfrwt beam="1">  1        2 0.25752059E+00 0.10005240E+04</pdfrwt>
<pdfrwt beam="2">  1       -2 0.23001508E-01 0.10005240E+04</pdfrwt>
<totfact> 0.20085269E+02</totfact>
</mgrwt>
</event>
<event>
 9    1  0.4246427E-036  0.9999638E+03  0.7818608E-02  0.8681072E-01
         -2   -1    0    0    0  501 -0.00000000000E+00  0.00000000000E+00  0.37015404110E+03  0.37015404110E+03  0.00000000000E+00 0.  1.
          2   -1    0    0  501    0  0.00000000000E+00 -0.00000000000E+00 -0.67534562223E+03  0.67534562223E+03  0.00000000000E+00 0.  1.
         36    2    1    2    0    0 -0.14210854715E-13  0.00000000000E+00 -0.30519158114E+03  0.10454996633E+04  0.99996382176E+03 0.  0.
         25    2    3    3    0    0  0.46254390519E+02  0.13145868802E+02 -0.19500432804E+03  0.23643047102E+03  0.12474132099E+03 0.  0.
         35    2    3    3    0    0 -0.46254390519E+02 -0.13145868802E+02 -0.11018725309E+03  0.80906919231E+03  0.80008714818E+03 0.  0.
         22    1    5    5    0    0 -0.12840426418E+03 -0.68112242146E+02 -0.44072195843E+03  0.46407195265E+03  0.00000000000E+00 0.  1.
         22    1    5    5    0    0  0.82149873663E+02  0.54966373344E+02  0.33053470534E+03  0.34499723966E+03  0.00000000000E+00 0.  1.
          5    1    4    4  502    0 -0.51219464312E+01  0.51353564521E+02 -0.14815089992E+03  0.15695286576E+03  0.47000000000E+01 0.  1.
         -5    1    4    4    0  502  0.51376336950E+02 -0.38207695720E+02 -0.46853428126E+02  0.79477605259E+02  0.47000000000E+01 0.  1.
<mgrwt>
<rscale>  0 0.99996382E+03</rscale>
<asrwt>0</asrwt>
<pdfrwt beam="1">  1        2 0.10389933E+00 0.99996382E+03</pdfrwt>
<pdfrwt beam="2">  1       -2 0.56946776E-01 0.99996382E+03</pdfrwt>
<totfact> 0.14997241E+02</totfact>
</mgrwt>
</event>
<event>
 9    1  0.4246427E-036  0.9977731E+03  0.7818608E-02  0.8683161E-01
          2   -1    0    0  501    0  0.00000000000E+00  0.00000000000E+00  0.26229292337E+04  0.26229292337E+04  0.00000000000E+00 0.  1.
         -2   -1    0    0    0  501 -0.00000000000E+00 -0.00000000000E+00 -0.94889256026E+02  0.94889256026E+02  0.00000000000E+00 0.  1.
         36    2    1    2    0    0  0.71054273576E-14 -0.28421709430E-13  0.25280399777E+04  0.27178184897E+04  0.99777312771E+03 0.  0.
         25    2    3    3    0    0  0.42035700987E+02 -0.13333115672E+03  0.48664029020E+03  0.52113190796E+03  0.12335110835E+03 0.  0.
         35    2    3    3    0    0 -0.42035700987E+02  0.13333115672E+03  0.20413996875E+04  0.21966865818E+04  0.79910891437E+03 0.  0.
         22    1    5    5    0    0 -0.12675462864E+03  0.32628547207E+03  0.19237478276E+04  0.19553349200E+04  0.00000000000E+00 0.  1.
         22    1    5    5    0    0  0.84718927649E+02 -0.19295431535E+03  0.11765185988E+03  0.24135166179E+03  0.00000000000E+00 0.  1.
          5    1    4    4  502    0  0.26142129097E+02 -0.12386294407E+03  0.22042791688E+03  0.25423610359E+03  0.47000000000E+01 0.  1.
         -5    1    4    4    0  502  0.15893571890E+02 -0.94682126472E+01  0.26621237332E+03  0.26689580437E+03  0.47000000000E+01 0.  1.
<mgrwt>
<rscale>  0 0.99777313E+03</rscale>
<asrwt>0</asrwt>
<pdfrwt beam="1">  1        2 0.40352752E+00 0.99777313E+03</pdfrwt>
<pdfrwt beam="2">  1       -2 0.14598349E-01 0.99777313E+03</pdfrwt>
<totfact> 0.12245625E+02</totfact>
</mgrwt>
</event>
<event>
 9    1  0.4246427E-036  0.1000352E+04  0.7818608E-02  0.8680702E-01
         -1   -1    0    0    0  501 -0.00000000000E+00  0.00000000000E+00  0.92225082692E+03  0.92225082692E+03  0.00000000000E+00 0. -1.
          1   -1    0    0  501    0  0.00000000000E+00 -0.00000000000E+00 -0.27126705252E+03  0.27126705252E+03  0.00000000000E+00 0. -1.
         36    2    1    2    0    0  0.14210854715E-13  0.00000000000E+00  0.65098377440E+03  0.11935178794E+04  0.10003524649E+04 0.  0.
         25    2    3    3    0    0 -0.25515402154E+02 -0.19875985073E+02 -0.41246810849E+02  0.13564489674E+03  0.12510854518E+03 0.  0.
         35    2    3    3    0    0  0.25515402154E+02  0.19875985073E+02  0.69223058524E+03  0.10578729827E+04  0.79929091941E+03 0.  0.
         22    1    5    5    0    0 -0.66152635542E+02  0.34290664168E+03  0.77974440174E+02  0.35782837984E+03  0.00000000000E+00 0. -1.
         22    1    5    5    0    0  0.91668037696E+02 -0.32303065661E+03  0.61425614507E+03  0.70004460286E+03  0.00000000000E+00 0. -1.
          5    1    4    4  502    0 -0.28259737104E+02 -0.58107005064E+02  0.15868229102E+02  0.66700280910E+02  0.47000000000E+01 0. -1.
         -5    1    4    4    0  502  0.27443349507E+01  0.38231019991E+02 -0.57115039951E+02  0.68944615834E+02  0.47000000000E+01 0. -1.
<mgrwt>
<rscale>  0 0.10003525E+04</rscale>
<asrwt>0</asrwt>
<pdfrwt beam="1">  1        1 0.41733393E-01 0.10003525E+04</pdfrwt>
<pdfrwt beam="2">  1       -1 0.14188474E+00 0.10003525E+04</pdfrwt>
<totfact> 0.47988283E+01</totfact>
</mgrwt>
</event>
<event>
 9    1  0.4246427E-036  0.9995772E+03  0.7818608E-02  0.8681441E-01
          1   -1    0    0  501    0  0.00000000000E+00  0.00000000000E+00  0.13974724925E+04  0.13974724925E+04  0.00000000000E+00 0. -1.
         -1   -1    0    0    0  501 -0.00000000000E+00 -0.00000000000E+00 -0.17874314089E+03  0.17874314089E+03  0.00000000000E+00 0. -1.
         36    2    1    2    0    0  0.00000000000E+00  0.00000000000E+00  0.12187293516E+04  0.15762156334E+04  0.99957715585E+03 0.  0.
         25    2    3    3    0    0  0.75315285872E+02  0.10906319405E+03  0.11818846247E+03  0.21667341129E+03  0.12414379532E+03 0.  0.
         35    2    3    3    0    0 -0.75315285872E+02 -0.10906319405E+03  0.11005408891E+04  0.13595422221E+04  0.78714524229E+03 0.  0.
         22    1    5    5    0    0 -0.40981931974E+03 -0.94009063502E+02  0.38748914901E+03  0.57178441694E+03  0.00000000000E+00 0.  1.
         22    1    5    5    0    0  0.33450403386E+03 -0.15054130549E+02  0.71305174012E+03  0.78775780517E+03  0.00000000000E+00 0.  1.
          5    1    4    4  502    0  0.77969412369E+02  0.75330752795E+02  0.16958375047E+02  0.10983454860E+03  0.47000000000E+01 0.  1.
         -5    1    4    4    0  502 -0.26541264972E+01  0.33732441255E+02  0.10123008743E+03  0.10683886269E+03  0.47000000000E+01 0.  1.
<mgrwt>
<rscale>  0 0.99957716E+03</rscale>
<asrwt>0</asrwt>
<pdfrwt beam="1">  1        1 0.21499576E+00 0.99957716E+03</pdfrwt>
<pdfrwt beam="2">  1       -1 0.27498946E-01 0.99957716E+03</pdfrwt>
<totfact> 0.99647215E+01</totfact>
</mgrwt>
</event>
<event>
 9    1  0.4246427E-036  0.9990635E+03  0.7818608E-02  0.8681930E-01
         -2   -1    0    0    0  501 -0.00000000000E+00  0.00000000000E+00  0.61222130827E+03  0.61222130827E+03  0.00000000000E+00 0.  1.
          2   -1    0    0  501    0  0.00000000000E+00 -0.00000000000E+00 -0.40758457719E+03  0.40758457719E+03  0.00000000000E+00 0.  1.
         36    2    1    2    0    0  0.00000000000E+00  0.14210854715E-13  0.20463673108E+03  0.10198058855E+04  0.99906348763E+03 0.  0.
         25    2    3    3    0    0 -0.96417112672E+02  0.84581063042E+02  0.93060740087E+02  0.20143466449E+03  0.12435998903E+03 0.  0.
         35    2    3    3    0    0  0.96417112672E+02 -0.84581063042E+02  0.11157599099E+03  0.81837122097E+03  0.80051985466E+03 0.  0.
         22    1    5    5    0    0  0.21409859516E+03 -0.10048729834E+03 -0.30456912653E+03  0.38561413151E+03  0.00000000000E+00 0. -1.
         22    1    5    5    0    0 -0.11768148249E+03  0.15906235300E+02  0.41614511752E+03  0.43275708946E+03  0.00000000000E+00 0. -1.
          5    1    4    4  502    0 -0.90899734918E+02  0.10879498063E+03  0.47965953458E+02  0.14973954825E+03  0.47000000000E+01 0.  1.
         -5    1    4    4    0  502 -0.55173777539E+01 -0.24213917587E+02  0.45094786629E+02  0.51695116243E+02  0.47000000000E+01 0.  1.
<mgrwt>
<rscale>  0 0.99906349E+03</rscale>
<asrwt>0</asrwt>
<pdfrwt beam="1">  1        2 0.62705319E-01 0.99906349E+03</pdfrwt>
<pdfrwt beam="2">  1       -2 0.94187894E-01 0.99906349E+03</pdfrwt>
<totfact> 0.88272315E+01</totfact>
</mgrwt>
</event>
<event>
 9    1  0.4246427E-036  0.9996967E+03  0.7818608E-02  0.8681327E-01
         -2   -1    0    0    0  501 -0.00000000000E+00  0.00000000000E+00  0.30066406237E+03  0.30066406237E+03  0.00000000000E+00 0.  1.
          2   -1    0    0  501    0  0.00000000000E+00 -0.00000000000E+00 -0.83098843641E+03  0.83098843641E+03  0.00000000000E+00 0.  1.
         36    2    1    2    0    0 -0.14210854715E-13  0.00000000000E+00 -0.53032437403E+03  0.11316524988E+04  0.99969667214E+03 0.  0.
         25    2    3    3    0    0  0.87905174404E+02  0.66171172906E+02 -0.19821521860E+03  0.25883482007E+03  0.12490095030E+03 0.  0.
         35    2    3    3    0    0 -0.87905174404E+02 -0.66171172906E+02 -0.33210915543E+03  0.87281767871E+03  0.79963008030E+03 0.  0.
         22    1    5    5    0    0  0.93568418644E+02 -0.11221493076E+03  0.23438059001E+03  0.27619105819E+03  0.00000000000E+00 0.  1.
         22    1    5    5    0    0 -0.18147359305E+03  0.46043757859E+02 -0.56648974544E+03  0.59662662051E+03  0.00000000000E+00 0.  1.
          5    1    4    4  502    0  0.15848059240E+02  0.55727061636E+02 -0.12714835243E+02  0.59501457255E+02  0.47000000000E+01 0. -1.
         -5    1    4    4    0  502  0.72057115165E+02  0.10444111270E+02 -0.18550038336E+03  0.19933336282E+03  0.47000000000E+01 0. -1.
<mgrwt>
<rscale>  0 0.99969667E+03</rscale>
<asrwt>0</asrwt>
<pdfrwt beam="1">  1        2 0.12784437E+00 0.99969667E+03</pdfrwt>
<pdfrwt beam="2">  1       -2 0.46256010E-01 0.99969667E+03</pdfrwt>
<totfact> 0.17552695E+02</totfact>
</mgrwt>
</event>
<event>
 9    1  0.4246427E-036  0.1000062E+04  0.7818608E-02  0.8680979E-01
          2   -1    0    0  501    0  0.00000000000E+00  0.00000000000E+00  0.77596868942E+03  0.77596868942E+03  0.00000000000E+00 0. -1.
         -2   -1    0    0    0  501 -0.00000000000E+00 -0.00000000000E+00 -0.32221804943E+03  0.32221804943E+03  0.00000000000E+00 0. -1.
         36    2    1    2    0    0  0.00000000000E+00  0.00000000000E+00  0.45375063999E+03  0.10981867388E+04  0.10000622331E+04 0.  0.
         25    2    3    3    0    0  0.12268055797E+03  0.19415092275E+02  0.19866523407E+02  0.17705738181E+03  0.12460807594E+03 0.  0.
         35    2    3    3    0    0 -0.12268055797E+03 -0.19415092275E+02  0.43388411658E+03  0.92112935704E+03  0.80299215480E+03 0.  0.
         22    1    5    5    0    0 -0.17084553080E+03  0.37624315143E+03  0.20110606807E+03  0.45955495319E+03  0.00000000000E+00 0. -1.
         22    1    5    5    0    0  0.48164972833E+02 -0.39565824370E+03  0.23277804851E+03  0.46157440385E+03  0.00000000000E+00 0. -1.
          5    1    4    4  502    0  0.31120684373E+02 -0.88115798922E+01 -0.49049290425E+02  0.58941189565E+02  0.47000000000E+01 0.  1.
         -5    1    4    4    0  502  0.91559873594E+02  0.28226672168E+02  0.68915813832E+02  0.11811619224E+03  0.47000000000E+01 0.  1.
<mgrwt>
<rscale>  0 0.10000622E+04</rscale>
<asrwt>0</asrwt>
<pdfrwt beam="1">  1        2 0.11937980E+00 0.10000622E+04</pdfrwt>
<pdfrwt beam="2">  1       -2 0.49572008E-01 0.10000622E+04</pdfrwt>
<totfact> 0.16719182E+02</totfact>
</mgrwt>
</event>
<event>
 9    1  0.4246427E-036  0.9997398E+03  0.7818608E-02  0.8681286E-01
         -2   -1    0    0    0  501 -0.00000000000E+00  0.00000000000E+00  0.22547741445E+03  0.22547741445E+03  0.00000000000E+00 0. -1.
          2   -1    0    0  501    0  0.00000000000E+00 -0.00000000000E+00 -0.11081816101E+04  0.11081816101E+04  0.00000000000E+00 0. -1.
         36    2    1    2    0    0 -0.14210854715E-13 -0.14210854715E-13 -0.88270419568E+03  0.13336590246E+04  0.99973981454E+03 0.  0.
         25    2    3    3    0    0 -0.83668935667E+02 -0.11309765212E+03 -0.12960216878E+03  0.22864564468E+03  0.12526188155E+03 0.  0.
         35    2    3    3    0    0  0.83668935667E+02  0.11309765212E+03 -0.75310202690E+03  0.11050133799E+04  0.79630417374E+03 0.  0.
         22    1    5    5    0    0  0.40234758793E+02  0.21278147060E+02  0.17017972773E+03  0.17616110549E+03  0.00000000000E+00 0.  1.
         22    1    5    5    0    0  0.43434176874E+02  0.91819505062E+02 -0.92328175463E+03  0.92885227440E+03  0.00000000000E+00 0.  1.
          5    1    4    4  502    0 -0.82505853167E+02 -0.13677548124E+03 -0.93332561770E+02  0.18506162531E+03  0.47000000000E+01 0. -1.
         -5    1    4    4    0  502 -0.11630825006E+01  0.23677829115E+02 -0.36269607011E+02  0.43584019379E+02  0.47000000000E+01 0. -1.
<mgrwt>
<rscale>  0 0.99973981E+03</rscale>
<asrwt>0</asrwt>
<pdfrwt beam="1">  1        2 0.17048948E+00 0.99973981E+03</pdfrwt>
<pdfrwt beam="2">  1       -2 0.34688833E-01 0.99973981E+03</pdfrwt>
<totfact> 0.20247616E+02</totfact>
</mgrwt>
</event>
<event>
 9    1  0.4246427E-036  0.9871393E+03  0.7818608E-02  0.8693383E-01
         -1   -1    0    0    0  501 -0.00000000000E+00  0.00000000000E+00  0.71270071690E+02  0.71270071690E+02  0.00000000000E+00 0.  1.
          1   -1    0    0  501    0  0.00000000000E+00 -0.00000000000E+00 -0.34181386787E+04  0.34181386787E+04  0.00000000000E+00 0.  1.
         36    2    1    2    0    0  0.00000000000E+00 -0.14210854715E-13 -0.33468686070E+04  0.34894087504E+04  0.98713927827E+03 0.  0.
         25    2    3    3    0    0  0.66647484981E+02  0.44787709879E+02 -0.26215024613E+03  0.30156952800E+03  0.12559300324E+03 0.  0.
         35    2    3    3    0    0 -0.66647484981E+02 -0.44787709879E+02 -0.30847183609E+04  0.31878392224E+04  0.80023978633E+03 0.  0.
         22    1    5    5    0    0  0.16538058231E+02  0.25328905216E+03 -0.26025777748E+04  0.26149263709E+04  0.00000000000E+00 0.  1.
         22    1    5    5    0    0 -0.83185543212E+02 -0.29807676204E+03 -0.48214058610E+03  0.57291285152E+03  0.00000000000E+00 0.  1.
          5    1    4    4  502    0  0.13916187429E+02 -0.25324102956E+02 -0.48380723384E+01  0.29672671047E+02  0.47000000000E+01 0.  1.
         -5    1    4    4    0  502  0.52731297552E+02  0.70111812835E+02 -0.25731217379E+03  0.27189685696E+03  0.47000000000E+01 0.  1.
<mgrwt>
<rscale>  0 0.98713928E+03</rscale>
<asrwt>0</asrwt>
<pdfrwt beam="1">  1        1 0.52586747E+00 0.98713928E+03</pdfrwt>
<pdfrwt beam="2">  1       -1 0.10964627E-01 0.98713928E+03</pdfrwt>
<totfact> 0.16319804E+01</totfact>
</mgrwt>
</event>
<event>
 9    1  0.4246427E-036  0.1002458E+04  0.7818608E-02  0.8678701E-01
         -2   -1    0    0    0  501 -0.00000000000E+00  0.00000000000E+00  0.24212439494E+04  0.24212439494E+04  0.00000000000E+00 0. -1.
          2   -1    0    0  501    0  0.00000000000E+00 -0.00000000000E+00 -0.10376094057E+03  0.10376094057E+03  0.00000000000E+00 0. -1.
         36    2    1    2    0    0  0.35527136788E-14  0.00000000000E+00  0.23174830088E+04  0.25250048900E+04  0.10024580780E+04 0.  0.
         25    2    3    3    0    0 -0.31546896705E+02  0.26558978348E+02  0.78494345624E+03  0.79592495193E+03  0.12513877730E+03 0.  0.
         35    2    3    3    0    0  0.31546896705E+02 -0.26558978348E+02  0.15325395526E+04  0.17290799380E+04  0.79958699708E+03 0.  0.
         22    1    5    5    0    0 -0.35871250431E+03 -0.24015217247E+01  0.43418118410E+03  0.56319954607E+03  0.00000000000E+00 0.  1.
         22    1    5    5    0    0  0.39025940102E+03 -0.24157456624E+02  0.10983583685E+04  0.11658803920E+04  0.00000000000E+00 0.  1.
          5    1    4    4  502    0  0.40886236047E+01  0.30403783659E+02  0.72678570226E+03  0.72744804207E+03  0.47000000000E+01 0. -1.
         -5    1    4    4    0  502 -0.35635520310E+02 -0.38448053107E+01  0.58157753986E+02  0.68476909863E+02  0.47000000000E+01 0. -1.
<mgrwt>
<rscale>  0 0.10024581E+04</rscale>
<asrwt>0</asrwt>
<pdfrwt beam="1">  1        2 0.15963224E-01 0.10024581E+04</pdfrwt>
<pdfrwt beam="2">  1       -2 0.37249903E+00 0.10024581E+04</pdfrwt>
<totfact> 0.55138865E+00</totfact>
</mgrwt>
</event>
<event>
 9    1  0.4246427E-036  0.1000715E+04  0.7818608E-02  0.8680357E-01
         -1   -1    0    0    0  501 -0.00000000000E+00  0.00000000000E+00  0.43511776992E+03  0.43511776992E+03  0.00000000000E+00 0.  1.
          1   -1    0    0  501    0  0.00000000000E+00 -0.00000000000E+00 -0.57537889183E+03  0.57537889183E+03  0.00000000000E+00 0.  1.
         36    2    1    2    0    0 -0.14210854715E-13 -0.56843418861E-13 -0.14026112191E+03  0.10104966617E+04  0.10007149050E+04 0.  0.
         25    2    3    3    0    0  0.62490163304E+02 -0.94752841788E+02 -0.10925937505E+03  0.20125180573E+03  0.12522602261E+03 0.  0.
         35    2    3    3    0    0 -0.62490163304E+02  0.94752841788E+02 -0.31001746855E+02  0.80924485601E+03  0.80064536915E+03 0.  0.
         22    1    5    5    0    0  0.11050050213E+03  0.36529277144E+03 -0.21612292265E+03  0.43858669329E+03  0.00000000000E+00 0. -1.
         22    1    5    5    0    0 -0.17299066543E+03 -0.27053992966E+03  0.18512117579E+03  0.37065816272E+03  0.00000000000E+00 0. -1.
          5    1    4    4  502    0  0.52614437631E+02 -0.32451784144E+02  0.13232289310E+02  0.63392277303E+02  0.47000000000E+01 0. -1.
         -5    1    4    4    0  502  0.98757256736E+01 -0.62301057644E+02 -0.12249166436E+03  0.13785952843E+03  0.47000000000E+01 0. -1.
<mgrwt>
<rscale>  0 0.10007149E+04</rscale>
<asrwt>0</asrwt>
<pdfrwt beam="1">  1        1 0.88519829E-01 0.10007149E+04</pdfrwt>
<pdfrwt beam="2">  1       -1 0.66941196E-01 0.10007149E+04</pdfrwt>
<totfact> 0.96048512E+01</totfact>
</mgrwt>
</event>
<event>
 9    1  0.4246427E-036  0.1006527E+04  0.7818608E-02  0.8674847E-01
         -2   -1    0    0    0  501 -0.00000000000E+00  0.00000000000E+00  0.47131985323E+03  0.47131985323E+03  0.00000000000E+00 0.  1.
          2   -1    0    0  501    0  0.00000000000E+00 -0.00000000000E+00 -0.53737260568E+03  0.53737260568E+03  0.00000000000E+00 0.  1.
         36    2    1    2    0    0  0.00000000000E+00  0.14210854715E-13 -0.66052752447E+02  0.10086924589E+04  0.10065274515E+04 0.  0.
         25    2    3    3    0    0  0.13328422998E+03  0.62952365022E+01 -0.81550298893E+02  0.19934585653E+03  0.12362848904E+03 0.  0.
         35    2    3    3    0    0 -0.13328422998E+03 -0.62952365022E+01  0.15497546446E+02  0.80934660238E+03  0.79812118934E+03 0.  0.
         22    1    5    5    0    0 -0.25208715899E+03  0.23322544749E+03  0.27256528447E+03  0.43844484189E+03  0.00000000000E+00 0.  1.
         22    1    5    5    0    0  0.11880292901E+03 -0.23952068399E+03 -0.25706773802E+03  0.37090176049E+03  0.00000000000E+00 0.  1.
          5    1    4    4  502    0  0.18958733334E+02  0.54373865668E+02 -0.24777024382E+02  0.62864471480E+02  0.47000000000E+01 0.  1.
         -5    1    4    4    0  502  0.11432549665E+03 -0.48078629165E+02 -0.56773274511E+02  0.13648138505E+03  0.47000000000E+01 0.  1.
<mgrwt>
<rscale>  0 0.10065275E+04</rscale>
<asrwt>0</asrwt>
<pdfrwt beam="1">  1        2 0.82672708E-01 0.10065275E+04</pdfrwt>
<pdfrwt beam="2">  1       -2 0.72510747E-01 0.10065275E+04</pdfrwt>
<totfact> 0.11771177E+02</totfact>
</mgrwt>
</event>
<event>
 9    1  0.4246427E-036  0.9987924E+03  0.7818608E-02  0.8682189E-01
         -1   -1    0    0    0  501 -0.00000000000E+00  0.00000000000E+00  0.10791724435E+03  0.10791724435E+03  0.00000000000E+00 0. -1.
          1   -1    0    0  501    0  0.00000000000E+00 -0.00000000000E+00 -0.23109982096E+04  0.23109982096E+04  0.00000000000E+00 0. -1.
         36    2    1    2    0    0  0.00000000000E+00  0.14210854715E-13 -0.22030809652E+04  0.24189154539E+04  0.99879238778E+03 0.  0.
         25    2    3    3    0    0  0.75708804127E+02  0.18420311198E+02 -0.14801447481E+03  0.21146641798E+03  0.12937785859E+03 0.  0.
         35    2    3    3    0    0 -0.75708804127E+02 -0.18420311198E+02 -0.20550664904E+04  0.22074490360E+04  0.80216072913E+03 0.  0.
         22    1    5    5    0    0  0.17734986187E+02  0.21471679742E+03 -0.19002016078E+04  0.19123765275E+04  0.00000000000E+00 0.  1.
         22    1    5    5    0    0 -0.93443790314E+02 -0.23313710861E+03 -0.15486488268E+03  0.29507250846E+03  0.00000000000E+00 0.  1.
          5    1    4    4  502    0 -0.69180305163E+01  0.64743032582E+01 -0.12402494028E+03  0.12447510418E+03  0.47000000000E+01 0. -1.
         -5    1    4    4    0  502  0.82626834643E+02  0.11946007940E+02 -0.23989534522E+02  0.86991313793E+02  0.47000000000E+01 0. -1.
<mgrwt>
<rscale>  0 0.99879239E+03</rscale>
<asrwt>0</asrwt>
<pdfrwt beam="1">  1        1 0.35553814E+00 0.99879239E+03</pdfrwt>
<pdfrwt beam="2">  1       -1 0.16602655E-01 0.99879239E+03</pdfrwt>
<totfact> 0.52294154E+01</totfact>
</mgrwt>
</event>
<event>
 9    1  0.4246427E-036  0.9997829E+03  0.7818608E-02  0.8681245E-01
         -1   -1    0    0    0  501 -0.00000000000E+00  0.00000000000E+00  0.98069578343E+03  0.98069578343E+03  0.00000000000E+00 0. -1.
          1   -1    0    0  501    0  0.00000000000E+00 -0.00000000000E+00 -0.25481036657E+03  0.25481036657E+03  0.00000000000E+00 0. -1.
         36    2    1    2    0    0 -0.17763568394E-14 -0.28421709430E-13  0.72588541686E+03  0.12355061500E+04  0.99978288057E+03 0.  0.
         25    2    3    3    0    0 -0.15749834335E+02  0.13855824877E+03  0.16229808759E+03  0.24698684116E+03  0.12335065823E+03 0.  0.
         35    2    3    3    0    0  0.15749834335E+02 -0.13855824877E+03  0.56358732926E+03  0.98851930884E+03  0.80005831079E+03 0.  0.
         22    1    5    5    0    0  0.20556051990E+03 -0.38354037175E+03  0.12735059901E+03  0.45340546884E+03  0.00000000000E+00 0.  1.
         22    1    5    5    0    0 -0.18981068557E+03  0.24498212298E+03  0.43623673025E+03  0.53511384000E+03  0.00000000000E+00 0.  1.
          5    1    4    4  502    0  0.14942869244E+02  0.14333933122E+03  0.94881488690E+02  0.17260950180E+03  0.47000000000E+01 0.  1.
         -5    1    4    4    0  502 -0.30692703579E+02 -0.47810824471E+01  0.67416598904E+02  0.74377339359E+02  0.47000000000E+01 0.  1.
<mgrwt>
<rscale>  0 0.99978288E+03</rscale>
<asrwt>0</asrwt>
<pdfrwt beam="1">  1        1 0.39201595E-01 0.99978288E+03</pdfrwt>
<pdfrwt beam="2">  1       -1 0.15087627E+00 0.99978288E+03</pdfrwt>
<totfact> 0.43714388E+01</totfact>
</mgrwt>
</event>
<event>
 9    1  0.4246427E-036  0.1000560E+04  0.7818608E-02  0.8680505E-01
          2   -1    0    0  501    0  0.00000000000E+00  0.00000000000E+00  0.11642446460E+03  0.11642446460E+03  0.00000000000E+00 0. -1.
         -2   -1    0    0    0  501 -0.00000000000E+00 -0.00000000000E+00 -0.21497187793E+04  0.21497187793E+04  0.00000000000E+00 0. -1.
         36    2    1    2    0    0  0.00000000000E+00 -0.14210854715E-13 -0.20332943147E+04  0.22661432439E+04  0.10005595593E+04 0.  0.
         25    2    3    3    0    0  0.13097605435E+03  0.72869016471E+01 -0.26921003312E+03  0.32457873871E+03  0.12517783325E+03 0.  0.
         35    2    3    3    0    0 -0.13097605435E+03 -0.72869016471E+01 -0.17640842816E+04  0.19415645052E+04  0.80029466423E+03 0.  0.
         22    1    5    5    0    0 -0.73918915797E+02  0.35281266492E+03 -0.44319555641E+03  0.57128196529E+03  0.00000000000E+00 0. -1.
         22    1    5    5    0    0 -0.57057138557E+02 -0.36009956657E+03 -0.13208887252E+04  0.13702825399E+04  0.00000000000E+00 0. -1.
          5    1    4    4  502    0  0.72254797387E+02 -0.55683712762E+02 -0.10550721564E+03  0.13955391132E+03  0.47000000000E+01 0. -1.
         -5    1    4    4    0  502  0.58721256967E+02  0.62970614409E+02 -0.16370281748E+03  0.18502482739E+03  0.47000000000E+01 0. -1.
<mgrwt>
<rscale>  0 0.10005596E+04</rscale>
<asrwt>0</asrwt>
<pdfrwt beam="1">  1        2 0.17911458E-01 0.10005596E+04</pdfrwt>
<pdfrwt beam="2">  1       -2 0.33072593E+00 0.10005596E+04</pdfrwt>
<totfact> 0.77413891E+00</totfact>
</mgrwt>
</event>
<event>
 9    1  0.4246427E-036  0.9977729E+03  0.7818608E-02  0.8683162E-01
         -2   -1    0    0    0  501 -0.00000000000E+00  0.00000000000E+00  0.21894115490E+03  0.21894115490E+03  0.00000000000E+00 0. -1.
          2   -1    0    0  501    0  0.00000000000E+00 -0.00000000000E+00 -0.11367789238E+04  0.11367789238E+04  0.00000000000E+00 0. -1.
         36    2    1    2    0    0  0.28421709430E-13 -0.10658141036E-13 -0.91783776895E+03  0.13557200788E+04  0.99777290093E+03 0.  0.
         25    2    3    3    0    0 -0.13083606666E+03  0.31298525654E+02 -0.21273177334E+03  0.28102921624E+03  0.12499975577E+03 0.  0.
         35    2    3    3    0    0  0.13083606666E+03 -0.31298525654E+02 -0.70510599561E+03  0.10746908625E+04  0.79980517058E+03 0.  0.
         22    1    5    5    0    0 -0.52315803440E+02 -0.12972484303E+03 -0.82358590842E+03  0.83537969016E+03  0.00000000000E+00 0. -1.
         22    1    5    5    0    0  0.18315187010E+03  0.98426317374E+02  0.11847991281E+03  0.23931117235E+03  0.00000000000E+00 0. -1.
          5    1    4    4  502    0 -0.61770628026E+02 -0.42186921088E+01 -0.87419239470E+01  0.62705016419E+02  0.47000000000E+01 0.  1.
         -5    1    4    4    0  502 -0.69065438634E+02  0.35517217763E+02 -0.20398984939E+03  0.21832419982E+03  0.47000000000E+01 0.  1.
<mgrwt>
<rscale>  0 0.99777290E+03</rscale>
<asrwt>0</asrwt>
<pdfrwt beam="1">  1        2 0.17488906E+00 0.99777290E+03</pdfrwt>
<pdfrwt beam="2">  1       -2 0.33683255E-01 0.99777290E+03</pdfrwt>
<totfact> 0.20554440E+02</totfact>
</mgrwt>
</event>
<event>
 9    1  0.4246427E-036  0.1001271E+04  0.7818608E-02  0.8679829E-01
          2   -1    0    0  501    0  0.00000000000E+00  0.00000000000E+00  0.55290038176E+03  0.55290038176E+03  0.00000000000E+00 0.  1.
         -2   -1    0    0    0  501 -0.00000000000E+00 -0.00000000000E+00 -0.45331102427E+03  0.45331102427E+03  0.00000000000E+00 0.  1.
         36    2    1    2    0    0  0.28421709430E-13  0.14210854715E-13  0.99589357490E+02  0.10062114060E+04  0.10012708692E+04 0.  0.
         25    2    3    3    0    0  0.42210926734E+02  0.11717083699E+03 -0.50078257560E+02  0.18062804141E+03  0.12086310473E+03 0.  0.
         35    2    3    3    0    0 -0.42210926734E+02 -0.11717083699E+03  0.14966761505E+03  0.82558336462E+03  0.80229466505E+03 0.  0.
         22    1    5    5    0    0 -0.30106599389E+03  0.18377588266E+03 -0.87178432310E+02  0.36333784111E+03  0.00000000000E+00 0.  1.
         22    1    5    5    0    0  0.25885506715E+03 -0.30094671965E+03  0.23684604736E+03  0.46224552351E+03  0.00000000000E+00 0.  1.
          5    1    4    4  502    0  0.46438481673E+01  0.78798935821E+02 -0.85238731798E+02  0.11626938123E+03  0.47000000000E+01 0. -1.
         -5    1    4    4    0  502  0.37567078566E+02  0.38371901171E+02  0.35160474238E+02  0.64358660180E+02  0.47000000000E+01 0. -1.
<mgrwt>
<rscale>  0 0.10012709E+04</rscale>
<asrwt>0</asrwt>
<pdfrwt beam="1">  1        2 0.85061597E-01 0.10012709E+04</pdfrwt>
<pdfrwt beam="2">  1       -2 0.69740158E-01 0.10012709E+04</pdfrwt>
<totfact> 0.12401528E+02</totfact>
</mgrwt>
</event>
<event>
 9    1  0.4246427E-036  0.1000217E+04  0.7818608E-02  0.8680832E-01
          2   -1    0    0  501    0  0.00000000000E+00  0.00000000000E+00  0.40734793043E+03  0.40734793043E+03  0.00000000000E+00 0.  1.
         -2   -1    0    0    0  501 -0.00000000000E+00 -0.00000000000E+00 -0.61399201191E+03  0.61399201191E+03  0.00000000000E+00 0.  1.
         36    2    1    2    0    0  0.00000000000E+00  0.00000000000E+00 -0.20664408148E+03  0.10213399423E+04  0.10002167272E+04 0.  0.
         25    2    3    3    0    0  0.11536727475E+03  0.69056299650E+02 -0.69568693058E+02  0.19666674493E+03  0.12553734466E+03 0.  0.
         35    2    3    3    0    0 -0.11536727475E+03 -0.69056299650E+02 -0.13707538842E+03  0.82467319741E+03  0.80200862827E+03 0.  0.
         22    1    5    5    0    0 -0.18006076599E+03 -0.17175779316E+03 -0.43601711796E+03  0.50202942754E+03  0.00000000000E+00 0. -1.
         22    1    5    5    0    0  0.64693491242E+02  0.10270149351E+03  0.29894172954E+03  0.32264376987E+03  0.00000000000E+00 0. -1.
          5    1    4    4  502    0 -0.91905530741E+01  0.38833291992E+02 -0.54230482622E+02  0.67494637403E+02  0.47000000000E+01 0.  1.
         -5    1    4    4    0  502  0.12455782782E+03  0.30223007659E+02 -0.15338210436E+02  0.12917210753E+03  0.47000000000E+01 0.  1.
<mgrwt>
<rscale>  0 0.10002167E+04</rscale>
<asrwt>0</asrwt>
<pdfrwt beam="1">  1        2 0.62668912E-01 0.10002167E+04</pdfrwt>
<pdfrwt beam="2">  1       -2 0.94460309E-01 0.10002167E+04</pdfrwt>
<totfact> 0.87718940E+01</totfact>
</mgrwt>
</event>
<event>
 9    1  0.4246427E-036  0.1001119E+04  0.7818608E-02  0.8679973E-01
          2   -1    0    0  501    0  0.00000000000E+00  0.00000000000E+00  0.85797021218E+03  0.85797021218E+03  0.00000000000E+00 0.  1.
         -2   -1    0    0    0  501 -0.00000000000E+00 -0.00000000000E+00 -0.29203801961E+03  0.29203801961E+03  0.00000000000E+00 0.  1.
         36    2    1    2    0    0  0.14210854715E-13 -0.28421709430E-13  0.56593219257E+03  0.11500082318E+04  0.10011192170E+04 0.  0.
         25    2    3    3    0    0  0.43662340755E+02  0.33603399892E+02  0.24983178679E+03  0.28785706214E+03  0.13194763374E+03 0.  0.
         35    2    3    3    0    0 -0.43662340755E+02 -0.33603399892E+02  0.31610040577E+03  0.86215116965E+03  0.80021846037E+03 0.  0.
         22    1    5    5    0    0 -0.23257591382E+03 -0.35777557006E+03  0.15893807081E+03  0.45536383758E+03  0.00000000000E+00 0.  1.
         22    1    5    5    0    0  0.18891357307E+03  0.32417217017E+03  0.15716233496E+03  0.40678733207E+03  0.00000000000E+00 0.  1.
          5    1    4    4  502    0  0.49085374772E+00 -0.49232485150E+02  0.86943242191E+02  0.10002647597E+03  0.47000000000E+01 0. -1.
         -5    1    4    4    0  502  0.43171487008E+02  0.82835885042E+02  0.16288854460E+03  0.18783058618E+03  0.47000000000E+01 0. -1.
<mgrwt>
<rscale>  0 0.10011192E+04</rscale>
<asrwt>0</asrwt>
<pdfrwt beam="1">  1        2 0.13199542E+00 0.10011192E+04</pdfrwt>
<pdfrwt beam="2">  1       -2 0.44928927E-01 0.10011192E+04</pdfrwt>
<totfact> 0.17815324E+02</totfact>
</mgrwt>
</event>
<event>
 9    1  0.4246427E-036  0.9990258E+03  0.7818608E-02  0.8681966E-01
          3   -1    0    0  501    0  0.00000000000E+00  0.00000000000E+00  0.45905429432E+03  0.45905429432E+03  0.00000000000E+00 0. -1.
         -3   -1    0    0    0  501 -0.00000000000E+00 -0.00000000000E+00 -0.54353733616E+03  0.54353733616E+03  0.00000000000E+00 0. -1.
         36    2    1    2    0    0  0.00000000000E+00 -0.14210854715E-13 -0.84483041837E+02  0.10025916305E+04  0.99902582207E+03 0.  0.
         25    2    3    3    0    0 -0.75481527417E+02 -0.83081428277E+02  0.67909062439E+02  0.18115358562E+03  0.12491995884E+03 0.  0.
         35    2    3    3    0    0  0.75481527417E+02  0.83081428277E+02 -0.15239210428E+03  0.82143804486E+03  0.79933542609E+03 0.  0.
         22    1    5    5    0    0  0.37138649546E+03  0.73031133364E+02  0.14167177713E+03  0.40414399400E+03  0.00000000000E+00 0. -1.
         22    1    5    5    0    0 -0.29590496804E+03  0.10050294913E+02 -0.29406388141E+03  0.41729405087E+03  0.00000000000E+00 0. -1.
          5    1    4    4  502    0 -0.90701865662E+02 -0.85485569153E+02  0.14736371285E+02  0.12559403492E+03  0.47000000000E+01 0.  1.
         -5    1    4    4    0  502  0.15220338246E+02  0.24041408758E+01  0.53172691154E+02  0.55559550702E+02  0.47000000000E+01 0.  1.
<mgrwt>
<rscale>  0 0.99902582E+03</rscale>
<asrwt>0</asrwt>
<pdfrwt beam="1">  1        3 0.70623737E-01 0.99902582E+03</pdfrwt>
<pdfrwt beam="2">  1       -3 0.83621129E-01 0.99902582E+03</pdfrwt>
<totfact> 0.98016197E+00</totfact>
</mgrwt>
</event>
<event>
 9    1  0.4246427E-036  0.9971434E+03  0.7818608E-02  0.8683763E-01
         -1   -1    0    0    0  501 -0.00000000000E+00  0.00000000000E+00  0.80228889298E+03  0.80228889298E+03  0.00000000000E+00 0. -1.
          1   -1    0    0  501    0  0.00000000000E+00 -0.00000000000E+00 -0.30983070678E+03  0.30983070678E+03  0.00000000000E+00 0. -1.
         36    2    1    2    0    0  0.14210854715E-13 -0.28421709430E-13  0.49245818620E+03  0.11121195998E+04  0.99714338939E+03 0.  0.
         25    2    3    3    0    0  0.84912091276E+02  0.10414091258E+03  0.13149652315E+03  0.22412846734E+03  0.12201164434E+03 0.  0.
         35    2    3    3    0    0 -0.84912091276E+02 -0.10414091258E+03  0.36096166305E+03  0.88799113241E+03  0.80011220222E+03 0.  0.
         22    1    5    5    0    0 -0.80515289355E+02  0.24491177592E+03 -0.12750201021E+03  0.28761302546E+03  0.00000000000E+00 0.  1.
         22    1    5    5    0    0 -0.43968019209E+01 -0.34905268850E+03  0.48846367326E+03  0.60037810695E+03  0.00000000000E+00 0.  1.
          5    1    4    4  502    0  0.11329297295E+03  0.68506815765E+02  0.78114183070E+02  0.15379335852E+03  0.47000000000E+01 0.  1.
         -5    1    4    4    0  502 -0.28380881679E+02  0.35634096814E+02  0.53382340084E+02  0.70335108825E+02  0.47000000000E+01 0.  1.
<mgrwt>
<rscale>  0 0.99714339E+03</rscale>
<asrwt>0</asrwt>
<pdfrwt beam="1">  1        1 0.47666263E-01 0.99714339E+03</pdfrwt>
<pdfrwt beam="2">  1       -1 0.12342906E+00 0.99714339E+03</pdfrwt>
<totfact> 0.58315814E+01</totfact>
</mgrwt>
</event>
<event>
 9    1  0.4246427E-036  0.9997200E+03  0.7818608E-02  0.8681305E-01
         -2   -1    0    0    0  501 -0.00000000000E+00  0.00000000000E+00  0.11544588019E+03  0.11544588019E+03  0.00000000000E+00 0.  1.
          2   -1    0    0  501    0  0.00000000000E+00 -0.00000000000E+00 -0.21643041762E+04  0.21643041762E+04  0.00000000000E+00 0.  1.
         36    2    1    2    0    0 -0.21316282073E-13 -0.28421709430E-13 -0.20488582960E+04  0.22797500564E+04  0.99971996202E+03 0.  0.
         25    2    3    3    0    0  0.25158841520E+02  0.99402076319E+02 -0.19778403726E+03  0.25534751840E+03  0.12478016538E+03 0.  0.
         35    2    3    3    0    0 -0.25158841520E+02 -0.99402076319E+02 -0.18510742587E+04  0.20244025380E+04  0.81315188270E+03 0.  0.
         22    1    5    5    0    0  0.31731115189E+03 -0.28284010150E+03 -0.84422374339E+03  0.94519766136E+03  0.00000000000E+00 0.  1.
         22    1    5    5    0    0 -0.34246999341E+03  0.18343802518E+03 -0.10068505154E+04  0.10792048766E+04  0.00000000000E+00 0.  1.
          5    1    4    4  502    0  0.37488225042E+02  0.54226192008E+02 -0.19751968288E+03  0.20828336957E+03  0.47000000000E+01 0. -1.
         -5    1    4    4    0  502 -0.12329383523E+02  0.45175884311E+02 -0.26435438797E+00  0.47064148824E+02  0.47000000000E+01 0. -1.
<mgrwt>
<rscale>  0 0.99971996E+03</rscale>
<asrwt>0</asrwt>
<pdfrwt beam="1">  1        2 0.33296988E+00 0.99971996E+03</pdfrwt>
<pdfrwt beam="2">  1       -2 0.17760904E-01 0.99971996E+03</pdfrwt>
<totfact> 0.16545265E+02</totfact>
</mgrwt>
</event>
<event>
 9    1  0.4246427E-036  0.9999084E+03  0.7818608E-02  0.8681125E-01
         -2   -1    0    0    0  501 -0.00000000000E+00  0.00000000000E+00  0.14238146906E+03  0.14238146906E+03  0.00000000000E+00 0.  1.
          2   -1    0    0  501    0  0.00000000000E+00 -0.00000000000E+00 -0.17555248649E+04  0.17555248649E+04  0.00000000000E+00 0.  1.
         36    2    1    2    0    0  0.00000000000E+00  0.28421709430E-13 -0.16131433958E+04  0.18979063339E+04  0.99990841427E+03 0.  0.
         25    2    3    3    0    0  0.39544423662E+02  0.12674763486E+03 -0.21792707500E+03  0.28415002225E+03  0.12498120155E+03 0.  0.
         35    2    3    3    0    0 -0.39544423662E+02 -0.12674763486E+03 -0.13952163208E+04  0.16137563117E+04  0.79997007896E+03 0.  0.
         22    1    5    5    0    0 -0.14925020046E+03 -0.44016706817E+03 -0.95741875851E+03  0.10642712762E+04  0.00000000000E+00 0. -1.
         22    1    5    5    0    0  0.10970577679E+03  0.31341943331E+03 -0.43779756231E+03  0.54948503547E+03  0.00000000000E+00 0. -1.
          5    1    4    4  502    0  0.12750078928E+02  0.28169416194E+02  0.11213782532E+02  0.33225283145E+02  0.47000000000E+01 0. -1.
         -5    1    4    4    0  502  0.26794344734E+02  0.98578218670E+02 -0.22914085753E+03  0.25092473911E+03  0.47000000000E+01 0. -1.
<mgrwt>
<rscale>  0 0.99990841E+03</rscale>
<asrwt>0</asrwt>
<pdfrwt beam="1">  1        2 0.27008074E+00 0.99990841E+03</pdfrwt>
<pdfrwt beam="2">  1       -2 0.21904842E-01 0.99990841E+03</pdfrwt>
<totfact> 0.19681678E+02</totfact>
</mgrwt>
</event>
<event>
 9    1  0.4246427E-036  0.1000904E+04  0.7818608E-02  0.8680178E-01
          2   -1    0    0  501    0  0.00000000000E+00  0.00000000000E+00  0.30792766057E+03  0.30792766057E+03  0.00000000000E+00 0. -1.
         -2   -1    0    0    0  501 -0.00000000000E+00 -0.00000000000E+00 -0.81334731647E+03  0.81334731647E+03  0.00000000000E+00 0. -1.
         36    2    1    2    0    0  0.14210854715E-13  0.00000000000E+00 -0.50541965590E+03  0.11212749770E+04  0.10009038643E+04 0.  0.
         25    2    3    3    0    0  0.42313126217E+02 -0.13526487889E+03 -0.11209971154E+03  0.21870123155E+03  0.12319454226E+03 0.  0.
         35    2    3    3    0    0 -0.42313126217E+02  0.13526487889E+03 -0.39331994436E+03  0.90257374549E+03  0.79990736920E+03 0.  0.
         22    1    5    5    0    0  0.17211612053E+02  0.24554062256E+03  0.18684650066E+03  0.30902759055E+03  0.00000000000E+00 0. -1.
         22    1    5    5    0    0 -0.59524738271E+02 -0.11027574366E+03 -0.58016644502E+03  0.59354615493E+03  0.00000000000E+00 0. -1.
          5    1    4    4  502    0  0.84618888624E+02 -0.93745835354E+02 -0.90499603830E+02  0.15543778901E+03  0.47000000000E+01 0. -1.
         -5    1    4    4    0  502 -0.42305762407E+02 -0.41519043540E+02 -0.21600107712E+02  0.63263442543E+02  0.47000000000E+01 0. -1.
<mgrwt>
<rscale>  0 0.10009039E+04</rscale>
<asrwt>0</asrwt>
<pdfrwt beam="1">  1        2 0.47373486E-01 0.10009039E+04</pdfrwt>
<pdfrwt beam="2">  1       -2 0.12513036E+00 0.10009039E+04</pdfrwt>
<totfact> 0.59165335E+01</totfact>
</mgrwt>
</event>
<event>
 9    1  0.4246427E-036  0.1000420E+04  0.7818608E-02  0.8680638E-01
          1   -1    0    0  501    0  0.00000000000E+00  0.00000000000E+00  0.83571572962E+03  0.83571572962E+03  0.00000000000E+00 0. -1.
         -1   -1    0    0    0  501 -0.00000000000E+00 -0.00000000000E+00 -0.29939590181E+03  0.29939590181E+03  0.00000000000E+00 0. -1.
         36    2    1    2    0    0 -0.35527136788E-13 -0.71054273576E-14  0.53631982781E+03  0.11351116314E+04  0.10004196410E+04 0.  0.
         25    2    3    3    0    0  0.13043629894E+02 -0.48094467585E+02 -0.48166227862E+02  0.14260168672E+03  0.12462761113E+03 0.  0.
         35    2    3    3    0    0 -0.13043629894E+02  0.48094467585E+02  0.58448605567E+03  0.99250994471E+03  0.80060528788E+03 0.  0.
         22    1    5    5    0    0 -0.28435886457E+03  0.20741475931E+01  0.65012789945E+03  0.70959886668E+03  0.00000000000E+00 0.  1.
         22    1    5    5    0    0  0.27131523468E+03  0.46020319992E+02 -0.65641843779E+02  0.28291107803E+03  0.00000000000E+00 0.  1.
          5    1    4    4  502    0  0.66381307006E+02 -0.43985967746E+02 -0.21357362258E+02  0.82580083561E+02  0.47000000000E+01 0. -1.
         -5    1    4    4    0  502 -0.53337677112E+02 -0.41084998392E+01 -0.26808865605E+02  0.60021603158E+02  0.47000000000E+01 0. -1.
<mgrwt>
<rscale>  0 0.10004196E+04</rscale>
<asrwt>0</asrwt>
<pdfrwt beam="1">  1        1 0.12857165E+00 0.10004196E+04</pdfrwt>
<pdfrwt beam="2">  1       -1 0.46060908E-01 0.10004196E+04</pdfrwt>
<totfact> 0.10958975E+02</totfact>
</mgrwt>
</event>
<event>
 9    1  0.4246427E-036  0.9998726E+03  0.7818608E-02  0.8681159E-01
         -2   -1    0    0    0  501 -0.00000000000E+00  0.00000000000E+00  0.38188929655E+03  0.38188929655E+03  0.00000000000E+00 0.  1.
          2   -1    0    0  501    0  0.00000000000E+00 -0.00000000000E+00 -0.65447317083E+03  0.65447317083E+03  0.00000000000E+00 0.  1.
         36    2    1    2    0    0 -0.14210854715E-13  0.10658141036E-13 -0.27258387429E+03  0.10363624674E+04  0.99987258952E+03 0.  0.
         25    2    3    3    0    0 -0.93527374084E+02 -0.31700543745E+02  0.53306996794E+02  0.16689657778E+03  0.12353354844E+03 0.  0.
         35    2    3    3    0    0  0.93527374084E+02  0.31700543745E+02 -0.32589087108E+03  0.86946588960E+03  0.80000861192E+03 0.  0.
         22    1    5    5    0    0 -0.15369317079E+03 -0.15500968155E+03  0.17549633538E+03  0.28008669346E+03  0.00000000000E+00 0.  1.
         22    1    5    5    0    0  0.24722054487E+03  0.18671022530E+03 -0.50138720646E+03  0.58937919614E+03  0.00000000000E+00 0.  1.
          5    1    4    4  502    0  0.21004095348E+02 -0.20743141452E+02  0.41496700662E+02  0.51142116739E+02  0.47000000000E+01 0. -1.
         -5    1    4    4    0  502 -0.11453146943E+03 -0.10957402292E+02  0.11810296132E+02  0.11575446104E+03  0.47000000000E+01 0. -1.
<mgrwt>
<rscale>  0 0.99987259E+03</rscale>
<asrwt>0</asrwt>
<pdfrwt beam="1">  1        2 0.10068818E+00 0.99987259E+03</pdfrwt>
<pdfrwt beam="2">  1       -2 0.58752200E-01 0.99987259E+03</pdfrwt>
<totfact> 0.14604674E+02</totfact>
</mgrwt>
</event>
<event>
 9    1  0.4246427E-036  0.1001132E+04  0.7818608E-02  0.8679960E-01
         -2   -1    0    0    0  501 -0.00000000000E+00  0.00000000000E+00  0.28664233633E+03  0.28664233633E+03  0.00000000000E+00 0. -1.
          2   -1    0    0  501    0  0.00000000000E+00 -0.00000000000E+00 -0.87414338161E+03  0.87414338161E+03  0.00000000000E+00 0. -1.
         36    2    1    2    0    0 -0.14210854715E-13 -0.28421709430E-13 -0.58750104528E+03  0.11607857179E+04  0.10011323613E+04 0.  0.
         25    2    3    3    0    0  0.34106465382E+02  0.67243112401E+02 -0.24779283825E+03  0.28794347024E+03  0.12579850643E+03 0.  0.
         35    2    3    3    0    0 -0.34106465382E+02 -0.67243112401E+02 -0.33970820703E+03  0.87284224771E+03  0.80047925414E+03 0.  0.
         22    1    5    5    0    0  0.15930008957E+03 -0.33757961903E+03  0.31448048739E+02  0.37460045047E+03  0.00000000000E+00 0.  1.
         22    1    5    5    0    0 -0.19340655495E+03  0.27033650663E+03 -0.37115625577E+03  0.49824179724E+03  0.00000000000E+00 0.  1.
          5    1    4    4  502    0 -0.43033895260E+02  0.24744657850E+02 -0.14030625368E+03  0.14890315328E+03  0.47000000000E+01 0.  1.
         -5    1    4    4    0  502  0.77140360642E+02  0.42498454551E+02 -0.10748658457E+03  0.13904031696E+03  0.47000000000E+01 0.  1.
<mgrwt>
<rscale>  0 0.10011324E+04</rscale>
<asrwt>0</asrwt>
<pdfrwt beam="1">  1        2 0.13448360E+00 0.10011324E+04</pdfrwt>
<pdfrwt beam="2">  1       -2 0.44098821E-01 0.10011324E+04</pdfrwt>
<totfact> 0.18020196E+02</totfact>
</mgrwt>
</event>
<event>
 9    1  0.4246427E-036  0.9995095E+03  0.7818608E-02  0.8681505E-01
          2   -1    0    0  501    0  0.00000000000E+00  0.00000000000E+00  0.12469262522E+04  0.12469262522E+04  0.00000000000E+00 0. -1.
         -2   -1    0    0    0  501 -0.00000000000E+00 -0.00000000000E+00 -0.20029639049E+03  0.20029639049E+03  0.00000000000E+00 0. -1.
         36    2    1    2    0    0  0.00000000000E+00  0.14210854715E-13  0.10466298617E+04  0.14472226427E+04  0.99950953476E+03 0.  0.
         25    2    3    3    0    0 -0.67189470121E+02 -0.56374326843E+02  0.35499901751E+03  0.38632190772E+03  0.12461069106E+03 0.  0.
         35    2    3    3    0    0  0.67189470121E+02  0.56374326843E+02  0.69163084418E+03  0.10609007350E+04  0.79966533949E+03 0.  0.
         22    1    5    5    0    0  0.41827500589E+03 -0.83471661764E+02  0.36248792443E+03  0.55974904576E+03  0.00000000000E+00 0.  1.
         22    1    5    5    0    0 -0.35108553577E+03  0.13984598861E+03  0.32914291975E+03  0.50115168919E+03  0.00000000000E+00 0.  1.
          5    1    4    4  502    0  0.16829393362E+02  0.12709427833E+02  0.86678664680E+01  0.23280462750E+02  0.47000000000E+01 0. -1.
         -5    1    4    4    0  502 -0.84018863483E+02 -0.69083754676E+02  0.34633115104E+03  0.36304144497E+03  0.47000000000E+01 0. -1.
<mgrwt>
<rscale>  0 0.99950953E+03</rscale>
<asrwt>0</asrwt>
<pdfrwt beam="1">  1        2 0.19183480E+00 0.99950953E+03</pdfrwt>
<pdfrwt beam="2">  1       -2 0.30814830E-01 0.99950953E+03</pdfrwt>
<totfact> 0.20837356E+02</totfact>
</mgrwt>
</event>
<event>
 9    1  0.4246427E-036  0.9997714E+03  0.7818608E-02  0.8681256E-01
          1   -1    0    0  501    0  0.00000000000E+00  0.00000000000E+00  0.40788867447E+03  0.40788867447E+03  0.00000000000E+00 0.  1.
         -1   -1    0    0    0  501 -0.00000000000E+00 -0.00000000000E+00 -0.61263219999E+03  0.61263219999E+03  0.00000000000E+00 0.  1.
         36    2    1    2    0    0  0.00000000000E+00 -0.28421709430E-13 -0.20474352552E+03  0.10205208745E+04  0.99977144586E+03 0.  0.
         25    2    3    3    0    0  0.19774363123E+02 -0.82900033628E+02 -0.15219229891E+03  0.21428576273E+03  0.12446867577E+03 0.  0.
         35    2    3    3    0    0 -0.19774363123E+02  0.82900033628E+02 -0.52551226608E+02  0.80623511172E+03  0.79999373932E+03 0.  0.
         22    1    5    5    0    0 -0.12080438909E+02  0.34575700306E+03  0.23371903661E+03  0.41751458686E+03  0.00000000000E+00 0. -1.
         22    1    5    5    0    0 -0.76939242140E+01 -0.26285696943E+03 -0.28627026322E+03  0.38872052486E+03  0.00000000000E+00 0. -1.
          5    1    4    4  502    0  0.32012837710E+02 -0.63044796431E+01  0.99919852263E+01  0.34445580422E+02  0.47000000000E+01 0. -1.
         -5    1    4    4    0  502 -0.12238474587E+02 -0.76595553985E+02 -0.16218428414E+03  0.17984018231E+03  0.47000000000E+01 0. -1.
<mgrwt>
<rscale>  0 0.99977145E+03</rscale>
<asrwt>0</asrwt>
<pdfrwt beam="1">  1        1 0.62752104E-01 0.99977145E+03</pdfrwt>
<pdfrwt beam="2">  1       -1 0.94251108E-01 0.99977145E+03</pdfrwt>
<totfact> 0.76064913E+01</totfact>
</mgrwt>
</event>
<event>
 9    1  0.4246427E-036  0.1000017E+04  0.7818608E-02  0.8681021E-01
          1   -1    0    0  501    0  0.00000000000E+00  0.00000000000E+00  0.34845184209E+03  0.34845184209E+03  0.00000000000E+00 0. -1.
         -1   -1    0    0    0  501 -0.00000000000E+00 -0.00000000000E+00 -0.71748424288E+03  0.71748424288E+03  0.00000000000E+00 0. -1.
         36    2    1    2    0    0 -0.28421709430E-13  0.14210854715E-13 -0.36903240079E+03  0.10659360850E+04  0.10000174121E+04 0.  0.
         25    2    3    3    0    0 -0.10309341626E+03  0.61631313546E+02 -0.14310934050E+03  0.22465739073E+03  0.12475571564E+03 0.  0.
         35    2    3    3    0    0  0.10309341626E+03 -0.61631313546E+02 -0.22592306029E+03  0.84127869424E+03  0.80142494404E+03 0.  0.
         22    1    5    5    0    0  0.32814163998E+03  0.17641818458E+03  0.93099567808E+02  0.38401541801E+03  0.00000000000E+00 0. -1.
         22    1    5    5    0    0 -0.22504822372E+03 -0.23804949813E+03 -0.31902262810E+03  0.45726327624E+03  0.00000000000E+00 0. -1.
          5    1    4    4  502    0 -0.64749016874E+02  0.99639616387E+02 -0.95517717976E+02  0.15253266138E+03  0.47000000000E+01 0.  1.
         -5    1    4    4    0  502 -0.38344399390E+02 -0.38008302840E+02 -0.47591622528E+02  0.72124729353E+02  0.47000000000E+01 0.  1.
<mgrwt>
<rscale>  0 0.10000174E+04</rscale>
<asrwt>0</asrwt>
<pdfrwt beam="1">  1        1 0.53607976E-01 0.10000174E+04</pdfrwt>
<pdfrwt beam="2">  1       -1 0.11038219E+00 0.10000174E+04</pdfrwt>
<totfact> 0.65582578E+01</totfact>
</mgrwt>
</event>
<event>
 9    1  0.4246427E-036  0.9935071E+03  0.7818608E-02  0.8687246E-01
         -1   -1    0    0    0  501 -0.00000000000E+00  0.00000000000E+00  0.11057578069E+03  0.11057578069E+03  0.00000000000E+00 0. -1.
          1   -1    0    0  501    0  0.00000000000E+00 -0.00000000000E+00 -0.22316288521E+04  0.22316288521E+04  0.00000000000E+00 0. -1.
         36    2    1    2    0    0  0.00000000000E+00  0.28421709430E-13 -0.21210530714E+04  0.23422046327E+04  0.99350712637E+03 0.  0.
         25    2    3    3    0    0  0.25202146887E+02  0.77436452614E+02 -0.13764812109E+03  0.20286025642E+03  0.12479473544E+03 0.  0.
         35    2    3    3    0    0 -0.25202146887E+02 -0.77436452614E+02 -0.19834049503E+04  0.21393443763E+04  0.79766384610E+03 0.  0.
         22    1    5    5    0    0 -0.20240450645E+03  0.19471326042E+03 -0.25071282047E+03  0.37648075165E+03  0.00000000000E+00 0.  1.
         22    1    5    5    0    0  0.17720235956E+03 -0.27214971304E+03 -0.17326921298E+04  0.17628636247E+04  0.00000000000E+00 0.  1.
          5    1    4    4  502    0 -0.24640839668E+02  0.90923516810E+02 -0.10697262738E+03  0.14261658353E+03  0.47000000000E+01 0.  1.
         -5    1    4    4    0  502  0.49842986556E+02 -0.13487064196E+02 -0.30675493712E+02  0.60243672895E+02  0.47000000000E+01 0.  1.
<mgrwt>
<rscale>  0 0.99350713E+03</rscale>
<asrwt>0</asrwt>
<pdfrwt beam="1">  1        1 0.34332749E+00 0.99350713E+03</pdfrwt>
<pdfrwt beam="2">  1       -1 0.17011660E-01 0.99350713E+03</pdfrwt>
<totfact> 0.57166917E+01</totfact>
</mgrwt>
</event>
<event>
 9    1  0.4246427E-036  0.1000371E+04  0.7818608E-02  0.8680684E-01
         -2   -1    0    0    0  501 -0.00000000000E+00  0.00000000000E+00  0.34108212116E+04  0.34108212116E+04  0.00000000000E+00 0.  1.
          2   -1    0    0  501    0  0.00000000000E+00 -0.00000000000E+00 -0.73350576579E+02  0.73350576579E+02  0.00000000000E+00 0.  1.
         36    2    1    2    0    0  0.00000000000E+00 -0.21316282073E-13  0.33374706350E+04  0.34841717882E+04  0.10003713360E+04 0.  0.
         25    2    3    3    0    0  0.12945734702E+03 -0.57093264548E+02  0.59506532792E+03  0.62428912226E+03  0.12496126654E+03 0.  0.
         35    2    3    3    0    0 -0.12945734702E+03  0.57093264548E+02  0.27424053071E+04  0.28598826659E+04  0.79882610674E+03 0.  0.
         22    1    5    5    0    0 -0.40230296319E+03  0.18549370556E+03  0.21497632781E+04  0.21949345641E+04  0.00000000000E+00 0. -1.
         22    1    5    5    0    0  0.27284561617E+03 -0.12840044102E+03  0.59264202904E+03  0.66494810181E+03  0.00000000000E+00 0. -1.
          5    1    4    4  502    0  0.12723929727E+03 -0.26021545038E+02  0.29228514848E+03  0.31987444036E+03  0.47000000000E+01 0.  1.
         -5    1    4    4    0  502  0.22180497539E+01 -0.31071719510E+02  0.30278017943E+03  0.30441468190E+03  0.47000000000E+01 0.  1.
<mgrwt>
<rscale>  0 0.10003713E+04</rscale>
<asrwt>0</asrwt>
<pdfrwt beam="1">  1        2 0.11284707E-01 0.10003713E+04</pdfrwt>
<pdfrwt beam="2">  1       -2 0.52474160E+00 0.10003713E+04</pdfrwt>
<totfact> 0.15140625E+00</totfact>
</mgrwt>
</event>
<event>
 9    1  0.4246427E-036  0.9995216E+03  0.7818608E-02  0.8681494E-01
         -1   -1    0    0    0  501 -0.00000000000E+00  0.00000000000E+00  0.10407541641E+03  0.10407541641E+03  0.00000000000E+00 0.  1.
          1   -1    0    0  501    0  0.00000000000E+00 -0.00000000000E+00 -0.23998066992E+04  0.23998066992E+04  0.00000000000E+00 0.  1.
         36    2    1    2    0    0  0.00000000000E+00  0.00000000000E+00 -0.22957312828E+04  0.25038821156E+04  0.99952164865E+03 0.  0.
         25    2    3    3    0    0  0.18774052036E+02  0.11110128301E+03 -0.22057875433E+03  0.27711206270E+03  0.12425839334E+03 0.  0.
         35    2    3    3    0    0 -0.18774052036E+02 -0.11110128301E+03 -0.20751525284E+04  0.22267700529E+04  0.79971925827E+03 0.  0.
         22    1    5    5    0    0  0.37699767191E+03 -0.15412142042E+03 -0.11320257636E+04  0.12030639993E+04  0.00000000000E+00 0.  1.
         22    1    5    5    0    0 -0.39577172394E+03  0.43020137406E+02 -0.94312676483E+03  0.10237060536E+04  0.00000000000E+00 0.  1.
          5    1    4    4  502    0  0.53244571901E+02  0.10906531542E+03 -0.12030411603E+03  0.17095437344E+03  0.47000000000E+01 0. -1.
         -5    1    4    4    0  502 -0.34470519865E+02  0.20359675944E+01 -0.10027463830E+03  0.10615768926E+03  0.47000000000E+01 0. -1.
<mgrwt>
<rscale>  0 0.99952165E+03</rscale>
<asrwt>0</asrwt>
<pdfrwt beam="1">  1        1 0.36920100E+00 0.99952165E+03</pdfrwt>
<pdfrwt beam="2">  1       -1 0.16011604E-01 0.99952165E+03</pdfrwt>
<totfact> 0.48039402E+01</totfact>
</mgrwt>
</event>
<event>
 9    1  0.4246427E-036  0.1000094E+04  0.7818608E-02  0.8680948E-01
          1   -1    0    0  501    0  0.00000000000E+00  0.00000000000E+00  0.99972329410E+03  0.99972329410E+03  0.00000000000E+00 0.  1.
         -1   -1    0    0    0  501 -0.00000000000E+00 -0.00000000000E+00 -0.25011641933E+03  0.25011641933E+03  0.00000000000E+00 0.  1.
         36    2    1    2    0    0 -0.28421709430E-13 -0.53290705182E-14  0.74960687477E+03  0.12498397134E+04  0.10000944168E+04 0.  0.
         25    2    3    3    0    0 -0.83458869304E+02  0.21848707787E+01  0.11805212076E+02  0.15036238621E+03  0.12449629564E+03 0.  0.
         35    2    3    3    0    0  0.83458869304E+02 -0.21848707787E+01  0.73780166270E+03  0.10994773272E+04  0.81088158389E+03 0.  0.
         22    1    5    5    0    0  0.33506381240E+03 -0.85469866457E+02  0.75853604737E+03  0.83363648649E+03  0.00000000000E+00 0. -1.
         22    1    5    5    0    0 -0.25160494310E+03  0.83284995678E+02 -0.20734384673E+02  0.26584084074E+03  0.00000000000E+00 0. -1.
          5    1    4    4  502    0 -0.72324833813E+02  0.33710608201E+00 -0.49552651790E+02  0.87798351499E+02  0.47000000000E+01 0. -1.
         -5    1    4    4    0  502 -0.11134035492E+02  0.18477646967E+01  0.61357863866E+02  0.62564034708E+02  0.47000000000E+01 0. -1.
<mgrwt>
<rscale>  0 0.10000944E+04</rscale>
<asrwt>0</asrwt>
<pdfrwt beam="1">  1        1 0.15380358E+00 0.10000944E+04</pdfrwt>
<pdfrwt beam="2">  1       -1 0.38479450E-01 0.10000944E+04</pdfrwt>
<totfact> 0.11078476E+02</totfact>
</mgrwt>
</event>
<event>
 9    1  0.4246427E-036  0.9998851E+03  0.7818608E-02  0.8681147E-01
          2   -1    0    0  501    0  0.00000000000E+00  0.00000000000E+00  0.84944487831E+03  0.84944487831E+03  0.00000000000E+00 0.  1.
         -2   -1    0    0    0  501 -0.00000000000E+00 -0.00000000000E+00 -0.29424222904E+03  0.29424222904E+03  0.00000000000E+00 0.  1.
         36    2    1    2    0    0 -0.14210854715E-13  0.00000000000E+00  0.55520264926E+03  0.11436871073E+04  0.99988510228E+03 0.  0.
         25    2    3    3    0    0 -0.97328034519E+02  0.98302197865E+02  0.11986034952E+03  0.22084215932E+03  0.12356653082E+03 0.  0.
         35    2    3    3    0    0  0.97328034519E+02 -0.98302197865E+02  0.43534229975E+03  0.92284494803E+03  0.80186271377E+03 0.  0.
         22    1    5    5    0    0 -0.16195490678E+03  0.75953362807E+02  0.55895410803E+03  0.58687988553E+03  0.00000000000E+00 0.  1.
         22    1    5    5    0    0  0.25928294130E+03 -0.17425556067E+03 -0.12361180828E+03  0.33596506250E+03  0.00000000000E+00 0.  1.
          5    1    4    4  502    0 -0.13131300637E+02  0.31485002804E+01  0.88821634948E+02  0.89965087369E+02  0.47000000000E+01 0. -1.
         -5    1    4    4    0  502 -0.84196733881E+02  0.95153697585E+02  0.31038714570E+02  0.13087707195E+03  0.47000000000E+01 0. -1.
<mgrwt>
<rscale>  0 0.99988510E+03</rscale>
<asrwt>0</asrwt>
<pdfrwt beam="1">  1        2 0.13068383E+00 0.99988510E+03</pdfrwt>
<pdfrwt beam="2">  1       -2 0.45268035E-01 0.99988510E+03</pdfrwt>
<totfact> 0.17789854E+02</totfact>
</mgrwt>
</event>
<event>
 9    1  0.4246427E-036  0.9998748E+03  0.7818608E-02  0.8681157E-01
         -2   -1    0    0    0  501 -0.00000000000E+00  0.00000000000E+00  0.12077505713E+03  0.12077505713E+03  0.00000000000E+00 0. -1.
          2   -1    0    0  501    0  0.00000000000E+00 -0.00000000000E+00 -0.20694453987E+04  0.20694453987E+04  0.00000000000E+00 0. -1.
         36    2    1    2    0    0 -0.28421709430E-13 -0.56843418861E-13 -0.19486703416E+04  0.21902204559E+04  0.99987476466E+03 0.  0.
         25    2    3    3    0    0 -0.11729190830E+03 -0.73329572588E+02 -0.33584050139E+03  0.38424309668E+03  0.12537662063E+03 0.  0.
         35    2    3    3    0    0  0.11729190830E+03  0.73329572588E+02 -0.16128298402E+04  0.18059773592E+04  0.80074934307E+03 0.  0.
         22    1    5    5    0    0  0.12777886229E+03 -0.35355934088E+03 -0.61785061618E+03  0.72323649596E+03  0.00000000000E+00 0.  1.
         22    1    5    5    0    0 -0.10486953982E+02  0.42688891346E+03 -0.99497922403E+03  0.10827408632E+04  0.00000000000E+00 0.  1.
          5    1    4    4  502    0 -0.51901493457E+02 -0.62530139391E+02 -0.61632517556E+02  0.10210014973E+03  0.47000000000E+01 0. -1.
         -5    1    4    4    0  502 -0.65390414847E+02 -0.10799433197E+02 -0.27420798383E+03  0.28214294694E+03  0.47000000000E+01 0. -1.
<mgrwt>
<rscale>  0 0.99987476E+03</rscale>
<asrwt>0</asrwt>
<pdfrwt beam="1">  1        2 0.31837619E+00 0.99987476E+03</pdfrwt>
<pdfrwt beam="2">  1       -2 0.18580779E-01 0.99987476E+03</pdfrwt>
<totfact> 0.17368352E+02</totfact>
</mgrwt>
</event>
<event>
 9    1  0.4246427E-036  0.1000545E+04  0.7818608E-02  0.8680519E-01
          2   -1    0    0  501    0  0.00000000000E+00  0.00000000000E+00  0.55422729666E+03  0.55422729666E+03  0.00000000000E+00 0.  1.
         -2   -1    0    0    0  501 -0.00000000000E+00 -0.00000000000E+00 -0.45157013454E+03  0.45157013454E+03  0.00000000000E+00 0.  1.
         36    2    1    2    0    0  0.00000000000E+00  0.14210854715E-13  0.10265716213E+03  0.10057974312E+04  0.10005448414E+04 0.  0.
         25    2    3    3    0    0 -0.91247606745E+02  0.10700680630E+03  0.15872513779E+02  0.18886910628E+03  0.12507206035E+03 0.  0.
         35    2    3    3    0    0  0.91247606745E+02 -0.10700680630E+03  0.86784648347E+02  0.81692832492E+03  0.80003983060E+03 0.  0.
         22    1    5    5    0    0  0.18452232930E+03 -0.15744891354E+03  0.41021082339E+03  0.47656224149E+03  0.00000000000E+00 0.  1.
         22    1    5    5    0    0 -0.93274722559E+02  0.50442107241E+02 -0.32342617504E+03  0.34036608343E+03  0.00000000000E+00 0.  1.
          5    1    4    4  502    0 -0.39911308833E+02  0.95019471242E+02  0.60534603867E+02  0.11961664079E+03  0.47000000000E+01 0. -1.
         -5    1    4    4    0  502 -0.51336297912E+02  0.11987335059E+02 -0.44662090088E+02  0.69252465488E+02  0.47000000000E+01 0. -1.
<mgrwt>
<rscale>  0 0.10005448E+04</rscale>
<asrwt>0</asrwt>
<pdfrwt beam="1">  1        2 0.85265737E-01 0.10005448E+04</pdfrwt>
<pdfrwt beam="2">  1       -2 0.69472329E-01 0.10005448E+04</pdfrwt>
<totfact> 0.12470864E+02</totfact>
</mgrwt>
</event>
<event>
 9    1  0.4246427E-036  0.1000140E+04  0.7818608E-02  0.8680905E-01
          1   -1    0    0  501    0  0.00000000000E+00  0.00000000000E+00  0.25604143290E+03  0.25604143290E+03  0.00000000000E+00 0.  1.
         -1   -1    0    0    0  501 -0.00000000000E+00 -0.00000000000E+00 -0.97667788735E+03  0.97667788735E+03  0.00000000000E+00 0.  1.
         36    2    1    2    0    0  0.35527136788E-14  0.00000000000E+00 -0.72063645445E+03  0.12327193203E+04  0.10001400017E+04 0.  0.
         25    2    3    3    0    0 -0.20783346244E+02 -0.96080004632E+02 -0.25914603149E+03  0.30403825695E+03  0.12497712303E+03 0.  0.
         35    2    3    3    0    0  0.20783346244E+02  0.96080004632E+02 -0.46149042296E+03  0.92868106330E+03  0.79988236140E+03 0.  0.
         22    1    5    5    0    0  0.29533926734E+03  0.29196909605E+02 -0.55638474912E+03  0.63058840095E+03  0.00000000000E+00 0. -1.
         22    1    5    5    0    0 -0.27455592110E+03  0.66883095026E+02  0.94894326159E+02  0.29809266235E+03  0.00000000000E+00 0. -1.
          5    1    4    4  502    0 -0.16113563444E+02 -0.88094675831E+02 -0.67833667169E+02  0.11244472081E+03  0.47000000000E+01 0. -1.
         -5    1    4    4    0  502 -0.46697827999E+01 -0.79853288009E+01 -0.19131236432E+03  0.19159353614E+03  0.47000000000E+01 0. -1.
<mgrwt>
<rscale>  0 0.10001400E+04</rscale>
<asrwt>0</asrwt>
<pdfrwt beam="1">  1        1 0.39390990E-01 0.10001400E+04</pdfrwt>
<pdfrwt beam="2">  1       -1 0.15025814E+00 0.10001400E+04</pdfrwt>
<totfact> 0.43961547E+01</totfact>
</mgrwt>
</event>
<event>
 9    1  0.4246427E-036  0.9998001E+03  0.7818608E-02  0.8681228E-01
         -2   -1    0    0    0  501 -0.00000000000E+00  0.00000000000E+00  0.43025767186E+03  0.43025767186E+03  0.00000000000E+00 0. -1.
          2   -1    0    0  501    0  0.00000000000E+00 -0.00000000000E+00 -0.58081485592E+03  0.58081485592E+03  0.00000000000E+00 0. -1.
         36    2    1    2    0    0  0.00000000000E+00  0.00000000000E+00 -0.15055718406E+03  0.10110725278E+04  0.99980007540E+03 0.  0.
         25    2    3    3    0    0 -0.79691454764E+02  0.27462668813E+02 -0.14180796388E+03  0.20673148916E+03  0.12459327369E+03 0.  0.
         35    2    3    3    0    0  0.79691454764E+02 -0.27462668813E+02 -0.87492201827E+01  0.80434103863E+03  0.79986438315E+03 0.  0.
         22    1    5    5    0    0 -0.18201535356E+03  0.89926917854E+02  0.31314372679E+03  0.37319623941E+03  0.00000000000E+00 0.  1.
         22    1    5    5    0    0  0.26170680832E+03 -0.11738958667E+03 -0.32189294697E+03  0.43114479921E+03  0.00000000000E+00 0.  1.
          5    1    4    4  502    0 -0.15558005980E+02 -0.19760888577E+02  0.15806688725E+02  0.30074668342E+02  0.47000000000E+01 0.  1.
         -5    1    4    4    0  502 -0.64133448784E+02  0.47223557391E+02 -0.15761465260E+03  0.17665682082E+03  0.47000000000E+01 0.  1.
<mgrwt>
<rscale>  0 0.99980008E+03</rscale>
<asrwt>0</asrwt>
<pdfrwt beam="1">  1        2 0.89356131E-01 0.99980008E+03</pdfrwt>
<pdfrwt beam="2">  1       -2 0.66193488E-01 0.99980008E+03</pdfrwt>
<totfact> 0.13099815E+02</totfact>
</mgrwt>
</event>
<event>
 9    1  0.4246427E-036  0.9932647E+03  0.7818608E-02  0.8687479E-01
          1   -1    0    0  501    0  0.00000000000E+00  0.00000000000E+00  0.12326749864E+04  0.12326749864E+04  0.00000000000E+00 0.  1.
         -1   -1    0    0    0  501 -0.00000000000E+00 -0.00000000000E+00 -0.20008816422E+03  0.20008816422E+03  0.00000000000E+00 0.  1.
         36    2    1    2    0    0  0.00000000000E+00 -0.42632564146E-13  0.10325868222E+04  0.14327631507E+04  0.99326466787E+03 0.  0.
         25    2    3    3    0    0  0.12420290395E+03  0.22046830873E+02  0.25389347493E+03  0.30952435262E+03  0.12422159293E+03 0.  0.
         35    2    3    3    0    0 -0.12420290395E+03 -0.22046830873E+02  0.77869334729E+03  0.11232387980E+04  0.79961843662E+03 0.  0.
         22    1    5    5    0    0 -0.21574171578E+03 -0.37217150565E+03  0.53699583828E+03  0.68805570114E+03  0.00000000000E+00 0. -1.
         22    1    5    5    0    0  0.91538811830E+02  0.35012467477E+03  0.24169750901E+03  0.43518309689E+03  0.00000000000E+00 0. -1.
          5    1    4    4  502    0  0.11576414734E+03 -0.19910502569E+02  0.23447205158E+03  0.26229182011E+03  0.47000000000E+01 0. -1.
         -5    1    4    4    0  502  0.84387566122E+01  0.41957333441E+02  0.19421423346E+02  0.47232532511E+02  0.47000000000E+01 0. -1.
<mgrwt>
<rscale>  0 0.99326467E+03</rscale>
<asrwt>0</asrwt>
<pdfrwt beam="1">  1        1 0.18964230E+00 0.99326467E+03</pdfrwt>
<pdfrwt beam="2">  1       -1 0.30782795E-01 0.99326467E+03</pdfrwt>
<totfact> 0.10846689E+02</totfact>
</mgrwt>
</event>
<event>
 9    1  0.4246427E-036  0.9992013E+03  0.7818608E-02  0.8681799E-01
         -1   -1    0    0    0  501 -0.00000000000E+00  0.00000000000E+00  0.52519319338E+03  0.52519319338E+03  0.00000000000E+00 0.  1.
          1   -1    0    0  501    0  0.00000000000E+00 -0.00000000000E+00 -0.47525523001E+03  0.47525523001E+03  0.00000000000E+00 0.  1.
         36    2    1    2    0    0  0.00000000000E+00  0.28421709430E-13  0.49937963368E+02  0.10004484234E+04  0.99920130488E+03 0.  0.
         25    2    3    3    0    0  0.39799494745E+02 -0.12546723325E+03  0.55710627830E+02  0.18984955165E+03  0.12495259824E+03 0.  0.
         35    2    3    3    0    0 -0.39799494745E+02  0.12546723325E+03 -0.57726644622E+01  0.81059887174E+03  0.79981946764E+03 0.  0.
         22    1    5    5    0    0 -0.88322704946E+02 -0.30257704766E+03  0.15441343579E+03  0.35099469958E+03  0.00000000000E+00 0.  1.
         22    1    5    5    0    0  0.48523210201E+02  0.42804428091E+03 -0.16018610026E+03  0.45960417216E+03  0.00000000000E+00 0.  1.
          5    1    4    4  502    0 -0.23576373894E+02 -0.35572891165E+02 -0.28252310325E+02  0.51396099371E+02  0.47000000000E+01 0.  1.
         -5    1    4    4    0  502  0.63375868639E+02 -0.89894342084E+02  0.83962938155E+02  0.13845345228E+03  0.47000000000E+01 0.  1.
<mgrwt>
<rscale>  0 0.99920130E+03</rscale>
<asrwt>0</asrwt>
<pdfrwt beam="1">  1        1 0.73116189E-01 0.99920130E+03</pdfrwt>
<pdfrwt beam="2">  1       -1 0.80798953E-01 0.99920130E+03</pdfrwt>
<totfact> 0.85916906E+01</totfact>
</mgrwt>
</event>
<event>
 9    1  0.4246427E-036  0.1000080E+04  0.7818608E-02  0.8680962E-01
          2   -1    0    0  501    0  0.00000000000E+00  0.00000000000E+00  0.16205064375E+03  0.16205064375E+03  0.00000000000E+00 0. -1.
         -2   -1    0    0    0  501 -0.00000000000E+00 -0.00000000000E+00 -0.15429729056E+04  0.15429729056E+04  0.00000000000E+00 0. -1.
         36    2    1    2    0    0  0.28421709430E-13  0.71054273576E-14 -0.13809222618E+04  0.17050235493E+04  0.10000795021E+04 0.  0.
         25    2    3    3    0    0  0.96813414791E+02  0.46329315963E+02 -0.10577141810E+03  0.19575708781E+03  0.12495599921E+03 0.  0.
         35    2    3    3    0    0 -0.96813414791E+02 -0.46329315963E+02 -0.12751508437E+04  0.15092664615E+04  0.80022267825E+03 0.  0.
         22    1    5    5    0    0 -0.42396958466E+03  0.52171164089E+02 -0.47274879750E+03  0.63715262270E+03  0.00000000000E+00 0. -1.
         22    1    5    5    0    0  0.32715616987E+03 -0.98500480052E+02 -0.80240204622E+03  0.87211383880E+03  0.00000000000E+00 0. -1.
          5    1    4    4  502    0  0.96863285402E+02  0.78192030490E+02 -0.10597017124E+03  0.16354894339E+03  0.47000000000E+01 0.  1.
         -5    1    4    4    0  502 -0.49870611544E-01 -0.31862714527E+02  0.19875313647E+00  0.32208144419E+02  0.47000000000E+01 0.  1.
<mgrwt>
<rscale>  0 0.10000795E+04</rscale>
<asrwt>0</asrwt>
<pdfrwt beam="1">  1        2 0.24930869E-01 0.10000795E+04</pdfrwt>
<pdfrwt beam="2">  1       -2 0.23738044E+00 0.10000795E+04</pdfrwt>
<totfact> 0.18155810E+01</totfact>
</mgrwt>
</event>
<event>
 9    1  0.4246427E-036  0.9988792E+03  0.7818608E-02  0.8682106E-01
          1   -1    0    0  501    0  0.00000000000E+00  0.00000000000E+00  0.10627455628E+04  0.10627455628E+04  0.00000000000E+00 0. -1.
         -1   -1    0    0    0  501 -0.00000000000E+00 -0.00000000000E+00 -0.23471272938E+03  0.23471272938E+03  0.00000000000E+00 0. -1.
         36    2    1    2    0    0 -0.28421709430E-13 -0.21316282073E-13  0.82803283346E+03  0.12974582922E+04  0.99887919528E+03 0.  0.
         25    2    3    3    0    0  0.13066983998E+03  0.35162304130E+02  0.14837888696E+03  0.23562425868E+03  0.12325381321E+03 0.  0.
         35    2    3    3    0    0 -0.13066983998E+03 -0.35162304130E+02  0.67965394650E+03  0.10618340335E+04  0.80451913158E+03 0.  0.
         22    1    5    5    0    0  0.41994867422E+02  0.25472502067E+03 -0.45390388420E+02  0.26212342972E+03  0.00000000000E+00 0. -1.
         22    1    5    5    0    0 -0.17266470741E+03 -0.28988732480E+03  0.72504433492E+03  0.79971060382E+03  0.00000000000E+00 0. -1.
          5    1    4    4  502    0  0.42304971846E+01 -0.36030622122E+02  0.41651503528E+02  0.55435012249E+02  0.47000000000E+01 0.  1.
         -5    1    4    4    0  502  0.12643934280E+03  0.71192926251E+02  0.10672738343E+03  0.18018924643E+03  0.47000000000E+01 0.  1.
<mgrwt>
<rscale>  0 0.99887920E+03</rscale>
<asrwt>0</asrwt>
<pdfrwt beam="1">  1        1 0.16349931E+00 0.99887920E+03</pdfrwt>
<pdfrwt beam="2">  1       -1 0.36109651E-01 0.99887920E+03</pdfrwt>
<totfact> 0.11057243E+02</totfact>
</mgrwt>
</event>
<event>
 9    1  0.4246427E-036  0.1000410E+04  0.7818608E-02  0.8680648E-01
         -2   -1    0    0    0  501 -0.00000000000E+00  0.00000000000E+00  0.26047466593E+03  0.26047466593E+03  0.00000000000E+00 0.  1.
          2   -1    0    0  501    0  0.00000000000E+00 -0.00000000000E+00 -0.96057355122E+03  0.96057355122E+03  0.00000000000E+00 0.  1.
         36    2    1    2    0    0 -0.71054273576E-14 -0.14210854715E-13 -0.70009888529E+03  0.12210482171E+04  0.10004100656E+04 0.  0.
         25    2    3    3    0    0  0.62856897692E+02  0.41785775882E+02  0.14045573651E+02  0.14608184076E+03  0.12428026958E+03 0.  0.
         35    2    3    3    0    0 -0.62856897692E+02 -0.41785775882E+02 -0.71414445894E+03  0.10749663764E+04  0.79990834568E+03 0.  0.
         22    1    5    5    0    0  0.33404790447E+02 -0.23283774714E+03 -0.80785974897E+03  0.84140755316E+03  0.00000000000E+00 0. -1.
         22    1    5    5    0    0 -0.96261688139E+02  0.19105197126E+03  0.93715290027E+02  0.23355882323E+03  0.00000000000E+00 0. -1.
          5    1    4    4  502    0  0.18961714466E+01  0.75055419269E+02  0.82866474995E+00  0.75230898659E+02  0.47000000000E+01 0. -1.
         -5    1    4    4    0  502  0.60960726245E+02 -0.33269643386E+02  0.13216908901E+02  0.70850942099E+02  0.47000000000E+01 0. -1.
<mgrwt>
<rscale>  0 0.10004101E+04</rscale>
<asrwt>0</asrwt>
<pdfrwt beam="1">  1        2 0.14778055E+00 0.10004101E+04</pdfrwt>
<pdfrwt beam="2">  1       -2 0.40073025E-01 0.10004101E+04</pdfrwt>
<totfact> 0.19039756E+02</totfact>
</mgrwt>
</event>
<event>
 9    1  0.4246427E-036  0.1000581E+04  0.7818608E-02  0.8680485E-01
         -2   -1    0    0    0  501 -0.00000000000E+00  0.00000000000E+00  0.26712738572E+03  0.26712738572E+03  0.00000000000E+00 0.  1.
          2   -1    0    0  501    0  0.00000000000E+00 -0.00000000000E+00 -0.93697021175E+03  0.93697021175E+03  0.00000000000E+00 0.  1.
         36    2    1    2    0    0  0.00000000000E+00 -0.10658141036E-13 -0.66984282604E+03  0.12040975975E+04  0.10005806377E+04 0.  0.
         25    2    3    3    0    0  0.13361935620E+03 -0.13747875685E+02 -0.17695056739E+03  0.25474192171E+03  0.12465475098E+03 0.  0.
         35    2    3    3    0    0 -0.13361935620E+03  0.13747875685E+02 -0.49289225865E+03  0.94935567575E+03  0.80018140694E+03 0.  0.
         22    1    5    5    0    0 -0.42693373372E+03  0.10274435153E+03 -0.46810843269E+03  0.64183667667E+03  0.00000000000E+00 0.  1.
         22    1    5    5    0    0  0.29331437751E+03 -0.88996475848E+02 -0.24783825954E+02  0.30751899909E+03  0.00000000000E+00 0.  1.
          5    1    4    4  502    0  0.13037188481E+03 -0.43686757280E+02 -0.94683392554E+02  0.16701016716E+03  0.47000000000E+01 0. -1.
         -5    1    4    4    0  502  0.32474713957E+01  0.29938881595E+02 -0.82267174835E+02  0.87731754553E+02  0.47000000000E+01 0. -1.
<mgrwt>
<rscale>  0 0.10005806E+04</rscale>
<asrwt>0</asrwt>
<pdfrwt beam="1">  1        2 0.14414927E+00 0.10005806E+04</pdfrwt>
<pdfrwt beam="2">  1       -2 0.41096520E-01 0.10005806E+04</pdfrwt>
<totfact> 0.18784782E+02</totfact>
</mgrwt>
</event>
<event>
 9    1  0.4246427E-036  0.1000254E+04  0.7818608E-02  0.8680796E-01
         -2   -1    0    0    0  501 -0.00000000000E+00  0.00000000000E+00  0.81957621645E+03  0.81957621645E+03  0.00000000000E+00 0. -1.
          2   -1    0    0  501    0  0.00000000000E+00 -0.00000000000E+00 -0.30519078682E+03  0.30519078682E+03  0.00000000000E+00 0. -1.
         36    2    1    2    0    0  0.14210854715E-13 -0.42632564146E-13  0.51438542963E+03  0.11247670033E+04  0.10002541884E+04 0.  0.
         25    2    3    3    0    0 -0.18369917382E+02 -0.10427002230E+03 -0.77649835445E+01  0.16387111341E+03  0.12483491269E+03 0.  0.
         35    2    3    3    0    0  0.18369917382E+02  0.10427002230E+03  0.52215041318E+03  0.96089588987E+03  0.79966878504E+03 0.  0.
         22    1    5    5    0    0  0.13014655045E+03  0.27538879621E+03 -0.88302502916E+02  0.31713474375E+03  0.00000000000E+00 0.  1.
         22    1    5    5    0    0 -0.11177663307E+03 -0.17111877391E+03  0.61045291609E+03  0.64376114612E+03  0.00000000000E+00 0.  1.
          5    1    4    4  502    0  0.43490725643E+02 -0.70867218494E+01  0.14132025163E+02  0.46513105451E+02  0.47000000000E+01 0.  1.
         -5    1    4    4    0  502 -0.61860643025E+02 -0.97183300447E+02 -0.21897008708E+02  0.11735800796E+03  0.47000000000E+01 0.  1.
<mgrwt>
<rscale>  0 0.10002542E+04</rscale>
<asrwt>0</asrwt>
<pdfrwt beam="1">  1        2 0.46952429E-01 0.10002542E+04</pdfrwt>
<pdfrwt beam="2">  1       -2 0.12608865E+00 0.10002542E+04</pdfrwt>
<totfact> 0.58571092E+01</totfact>
</mgrwt>
</event>
<event>
 9    1  0.4246427E-036  0.9973642E+03  0.7818608E-02  0.8683552E-01
         -2   -1    0    0    0  501 -0.00000000000E+00  0.00000000000E+00  0.17703435114E+03  0.17703435114E+03  0.00000000000E+00 0. -1.
          2   -1    0    0  501    0  0.00000000000E+00 -0.00000000000E+00 -0.14047208545E+04  0.14047208545E+04  0.00000000000E+00 0. -1.
         36    2    1    2    0    0  0.14210854715E-13  0.49737991503E-13 -0.12276865033E+04  0.15817552056E+04  0.99736421633E+03 0.  0.
         25    2    3    3    0    0 -0.59236129700E+02  0.27259479443E+02 -0.38879429573E+02  0.14752171818E+03  0.12648734723E+03 0.  0.
         35    2    3    3    0    0  0.59236129700E+02 -0.27259479443E+02 -0.11888070738E+04  0.14342334874E+04  0.79969459144E+03 0.  0.
         22    1    5    5    0    0 -0.18011989172E+03 -0.28858530583E+03 -0.22634321985E+03  0.40860238289E+03  0.00000000000E+00 0.  1.
         22    1    5    5    0    0  0.23935602142E+03  0.26132582638E+03 -0.96246385392E+03  0.10256311046E+04  0.00000000000E+00 0.  1.
          5    1    4    4  502    0 -0.25031594105E+02  0.69114175068E+02 -0.53843091892E+02  0.91238799002E+02  0.47000000000E+01 0.  1.
         -5    1    4    4    0  502 -0.34204535595E+02 -0.41854695625E+02  0.14963662319E+02  0.56282919177E+02  0.47000000000E+01 0.  1.
<mgrwt>
<rscale>  0 0.99736422E+03</rscale>
<asrwt>0</asrwt>
<pdfrwt beam="1">  1        2 0.21611090E+00 0.99736422E+03</pdfrwt>
<pdfrwt beam="2">  1       -2 0.27236054E-01 0.99736422E+03</pdfrwt>
<totfact> 0.21130469E+02</totfact>
</mgrwt>
</event>
<event>
 9    1  0.4246427E-036  0.1002503E+04  0.7818608E-02  0.8678658E-01
         -2   -1    0    0    0  501 -0.00000000000E+00  0.00000000000E+00  0.32967049208E+03  0.32967049208E+03  0.00000000000E+00 0.  1.
          2   -1    0    0  501    0  0.00000000000E+00 -0.00000000000E+00 -0.76213424231E+03  0.76213424231E+03  0.00000000000E+00 0.  1.
         36    2    1    2    0    0  0.28421709430E-13  0.00000000000E+00 -0.43246375023E+03  0.10918047344E+04  0.10025032084E+04 0.  0.
         25    2    3    3    0    0 -0.82694453018E+02  0.60052016127E+02 -0.18843815198E+03  0.24804518858E+03  0.12479127074E+03 0.  0.
         35    2    3    3    0    0  0.82694453018E+02 -0.60052016127E+02 -0.24402559825E+03  0.84375954582E+03  0.80120974867E+03 0.  0.
         22    1    5    5    0    0  0.11517363724E+03 -0.25657820758E+02 -0.53556368249E+03  0.54840837747E+03  0.00000000000E+00 0.  1.
         22    1    5    5    0    0 -0.32479184222E+02 -0.34394195369E+02  0.29153808424E+03  0.29535116835E+03  0.00000000000E+00 0.  1.
          5    1    4    4  502    0  0.20616468258E+02  0.38862717326E+01 -0.96052472775E+02  0.98429210083E+02  0.47000000000E+01 0. -1.
         -5    1    4    4    0  502 -0.10331092128E+03  0.56165744395E+02 -0.92385679206E+02  0.14961597849E+03  0.47000000000E+01 0. -1.
<mgrwt>
<rscale>  0 0.10025032E+04</rscale>
<asrwt>0</asrwt>
<pdfrwt beam="1">  1        2 0.11725142E+00 0.10025032E+04</pdfrwt>
<pdfrwt beam="2">  1       -2 0.50718538E-01 0.10025032E+04</pdfrwt>
<totfact> 0.16339510E+02</totfact>
</mgrwt>
</event>
<event>
 9    1  0.4246427E-036  0.1000832E+04  0.7818608E-02  0.8680246E-01
          2   -1    0    0  501    0  0.00000000000E+00  0.00000000000E+00  0.10437529029E+04  0.10437529029E+04  0.00000000000E+00 0.  1.
         -2   -1    0    0    0  501 -0.00000000000E+00 -0.00000000000E+00 -0.23991889085E+03  0.23991889085E+03  0.00000000000E+00 0.  1.
         36    2    1    2    0    0  0.14210854715E-13  0.00000000000E+00  0.80383401202E+03  0.12836717937E+04  0.10008317317E+04 0.  0.
         25    2    3    3    0    0 -0.10020819669E+03  0.84938623400E+02  0.21670964686E+03  0.28314184331E+03  0.12629323006E+03 0.  0.
         35    2    3    3    0    0  0.10020819669E+03 -0.84938623400E+02  0.58712436516E+03  0.10005299504E+04  0.79943036538E+03 0.  0.
         22    1    5    5    0    0  0.26841220779E+03  0.16828607083E+03  0.61850069399E+03  0.69491612688E+03  0.00000000000E+00 0.  1.
         22    1    5    5    0    0 -0.16820401111E+03 -0.25322469423E+03 -0.31376328836E+02  0.30561382353E+03  0.00000000000E+00 0.  1.
          5    1    4    4  502    0 -0.12514190888E+03  0.91396025450E+02  0.17402788613E+03  0.23306978779E+03  0.47000000000E+01 0. -1.
         -5    1    4    4    0  502  0.24933712196E+02 -0.64574020503E+01  0.42681760727E+02  0.50072055519E+02  0.47000000000E+01 0. -1.
<mgrwt>
<rscale>  0 0.10008317E+04</rscale>
<asrwt>0</asrwt>
<pdfrwt beam="1">  1        2 0.16057737E+00 0.10008317E+04</pdfrwt>
<pdfrwt beam="2">  1       -2 0.36910599E-01 0.10008317E+04</pdfrwt>
<totfact> 0.19735318E+02</totfact>
</mgrwt>
</event>
<event>
 9    1  0.4246427E-036  0.1013153E+04  0.7818608E-02  0.8668612E-01
         -2   -1    0    0    0  501 -0.00000000000E+00  0.00000000000E+00  0.52907394875E+03  0.52907394875E+03  0.00000000000E+00 0. -1.
          2   -1    0    0  501    0  0.00000000000E+00 -0.00000000000E+00 -0.48503602626E+03  0.48503602626E+03  0.00000000000E+00 0. -1.
         36    2    1    2    0    0  0.00000000000E+00  0.14210854715E-13  0.44037922490E+02  0.10141099750E+04  0.10131533461E+04 0.  0.
         25    2    3    3    0    0  0.51700685054E+02  0.90451740759E+02 -0.10438925325E+03  0.19349934409E+03  0.12526133372E+03 0.  0.
         35    2    3    3    0    0 -0.51700685054E+02 -0.90451740759E+02  0.14842717574E+03  0.82061063093E+03  0.80032287413E+03 0.  0.
         22    1    5    5    0    0 -0.57263592272E+02  0.15033048408E+03  0.42466989219E+03  0.45411770586E+03  0.00000000000E+00 0.  1.
         22    1    5    5    0    0  0.55629072178E+01 -0.24078222484E+03 -0.27624271645E+03  0.36649292507E+03  0.00000000000E+00 0.  1.
          5    1    4    4  502    0  0.24727624897E+02  0.33729041976E+02 -0.12120881953E+03  0.12830733275E+03  0.47000000000E+01 0.  1.
         -5    1    4    4    0  502  0.26973060158E+02  0.56722698783E+02  0.16819566281E+02  0.65192011331E+02  0.47000000000E+01 0.  1.
<mgrwt>
<rscale>  0 0.10131533E+04</rscale>
<asrwt>0</asrwt>
<pdfrwt beam="1">  1        2 0.74620927E-01 0.10131533E+04</pdfrwt>
<pdfrwt beam="2">  1       -2 0.81395992E-01 0.10131533E+04</pdfrwt>
<totfact> 0.10204127E+02</totfact>
</mgrwt>
</event>
<event>
 9    1  0.4246427E-036  0.1000454E+04  0.7818608E-02  0.8680606E-01
         -1   -1    0    0    0  501 -0.00000000000E+00  0.00000000000E+00  0.13661543149E+03  0.13661543149E+03  0.00000000000E+00 0.  1.
          1   -1    0    0  501    0  0.00000000000E+00 -0.00000000000E+00 -0.18316149860E+04  0.18316149860E+04  0.00000000000E+00 0.  1.
         36    2    1    2    0    0  0.00000000000E+00  0.00000000000E+00 -0.16949995545E+04  0.19682304175E+04  0.10004536404E+04 0.  0.
         25    2    3    3    0    0 -0.11800850111E+03 -0.58284953611E+02 -0.42707991657E+03  0.46411515163E+03  0.12522969570E+03 0.  0.
         35    2    3    3    0    0  0.11800850111E+03  0.58284953611E+02 -0.12679196380E+04  0.15041152659E+04  0.79838548496E+03 0.  0.
         22    1    5    5    0    0 -0.27642628717E+03  0.24320354776E+03 -0.66748400051E+03  0.76229544720E+03  0.00000000000E+00 0.  1.
         22    1    5    5    0    0  0.39443478829E+03 -0.18491859415E+03 -0.60043563745E+03  0.74181981868E+03  0.00000000000E+00 0.  1.
          5    1    4    4  502    0 -0.13562706547E+03 -0.64392128558E+02 -0.29911312967E+03  0.33471151974E+03  0.47000000000E+01 0. -1.
         -5    1    4    4    0  502  0.17618564360E+02  0.61071749474E+01 -0.12796678690E+03  0.12940363189E+03  0.47000000000E+01 0. -1.
<mgrwt>
<rscale>  0 0.10004536E+04</rscale>
<asrwt>0</asrwt>
<pdfrwt beam="1">  1        1 0.28178689E+00 0.10004536E+04</pdfrwt>
<pdfrwt beam="2">  1       -1 0.21017761E-01 0.10004536E+04</pdfrwt>
<totfact> 0.76995866E+01</totfact>
</mgrwt>
</event>
<event>
 9    1  0.4246427E-036  0.1003812E+04  0.7818608E-02  0.8677416E-01
         -1   -1    0    0    0  501 -0.00000000000E+00  0.00000000000E+00  0.19983278519E+03  0.19983278519E+03  0.00000000000E+00 0. -1.
          1   -1    0    0  501    0  0.00000000000E+00 -0.00000000000E+00 -0.12606020102E+04  0.12606020102E+04  0.00000000000E+00 0. -1.
         36    2    1    2    0    0  0.00000000000E+00 -0.17763568394E-13 -0.10607692250E+04  0.14604347954E+04  0.10038119559E+04 0.  0.
         25    2    3    3    0    0 -0.91928149194E+02  0.18712983867E+02 -0.37029212576E+03  0.40165170173E+03  0.12412441630E+03 0.  0.
         35    2    3    3    0    0  0.91928149194E+02 -0.18712983867E+02 -0.69047709924E+03  0.10587830936E+04  0.79715873854E+03 0.  0.
         22    1    5    5    0    0 -0.19981511153E+03  0.13136415090E+03 -0.69046551831E+03  0.73070188922E+03  0.00000000000E+00 0. -1.
         22    1    5    5    0    0  0.29174326073E+03 -0.15007713477E+03 -0.11580928623E-01  0.32808120442E+03  0.00000000000E+00 0. -1.
          5    1    4    4  502    0  0.14455629194E+02  0.29695181741E+02 -0.18220057537E+03  0.18522934081E+03  0.47000000000E+01 0. -1.
         -5    1    4    4    0  502 -0.10638377839E+03 -0.10982197874E+02 -0.18809155040E+03  0.21642236092E+03  0.47000000000E+01 0. -1.
<mgrwt>
<rscale>  0 0.10038120E+04</rscale>
<asrwt>0</asrwt>
<pdfrwt beam="1">  1        1 0.19393877E+00 0.10038120E+04</pdfrwt>
<pdfrwt beam="2">  1       -1 0.30743505E-01 0.10038120E+04</pdfrwt>
<totfact> 0.10357103E+02</totfact>
</mgrwt>
</event>
<event>
 9    1  0.4246427E-036  0.9984414E+03  0.7818608E-02  0.8682524E-01
         -1   -1    0    0    0  501 -0.00000000000E+00  0.00000000000E+00  0.30968095912E+03  0.30968095912E+03  0.00000000000E+00 0. -1.
          1   -1    0    0  501    0  0.00000000000E+00 -0.00000000000E+00 -0.80476789978E+03  0.80476789978E+03  0.00000000000E+00 0. -1.
         36    2    1    2    0    0  0.00000000000E+00 -0.28421709430E-13 -0.49508694066E+03  0.11144488589E+04  0.99844137548E+03 0.  0.
         25    2    3    3    0    0  0.38028488072E+02 -0.11300501147E+03 -0.17131776893E+03  0.24329293133E+03  0.12500149585E+03 0.  0.
         35    2    3    3    0    0 -0.38028488072E+02  0.11300501147E+03 -0.32376917173E+03  0.87115592756E+03  0.79991866776E+03 0.  0.
         22    1    5    5    0    0 -0.82530076266E+01 -0.24576780688E+03 -0.43039519285E+03  0.49569138490E+03  0.00000000000E+00 0.  1.
         22    1    5    5    0    0 -0.29775480445E+02  0.35877281834E+03  0.10662602112E+03  0.37546454266E+03  0.00000000000E+00 0.  1.
          5    1    4    4  502    0 -0.23725273659E+02  0.17083806183E+01  0.42515723432E+01  0.24616519696E+02  0.47000000000E+01 0. -1.
         -5    1    4    4    0  502  0.61753761731E+02 -0.11471339209E+03 -0.17556934127E+03  0.21867641164E+03  0.47000000000E+01 0. -1.
<mgrwt>
<rscale>  0 0.99844138E+03</rscale>
<asrwt>0</asrwt>
<pdfrwt beam="1">  1        1 0.12381044E+00 0.99844138E+03</pdfrwt>
<pdfrwt beam="2">  1       -1 0.47643225E-01 0.99844138E+03</pdfrwt>
<totfact> 0.10965705E+02</totfact>
</mgrwt>
</event>
<event>
 9    1  0.4246427E-036  0.1000188E+04  0.7818608E-02  0.8680859E-01
          2   -1    0    0  501    0  0.00000000000E+00  0.00000000000E+00  0.21055300658E+04  0.21055300658E+04  0.00000000000E+00 0. -1.
         -2   -1    0    0    0  501 -0.00000000000E+00 -0.00000000000E+00 -0.11877951062E+03  0.11877951062E+03  0.00000000000E+00 0. -1.
         36    2    1    2    0    0 -0.14210854715E-13 -0.71054273576E-14  0.19867505552E+04  0.22243095764E+04  0.10001876440E+04 0.  0.
         25    2    3    3    0    0 -0.88527686145E+02  0.18653039406E+02  0.13467797971E+03  0.20505003499E+03  0.12538848248E+03 0.  0.
         35    2    3    3    0    0  0.88527686145E+02 -0.18653039406E+02  0.18520725755E+04  0.20192595415E+04  0.79940676987E+03 0.  0.
         22    1    5    5    0    0  0.38857027711E+03  0.19620999667E+03  0.10229326928E+04  0.11116998323E+04  0.00000000000E+00 0.  1.
         22    1    5    5    0    0 -0.30004259096E+03 -0.21486303607E+03  0.82913988267E+03  0.90755970917E+03  0.00000000000E+00 0.  1.
          5    1    4    4  502    0 -0.11860392128E+03  0.24207120568E+02  0.90956256236E+02  0.15148599070E+03  0.47000000000E+01 0.  1.
         -5    1    4    4    0  502  0.30076235138E+02 -0.55540811623E+01  0.43721723472E+02  0.53564044293E+02  0.47000000000E+01 0.  1.
<mgrwt>
<rscale>  0 0.10001876E+04</rscale>
<asrwt>0</asrwt>
<pdfrwt beam="1">  1        2 0.32392768E+00 0.10001876E+04</pdfrwt>
<pdfrwt beam="2">  1       -2 0.18273772E-01 0.10001876E+04</pdfrwt>
<totfact> 0.17039589E+02</totfact>
</mgrwt>
</event>
<event>
 9    1  0.4246427E-036  0.1000384E+04  0.7818608E-02  0.8680672E-01
         -1   -1    0    0    0  501 -0.00000000000E+00  0.00000000000E+00  0.45024944771E+03  0.45024944771E+03  0.00000000000E+00 0.  1.
          1   -1    0    0  501    0  0.00000000000E+00 -0.00000000000E+00 -0.55567435948E+03  0.55567435948E+03  0.00000000000E+00 0.  1.
         36    2    1    2    0    0  0.00000000000E+00  0.12878587086E-13 -0.10542491177E+03  0.10059238072E+04  0.10003840732E+04 0.  0.
         25    2    3    3    0    0  0.45295093508E+02  0.12979337734E+01 -0.15376681409E+03  0.20290246189E+03  0.12438587459E+03 0.  0.
         35    2    3    3    0    0 -0.45295093508E+02 -0.12979337734E+01  0.48341902316E+02  0.80302134530E+03  0.80028308201E+03 0.  0.
         22    1    5    5    0    0  0.24849237499E+03 -0.29197905922E+03  0.67442803302E+02  0.38929264463E+03  0.00000000000E+00 0.  1.
         22    1    5    5    0    0 -0.29378746850E+03  0.29068112544E+03 -0.19100900987E+02  0.41372870066E+03  0.00000000000E+00 0.  1.
          5    1    4    4  502    0  0.11508190256E+02  0.43277984517E+01  0.21015103634E+02  0.24797033354E+02  0.47000000000E+01 0. -1.
         -5    1    4    4    0  502  0.33786903252E+02 -0.30298646783E+01 -0.17478191772E+03  0.17810542854E+03  0.47000000000E+01 0. -1.
<mgrwt>
<rscale>  0 0.10003841E+04</rscale>
<asrwt>0</asrwt>
<pdfrwt beam="1">  1        1 0.85488363E-01 0.10003841E+04</pdfrwt>
<pdfrwt beam="2">  1       -1 0.69269146E-01 0.10003841E+04</pdfrwt>
<totfact> 0.94394207E+01</totfact>
</mgrwt>
</event>
<event>
 9    1  0.4246427E-036  0.9999069E+03  0.7818608E-02  0.8681127E-01
          2   -1    0    0  501    0  0.00000000000E+00  0.00000000000E+00  0.37909118786E+03  0.37909118786E+03  0.00000000000E+00 0.  1.
         -2   -1    0    0    0  501 -0.00000000000E+00 -0.00000000000E+00 -0.65934917209E+03  0.65934917209E+03  0.00000000000E+00 0.  1.
         36    2    1    2    0    0 -0.14210854715E-13  0.00000000000E+00 -0.28025798423E+03  0.10384403600E+04  0.99990691739E+03 0.  0.
         25    2    3    3    0    0  0.84129334379E+02 -0.88729157456E+02 -0.11895909965E+03  0.21370731457E+03  0.12872039708E+03 0.  0.
         35    2    3    3    0    0 -0.84129334379E+02  0.88729157456E+02 -0.16129888458E+03  0.82473304539E+03  0.79951026116E+03 0.  0.
         22    1    5    5    0    0 -0.15008502902E+03  0.74848518154E+02 -0.47506981452E+03  0.50380466977E+03  0.00000000000E+00 0.  1.
         22    1    5    5    0    0  0.65955694642E+02  0.13880639303E+02  0.31377092994E+03  0.32092837562E+03  0.00000000000E+00 0.  1.
          5    1    4    4  502    0  0.80262177757E+02 -0.11870330308E+03 -0.80006838844E+02  0.16418183700E+03  0.47000000000E+01 0. -1.
         -5    1    4    4    0  502  0.38671566215E+01  0.29974145619E+02 -0.38952260807E+02  0.49525477564E+02  0.47000000000E+01 0. -1.
<mgrwt>
<rscale>  0 0.99990692E+03</rscale>
<asrwt>0</asrwt>
<pdfrwt beam="1">  1        2 0.58321721E-01 0.99990692E+03</pdfrwt>
<pdfrwt beam="2">  1       -2 0.10143833E+00 0.99990692E+03</pdfrwt>
<totfact> 0.80041772E+01</totfact>
</mgrwt>
</event>
<event>
 9    1  0.4246427E-036  0.9985645E+03  0.7818608E-02  0.8682406E-01
          2   -1    0    0  501    0  0.00000000000E+00  0.00000000000E+00  0.25494122210E+04  0.25494122210E+04  0.00000000000E+00 0. -1.
         -2   -1    0    0    0  501 -0.00000000000E+00 -0.00000000000E+00 -0.97780488200E+02  0.97780488200E+02  0.00000000000E+00 0. -1.
         36    2    1    2    0    0 -0.14210854715E-13  0.14210854715E-13  0.24516317328E+04  0.26471927092E+04  0.99856451287E+03 0.  0.
         25    2    3    3    0    0 -0.41750872626E+02  0.10594476982E+03  0.24606359416E+03  0.29869809452E+03  0.12532290165E+03 0.  0.
         35    2    3    3    0    0  0.41750872626E+02 -0.10594476982E+03  0.22055681386E+04  0.23484946147E+04  0.79870439551E+03 0.  0.
         22    1    5    5    0    0 -0.17846198239E+03  0.21893488639E+03  0.16142684804E+04  0.16387934252E+04  0.00000000000E+00 0. -1.
         22    1    5    5    0    0  0.22021285501E+03 -0.32487965621E+03  0.59129965821E+03  0.70970118947E+03  0.00000000000E+00 0. -1.
          5    1    4    4  502    0 -0.74149051896E+02  0.87617263772E+02  0.11570508455E+03  0.16304791749E+03  0.47000000000E+01 0. -1.
         -5    1    4    4    0  502  0.32398179270E+02  0.18327506047E+02  0.13035850961E+03  0.13565017702E+03  0.47000000000E+01 0. -1.
<mgrwt>
<rscale>  0 0.99856451E+03</rscale>
<asrwt>0</asrwt>
<pdfrwt beam="1">  1        2 0.39221721E+00 0.99856451E+03</pdfrwt>
<pdfrwt beam="2">  1       -2 0.15043154E-01 0.99856451E+03</pdfrwt>
<totfact> 0.12928246E+02</totfact>
</mgrwt>
</event>
<event>
 9    1  0.4246427E-036  0.1001962E+04  0.7818608E-02  0.8679171E-01
          1   -1    0    0  501    0  0.00000000000E+00  0.00000000000E+00  0.26906027144E+04  0.26906027144E+04  0.00000000000E+00 0. -1.
         -1   -1    0    0    0  501 -0.00000000000E+00 -0.00000000000E+00 -0.93281030050E+02  0.93281030050E+02  0.00000000000E+00 0. -1.
         36    2    1    2    0    0 -0.28421709430E-13  0.00000000000E+00  0.25973216843E+04  0.27838837444E+04  0.10019624597E+04 0.  0.
         25    2    3    3    0    0  0.10911715585E+03 -0.44346598444E+02  0.26633393256E+03  0.31661792091E+03  0.12425767468E+03 0.  0.
         35    2    3    3    0    0 -0.10911715585E+03  0.44346598444E+02  0.23309877517E+04  0.24672658235E+04  0.80001473141E+03 0.  0.
         22    1    5    5    0    0 -0.26896476286E+03  0.16943477883E+03  0.33810936371E+03  0.46407771953E+03  0.00000000000E+00 0. -1.
         22    1    5    5    0    0  0.15984760700E+03 -0.12508818039E+03  0.19928783880E+04  0.20031881040E+04  0.00000000000E+00 0. -1.
          5    1    4    4  502    0  0.86745201875E+02  0.23183372119E+02  0.93797309351E+02  0.12993161291E+03  0.47000000000E+01 0. -1.
         -5    1    4    4    0  502  0.22371953978E+02 -0.67529970563E+02  0.17253662320E+03  0.18668630800E+03  0.47000000000E+01 0. -1.
<mgrwt>
<rscale>  0 0.10019625E+04</rscale>
<asrwt>0</asrwt>
<pdfrwt beam="1">  1        1 0.41393882E+00 0.10019625E+04</pdfrwt>
<pdfrwt beam="2">  1       -1 0.14350930E-01 0.10019625E+04</pdfrwt>
<totfact> 0.35810387E+01</totfact>
</mgrwt>
</event>
<event>
 9    1  0.4246427E-036  0.1001052E+04  0.7818608E-02  0.8680037E-01
          2   -1    0    0  501    0  0.00000000000E+00  0.00000000000E+00  0.17747381051E+04  0.17747381051E+04  0.00000000000E+00 0.  1.
         -2   -1    0    0    0  501 -0.00000000000E+00 -0.00000000000E+00 -0.14116229010E+03  0.14116229010E+03  0.00000000000E+00 0.  1.
         36    2    1    2    0    0 -0.42632564146E-13 -0.28421709430E-13  0.16335758150E+04  0.19159003952E+04  0.10010516375E+04 0.  0.
         25    2    3    3    0    0  0.12306144421E+03  0.69269903444E+02  0.32950509154E+03  0.37962118076E+03  0.12488473468E+03 0.  0.
         35    2    3    3    0    0 -0.12306144421E+03 -0.69269903444E+02  0.13040707235E+04  0.15362792145E+04  0.79975679702E+03 0.  0.
         22    1    5    5    0    0  0.22084644225E+03  0.23863175165E+03  0.35806388022E+03  0.48366104481E+03  0.00000000000E+00 0.  1.
         22    1    5    5    0    0 -0.34390788647E+03 -0.30790165509E+03  0.94600684327E+03  0.10526181697E+04  0.00000000000E+00 0.  1.
          5    1    4    4  502    0  0.18584047079E+02  0.27065857242E+02  0.19825377373E+01  0.33225711278E+02  0.47000000000E+01 0. -1.
         -5    1    4    4    0  502  0.10447739713E+03  0.42204046202E+02  0.32752255380E+03  0.34639546948E+03  0.47000000000E+01 0. -1.
<mgrwt>
<rscale>  0 0.10010516E+04</rscale>
<asrwt>0</asrwt>
<pdfrwt beam="1">  1        2 0.27303662E+00 0.10010516E+04</pdfrwt>
<pdfrwt beam="2">  1       -2 0.21717277E-01 0.10010516E+04</pdfrwt>
<totfact> 0.19487206E+02</totfact>
</mgrwt>
</event>
<event>
 9    1  0.4246427E-036  0.1002216E+04  0.7818608E-02  0.8678930E-01
         -2   -1    0    0    0  501 -0.00000000000E+00  0.00000000000E+00  0.11806076898E+03  0.11806076898E+03  0.00000000000E+00 0.  1.
          2   -1    0    0  501    0  0.00000000000E+00 -0.00000000000E+00 -0.21269509659E+04  0.21269509659E+04  0.00000000000E+00 0.  1.
         36    2    1    2    0    0  0.14210854715E-13  0.42632564146E-13 -0.20088901970E+04  0.22450117349E+04  0.10022164769E+04 0.  0.
         25    2    3    3    0    0 -0.12484299361E+03 -0.51336596604E+02 -0.38086240824E+03  0.42582656444E+03  0.13435352532E+03 0.  0.
         35    2    3    3    0    0  0.12484299361E+03  0.51336596604E+02 -0.16280277887E+04  0.18191851705E+04  0.80046173205E+03 0.  0.
         22    1    5    5    0    0  0.12596589672E+03 -0.36868778041E+03 -0.84932259547E+03  0.93442332898E+03  0.00000000000E+00 0.  1.
         22    1    5    5    0    0 -0.11229031085E+01  0.42002437701E+03 -0.77870519324E+03  0.88476184150E+03  0.00000000000E+00 0.  1.
          5    1    4    4  502    0 -0.67699442685E+02 -0.48216669486E+02 -0.67296989653E+02  0.10704688960E+03  0.47000000000E+01 0. -1.
         -5    1    4    4    0  502 -0.57143550923E+02 -0.31199271174E+01 -0.31356541859E+03  0.31877967484E+03  0.47000000000E+01 0. -1.
<mgrwt>
<rscale>  0 0.10022165E+04</rscale>
<asrwt>0</asrwt>
<pdfrwt beam="1">  1        2 0.32722320E+00 0.10022165E+04</pdfrwt>
<pdfrwt beam="2">  1       -2 0.18163197E-01 0.10022165E+04</pdfrwt>
<totfact> 0.16735024E+02</totfact>
</mgrwt>
</event>
<event>
 9    1  0.4246427E-036  0.9982817E+03  0.7818608E-02  0.8682676E-01
         -4   -1    0    0    0  501 -0.00000000000E+00  0.00000000000E+00  0.10765043545E+04  0.10765043545E+04  0.00000000000E+00 0. -1.
          4   -1    0    0  501    0  0.00000000000E+00 -0.00000000000E+00 -0.23143573249E+03  0.23143573249E+03  0.00000000000E+00 0. -1.
         36    2    1    2    0    0  0.00000000000E+00  0.28421709430E-13  0.84506862196E+03  0.13079400869E+04  0.99828167128E+03 0.  0.
         25    2    3    3    0    0 -0.73203680245E+02  0.11027274506E+03  0.10704827062E+03  0.21080554738E+03  0.12434142294E+03 0.  0.
         35    2    3    3    0    0  0.73203680245E+02 -0.11027274506E+03  0.73802035134E+03  0.10971345396E+04  0.80094400666E+03 0.  0.
         22    1    5    5    0    0  0.35421686325E+02 -0.39538464848E+03  0.70309208055E+03  0.80741698636E+03  0.00000000000E+00 0. -1.
         22    1    5    5    0    0  0.37781993920E+02  0.28511190342E+03  0.34928270791E+02  0.28971755321E+03  0.00000000000E+00 0. -1.
          5    1    4    4  502    0 -0.42568839719E+02  0.43444838284E+02  0.12129783585E+03  0.13577486907E+03  0.47000000000E+01 0. -1.
         -5    1    4    4    0  502 -0.30634840527E+02  0.66827906776E+02 -0.14249565233E+02  0.75030678309E+02  0.47000000000E+01 0. -1.
<mgrwt>
<rscale>  0 0.99828167E+03</rscale>
<asrwt>0</asrwt>
<pdfrwt beam="1">  1        4 0.35605498E-01 0.99828167E+03</pdfrwt>
<pdfrwt beam="2">  1       -4 0.16561605E+00 0.99828167E+03</pdfrwt>
<totfact> 0.33782839E+00</totfact>
</mgrwt>
</event>
<event>
 9    1  0.4246427E-036  0.9997726E+03  0.7818608E-02  0.8681255E-01
         -2   -1    0    0    0  501 -0.00000000000E+00  0.00000000000E+00  0.19171444056E+03  0.19171444056E+03  0.00000000000E+00 0.  1.
          2   -1    0    0  501    0  0.00000000000E+00 -0.00000000000E+00 -0.13034297217E+04  0.13034297217E+04  0.00000000000E+00 0.  1.
         36    2    1    2    0    0  0.14210854715E-13 -0.71054273576E-14 -0.11117152811E+04  0.14951441622E+04  0.99977257393E+03 0.  0.
         25    2    3    3    0    0  0.38705305006E+02 -0.96315898899E+01 -0.69074920968E+01  0.13162603094E+03  0.12524707747E+03 0.  0.
         35    2    3    3    0    0 -0.38705305006E+02  0.96315898899E+01 -0.11048077890E+04  0.13635181313E+04  0.79811689339E+03 0.  0.
         22    1    5    5    0    0  0.11241391391E+03 -0.10628132294E+03 -0.11559986679E+04  0.11663042175E+04  0.00000000000E+00 0.  1.
         22    1    5    5    0    0 -0.15111921892E+03  0.11591291283E+03  0.51190878905E+02  0.19721391374E+03  0.00000000000E+00 0.  1.
          5    1    4    4  502    0 -0.22584978632E+02 -0.44209466341E+02 -0.29041018654E+02  0.57706402924E+02  0.47000000000E+01 0. -1.
         -5    1    4    4    0  502  0.61290283639E+02  0.34577876451E+02  0.22133526557E+02  0.73919628018E+02  0.47000000000E+01 0. -1.
<mgrwt>
<rscale>  0 0.99977257E+03</rscale>
<asrwt>0</asrwt>
<pdfrwt beam="1">  1        2 0.20052765E+00 0.99977257E+03</pdfrwt>
<pdfrwt beam="2">  1       -2 0.29494529E-01 0.99977257E+03</pdfrwt>
<totfact> 0.20922881E+02</totfact>
</mgrwt>
</event>
<event>
 9    1  0.4246427E-036  0.9994633E+03  0.7818608E-02  0.8681549E-01
          1   -1    0    0  501    0  0.00000000000E+00  0.00000000000E+00  0.87492560026E+03  0.87492560026E+03  0.00000000000E+00 0. -1.
         -1   -1    0    0    0  501 -0.00000000000E+00 -0.00000000000E+00 -0.28543192890E+03  0.28543192890E+03  0.00000000000E+00 0. -1.
         36    2    1    2    0    0 -0.56843418861E-13  0.00000000000E+00  0.58949367136E+03  0.11603575292E+04  0.99946325941E+03 0.  0.
         25    2    3    3    0    0  0.13240645684E+03 -0.45765514787E+02  0.94076896987E+02  0.21025396330E+03  0.12542055006E+03 0.  0.
         35    2    3    3    0    0 -0.13240645684E+03  0.45765514787E+02  0.49541677437E+03  0.95010356586E+03  0.79851928804E+03 0.  0.
         22    1    5    5    0    0 -0.44566326482E+03  0.94936292782E+02  0.42961244867E+03  0.62625514077E+03  0.00000000000E+00 0.  1.
         22    1    5    5    0    0  0.31325680797E+03 -0.49170777995E+02  0.65804325702E+02  0.32384842509E+03  0.00000000000E+00 0.  1.
          5    1    4    4  502    0  0.13916740189E+03 -0.34752117846E+01  0.92372311402E+02  0.16713580334E+03  0.47000000000E+01 0.  1.
         -5    1    4    4    0  502 -0.67609450441E+01 -0.42290303003E+02  0.17045855855E+01  0.43118159956E+02  0.47000000000E+01 0.  1.
<mgrwt>
<rscale>  0 0.99946326E+03</rscale>
<asrwt>0</asrwt>
<pdfrwt beam="1">  1        1 0.13460394E+00 0.99946326E+03</pdfrwt>
<pdfrwt beam="2">  1       -1 0.43912605E-01 0.99946326E+03</pdfrwt>
<totfact> 0.11065752E+02</totfact>
</mgrwt>
</event>
<event>
 9    1 -0.4246427E-036  0.9995096E+03  0.7818608E-02  0.8681505E-01
         -1   -1    0    0    0  501 -0.00000000000E+00  0.00000000000E+00  0.33262636708E+04  0.33262636708E+04  0.00000000000E+00 0. -1.
          1   -1    0    0  501    0  0.00000000000E+00 -0.00000000000E+00 -0.75085700641E+02  0.75085700641E+02  0.00000000000E+00 0. -1.
         36    2    1    2    0    0  0.00000000000E+00  0.14210854715E-13  0.32511779702E+04  0.34013493715E+04  0.99950955622E+03 0.  0.
         25    2    3    3    0    0  0.71514215890E+02 -0.11347392582E+03  0.75145438051E+03  0.77317998401E+03  0.12301620536E+03 0.  0.
         35    2    3    3    0    0 -0.71514215890E+02  0.11347392582E+03  0.24997235897E+04  0.26281693875E+04  0.80041594776E+03 0.  0.
         22    1    5    5    0    0 -0.34878784499E+03 -0.18940965003E+03  0.10978056817E+04  0.11673501150E+04  0.00000000000E+00 0. -1.
         22    1    5    5    0    0  0.27727362910E+03  0.30288357585E+03  0.14019179080E+04  0.14608192725E+04  0.00000000000E+00 0. -1.
          5    1    4    4  502    0  0.70846003953E+02 -0.27562317512E+02  0.53261572347E+03  0.53803386186E+03  0.47000000000E+01 0.  1.
         -5    1    4    4    0  502  0.66821193652E+00 -0.85911608311E+02  0.21883865704E+03  0.23514612215E+03  0.47000000000E+01 0.  1.
<mgrwt>
<rscale>  0 0.99950956E+03</rscale>
<asrwt>0</asrwt>
<pdfrwt beam="1">  1        1 0.11551649E-01 0.99950956E+03</pdfrwt>
<pdfrwt beam="2">  1       -1 0.51173276E+00 0.99950956E+03</pdfrwt>
<totfact>-0.29117012E+00</totfact>
</mgrwt>
</event>
<event>
 9    1  0.4246427E-036  0.9997903E+03  0.7818608E-02  0.8681238E-01
         -3   -1    0    0    0  501 -0.00000000000E+00  0.00000000000E+00  0.81374108323E+02  0.81374108323E+02  0.00000000000E+00 0. -1.
          3   -1    0    0  501    0  0.00000000000E+00 -0.00000000000E+00 -0.30709420969E+04  0.30709420969E+04  0.00000000000E+00 0. -1.
         36    2    1    2    0    0  0.14210854715E-13  0.00000000000E+00 -0.29895679886E+04  0.31523162052E+04  0.99979032771E+03 0.  0.
         25    2    3    3    0    0 -0.53780743017E+02 -0.58409296462E+02 -0.98010681041E+03  0.99103598576E+03  0.12344614630E+03 0.  0.
         35    2    3    3    0    0  0.53780743017E+02  0.58409296462E+02 -0.20094611782E+04  0.21612802194E+04  0.79176634572E+03 0.  0.
         22    1    5    5    0    0 -0.30758947034E+03  0.21040448874E+03 -0.68246417000E+03  0.77758515578E+03  0.00000000000E+00 0.  1.
         22    1    5    5    0    0  0.36137021336E+03 -0.15199519228E+03 -0.13269970082E+04  0.13836950637E+04  0.00000000000E+00 0.  1.
          5    1    4    4  502    0 -0.28159870409E+02  0.37606324501E+02 -0.30097312789E+03  0.30465411150E+03  0.47000000000E+01 0. -1.
         -5    1    4    4    0  502 -0.25620872607E+02 -0.96015620963E+02 -0.67913368251E+03  0.68638187426E+03  0.47000000000E+01 0. -1.
<mgrwt>
<rscale>  0 0.99979033E+03</rscale>
<asrwt>0</asrwt>
<pdfrwt beam="1">  1        3 0.47245264E+00 0.99979033E+03</pdfrwt>
<pdfrwt beam="2">  1       -3 0.12519093E-01 0.99979033E+03</pdfrwt>
<totfact> 0.29715694E+00</totfact>
</mgrwt>
</event>
<event>
 9    1  0.4246427E-036  0.1000093E+04  0.7818608E-02  0.8680949E-01
         -2   -1    0    0    0  501 -0.00000000000E+00  0.00000000000E+00  0.85460925318E+03  0.85460925318E+03  0.00000000000E+00 0. -1.
          2   -1    0    0  501    0  0.00000000000E+00 -0.00000000000E+00 -0.29258593977E+03  0.29258593977E+03  0.00000000000E+00 0. -1.
         36    2    1    2    0    0  0.35527136788E-13  0.14210854715E-13  0.56202331341E+03  0.11471951930E+04  0.10000932986E+04 0.  0.
         25    2    3    3    0    0 -0.63608758280E+02 -0.82491533769E+01  0.25178549066E+03  0.28838058206E+03  0.12511316533E+03 0.  0.
         35    2    3    3    0    0  0.63608758280E+02  0.82491533769E+01  0.31023782274E+03  0.85881461090E+03  0.79824864959E+03 0.  0.
         22    1    5    5    0    0 -0.24722195110E+03  0.16688624058E+03 -0.10517264169E+03  0.31627676955E+03  0.00000000000E+00 0.  1.
         22    1    5    5    0    0  0.31083070938E+03 -0.15863708720E+03  0.41541046443E+03  0.54253784134E+03  0.00000000000E+00 0.  1.
          5    1    4    4  502    0 -0.74677318715E+02  0.12936390675E+02  0.64831618139E+02  0.99846286084E+02  0.47000000000E+01 0. -1.
         -5    1    4    4    0  502  0.11068560436E+02 -0.21185544052E+02  0.18695387253E+03  0.18853429598E+03  0.47000000000E+01 0. -1.
<mgrwt>
<rscale>  0 0.10000933E+04</rscale>
<asrwt>0</asrwt>
<pdfrwt beam="1">  1        2 0.45013222E-01 0.10000933E+04</pdfrwt>
<pdfrwt beam="2">  1       -2 0.13147835E+00 0.10000933E+04</pdfrwt>
<totfact> 0.54934773E+01</totfact>
</mgrwt>
</event>
<event>
 9    1  0.4246427E-036  0.9997203E+03  0.7818608E-02  0.8681304E-01
         -2   -1    0    0    0  501 -0.00000000000E+00  0.00000000000E+00  0.12579411014E+03  0.12579411014E+03  0.00000000000E+00 0. -1.
          2   -1    0    0  501    0  0.00000000000E+00 -0.00000000000E+00 -0.19862626866E+04  0.19862626866E+04  0.00000000000E+00 0. -1.
         36    2    1    2    0    0  0.00000000000E+00  0.14210854715E-13 -0.18604685765E+04  0.21120567967E+04  0.99972025522E+03 0.  0.
         25    2    3    3    0    0  0.12216103126E+03 -0.56582528273E+02 -0.43148257725E+03  0.46889184613E+03  0.12472950265E+03 0.  0.
         35    2    3    3    0    0 -0.12216103126E+03  0.56582528273E+02 -0.14289859992E+04  0.16431649506E+04  0.79991572615E+03 0.  0.
         22    1    5    5    0    0 -0.11588373099E+03 -0.13454228816E+03  0.22632232143E+02  0.17900526344E+03  0.00000000000E+00 0.  1.
         22    1    5    5    0    0 -0.62773002749E+01  0.19112481643E+03 -0.14516182314E+04  0.14641596872E+04  0.00000000000E+00 0.  1.
          5    1    4    4  502    0  0.14692952470E+03 -0.44652280038E+02 -0.38709031578E+03  0.41646502124E+03  0.47000000000E+01 0.  1.
         -5    1    4    4    0  502 -0.24768493439E+02 -0.11930248235E+02 -0.44392261466E+02  0.52426824892E+02  0.47000000000E+01 0.  1.
<mgrwt>
<rscale>  0 0.99972026E+03</rscale>
<asrwt>0</asrwt>
<pdfrwt beam="1">  1        2 0.30557886E+00 0.99972026E+03</pdfrwt>
<pdfrwt beam="2">  1       -2 0.19352941E-01 0.99972026E+03</pdfrwt>
<totfact> 0.18065507E+02</totfact>
</mgrwt>
</event>
<event>
 9    1  0.4246427E-036  0.1000027E+04  0.7818608E-02  0.8681012E-01
         -2   -1    0    0    0  501 -0.00000000000E+00  0.00000000000E+00  0.43372158431E+03  0.43372158431E+03  0.00000000000E+00 0. -1.
          2   -1    0    0  501    0  0.00000000000E+00 -0.00000000000E+00 -0.57643792560E+03  0.57643792560E+03  0.00000000000E+00 0. -1.
         36    2    1    2    0    0 -0.28421709430E-13  0.00000000000E+00 -0.14271634129E+03  0.10101595099E+04  0.10000271403E+04 0.  0.
         25    2    3    3    0    0 -0.10807813018E+03  0.18026488434E+00 -0.11457855738E+03  0.20192419031E+03  0.12634958687E+03 0.  0.
         35    2    3    3    0    0  0.10807813018E+03 -0.18026488434E+00 -0.28137783905E+02  0.80823531959E+03  0.80048215610E+03 0.  0.
         22    1    5    5    0    0  0.15418479918E+03  0.19851988401E+02 -0.40199835625E+03  0.43101013001E+03  0.00000000000E+00 0. -1.
         22    1    5    5    0    0 -0.46106668995E+02 -0.20032253285E+02  0.37386057235E+03  0.37722518958E+03  0.00000000000E+00 0. -1.
          5    1    4    4  502    0 -0.13356644897E+03  0.65436245834E+01 -0.11308523503E+03  0.17519467941E+03  0.47000000000E+01 0. -1.
         -5    1    4    4    0  502  0.25488318787E+02 -0.63633596990E+01 -0.14933223502E+01  0.26729510899E+02  0.47000000000E+01 0. -1.
<mgrwt>
<rscale>  0 0.10000271E+04</rscale>
<asrwt>0</asrwt>
<pdfrwt beam="1">  1        2 0.88682757E-01 0.10000271E+04</pdfrwt>
<pdfrwt beam="2">  1       -2 0.66726398E-01 0.10000271E+04</pdfrwt>
<totfact> 0.12991891E+02</totfact>
</mgrwt>
</event>
<event>
 9    1  0.4246427E-036  0.9999941E+03  0.7818608E-02  0.8681044E-01
          1   -1    0    0  501    0  0.00000000000E+00  0.00000000000E+00  0.24633926308E+03  0.24633926308E+03  0.00000000000E+00 0. -1.
         -1   -1    0    0    0  501 -0.00000000000E+00 -0.00000000000E+00 -0.10148485754E+04  0.10148485754E+04  0.00000000000E+00 0. -1.
         36    2    1    2    0    0 -0.14210854715E-13  0.00000000000E+00 -0.76850931235E+03  0.12611878385E+04  0.99999410041E+03 0.  0.
         25    2    3    3    0    0 -0.10684528103E+03 -0.86875115297E+02 -0.10956854850E+03  0.21561792600E+03  0.12458982083E+03 0.  0.
         35    2    3    3    0    0  0.10684528103E+03  0.86875115297E+02 -0.65894076385E+03  0.10455699125E+04  0.80003144436E+03 0.  0.
         22    1    5    5    0    0  0.10231220368E+03  0.13616598569E+02 -0.84202160870E+03  0.84832398781E+03  0.00000000000E+00 0. -1.
         22    1    5    5    0    0  0.45330773574E+01  0.73258516728E+02  0.18308084485E+03  0.19724592471E+03  0.00000000000E+00 0. -1.
          5    1    4    4  502    0 -0.44154215944E+02  0.17510825039E+02  0.54641775152E+01  0.48043428428E+02  0.47000000000E+01 0. -1.
         -5    1    4    4    0  502 -0.62691065089E+02 -0.10438594034E+03 -0.11503272601E+03  0.16757449757E+03  0.47000000000E+01 0. -1.
<mgrwt>
<rscale>  0 0.99999410E+03</rscale>
<asrwt>0</asrwt>
<pdfrwt beam="1">  1        1 0.37898349E-01 0.99999410E+03</pdfrwt>
<pdfrwt beam="2">  1       -1 0.15613055E+00 0.99999410E+03</pdfrwt>
<totfact> 0.41270215E+01</totfact>
</mgrwt>
</event>
<event>
 9    1  0.4246427E-036  0.9993309E+03  0.7818608E-02  0.8681675E-01
         -2   -1    0    0    0  501 -0.00000000000E+00  0.00000000000E+00  0.15155196214E+03  0.15155196214E+03  0.00000000000E+00 0.  1.
          2   -1    0    0  501    0  0.00000000000E+00 -0.00000000000E+00 -0.16473926009E+04  0.16473926009E+04  0.00000000000E+00 0.  1.
         36    2    1    2    0    0  0.00000000000E+00  0.28421709430E-13 -0.14958406388E+04  0.17989445631E+04  0.99933093835E+03 0.  0.
         25    2    3    3    0    0  0.53923790225E+02  0.24852410507E+02 -0.50740180410E+03  0.52600584824E+03  0.12530021596E+03 0.  0.
         35    2    3    3    0    0 -0.53923790225E+02 -0.24852410507E+02 -0.98843883470E+03  0.12729387148E+04  0.79989763365E+03 0.  0.
         22    1    5    5    0    0 -0.33373729392E+02 -0.30805736811E+03 -0.78392387067E+02  0.31962245574E+03  0.00000000000E+00 0. -1.
         22    1    5    5    0    0 -0.20550060833E+02  0.28320495760E+03 -0.91004644763E+03  0.95331625910E+03  0.00000000000E+00 0. -1.
          5    1    4    4  502    0  0.66123866043E+02 -0.35630544213E+01 -0.11834227487E+03  0.13569099100E+03  0.47000000000E+01 0. -1.
         -5    1    4    4    0  502 -0.12200075818E+02  0.28415464929E+02 -0.38905952923E+03  0.39031485724E+03  0.47000000000E+01 0. -1.
<mgrwt>
<rscale>  0 0.99933094E+03</rscale>
<asrwt>0</asrwt>
<pdfrwt beam="1">  1        2 0.25344502E+00 0.99933094E+03</pdfrwt>
<pdfrwt beam="2">  1       -2 0.23315686E-01 0.99933094E+03</pdfrwt>
<totfact> 0.20297944E+02</totfact>
</mgrwt>
</event>
<event>
 9    1  0.4246427E-036  0.9993288E+03  0.7818608E-02  0.8681677E-01
         -2   -1    0    0    0  501 -0.00000000000E+00  0.00000000000E+00  0.14476135012E+03  0.14476135012E+03  0.00000000000E+00 0. -1.
          2   -1    0    0  501    0  0.00000000000E+00 -0.00000000000E+00 -0.17246627628E+04  0.17246627628E+04  0.00000000000E+00 0. -1.
         36    2    1    2    0    0  0.71054273576E-14 -0.14210854715E-13 -0.15799014127E+04  0.18694241129E+04  0.99932879483E+03 0.  0.
         25    2    3    3    0    0  0.11796404144E+02  0.64653792348E+02 -0.52860872396E+03  0.54709552161E+03  0.12476801954E+03 0.  0.
         35    2    3    3    0    0 -0.11796404144E+02 -0.64653792348E+02 -0.10512926887E+04  0.13223285913E+04  0.79938558783E+03 0.  0.
         22    1    5    5    0    0 -0.16705721100E+03  0.33121967363E+03 -0.41056909665E+03  0.55333675738E+03  0.00000000000E+00 0. -1.
         22    1    5    5    0    0  0.15526080686E+03 -0.39587346598E+03 -0.64072359210E+03  0.76899183395E+03  0.00000000000E+00 0. -1.
          5    1    4    4  502    0  0.22864600134E+02 -0.31631255691E+02 -0.22343144056E+03  0.22686344991E+03  0.47000000000E+01 0. -1.
         -5    1    4    4    0  502 -0.11068195990E+02  0.96285048039E+02 -0.30517728340E+03  0.32023207169E+03  0.47000000000E+01 0. -1.
<mgrwt>
<rscale>  0 0.99932879E+03</rscale>
<asrwt>0</asrwt>
<pdfrwt beam="1">  1        2 0.26533274E+00 0.99932879E+03</pdfrwt>
<pdfrwt beam="2">  1       -2 0.22270977E-01 0.99932879E+03</pdfrwt>
<totfact> 0.19900111E+02</totfact>
</mgrwt>
</event>
<event>
 9    1  0.4246427E-036  0.9971724E+03  0.7818608E-02  0.8683735E-01
         -2   -1    0    0    0  501 -0.00000000000E+00  0.00000000000E+00  0.13859420720E+04  0.13859420720E+04  0.00000000000E+00 0.  1.
          2   -1    0    0  501    0  0.00000000000E+00 -0.00000000000E+00 -0.17936404879E+03  0.17936404879E+03  0.00000000000E+00 0.  1.
         36    2    1    2    0    0  0.14210854715E-13  0.00000000000E+00  0.12065780232E+04  0.15653061208E+04  0.99717236510E+03 0.  0.
         25    2    3    3    0    0 -0.20471709274E+02 -0.10541900378E+03  0.93360827169E+02  0.19068108985E+03  0.12692823460E+03 0.  0.
         35    2    3    3    0    0  0.20471709274E+02  0.10541900378E+03  0.11132171961E+04  0.13746250310E+04  0.79925539904E+03 0.  0.
         22    1    5    5    0    0 -0.12834918949E+03 -0.15470792804E+03  0.10490596595E+04  0.10681452273E+04  0.00000000000E+00 0.  1.
         22    1    5    5    0    0  0.14882089876E+03  0.26012693182E+03  0.64157536608E+02  0.30647980369E+03  0.00000000000E+00 0.  1.
          5    1    4    4  502    0 -0.26563670260E+02 -0.13064068213E+03  0.55361134920E+02  0.14442839633E+03  0.47000000000E+01 0.  1.
         -5    1    4    4    0  502  0.60919609854E+01  0.25221678352E+02  0.37999692250E+02  0.46252693528E+02  0.47000000000E+01 0.  1.
<mgrwt>
<rscale>  0 0.99717237E+03</rscale>
<asrwt>0</asrwt>
<pdfrwt beam="1">  1        2 0.27594470E-01 0.99717237E+03</pdfrwt>
<pdfrwt beam="2">  1       -2 0.21322185E+00 0.99717237E+03</pdfrwt>
<totfact> 0.23135902E+01</totfact>
</mgrwt>
</event>
<event>
 9    1  0.4246427E-036  0.9994518E+03  0.7818608E-02  0.8681560E-01
         -1   -1    0    0    0  501 -0.00000000000E+00  0.00000000000E+00  0.61638905265E+03  0.61638905265E+03  0.00000000000E+00 0.  1.
          1   -1    0    0  501    0  0.00000000000E+00 -0.00000000000E+00 -0.40514341368E+03  0.40514341368E+03  0.00000000000E+00 0.  1.
         36    2    1    2    0    0  0.00000000000E+00  0.00000000000E+00  0.21124563897E+03  0.10215324663E+04  0.99945177962E+03 0.  0.
         25    2    3    3    0    0 -0.10788117818E+03 -0.61632941044E+02 -0.25663075291E+02  0.17811298275E+03  0.12501469178E+03 0.  0.
         35    2    3    3    0    0  0.10788117818E+03  0.61632941044E+02  0.23690871426E+03  0.84341948358E+03  0.79987106359E+03 0.  0.
         22    1    5    5    0    0 -0.18464423929E+00  0.21429688208E+03  0.48645050419E+03  0.53156117314E+03  0.00000000000E+00 0.  1.
         22    1    5    5    0    0  0.10806582242E+03 -0.15266394103E+03 -0.24954178993E+03  0.31185831044E+03  0.00000000000E+00 0.  1.
          5    1    4    4  502    0 -0.48982784953E+02 -0.77723283329E+02  0.28557221634E+02  0.96321476840E+02  0.47000000000E+01 0.  1.
         -5    1    4    4    0  502 -0.58898393228E+02  0.16090342284E+02 -0.54220296925E+02  0.81791505906E+02  0.47000000000E+01 0.  1.
<mgrwt>
<rscale>  0 0.99945178E+03</rscale>
<asrwt>0</asrwt>
<pdfrwt beam="1">  1        1 0.62329756E-01 0.99945178E+03</pdfrwt>
<pdfrwt beam="2">  1       -1 0.94829085E-01 0.99945178E+03</pdfrwt>
<totfact> 0.75742167E+01</totfact>
</mgrwt>
</event>
<event>
 9    1  0.4246427E-036  0.9997027E+03  0.7818608E-02  0.8681321E-01
          2   -1    0    0  501    0  0.00000000000E+00  0.00000000000E+00  0.11411351284E+04  0.11411351284E+04  0.00000000000E+00 0. -1.
         -2   -1    0    0    0  501 -0.00000000000E+00 -0.00000000000E+00 -0.21894983791E+03  0.21894983791E+03  0.00000000000E+00 0. -1.
         36    2    1    2    0    0  0.00000000000E+00 -0.71054273576E-14  0.92218529050E+03  0.13600849663E+04  0.99970265858E+03 0.  0.
         25    2    3    3    0    0 -0.62009617912E+02  0.40001634355E+02  0.13665724979E+02  0.14725128750E+03  0.12669201303E+03 0.  0.
         35    2    3    3    0    0  0.62009617912E+02 -0.40001634355E+02  0.90851956552E+03  0.12128336788E+04  0.80007025196E+03 0.  0.
         22    1    5    5    0    0 -0.36904308606E+03 -0.48436286365E+02  0.43152017655E+03  0.56986712134E+03  0.00000000000E+00 0.  1.
         22    1    5    5    0    0  0.43105270398E+03  0.84346520097E+01  0.47699938897E+03  0.64296655748E+03  0.00000000000E+00 0.  1.
          5    1    4    4  502    0  0.65586262781E+01  0.66436726992E+02  0.27448078022E+02  0.72334924201E+02  0.47000000000E+01 0. -1.
         -5    1    4    4    0  502 -0.68568244190E+02 -0.26435092637E+02 -0.13782353043E+02  0.74916363296E+02  0.47000000000E+01 0. -1.
<mgrwt>
<rscale>  0 0.99970266E+03</rscale>
<asrwt>0</asrwt>
<pdfrwt beam="1">  1        2 0.17555925E+00 0.99970266E+03</pdfrwt>
<pdfrwt beam="2">  1       -2 0.33684591E-01 0.99970266E+03</pdfrwt>
<totfact> 0.20429444E+02</totfact>
</mgrwt>
</event>
<event>
 9    1  0.4246427E-036  0.1001239E+04  0.7818608E-02  0.8679859E-01
          1   -1    0    0  501    0  0.00000000000E+00  0.00000000000E+00  0.43258089816E+03  0.43258089816E+03  0.00000000000E+00 0. -1.
         -1   -1    0    0    0  501 -0.00000000000E+00 -0.00000000000E+00 -0.57935943921E+03  0.57935943921E+03  0.00000000000E+00 0. -1.
         36    2    1    2    0    0  0.00000000000E+00 -0.71054273576E-14 -0.14677854106E+03  0.10119403374E+04  0.10012388857E+04 0.  0.
         25    2    3    3    0    0  0.11799043041E+03 -0.30487228979E+02  0.48366660482E+02  0.17964914308E+03  0.12281395671E+03 0.  0.
         35    2    3    3    0    0 -0.11799043041E+03  0.30487228979E+02 -0.19514520154E+03  0.83229119429E+03  0.79985984373E+03 0.  0.
         22    1    5    5    0    0  0.32728514174E+03 -0.25100471277E+02  0.31162749372E+02  0.32972217792E+03  0.00000000000E+00 0.  1.
         22    1    5    5    0    0 -0.44527557215E+03  0.55587700257E+02 -0.22630795091E+03  0.50256901637E+03  0.00000000000E+00 0.  1.
          5    1    4    4  502    0  0.95129030653E+02 -0.55962051269E+02 -0.10943424241E+02  0.11100960404E+03  0.47000000000E+01 0.  1.
         -5    1    4    4    0  502  0.22861399759E+02  0.25474822290E+02  0.59310084723E+02  0.68639539039E+02  0.47000000000E+01 0.  1.
<mgrwt>
<rscale>  0 0.10012389E+04</rscale>
<asrwt>0</asrwt>
<pdfrwt beam="1">  1        1 0.66550908E-01 0.10012389E+04</pdfrwt>
<pdfrwt beam="2">  1       -1 0.89132221E-01 0.10012389E+04</pdfrwt>
<totfact> 0.79269623E+01</totfact>
</mgrwt>
</event>
<event>
 9    1  0.4246427E-036  0.9991329E+03  0.7818608E-02  0.8681864E-01
         -2   -1    0    0    0  501 -0.00000000000E+00  0.00000000000E+00  0.61935563817E+03  0.61935563817E+03  0.00000000000E+00 0. -1.
          2   -1    0    0  501    0  0.00000000000E+00 -0.00000000000E+00 -0.40294558038E+03  0.40294558038E+03  0.00000000000E+00 0. -1.
         36    2    1    2    0    0 -0.14210854715E-13  0.14210854715E-13  0.21641005779E+03  0.10223012186E+04  0.99913285820E+03 0.  0.
         25    2    3    3    0    0  0.50322777991E+02 -0.87994278918E+02 -0.55181523799E+02  0.17039225225E+03  0.12535207997E+03 0.  0.
         35    2    3    3    0    0 -0.50322777991E+02  0.87994278918E+02  0.27159158159E+03  0.85190896630E+03  0.80106898864E+03 0.  0.
         22    1    5    5    0    0  0.22848197673E+03 -0.25290614685E+03  0.22646936064E+03  0.40921131963E+03  0.00000000000E+00 0.  1.
         22    1    5    5    0    0 -0.27880475472E+03  0.34090042577E+03  0.45122220948E+02  0.44269764667E+03  0.00000000000E+00 0.  1.
          5    1    4    4  502    0  0.82603767085E+02 -0.32617368672E+02 -0.57801715888E+02  0.10606791897E+03  0.47000000000E+01 0.  1.
         -5    1    4    4    0  502 -0.32280989094E+02 -0.55376910246E+02  0.26201920895E+01  0.64324333280E+02  0.47000000000E+01 0.  1.
<mgrwt>
<rscale>  0 0.99913286E+03</rscale>
<asrwt>0</asrwt>
<pdfrwt beam="1">  1        2 0.61991628E-01 0.99913286E+03</pdfrwt>
<pdfrwt beam="2">  1       -2 0.95285482E-01 0.99913286E+03</pdfrwt>
<totfact> 0.86980115E+01</totfact>
</mgrwt>
</event>
<event>
 9    1  0.4246427E-036  0.9993967E+03  0.7818608E-02  0.8681613E-01
         -1   -1    0    0    0  501 -0.00000000000E+00  0.00000000000E+00  0.39583691364E+03  0.39583691364E+03  0.00000000000E+00 0.  1.
          1   -1    0    0  501    0  0.00000000000E+00 -0.00000000000E+00 -0.63081139618E+03  0.63081139618E+03  0.00000000000E+00 0.  1.
         36    2    1    2    0    0 -0.28421709430E-13  0.21316282073E-13 -0.23497448255E+03  0.10266483098E+04  0.99939669032E+03 0.  0.
         25    2    3    3    0    0  0.90646609557E+02  0.37382628859E+02 -0.14510004942E+03  0.21562809709E+03  0.12580613319E+03 0.  0.
         35    2    3    3    0    0 -0.90646609557E+02 -0.37382628859E+02 -0.89874433128E+02  0.81102021273E+03  0.80003881341E+03 0.  0.
         22    1    5    5    0    0 -0.31965831475E+03  0.23324494223E+03  0.10098139371E+03  0.40838937687E+03  0.00000000000E+00 0. -1.
         22    1    5    5    0    0  0.22901170519E+03 -0.27062757109E+03 -0.19085582684E+03  0.40263083586E+03  0.00000000000E+00 0. -1.
          5    1    4    4  502    0  0.69111855871E+02  0.13358578574E+02 -0.38377003215E+01  0.70652092589E+02  0.47000000000E+01 0.  1.
         -5    1    4    4    0  502  0.21534753686E+02  0.24024050285E+02 -0.14126234910E+03  0.14497600450E+03  0.47000000000E+01 0.  1.
<mgrwt>
<rscale>  0 0.99939669E+03</rscale>
<asrwt>0</asrwt>
<pdfrwt beam="1">  1        1 0.97047906E-01 0.99939669E+03</pdfrwt>
<pdfrwt beam="2">  1       -1 0.60897987E-01 0.99939669E+03</pdfrwt>
<totfact> 0.10090809E+02</totfact>
</mgrwt>
</event>
<event>
 9    1  0.4246427E-036  0.9983105E+03  0.7818608E-02  0.8682649E-01
          1   -1    0    0  501    0  0.00000000000E+00  0.00000000000E+00  0.44395544598E+03  0.44395544598E+03  0.00000000000E+00 0. -1.
         -1   -1    0    0    0  501 -0.00000000000E+00 -0.00000000000E+00 -0.56121841692E+03  0.56121841692E+03  0.00000000000E+00 0. -1.
         36    2    1    2    0    0  0.28421709430E-13 -0.35527136788E-14 -0.11726297094E+03  0.10051738629E+04  0.99831051798E+03 0.  0.
         25    2    3    3    0    0 -0.12937570838E+03 -0.13553303026E+02  0.75181423037E+00  0.18659864586E+03  0.13377863607E+03 0.  0.
         35    2    3    3    0    0  0.12937570838E+03  0.13553303026E+02 -0.11801478517E+03  0.81857521705E+03  0.79950993146E+03 0.  0.
         22    1    5    5    0    0 -0.21716386315E+03  0.46264780746E+02 -0.33974928884E+03  0.40586962521E+03  0.00000000000E+00 0.  1.
         22    1    5    5    0    0  0.34653957153E+03 -0.32711477720E+02  0.22173450368E+03  0.41270559184E+03  0.00000000000E+00 0.  1.
          5    1    4    4  502    0 -0.93685690345E+02 -0.20809327420E+02  0.62594868755E+02  0.11467451451E+03  0.47000000000E+01 0. -1.
         -5    1    4    4    0  502 -0.35690018034E+02  0.72560243936E+01 -0.61843054524E+02  0.71924131348E+02  0.47000000000E+01 0. -1.
<mgrwt>
<rscale>  0 0.99831052E+03</rscale>
<asrwt>0</asrwt>
<pdfrwt beam="1">  1        1 0.68300838E-01 0.99831052E+03</pdfrwt>
<pdfrwt beam="2">  1       -1 0.86341295E-01 0.99831052E+03</pdfrwt>
<totfact> 0.81936327E+01</totfact>
</mgrwt>
</event>
<event>
 9    1  0.4246427E-036  0.1000286E+04  0.7818608E-02  0.8680765E-01
         -2   -1    0    0    0  501 -0.00000000000E+00  0.00000000000E+00  0.68053513758E+03  0.68053513758E+03  0.00000000000E+00 0. -1.
          2   -1    0    0  501    0  0.00000000000E+00 -0.00000000000E+00 -0.36756823850E+03  0.36756823850E+03  0.00000000000E+00 0. -1.
         36    2    1    2    0    0  0.00000000000E+00 -0.10658141036E-13  0.31296689908E+03  0.10481033761E+04  0.10002861626E+04 0.  0.
         25    2    3    3    0    0 -0.80902506648E+02 -0.31089995752E+02 -0.56931938949E+02  0.16235573342E+03  0.12492531802E+03 0.  0.
         35    2    3    3    0    0  0.80902506648E+02  0.31089995752E+02  0.36989883803E+03  0.88574764267E+03  0.80013244697E+03 0.  0.
         22    1    5    5    0    0 -0.16787024030E+03 -0.31884777900E+03  0.84259000752E+02  0.37005932357E+03  0.00000000000E+00 0. -1.
         22    1    5    5    0    0  0.24877274695E+03  0.34993777475E+03  0.28563983728E+03  0.51568831910E+03  0.00000000000E+00 0. -1.
          5    1    4    4  502    0  0.29665382180E+02  0.11965906979E+02 -0.48691328456E+01  0.32695814478E+02  0.47000000000E+01 0. -1.
         -5    1    4    4    0  502 -0.11056788883E+03 -0.43055902731E+02 -0.52062806103E+02  0.12965991894E+03  0.47000000000E+01 0. -1.
<mgrwt>
<rscale>  0 0.10002862E+04</rscale>
<asrwt>0</asrwt>
<pdfrwt beam="1">  1        2 0.56548960E-01 0.10002862E+04</pdfrwt>
<pdfrwt beam="2">  1       -2 0.10469771E+00 0.10002862E+04</pdfrwt>
<totfact> 0.76641151E+01</totfact>
</mgrwt>
</event>
<event>
 9    1  0.4246427E-036  0.9908890E+03  0.7818608E-02  0.8689763E-01
          4   -1    0    0  501    0  0.00000000000E+00  0.00000000000E+00  0.87787108315E+03  0.87787108315E+03  0.00000000000E+00 0.  1.
         -4   -1    0    0    0  501 -0.00000000000E+00 -0.00000000000E+00 -0.27961424380E+03  0.27961424380E+03  0.00000000000E+00 0.  1.
         36    2    1    2    0    0  0.00000000000E+00  0.35527136788E-13  0.59825683935E+03  0.11574853270E+04  0.99088901310E+03 0.  0.
         25    2    3    3    0    0 -0.96569466637E+02  0.52378290361E+02  0.43561215328E+02  0.17177754980E+03  0.12466274483E+03 0.  0.
         35    2    3    3    0    0  0.96569466637E+02 -0.52378290361E+02  0.55469562402E+03  0.98570777715E+03  0.80738060382E+03 0.  0.
         22    1    5    5    0    0  0.96865592774E+02  0.37431165935E+03  0.29348078803E+03  0.48541027423E+03  0.00000000000E+00 0. -1.
         22    1    5    5    0    0 -0.29612613702E+00 -0.42668994971E+03  0.26121483600E+03  0.50029750291E+03  0.00000000000E+00 0. -1.
          5    1    4    4  502    0 -0.37917480750E+02  0.88924253158E+02  0.22282406924E+02  0.99316936142E+02  0.47000000000E+01 0. -1.
         -5    1    4    4    0  502 -0.58651985887E+02 -0.36545962798E+02  0.21278808403E+02  0.72460613663E+02  0.47000000000E+01 0. -1.
<mgrwt>
<rscale>  0 0.99088901E+03</rscale>
<asrwt>0</asrwt>
<pdfrwt beam="1">  1        4 0.13505709E+00 0.99088901E+03</pdfrwt>
<pdfrwt beam="2">  1       -4 0.43017577E-01 0.99088901E+03</pdfrwt>
<totfact> 0.42893022E+00</totfact>
</mgrwt>
</event>
<event>
 9    1  0.4246427E-036  0.1000691E+04  0.7818608E-02  0.8680380E-01
          2   -1    0    0  501    0  0.00000000000E+00  0.00000000000E+00  0.23068289852E+04  0.23068289852E+04  0.00000000000E+00 0.  1.
         -2   -1    0    0    0  501 -0.00000000000E+00 -0.00000000000E+00 -0.10852378882E+03  0.10852378882E+03  0.00000000000E+00 0.  1.
         36    2    1    2    0    0  0.42632564146E-13  0.14210854715E-13  0.21983051964E+04  0.24153527741E+04  0.10006914043E+04 0.  0.
         25    2    3    3    0    0 -0.27522760813E+02 -0.60497963481E+02  0.11439144817E+03  0.18213795682E+03  0.12518516666E+03 0.  0.
         35    2    3    3    0    0  0.27522760813E+02  0.60497963481E+02  0.20839137483E+04  0.22332148173E+04  0.80008399800E+03 0.  0.
         22    1    5    5    0    0  0.37609802449E+03  0.93749449189E+02  0.64671946226E+03  0.75397927432E+03  0.00000000000E+00 0. -1.
         22    1    5    5    0    0 -0.34857526367E+03 -0.33251485707E+02  0.14371942860E+04  0.14792355429E+04  0.00000000000E+00 0. -1.
          5    1    4    4  502    0  0.43624721495E+02  0.46738966243E+01  0.26088160300E+02  0.51260547627E+02  0.47000000000E+01 0. -1.
         -5    1    4    4    0  502 -0.71147482308E+02 -0.65171860105E+02  0.88303287866E+02  0.13087740919E+03  0.47000000000E+01 0. -1.
<mgrwt>
<rscale>  0 0.10006914E+04</rscale>
<asrwt>0</asrwt>
<pdfrwt beam="1">  1        2 0.35489673E+00 0.10006914E+04</pdfrwt>
<pdfrwt beam="2">  1       -2 0.16695969E-01 0.10006914E+04</pdfrwt>
<totfact> 0.15173049E+02</totfact>
</mgrwt>
</event>
<event>
 9    1  0.4246427E-036  0.9993453E+03  0.7818608E-02  0.8681662E-01
         -2   -1    0    0    0  501 -0.00000000000E+00  0.00000000000E+00  0.15791267080E+03  0.15791267080E+03  0.00000000000E+00 0. -1.
          2   -1    0    0  501    0  0.00000000000E+00 -0.00000000000E+00 -0.15810813654E+04  0.15810813654E+04  0.00000000000E+00 0. -1.
         36    2    1    2    0    0  0.14210854715E-13  0.00000000000E+00 -0.14231686946E+04  0.17389940362E+04  0.99934534804E+03 0.  0.
         25    2    3    3    0    0  0.10319287924E+03  0.46185400489E+02 -0.43624592485E+03  0.46738720071E+03  0.12392912043E+03 0.  0.
         35    2    3    3    0    0 -0.10319287924E+03 -0.46185400489E+02 -0.98692276975E+03  0.12716068355E+04  0.79384225705E+03 0.  0.
         22    1    5    5    0    0 -0.20277503224E+03 -0.38648067319E+03 -0.43952208415E+03  0.61940672171E+03  0.00000000000E+00 0. -1.
         22    1    5    5    0    0  0.99582153001E+02  0.34029527270E+03 -0.54740068561E+03  0.65220011379E+03  0.00000000000E+00 0. -1.
          5    1    4    4  502    0  0.84613706616E+02  0.27902895931E+02 -0.43131460528E+03  0.44044571706E+03  0.47000000000E+01 0.  1.
         -5    1    4    4    0  502  0.18579172621E+02  0.18282504558E+02 -0.49313195667E+01  0.26941483643E+02  0.47000000000E+01 0.  1.
<mgrwt>
<rscale>  0 0.99934535E+03</rscale>
<asrwt>0</asrwt>
<pdfrwt beam="1">  1        2 0.24324329E+00 0.99934535E+03</pdfrwt>
<pdfrwt beam="2">  1       -2 0.24294257E-01 0.99934535E+03</pdfrwt>
<totfact> 0.20574662E+02</totfact>
</mgrwt>
</event>
<event>
 9    1  0.4246427E-036  0.9999667E+03  0.7818608E-02  0.8681070E-01
         -2   -1    0    0    0  501 -0.00000000000E+00  0.00000000000E+00  0.97498754962E+02  0.97498754962E+02  0.00000000000E+00 0. -1.
          2   -1    0    0  501    0  0.00000000000E+00 -0.00000000000E+00 -0.25639644514E+04  0.25639644514E+04  0.00000000000E+00 0. -1.
         36    2    1    2    0    0  0.00000000000E+00  0.28421709430E-13 -0.24664656964E+04  0.26614632064E+04  0.99996668300E+03 0.  0.
         25    2    3    3    0    0 -0.66089397372E+02  0.84820394506E+02 -0.71768101490E+03  0.73634579162E+03  0.12480696259E+03 0.  0.
         35    2    3    3    0    0  0.66089397372E+02 -0.84820394506E+02 -0.17487846815E+04  0.19251174147E+04  0.79766339418E+03 0.  0.
         22    1    5    5    0    0  0.23410587956E+03  0.29840493403E+03 -0.70425268331E+03  0.79988931075E+03  0.00000000000E+00 0.  1.
         22    1    5    5    0    0 -0.16801648219E+03 -0.38322532853E+03 -0.10445319982E+04  0.11252281040E+04  0.00000000000E+00 0.  1.
          5    1    4    4  502    0 -0.10067328244E+03  0.81590699547E+02 -0.56036559213E+03  0.57517287740E+03  0.47000000000E+01 0. -1.
         -5    1    4    4    0  502  0.34583885068E+02  0.32296949592E+01 -0.15731542277E+03  0.16117291422E+03  0.47000000000E+01 0. -1.
<mgrwt>
<rscale>  0 0.99996668E+03</rscale>
<asrwt>0</asrwt>
<pdfrwt beam="1">  1        2 0.39445606E+00 0.99996668E+03</pdfrwt>
<pdfrwt beam="2">  1       -2 0.14999809E-01 0.99996668E+03</pdfrwt>
<totfact> 0.12726064E+02</totfact>
</mgrwt>
</event>
<event>
 9    1  0.4246427E-036  0.1000667E+04  0.7818608E-02  0.8680403E-01
         -1   -1    0    0    0  501 -0.00000000000E+00  0.00000000000E+00  0.23451045086E+03  0.23451045086E+03  0.00000000000E+00 0.  1.
          1   -1    0    0  501    0  0.00000000000E+00 -0.00000000000E+00 -0.10674724231E+04  0.10674724231E+04  0.00000000000E+00 0.  1.
         36    2    1    2    0    0  0.28421709430E-13  0.00000000000E+00 -0.83296197223E+03  0.13019828740E+04  0.10006666562E+04 0.  0.
         25    2    3    3    0    0  0.12094965901E+03  0.69261904647E+02 -0.12866415936E+03  0.22737818155E+03  0.12538078039E+03 0.  0.
         35    2    3    3    0    0 -0.12094965901E+03 -0.69261904647E+02 -0.70429781287E+03  0.10746046924E+04  0.79957101266E+03 0.  0.
         22    1    5    5    0    0  0.24103735010E+03 -0.18210790267E+03 -0.61480740829E+03  0.68501857029E+03  0.00000000000E+00 0.  1.
         22    1    5    5    0    0 -0.36198700911E+03  0.11284599802E+03 -0.89490404580E+02  0.38958612211E+03  0.00000000000E+00 0.  1.
          5    1    4    4  502    0  0.40033724936E+02 -0.17275225600E+02 -0.94193325937E+02  0.10390190182E+03  0.47000000000E+01 0. -1.
         -5    1    4    4    0  502  0.80915934073E+02  0.86537130246E+02 -0.34470833423E+02  0.12347627973E+03  0.47000000000E+01 0. -1.
<mgrwt>
<rscale>  0 0.10006667E+04</rscale>
<asrwt>0</asrwt>
<pdfrwt beam="1">  1        1 0.16422653E+00 0.10006667E+04</pdfrwt>
<pdfrwt beam="2">  1       -1 0.36078531E-01 0.10006667E+04</pdfrwt>
<totfact> 0.10979008E+02</totfact>
</mgrwt>
</event>
<event>
 9    1  0.4246427E-036  0.1000285E+04  0.7818608E-02  0.8680767E-01
          1   -1    0    0  501    0  0.00000000000E+00  0.00000000000E+00  0.11147272758E+04  0.11147272758E+04  0.00000000000E+00 0.  1.
         -1   -1    0    0    0  501 -0.00000000000E+00 -0.00000000000E+00 -0.22439781820E+03  0.22439781820E+03  0.00000000000E+00 0.  1.
         36    2    1    2    0    0  0.00000000000E+00  0.00000000000E+00  0.89032945759E+03  0.13391250940E+04  0.10002846966E+04 0.  0.
         25    2    3    3    0    0 -0.22154556139E+02 -0.13735317582E+03  0.19258073192E+03  0.26876956412E+03  0.12567028697E+03 0.  0.
         35    2    3    3    0    0  0.22154556139E+02  0.13735317582E+03  0.69774872568E+03  0.10703555299E+04  0.79965677443E+03 0.  0.
         22    1    5    5    0    0 -0.11345827365E+03  0.21592324563E+03 -0.95370284308E+02  0.26189906261E+03  0.00000000000E+00 0.  1.
         22    1    5    5    0    0  0.13561282979E+03 -0.78570069815E+02  0.79311900999E+03  0.80845646727E+03  0.00000000000E+00 0.  1.
          5    1    4    4  502    0 -0.33691701731E+02  0.11811061110E+02  0.23737025863E+02  0.43129668754E+02  0.47000000000E+01 0.  1.
         -5    1    4    4    0  502  0.11537145592E+02 -0.14916423693E+03  0.16884370605E+03  0.22563989536E+03  0.47000000000E+01 0.  1.
<mgrwt>
<rscale>  0 0.10002847E+04</rscale>
<asrwt>0</asrwt>
<pdfrwt beam="1">  1        1 0.17149650E+00 0.10002847E+04</pdfrwt>
<pdfrwt beam="2">  1       -1 0.34522742E-01 0.10002847E+04</pdfrwt>
<totfact> 0.10905526E+02</totfact>
</mgrwt>
</event>
<event>
 9    1  0.4246427E-036  0.9988701E+03  0.7818608E-02  0.8682115E-01
          1   -1    0    0  501    0  0.00000000000E+00  0.00000000000E+00  0.91819723202E+03  0.91819723202E+03  0.00000000000E+00 0.  1.
         -1   -1    0    0    0  501 -0.00000000000E+00 -0.00000000000E+00 -0.27165774256E+03  0.27165774256E+03  0.00000000000E+00 0.  1.
         36    2    1    2    0    0 -0.14210854715E-13  0.21316282073E-13  0.64653948946E+03  0.11898549746E+04  0.99887013625E+03 0.  0.
         25    2    3    3    0    0  0.11701145240E+03  0.10944007659E+02  0.31593693001E+02  0.17489551238E+03  0.12561380305E+03 0.  0.
         35    2    3    3    0    0 -0.11701145240E+03 -0.10944007659E+02  0.61494579646E+03  0.10149594622E+04  0.79885726261E+03 0.  0.
         22    1    5    5    0    0  0.24935833364E+03 -0.13722005761E+03 -0.40693957797E+01  0.28464975452E+03  0.00000000000E+00 0.  1.
         22    1    5    5    0    0 -0.36636978603E+03  0.12627604995E+03  0.61901519224E+03  0.73030970768E+03  0.00000000000E+00 0.  1.
          5    1    4    4  502    0  0.80950592923E+02  0.66176881284E+02  0.29462758067E+02  0.10873142243E+03  0.47000000000E+01 0.  1.
         -5    1    4    4    0  502  0.36060859473E+02 -0.55232873625E+02  0.21309349342E+01  0.66164089947E+02  0.47000000000E+01 0.  1.
<mgrwt>
<rscale>  0 0.99887014E+03</rscale>
<asrwt>0</asrwt>
<pdfrwt beam="1">  1        1 0.14126111E+00 0.99887014E+03</pdfrwt>
<pdfrwt beam="2">  1       -1 0.41793499E-01 0.99887014E+03</pdfrwt>
<totfact> 0.11132488E+02</totfact>
</mgrwt>
</event>
<event>
 9    1  0.4246427E-036  0.9999004E+03  0.7818608E-02  0.8681133E-01
          2   -1    0    0  501    0  0.00000000000E+00  0.00000000000E+00  0.14383697028E+04  0.14383697028E+04  0.00000000000E+00 0.  1.
         -2   -1    0    0    0  501 -0.00000000000E+00 -0.00000000000E+00 -0.17377325477E+03  0.17377325477E+03  0.00000000000E+00 0.  1.
         36    2    1    2    0    0 -0.28421709430E-13 -0.71054273576E-14  0.12645964481E+04  0.16121429576E+04  0.99990036469E+03 0.  0.
         25    2    3    3    0    0  0.11967215166E+03  0.58320156521E+02  0.25807792161E+03  0.31636487329E+03  0.12553826067E+03 0.  0.
         35    2    3    3    0    0 -0.11967215166E+03 -0.58320156521E+02  0.10065185265E+04  0.12957780843E+04  0.80513268171E+03 0.  0.
         22    1    5    5    0    0 -0.22137951293E+03 -0.39681075626E+03  0.65599760862E+03  0.79799782427E+03  0.00000000000E+00 0.  1.
         22    1    5    5    0    0  0.10170736127E+03  0.33849059974E+03  0.35052091784E+03  0.49778026004E+03  0.00000000000E+00 0.  1.
          5    1    4    4  502    0  0.10393749112E+03 -0.17352068861E+02  0.14454938565E+03  0.17894331853E+03  0.47000000000E+01 0. -1.
         -5    1    4    4    0  502  0.15734660533E+02  0.75672225382E+02  0.11352853596E+03  0.13742155476E+03  0.47000000000E+01 0. -1.
<mgrwt>
<rscale>  0 0.99990036E+03</rscale>
<asrwt>0</asrwt>
<pdfrwt beam="1">  1        2 0.22128764E+00 0.99990036E+03</pdfrwt>
<pdfrwt beam="2">  1       -2 0.26734348E-01 0.99990036E+03</pdfrwt>
<totfact> 0.20902381E+02</totfact>
</mgrwt>
</event>
<event>
 9    1  0.4246427E-036  0.9998576E+03  0.7818608E-02  0.8681174E-01
          2   -1    0    0  501    0  0.00000000000E+00  0.00000000000E+00  0.17227712843E+03  0.17227712843E+03  0.00000000000E+00 0. -1.
         -2   -1    0    0    0  501 -0.00000000000E+00 -0.00000000000E+00 -0.14507370049E+04  0.14507370049E+04  0.00000000000E+00 0. -1.
         36    2    1    2    0    0  0.00000000000E+00  0.14210854715E-13 -0.12784598765E+04  0.16230141334E+04  0.99985760049E+03 0.  0.
         25    2    3    3    0    0  0.88546874995E+02  0.64095351072E+02 -0.96050841837E+02  0.19223511849E+03  0.12561772750E+03 0.  0.
         35    2    3    3    0    0 -0.88546874995E+02 -0.64095351072E+02 -0.11824090347E+04  0.14307790149E+04  0.79817836418E+03 0.  0.
         22    1    5    5    0    0 -0.90581603423E+02 -0.18065822202E+03 -0.12693576612E+04  0.12853448144E+04  0.00000000000E+00 0. -1.
         22    1    5    5    0    0  0.20347284274E+01  0.11656287094E+03  0.86948626505E+02  0.14543420043E+03  0.00000000000E+00 0. -1.
          5    1    4    4  502    0  0.19123929810E+02  0.35912014342E+02  0.26310187956E+02  0.48679702708E+02  0.47000000000E+01 0. -1.
         -5    1    4    4    0  502  0.69422945185E+02  0.28183336730E+02 -0.12236102979E+03  0.14355541578E+03  0.47000000000E+01 0. -1.
<mgrwt>
<rscale>  0 0.99985760E+03</rscale>
<asrwt>0</asrwt>
<pdfrwt beam="1">  1        2 0.26504174E-01 0.99985760E+03</pdfrwt>
<pdfrwt beam="2">  1       -2 0.22319031E+00 0.99985760E+03</pdfrwt>
<totfact> 0.20851626E+01</totfact>
</mgrwt>
</event>
<event>
 9    1  0.4246427E-036  0.9994090E+03  0.7818608E-02  0.8681601E-01
          2   -1    0    0  501    0  0.00000000000E+00  0.00000000000E+00  0.74421073433E+03  0.74421073433E+03  0.00000000000E+00 0. -1.
         -2   -1    0    0    0  501 -0.00000000000E+00 -0.00000000000E+00 -0.33552943788E+03  0.33552943788E+03  0.00000000000E+00 0. -1.
         36    2    1    2    0    0  0.14210854715E-13  0.14210854715E-13  0.40868129645E+03  0.10797401722E+04  0.99940904409E+03 0.  0.
         25    2    3    3    0    0 -0.11084461856E+02  0.32982162974E+02  0.22287309335E+03  0.25788448912E+03  0.12498522161E+03 0.  0.
         35    2    3    3    0    0  0.11084461856E+02 -0.32982162974E+02  0.18580820310E+03  0.82185568308E+03  0.79981959660E+03 0.  0.
         22    1    5    5    0    0  0.17283655205E+03  0.26046530955E+03  0.33224360807E+03  0.45618030021E+03  0.00000000000E+00 0. -1.
         22    1    5    5    0    0 -0.16175209019E+03 -0.29344747252E+03 -0.14643540496E+03  0.36567538287E+03  0.00000000000E+00 0. -1.
          5    1    4    4  502    0 -0.52715827416E+02  0.49735911514E+02  0.79971302543E+02  0.10802832307E+03  0.47000000000E+01 0.  1.
         -5    1    4    4    0  502  0.41631365560E+02 -0.16753748540E+02  0.14290179081E+03  0.14985616605E+03  0.47000000000E+01 0.  1.
<mgrwt>
<rscale>  0 0.99940904E+03</rscale>
<asrwt>0</asrwt>
<pdfrwt beam="1">  1        2 0.11449396E+00 0.99940904E+03</pdfrwt>
<pdfrwt beam="2">  1       -2 0.51619914E-01 0.99940904E+03</pdfrwt>
<totfact> 0.16252294E+02</totfact>
</mgrwt>
</event>
<event>
 9    1  0.4246427E-036  0.9946801E+03  0.7818608E-02  0.8686121E-01
         -2   -1    0    0    0  501 -0.00000000000E+00  0.00000000000E+00  0.96036628720E+02  0.96036628720E+02  0.00000000000E+00 0. -1.
          2   -1    0    0  501    0  0.00000000000E+00 -0.00000000000E+00 -0.25755497865E+04  0.25755497865E+04  0.00000000000E+00 0. -1.
         36    2    1    2    0    0  0.21316282073E-13  0.00000000000E+00 -0.24795131578E+04  0.26715864152E+04  0.99468008645E+03 0.  0.
         25    2    3    3    0    0  0.42669491864E+02  0.12618166336E+03 -0.41956068162E+03  0.45795712955E+03  0.12629754249E+03 0.  0.
         35    2    3    3    0    0 -0.42669491864E+02 -0.12618166336E+03 -0.20599524761E+04  0.22136292856E+04  0.79937970492E+03 0.  0.
         22    1    5    5    0    0  0.37061214872E+03 -0.14056461627E+03 -0.10469018891E+04  0.11194263448E+04  0.00000000000E+00 0. -1.
         22    1    5    5    0    0 -0.41328164058E+03  0.14382952910E+02 -0.10130505871E+04  0.10942029408E+04  0.00000000000E+00 0. -1.
          5    1    4    4  502    0  0.78572001450E+02  0.58073993420E+02 -0.16345981327E+03  0.19049238483E+03  0.47000000000E+01 0.  1.
         -5    1    4    4    0  502 -0.35902509586E+02  0.68107669936E+02 -0.25610086835E+03  0.26746474472E+03  0.47000000000E+01 0.  1.
<mgrwt>
<rscale>  0 0.99468009E+03</rscale>
<asrwt>0</asrwt>
<pdfrwt beam="1">  1        2 0.39623846E+00 0.99468009E+03</pdfrwt>
<pdfrwt beam="2">  1       -2 0.14774865E-01 0.99468009E+03</pdfrwt>
<totfact> 0.12841393E+02</totfact>
</mgrwt>
</event>
<event>
 9    1  0.4246427E-036  0.1000347E+04  0.7818608E-02  0.8680707E-01
          1   -1    0    0  501    0  0.00000000000E+00  0.00000000000E+00  0.95075727560E+03  0.95075727560E+03  0.00000000000E+00 0. -1.
         -1   -1    0    0    0  501 -0.00000000000E+00 -0.00000000000E+00 -0.26313091629E+03  0.26313091629E+03  0.00000000000E+00 0. -1.
         36    2    1    2    0    0  0.71054273576E-14 -0.14210854715E-13  0.68762635932E+03  0.12138881919E+04  0.10003472059E+04 0.  0.
         25    2    3    3    0    0 -0.40153270955E+02  0.13104090425E+02  0.29009267793E+03  0.31933018853E+03  0.12662545229E+03 0.  0.
         35    2    3    3    0    0  0.40153270955E+02 -0.13104090425E+02  0.39753368139E+03  0.89455800335E+03  0.80026057704E+03 0.  0.
         22    1    5    5    0    0  0.32952040174E+03  0.15062311055E+03  0.42791418420E+03  0.56069739221E+03  0.00000000000E+00 0. -1.
         22    1    5    5    0    0 -0.28936713079E+03 -0.16372720097E+03 -0.30380502810E+02  0.33386061114E+03  0.00000000000E+00 0. -1.
          5    1    4    4  502    0 -0.35082974853E+02  0.40437056576E+02  0.38367982653E+02  0.66031528545E+02  0.47000000000E+01 0.  1.
         -5    1    4    4    0  502 -0.50702961018E+01 -0.27332966152E+02  0.25172469528E+03  0.25329865999E+03  0.47000000000E+01 0.  1.
<mgrwt>
<rscale>  0 0.10003472E+04</rscale>
<asrwt>0</asrwt>
<pdfrwt beam="1">  1        1 0.14627035E+00 0.10003472E+04</pdfrwt>
<pdfrwt beam="2">  1       -1 0.40481680E-01 0.10003472E+04</pdfrwt>
<totfact> 0.11082814E+02</totfact>
</mgrwt>
</event>
<event>
 9    1  0.4246427E-036  0.1001249E+04  0.7818608E-02  0.8679849E-01
         -2   -1    0    0    0  501 -0.00000000000E+00  0.00000000000E+00  0.24513785017E+03  0.24513785017E+03  0.00000000000E+00 0. -1.
          2   -1    0    0  501    0  0.00000000000E+00 -0.00000000000E+00 -0.10223843308E+04  0.10223843308E+04  0.00000000000E+00 0. -1.
         36    2    1    2    0    0 -0.71054273576E-14  0.00000000000E+00 -0.77724648065E+03  0.12675221810E+04  0.10012494133E+04 0.  0.
         25    2    3    3    0    0  0.33124199390E+02  0.13029388539E+03 -0.93885716859E+02  0.20616086100E+03  0.12495624684E+03 0.  0.
         35    2    3    3    0    0 -0.33124199390E+02 -0.13029388539E+03 -0.68336076379E+03  0.10613613200E+04  0.80089463034E+03 0.  0.
         22    1    5    5    0    0 -0.11169484478E+03  0.85520101083E+02 -0.79404529799E+03  0.80641016939E+03  0.00000000000E+00 0.  1.
         22    1    5    5    0    0  0.78570645385E+02 -0.21581398648E+03  0.11068453420E+03  0.25495115059E+03  0.00000000000E+00 0.  1.
          5    1    4    4  502    0  0.60337154671E+02  0.10748993829E+03 -0.21246511630E+02  0.12517253422E+03  0.47000000000E+01 0.  1.
         -5    1    4    4    0  502 -0.27212955281E+02  0.22803947105E+02 -0.72639205229E+02  0.80988326782E+02  0.47000000000E+01 0.  1.
<mgrwt>
<rscale>  0 0.10012494E+04</rscale>
<asrwt>0</asrwt>
<pdfrwt beam="1">  1        2 0.15728990E+00 0.10012494E+04</pdfrwt>
<pdfrwt beam="2">  1       -2 0.37713516E-01 0.10012494E+04</pdfrwt>
<totfact> 0.19536794E+02</totfact>
</mgrwt>
</event>
<event>
 9    1  0.4246427E-036  0.1002642E+04  0.7818608E-02  0.8678526E-01
          1   -1    0    0  501    0  0.00000000000E+00  0.00000000000E+00  0.20084472229E+04  0.20084472229E+04  0.00000000000E+00 0.  1.
         -1   -1    0    0    0  501 -0.00000000000E+00 -0.00000000000E+00 -0.12513289678E+03  0.12513289678E+03  0.00000000000E+00 0.  1.
         36    2    1    2    0    0  0.00000000000E+00 -0.14210854715E-13  0.18833143261E+04  0.21335801197E+04  0.10026421476E+04 0.  0.
         25    2    3    3    0    0 -0.11674492276E+03 -0.37751071828E+02  0.20256176626E+03  0.26808208738E+03  0.12562729007E+03 0.  0.
         35    2    3    3    0    0  0.11674492276E+03  0.37751071828E+02  0.16807525599E+04  0.18654980323E+04  0.80006201049E+03 0.  0.
         22    1    5    5    0    0  0.33117686251E+03 -0.27434640498E+03  0.85494645309E+03  0.95701489113E+03  0.00000000000E+00 0.  1.
         22    1    5    5    0    0 -0.21443193976E+03  0.31209747681E+03  0.82580610676E+03  0.90848314117E+03  0.00000000000E+00 0.  1.
          5    1    4    4  502    0 -0.46533674191E+01 -0.17484724827E+02  0.13347293624E+03  0.13477568081E+03  0.47000000000E+01 0.  1.
         -5    1    4    4    0  502 -0.11209155534E+03 -0.20266347000E+02  0.69088830024E+02  0.13330640657E+03  0.47000000000E+01 0.  1.
<mgrwt>
<rscale>  0 0.10026421E+04</rscale>
<asrwt>0</asrwt>
<pdfrwt beam="1">  1        1 0.30899186E+00 0.10026421E+04</pdfrwt>
<pdfrwt beam="2">  1       -1 0.19251216E-01 0.10026421E+04</pdfrwt>
<totfact> 0.66904833E+01</totfact>
</mgrwt>
</event>
<event>
 9    1  0.4246427E-036  0.9996605E+03  0.7818608E-02  0.8681361E-01
         -2   -1    0    0    0  501 -0.00000000000E+00  0.00000000000E+00  0.11064155751E+03  0.11064155751E+03  0.00000000000E+00 0. -1.
          2   -1    0    0  501    0  0.00000000000E+00 -0.00000000000E+00 -0.22580146715E+04  0.22580146715E+04  0.00000000000E+00 0. -1.
         36    2    1    2    0    0  0.14210854715E-13 -0.14210854715E-13 -0.21473731140E+04  0.23686562290E+04  0.99966046265E+03 0.  0.
         25    2    3    3    0    0 -0.12130638899E+03 -0.72520004113E+02 -0.41575439884E+03  0.45563749851E+03  0.12157063331E+03 0.  0.
         35    2    3    3    0    0  0.12130638899E+03  0.72520004113E+02 -0.17316187152E+04  0.19130187305E+04  0.80072648116E+03 0.  0.
         22    1    5    5    0    0  0.30727906848E+03 -0.18959221569E+02 -0.19928991615E+03  0.36673743835E+03  0.00000000000E+00 0. -1.
         22    1    5    5    0    0 -0.18597267949E+03  0.91479225682E+02 -0.15323287990E+04  0.15462812922E+04  0.00000000000E+00 0. -1.
          5    1    4    4  502    0 -0.17056712985E+02 -0.77737930109E+02 -0.21527592968E+03  0.22956466003E+03  0.47000000000E+01 0.  1.
         -5    1    4    4    0  502 -0.10424967601E+03  0.52179259961E+01 -0.20047846916E+03  0.22607283848E+03  0.47000000000E+01 0.  1.
<mgrwt>
<rscale>  0 0.99966046E+03</rscale>
<asrwt>0</asrwt>
<pdfrwt beam="1">  1        2 0.34738685E+00 0.99966046E+03</pdfrwt>
<pdfrwt beam="2">  1       -2 0.17021779E-01 0.99966046E+03</pdfrwt>
<totfact> 0.15687065E+02</totfact>
</mgrwt>
</event>
<event>
 9    1  0.4246427E-036  0.9995631E+03  0.7818608E-02  0.8681454E-01
         -1   -1    0    0    0  501 -0.00000000000E+00  0.00000000000E+00  0.48229129715E+03  0.48229129715E+03  0.00000000000E+00 0.  1.
          1   -1    0    0  501    0  0.00000000000E+00 -0.00000000000E+00 -0.51790609174E+03  0.51790609174E+03  0.00000000000E+00 0.  1.
         36    2    1    2    0    0 -0.14210854715E-13  0.00000000000E+00 -0.35614794591E+02  0.10001973889E+04  0.99956310614E+03 0.  0.
         25    2    3    3    0    0 -0.53063827524E+01  0.37523637692E+02  0.12716208916E+03  0.18299581319E+03  0.12602019537E+03 0.  0.
         35    2    3    3    0    0  0.53063827524E+01 -0.37523637692E+02 -0.16277688375E+03  0.81720157571E+03  0.79992869705E+03 0.  0.
         22    1    5    5    0    0 -0.30632834535E+03 -0.33952163234E+02 -0.33982215199E+03  0.45876889556E+03  0.00000000000E+00 0. -1.
         22    1    5    5    0    0  0.31163472811E+03 -0.35714744583E+01  0.17704526823E+03  0.35843268014E+03  0.00000000000E+00 0. -1.
          5    1    4    4  502    0 -0.47649409977E+02 -0.23177890798E+02  0.31034748704E+02  0.61586739807E+02  0.47000000000E+01 0.  1.
         -5    1    4    4    0  502  0.42343027224E+02  0.60701528489E+02  0.96127340457E+02  0.12140907338E+03  0.47000000000E+01 0.  1.
<mgrwt>
<rscale>  0 0.99956311E+03</rscale>
<asrwt>0</asrwt>
<pdfrwt beam="1">  1        1 0.79677860E-01 0.99956311E+03</pdfrwt>
<pdfrwt beam="2">  1       -1 0.74198661E-01 0.99956311E+03</pdfrwt>
<totfact> 0.90875714E+01</totfact>
</mgrwt>
</event>
<event>
 9    1  0.4246427E-036  0.9997039E+03  0.7818608E-02  0.8681320E-01
          1   -1    0    0  501    0  0.00000000000E+00  0.00000000000E+00  0.11912647648E+04  0.11912647648E+04  0.00000000000E+00 0. -1.
         -1   -1    0    0    0  501 -0.00000000000E+00 -0.00000000000E+00 -0.20973670581E+03  0.20973670581E+03  0.00000000000E+00 0. -1.
         36    2    1    2    0    0  0.00000000000E+00 -0.93258734069E-14  0.98152805897E+03  0.14010014706E+04  0.99970385118E+03 0.  0.
         25    2    3    3    0    0 -0.11696514142E+03 -0.14796938420E+00  0.79342682503E+02  0.18937557035E+03  0.12604356062E+03 0.  0.
         35    2    3    3    0    0  0.11696514142E+03  0.14796938420E+00  0.90218537647E+03  0.12116259002E+04  0.80026120888E+03 0.  0.
         22    1    5    5    0    0 -0.20308382830E+03 -0.28920679550E+03  0.55438601031E+03  0.65744008115E+03  0.00000000000E+00 0.  1.
         22    1    5    5    0    0  0.32004896973E+03  0.28935476488E+03  0.34779936616E+03  0.55418581910E+03  0.00000000000E+00 0.  1.
          5    1    4    4  502    0  0.24633460895E+02  0.59384510129E+00 -0.33855271822E+01  0.25312286384E+02  0.47000000000E+01 0.  1.
         -5    1    4    4    0  502 -0.14159860232E+03 -0.74181448550E+00  0.82728209685E+02  0.16406328396E+03  0.47000000000E+01 0.  1.
<mgrwt>
<rscale>  0 0.99970385E+03</rscale>
<asrwt>0</asrwt>
<pdfrwt beam="1">  1        1 0.18327150E+00 0.99970385E+03</pdfrwt>
<pdfrwt beam="2">  1       -1 0.32267186E-01 0.99970385E+03</pdfrwt>
<totfact> 0.10732321E+02</totfact>
</mgrwt>
</event>
<event>
 9    1  0.4246427E-036  0.9996190E+03  0.7818608E-02  0.8681401E-01
         -2   -1    0    0    0  501 -0.00000000000E+00  0.00000000000E+00  0.35648871919E+03  0.35648871919E+03  0.00000000000E+00 0. -1.
          2   -1    0    0  501    0  0.00000000000E+00 -0.00000000000E+00 -0.70075017905E+03  0.70075017905E+03  0.00000000000E+00 0. -1.
         36    2    1    2    0    0  0.00000000000E+00  0.42632564146E-13 -0.34426145987E+03  0.10572388982E+04  0.99961899502E+03 0.  0.
         25    2    3    3    0    0  0.14038658478E+03  0.15418663236E+01 -0.63350875775E+02  0.19785288384E+03  0.12418397499E+03 0.  0.
         35    2    3    3    0    0 -0.14038658478E+03 -0.15418663236E+01 -0.28091058409E+03  0.85938601440E+03  0.79995174539E+03 0.  0.
         22    1    5    5    0    0 -0.12867469964E+03  0.33230908827E+03 -0.36995424373E+03  0.51366589427E+03  0.00000000000E+00 0.  1.
         22    1    5    5    0    0 -0.11711885139E+02 -0.33385095460E+03  0.89043659643E+02  0.34572012013E+03  0.00000000000E+00 0.  1.
          5    1    4    4  502    0 -0.13712489061E+02  0.92700158936E+01 -0.37607431622E+02  0.41356673756E+02  0.47000000000E+01 0.  1.
         -5    1    4    4    0  502  0.15409907384E+03 -0.77281495700E+01 -0.25743444153E+02  0.15649621009E+03  0.47000000000E+01 0.  1.
<mgrwt>
<rscale>  0 0.99961900E+03</rscale>
<asrwt>0</asrwt>
<pdfrwt beam="1">  1        2 0.10780772E+00 0.99961900E+03</pdfrwt>
<pdfrwt beam="2">  1       -2 0.54844419E-01 0.99961900E+03</pdfrwt>
<totfact> 0.15486368E+02</totfact>
</mgrwt>
</event>
<event>
 9    1  0.4246427E-036  0.1002269E+04  0.7818608E-02  0.8678881E-01
         -2   -1    0    0    0  501 -0.00000000000E+00  0.00000000000E+00  0.24918774525E+03  0.24918774525E+03  0.00000000000E+00 0. -1.
          2   -1    0    0  501    0  0.00000000000E+00 -0.00000000000E+00 -0.10078169018E+04  0.10078169018E+04  0.00000000000E+00 0. -1.
         36    2    1    2    0    0 -0.14210854715E-13  0.00000000000E+00 -0.75862915657E+03  0.12570046471E+04  0.10022686693E+04 0.  0.
         25    2    3    3    0    0  0.79649640700E+02  0.71460043254E+02 -0.26245444043E+03  0.30961808736E+03  0.12462112051E+03 0.  0.
         35    2    3    3    0    0 -0.79649640700E+02 -0.71460043254E+02 -0.49617471614E+03  0.94738655970E+03  0.79993833607E+03 0.  0.
         22    1    5    5    0    0  0.22508292905E+03  0.42252974093E+02 -0.56962524144E+03  0.61393855918E+03  0.00000000000E+00 0.  1.
         22    1    5    5    0    0 -0.30473256975E+03 -0.11371301735E+03  0.73450525294E+02  0.33344800052E+03  0.00000000000E+00 0.  1.
          5    1    4    4  502    0  0.69492485614E+02  0.64594134203E+02 -0.73241308019E+02  0.11994993510E+03  0.47000000000E+01 0.  1.
         -5    1    4    4    0  502  0.10157155086E+02  0.68659090514E+01 -0.18921313241E+03  0.18966815226E+03  0.47000000000E+01 0.  1.
<mgrwt>
<rscale>  0 0.10022687E+04</rscale>
<asrwt>0</asrwt>
<pdfrwt beam="1">  1        2 0.15504875E+00 0.10022687E+04</pdfrwt>
<pdfrwt beam="2">  1       -2 0.38336576E-01 0.10022687E+04</pdfrwt>
<totfact> 0.19340083E+02</totfact>
</mgrwt>
</event>
<event>
 9    1  0.4246427E-036  0.1000941E+04  0.7818608E-02  0.8680142E-01
         -2   -1    0    0    0  501 -0.00000000000E+00  0.00000000000E+00  0.30548576979E+03  0.30548576979E+03  0.00000000000E+00 0.  1.
          2   -1    0    0  501    0  0.00000000000E+00 -0.00000000000E+00 -0.81991000461E+03  0.81991000461E+03  0.00000000000E+00 0.  1.
         36    2    1    2    0    0  0.00000000000E+00  0.00000000000E+00 -0.51442423482E+03  0.11253957744E+04  0.10009412349E+04 0.  0.
         25    2    3    3    0    0  0.63490273665E+02 -0.12632312315E+03 -0.91749699970E+02  0.21016387199E+03  0.12554799621E+03 0.  0.
         35    2    3    3    0    0 -0.63490273665E+02  0.12632312315E+03 -0.42267453485E+03  0.91523190241E+03  0.79937921320E+03 0.  0.
         22    1    5    5    0    0  0.79900908212E+00  0.10047146883E+03  0.23413208442E+03  0.25478027282E+03  0.00000000000E+00 0. -1.
         22    1    5    5    0    0 -0.64289282747E+02  0.25851654315E+02 -0.65680661927E+03  0.66045162959E+03  0.00000000000E+00 0. -1.
          5    1    4    4  502    0  0.76843733389E+02 -0.24219906011E+02 -0.65111922575E+02  0.10369771294E+03  0.47000000000E+01 0. -1.
         -5    1    4    4    0  502 -0.13353459724E+02 -0.10210321714E+03 -0.26637777395E+02  0.10646615904E+03  0.47000000000E+01 0. -1.
<mgrwt>
<rscale>  0 0.10009412E+04</rscale>
<asrwt>0</asrwt>
<pdfrwt beam="1">  1        2 0.12614000E+00 0.10009412E+04</pdfrwt>
<pdfrwt beam="2">  1       -2 0.46997812E-01 0.10009412E+04</pdfrwt>
<totfact> 0.17311663E+02</totfact>
</mgrwt>
</event>
<event>
 9    1  0.4246427E-036  0.9992388E+03  0.7818608E-02  0.8681763E-01
         -2   -1    0    0    0  501 -0.00000000000E+00  0.00000000000E+00  0.51838996431E+03  0.51838996431E+03  0.00000000000E+00 0. -1.
          2   -1    0    0  501    0  0.00000000000E+00 -0.00000000000E+00 -0.48152848186E+03  0.48152848186E+03  0.00000000000E+00 0. -1.
         36    2    1    2    0    0  0.71054273576E-14 -0.56843418861E-13  0.36861482445E+02  0.99991844617E+03  0.99923877532E+03 0.  0.
         25    2    3    3    0    0 -0.35903987896E+02 -0.12934788391E+03  0.38258814665E+02  0.18808591789E+03  0.12606587242E+03 0.  0.
         35    2    3    3    0    0  0.35903987896E+02  0.12934788391E+03 -0.13973322198E+01  0.81183252828E+03  0.80065606225E+03 0.  0.
         22    1    5    5    0    0 -0.25658320491E+02 -0.33183142217E+03 -0.73953000611E+02  0.34093912719E+03  0.00000000000E+00 0.  1.
         22    1    5    5    0    0  0.61562308387E+02  0.46117930608E+03  0.72555668391E+02  0.47089340109E+03  0.00000000000E+00 0.  1.
          5    1    4    4  502    0 -0.79436396303E+02 -0.61077496337E+02  0.50330886427E+01  0.10043915371E+03  0.47000000000E+01 0.  1.
         -5    1    4    4    0  502  0.43532408407E+02 -0.68270387575E+02  0.33225726022E+02  0.87646764179E+02  0.47000000000E+01 0.  1.
<mgrwt>
<rscale>  0 0.99923878E+03</rscale>
<asrwt>0</asrwt>
<pdfrwt beam="1">  1        2 0.74081304E-01 0.99923878E+03</pdfrwt>
<pdfrwt beam="2">  1       -2 0.79752303E-01 0.99923878E+03</pdfrwt>
<totfact> 0.10790255E+02</totfact>
</mgrwt>
</event>
<event>
 9    1  0.4246427E-036  0.1001521E+04  0.7818608E-02  0.8679591E-01
         -2   -1    0    0    0  501 -0.00000000000E+00  0.00000000000E+00  0.79004195304E+03  0.79004195304E+03  0.00000000000E+00 0. -1.
          2   -1    0    0  501    0  0.00000000000E+00 -0.00000000000E+00 -0.31740214590E+03  0.31740214590E+03  0.00000000000E+00 0. -1.
         36    2    1    2    0    0 -0.28421709430E-13 -0.71054273576E-14  0.47263980714E+03  0.11074440989E+04  0.10015208660E+04 0.  0.
         25    2    3    3    0    0  0.47098054389E+02 -0.60679623498E+02 -0.43236764952E+02  0.15192326223E+03  0.12373769162E+03 0.  0.
         35    2    3    3    0    0 -0.47098054389E+02  0.60679623498E+02  0.51587657210E+03  0.95552083671E+03  0.80061925302E+03 0.  0.
         22    1    5    5    0    0 -0.38322185150E+03  0.68969963965E+02  0.47897086529E+03  0.61727541113E+03  0.00000000000E+00 0.  1.
         22    1    5    5    0    0  0.33612379711E+03 -0.82903404668E+01  0.36905706807E+02  0.33824542557E+03  0.00000000000E+00 0.  1.
          5    1    4    4  502    0  0.68586049348E+02 -0.67064360797E+02  0.74226216123E+01  0.96326839281E+02  0.47000000000E+01 0. -1.
         -5    1    4    4    0  502 -0.21487994959E+02  0.63847372990E+01 -0.50659386564E+02  0.55596422950E+02  0.47000000000E+01 0. -1.
<mgrwt>
<rscale>  0 0.10015209E+04</rscale>
<asrwt>0</asrwt>
<pdfrwt beam="1">  1        2 0.48831100E-01 0.10015209E+04</pdfrwt>
<pdfrwt beam="2">  1       -2 0.12154492E+00 0.10015209E+04</pdfrwt>
<totfact> 0.61726843E+01</totfact>
</mgrwt>
</event>
<event>
 9    1  0.4246427E-036  0.9997024E+03  0.7818608E-02  0.8681321E-01
         -1   -1    0    0    0  501 -0.00000000000E+00  0.00000000000E+00  0.93987554247E+03  0.93987554247E+03  0.00000000000E+00 0.  1.
          1   -1    0    0  501    0  0.00000000000E+00 -0.00000000000E+00 -0.26583437502E+03  0.26583437502E+03  0.00000000000E+00 0.  1.
         36    2    1    2    0    0 -0.14210854715E-13 -0.35527136788E-14  0.67404116746E+03  0.12057099175E+04  0.99970241058E+03 0.  0.
         25    2    3    3    0    0 -0.46833015732E+02 -0.18202403932E+02 -0.30916850052E+02  0.13815018698E+03  0.12491982898E+03 0.  0.
         35    2    3    3    0    0  0.46833015732E+02  0.18202403932E+02  0.70495801751E+03  0.10675597305E+04  0.80012081144E+03 0.  0.
         22    1    5    5    0    0  0.25337997524E+03 -0.31608630037E+03  0.30700829332E+03  0.50829720961E+03  0.00000000000E+00 0. -1.
         22    1    5    5    0    0 -0.20654695951E+03  0.33428870430E+03  0.39794972419E+03  0.55926252090E+03  0.00000000000E+00 0. -1.
          5    1    4    4  502    0  0.26855657706E+02  0.30786998007E+02  0.70917332874E+01  0.41730663524E+02  0.47000000000E+01 0. -1.
         -5    1    4    4    0  502 -0.73688673439E+02 -0.48989401939E+02 -0.38008583339E+02  0.96419523453E+02  0.47000000000E+01 0. -1.
<mgrwt>
<rscale>  0 0.99970241E+03</rscale>
<asrwt>0</asrwt>
<pdfrwt beam="1">  1        1 0.40897597E-01 0.99970241E+03</pdfrwt>
<pdfrwt beam="2">  1       -1 0.14459624E+00 0.99970241E+03</pdfrwt>
<totfact> 0.46732028E+01</totfact>
</mgrwt>
</event>
<event>
 9    1  0.4246427E-036  0.1000105E+04  0.7818608E-02  0.8680938E-01
         -1   -1    0    0    0  501 -0.00000000000E+00  0.00000000000E+00  0.25892517144E+03  0.25892517144E+03  0.00000000000E+00 0.  1.
          1   -1    0    0  501    0  0.00000000000E+00 -0.00000000000E+00 -0.96573250049E+03  0.96573250049E+03  0.00000000000E+00 0.  1.
         36    2    1    2    0    0  0.00000000000E+00  0.00000000000E+00 -0.70680732905E+03  0.12246576719E+04  0.10001049010E+04 0.  0.
         25    2    3    3    0    0 -0.20118306072E+02  0.14163631174E+03 -0.13281958271E+03  0.23112152405E+03  0.12373571143E+03 0.  0.
         35    2    3    3    0    0  0.20118306072E+02 -0.14163631174E+03 -0.57398774633E+03  0.99353614788E+03  0.79823965897E+03 0.  0.
         22    1    5    5    0    0 -0.25457571525E+03  0.54927597178E+02 -0.60067703755E+03  0.65470507801E+03  0.00000000000E+00 0.  1.
         22    1    5    5    0    0  0.27469402132E+03 -0.19656390892E+03  0.26689291218E+02  0.33883106987E+03  0.00000000000E+00 0.  1.
          5    1    4    4  502    0  0.43755798390E+02  0.35743593461E+02 -0.76334709796E+02  0.95085499872E+02  0.47000000000E+01 0. -1.
         -5    1    4    4    0  502 -0.63874104462E+02  0.10589271828E+03 -0.56484872918E+02  0.13603602418E+03  0.47000000000E+01 0. -1.
<mgrwt>
<rscale>  0 0.10001049E+04</rscale>
<asrwt>0</asrwt>
<pdfrwt beam="1">  1        1 0.14857423E+00 0.10001049E+04</pdfrwt>
<pdfrwt beam="2">  1       -1 0.39834641E-01 0.10001049E+04</pdfrwt>
<totfact> 0.11091898E+02</totfact>
</mgrwt>
</event>
<event>
 9    1  0.4246427E-036  0.1000107E+04  0.7818608E-02  0.8680937E-01
          1   -1    0    0  501    0  0.00000000000E+00  0.00000000000E+00  0.50408023786E+04  0.50408023786E+04  0.00000000000E+00 0. -1.
         -1   -1    0    0    0  501 -0.00000000000E+00 -0.00000000000E+00 -0.49605843710E+02  0.49605843710E+02  0.00000000000E+00 0. -1.
         36    2    1    2    0    0  0.14210854715E-13  0.00000000000E+00  0.49911965349E+04  0.50904082224E+04  0.10001065043E+04 0.  0.
         25    2    3    3    0    0 -0.57870958096E+02 -0.12270427794E+02  0.28552406831E+03  0.31725046935E+03  0.12499702208E+03 0.  0.
         35    2    3    3    0    0  0.57870958096E+02  0.12270427794E+02  0.47056724666E+04  0.47731577530E+04  0.79761015586E+03 0.  0.
         22    1    5    5    0    0  0.33519164598E+03 -0.10317108095E+03  0.38566251005E+04  0.38725385572E+04  0.00000000000E+00 0.  1.
         22    1    5    5    0    0 -0.27732068788E+03  0.11544150874E+03  0.84904736617E+03  0.90061919582E+03  0.00000000000E+00 0.  1.
          5    1    4    4  502    0 -0.71047504549E+02 -0.55469591127E+02  0.21726693096E+03  0.23526927707E+03  0.47000000000E+01 0.  1.
         -5    1    4    4    0  502  0.13176546453E+02  0.43199163334E+02  0.68257137351E+02  0.81981192285E+02  0.47000000000E+01 0.  1.
<mgrwt>
<rscale>  0 0.10001065E+04</rscale>
<asrwt>0</asrwt>
<pdfrwt beam="1">  1        1 0.77550765E+00 0.10001065E+04</pdfrwt>
<pdfrwt beam="2">  1       -1 0.76316723E-02 0.10001065E+04</pdfrwt>
<totfact> 0.11959972E+00</totfact>
</mgrwt>
</event>
<event>
 9    1  0.4246427E-036  0.1000586E+04  0.7818608E-02  0.8680480E-01
          3   -1    0    0  501    0  0.00000000000E+00  0.00000000000E+00  0.33934673448E+03  0.33934673448E+03  0.00000000000E+00 0.  1.
         -3   -1    0    0    0  501 -0.00000000000E+00 -0.00000000000E+00 -0.73757287178E+03  0.73757287178E+03  0.00000000000E+00 0.  1.
         36    2    1    2    0    0  0.00000000000E+00  0.14210854715E-13 -0.39822613730E+03  0.10769196063E+04  0.10005857194E+04 0.  0.
         25    2    3    3    0    0 -0.86371199674E+02 -0.73946016058E+02  0.13287072943E+02  0.16942064049E+03  0.12489519483E+03 0.  0.
         35    2    3    3    0    0  0.86371199674E+02  0.73946016058E+02 -0.41151321024E+03  0.90749896578E+03  0.80080163166E+03 0.  0.
         22    1    5    5    0    0  0.29333113647E+03  0.34856253526E+03 -0.30215074264E+03  0.54665717583E+03  0.00000000000E+00 0.  1.
         22    1    5    5    0    0 -0.20695993679E+03 -0.27461651920E+03 -0.10936246760E+03  0.36084178995E+03  0.00000000000E+00 0.  1.
          5    1    4    4  502    0  0.17890125305E+01 -0.76499323790E+02 -0.11887515316E+02  0.77580604061E+02  0.47000000000E+01 0. -1.
         -5    1    4    4    0  502 -0.88160212205E+02  0.25533077319E+01  0.25174588258E+02  0.91840036424E+02  0.47000000000E+01 0. -1.
<mgrwt>
<rscale>  0 0.10005857E+04</rscale>
<asrwt>0</asrwt>
<pdfrwt beam="1">  1        3 0.52207191E-01 0.10005857E+04</pdfrwt>
<pdfrwt beam="2">  1       -3 0.11347275E+00 0.10005857E+04</pdfrwt>
<totfact> 0.83988631E+00</totfact>
</mgrwt>
</event>
<event>
 9    1  0.4246427E-036  0.9999405E+03  0.7818608E-02  0.8681095E-01
         -1   -1    0    0    0  501 -0.00000000000E+00  0.00000000000E+00  0.39610435667E+03  0.39610435667E+03  0.00000000000E+00 0.  1.
          1   -1    0    0  501    0  0.00000000000E+00 -0.00000000000E+00 -0.63107172905E+03  0.63107172905E+03  0.00000000000E+00 0.  1.
         36    2    1    2    0    0 -0.14210854715E-13  0.14210854715E-13 -0.23496737238E+03  0.10271760857E+04  0.99994052073E+03 0.  0.
         25    2    3    3    0    0  0.87785556688E+02  0.10506198947E+03 -0.10507485049E+02  0.18597560278E+03  0.12542803511E+03 0.  0.
         35    2    3    3    0    0 -0.87785556688E+02 -0.10506198947E+03 -0.22445988733E+03  0.84120048295E+03  0.79905674761E+03 0.  0.
         22    1    5    5    0    0  0.33102361135E+03 -0.14928400917E+03 -0.21071880570E+03  0.41983897120E+03  0.00000000000E+00 0. -1.
         22    1    5    5    0    0 -0.41880916804E+03  0.44222019700E+02 -0.13741081628E+02  0.42136151175E+03  0.00000000000E+00 0. -1.
          5    1    4    4  502    0 -0.16114195172E+02  0.70782471792E+02 -0.21654679822E+02  0.75900202617E+02  0.47000000000E+01 0.  1.
         -5    1    4    4    0  502  0.10389975186E+03  0.34279517676E+02  0.11147194773E+02  0.11007540016E+03  0.47000000000E+01 0.  1.
<mgrwt>
<rscale>  0 0.99994052E+03</rscale>
<asrwt>0</asrwt>
<pdfrwt beam="1">  1        1 0.97087957E-01 0.99994052E+03</pdfrwt>
<pdfrwt beam="2">  1       -1 0.60939133E-01 0.99994052E+03</pdfrwt>
<totfact> 0.10071057E+02</totfact>
</mgrwt>
</event>
<event>
 9    1  0.4246427E-036  0.1001769E+04  0.7818608E-02  0.8679355E-01
         -2   -1    0    0    0  501 -0.00000000000E+00  0.00000000000E+00  0.17365162549E+03  0.17365162549E+03  0.00000000000E+00 0. -1.
          2   -1    0    0  501    0  0.00000000000E+00 -0.00000000000E+00 -0.14447626714E+04  0.14447626714E+04  0.00000000000E+00 0. -1.
         36    2    1    2    0    0 -0.14210854715E-13  0.28421709430E-13 -0.12711110459E+04  0.16184142969E+04  0.10017692076E+04 0.  0.
         25    2    3    3    0    0  0.94718863656E+02 -0.55161435162E+02 -0.38665238311E+03  0.42097309043E+03  0.12531492506E+03 0.  0.
         35    2    3    3    0    0 -0.94718863656E+02  0.55161435162E+02 -0.88445866278E+03  0.11974412064E+04  0.79973987625E+03 0.  0.
         22    1    5    5    0    0  0.55970804342E+02 -0.34307832377E+03 -0.23054332531E+03  0.41711592157E+03  0.00000000000E+00 0.  1.
         22    1    5    5    0    0 -0.15068966800E+03  0.39823975894E+03 -0.65391533747E+03  0.78032528487E+03  0.00000000000E+00 0.  1.
          5    1    4    4  502    0  0.71782544523E+02  0.10872373207E+02 -0.30417689714E+03  0.31275648187E+03  0.47000000000E+01 0. -1.
         -5    1    4    4    0  502  0.22936319133E+02 -0.66033808368E+02 -0.82475485965E+02  0.10821660856E+03  0.47000000000E+01 0. -1.
<mgrwt>
<rscale>  0 0.10017692E+04</rscale>
<asrwt>0</asrwt>
<pdfrwt beam="1">  1        2 0.22227119E+00 0.10017692E+04</pdfrwt>
<pdfrwt beam="2">  1       -2 0.26715634E-01 0.10017692E+04</pdfrwt>
<totfact> 0.20753762E+02</totfact>
</mgrwt>
</event>
<event>
 9    1  0.4246427E-036  0.9954341E+03  0.7818608E-02  0.8685398E-01
          1   -1    0    0  501    0  0.00000000000E+00  0.00000000000E+00  0.39652675980E+03  0.39652675980E+03  0.00000000000E+00 0. -1.
         -1   -1    0    0    0  501 -0.00000000000E+00 -0.00000000000E+00 -0.62473022038E+03  0.62473022038E+03  0.00000000000E+00 0. -1.
         36    2    1    2    0    0  0.21316282073E-13  0.00000000000E+00 -0.22820346058E+03  0.10212569802E+04  0.99543407625E+03 0.  0.
         25    2    3    3    0    0 -0.54133471036E+02 -0.73637631042E+02  0.57106367555E+02  0.16613780501E+03  0.12644247564E+03 0.  0.
         35    2    3    3    0    0  0.54133471036E+02  0.73637631042E+02 -0.28530982814E+03  0.85511917518E+03  0.80092082776E+03 0.  0.
         22    1    5    5    0    0  0.28474963276E+03 -0.16625438376E+03 -0.38580433655E+03  0.50751143788E+03  0.00000000000E+00 0.  1.
         22    1    5    5    0    0 -0.23061616172E+03  0.23989201480E+03  0.10049450841E+03  0.34760773730E+03  0.00000000000E+00 0.  1.
          5    1    4    4  502    0 -0.32676973362E+02 -0.10826876313E+03  0.52810713770E+02  0.12490384760E+03  0.47000000000E+01 0. -1.
         -5    1    4    4    0  502 -0.21456497674E+02  0.34631132083E+02  0.42956537853E+01  0.41233957404E+02  0.47000000000E+01 0. -1.
<mgrwt>
<rscale>  0 0.99543408E+03</rscale>
<asrwt>0</asrwt>
<pdfrwt beam="1">  1        1 0.61004117E-01 0.99543408E+03</pdfrwt>
<pdfrwt beam="2">  1       -1 0.96112341E-01 0.99543408E+03</pdfrwt>
<totfact> 0.75725136E+01</totfact>
</mgrwt>
</event>
<event>
 9    1  0.4246427E-036  0.9999495E+03  0.7818608E-02  0.8681086E-01
         -1   -1    0    0    0  501 -0.00000000000E+00  0.00000000000E+00  0.35105319341E+03  0.35105319341E+03  0.00000000000E+00 0.  1.
          1   -1    0    0  501    0  0.00000000000E+00 -0.00000000000E+00 -0.71207082021E+03  0.71207082021E+03  0.00000000000E+00 0.  1.
         36    2    1    2    0    0  0.00000000000E+00  0.71054273576E-14 -0.36101762680E+03  0.10631240136E+04  0.99994946946E+03 0.  0.
         25    2    3    3    0    0  0.64233746133E+02 -0.58150915089E+02  0.39045007960E+02  0.16414101138E+03  0.13382920422E+03 0.  0.
         35    2    3    3    0    0 -0.64233746133E+02  0.58150915089E+02 -0.40006263476E+03  0.89898300224E+03  0.80038292305E+03 0.  0.
         22    1    5    5    0    0  0.21581254770E+03  0.17872921593E+03  0.11301631234E+03  0.30214545376E+03  0.00000000000E+00 0. -1.
         22    1    5    5    0    0 -0.28004629383E+03 -0.12057830085E+03 -0.51307894709E+03  0.59683754848E+03  0.00000000000E+00 0. -1.
          5    1    4    4  502    0  0.37560919451E+02 -0.76143948854E+02 -0.28083823092E+02  0.89551743347E+02  0.47000000000E+01 0. -1.
         -5    1    4    4    0  502  0.26672826682E+02  0.17993033765E+02  0.67128831052E+02  0.74589268033E+02  0.47000000000E+01 0. -1.
<mgrwt>
<rscale>  0 0.99994947E+03</rscale>
<asrwt>0</asrwt>
<pdfrwt beam="1">  1        1 0.10954936E+00 0.99994947E+03</pdfrwt>
<pdfrwt beam="2">  1       -1 0.54008184E-01 0.99994947E+03</pdfrwt>
<totfact> 0.10553190E+02</totfact>
</mgrwt>
</event>
<event>
 9    1  0.4246427E-036  0.1000228E+04  0.7818608E-02  0.8680820E-01
         -2   -1    0    0    0  501 -0.00000000000E+00  0.00000000000E+00  0.31378703212E+03  0.31378703212E+03  0.00000000000E+00 0. -1.
          2   -1    0    0  501    0  0.00000000000E+00 -0.00000000000E+00 -0.79708283088E+03  0.79708283088E+03  0.00000000000E+00 0. -1.
         36    2    1    2    0    0  0.71054273576E-14  0.00000000000E+00 -0.48329579877E+03  0.11108698630E+04  0.10002284856E+04 0.  0.
         25    2    3    3    0    0 -0.15878750342E+02  0.83522021378E+02 -0.21522011034E+03  0.26291531410E+03  0.12480666539E+03 0.  0.
         35    2    3    3    0    0  0.15878750342E+02 -0.83522021378E+02 -0.26807568843E+03  0.84795454890E+03  0.79995892364E+03 0.  0.
         22    1    5    5    0    0  0.22457961746E+03 -0.14298603420E+03 -0.47728860296E+03  0.54652119911E+03  0.00000000000E+00 0.  1.
         22    1    5    5    0    0 -0.20870086712E+03  0.59464012827E+02  0.20921291453E+03  0.30143334979E+03  0.00000000000E+00 0.  1.
          5    1    4    4  502    0 -0.36432175195E+02  0.10472443920E+03 -0.20144706679E+03  0.22999461358E+03  0.47000000000E+01 0. -1.
         -5    1    4    4    0  502  0.20553424853E+02 -0.21202417819E+02 -0.13773043549E+02  0.32920700526E+02  0.47000000000E+01 0. -1.
<mgrwt>
<rscale>  0 0.10002285E+04</rscale>
<asrwt>0</asrwt>
<pdfrwt beam="1">  1        2 0.12262813E+00 0.10002285E+04</pdfrwt>
<pdfrwt beam="2">  1       -2 0.48274928E-01 0.10002285E+04</pdfrwt>
<totfact> 0.17029106E+02</totfact>
</mgrwt>
</event>
<event>
 9    1  0.4246427E-036  0.1001883E+04  0.7818608E-02  0.8679247E-01
          2   -1    0    0  501    0  0.00000000000E+00  0.00000000000E+00  0.57159522658E+03  0.57159522658E+03  0.00000000000E+00 0.  1.
         -2   -1    0    0    0  501 -0.00000000000E+00 -0.00000000000E+00 -0.43902096516E+03  0.43902096516E+03  0.00000000000E+00 0.  1.
         36    2    1    2    0    0 -0.56843418861E-13 -0.71054273576E-14  0.13257426142E+03  0.10106161917E+04  0.10018828036E+04 0.  0.
         25    2    3    3    0    0  0.14118108580E+03 -0.21646897300E+02  0.15793747660E+02  0.18938275574E+03  0.12335192969E+03 0.  0.
         35    2    3    3    0    0 -0.14118108580E+03  0.21646897300E+02  0.11678051376E+03  0.82123343600E+03  0.80024120168E+03 0.  0.
         22    1    5    5    0    0 -0.20077414718E+03  0.30626423267E+03 -0.17798939571E+03  0.40717104929E+03  0.00000000000E+00 0. -1.
         22    1    5    5    0    0  0.59593061389E+02 -0.28461733537E+03  0.29476990947E+03  0.41406238671E+03  0.00000000000E+00 0. -1.
          5    1    4    4  502    0  0.10506239668E+03 -0.67589778048E+02  0.31026480745E+02  0.12880690122E+03  0.47000000000E+01 0. -1.
         -5    1    4    4    0  502  0.36118689114E+02  0.45942880748E+02 -0.15232733085E+02  0.60575854530E+02  0.47000000000E+01 0. -1.
<mgrwt>
<rscale>  0 0.10018828E+04</rscale>
<asrwt>0</asrwt>
<pdfrwt beam="1">  1        2 0.87937728E-01 0.10018828E+04</pdfrwt>
<pdfrwt beam="2">  1       -2 0.67541686E-01 0.10018828E+04</pdfrwt>
<totfact> 0.12782946E+02</totfact>
</mgrwt>
</event>
<event>
 9    1  0.4246427E-036  0.9997549E+03  0.7818608E-02  0.8681271E-01
          2   -1    0    0  501    0  0.00000000000E+00  0.00000000000E+00  0.76738329740E+03  0.76738329740E+03  0.00000000000E+00 0. -1.
         -2   -1    0    0    0  501 -0.00000000000E+00 -0.00000000000E+00 -0.32562274564E+03  0.32562274564E+03  0.00000000000E+00 0. -1.
         36    2    1    2    0    0  0.31974423109E-13  0.00000000000E+00  0.44176055176E+03  0.10930060430E+04  0.99975488247E+03 0.  0.
         25    2    3    3    0    0 -0.24226655793E+02 -0.11691319374E+03  0.16180383677E+03  0.23700980213E+03  0.12544934832E+03 0.  0.
         35    2    3    3    0    0  0.24226655793E+02  0.11691319374E+03  0.27995671500E+03  0.85599624091E+03  0.80006135793E+03 0.  0.
         22    1    5    5    0    0 -0.37803147843E+03  0.13544044835E+03  0.93837464548E+02  0.41238014438E+03  0.00000000000E+00 0. -1.
         22    1    5    5    0    0  0.40225813422E+03 -0.18527254609E+02  0.18611925045E+03  0.44361609653E+03  0.00000000000E+00 0. -1.
          5    1    4    4  502    0 -0.38149121418E+01 -0.16391114365E+02  0.12758651330E+03  0.12877744586E+03  0.47000000000E+01 0. -1.
         -5    1    4    4    0  502 -0.20411743651E+02 -0.10052207937E+03  0.34217323468E+02  0.10823235628E+03  0.47000000000E+01 0. -1.
<mgrwt>
<rscale>  0 0.99975488E+03</rscale>
<asrwt>0</asrwt>
<pdfrwt beam="1">  1        2 0.11805897E+00 0.99975488E+03</pdfrwt>
<pdfrwt beam="2">  1       -2 0.50095807E-01 0.99975488E+03</pdfrwt>
<totfact> 0.16605139E+02</totfact>
</mgrwt>
</event>
<event>
 9    1  0.4246427E-036  0.1000148E+04  0.7818608E-02  0.8680897E-01
          1   -1    0    0  501    0  0.00000000000E+00  0.00000000000E+00  0.73295636808E+03  0.73295636808E+03  0.00000000000E+00 0. -1.
         -1   -1    0    0    0  501 -0.00000000000E+00 -0.00000000000E+00 -0.34118565412E+03  0.34118565412E+03  0.00000000000E+00 0. -1.
         36    2    1    2    0    0 -0.14210854715E-13  0.14210854715E-13  0.39177071396E+03  0.10741420222E+04  0.10001483848E+04 0.  0.
         25    2    3    3    0    0 -0.73361572167E+02 -0.10525994014E+03  0.61244665932E+01  0.17927904983E+03  0.12506755513E+03 0.  0.
         35    2    3    3    0    0  0.73361572167E+02  0.10525994014E+03  0.38564624737E+03  0.89486297238E+03  0.79724220658E+03 0.  0.
         22    1    5    5    0    0 -0.22658818376E+03  0.13041417300E+03  0.50690540774E+03  0.57035353417E+03  0.00000000000E+00 0. -1.
         22    1    5    5    0    0  0.29994975593E+03 -0.25154232861E+02 -0.12125916037E+03  0.32450943821E+03  0.00000000000E+00 0. -1.
          5    1    4    4  502    0 -0.10967388519E+02 -0.55705220383E+02 -0.54661145464E+02  0.78951162197E+02  0.47000000000E+01 0. -1.
         -5    1    4    4    0  502 -0.62394183648E+02 -0.49554719754E+02  0.60785612057E+02  0.10032788763E+03  0.47000000000E+01 0. -1.
<mgrwt>
<rscale>  0 0.10001484E+04</rscale>
<asrwt>0</asrwt>
<pdfrwt beam="1">  1        1 0.11276252E+00 0.10001484E+04</pdfrwt>
<pdfrwt beam="2">  1       -1 0.52490101E-01 0.10001484E+04</pdfrwt>
<totfact> 0.10641790E+02</totfact>
</mgrwt>
</event>
<event>
 9    1  0.4246427E-036  0.1000711E+04  0.7818608E-02  0.8680361E-01
          2   -1    0    0  501    0  0.00000000000E+00  0.00000000000E+00  0.22997515548E+03  0.22997515548E+03  0.00000000000E+00 0.  1.
         -2   -1    0    0    0  501 -0.00000000000E+00 -0.00000000000E+00 -0.10886204200E+04  0.10886204200E+04  0.00000000000E+00 0.  1.
         36    2    1    2    0    0  0.00000000000E+00  0.35527136788E-14 -0.85864526452E+03  0.13185955755E+04  0.10007110479E+04 0.  0.
         25    2    3    3    0    0  0.14035097700E+03 -0.11673710131E+02 -0.17016550936E+03  0.25379947079E+03  0.12499279398E+03 0.  0.
         35    2    3    3    0    0 -0.14035097700E+03  0.11673710131E+02 -0.68847975516E+03  0.10647961047E+04  0.79996981133E+03 0.  0.
         22    1    5    5    0    0 -0.44468610394E+03  0.15956696495E+03 -0.36952449676E+03  0.59979638299E+03  0.00000000000E+00 0. -1.
         22    1    5    5    0    0  0.30433512695E+03 -0.14789325482E+03 -0.31895525840E+03  0.46499972170E+03  0.00000000000E+00 0. -1.
          5    1    4    4  502    0 -0.12421804543E+02  0.27319556696E+02 -0.31736169790E+02  0.43931012726E+02  0.47000000000E+01 0. -1.
         -5    1    4    4    0  502  0.15277278154E+03 -0.38993266828E+02 -0.13842933957E+03  0.20986845807E+03  0.47000000000E+01 0. -1.
<mgrwt>
<rscale>  0 0.10007110E+04</rscale>
<asrwt>0</asrwt>
<pdfrwt beam="1">  1        2 0.35380793E-01 0.10007110E+04</pdfrwt>
<pdfrwt beam="2">  1       -2 0.16748007E+00 0.10007110E+04</pdfrwt>
<totfact> 0.36610803E+01</totfact>
</mgrwt>
</event>
<event>
 9    1  0.4246427E-036  0.1003335E+04  0.7818608E-02  0.8677868E-01
         -2   -1    0    0    0  501 -0.00000000000E+00  0.00000000000E+00  0.16277672530E+03  0.16277672530E+03  0.00000000000E+00 0. -1.
          2   -1    0    0  501    0  0.00000000000E+00 -0.00000000000E+00 -0.15461077985E+04  0.15461077985E+04  0.00000000000E+00 0. -1.
         36    2    1    2    0    0 -0.28421709430E-13  0.71054273576E-14 -0.13833310732E+04  0.17088845238E+04  0.10033351671E+04 0.  0.
         25    2    3    3    0    0 -0.51223146907E+02  0.55308739491E+02 -0.47287704819E+03  0.49463645456E+03  0.12397440072E+03 0.  0.
         35    2    3    3    0    0  0.51223146907E+02 -0.55308739491E+02 -0.91045402501E+03  0.12142480692E+04  0.79986809822E+03 0.  0.
         22    1    5    5    0    0  0.34697131803E+03  0.56985168779E+02 -0.80886738089E+03  0.88198800721E+03  0.00000000000E+00 0. -1.
         22    1    5    5    0    0 -0.29574817112E+03 -0.11229390827E+03 -0.10158664412E+03  0.33226006203E+03  0.00000000000E+00 0. -1.
          5    1    4    4  502    0 -0.16150080063E+02  0.91545477399E+02 -0.33732807971E+03  0.34993388358E+03  0.47000000000E+01 0.  1.
         -5    1    4    4    0  502 -0.35073066844E+02 -0.36236737908E+02 -0.13554896848E+03  0.14470257098E+03  0.47000000000E+01 0.  1.
<mgrwt>
<rscale>  0 0.10033352E+04</rscale>
<asrwt>0</asrwt>
<pdfrwt beam="1">  1        2 0.23786273E+00 0.10033352E+04</pdfrwt>
<pdfrwt beam="2">  1       -2 0.25042574E-01 0.10033352E+04</pdfrwt>
<totfact> 0.20405242E+02</totfact>
</mgrwt>
</event>
<event>
 9    1  0.4246427E-036  0.9992891E+03  0.7818608E-02  0.8681715E-01
          2   -1    0    0  501    0  0.00000000000E+00  0.00000000000E+00  0.17645096527E+04  0.17645096527E+04  0.00000000000E+00 0.  1.
         -2   -1    0    0    0  501 -0.00000000000E+00 -0.00000000000E+00 -0.14148104955E+03  0.14148104955E+03  0.00000000000E+00 0.  1.
         36    2    1    2    0    0  0.24868995752E-13 -0.14210854715E-13  0.16230286031E+04  0.19059907022E+04  0.99928910252E+03 0.  0.
         25    2    3    3    0    0  0.17993572573E+02  0.34880820075E+02  0.57124752760E+02  0.14250740235E+03  0.12451779826E+03 0.  0.
         35    2    3    3    0    0 -0.17993572573E+02 -0.34880820075E+02  0.15659038503E+04  0.17634832999E+04  0.81010989384E+03 0.  0.
         22    1    5    5    0    0 -0.36722253585E+03 -0.20366239866E+03  0.89274786694E+03  0.98657463853E+03  0.00000000000E+00 0. -1.
         22    1    5    5    0    0  0.34922896327E+03  0.16878157859E+03  0.67315598340E+03  0.77690866133E+03  0.00000000000E+00 0. -1.
          5    1    4    4  502    0  0.19227747295E+02 -0.41211408470E+02 -0.23929021992E+01  0.45781027021E+02  0.47000000000E+01 0. -1.
         -5    1    4    4    0  502 -0.12341747221E+01  0.76092228546E+02  0.59517654960E+02  0.96726375329E+02  0.47000000000E+01 0. -1.
<mgrwt>
<rscale>  0 0.99928910E+03</rscale>
<asrwt>0</asrwt>
<pdfrwt beam="1">  1        2 0.27146301E+00 0.99928910E+03</pdfrwt>
<pdfrwt beam="2">  1       -2 0.21766317E-01 0.99928910E+03</pdfrwt>
<totfact> 0.19670188E+02</totfact>
</mgrwt>
</event>
<event>
 9    1  0.4246427E-036  0.1001153E+04  0.7818608E-02  0.8679941E-01
          2   -1    0    0  501    0  0.00000000000E+00  0.00000000000E+00  0.48165094733E+03  0.48165094733E+03  0.00000000000E+00 0.  1.
         -2   -1    0    0    0  501 -0.00000000000E+00 -0.00000000000E+00 -0.52024586795E+03  0.52024586795E+03  0.00000000000E+00 0.  1.
         36    2    1    2    0    0  0.00000000000E+00 -0.71054273576E-14 -0.38594920622E+02  0.10018968153E+04  0.10011531654E+04 0.  0.
         25    2    3    3    0    0 -0.46817721716E+02  0.18100554664E+02 -0.13993333687E+03  0.19285118528E+03  0.12284425811E+03 0.  0.
         35    2    3    3    0    0  0.46817721716E+02 -0.18100554664E+02  0.10133841625E+03  0.80904563000E+03  0.80110288207E+03 0.  0.
         22    1    5    5    0    0  0.58506327183E+02 -0.35487762305E+03 -0.14894333623E+03  0.38928811319E+03  0.00000000000E+00 0. -1.
         22    1    5    5    0    0 -0.11688605466E+02  0.33677706839E+03  0.25028175248E+03  0.41975751681E+03  0.00000000000E+00 0. -1.
          5    1    4    4  502    0 -0.73886068552E+02 -0.22379163777E+02 -0.11320445050E+03  0.13710330306E+03  0.47000000000E+01 0.  1.
         -5    1    4    4    0  502  0.27068346836E+02  0.40479718441E+02 -0.26728886372E+02  0.55747882222E+02  0.47000000000E+01 0.  1.
<mgrwt>
<rscale>  0 0.10011532E+04</rscale>
<asrwt>0</asrwt>
<pdfrwt beam="1">  1        2 0.74100146E-01 0.10011532E+04</pdfrwt>
<pdfrwt beam="2">  1       -2 0.80037825E-01 0.10011532E+04</pdfrwt>
<totfact> 0.10698247E+02</totfact>
</mgrwt>
</event>
<event>
 9    1  0.4246427E-036  0.9994066E+03  0.7818608E-02  0.8681603E-01
          1   -1    0    0  501    0  0.00000000000E+00  0.00000000000E+00  0.32183803646E+04  0.32183803646E+04  0.00000000000E+00 0.  1.
         -1   -1    0    0    0  501 -0.00000000000E+00 -0.00000000000E+00 -0.77586665377E+02  0.77586665377E+02  0.00000000000E+00 0.  1.
         36    2    1    2    0    0 -0.79936057773E-14 -0.24868995752E-13  0.31407936993E+04  0.32959670300E+04  0.99940662477E+03 0.  0.
         25    2    3    3    0    0  0.73490290576E+01  0.23803043226E+02  0.10493434542E+04  0.10564200954E+04  0.11950372351E+03 0.  0.
         35    2    3    3    0    0 -0.73490290576E+01 -0.23803043226E+02  0.20914502450E+04  0.22395469346E+04  0.80049094424E+03 0.  0.
         22    1    5    5    0    0  0.10903642739E+03  0.37232364051E+03  0.10253289904E+04  0.10962724909E+04  0.00000000000E+00 0. -1.
         22    1    5    5    0    0 -0.11638545645E+03 -0.39612668374E+03  0.10661212547E+04  0.11432744437E+04  0.00000000000E+00 0. -1.
          5    1    4    4  502    0 -0.60134191725E+01 -0.21609070561E+02  0.88585891346E+03  0.88615530112E+03  0.47000000000E+01 0.  1.
         -5    1    4    4    0  502  0.13362448230E+02  0.45412113787E+02  0.16348454078E+03  0.17026479429E+03  0.47000000000E+01 0.  1.
<mgrwt>
<rscale>  0 0.99940662E+03</rscale>
<asrwt>0</asrwt>
<pdfrwt beam="1">  1        1 0.49513534E+00 0.99940662E+03</pdfrwt>
<pdfrwt beam="2">  1       -1 0.11936413E-01 0.99940662E+03</pdfrwt>
<totfact> 0.19997529E+01</totfact>
</mgrwt>
</event>
<event>
 9    1  0.4246427E-036  0.9998227E+03  0.7818608E-02  0.8681207E-01
         -2   -1    0    0    0  501 -0.00000000000E+00  0.00000000000E+00  0.11977939197E+03  0.11977939197E+03  0.00000000000E+00 0. -1.
          2   -1    0    0  501    0  0.00000000000E+00 -0.00000000000E+00 -0.20864304064E+04  0.20864304064E+04  0.00000000000E+00 0. -1.
         36    2    1    2    0    0  0.71054273576E-14  0.00000000000E+00 -0.19666510145E+04  0.22062097984E+04  0.99982271521E+03 0.  0.
         25    2    3    3    0    0  0.31096411791E+02  0.13260457738E+03 -0.29319752195E+03  0.34653289443E+03  0.12477699820E+03 0.  0.
         35    2    3    3    0    0 -0.31096411791E+02 -0.13260457738E+03 -0.16734534925E+04  0.18596769040E+04  0.79962530898E+03 0.  0.
         22    1    5    5    0    0 -0.83019341377E+02 -0.43160024964E+03 -0.59745982913E+03  0.74170697311E+03  0.00000000000E+00 0.  1.
         22    1    5    5    0    0  0.51922929586E+02  0.29899567227E+03 -0.10759936634E+04  0.11179699309E+04  0.00000000000E+00 0.  1.
          5    1    4    4  502    0 -0.44133670118E+02  0.57198885623E+02 -0.78311366655E+02  0.10665014534E+03  0.47000000000E+01 0.  1.
         -5    1    4    4    0  502  0.75230081909E+02  0.75405691756E+02 -0.21488615529E+03  0.23988274909E+03  0.47000000000E+01 0.  1.
<mgrwt>
<rscale>  0 0.99982272E+03</rscale>
<asrwt>0</asrwt>
<pdfrwt beam="1">  1        2 0.32098929E+00 0.99982272E+03</pdfrwt>
<pdfrwt beam="2">  1       -2 0.18427599E-01 0.99982272E+03</pdfrwt>
<totfact> 0.17226290E+02</totfact>
</mgrwt>
</event>
<event>
 9    1  0.4246427E-036  0.1000640E+04  0.7818608E-02  0.8680429E-01
          1   -1    0    0  501    0  0.00000000000E+00  0.00000000000E+00  0.33842324760E+03  0.33842324760E+03  0.00000000000E+00 0. -1.
         -1   -1    0    0    0  501 -0.00000000000E+00 -0.00000000000E+00 -0.73966558639E+03  0.73966558639E+03  0.00000000000E+00 0. -1.
         36    2    1    2    0    0  0.71054273576E-14  0.14210854715E-13 -0.40124233878E+03  0.10780888340E+04  0.10006398551E+04 0.  0.
         25    2    3    3    0    0 -0.50672465036E+02  0.92038339558E+02 -0.16930894883E+03  0.23453656048E+03  0.12370579368E+03 0.  0.
         35    2    3    3    0    0  0.50672465036E+02 -0.92038339558E+02 -0.23193338996E+03  0.84355227351E+03  0.80420680556E+03 0.  0.
         22    1    5    5    0    0 -0.10836791699E+03 -0.10406036646E+02  0.28047126136E+03  0.30085880323E+03  0.00000000000E+00 0.  1.
         22    1    5    5    0    0  0.15904038203E+03 -0.81632302912E+02 -0.51240465131E+03  0.54269347028E+03  0.00000000000E+00 0.  1.
          5    1    4    4  502    0 -0.57794426542E+02  0.80641153628E+02 -0.18705224568E+03  0.21178721399E+03  0.47000000000E+01 0.  1.
         -5    1    4    4    0  502  0.71219615059E+01  0.11397185929E+02  0.17743296849E+02  0.22749346493E+02  0.47000000000E+01 0.  1.
<mgrwt>
<rscale>  0 0.10006399E+04</rscale>
<asrwt>0</asrwt>
<pdfrwt beam="1">  1        1 0.52065115E-01 0.10006399E+04</pdfrwt>
<pdfrwt beam="2">  1       -1 0.11379471E+00 0.10006399E+04</pdfrwt>
<totfact> 0.63397112E+01</totfact>
</mgrwt>
</event>
<event>
 9    1  0.4246427E-036  0.1000596E+04  0.7818608E-02  0.8680471E-01
          2   -1    0    0  501    0  0.00000000000E+00  0.00000000000E+00  0.31483833555E+04  0.31483833555E+04  0.00000000000E+00 0. -1.
         -2   -1    0    0    0  501 -0.00000000000E+00 -0.00000000000E+00 -0.79500473021E+02  0.79500473021E+02  0.00000000000E+00 0. -1.
         36    2    1    2    0    0  0.71054273576E-14  0.14210854715E-13  0.30688828824E+04  0.32278838285E+04  0.10005957546E+04 0.  0.
         25    2    3    3    0    0  0.48519303047E+02 -0.12491210248E+03  0.49541389038E+03  0.52823376802E+03  0.12505532689E+03 0.  0.
         35    2    3    3    0    0 -0.48519303047E+02  0.12491210248E+03  0.25734689921E+04  0.26996500605E+04  0.80461831928E+03 0.  0.
         22    1    5    5    0    0  0.10360519684E+03 -0.23595185467E+03  0.19244928273E+04  0.19416693737E+04  0.00000000000E+00 0.  1.
         22    1    5    5    0    0 -0.15212449989E+03  0.36086395715E+03  0.64897616477E+03  0.75798068674E+03  0.00000000000E+00 0.  1.
          5    1    4    4  502    0  0.45348859531E+02 -0.12610824202E+03  0.50191837367E+03  0.51952281143E+03  0.47000000000E+01 0. -1.
         -5    1    4    4    0  502  0.31704435162E+01  0.11961395339E+01 -0.65044832924E+01  0.87109565936E+01  0.47000000000E+01 0. -1.
<mgrwt>
<rscale>  0 0.10005958E+04</rscale>
<asrwt>0</asrwt>
<pdfrwt beam="1">  1        2 0.48436657E+00 0.10005958E+04</pdfrwt>
<pdfrwt beam="2">  1       -2 0.12230844E-01 0.10005958E+04</pdfrwt>
<totfact> 0.74490466E+01</totfact>
</mgrwt>
</event>
<event>
 9    1  0.4246427E-036  0.1000131E+04  0.7818608E-02  0.8680913E-01
          2   -1    0    0  501    0  0.00000000000E+00  0.00000000000E+00  0.99863223106E+03  0.99863223106E+03  0.00000000000E+00 0. -1.
         -2   -1    0    0    0  501 -0.00000000000E+00 -0.00000000000E+00 -0.25040820980E+03  0.25040820980E+03  0.00000000000E+00 0. -1.
         36    2    1    2    0    0  0.28421709430E-13  0.00000000000E+00  0.74822402125E+03  0.12490404409E+04  0.10001314098E+04 0.  0.
         25    2    3    3    0    0  0.74302853222E+02  0.92738266833E+02  0.23202341179E+03  0.29019023967E+03  0.12749200543E+03 0.  0.
         35    2    3    3    0    0 -0.74302853222E+02 -0.92738266833E+02  0.51620060946E+03  0.95885020119E+03  0.79925549043E+03 0.  0.
         22    1    5    5    0    0  0.21916015819E+03  0.10037493433E+03 -0.90745801512E+02  0.25756766659E+03  0.00000000000E+00 0. -1.
         22    1    5    5    0    0 -0.29346301142E+03 -0.19311320117E+03  0.60694641098E+03  0.70128253460E+03  0.00000000000E+00 0. -1.
          5    1    4    4  502    0 -0.12282671260E+02  0.22437287744E+02 -0.65260139680E+01  0.26813704572E+02  0.47000000000E+01 0. -1.
         -5    1    4    4    0  502  0.86585524482E+02  0.70300979089E+02  0.23854942576E+03  0.26337653510E+03  0.47000000000E+01 0. -1.
<mgrwt>
<rscale>  0 0.10001314E+04</rscale>
<asrwt>0</asrwt>
<pdfrwt beam="1">  1        2 0.15363573E+00 0.10001314E+04</pdfrwt>
<pdfrwt beam="2">  1       -2 0.38524340E-01 0.10001314E+04</pdfrwt>
<totfact> 0.19417718E+02</totfact>
</mgrwt>
</event>
<event>
 9    1  0.4246427E-036  0.1001638E+04  0.7818608E-02  0.8679480E-01
         -2   -1    0    0    0  501 -0.00000000000E+00  0.00000000000E+00  0.35187607641E+03  0.35187607641E+03  0.00000000000E+00 0.  1.
          2   -1    0    0  501    0  0.00000000000E+00 -0.00000000000E+00 -0.71280699016E+03  0.71280699016E+03  0.00000000000E+00 0.  1.
         36    2    1    2    0    0 -0.14210854715E-13  0.14210854715E-13 -0.36093091374E+03  0.10646830666E+04  0.10016381122E+04 0.  0.
         25    2    3    3    0    0 -0.83428167674E+02  0.84803409254E+02  0.11953233432E+02  0.17357559193E+03  0.12583214589E+03 0.  0.
         35    2    3    3    0    0  0.83428167674E+02 -0.84803409254E+02 -0.37288414717E+03  0.89110747464E+03  0.80054860363E+03 0.  0.
         22    1    5    5    0    0  0.25699308629E+03 -0.38042526139E+03 -0.15335131489E+03  0.48403042434E+03  0.00000000000E+00 0.  1.
         22    1    5    5    0    0 -0.17356491862E+03  0.29562185214E+03 -0.21953283228E+03  0.40707705030E+03  0.00000000000E+00 0.  1.
          5    1    4    4  502    0 -0.79061923895E+02  0.10930640600E+03 -0.15912012339E+02  0.13591894768E+03  0.47000000000E+01 0. -1.
         -5    1    4    4    0  502 -0.43662437795E+01 -0.24502996741E+02  0.27865245770E+02  0.37656644246E+02  0.47000000000E+01 0. -1.
<mgrwt>
<rscale>  0 0.10016381E+04</rscale>
<asrwt>0</asrwt>
<pdfrwt beam="1">  1        2 0.10966261E+00 0.10016381E+04</pdfrwt>
<pdfrwt beam="2">  1       -2 0.54134781E-01 0.10016381E+04</pdfrwt>
<totfact> 0.15571728E+02</totfact>
</mgrwt>
</event>
<event>
 9    1  0.4246427E-036  0.9977636E+03  0.7818608E-02  0.8683171E-01
          1   -1    0    0  501    0  0.00000000000E+00  0.00000000000E+00  0.97497170055E+03  0.97497170055E+03  0.00000000000E+00 0.  1.
         -1   -1    0    0    0  501 -0.00000000000E+00 -0.00000000000E+00 -0.25527207412E+03  0.25527207412E+03  0.00000000000E+00 0.  1.
         36    2    1    2    0    0 -0.10658141036E-13  0.00000000000E+00  0.71969962643E+03  0.12302437747E+04  0.99776359566E+03 0.  0.
         25    2    3    3    0    0 -0.20305969630E+02  0.13718123177E+03  0.12234981877E+03  0.22276655209E+03  0.12419515217E+03 0.  0.
         35    2    3    3    0    0  0.20305969630E+02 -0.13718123177E+03  0.59734980766E+03  0.10074772226E+04  0.79934506852E+03 0.  0.
         22    1    5    5    0    0 -0.50229475727E+02 -0.46830610525E+03  0.31480677353E+03  0.56651294169E+03  0.00000000000E+00 0.  1.
         22    1    5    5    0    0  0.70535445357E+02  0.33112487348E+03  0.28254303413E+03  0.44096428089E+03  0.00000000000E+00 0.  1.
          5    1    4    4  502    0  0.27836248326E+02  0.11875119339E+03  0.45825518226E+02  0.13037933415E+03  0.47000000000E+01 0.  1.
         -5    1    4    4    0  502 -0.48142217955E+02  0.18430038378E+02  0.76524300549E+02  0.92387217941E+02  0.47000000000E+01 0.  1.
<mgrwt>
<rscale>  0 0.99776360E+03</rscale>
<asrwt>0</asrwt>
<pdfrwt beam="1">  1        1 0.14999564E+00 0.99776360E+03</pdfrwt>
<pdfrwt beam="2">  1       -1 0.39272627E-01 0.99776360E+03</pdfrwt>
<totfact> 0.11184908E+02</totfact>
</mgrwt>
</event>
<event>
 9    1  0.4246427E-036  0.1000266E+04  0.7818608E-02  0.8680784E-01
         -2   -1    0    0    0  501 -0.00000000000E+00  0.00000000000E+00  0.85288368268E+02  0.85288368268E+02  0.00000000000E+00 0.  1.
          2   -1    0    0  501    0  0.00000000000E+00 -0.00000000000E+00 -0.29327936880E+04  0.29327936880E+04  0.00000000000E+00 0.  1.
         36    2    1    2    0    0  0.00000000000E+00  0.71054273576E-14 -0.28475053198E+04  0.30180820563E+04  0.10002663408E+04 0.  0.
         25    2    3    3    0    0  0.13312206418E+03  0.14551840726E+02 -0.66049508334E+03  0.68523296087E+03  0.12392423295E+03 0.  0.
         35    2    3    3    0    0 -0.13312206418E+03 -0.14551840726E+02 -0.21870102364E+04  0.23328490954E+04  0.80077330610E+03 0.  0.
         22    1    5    5    0    0  0.63647645623E+02  0.10679798072E+03  0.90497656311E+01  0.12465444131E+03  0.00000000000E+00 0. -1.
         22    1    5    5    0    0 -0.19676970980E+03 -0.12134982145E+03 -0.21960600021E+04  0.22081946541E+04  0.00000000000E+00 0. -1.
          5    1    4    4  502    0 -0.93149800318E+01 -0.31096815113E+02 -0.11610445277E+03  0.12064872447E+03  0.47000000000E+01 0.  1.
         -5    1    4    4    0  502  0.14243704421E+03  0.45648655840E+02 -0.54439063057E+03  0.56458423640E+03  0.47000000000E+01 0.  1.
<mgrwt>
<rscale>  0 0.10002663E+04</rscale>
<asrwt>0</asrwt>
<pdfrwt beam="1">  1        2 0.45119911E+00 0.10002663E+04</pdfrwt>
<pdfrwt beam="2">  1       -2 0.13121285E-01 0.10002663E+04</pdfrwt>
<totfact> 0.92677732E+01</totfact>
</mgrwt>
</event>
<event>
 9    1  0.4246427E-036  0.9989935E+03  0.7818608E-02  0.8681997E-01
         -1   -1    0    0    0  501 -0.00000000000E+00  0.00000000000E+00  0.43729627636E+03  0.43729627636E+03  0.00000000000E+00 0.  1.
          1   -1    0    0  501    0  0.00000000000E+00 -0.00000000000E+00 -0.57054451662E+03  0.57054451662E+03  0.00000000000E+00 0.  1.
         36    2    1    2    0    0  0.14210854715E-13 -0.56843418861E-13 -0.13324824027E+03  0.10078407930E+04  0.99899347869E+03 0.  0.
         25    2    3    3    0    0 -0.52427043687E+02  0.86027013774E+02 -0.12307178655E+03  0.20233466003E+03  0.12507361031E+03 0.  0.
         35    2    3    3    0    0  0.52427043687E+02 -0.86027013774E+02 -0.10176453718E+02  0.80550613295E+03  0.79911659224E+03 0.  0.
         22    1    5    5    0    0  0.45863933860E+02  0.18314266767E+03 -0.33442737173E+03  0.38403958665E+03  0.00000000000E+00 0.  1.
         22    1    5    5    0    0  0.65631098268E+01 -0.26916968144E+03  0.32425091801E+03  0.42146654630E+03  0.00000000000E+00 0.  1.
          5    1    4    4  502    0  0.37486548257E+02  0.40307762237E+02 -0.66975195465E+02  0.86820065678E+02  0.47000000000E+01 0.  1.
         -5    1    4    4    0  502 -0.89913591944E+02  0.45719251537E+02 -0.56096591086E+02  0.11551459435E+03  0.47000000000E+01 0.  1.
<mgrwt>
<rscale>  0 0.99899348E+03</rscale>
<asrwt>0</asrwt>
<pdfrwt beam="1">  1        1 0.87776080E-01 0.99899348E+03</pdfrwt>
<pdfrwt beam="2">  1       -1 0.67276350E-01 0.99899348E+03</pdfrwt>
<totfact> 0.96288694E+01</totfact>
</mgrwt>
</event>
<event>
 9    1  0.4246427E-036  0.1000136E+04  0.7818608E-02  0.8680908E-01
         -1   -1    0    0    0  501 -0.00000000000E+00  0.00000000000E+00  0.70025994965E+02  0.70025994965E+02  0.00000000000E+00 0.  1.
          1   -1    0    0  501    0  0.00000000000E+00 -0.00000000000E+00 -0.35710749188E+04  0.35710749188E+04  0.00000000000E+00 0.  1.
         36    2    1    2    0    0  0.14210854715E-13  0.28421709430E-13 -0.35010489238E+04  0.36411009137E+04  0.10001361393E+04 0.  0.
         25    2    3    3    0    0 -0.85760312791E+02  0.10973535108E+03 -0.59334249257E+03  0.62211606609E+03  0.12480547932E+03 0.  0.
         35    2    3    3    0    0  0.85760312791E+02 -0.10973535108E+03 -0.29077064312E+04  0.30189848476E+04  0.80007258518E+03 0.  0.
         22    1    5    5    0    0  0.53415583781E+01 -0.44927384049E+03 -0.13548533966E+04  0.14274113781E+04  0.00000000000E+00 0.  1.
         22    1    5    5    0    0  0.80418754413E+02  0.33953848941E+03 -0.15528530346E+04  0.15915734696E+04  0.00000000000E+00 0.  1.
          5    1    4    4  502    0  0.30433843444E+01 -0.18533467700E+02 -0.16669060832E+03  0.16781120497E+03  0.47000000000E+01 0.  1.
         -5    1    4    4    0  502 -0.88803697136E+02  0.12826881878E+03 -0.42665188425E+03  0.45430486112E+03  0.47000000000E+01 0.  1.
<mgrwt>
<rscale>  0 0.10001361E+04</rscale>
<asrwt>0</asrwt>
<pdfrwt beam="1">  1        1 0.54939624E+00 0.10001361E+04</pdfrwt>
<pdfrwt beam="2">  1       -1 0.10773228E-01 0.10001361E+04</pdfrwt>
<totfact> 0.12938246E+01</totfact>
</mgrwt>
</event>
<event>
 9    1  0.4246427E-036  0.1001103E+04  0.7818608E-02  0.8679988E-01
         -3   -1    0    0    0  501 -0.00000000000E+00  0.00000000000E+00  0.39176327612E+03  0.39176327612E+03  0.00000000000E+00 0. -1.
          3   -1    0    0  501    0  0.00000000000E+00 -0.00000000000E+00 -0.63954930264E+03  0.63954930264E+03  0.00000000000E+00 0. -1.
         36    2    1    2    0    0  0.28421709430E-13 -0.14210854715E-13 -0.24778602652E+03  0.10313125788E+04  0.10011032515E+04 0.  0.
         25    2    3    3    0    0 -0.13482488749E+03  0.25693400576E+02 -0.79440722684E+02  0.20185822901E+03  0.12489201367E+03 0.  0.
         35    2    3    3    0    0  0.13482488749E+03 -0.25693400576E+02 -0.16834530384E+03  0.82945434975E+03  0.80051013477E+03 0.  0.
         22    1    5    5    0    0  0.31183575319E+03  0.24979574117E+03 -0.27503054626E+03  0.48505798689E+03  0.00000000000E+00 0.  1.
         22    1    5    5    0    0 -0.17701086570E+03 -0.27548914175E+03  0.10668524242E+03  0.34439636286E+03  0.00000000000E+00 0.  1.
          5    1    4    4  502    0 -0.12385778710E+03  0.50750790207E+02 -0.10014342071E+03  0.16723393449E+03  0.47000000000E+01 0. -1.
         -5    1    4    4    0  502 -0.10967100381E+02 -0.25057389630E+02  0.20702698022E+02  0.34624294523E+02  0.47000000000E+01 0. -1.
<mgrwt>
<rscale>  0 0.10011033E+04</rscale>
<asrwt>0</asrwt>
<pdfrwt beam="1">  1        3 0.98392199E-01 0.10011033E+04</pdfrwt>
<pdfrwt beam="2">  1       -3 0.60271274E-01 0.10011033E+04</pdfrwt>
<totfact> 0.10079756E+01</totfact>
</mgrwt>
</event>
<event>
 9    1  0.4246427E-036  0.9993969E+03  0.7818608E-02  0.8681612E-01
         -2   -1    0    0    0  501 -0.00000000000E+00  0.00000000000E+00  0.21690897689E+03  0.21690897689E+03  0.00000000000E+00 0.  1.
          2   -1    0    0  501    0  0.00000000000E+00 -0.00000000000E+00 -0.11511674456E+04  0.11511674456E+04  0.00000000000E+00 0.  1.
         36    2    1    2    0    0  0.35527136788E-13  0.00000000000E+00 -0.93425846875E+03  0.13680764225E+04  0.99939692387E+03 0.  0.
         25    2    3    3    0    0  0.39369286506E+02  0.13259572551E+03 -0.17652765544E+03  0.25756395913E+03  0.12667127837E+03 0.  0.
         35    2    3    3    0    0 -0.39369286506E+02 -0.13259572551E+03 -0.75773081331E+03  0.11105124634E+04  0.79996898613E+03 0.  0.
         22    1    5    5    0    0  0.23088494097E+03 -0.78208142672E+02  0.57051366909E+02  0.25035819942E+03  0.00000000000E+00 0.  1.
         22    1    5    5    0    0 -0.27025422748E+03 -0.54387582834E+02 -0.81478218022E+03  0.86015426398E+03  0.00000000000E+00 0.  1.
          5    1    4    4  502    0 -0.20097058608E+02  0.89711431956E+02 -0.15624815977E+03  0.18134941472E+03  0.47000000000E+01 0. -1.
         -5    1    4    4    0  502  0.59466345114E+02  0.42884293549E+02 -0.20279495669E+02  0.76214544406E+02  0.47000000000E+01 0. -1.
<mgrwt>
<rscale>  0 0.99939692E+03</rscale>
<asrwt>0</asrwt>
<pdfrwt beam="1">  1        2 0.17710268E+00 0.99939692E+03</pdfrwt>
<pdfrwt beam="2">  1       -2 0.33370612E-01 0.99939692E+03</pdfrwt>
<totfact> 0.20501603E+02</totfact>
</mgrwt>
</event>
<event>
 9    1  0.4246427E-036  0.1000578E+04  0.7818608E-02  0.8680488E-01
          2   -1    0    0  501    0  0.00000000000E+00  0.00000000000E+00  0.10254299214E+04  0.10254299214E+04  0.00000000000E+00 0. -1.
         -2   -1    0    0    0  501 -0.00000000000E+00 -0.00000000000E+00 -0.24408212655E+03  0.24408212655E+03  0.00000000000E+00 0. -1.
         36    2    1    2    0    0  0.00000000000E+00  0.00000000000E+00  0.78134779483E+03  0.12695120479E+04  0.10005780646E+04 0.  0.
         25    2    3    3    0    0 -0.12601307119E+03  0.55628040454E+02  0.12397938059E+03  0.22548993529E+03  0.12845641717E+03 0.  0.
         35    2    3    3    0    0  0.12601307119E+03 -0.55628040454E+02  0.65736841424E+03  0.10440221126E+04  0.79929666998E+03 0.  0.
         22    1    5    5    0    0  0.25515094509E+03  0.52046030449E+02 -0.91880519949E+02  0.27613913887E+03  0.00000000000E+00 0. -1.
         22    1    5    5    0    0 -0.12913787390E+03 -0.10767407090E+03  0.74924893419E+03  0.76788297377E+03  0.00000000000E+00 0. -1.
          5    1    4    4  502    0 -0.92548743704E+02 -0.14455404852E+02  0.20465377087E+02  0.95995574637E+02  0.47000000000E+01 0.  1.
         -5    1    4    4    0  502 -0.33464327486E+02  0.70083445306E+02  0.10351400351E+03  0.12949436066E+03  0.47000000000E+01 0.  1.
<mgrwt>
<rscale>  0 0.10005781E+04</rscale>
<asrwt>0</asrwt>
<pdfrwt beam="1">  1        2 0.15775845E+00 0.10005781E+04</pdfrwt>
<pdfrwt beam="2">  1       -2 0.37551097E-01 0.10005781E+04</pdfrwt>
<totfact> 0.19611252E+02</totfact>
</mgrwt>
</event>
<event>
 9    1  0.4246427E-036  0.1000028E+04  0.7818608E-02  0.8681011E-01
         -1   -1    0    0    0  501 -0.00000000000E+00  0.00000000000E+00  0.27088937495E+03  0.27088937495E+03  0.00000000000E+00 0. -1.
          1   -1    0    0  501    0  0.00000000000E+00 -0.00000000000E+00 -0.92293825483E+03  0.92293825483E+03  0.00000000000E+00 0. -1.
         36    2    1    2    0    0  0.00000000000E+00  0.00000000000E+00 -0.65204887987E+03  0.11938276298E+04  0.10000283335E+04 0.  0.
         25    2    3    3    0    0 -0.72671891584E+02  0.11939535469E+03 -0.95311450806E+02  0.21057148861E+03  0.12537792714E+03 0.  0.
         35    2    3    3    0    0  0.72671891584E+02 -0.11939535469E+03 -0.55673742907E+03  0.98325614117E+03  0.79831047825E+03 0.  0.
         22    1    5    5    0    0 -0.15067309587E+03  0.18136269750E+03 -0.56108404018E+03  0.60861326802E+03  0.00000000000E+00 0.  1.
         22    1    5    5    0    0  0.22334498745E+03 -0.30075805218E+03  0.43466111175E+01  0.37464287315E+03  0.00000000000E+00 0.  1.
          5    1    4    4  502    0 -0.70610861865E+02  0.40790073851E+02 -0.10296367021E+03  0.13142804617E+03  0.47000000000E+01 0.  1.
         -5    1    4    4    0  502 -0.20610297190E+01  0.78605280834E+02  0.76522194025E+01  0.79143442434E+02  0.47000000000E+01 0.  1.
<mgrwt>
<rscale>  0 0.10000283E+04</rscale>
<asrwt>0</asrwt>
<pdfrwt beam="1">  1        1 0.14199050E+00 0.10000283E+04</pdfrwt>
<pdfrwt beam="2">  1       -1 0.41675288E-01 0.10000283E+04</pdfrwt>
<totfact> 0.11087804E+02</totfact>
</mgrwt>
</event>
<event>
 9    1  0.4246427E-036  0.1000343E+04  0.7818608E-02  0.8680711E-01
         -2   -1    0    0    0  501 -0.00000000000E+00  0.00000000000E+00  0.30219115164E+03  0.30219115164E+03  0.00000000000E+00 0. -1.
          2   -1    0    0  501    0  0.00000000000E+00 -0.00000000000E+00 -0.82785893857E+03  0.82785893857E+03  0.00000000000E+00 0. -1.
         36    2    1    2    0    0  0.00000000000E+00 -0.35527136788E-14 -0.52566778692E+03  0.11300500902E+04  0.10003432332E+04 0.  0.
         25    2    3    3    0    0  0.13181164255E+03 -0.18229241715E+02 -0.58438586605E+02  0.19375016132E+03  0.12813056717E+03 0.  0.
         35    2    3    3    0    0 -0.13181164255E+03  0.18229241715E+02 -0.46722920032E+03  0.93629992889E+03  0.80040478312E+03 0.  0.
         22    1    5    5    0    0 -0.10201455476E+03  0.27152333421E+03  0.10606177689E+03  0.30883813062E+03  0.00000000000E+00 0.  1.
         22    1    5    5    0    0 -0.29797087791E+02 -0.25329409250E+03 -0.57329097721E+03  0.62746179827E+03  0.00000000000E+00 0.  1.
          5    1    4    4  502    0  0.12431794513E+03  0.25974526368E+01  0.68794367232E+01  0.12462389374E+03  0.47000000000E+01 0.  1.
         -5    1    4    4    0  502  0.74936974216E+01 -0.20826694352E+02 -0.65318023328E+02  0.69126267584E+02  0.47000000000E+01 0.  1.
<mgrwt>
<rscale>  0 0.10003432E+04</rscale>
<asrwt>0</asrwt>
<pdfrwt beam="1">  1        2 0.12736291E+00 0.10003432E+04</pdfrwt>
<pdfrwt beam="2">  1       -2 0.46490947E-01 0.10003432E+04</pdfrwt>
<totfact> 0.17464427E+02</totfact>
</mgrwt>
</event>
<event>
 9    1  0.4246427E-036  0.1000838E+04  0.7818608E-02  0.8680241E-01
          2   -1    0    0  501    0  0.00000000000E+00  0.00000000000E+00  0.23685680925E+03  0.23685680925E+03  0.00000000000E+00 0. -1.
         -2   -1    0    0    0  501 -0.00000000000E+00 -0.00000000000E+00 -0.10572588689E+04  0.10572588689E+04  0.00000000000E+00 0. -1.
         36    2    1    2    0    0  0.00000000000E+00  0.14210854715E-13 -0.82040205969E+03  0.12941156782E+04  0.10008375737E+04 0.  0.
         25    2    3    3    0    0 -0.13123390075E+03  0.11268105096E+02 -0.20810730756E+03  0.27614730083E+03  0.12489745153E+03 0.  0.
         35    2    3    3    0    0  0.13123390075E+03 -0.11268105096E+02 -0.61229475213E+03  0.10179683774E+04  0.80249949963E+03 0.  0.
         22    1    5    5    0    0  0.81848969888E+02  0.24856176201E+03  0.82621095134E+02  0.27442384875E+03  0.00000000000E+00 0. -1.
         22    1    5    5    0    0  0.49384930865E+02 -0.25982986710E+03 -0.69491584727E+03  0.74354452860E+03  0.00000000000E+00 0. -1.
          5    1    4    4  502    0 -0.17148987174E+02  0.21780849006E+01  0.16285534347E+02  0.24210337542E+02  0.47000000000E+01 0. -1.
         -5    1    4    4    0  502 -0.11408491358E+03  0.90900201959E+01 -0.22439284191E+03  0.25193696329E+03  0.47000000000E+01 0. -1.
<mgrwt>
<rscale>  0 0.10008376E+04</rscale>
<asrwt>0</asrwt>
<pdfrwt beam="1">  1        2 0.36439509E-01 0.10008376E+04</pdfrwt>
<pdfrwt beam="2">  1       -2 0.16265521E+00 0.10008376E+04</pdfrwt>
<totfact> 0.38542964E+01</totfact>
</mgrwt>
</event>
<event>
 9    1  0.4246427E-036  0.9998237E+03  0.7818608E-02  0.8681206E-01
          2   -1    0    0  501    0  0.00000000000E+00  0.00000000000E+00  0.24336762861E+04  0.24336762861E+04  0.00000000000E+00 0.  1.
         -2   -1    0    0    0  501 -0.00000000000E+00 -0.00000000000E+00 -0.10268903325E+03  0.10268903325E+03  0.00000000000E+00 0.  1.
         36    2    1    2    0    0 -0.28421709430E-13  0.00000000000E+00  0.23309872528E+04  0.25363653193E+04  0.99982371460E+03 0.  0.
         25    2    3    3    0    0  0.77046211690E+02 -0.56135668869E+02  0.16150210616E+03  0.22205789882E+03  0.11890941123E+03 0.  0.
         35    2    3    3    0    0 -0.77046211690E+02  0.56135668869E+02  0.21694851467E+04  0.23143074205E+04  0.80016604714E+03 0.  0.
         22    1    5    5    0    0  0.35565168682E+03  0.70517195806E+02  0.11750660837E+04  0.12297321246E+04  0.00000000000E+00 0.  1.
         22    1    5    5    0    0 -0.43269789851E+03 -0.14381526936E+02  0.99441906298E+03  0.10845752959E+04  0.00000000000E+00 0.  1.
          5    1    4    4  502    0  0.15467454958E+02 -0.80080744985E+02  0.62146846068E+02  0.10264739820E+03  0.47000000000E+01 0.  1.
         -5    1    4    4    0  502  0.61578756731E+02  0.23945076116E+02  0.99355260094E+02  0.11941050062E+03  0.47000000000E+01 0.  1.
<mgrwt>
<rscale>  0 0.99982371E+03</rscale>
<asrwt>0</asrwt>
<pdfrwt beam="1">  1        2 0.37441169E+00 0.99982371E+03</pdfrwt>
<pdfrwt beam="2">  1       -2 0.15798315E-01 0.99982371E+03</pdfrwt>
<totfact> 0.13998592E+02</totfact>
</mgrwt>
</event>
<event>
 9    1  0.4246427E-036  0.9985679E+03  0.7818608E-02  0.8682403E-01
         -2   -1    0    0    0  501 -0.00000000000E+00  0.00000000000E+00  0.14247078693E+03  0.14247078693E+03  0.00000000000E+00 0. -1.
          2   -1    0    0  501    0  0.00000000000E+00 -0.00000000000E+00 -0.17497234261E+04  0.17497234261E+04  0.00000000000E+00 0. -1.
         36    2    1    2    0    0  0.00000000000E+00 -0.35527136788E-13 -0.16072526392E+04  0.18921942131E+04  0.99856792143E+03 0.  0.
         25    2    3    3    0    0 -0.66369258670E+02 -0.49076919771E+02 -0.93535634362E+02  0.17687057814E+03  0.12538286950E+03 0.  0.
         35    2    3    3    0    0  0.66369258670E+02  0.49076919771E+02 -0.15137170048E+04  0.17153236349E+04  0.80260985492E+03 0.  0.
         22    1    5    5    0    0 -0.11906316856E+02  0.39111946642E+03 -0.11277185357E+04  0.11936772148E+04  0.00000000000E+00 0.  1.
         22    1    5    5    0    0  0.78275575526E+02 -0.34204254665E+03 -0.38599846918E+03  0.52164642015E+03  0.00000000000E+00 0.  1.
          5    1    4    4  502    0  0.89703284226E+01 -0.36501892082E+02 -0.92916774130E+02  0.10034177511E+03  0.47000000000E+01 0.  1.
         -5    1    4    4    0  502 -0.75339587093E+02 -0.12575027689E+02 -0.61886023215E+00  0.76528803027E+02  0.47000000000E+01 0.  1.
<mgrwt>
<rscale>  0 0.99856792E+03</rscale>
<asrwt>0</asrwt>
<pdfrwt beam="1">  1        2 0.26918821E+00 0.99856792E+03</pdfrwt>
<pdfrwt beam="2">  1       -2 0.21918583E-01 0.99856792E+03</pdfrwt>
<totfact> 0.19808699E+02</totfact>
</mgrwt>
</event>
<event>
 9    1  0.4246427E-036  0.1002928E+04  0.7818608E-02  0.8678255E-01
          1   -1    0    0  501    0  0.00000000000E+00  0.00000000000E+00  0.27572780034E+03  0.27572780034E+03  0.00000000000E+00 0. -1.
         -1   -1    0    0    0  501 -0.00000000000E+00 -0.00000000000E+00 -0.91200838563E+03  0.91200838563E+03  0.00000000000E+00 0. -1.
         36    2    1    2    0    0  0.42632564146E-13 -0.14210854715E-13 -0.63628058529E+03  0.11877361860E+04  0.10029278460E+04 0.  0.
         25    2    3    3    0    0 -0.49994809039E+02  0.12400208288E+03 -0.18648533120E+03  0.26019800636E+03  0.12267936366E+03 0.  0.
         35    2    3    3    0    0  0.49994809039E+02 -0.12400208288E+03 -0.44979525409E+03  0.92753817961E+03  0.80008456212E+03 0.  0.
         22    1    5    5    0    0 -0.36080906372E+03 -0.89100858979E+02 -0.33305086294E+03  0.49904410711E+03  0.00000000000E+00 0. -1.
         22    1    5    5    0    0  0.41080387276E+03 -0.34901223905E+02 -0.11674439115E+03  0.42849407250E+03  0.00000000000E+00 0. -1.
          5    1    4    4  502    0  0.88543940175E+01 -0.18658288685E+02 -0.46998144248E+01  0.21695858723E+02  0.47000000000E+01 0. -1.
         -5    1    4    4    0  502 -0.58849203057E+02  0.14266037157E+03 -0.18178551678E+03  0.23850214764E+03  0.47000000000E+01 0. -1.
<mgrwt>
<rscale>  0 0.10029278E+04</rscale>
<asrwt>0</asrwt>
<pdfrwt beam="1">  1        1 0.42419662E-01 0.10029278E+04</pdfrwt>
<pdfrwt beam="2">  1       -1 0.14030898E+00 0.10029278E+04</pdfrwt>
<totfact> 0.48437801E+01</totfact>
</mgrwt>
</event>
<event>
 9    1  0.4246427E-036  0.9987317E+03  0.7818608E-02  0.8682247E-01
          2   -1    0    0  501    0  0.00000000000E+00  0.00000000000E+00  0.31099836529E+04  0.31099836529E+04  0.00000000000E+00 0. -1.
         -2   -1    0    0    0  501 -0.00000000000E+00 -0.00000000000E+00 -0.80182497953E+02  0.80182497953E+02  0.00000000000E+00 0. -1.
         36    2    1    2    0    0  0.14210854715E-13  0.00000000000E+00  0.30298011549E+04  0.31901661508E+04  0.99873171148E+03 0.  0.
         25    2    3    3    0    0 -0.12112788336E+03 -0.10700065284E+02  0.34960831522E+03  0.39058332687E+03  0.12467119009E+03 0.  0.
         35    2    3    3    0    0  0.12112788336E+03  0.10700065284E+02  0.26801928397E+04  0.27995828239E+04  0.79965234612E+03 0.  0.
         22    1    5    5    0    0  0.46436494325E+03 -0.31830549878E+01  0.16072135861E+04  0.16729556012E+04  0.00000000000E+00 0.  1.
         22    1    5    5    0    0 -0.34323705989E+03  0.13883120272E+02  0.10729792536E+04  0.11266272227E+04  0.00000000000E+00 0.  1.
          5    1    4    4  502    0  0.20916710043E+02  0.16487181982E+02  0.82209730247E+02  0.86544010053E+02  0.47000000000E+01 0. -1.
         -5    1    4    4    0  502 -0.14204459340E+03 -0.27187247266E+02  0.26739858497E+03  0.30403931682E+03  0.47000000000E+01 0. -1.
<mgrwt>
<rscale>  0 0.99873171E+03</rscale>
<asrwt>0</asrwt>
<pdfrwt beam="1">  1        2 0.47845893E+00 0.99873171E+03</pdfrwt>
<pdfrwt beam="2">  1       -2 0.12335771E-01 0.99873171E+03</pdfrwt>
<totfact> 0.78058787E+01</totfact>
</mgrwt>
</event>
<event>
 9    1  0.4246427E-036  0.1000231E+04  0.7818608E-02  0.8680818E-01
          1   -1    0    0  501    0  0.00000000000E+00  0.00000000000E+00  0.28084211701E+03  0.28084211701E+03  0.00000000000E+00 0. -1.
         -1   -1    0    0    0  501 -0.00000000000E+00 -0.00000000000E+00 -0.89059047717E+03  0.89059047717E+03  0.00000000000E+00 0. -1.
         36    2    1    2    0    0  0.14210854715E-13  0.00000000000E+00 -0.60974836017E+03  0.11714325942E+04  0.10002306034E+04 0.  0.
         25    2    3    3    0    0  0.43124713312E+01 -0.12439812340E+03 -0.19235109634E+03  0.26077538490E+03  0.12454463695E+03 0.  0.
         35    2    3    3    0    0 -0.43124713312E+01  0.12439812340E+03 -0.41739726383E+03  0.91065720928E+03  0.79973907398E+03 0.  0.
         22    1    5    5    0    0 -0.21756041481E+03  0.24120320369E+03 -0.54621289368E+03  0.63549983854E+03  0.00000000000E+00 0. -1.
         22    1    5    5    0    0  0.21324794348E+03 -0.11680508029E+03  0.12881562985E+03  0.27515737074E+03  0.00000000000E+00 0. -1.
          5    1    4    4  502    0  0.49673092519E+02 -0.11311140743E+02 -0.36282887062E+02  0.62720777410E+02  0.47000000000E+01 0.  1.
         -5    1    4    4    0  502 -0.45360621188E+02 -0.11308698266E+03 -0.15606820928E+03  0.19805460749E+03  0.47000000000E+01 0.  1.
<mgrwt>
<rscale>  0 0.10002306E+04</rscale>
<asrwt>0</asrwt>
<pdfrwt beam="1">  1        1 0.43206479E-01 0.10002306E+04</pdfrwt>
<pdfrwt beam="2">  1       -1 0.13701392E+00 0.10002306E+04</pdfrwt>
<totfact> 0.50478322E+01</totfact>
</mgrwt>
</event>
<event>
 9    1  0.4246427E-036  0.9999235E+03  0.7818608E-02  0.8681111E-01
         -2   -1    0    0    0  501 -0.00000000000E+00  0.00000000000E+00  0.14512503273E+04  0.14512503273E+04  0.00000000000E+00 0.  1.
          2   -1    0    0  501    0  0.00000000000E+00 -0.00000000000E+00 -0.17223890140E+03  0.17223890140E+03  0.00000000000E+00 0.  1.
         36    2    1    2    0    0  0.14210854715E-13  0.00000000000E+00  0.12790114259E+04  0.16234892287E+04  0.99992352113E+03 0.  0.
         25    2    3    3    0    0  0.51128797778E+02  0.10471651354E+03  0.36542210715E+03  0.40337367598E+03  0.12488916650E+03 0.  0.
         35    2    3    3    0    0 -0.51128797778E+02 -0.10471651354E+03  0.91358931872E+03  0.12201155527E+04  0.80028545936E+03 0.  0.
         22    1    5    5    0    0  0.15063877682E+03 -0.28164478324E+03  0.89595370950E+03  0.95118288177E+03  0.00000000000E+00 0.  1.
         22    1    5    5    0    0 -0.20176757460E+03  0.17692826970E+03  0.17635609220E+02  0.26893267092E+03  0.00000000000E+00 0.  1.
          5    1    4    4  502    0  0.36694990205E+02 -0.40388363860E+01  0.20880997313E+03  0.21210028143E+03  0.47000000000E+01 0.  1.
         -5    1    4    4    0  502  0.14433807572E+02  0.10875534993E+03  0.15661213402E+03  0.19127339455E+03  0.47000000000E+01 0.  1.
<mgrwt>
<rscale>  0 0.99992352E+03</rscale>
<asrwt>0</asrwt>
<pdfrwt beam="1">  1        2 0.26498293E-01 0.99992352E+03</pdfrwt>
<pdfrwt beam="2">  1       -2 0.22326927E+00 0.99992352E+03</pdfrwt>
<totfact> 0.20832276E+01</totfact>
</mgrwt>
</event>
<event>
 9    1  0.4246427E-036  0.1001676E+04  0.7818608E-02  0.8679443E-01
          1   -1    0    0  501    0  0.00000000000E+00  0.00000000000E+00  0.83079661876E+03  0.83079661876E+03  0.00000000000E+00 0.  1.
         -1   -1    0    0    0  501 -0.00000000000E+00 -0.00000000000E+00 -0.30192556635E+03  0.30192556635E+03  0.00000000000E+00 0.  1.
         36    2    1    2    0    0  0.00000000000E+00 -0.28421709430E-13  0.52887105241E+03  0.11327221851E+04  0.10016760747E+04 0.  0.
         25    2    3    3    0    0 -0.19189102685E+02  0.13390292910E+03  0.55754805172E+02  0.19280656720E+03  0.12556893713E+03 0.  0.
         35    2    3    3    0    0  0.19189102685E+02 -0.13390292910E+03  0.47311624724E+03  0.93991561792E+03  0.80081469100E+03 0.  0.
         22    1    5    5    0    0 -0.54770649852E+01 -0.26427073818E+03 -0.14925701138E+03  0.30355671092E+03  0.00000000000E+00 0. -1.
         22    1    5    5    0    0  0.24666167670E+02  0.13036780908E+03  0.62237325862E+03  0.63635890700E+03  0.00000000000E+00 0. -1.
          5    1    4    4  502    0  0.14559968583E+02  0.83392728636E+02  0.89395628916E+02  0.12320717651E+03  0.47000000000E+01 0. -1.
         -5    1    4    4    0  502 -0.33749071267E+02  0.50510200462E+02 -0.33640823744E+02  0.69599390689E+02  0.47000000000E+01 0. -1.
<mgrwt>
<rscale>  0 0.10016761E+04</rscale>
<asrwt>0</asrwt>
<pdfrwt beam="1">  1        1 0.12781486E+00 0.10016761E+04</pdfrwt>
<pdfrwt beam="2">  1       -1 0.46450088E-01 0.10016761E+04</pdfrwt>
<totfact> 0.10897216E+02</totfact>
</mgrwt>
</event>
<event>
 9    1  0.4246427E-036  0.9996155E+03  0.7818608E-02  0.8681404E-01
         -2   -1    0    0    0  501 -0.00000000000E+00  0.00000000000E+00  0.14673168469E+03  0.14673168469E+03  0.00000000000E+00 0.  1.
          2   -1    0    0  501    0  0.00000000000E+00 -0.00000000000E+00 -0.17024802116E+04  0.17024802116E+04  0.00000000000E+00 0.  1.
         36    2    1    2    0    0 -0.14210854715E-13 -0.14210854715E-13 -0.15557485269E+04  0.18492118963E+04  0.99961550527E+03 0.  0.
         25    2    3    3    0    0  0.10254150142E+03 -0.51906074362E+02 -0.44053356152E+03  0.47225294424E+03  0.12547519455E+03 0.  0.
         35    2    3    3    0    0 -0.10254150142E+03  0.51906074362E+02 -0.11152149654E+04  0.13769589520E+04  0.79943888855E+03 0.  0.
         22    1    5    5    0    0 -0.22294647529E+03  0.17288972381E+03 -0.11653862659E+04  0.11990500974E+04  0.00000000000E+00 0. -1.
         22    1    5    5    0    0  0.12040497387E+03 -0.12098364945E+03  0.50171300472E+02  0.17790885464E+03  0.00000000000E+00 0. -1.
          5    1    4    4  502    0  0.15821528725E+01  0.56638773575E+01 -0.24228212369E+03  0.24239905151E+03  0.47000000000E+01 0. -1.
         -5    1    4    4    0  502  0.10095934855E+03 -0.57569951720E+02 -0.19825143783E+03  0.22985389272E+03  0.47000000000E+01 0. -1.
<mgrwt>
<rscale>  0 0.99961551E+03</rscale>
<asrwt>0</asrwt>
<pdfrwt beam="1">  1        2 0.26192002E+00 0.99961551E+03</pdfrwt>
<pdfrwt beam="2">  1       -2 0.22574107E-01 0.99961551E+03</pdfrwt>
<totfact> 0.20001359E+02</totfact>
</mgrwt>
</event>
<event>
 9    1  0.4246427E-036  0.9997713E+03  0.7818608E-02  0.8681256E-01
         -1   -1    0    0    0  501 -0.00000000000E+00  0.00000000000E+00  0.31103893706E+03  0.31103893706E+03  0.00000000000E+00 0.  1.
          1   -1    0    0  501    0  0.00000000000E+00 -0.00000000000E+00 -0.80339023810E+03  0.80339023810E+03  0.00000000000E+00 0.  1.
         36    2    1    2    0    0  0.14210854715E-13 -0.71054273576E-14 -0.49235130103E+03  0.11144291752E+04  0.99977126525E+03 0.  0.
         25    2    3    3    0    0 -0.56009490736E+02  0.54873454327E+02  0.31570651845E+02  0.15470325373E+03  0.12956940849E+03 0.  0.
         35    2    3    3    0    0  0.56009490736E+02 -0.54873454327E+02 -0.52392195288E+03  0.95972592143E+03  0.80026962488E+03 0.  0.
         22    1    5    5    0    0  0.41865363567E+03  0.35245291300E+02 -0.35331017758E+03  0.54894551533E+03  0.00000000000E+00 0. -1.
         22    1    5    5    0    0 -0.36264414493E+03 -0.90118745627E+02 -0.17061177530E+03  0.41078040610E+03  0.00000000000E+00 0. -1.
          5    1    4    4  502    0  0.36208078178E+02  0.44316627172E+02  0.21109727773E+02  0.61177601913E+02  0.47000000000E+01 0. -1.
         -5    1    4    4    0  502 -0.92217568914E+02  0.10556827156E+02  0.10460924072E+02  0.93525651820E+02  0.47000000000E+01 0. -1.
<mgrwt>
<rscale>  0 0.99977127E+03</rscale>
<asrwt>0</asrwt>
<pdfrwt beam="1">  1        1 0.12359850E+00 0.99977127E+03</pdfrwt>
<pdfrwt beam="2">  1       -1 0.47852145E-01 0.99977127E+03</pdfrwt>
<totfact> 0.10907274E+02</totfact>
</mgrwt>
</event>
<event>
 9    1  0.4246427E-036  0.9996885E+03  0.7818608E-02  0.8681335E-01
          2   -1    0    0  501    0  0.00000000000E+00  0.00000000000E+00  0.60457705781E+03  0.60457705781E+03  0.00000000000E+00 0.  1.
         -2   -1    0    0    0  501 -0.00000000000E+00 -0.00000000000E+00 -0.41325461310E+03  0.41325461310E+03  0.00000000000E+00 0.  1.
         36    2    1    2    0    0  0.71054273576E-14  0.14210854715E-13  0.19132244471E+03  0.10178316709E+04  0.99968846771E+03 0.  0.
         25    2    3    3    0    0  0.56241143188E+02  0.33274233327E+01 -0.94964470290E+02  0.16692903100E+03  0.12519150466E+03 0.  0.
         35    2    3    3    0    0 -0.56241143188E+02 -0.33274233327E+01  0.28628691500E+03  0.85090263992E+03  0.79931280923E+03 0.  0.
         22    1    5    5    0    0  0.48323620201E+02 -0.18767216840E+03  0.50828909684E+03  0.54397961453E+03  0.00000000000E+00 0.  1.
         22    1    5    5    0    0 -0.10456476339E+03  0.18434474507E+03 -0.22200218183E+03  0.30692302539E+03  0.00000000000E+00 0.  1.
          5    1    4    4  502    0  0.65669553641E+02 -0.49654382494E+02 -0.48446269873E+02  0.95640885822E+02  0.47000000000E+01 0. -1.
         -5    1    4    4    0  502 -0.94284104535E+01  0.52981805826E+02 -0.46518200417E+02  0.71288145174E+02  0.47000000000E+01 0. -1.
<mgrwt>
<rscale>  0 0.99968847E+03</rscale>
<asrwt>0</asrwt>
<pdfrwt beam="1">  1        2 0.93011855E-01 0.99968847E+03</pdfrwt>
<pdfrwt beam="2">  1       -2 0.63577633E-01 0.99968847E+03</pdfrwt>
<totfact> 0.13612034E+02</totfact>
</mgrwt>
</event>
<event>
 9    1  0.4246427E-036  0.9910672E+03  0.7818608E-02  0.8689592E-01
          2   -1    0    0  501    0  0.00000000000E+00  0.00000000000E+00  0.14538990271E+04  0.14538990271E+04  0.00000000000E+00 0. -1.
         -2   -1    0    0    0  501 -0.00000000000E+00 -0.00000000000E+00 -0.16889310704E+03  0.16889310704E+03  0.00000000000E+00 0. -1.
         36    2    1    2    0    0 -0.71054273576E-14  0.00000000000E+00  0.12850059201E+04  0.16227921342E+04  0.99106715013E+03 0.  0.
         25    2    3    3    0    0 -0.15257142519E+02 -0.41592230062E+02  0.43222066393E+03  0.45278468803E+03  0.12742282916E+03 0.  0.
         35    2    3    3    0    0  0.15257142519E+02  0.41592230062E+02  0.85278525616E+03  0.11700074461E+04  0.79982000282E+03 0.  0.
         22    1    5    5    0    0 -0.12248786284E+03 -0.32822633909E+02 -0.12600940227E+03  0.17877072272E+03  0.00000000000E+00 0.  1.
         22    1    5    5    0    0  0.13774500536E+03  0.74414863972E+02  0.97879465843E+03  0.99123672342E+03  0.00000000000E+00 0.  1.
          5    1    4    4  502    0 -0.68829152029E+02 -0.57779938762E+01  0.19512088819E+03  0.20703885720E+03  0.47000000000E+01 0. -1.
         -5    1    4    4    0  502  0.53572009510E+02 -0.35814236186E+02  0.23709977574E+03  0.24574583083E+03  0.47000000000E+01 0. -1.
<mgrwt>
<rscale>  0 0.99106715E+03</rscale>
<asrwt>0</asrwt>
<pdfrwt beam="1">  1        2 0.22367677E+00 0.99106715E+03</pdfrwt>
<pdfrwt beam="2">  1       -2 0.25983556E-01 0.99106715E+03</pdfrwt>
<totfact> 0.21552043E+02</totfact>
</mgrwt>
</event>
<event>
 9    1  0.4246427E-036  0.9973540E+03  0.7818608E-02  0.8683562E-01
          2   -1    0    0  501    0  0.00000000000E+00  0.00000000000E+00  0.41136990374E+03  0.41136990374E+03  0.00000000000E+00 0.  1.
         -2   -1    0    0    0  501 -0.00000000000E+00 -0.00000000000E+00 -0.60451374195E+03  0.60451374195E+03  0.00000000000E+00 0.  1.
         36    2    1    2    0    0 -0.28421709430E-13 -0.14210854715E-13 -0.19314383822E+03  0.10158836457E+04  0.99735401906E+03 0.  0.
         25    2    3    3    0    0  0.85614436676E+02  0.25552091485E+02  0.69944279601E+02  0.16868392128E+03  0.12481715388E+03 0.  0.
         35    2    3    3    0    0 -0.85614436676E+02 -0.25552091485E+02 -0.26308811782E+03  0.84719972441E+03  0.80034322272E+03 0.  0.
         22    1    5    5    0    0 -0.36616153672E+03 -0.25122725390E+03 -0.12221030990E+03  0.46057004236E+03  0.00000000000E+00 0.  1.
         22    1    5    5    0    0  0.28054710005E+03  0.22567516242E+03 -0.14087780792E+03  0.38662968205E+03  0.00000000000E+00 0.  1.
          5    1    4    4  502    0  0.56534469925E+02  0.51906744680E+02 -0.11887261809E+02  0.77806512750E+02  0.47000000000E+01 0.  1.
         -5    1    4    4    0  502  0.29079966751E+02 -0.26354653196E+02  0.81831541410E+02  0.90877408528E+02  0.47000000000E+01 0.  1.
<mgrwt>
<rscale>  0 0.99735402E+03</rscale>
<asrwt>0</asrwt>
<pdfrwt beam="1">  1        2 0.63287677E-01 0.99735402E+03</pdfrwt>
<pdfrwt beam="2">  1       -2 0.93002115E-01 0.99735402E+03</pdfrwt>
<totfact> 0.90035178E+01</totfact>
</mgrwt>
</event>
<event>
 9    1  0.4246427E-036  0.1000613E+04  0.7818608E-02  0.8680454E-01
          2   -1    0    0  501    0  0.00000000000E+00  0.00000000000E+00  0.10411211158E+04  0.10411211158E+04  0.00000000000E+00 0. -1.
         -2   -1    0    0    0  501 -0.00000000000E+00 -0.00000000000E+00 -0.24042043813E+03  0.24042043813E+03  0.00000000000E+00 0. -1.
         36    2    1    2    0    0  0.71054273576E-14  0.42632564146E-13  0.80070067768E+03  0.12815415539E+04  0.10006134015E+04 0.  0.
         25    2    3    3    0    0  0.48460439325E+02  0.68270641607E+02  0.29642612641E+03  0.33230493214E+03  0.12469492700E+03 0.  0.
         35    2    3    3    0    0 -0.48460439325E+02 -0.68270641607E+02  0.50427455127E+03  0.94923662179E+03  0.79984251351E+03 0.  0.
         22    1    5    5    0    0 -0.10276571665E+03 -0.37686521628E+03  0.44931621950E+02  0.39320101019E+03  0.00000000000E+00 0.  1.
         22    1    5    5    0    0  0.54305277328E+02  0.30859457467E+03  0.45934292932E+03  0.55603561161E+03  0.00000000000E+00 0.  1.
          5    1    4    4  502    0  0.51499957387E+02  0.70495045090E+02  0.30750626278E+03  0.31969358555E+03  0.47000000000E+01 0.  1.
         -5    1    4    4    0  502 -0.30395180623E+01 -0.22244034830E+01 -0.11080136366E+02  0.12611346589E+02  0.47000000000E+01 0.  1.
<mgrwt>
<rscale>  0 0.10006134E+04</rscale>
<asrwt>0</asrwt>
<pdfrwt beam="1">  1        2 0.16017248E+00 0.10006134E+04</pdfrwt>
<pdfrwt beam="2">  1       -2 0.36987760E-01 0.10006134E+04</pdfrwt>
<totfact> 0.19731638E+02</totfact>
</mgrwt>
</event>
<event>
 9    1  0.4246427E-036  0.1000166E+04  0.7818608E-02  0.8680880E-01
          1   -1    0    0  501    0  0.00000000000E+00  0.00000000000E+00  0.74297798030E+03  0.74297798030E+03  0.00000000000E+00 0. -1.
         -1   -1    0    0    0  501 -0.00000000000E+00 -0.00000000000E+00 -0.33659530103E+03  0.33659530103E+03  0.00000000000E+00 0. -1.
         36    2    1    2    0    0  0.21316282073E-13  0.00000000000E+00  0.40638267928E+03  0.10795732813E+04  0.10001657801E+04 0.  0.
         25    2    3    3    0    0  0.43245066937E+02 -0.12099355678E+03  0.13620153771E+03  0.22498532611E+03  0.12473155774E+03 0.  0.
         35    2    3    3    0    0 -0.43245066937E+02  0.12099355678E+03  0.27018114157E+03  0.85458795522E+03  0.80050805577E+03 0.  0.
         22    1    5    5    0    0 -0.40794025985E+03  0.11667308869E+03  0.46737252777E+02  0.42686325214E+03  0.00000000000E+00 0. -1.
         22    1    5    5    0    0  0.36469519292E+03  0.43204680869E+01  0.22344388879E+03  0.42772470307E+03  0.00000000000E+00 0. -1.
          5    1    4    4  502    0  0.35865307305E+01 -0.62446120368E+02 -0.90418004489E+01  0.63373695703E+02  0.47000000000E+01 0. -1.
         -5    1    4    4    0  502  0.39658536206E+02 -0.58547436408E+02  0.14524333816E+03  0.16161163041E+03  0.47000000000E+01 0. -1.
<mgrwt>
<rscale>  0 0.10001658E+04</rscale>
<asrwt>0</asrwt>
<pdfrwt beam="1">  1        1 0.11430430E+00 0.10001658E+04</pdfrwt>
<pdfrwt beam="2">  1       -1 0.51783892E-01 0.10001658E+04</pdfrwt>
<totfact> 0.10683671E+02</totfact>
</mgrwt>
</event>
<event>
 9    1  0.4246427E-036  0.9941115E+03  0.7818608E-02  0.8686666E-01
         -2   -1    0    0    0  501 -0.00000000000E+00  0.00000000000E+00  0.11352065743E+03  0.11352065743E+03  0.00000000000E+00 0. -1.
          2   -1    0    0  501    0  0.00000000000E+00 -0.00000000000E+00 -0.21763830969E+04  0.21763830969E+04  0.00000000000E+00 0. -1.
         36    2    1    2    0    0  0.00000000000E+00  0.00000000000E+00 -0.20628624395E+04  0.22899037544E+04  0.99411154299E+03 0.  0.
         25    2    3    3    0    0 -0.15379414678E+02  0.11752347583E+03 -0.49876680098E+03  0.52762877641E+03  0.12480188366E+03 0.  0.
         35    2    3    3    0    0  0.15379414678E+02 -0.11752347583E+03 -0.15640956385E+04  0.17622749779E+04  0.80322452509E+03 0.  0.
         22    1    5    5    0    0  0.28774465861E+03  0.15369698160E+03 -0.30785898105E+03  0.44854977754E+03  0.00000000000E+00 0.  1.
         22    1    5    5    0    0 -0.27236524393E+03 -0.27122045743E+03 -0.12562366575E+04  0.13137252004E+04  0.00000000000E+00 0.  1.
          5    1    4    4  502    0  0.45499963919E+02  0.30896391780E+02 -0.26887814469E+03  0.27448566526E+03  0.47000000000E+01 0.  1.
         -5    1    4    4    0  502 -0.60879378597E+02  0.86627084049E+02 -0.22988865629E+03  0.25314311115E+03  0.47000000000E+01 0.  1.
<mgrwt>
<rscale>  0 0.99411154E+03</rscale>
<asrwt>0</asrwt>
<pdfrwt beam="1">  1        2 0.33482816E+00 0.99411154E+03</pdfrwt>
<pdfrwt beam="2">  1       -2 0.17464717E-01 0.99411154E+03</pdfrwt>
<totfact> 0.16755321E+02</totfact>
</mgrwt>
</event>
<event>
 9    1  0.4246427E-036  0.9997971E+03  0.7818608E-02  0.8681231E-01
          3   -1    0    0  501    0  0.00000000000E+00  0.00000000000E+00  0.12053920423E+04  0.12053920423E+04  0.00000000000E+00 0.  1.
         -3   -1    0    0    0  501 -0.00000000000E+00 -0.00000000000E+00 -0.20731725827E+03  0.20731725827E+03  0.00000000000E+00 0.  1.
         36    2    1    2    0    0 -0.42632564146E-13 -0.14210854715E-13  0.99807478403E+03  0.14127093006E+04  0.99979712611E+03 0.  0.
         25    2    3    3    0    0  0.11374933356E+03  0.61734424774E+02  0.10867236913E+03  0.21004870812E+03  0.12474263861E+03 0.  0.
         35    2    3    3    0    0 -0.11374933356E+03 -0.61734424774E+02  0.88940241490E+03  0.12026605924E+04  0.79912814672E+03 0.  0.
         22    1    5    5    0    0  0.25707450673E+03 -0.22877858101E+03  0.18868896692E+03  0.39246715452E+03  0.00000000000E+00 0. -1.
         22    1    5    5    0    0 -0.37082384029E+03  0.16704415624E+03  0.70071344798E+03  0.81019343791E+03  0.00000000000E+00 0. -1.
          5    1    4    4  502    0  0.76890320174E+02 -0.18888491987E+02  0.88825305107E+02  0.11908367350E+03  0.47000000000E+01 0.  1.
         -5    1    4    4    0  502  0.36859013382E+02  0.80622916761E+02  0.19847064019E+02  0.90965034627E+02  0.47000000000E+01 0.  1.
<mgrwt>
<rscale>  0 0.99979713E+03</rscale>
<asrwt>0</asrwt>
<pdfrwt beam="1">  1        3 0.18544493E+00 0.99979713E+03</pdfrwt>
<pdfrwt beam="2">  1       -3 0.31894964E-01 0.99979713E+03</pdfrwt>
<totfact> 0.71450623E+00</totfact>
</mgrwt>
</event>
<event>
 9    1  0.4246427E-036  0.9984149E+03  0.7818608E-02  0.8682549E-01
          2   -1    0    0  501    0  0.00000000000E+00  0.00000000000E+00  0.66000343040E+03  0.66000343040E+03  0.00000000000E+00 0. -1.
         -2   -1    0    0    0  501 -0.00000000000E+00 -0.00000000000E+00 -0.37758604640E+03  0.37758604640E+03  0.00000000000E+00 0. -1.
         36    2    1    2    0    0  0.00000000000E+00  0.28421709430E-13  0.28241738401E+03  0.10375894768E+04  0.99841491554E+03 0.  0.
         25    2    3    3    0    0  0.69471301173E+02  0.10914786472E+03  0.89319800962E+00  0.17967335826E+03  0.12466835928E+03 0.  0.
         35    2    3    3    0    0 -0.69471301173E+02 -0.10914786472E+03  0.28152418600E+03  0.85791611854E+03  0.80001542553E+03 0.  0.
         22    1    5    5    0    0  0.10899089082E+03  0.29582312240E+03 -0.30044006792E+02  0.31669066354E+03  0.00000000000E+00 0. -1.
         22    1    5    5    0    0 -0.17846219199E+03 -0.40497098712E+03  0.31156819279E+03  0.54122545500E+03  0.00000000000E+00 0. -1.
          5    1    4    4  502    0  0.19291796390E+02  0.59992668257E+02  0.60457059016E+02  0.87455357968E+02  0.47000000000E+01 0.  1.
         -5    1    4    4    0  502  0.50179504783E+02  0.49155196462E+02 -0.59563861007E+02  0.92218000290E+02  0.47000000000E+01 0.  1.
<mgrwt>
<rscale>  0 0.99841492E+03</rscale>
<asrwt>0</asrwt>
<pdfrwt beam="1">  1        2 0.10153899E+00 0.99841492E+03</pdfrwt>
<pdfrwt beam="2">  1       -2 0.58090161E-01 0.99841492E+03</pdfrwt>
<totfact> 0.14801155E+02</totfact>
</mgrwt>
</event>
<event>
 9    1  0.4246427E-036  0.1001093E+04  0.7818608E-02  0.8679998E-01
         -3   -1    0    0    0  501 -0.00000000000E+00  0.00000000000E+00  0.63800154127E+03  0.63800154127E+03  0.00000000000E+00 0.  1.
          3   -1    0    0  501    0  0.00000000000E+00 -0.00000000000E+00 -0.39270532199E+03  0.39270532199E+03  0.00000000000E+00 0.  1.
         36    2    1    2    0    0  0.00000000000E+00 -0.71054273576E-14  0.24529621928E+03  0.10307068633E+04  0.10010926045E+04 0.  0.
         25    2    3    3    0    0 -0.13834167996E+03 -0.48827898240E+01  0.79949111237E+02  0.20335014959E+03  0.12568675707E+03 0.  0.
         35    2    3    3    0    0  0.13834167996E+03  0.48827898240E+01  0.16534710805E+03  0.82735671366E+03  0.79875979084E+03 0.  0.
         22    1    5    5    0    0 -0.28907828630E+03  0.17980627178E+03  0.11689878686E+02  0.34063646934E+03  0.00000000000E+00 0. -1.
         22    1    5    5    0    0  0.42741996626E+03 -0.17492348196E+03  0.15365722936E+03  0.48672024432E+03  0.00000000000E+00 0. -1.
          5    1    4    4  502    0 -0.45220825493E+02  0.32974323229E+02 -0.21797467677E+02  0.60244905576E+02  0.47000000000E+01 0. -1.
         -5    1    4    4    0  502 -0.93120854463E+02 -0.37857113053E+02  0.10174657891E+03  0.14310524402E+03  0.47000000000E+01 0. -1.
<mgrwt>
<rscale>  0 0.10010926E+04</rscale>
<asrwt>0</asrwt>
<pdfrwt beam="1">  1        3 0.60416203E-01 0.10010926E+04</pdfrwt>
<pdfrwt beam="2">  1       -3 0.98154083E-01 0.10010926E+04</pdfrwt>
<totfact> 0.90968091E+00</totfact>
</mgrwt>
</event>
<event>
 9    1  0.4246427E-036  0.1000326E+04  0.7818608E-02  0.8680727E-01
          2   -1    0    0  501    0  0.00000000000E+00  0.00000000000E+00  0.39984969599E+03  0.39984969599E+03  0.00000000000E+00 0.  1.
         -2   -1    0    0    0  501 -0.00000000000E+00 -0.00000000000E+00 -0.62564320542E+03  0.62564320542E+03  0.00000000000E+00 0.  1.
         36    2    1    2    0    0 -0.21316282073E-13 -0.49737991503E-13 -0.22579350944E+03  0.10254929014E+04  0.10003264377E+04 0.  0.
         25    2    3    3    0    0 -0.11489868220E+02 -0.30113197335E+01 -0.19080404302E+03  0.22846926241E+03  0.12510370064E+03 0.  0.
         35    2    3    3    0    0  0.11489868220E+02  0.30113197335E+01 -0.34989466412E+02  0.79702363900E+03  0.79616664916E+03 0.  0.
         22    1    5    5    0    0 -0.16065476870E+03  0.36310013871E+03 -0.23109278836E+02  0.39772566451E+03  0.00000000000E+00 0.  1.
         22    1    5    5    0    0  0.17214463692E+03 -0.36008881898E+03 -0.11880187576E+02  0.39929797449E+03  0.00000000000E+00 0.  1.
          5    1    4    4  502    0 -0.37824408535E+02  0.32025215367E+02 -0.17451136219E+03  0.18147343010E+03  0.47000000000E+01 0. -1.
         -5    1    4    4    0  502  0.26334540315E+02 -0.35036535100E+02 -0.16292680834E+02  0.46995832306E+02  0.47000000000E+01 0. -1.
<mgrwt>
<rscale>  0 0.10003264E+04</rscale>
<asrwt>0</asrwt>
<pdfrwt beam="1">  1        2 0.61515338E-01 0.10003264E+04</pdfrwt>
<pdfrwt beam="2">  1       -2 0.96252800E-01 0.10003264E+04</pdfrwt>
<totfact> 0.85635542E+01</totfact>
</mgrwt>
</event>
<event>
 9    1  0.4246427E-036  0.9994081E+03  0.7818608E-02  0.8681602E-01
         -2   -1    0    0    0  501 -0.00000000000E+00  0.00000000000E+00  0.11463406247E+03  0.11463406247E+03  0.00000000000E+00 0. -1.
          2   -1    0    0  501    0  0.00000000000E+00 -0.00000000000E+00 -0.21782715595E+04  0.21782715595E+04  0.00000000000E+00 0. -1.
         36    2    1    2    0    0  0.15987211555E-13 -0.21316282073E-13 -0.20636374971E+04  0.22929056220E+04  0.99940806088E+03 0.  0.
         25    2    3    3    0    0 -0.11535538976E+02  0.63107825701E+02 -0.10155368478E+03  0.17309162506E+03  0.12462701733E+03 0.  0.
         35    2    3    3    0    0  0.11535538976E+02 -0.63107825701E+02 -0.19620838123E+04  0.21198139970E+04  0.79982674931E+03 0.  0.
         22    1    5    5    0    0  0.29132594900E+03  0.24870585212E+03 -0.90340747161E+03  0.98125963394E+03  0.00000000000E+00 0. -1.
         22    1    5    5    0    0 -0.27979041003E+03 -0.31181367782E+03 -0.10586763407E+04  0.11385543630E+04  0.00000000000E+00 0. -1.
          5    1    4    4  502    0  0.51339367307E+01 -0.34101301912E+02 -0.52109633840E+02  0.62663865484E+02  0.47000000000E+01 0.  1.
         -5    1    4    4    0  502 -0.16669475707E+02  0.97209127613E+02 -0.49444050943E+02  0.11042775958E+03  0.47000000000E+01 0.  1.
<mgrwt>
<rscale>  0 0.99940806E+03</rscale>
<asrwt>0</asrwt>
<pdfrwt beam="1">  1        2 0.33511869E+00 0.99940806E+03</pdfrwt>
<pdfrwt beam="2">  1       -2 0.17636010E-01 0.99940806E+03</pdfrwt>
<totfact> 0.16436522E+02</totfact>
</mgrwt>
</event>
<event>
 9    1  0.4246427E-036  0.9984013E+03  0.7818608E-02  0.8682562E-01
         -2   -1    0    0    0  501 -0.00000000000E+00  0.00000000000E+00  0.20490696113E+03  0.20490696113E+03  0.00000000000E+00 0. -1.
          2   -1    0    0  501    0  0.00000000000E+00 -0.00000000000E+00 -0.12161680998E+04  0.12161680998E+04  0.00000000000E+00 0. -1.
         36    2    1    2    0    0  0.71054273576E-14 -0.14210854715E-13 -0.10112611387E+04  0.14210750609E+04  0.99840134126E+03 0.  0.
         25    2    3    3    0    0 -0.20981538154E+02  0.37795374187E+02 -0.37515563860E+03  0.39785429329E+03  0.12521010449E+03 0.  0.
         35    2    3    3    0    0  0.20981538154E+02 -0.37795374187E+02 -0.63610550009E+03  0.10232207677E+04  0.80030107888E+03 0.  0.
         22    1    5    5    0    0 -0.17837719353E+02 -0.25528773445E+03 -0.73713017889E+03  0.78028899276E+03  0.00000000000E+00 0. -1.
         22    1    5    5    0    0  0.38819257508E+02  0.21749236026E+03  0.10102467880E+03  0.24293177489E+03  0.00000000000E+00 0. -1.
          5    1    4    4  502    0 -0.20540360861E+02 -0.14801135516E+02 -0.32164488937E+03  0.32267399166E+03  0.47000000000E+01 0.  1.
         -5    1    4    4    0  502 -0.44117729311E+00  0.52596509703E+02 -0.53510749228E+02  0.75180301631E+02  0.47000000000E+01 0.  1.
<mgrwt>
<rscale>  0 0.99840134E+03</rscale>
<asrwt>0</asrwt>
<pdfrwt beam="1">  1        2 0.18710278E+00 0.99840134E+03</pdfrwt>
<pdfrwt beam="2">  1       -2 0.31524149E-01 0.99840134E+03</pdfrwt>
<totfact> 0.20834506E+02</totfact>
</mgrwt>
</event>
<event>
 9    1  0.4246427E-036  0.1000245E+04  0.7818608E-02  0.8680805E-01
          1   -1    0    0  501    0  0.00000000000E+00  0.00000000000E+00  0.31323490224E+03  0.31323490224E+03  0.00000000000E+00 0.  1.
         -1   -1    0    0    0  501 -0.00000000000E+00 -0.00000000000E+00 -0.79851440647E+03  0.79851440647E+03  0.00000000000E+00 0.  1.
         36    2    1    2    0    0  0.28421709430E-13 -0.14210854715E-13 -0.48527950423E+03  0.11117493087E+04  0.10002451340E+04 0.  0.
         25    2    3    3    0    0 -0.12415232327E+03  0.49937328970E+02 -0.40436264068E+02  0.18705817230E+03  0.12429051523E+03 0.  0.
         35    2    3    3    0    0  0.12415232327E+03 -0.49937328970E+02 -0.44484324016E+03  0.92469113640E+03  0.79953777473E+03 0.  0.
         22    1    5    5    0    0 -0.28298194388E+03 -0.15137446349E+03 -0.38443770279E+03  0.50078474027E+03  0.00000000000E+00 0.  1.
         22    1    5    5    0    0  0.40713426714E+03  0.10143713451E+03 -0.60405537370E+02  0.42390639614E+03  0.00000000000E+00 0.  1.
          5    1    4    4  502    0 -0.50198172758E+02  0.47848068479E+02  0.37929786162E+02  0.79183665511E+02  0.47000000000E+01 0. -1.
         -5    1    4    4    0  502 -0.73954150508E+02  0.20892604909E+01 -0.78366050230E+02  0.10787450679E+03  0.47000000000E+01 0. -1.
<mgrwt>
<rscale>  0 0.10002451E+04</rscale>
<asrwt>0</asrwt>
<pdfrwt beam="1">  1        1 0.48189985E-01 0.10002451E+04</pdfrwt>
<pdfrwt beam="2">  1       -1 0.12284837E+00 0.10002451E+04</pdfrwt>
<totfact> 0.58153288E+01</totfact>
</mgrwt>
</event>
<event>
 9    1  0.4246427E-036  0.9992261E+03  0.7818608E-02  0.8681775E-01
         -2   -1    0    0    0  501 -0.00000000000E+00  0.00000000000E+00  0.15083095633E+03  0.15083095633E+03  0.00000000000E+00 0. -1.
          2   -1    0    0  501    0  0.00000000000E+00 -0.00000000000E+00 -0.16549203550E+04  0.16549203550E+04  0.00000000000E+00 0. -1.
         36    2    1    2    0    0  0.00000000000E+00 -0.71054273576E-14 -0.15040893987E+04  0.18057513114E+04  0.99922614018E+03 0.  0.
         25    2    3    3    0    0 -0.13092771915E+03 -0.19213268694E+02 -0.19868633630E+03  0.26940958971E+03  0.12487613646E+03 0.  0.
         35    2    3    3    0    0  0.13092771915E+03  0.19213268694E+02 -0.13054030624E+04  0.15363417217E+04  0.79922306840E+03 0.  0.
         22    1    5    5    0    0  0.37635627361E+03  0.53666658473E+02 -0.12140932491E+04  0.12722211177E+04  0.00000000000E+00 0. -1.
         22    1    5    5    0    0 -0.24542855446E+03 -0.34453389779E+02 -0.91309813305E+02  0.26412060393E+03  0.00000000000E+00 0. -1.
          5    1    4    4  502    0 -0.50319202257E+02 -0.62157092352E+02 -0.48734592181E+02  0.93769273861E+02  0.47000000000E+01 0. -1.
         -5    1    4    4    0  502 -0.80608516890E+02  0.42943823658E+02 -0.14995174412E+03  0.17564031584E+03  0.47000000000E+01 0. -1.
<mgrwt>
<rscale>  0 0.99922614E+03</rscale>
<asrwt>0</asrwt>
<pdfrwt beam="1">  1        2 0.25460313E+00 0.99922614E+03</pdfrwt>
<pdfrwt beam="2">  1       -2 0.23204763E-01 0.99922614E+03</pdfrwt>
<totfact> 0.20269898E+02</totfact>
</mgrwt>
</event>
<event>
 9    1  0.4246427E-036  0.1001219E+04  0.7818608E-02  0.8679878E-01
         -2   -1    0    0    0  501 -0.00000000000E+00  0.00000000000E+00  0.19852425598E+03  0.19852425598E+03  0.00000000000E+00 0.  1.
          2   -1    0    0  501    0  0.00000000000E+00 -0.00000000000E+00 -0.12623641005E+04  0.12623641005E+04  0.00000000000E+00 0.  1.
         36    2    1    2    0    0  0.14210854715E-13 -0.10658141036E-13 -0.10638398445E+04  0.14608883565E+04  0.10012190446E+04 0.  0.
         25    2    3    3    0    0 -0.48887849414E+02 -0.29452608175E+02 -0.38865530171E+03  0.41238850109E+03  0.12551435909E+03 0.  0.
         35    2    3    3    0    0  0.48887849414E+02  0.29452608175E+02 -0.67518454283E+03  0.10484998554E+04  0.80013767688E+03 0.  0.
         22    1    5    5    0    0 -0.26143674480E+03  0.29458402539E+03 -0.32161651455E+03  0.50849395471E+03  0.00000000000E+00 0. -1.
         22    1    5    5    0    0  0.31032459422E+03 -0.26513141721E+03 -0.35356802829E+03  0.54000590070E+03  0.00000000000E+00 0. -1.
          5    1    4    4  502    0 -0.75525308378E+02  0.22103230315E+02 -0.24550660009E+03  0.25785306995E+03  0.47000000000E+01 0. -1.
         -5    1    4    4    0  502  0.26637458964E+02 -0.51555838490E+02 -0.14314870162E+03  0.15453543114E+03  0.47000000000E+01 0. -1.
<mgrwt>
<rscale>  0 0.10012190E+04</rscale>
<asrwt>0</asrwt>
<pdfrwt beam="1">  1        2 0.19420987E+00 0.10012190E+04</pdfrwt>
<pdfrwt beam="2">  1       -2 0.30542192E-01 0.10012190E+04</pdfrwt>
<totfact> 0.20743390E+02</totfact>
</mgrwt>
</event>
<event>
 9    1  0.4246427E-036  0.9998042E+03  0.7818608E-02  0.8681224E-01
         -2   -1    0    0    0  501 -0.00000000000E+00  0.00000000000E+00  0.17193010084E+03  0.17193010084E+03  0.00000000000E+00 0.  1.
          2   -1    0    0  501    0  0.00000000000E+00 -0.00000000000E+00 -0.14535098443E+04  0.14535098443E+04  0.00000000000E+00 0.  1.
         36    2    1    2    0    0  0.28421709430E-13  0.14210854715E-13 -0.12815797435E+04  0.16254399452E+04  0.99980416903E+03 0.  0.
         25    2    3    3    0    0 -0.72244011797E+02  0.10775031269E+03 -0.14627641781E+03  0.23219641438E+03  0.12525596719E+03 0.  0.
         35    2    3    3    0    0  0.72244011797E+02 -0.10775031269E+03 -0.11353033257E+04  0.13932435308E+04  0.79711013522E+03 0.  0.
         22    1    5    5    0    0 -0.21625287411E+03 -0.26300911888E+03 -0.96643171467E+03  0.10246606079E+04  0.00000000000E+00 0. -1.
         22    1    5    5    0    0  0.28849688591E+03  0.15525880619E+03 -0.16887161103E+03  0.36858292295E+03  0.00000000000E+00 0. -1.
          5    1    4    4  502    0 -0.56225846647E+01  0.29948467556E+02  0.20068820383E+02  0.36788200810E+02  0.47000000000E+01 0. -1.
         -5    1    4    4    0  502 -0.66621427133E+02  0.77801845130E+02 -0.16634523819E+03  0.19540821357E+03  0.47000000000E+01 0. -1.
<mgrwt>
<rscale>  0 0.99980417E+03</rscale>
<asrwt>0</asrwt>
<pdfrwt beam="1">  1        2 0.22361689E+00 0.99980417E+03</pdfrwt>
<pdfrwt beam="2">  1       -2 0.26450785E-01 0.99980417E+03</pdfrwt>
<totfact> 0.20886738E+02</totfact>
</mgrwt>
</event>
<event>
 9    1  0.4246427E-036  0.1000023E+04  0.7818608E-02  0.8681016E-01
          1   -1    0    0  501    0  0.00000000000E+00  0.00000000000E+00  0.99892268079E+03  0.99892268079E+03  0.00000000000E+00 0.  1.
         -1   -1    0    0    0  501 -0.00000000000E+00 -0.00000000000E+00 -0.25028108830E+03  0.25028108830E+03  0.00000000000E+00 0.  1.
         36    2    1    2    0    0 -0.14210854715E-13  0.00000000000E+00  0.74864159248E+03  0.12492037691E+04  0.10000229111E+04 0.  0.
         25    2    3    3    0    0 -0.82024935765E+02  0.73117464821E+02  0.24969335985E+03  0.29974434238E+03  0.12420001243E+03 0.  0.
         35    2    3    3    0    0  0.82024935765E+02 -0.73117464821E+02  0.49894823264E+03  0.94945942671E+03  0.80028095715E+03 0.  0.
         22    1    5    5    0    0 -0.10509619874E+03 -0.22097854118E+03  0.63104729844E+03  0.67682894407E+03  0.00000000000E+00 0.  1.
         22    1    5    5    0    0  0.18712113451E+03  0.14786107636E+03 -0.13209906581E+03  0.27263048265E+03  0.00000000000E+00 0.  1.
          5    1    4    4  502    0  0.65292552403E+01  0.46720228746E+02  0.18794456499E+02  0.50997377807E+02  0.47000000000E+01 0.  1.
         -5    1    4    4    0  502 -0.88554191005E+02  0.26397236075E+02  0.23089890335E+03  0.24874696457E+03  0.47000000000E+01 0.  1.
<mgrwt>
<rscale>  0 0.10000229E+04</rscale>
<asrwt>0</asrwt>
<pdfrwt beam="1">  1        1 0.15368041E+00 0.10000229E+04</pdfrwt>
<pdfrwt beam="2">  1       -1 0.38504783E-01 0.10000229E+04</pdfrwt>
<totfact> 0.11081868E+02</totfact>
</mgrwt>
</event>
<event>
 9    1  0.4246427E-036  0.1000144E+04  0.7818608E-02  0.8680901E-01
          2   -1    0    0  501    0  0.00000000000E+00  0.00000000000E+00  0.33776141790E+03  0.33776141790E+03  0.00000000000E+00 0. -1.
         -2   -1    0    0    0  501 -0.00000000000E+00 -0.00000000000E+00 -0.74038058617E+03  0.74038058617E+03  0.00000000000E+00 0. -1.
         36    2    1    2    0    0  0.00000000000E+00  0.28421709430E-13 -0.40261916827E+03  0.10781420041E+04  0.10001439828E+04 0.  0.
         25    2    3    3    0    0  0.10784177188E+03  0.65471035356E+02 -0.14147435195E+03  0.22722815921E+03  0.12530498732E+03 0.  0.
         35    2    3    3    0    0 -0.10784177188E+03 -0.65471035356E+02 -0.26114481632E+03  0.85091384486E+03  0.79996340669E+03 0.  0.
         22    1    5    5    0    0 -0.28754120871E+03 -0.32321575101E+03  0.14626951352E+02  0.43285368904E+03  0.00000000000E+00 0.  1.
         22    1    5    5    0    0  0.17969943682E+03  0.25774471565E+03 -0.27577176768E+03  0.41806015583E+03  0.00000000000E+00 0.  1.
          5    1    4    4  502    0  0.99465830072E+02  0.69237668223E+02 -0.16310975350E+03  0.20325891799E+03  0.47000000000E+01 0.  1.
         -5    1    4    4    0  502  0.83759418112E+01 -0.37666328667E+01  0.21635401558E+02  0.23969241226E+02  0.47000000000E+01 0.  1.
<mgrwt>
<rscale>  0 0.10001440E+04</rscale>
<asrwt>0</asrwt>
<pdfrwt beam="1">  1        2 0.51963296E-01 0.10001440E+04</pdfrwt>
<pdfrwt beam="2">  1       -2 0.11390470E+00 0.10001440E+04</pdfrwt>
<totfact> 0.68140024E+01</totfact>
</mgrwt>
</event>
<event>
 9    1  0.4246427E-036  0.1000157E+04  0.7818608E-02  0.8680888E-01
         -1   -1    0    0    0  501 -0.00000000000E+00  0.00000000000E+00  0.69937681757E+03  0.69937681757E+03  0.00000000000E+00 0.  1.
          1   -1    0    0  501    0  0.00000000000E+00 -0.00000000000E+00 -0.35757340452E+03  0.35757340452E+03  0.00000000000E+00 0.  1.
         36    2    1    2    0    0  0.14210854715E-13  0.00000000000E+00  0.34180341306E+03  0.10569502221E+04  0.10001570871E+04 0.  0.
         25    2    3    3    0    0  0.38022226605E+02 -0.11570139431E+03 -0.36182111016E+01  0.17496531140E+03  0.12556777604E+03 0.  0.
         35    2    3    3    0    0 -0.38022226605E+02  0.11570139431E+03  0.34542162416E+03  0.88198491069E+03  0.80233956770E+03 0.  0.
         22    1    5    5    0    0 -0.39168259409E+03  0.12058544492E+03  0.34874603463E+02  0.41130565521E+03  0.00000000000E+00 0.  1.
         22    1    5    5    0    0  0.35366036748E+03 -0.48840506163E+01  0.31054702070E+03  0.47067925548E+03  0.00000000000E+00 0.  1.
          5    1    4    4  502    0  0.53242245597E+02 -0.13538335385E+02  0.34184107964E+02  0.64874235861E+02  0.47000000000E+01 0. -1.
         -5    1    4    4    0  502 -0.15220018992E+02 -0.10216305892E+03 -0.37802319066E+02  0.11009107554E+03  0.47000000000E+01 0. -1.
<mgrwt>
<rscale>  0 0.10001571E+04</rscale>
<asrwt>0</asrwt>
<pdfrwt beam="1">  1        1 0.55011293E-01 0.10001571E+04</pdfrwt>
<pdfrwt beam="2">  1       -1 0.10759643E+00 0.10001571E+04</pdfrwt>
<totfact> 0.67283130E+01</totfact>
</mgrwt>
</event>
<event>
 9    1  0.4246427E-036  0.9975138E+03  0.7818608E-02  0.8683409E-01
          2   -1    0    0  501    0  0.00000000000E+00  0.00000000000E+00  0.52425050714E+03  0.52425050714E+03  0.00000000000E+00 0.  1.
         -2   -1    0    0    0  501 -0.00000000000E+00 -0.00000000000E+00 -0.47450305863E+03  0.47450305863E+03  0.00000000000E+00 0.  1.
         36    2    1    2    0    0  0.28421709430E-13  0.00000000000E+00  0.49747448507E+02  0.99875356577E+03  0.99751384778E+03 0.  0.
         25    2    3    3    0    0  0.43573169957E+02 -0.69691571660E+02 -0.10154128589E+03  0.18146822849E+03  0.12595455097E+03 0.  0.
         35    2    3    3    0    0 -0.43573169957E+02  0.69691571660E+02  0.15128873440E+03  0.81728533728E+03  0.79894399370E+03 0.  0.
         22    1    5    5    0    0 -0.28468689737E+03  0.11964016576E+03 -0.21474844410E+03  0.37613467407E+03  0.00000000000E+00 0. -1.
         22    1    5    5    0    0  0.24111372742E+03 -0.49948594096E+02  0.36603717850E+03  0.44115066320E+03  0.00000000000E+00 0. -1.
          5    1    4    4  502    0 -0.38936991338E+02 -0.47974025515E+02 -0.60766267970E+02  0.86788396353E+02  0.47000000000E+01 0.  1.
         -5    1    4    4    0  502  0.82510161295E+02 -0.21717546145E+02 -0.40775017923E+02  0.94679832140E+02  0.47000000000E+01 0.  1.
<mgrwt>
<rscale>  0 0.99751385E+03</rscale>
<asrwt>0</asrwt>
<pdfrwt beam="1">  1        2 0.80653924E-01 0.99751385E+03</pdfrwt>
<pdfrwt beam="2">  1       -2 0.73000471E-01 0.99751385E+03</pdfrwt>
<totfact> 0.11938563E+02</totfact>
</mgrwt>
</event>
<event>
 9    1  0.4246427E-036  0.9998463E+03  0.7818608E-02  0.8681184E-01
         -1   -1    0    0    0  501 -0.00000000000E+00  0.00000000000E+00  0.44317881637E+03  0.44317881637E+03  0.00000000000E+00 0. -1.
          1   -1    0    0  501    0  0.00000000000E+00 -0.00000000000E+00 -0.56393297470E+03  0.56393297470E+03  0.00000000000E+00 0. -1.
         36    2    1    2    0    0  0.28421709430E-13  0.71054273576E-14 -0.12075415833E+03  0.10071117911E+04  0.99984628467E+03 0.  0.
         25    2    3    3    0    0  0.13890323777E+03 -0.23660137385E+01 -0.21730685704E+02  0.18826082436E+03  0.12518070060E+03 0.  0.
         35    2    3    3    0    0 -0.13890323777E+03  0.23660137385E+01 -0.99023472623E+02  0.81885096671E+03  0.80088173289E+03 0.  0.
         22    1    5    5    0    0 -0.20344349331E+03 -0.35950057439E+03  0.61727796875E+02  0.41766043488E+03  0.00000000000E+00 0. -1.
         22    1    5    5    0    0  0.64540255534E+02  0.36186658813E+03 -0.16075126950E+03  0.40119053183E+03  0.00000000000E+00 0. -1.
          5    1    4    4  502    0  0.13799435469E+03 -0.23710117218E+02  0.19637917270E+02  0.14146501115E+03  0.47000000000E+01 0. -1.
         -5    1    4    4    0  502  0.90888307962E+00  0.21344103479E+02 -0.41368602973E+02  0.46795813208E+02  0.47000000000E+01 0. -1.
<mgrwt>
<rscale>  0 0.99984628E+03</rscale>
<asrwt>0</asrwt>
<pdfrwt beam="1">  1        1 0.86758920E-01 0.99984628E+03</pdfrwt>
<pdfrwt beam="2">  1       -1 0.68181356E-01 0.99984628E+03</pdfrwt>
<totfact> 0.95364430E+01</totfact>
</mgrwt>
</event>
<event>
 9    1  0.4246427E-036  0.1000023E+04  0.7818608E-02  0.8681016E-01
         -1   -1    0    0    0  501 -0.00000000000E+00  0.00000000000E+00  0.13297534825E+03  0.13297534825E+03  0.00000000000E+00 0. -1.
          1   -1    0    0  501    0  0.00000000000E+00 -0.00000000000E+00 -0.18801324865E+04  0.18801324865E+04  0.00000000000E+00 0. -1.
         36    2    1    2    0    0  0.71054273576E-14 -0.14210854715E-13 -0.17471571382E+04  0.20131078347E+04  0.10000225440E+04 0.  0.
         25    2    3    3    0    0  0.46576068419E+02 -0.12056647701E+03 -0.43301497930E+03  0.46931233001E+03  0.12667472232E+03 0.  0.
         35    2    3    3    0    0 -0.46576068419E+02  0.12056647701E+03 -0.13141421589E+04  0.15437955047E+04  0.79976830455E+03 0.  0.
         22    1    5    5    0    0 -0.69734371892E+02  0.38116064975E+03 -0.28259639152E+03  0.47959049620E+03  0.00000000000E+00 0.  1.
         22    1    5    5    0    0  0.23158303473E+02 -0.26059417274E+03 -0.10315457674E+04  0.10642050085E+04  0.00000000000E+00 0.  1.
          5    1    4    4  502    0 -0.35741783633E+02 -0.82717913695E+02 -0.21248093815E+03  0.23084619863E+03  0.47000000000E+01 0. -1.
         -5    1    4    4    0  502  0.82317852052E+02 -0.37848563317E+02 -0.22053404115E+03  0.23846613138E+03  0.47000000000E+01 0. -1.
<mgrwt>
<rscale>  0 0.10000225E+04</rscale>
<asrwt>0</asrwt>
<pdfrwt beam="1">  1        1 0.28925113E+00 0.10000225E+04</pdfrwt>
<pdfrwt beam="2">  1       -1 0.20457747E-01 0.10000225E+04</pdfrwt>
<totfact> 0.74453286E+01</totfact>
</mgrwt>
</event>
<event>
 9    1  0.4246427E-036  0.1000241E+04  0.7818608E-02  0.8680808E-01
         -1   -1    0    0    0  501 -0.00000000000E+00  0.00000000000E+00  0.85472193780E+03  0.85472193780E+03  0.00000000000E+00 0.  1.
          1   -1    0    0  501    0  0.00000000000E+00 -0.00000000000E+00 -0.29263388451E+03  0.29263388451E+03  0.00000000000E+00 0.  1.
         36    2    1    2    0    0  0.00000000000E+00  0.42632564146E-13  0.56208805329E+03  0.11473558223E+04  0.10002411726E+04 0.  0.
         25    2    3    3    0    0  0.13160541260E+03  0.28515681040E+01  0.16386735546E+03  0.24437408365E+03  0.12465178102E+03 0.  0.
         35    2    3    3    0    0 -0.13160541260E+03 -0.28515681040E+01  0.39822069783E+03  0.90298173865E+03  0.79966754347E+03 0.  0.
         22    1    5    5    0    0 -0.16032025210E+03 -0.38793929047E+03  0.25485349519E+03  0.49107003607E+03  0.00000000000E+00 0. -1.
         22    1    5    5    0    0  0.28714839503E+02  0.38508772236E+03  0.14336720264E+03  0.41191170257E+03  0.00000000000E+00 0. -1.
          5    1    4    4  502    0  0.12708368533E+03 -0.19735334796E+02  0.17591033628E+03  0.21795936073E+03  0.47000000000E+01 0.  1.
         -5    1    4    4    0  502  0.45217272610E+01  0.22586902901E+02 -0.12042980827E+02  0.26414722926E+02  0.47000000000E+01 0.  1.
<mgrwt>
<rscale>  0 0.10002412E+04</rscale>
<asrwt>0</asrwt>
<pdfrwt beam="1">  1        1 0.45020598E-01 0.10002412E+04</pdfrwt>
<pdfrwt beam="2">  1       -1 0.13149568E+00 0.10002412E+04</pdfrwt>
<totfact> 0.53381359E+01</totfact>
</mgrwt>
</event>
<event>
 9    1  0.4246427E-036  0.1000675E+04  0.7818608E-02  0.8680395E-01
         -2   -1    0    0    0  501 -0.00000000000E+00  0.00000000000E+00  0.35596919022E+03  0.35596919022E+03  0.00000000000E+00 0. -1.
          2   -1    0    0  501    0  0.00000000000E+00 -0.00000000000E+00 -0.70325650310E+03  0.70325650310E+03  0.00000000000E+00 0. -1.
         36    2    1    2    0    0  0.00000000000E+00  0.00000000000E+00 -0.34728731288E+03  0.10592256933E+04  0.10006750680E+04 0.  0.
         25    2    3    3    0    0  0.54182954700E+02 -0.12925127934E+03 -0.81102047116E+02  0.20450019111E+03  0.12490436472E+03 0.  0.
         35    2    3    3    0    0 -0.54182954700E+02  0.12925127934E+03 -0.26618526576E+03  0.85472550221E+03  0.80003712579E+03 0.  0.
         22    1    5    5    0    0  0.69830037334E+02 -0.41457637494E+02  0.26818253688E+03  0.28020857037E+03  0.00000000000E+00 0. -1.
         22    1    5    5    0    0 -0.12401299203E+03  0.17070891683E+03 -0.53436780264E+03  0.57451693185E+03  0.00000000000E+00 0. -1.
          5    1    4    4  502    0  0.78316147963E+02 -0.82788369806E+02 -0.78370504942E+01  0.11432778563E+03  0.47000000000E+01 0.  1.
         -5    1    4    4    0  502 -0.24133193262E+02 -0.46462909532E+02 -0.73264996621E+02  0.90172405475E+02  0.47000000000E+01 0.  1.
<mgrwt>
<rscale>  0 0.10006751E+04</rscale>
<asrwt>0</asrwt>
<pdfrwt beam="1">  1        2 0.10819331E+00 0.10006751E+04</pdfrwt>
<pdfrwt beam="2">  1       -2 0.54764491E-01 0.10006751E+04</pdfrwt>
<totfact> 0.15464075E+02</totfact>
</mgrwt>
</event>
<event>
 9    1  0.4246427E-036  0.1003302E+04  0.7818608E-02  0.8677900E-01
         -1   -1    0    0    0  501 -0.00000000000E+00  0.00000000000E+00  0.67418586181E+03  0.67418586181E+03  0.00000000000E+00 0.  1.
          1   -1    0    0  501    0  0.00000000000E+00 -0.00000000000E+00 -0.37327033011E+03  0.37327033011E+03  0.00000000000E+00 0.  1.
         36    2    1    2    0    0 -0.14210854715E-13  0.00000000000E+00  0.30091553170E+03  0.10474561919E+04  0.10033017078E+04 0.  0.
         25    2    3    3    0    0 -0.50171826808E+02 -0.13159701902E+03  0.86471427650E+02  0.20716008125E+03  0.12491198440E+03 0.  0.
         35    2    3    3    0    0  0.50171826808E+02  0.13159701902E+03  0.21444410405E+03  0.84029611067E+03  0.80017266401E+03 0.  0.
         22    1    5    5    0    0 -0.20085152337E+03  0.36039328002E+01 -0.23541692184E+03  0.30947608932E+03  0.00000000000E+00 0.  1.
         22    1    5    5    0    0  0.25102335018E+03  0.12799308622E+03  0.44986102589E+03  0.53082002135E+03  0.00000000000E+00 0.  1.
          5    1    4    4  502    0 -0.74939975648E+01 -0.14011154718E+03  0.46520504593E+02  0.14789744082E+03  0.47000000000E+01 0. -1.
         -5    1    4    4    0  502 -0.42677829244E+02  0.85145281618E+01  0.39950923057E+02  0.59262640440E+02  0.47000000000E+01 0. -1.
<mgrwt>
<rscale>  0 0.10033017E+04</rscale>
<asrwt>0</asrwt>
<pdfrwt beam="1">  1        1 0.57426205E-01 0.10033017E+04</pdfrwt>
<pdfrwt beam="2">  1       -1 0.10372090E+00 0.10033017E+04</pdfrwt>
<totfact> 0.69127512E+01</totfact>
</mgrwt>
</event>
<event>
 9    1  0.4246427E-036  0.1005349E+04  0.7818608E-02  0.8675961E-01
         -2   -1    0    0    0  501 -0.00000000000E+00  0.00000000000E+00  0.21880013635E+03  0.21880013635E+03  0.00000000000E+00 0.  1.
          2   -1    0    0  501    0  0.00000000000E+00 -0.00000000000E+00 -0.11548519153E+04  0.11548519153E+04  0.00000000000E+00 0.  1.
         36    2    1    2    0    0  0.00000000000E+00  0.00000000000E+00 -0.93605177892E+03  0.13736520516E+04  0.10053492061E+04 0.  0.
         25    2    3    3    0    0  0.12707960951E+03  0.67927514550E+02 -0.17376901396E+03  0.25794367716E+03  0.12480342939E+03 0.  0.
         35    2    3    3    0    0 -0.12707960951E+03 -0.67927514550E+02 -0.76228276496E+03  0.11157083745E+04  0.80185209902E+03 0.  0.
         22    1    5    5    0    0 -0.41122332388E+03  0.14154371027E+03 -0.55934348348E+03  0.70852267186E+03  0.00000000000E+00 0. -1.
         22    1    5    5    0    0  0.28414371437E+03 -0.20947122482E+03 -0.20293928148E+03  0.40718570261E+03  0.00000000000E+00 0. -1.
          5    1    4    4  502    0 -0.13689041712E+02  0.45532923081E+01  0.97860065489E+01  0.18054867987E+02  0.47000000000E+01 0.  1.
         -5    1    4    4    0  502  0.14076865123E+03  0.63374222242E+02 -0.18355502050E+03  0.23988880917E+03  0.47000000000E+01 0.  1.
<mgrwt>
<rscale>  0 0.10053492E+04</rscale>
<asrwt>0</asrwt>
<pdfrwt beam="1">  1        2 0.17766953E+00 0.10053492E+04</pdfrwt>
<pdfrwt beam="2">  1       -2 0.33661559E-01 0.10053492E+04</pdfrwt>
<totfact> 0.20071671E+02</totfact>
</mgrwt>
</event>
<event>
 9    1  0.4246427E-036  0.1003779E+04  0.7818608E-02  0.8677447E-01
          2   -1    0    0  501    0  0.00000000000E+00  0.00000000000E+00  0.91061461648E+03  0.91061461648E+03  0.00000000000E+00 0. -1.
         -2   -1    0    0    0  501 -0.00000000000E+00 -0.00000000000E+00 -0.27661891060E+03  0.27661891060E+03  0.00000000000E+00 0. -1.
         36    2    1    2    0    0 -0.10658141036E-13  0.00000000000E+00  0.63399570588E+03  0.11872335271E+04  0.10037793048E+04 0.  0.
         25    2    3    3    0    0  0.25205527245E+02  0.10997079545E+03  0.17530167205E+02  0.16928455031E+03  0.12498423003E+03 0.  0.
         35    2    3    3    0    0 -0.25205527245E+02 -0.10997079545E+03  0.61646553867E+03  0.10179489768E+04  0.80216049795E+03 0.  0.
         22    1    5    5    0    0  0.82794753212E+02  0.20939806587E+03 -0.84194696927E+02  0.24039814504E+03  0.00000000000E+00 0.  1.
         22    1    5    5    0    0 -0.10800028046E+03 -0.31936886132E+03  0.70066023560E+03  0.77755083172E+03  0.00000000000E+00 0.  1.
          5    1    4    4  502    0 -0.13071404892E+01  0.25180708048E+02  0.63976896085E+02  0.68926844602E+02  0.47000000000E+01 0. -1.
         -5    1    4    4    0  502  0.26512667734E+02  0.84790087400E+02 -0.46446728880E+02  0.10035770571E+03  0.47000000000E+01 0. -1.
<mgrwt>
<rscale>  0 0.10037793E+04</rscale>
<asrwt>0</asrwt>
<pdfrwt beam="1">  1        2 0.14009455E+00 0.10037793E+04</pdfrwt>
<pdfrwt beam="2">  1       -2 0.42556756E-01 0.10037793E+04</pdfrwt>
<totfact> 0.18266820E+02</totfact>
</mgrwt>
</event>
<event>
 9    1  0.4246427E-036  0.1000561E+04  0.7818608E-02  0.8680504E-01
          1   -1    0    0  501    0  0.00000000000E+00  0.00000000000E+00  0.34263727272E+03  0.34263727272E+03  0.00000000000E+00 0.  1.
         -1   -1    0    0    0  501 -0.00000000000E+00 -0.00000000000E+00 -0.73045359874E+03  0.73045359874E+03  0.00000000000E+00 0.  1.
         36    2    1    2    0    0 -0.71054273576E-14  0.00000000000E+00 -0.38781632602E+03  0.10730908715E+04  0.10005611004E+04 0.  0.
         25    2    3    3    0    0  0.16756007039E+02  0.37832712224E+02  0.70682425140E+02  0.14952134191E+03  0.12509415884E+03 0.  0.
         35    2    3    3    0    0 -0.16756007039E+02 -0.37832712224E+02 -0.45849875116E+03  0.92356952955E+03  0.80065441560E+03 0.  0.
         22    1    5    5    0    0 -0.12810758857E+03  0.26141108916E+03 -0.52231613007E+03  0.59796442329E+03  0.00000000000E+00 0.  1.
         22    1    5    5    0    0  0.11135158153E+03 -0.29924380138E+03  0.63817378916E+02  0.32560510626E+03  0.00000000000E+00 0.  1.
          5    1    4    4  502    0 -0.36825044326E+02  0.58627150827E+02  0.18661586770E+02  0.71857995551E+02  0.47000000000E+01 0.  1.
         -5    1    4    4    0  502  0.53581051366E+02 -0.20794438603E+02  0.52020838370E+02  0.77663346354E+02  0.47000000000E+01 0.  1.
<mgrwt>
<rscale>  0 0.10005611E+04</rscale>
<asrwt>0</asrwt>
<pdfrwt beam="1">  1        1 0.52713426E-01 0.10005611E+04</pdfrwt>
<pdfrwt beam="2">  1       -1 0.11237748E+00 0.10005611E+04</pdfrwt>
<totfact> 0.64267137E+01</totfact>
</mgrwt>
</event>
<event>
 9    1  0.4246427E-036  0.1001160E+04  0.7818608E-02  0.8679934E-01
         -2   -1    0    0    0  501 -0.00000000000E+00  0.00000000000E+00  0.18127369359E+03  0.18127369359E+03  0.00000000000E+00 0. -1.
          2   -1    0    0  501    0  0.00000000000E+00 -0.00000000000E+00 -0.13823323962E+04  0.13823323962E+04  0.00000000000E+00 0. -1.
         36    2    1    2    0    0 -0.10658141036E-13  0.00000000000E+00 -0.12010587026E+04  0.15636060898E+04  0.10011603253E+04 0.  0.
         25    2    3    3    0    0 -0.31461394049E+02 -0.11357432559E+03 -0.33354006091E+03  0.37532137707E+03  0.12541218881E+03 0.  0.
         35    2    3    3    0    0  0.31461394049E+02  0.11357432559E+03 -0.86751864169E+03  0.11882847127E+04  0.80345691736E+03 0.  0.
         22    1    5    5    0    0  0.24153444405E+03  0.39104484302E+03 -0.55426617496E+03  0.72004579689E+03  0.00000000000E+00 0. -1.
         22    1    5    5    0    0 -0.21007305001E+03 -0.27747051743E+03 -0.31325246674E+03  0.46823891583E+03  0.00000000000E+00 0. -1.
          5    1    4    4  502    0  0.17000654668E+02 -0.77164943004E+02 -0.28982397011E+03  0.30043880299E+03  0.47000000000E+01 0. -1.
         -5    1    4    4    0  502 -0.48462048717E+02 -0.36409382589E+02 -0.43716090794E+02  0.74882574079E+02  0.47000000000E+01 0. -1.
<mgrwt>
<rscale>  0 0.10011603E+04</rscale>
<asrwt>0</asrwt>
<pdfrwt beam="1">  1        2 0.21266652E+00 0.10011603E+04</pdfrwt>
<pdfrwt beam="2">  1       -2 0.27888260E-01 0.10011603E+04</pdfrwt>
<totfact> 0.20854982E+02</totfact>
</mgrwt>
</event>
<event>
 9    1  0.4246427E-036  0.9999305E+03  0.7818608E-02  0.8681104E-01
          1   -1    0    0  501    0  0.00000000000E+00  0.00000000000E+00  0.13365845267E+04  0.13365845267E+04  0.00000000000E+00 0.  1.
         -1   -1    0    0    0  501 -0.00000000000E+00 -0.00000000000E+00 -0.18701791083E+03  0.18701791083E+03  0.00000000000E+00 0.  1.
         36    2    1    2    0    0  0.00000000000E+00 -0.28421709430E-13  0.11495666158E+04  0.15236024375E+04  0.99993048923E+03 0.  0.
         25    2    3    3    0    0  0.79221487146E+02  0.10416249694E+03  0.26881103000E+03  0.32421916059E+03  0.12543055627E+03 0.  0.
         35    2    3    3    0    0 -0.79221487146E+02 -0.10416249694E+03  0.88075558582E+03  0.11993832769E+04  0.80353218551E+03 0.  0.
         22    1    5    5    0    0  0.12107775664E+03 -0.25302991118E+03 -0.35585842681E+01  0.28052918320E+03  0.00000000000E+00 0. -1.
         22    1    5    5    0    0 -0.20029924378E+03  0.14886741424E+03  0.88431417009E+03  0.91885409370E+03  0.00000000000E+00 0. -1.
          5    1    4    4  502    0  0.83500249581E+02  0.15239198179E+02  0.86510700421E+02  0.12128774105E+03  0.47000000000E+01 0. -1.
         -5    1    4    4    0  502 -0.42787624348E+01  0.88923298764E+02  0.18230032958E+03  0.20293141954E+03  0.47000000000E+01 0. -1.
<mgrwt>
<rscale>  0 0.99993049E+03</rscale>
<asrwt>0</asrwt>
<pdfrwt beam="1">  1        1 0.20562838E+00 0.99993049E+03</pdfrwt>
<pdfrwt beam="2">  1       -1 0.28771987E-01 0.99993049E+03</pdfrwt>
<totfact> 0.10210289E+02</totfact>
</mgrwt>
</event>
<event>
 9    1  0.4246427E-036  0.1000195E+04  0.7818608E-02  0.8680853E-01
          1   -1    0    0  501    0  0.00000000000E+00  0.00000000000E+00  0.69528280893E+03  0.69528280893E+03  0.00000000000E+00 0. -1.
         -1   -1    0    0    0  501 -0.00000000000E+00 -0.00000000000E+00 -0.35970598913E+03  0.35970598913E+03  0.00000000000E+00 0. -1.
         36    2    1    2    0    0  0.00000000000E+00 -0.28421709430E-13  0.33557681980E+03  0.10549887981E+04  0.10001947621E+04 0.  0.
         25    2    3    3    0    0 -0.69046972898E+02  0.11760120580E+03  0.42642621577E+02  0.19014937442E+03  0.12546259740E+03 0.  0.
         35    2    3    3    0    0  0.69046972898E+02 -0.11760120580E+03  0.29293419823E+03  0.86483942365E+03  0.80220898532E+03 0.  0.
         22    1    5    5    0    0  0.29091284933E+03 -0.30524871253E+03 -0.39253901696E+02  0.42349490104E+03  0.00000000000E+00 0.  1.
         22    1    5    5    0    0 -0.22186587643E+03  0.18764750673E+03  0.33218809992E+03  0.44134452261E+03  0.00000000000E+00 0.  1.
          5    1    4    4  502    0 -0.81350479379E+01  0.74338125798E+02  0.77300274998E+02  0.10765574052E+03  0.47000000000E+01 0.  1.
         -5    1    4    4    0  502 -0.60911924960E+02  0.43263080001E+02 -0.34657653420E+02  0.82493633900E+02  0.47000000000E+01 0.  1.
<mgrwt>
<rscale>  0 0.10001948E+04</rscale>
<asrwt>0</asrwt>
<pdfrwt beam="1">  1        1 0.10696659E+00 0.10001948E+04</pdfrwt>
<pdfrwt beam="2">  1       -1 0.55339383E-01 0.10001948E+04</pdfrwt>
<totfact> 0.10457490E+02</totfact>
</mgrwt>
</event>
<event>
 9    1  0.4246427E-036  0.9954889E+03  0.7818608E-02  0.8685346E-01
         -1   -1    0    0    0  501 -0.00000000000E+00  0.00000000000E+00  0.17103464478E+03  0.17103464478E+03  0.00000000000E+00 0. -1.
          1   -1    0    0  501    0  0.00000000000E+00 -0.00000000000E+00 -0.14485341619E+04  0.14485341619E+04  0.00000000000E+00 0. -1.
         36    2    1    2    0    0  0.71054273576E-14  0.00000000000E+00 -0.12774995171E+04  0.16195688067E+04  0.99548887656E+03 0.  0.
         25    2    3    3    0    0 -0.34926764333E+02  0.82142197152E+02 -0.40186201165E+03  0.43021323851E+03  0.12499253883E+03 0.  0.
         35    2    3    3    0    0  0.34926764333E+02 -0.82142197152E+02 -0.87563750549E+03  0.11893555682E+04  0.79991149958E+03 0.  0.
         22    1    5    5    0    0  0.11792794306E+03 -0.41425518032E+03 -0.31940266482E+03  0.53622049240E+03  0.00000000000E+00 0.  1.
         22    1    5    5    0    0 -0.83001178722E+02  0.33211298317E+03 -0.55623484067E+03  0.65313507579E+03  0.00000000000E+00 0.  1.
          5    1    4    4  502    0  0.39628720516E+02  0.46348471421E+02 -0.10026184732E+03  0.11744421791E+03  0.47000000000E+01 0.  1.
         -5    1    4    4    0  502 -0.74555484849E+02  0.35793725731E+02 -0.30160016432E+03  0.31276902059E+03  0.47000000000E+01 0.  1.
<mgrwt>
<rscale>  0 0.99548888E+03</rscale>
<asrwt>0</asrwt>
<pdfrwt beam="1">  1        1 0.22285140E+00 0.99548888E+03</pdfrwt>
<pdfrwt beam="2">  1       -1 0.26313023E-01 0.99548888E+03</pdfrwt>
<totfact> 0.98708001E+01</totfact>
</mgrwt>
</event>
<event>
 9    1  0.4246427E-036  0.1001223E+04  0.7818608E-02  0.8679874E-01
          1   -1    0    0  501    0  0.00000000000E+00  0.00000000000E+00  0.18128120930E+04  0.18128120930E+04  0.00000000000E+00 0.  1.
         -1   -1    0    0    0  501 -0.00000000000E+00 -0.00000000000E+00 -0.13824485445E+03  0.13824485445E+03  0.00000000000E+00 0.  1.
         36    2    1    2    0    0 -0.14210854715E-13  0.42632564146E-13  0.16745672385E+04  0.19510569474E+04  0.10012231398E+04 0.  0.
         25    2    3    3    0    0  0.12452281412E+03 -0.48890310448E+02  0.24233333167E+03  0.30461804574E+03  0.12716334557E+03 0.  0.
         35    2    3    3    0    0 -0.12452281412E+03  0.48890310448E+02  0.14322339069E+04  0.16464389017E+04  0.80098121037E+03 0.  0.
         22    1    5    5    0    0 -0.18046134843E+02 -0.25194662431E+03  0.92141878990E+02  0.26887337233E+03  0.00000000000E+00 0.  1.
         22    1    5    5    0    0 -0.10647667928E+03  0.30083693476E+03  0.13400920279E+04  0.13775655294E+04  0.00000000000E+00 0.  1.
          5    1    4    4  502    0  0.14292835108E+03 -0.57979858001E+02  0.17142478447E+03  0.23064848624E+03  0.47000000000E+01 0.  1.
         -5    1    4    4    0  502 -0.18405536955E+02  0.90895475532E+01  0.70908547203E+02  0.73969559494E+02  0.47000000000E+01 0.  1.
<mgrwt>
<rscale>  0 0.10012231E+04</rscale>
<asrwt>0</asrwt>
<pdfrwt beam="1">  1        1 0.27889415E+00 0.10012231E+04</pdfrwt>
<pdfrwt beam="2">  1       -1 0.21268440E-01 0.10012231E+04</pdfrwt>
<totfact> 0.77821720E+01</totfact>
</mgrwt>
</event>
<event>
 9    1  0.4246427E-036  0.9998992E+03  0.7818608E-02  0.8681134E-01
         -1   -1    0    0    0  501 -0.00000000000E+00  0.00000000000E+00  0.33171440928E+03  0.33171440928E+03  0.00000000000E+00 0. -1.
          1   -1    0    0  501    0  0.00000000000E+00 -0.00000000000E+00 -0.75350847767E+03  0.75350847767E+03  0.00000000000E+00 0. -1.
         36    2    1    2    0    0  0.14210854715E-13 -0.28421709430E-13 -0.42179406839E+03  0.10852228870E+04  0.99989923405E+03 0.  0.
         25    2    3    3    0    0  0.42599193458E+02 -0.12988315602E+03 -0.10462499372E+03  0.21345219818E+03  0.12621856479E+03 0.  0.
         35    2    3    3    0    0 -0.42599193458E+02  0.12988315602E+03 -0.31716907467E+03  0.87177068878E+03  0.80043962070E+03 0.  0.
         22    1    5    5    0    0  0.82289733801E+02  0.43595043794E+03 -0.30982067215E+03  0.54112219833E+03  0.00000000000E+00 0. -1.
         22    1    5    5    0    0 -0.12488892726E+03 -0.30606728193E+03 -0.73484025228E+01  0.33064849045E+03  0.00000000000E+00 0. -1.
          5    1    4    4  502    0  0.34927308129E+02 -0.15174187617E+02  0.20469202210E+02  0.43488516440E+02  0.47000000000E+01 0. -1.
         -5    1    4    4    0  502  0.76718853286E+01 -0.11470896840E+03 -0.12509419593E+03  0.16996368174E+03  0.47000000000E+01 0. -1.
<mgrwt>
<rscale>  0 0.99989923E+03</rscale>
<asrwt>0</asrwt>
<pdfrwt beam="1">  1        1 0.11592438E+00 0.99989923E+03</pdfrwt>
<pdfrwt beam="2">  1       -1 0.51032987E-01 0.99989923E+03</pdfrwt>
<totfact> 0.10736727E+02</totfact>
</mgrwt>
</event>
<event>
 9    1  0.4246427E-036  0.9998483E+03  0.7818608E-02  0.8681182E-01
         -2   -1    0    0    0  501 -0.00000000000E+00  0.00000000000E+00  0.49026744042E+03  0.49026744042E+03  0.00000000000E+00 0.  1.
          2   -1    0    0  501    0  0.00000000000E+00 -0.00000000000E+00 -0.50977103558E+03  0.50977103558E+03  0.00000000000E+00 0.  1.
         36    2    1    2    0    0  0.35527136788E-13 -0.14210854715E-13 -0.19503595156E+02  0.10000384760E+04  0.99984827012E+03 0.  0.
         25    2    3    3    0    0  0.51919693069E+02  0.12205977903E+03 -0.19070991093E+02  0.18341883949E+03  0.12523786885E+03 0.  0.
         35    2    3    3    0    0 -0.51919693069E+02 -0.12205977903E+03 -0.43260406319E+00  0.81661963651E+03  0.80577490616E+03 0.  0.
         22    1    5    5    0    0 -0.35736779488E+03 -0.50717133390E+01 -0.22274768938E+03  0.42113417840E+03  0.00000000000E+00 0.  1.
         22    1    5    5    0    0  0.30544810181E+03 -0.11698806569E+03  0.22231508532E+03  0.39548545811E+03  0.00000000000E+00 0.  1.
          5    1    4    4  502    0 -0.18011675382E+02  0.42219915535E+02 -0.54516713836E+02  0.71422012050E+02  0.47000000000E+01 0.  1.
         -5    1    4    4    0  502  0.69931368450E+02  0.79839863496E+02  0.35445722743E+02  0.11199682744E+03  0.47000000000E+01 0.  1.
<mgrwt>
<rscale>  0 0.99984827E+03</rscale>
<asrwt>0</asrwt>
<pdfrwt beam="1">  1        2 0.78426313E-01 0.99984827E+03</pdfrwt>
<pdfrwt beam="2">  1       -2 0.75425760E-01 0.99984827E+03</pdfrwt>
<totfact> 0.11466745E+02</totfact>
</mgrwt>
</event>
<event>
 9    1  0.4246427E-036  0.9989651E+03  0.7818608E-02  0.8682024E-01
          2   -1    0    0  501    0  0.00000000000E+00  0.00000000000E+00  0.16324826651E+04  0.16324826651E+04  0.00000000000E+00 0. -1.
         -2   -1    0    0    0  501 -0.00000000000E+00 -0.00000000000E+00 -0.15282416721E+03  0.15282416721E+03  0.00000000000E+00 0. -1.
         36    2    1    2    0    0 -0.14210854715E-13 -0.28421709430E-13  0.14796584979E+04  0.17853068323E+04  0.99896507202E+03 0.  0.
         25    2    3    3    0    0 -0.11975210935E+03 -0.31446832971E+02  0.37593736566E+03  0.41516957978E+03  0.12532919084E+03 0.  0.
         35    2    3    3    0    0  0.11975210935E+03  0.31446832971E+02  0.11037211322E+04  0.13701372525E+04  0.80233800985E+03 0.  0.
         22    1    5    5    0    0 -0.16131224582E+03  0.26076192187E+03  0.90712239514E+03  0.95754345088E+03  0.00000000000E+00 0. -1.
         22    1    5    5    0    0  0.28106435517E+03 -0.22931508890E+03  0.19659873710E+03  0.41259380166E+03  0.00000000000E+00 0. -1.
          5    1    4    4  502    0 -0.10574326314E+03 -0.45644405251E+02  0.15437872283E+03  0.19266533029E+03  0.47000000000E+01 0.  1.
         -5    1    4    4    0  502 -0.14008846201E+02  0.14197572280E+02  0.22155864283E+03  0.22250424949E+03  0.47000000000E+01 0.  1.
<mgrwt>
<rscale>  0 0.99896507E+03</rscale>
<asrwt>0</asrwt>
<pdfrwt beam="1">  1        2 0.25115117E+00 0.99896507E+03</pdfrwt>
<pdfrwt beam="2">  1       -2 0.23511412E-01 0.99896507E+03</pdfrwt>
<totfact> 0.20392271E+02</totfact>
</mgrwt>
</event>
<event>
 9    1  0.4246427E-036  0.1000114E+04  0.7818608E-02  0.8680930E-01
         -2   -1    0    0    0  501 -0.00000000000E+00  0.00000000000E+00  0.26405486746E+03  0.26405486746E+03  0.00000000000E+00 0. -1.
          2   -1    0    0  501    0  0.00000000000E+00 -0.00000000000E+00 -0.94698822440E+03  0.94698822440E+03  0.00000000000E+00 0. -1.
         36    2    1    2    0    0 -0.71054273576E-14  0.00000000000E+00 -0.68293335694E+03  0.12110430919E+04  0.10001136937E+04 0.  0.
         25    2    3    3    0    0 -0.31831705073E+01 -0.13144066992E+03 -0.14624031385E+03  0.23317243227E+03  0.12528516070E+03 0.  0.
         35    2    3    3    0    0  0.31831705073E+01  0.13144066992E+03 -0.53669304309E+03  0.97787065959E+03  0.80678672653E+03 0.  0.
         22    1    5    5    0    0 -0.20698659079E+03 -0.28333268812E+03 -0.20104618071E+03  0.40440132011E+03  0.00000000000E+00 0.  1.
         22    1    5    5    0    0  0.21016976130E+03  0.41477335804E+03 -0.33564686238E+03  0.57346933948E+03  0.00000000000E+00 0.  1.
          5    1    4    4  502    0 -0.37628174656E+02 -0.34350033861E+01 -0.71285058217E+02  0.80816633815E+02  0.47000000000E+01 0.  1.
         -5    1    4    4    0  502  0.34445004149E+02 -0.12800566653E+03 -0.74955255632E+02  0.15235579845E+03  0.47000000000E+01 0.  1.
<mgrwt>
<rscale>  0 0.10001137E+04</rscale>
<asrwt>0</asrwt>
<pdfrwt beam="1">  1        2 0.14569050E+00 0.10001137E+04</pdfrwt>
<pdfrwt beam="2">  1       -2 0.40623826E-01 0.10001137E+04</pdfrwt>
<totfact> 0.18923674E+02</totfact>
</mgrwt>
</event>
<event>
 9    1  0.4246427E-036  0.1000077E+04  0.7818608E-02  0.8680965E-01
         -2   -1    0    0    0  501 -0.00000000000E+00  0.00000000000E+00  0.43444621561E+03  0.43444621561E+03  0.00000000000E+00 0.  1.
          2   -1    0    0  501    0  0.00000000000E+00 -0.00000000000E+00 -0.57553397126E+03  0.57553397126E+03  0.00000000000E+00 0.  1.
         36    2    1    2    0    0  0.00000000000E+00 -0.88817841970E-15 -0.14108775565E+03  0.10099801869E+04  0.10000771086E+04 0.  0.
         25    2    3    3    0    0 -0.12203480081E+03 -0.35952609752E+01 -0.95528994985E+02  0.19937722026E+03  0.12537969757E+03 0.  0.
         35    2    3    3    0    0  0.12203480081E+03  0.35952609752E+01 -0.45558760666E+02  0.81060296661E+03  0.80006009167E+03 0.  0.
         22    1    5    5    0    0 -0.22011249267E+02 -0.23464358763E+02  0.36925688874E+03  0.37065579870E+03  0.00000000000E+00 0.  1.
         22    1    5    5    0    0  0.14404605008E+03  0.27059619739E+02 -0.41481564940E+03  0.43994716791E+03  0.00000000000E+00 0.  1.
          5    1    4    4  502    0 -0.11538728029E+03 -0.49772154477E+01 -0.12412569407E+03  0.16961213121E+03  0.47000000000E+01 0. -1.
         -5    1    4    4    0  502 -0.66475205276E+01  0.13819544725E+01  0.28596699085E+02  0.29765089046E+02  0.47000000000E+01 0. -1.
<mgrwt>
<rscale>  0 0.10000771E+04</rscale>
<asrwt>0</asrwt>
<pdfrwt beam="1">  1        2 0.88543688E-01 0.10000771E+04</pdfrwt>
<pdfrwt beam="2">  1       -2 0.66837879E-01 0.10000771E+04</pdfrwt>
<totfact> 0.12969368E+02</totfact>
</mgrwt>
</event>
<event>
 9    1  0.4246427E-036  0.1000496E+04  0.7818608E-02  0.8680565E-01
         -1   -1    0    0    0  501 -0.00000000000E+00  0.00000000000E+00  0.14398140025E+04  0.14398140025E+04  0.00000000000E+00 0. -1.
          1   -1    0    0  501    0  0.00000000000E+00 -0.00000000000E+00 -0.17380593701E+03  0.17380593701E+03  0.00000000000E+00 0. -1.
         36    2    1    2    0    0 -0.14210854715E-13 -0.42632564146E-13  0.12660080655E+04  0.16136199395E+04  0.10004963205E+04 0.  0.
         25    2    3    3    0    0 -0.19171936122E+02  0.11717755279E+03  0.36592054045E+03  0.40450265918E+03  0.12500566926E+03 0.  0.
         35    2    3    3    0    0  0.19171936122E+02 -0.11717755279E+03  0.90008752503E+03  0.12091172803E+04  0.79856678046E+03 0.  0.
         22    1    5    5    0    0  0.27137187195E+03 -0.33085941632E+03  0.70668146962E+03  0.82614123838E+03  0.00000000000E+00 0.  1.
         22    1    5    5    0    0 -0.25219993583E+03  0.21368186353E+03  0.19340605541E+03  0.38297604194E+03  0.00000000000E+00 0.  1.
          5    1    4    4  502    0 -0.20111603847E+02  0.25286230274E+02  0.26856916511E+03  0.27054640359E+03  0.47000000000E+01 0.  1.
         -5    1    4    4    0  502  0.93966772513E+00  0.91891322514E+02  0.97351375339E+02  0.13395625558E+03  0.47000000000E+01 0.  1.
<mgrwt>
<rscale>  0 0.10004963E+04</rscale>
<asrwt>0</asrwt>
<pdfrwt beam="1">  1        1 0.26739376E-01 0.10004963E+04</pdfrwt>
<pdfrwt beam="2">  1       -1 0.22150984E+00 0.10004963E+04</pdfrwt>
<totfact> 0.18169936E+01</totfact>
</mgrwt>
</event>
<event>
 9    1  0.4246427E-036  0.9958834E+03  0.7818608E-02  0.8684968E-01
          1   -1    0    0  501    0  0.00000000000E+00  0.00000000000E+00  0.16699378530E+04  0.16699378530E+04  0.00000000000E+00 0.  1.
         -1   -1    0    0    0  501 -0.00000000000E+00 -0.00000000000E+00 -0.14847613153E+03  0.14847613153E+03  0.00000000000E+00 0.  1.
         36    2    1    2    0    0  0.14210854715E-13 -0.14210854715E-13  0.15214617215E+04  0.18184139845E+04  0.99588335121E+03 0.  0.
         25    2    3    3    0    0  0.85873435393E+02  0.73095658020E+02  0.14343022663E+03  0.22109352355E+03  0.12487151043E+03 0.  0.
         35    2    3    3    0    0 -0.85873435393E+02 -0.73095658020E+02  0.13780314949E+04  0.15973204610E+04  0.79984037916E+03 0.  0.
         22    1    5    5    0    0 -0.30822126854E+03 -0.25529487527E+03  0.35603364273E+03  0.53566386706E+03  0.00000000000E+00 0. -1.
         22    1    5    5    0    0  0.22234783315E+03  0.18219921725E+03  0.10219978521E+04  0.10616565939E+04  0.00000000000E+00 0. -1.
          5    1    4    4  502    0  0.11663143840E+03  0.71854938485E+02  0.11483126924E+03  0.17881368796E+03  0.47000000000E+01 0. -1.
         -5    1    4    4    0  502 -0.30758003003E+02  0.12407195351E+01  0.28598957390E+02  0.42279835590E+02  0.47000000000E+01 0. -1.
<mgrwt>
<rscale>  0 0.99588335E+03</rscale>
<asrwt>0</asrwt>
<pdfrwt beam="1">  1        1 0.25691350E+00 0.99588335E+03</pdfrwt>
<pdfrwt beam="2">  1       -1 0.22842483E-01 0.99588335E+03</pdfrwt>
<totfact> 0.87137004E+01</totfact>
</mgrwt>
</event>
<event>
 9    1  0.4246427E-036  0.1000000E+04  0.7818608E-02  0.8681038E-01
         -1   -1    0    0    0  501 -0.00000000000E+00  0.00000000000E+00  0.51893714516E+03  0.51893714516E+03  0.00000000000E+00 0. -1.
          1   -1    0    0  501    0  0.00000000000E+00 -0.00000000000E+00 -0.48175427618E+03  0.48175427618E+03  0.00000000000E+00 0. -1.
         36    2    1    2    0    0  0.71054273576E-14  0.28421709430E-13  0.37182868979E+02  0.10006914213E+04  0.10000003775E+04 0.  0.
         25    2    3    3    0    0  0.11298204717E+02 -0.13578895833E+03  0.43273225455E+02  0.18889290511E+03  0.12345714611E+03 0.  0.
         35    2    3    3    0    0 -0.11298204717E+02  0.13578895833E+03 -0.60903564758E+01  0.81179851623E+03  0.80025836321E+03 0.  0.
         22    1    5    5    0    0 -0.38324778202E+03  0.16877517475E+03 -0.91731639039E+02  0.42869408164E+03  0.00000000000E+00 0. -1.
         22    1    5    5    0    0  0.37194957730E+03 -0.32986216422E+02  0.85641282563E+02  0.38310443459E+03  0.00000000000E+00 0. -1.
          5    1    4    4  502    0 -0.40575359753E+02 -0.12256436722E+03  0.21776400236E+02  0.13101406619E+03  0.47000000000E+01 0. -1.
         -5    1    4    4    0  502  0.51873564470E+02 -0.13224591109E+02  0.21496825218E+02  0.57878838925E+02  0.47000000000E+01 0. -1.
<mgrwt>
<rscale>  0 0.10000004E+04</rscale>
<asrwt>0</asrwt>
<pdfrwt beam="1">  1        1 0.74116042E-01 0.10000004E+04</pdfrwt>
<pdfrwt beam="2">  1       -1 0.79836484E-01 0.10000004E+04</pdfrwt>
<totfact> 0.86457097E+01</totfact>
</mgrwt>
</event>
<event>
 9    1  0.4246427E-036  0.1001153E+04  0.7818608E-02  0.8679941E-01
          1   -1    0    0  501    0  0.00000000000E+00  0.00000000000E+00  0.34993350311E+04  0.34993350311E+04  0.00000000000E+00 0.  1.
         -1   -1    0    0    0  501 -0.00000000000E+00 -0.00000000000E+00 -0.71606919841E+02  0.71606919841E+02  0.00000000000E+00 0.  1.
         36    2    1    2    0    0  0.14210854715E-13  0.00000000000E+00  0.34277281112E+04  0.35709419509E+04  0.10011525420E+04 0.  0.
         25    2    3    3    0    0  0.99468877951E+02  0.59087823211E+01  0.28812279973E+03  0.32947847729E+03  0.12494938127E+03 0.  0.
         35    2    3    3    0    0 -0.99468877951E+02 -0.59087823211E+01  0.31396053115E+04  0.32414634736E+04  0.80002185437E+03 0.  0.
         22    1    5    5    0    0  0.12111215036E+03  0.31518745308E+03  0.21768169632E+04  0.22028489224E+04  0.00000000000E+00 0.  1.
         22    1    5    5    0    0 -0.22058102831E+03 -0.32109623540E+03  0.96278834827E+03  0.10386145512E+04  0.00000000000E+00 0.  1.
          5    1    4    4  502    0  0.15814459080E+02 -0.31559685973E+02  0.10575423228E+02  0.37148895961E+02  0.47000000000E+01 0.  1.
         -5    1    4    4    0  502  0.83654418872E+02  0.37468468294E+02  0.27754737651E+03  0.29232958133E+03  0.47000000000E+01 0.  1.
<mgrwt>
<rscale>  0 0.10011525E+04</rscale>
<asrwt>0</asrwt>
<pdfrwt beam="1">  1        1 0.53835911E+00 0.10011525E+04</pdfrwt>
<pdfrwt beam="2">  1       -1 0.11016452E-01 0.10011525E+04</pdfrwt>
<totfact> 0.14101920E+01</totfact>
</mgrwt>
</event>
<event>
 9    1  0.4246427E-036  0.1003298E+04  0.7818608E-02  0.8677904E-01
         -1   -1    0    0    0  501 -0.00000000000E+00  0.00000000000E+00  0.33901783588E+03  0.33901783588E+03  0.00000000000E+00 0.  1.
          1   -1    0    0  501    0  0.00000000000E+00 -0.00000000000E+00 -0.74229617390E+03  0.74229617390E+03  0.00000000000E+00 0.  1.
         36    2    1    2    0    0  0.00000000000E+00  0.00000000000E+00 -0.40327833801E+03  0.10813140098E+04  0.10032978470E+04 0.  0.
         25    2    3    3    0    0  0.36730758279E+02  0.94460903087E+02 -0.18719678656E+03  0.24699337293E+03  0.12526403536E+03 0.  0.
         35    2    3    3    0    0 -0.36730758279E+02 -0.94460903087E+02 -0.21608155145E+03  0.83432063685E+03  0.79945461246E+03 0.  0.
         22    1    5    5    0    0 -0.32228485315E+03 -0.27456369057E+03 -0.25537020115E+03  0.49443572523E+03  0.00000000000E+00 0.  1.
         22    1    5    5    0    0  0.28555409487E+03  0.18010278748E+03  0.39288649701E+02  0.33988491162E+03  0.00000000000E+00 0.  1.
          5    1    4    4  502    0 -0.36560149338E+02  0.56835802689E+02 -0.41191887785E+02  0.79283129392E+02  0.47000000000E+01 0.  1.
         -5    1    4    4    0  502  0.73290907617E+02  0.37625100398E+02 -0.14600489878E+03  0.16771024354E+03  0.47000000000E+01 0.  1.
<mgrwt>
<rscale>  0 0.10032978E+04</rscale>
<asrwt>0</asrwt>
<pdfrwt beam="1">  1        1 0.11419941E+00 0.10032978E+04</pdfrwt>
<pdfrwt beam="2">  1       -1 0.52156591E-01 0.10032978E+04</pdfrwt>
<totfact> 0.10554178E+02</totfact>
</mgrwt>
</event>
<event>
 9    1  0.4246427E-036  0.9993180E+03  0.7818608E-02  0.8681688E-01
         -1   -1    0    0    0  501 -0.00000000000E+00  0.00000000000E+00  0.78385955088E+03  0.78385955088E+03  0.00000000000E+00 0.  1.
          1   -1    0    0  501    0  0.00000000000E+00 -0.00000000000E+00 -0.31849980044E+03  0.31849980044E+03  0.00000000000E+00 0.  1.
         36    2    1    2    0    0 -0.14210854715E-13 -0.14210854715E-13  0.46535975044E+03  0.11023593513E+04  0.99931798848E+03 0.  0.
         25    2    3    3    0    0  0.43794269500E+02 -0.10943770660E+03  0.70429840716E+01  0.17250072582E+03  0.12574715551E+03 0.  0.
         35    2    3    3    0    0 -0.43794269500E+02  0.10943770660E+03  0.45831676637E+03  0.92985862549E+03  0.80043004404E+03 0.  0.
         22    1    5    5    0    0 -0.30045768366E+03  0.26079700857E+03  0.18085700796E+02  0.39826748791E+03  0.00000000000E+00 0. -1.
         22    1    5    5    0    0  0.25666341416E+03 -0.15135930197E+03  0.44023106557E+03  0.53159113759E+03  0.00000000000E+00 0. -1.
          5    1    4    4  502    0  0.71465159265E+02 -0.76852966257E+02  0.45806013539E+02  0.11460335199E+03  0.47000000000E+01 0.  1.
         -5    1    4    4    0  502 -0.27670889765E+02 -0.32584740338E+02 -0.38763029467E+02  0.57897373833E+02  0.47000000000E+01 0.  1.
<mgrwt>
<rscale>  0 0.99931799E+03</rscale>
<asrwt>0</asrwt>
<pdfrwt beam="1">  1        1 0.48999969E-01 0.99931799E+03</pdfrwt>
<pdfrwt beam="2">  1       -1 0.12059378E+00 0.99931799E+03</pdfrwt>
<totfact> 0.59597286E+01</totfact>
</mgrwt>
</event>
<event>
 9    1  0.4246427E-036  0.1000428E+04  0.7818608E-02  0.8680631E-01
         -2   -1    0    0    0  501 -0.00000000000E+00  0.00000000000E+00  0.96114191188E+02  0.96114191188E+02  0.00000000000E+00 0.  1.
          2   -1    0    0  501    0  0.00000000000E+00 -0.00000000000E+00 -0.26032981617E+04  0.26032981617E+04  0.00000000000E+00 0.  1.
         36    2    1    2    0    0  0.00000000000E+00 -0.21316282073E-13 -0.25071839705E+04  0.26994123529E+04  0.10004277030E+04 0.  0.
         25    2    3    3    0    0  0.10600232091E+03  0.10295566128E+02 -0.72432225377E+03  0.74241776979E+03  0.12328392792E+03 0.  0.
         35    2    3    3    0    0 -0.10600232091E+03 -0.10295566128E+02 -0.17828617168E+04  0.19569945831E+04  0.79993087609E+03 0.  0.
         22    1    5    5    0    0 -0.14563805218E+03 -0.32678119582E+03 -0.14598298046E+04  0.15030300897E+04  0.00000000000E+00 0.  1.
         22    1    5    5    0    0  0.39635731276E+02  0.31648562969E+03 -0.32303191218E+03  0.45396449341E+03  0.00000000000E+00 0.  1.
          5    1    4    4  502    0  0.10719381544E+03  0.27534766823E+02 -0.33817422070E+03  0.35585470489E+03  0.47000000000E+01 0.  1.
         -5    1    4    4    0  502 -0.11914945297E+01 -0.17239200695E+02 -0.38614803307E+03  0.38656306490E+03  0.47000000000E+01 0.  1.
<mgrwt>
<rscale>  0 0.10004277E+04</rscale>
<asrwt>0</asrwt>
<pdfrwt beam="1">  1        2 0.40050740E+00 0.10004277E+04</pdfrwt>
<pdfrwt beam="2">  1       -2 0.14786799E-01 0.10004277E+04</pdfrwt>
<totfact> 0.12325886E+02</totfact>
</mgrwt>
</event>
<event>
 9    1  0.4246427E-036  0.9998894E+03  0.7818608E-02  0.8681143E-01
          2   -1    0    0  501    0  0.00000000000E+00  0.00000000000E+00  0.85867587715E+03  0.85867587715E+03  0.00000000000E+00 0.  1.
         -2   -1    0    0    0  501 -0.00000000000E+00 -0.00000000000E+00 -0.29108157325E+03  0.29108157325E+03  0.00000000000E+00 0.  1.
         36    2    1    2    0    0  0.24868995752E-13 -0.28421709430E-13  0.56759430391E+03  0.11497574504E+04  0.99988944435E+03 0.  0.
         25    2    3    3    0    0 -0.27169938301E+02  0.44616304298E+02  0.25565019351E+03  0.28918077341E+03  0.12465824527E+03 0.  0.
         35    2    3    3    0    0  0.27169938301E+02 -0.44616304298E+02  0.31194411040E+03  0.86057667699E+03  0.80034634304E+03 0.  0.
         22    1    5    5    0    0  0.24793552086E+03 -0.25568954170E+03 -0.78651285380E+02  0.36473989216E+03  0.00000000000E+00 0. -1.
         22    1    5    5    0    0 -0.22076558256E+03  0.21107323741E+03  0.39059539578E+03  0.49583678483E+03  0.00000000000E+00 0. -1.
          5    1    4    4  502    0 -0.91390420312E+01  0.21845894569E+02  0.25849584229E+03  0.25962079207E+03  0.47000000000E+01 0. -1.
         -5    1    4    4    0  502 -0.18030896269E+02  0.22770409729E+02 -0.28456487787E+01  0.29559981334E+02  0.47000000000E+01 0. -1.
<mgrwt>
<rscale>  0 0.99988944E+03</rscale>
<asrwt>0</asrwt>
<pdfrwt beam="1">  1        2 0.13210398E+00 0.99988944E+03</pdfrwt>
<pdfrwt beam="2">  1       -2 0.44781781E-01 0.99988944E+03</pdfrwt>
<totfact> 0.17910776E+02</totfact>
</mgrwt>
</event>
<event>
 9    1  0.4246427E-036  0.9988977E+03  0.7818608E-02  0.8682088E-01
         -1   -1    0    0    0  501 -0.00000000000E+00  0.00000000000E+00  0.37892720252E+03  0.37892720252E+03  0.00000000000E+00 0.  1.
          1   -1    0    0  501    0  0.00000000000E+00 -0.00000000000E+00 -0.65830363417E+03  0.65830363417E+03  0.00000000000E+00 0.  1.
         36    2    1    2    0    0 -0.28421709430E-13 -0.14210854715E-13 -0.27937643165E+03  0.10372308367E+04  0.99889770148E+03 0.  0.
         25    2    3    3    0    0  0.13627208380E+03 -0.25742048921E+02 -0.64824325586E+02  0.19776570426E+03  0.12520521829E+03 0.  0.
         35    2    3    3    0    0 -0.13627208380E+03  0.25742048921E+02 -0.21455210606E+03  0.83946513243E+03  0.79964765269E+03 0.  0.
         22    1    5    5    0    0  0.14653743816E+03  0.15276957680E+03 -0.41806775704E+03  0.46860688627E+03  0.00000000000E+00 0.  1.
         22    1    5    5    0    0 -0.28280952197E+03 -0.12702752788E+03  0.20351565098E+03  0.37085824616E+03  0.00000000000E+00 0.  1.
          5    1    4    4  502    0  0.75285306359E+02 -0.30018129681E+02  0.28549435700E+02  0.86058850457E+02  0.47000000000E+01 0. -1.
         -5    1    4    4    0  502  0.60986777443E+02  0.42760807602E+01 -0.93373761286E+02  0.11170685380E+03  0.47000000000E+01 0. -1.
<mgrwt>
<rscale>  0 0.99889770E+03</rscale>
<asrwt>0</asrwt>
<pdfrwt beam="1">  1        1 0.10127748E+00 0.99889770E+03</pdfrwt>
<pdfrwt beam="2">  1       -1 0.58296493E-01 0.99889770E+03</pdfrwt>
<totfact> 0.10294176E+02</totfact>
</mgrwt>
</event>
<event>
 9    1  0.4246427E-036  0.9975593E+03  0.7818608E-02  0.8683366E-01
         -1   -1    0    0    0  501 -0.00000000000E+00  0.00000000000E+00  0.14287280243E+03  0.14287280243E+03  0.00000000000E+00 0. -1.
          1   -1    0    0  501    0  0.00000000000E+00 -0.00000000000E+00 -0.17412771005E+04  0.17412771005E+04  0.00000000000E+00 0. -1.
         36    2    1    2    0    0 -0.21316282073E-13 -0.28421709430E-13 -0.15984042981E+04  0.18841499030E+04  0.99755929980E+03 0.  0.
         25    2    3    3    0    0  0.84567167843E+01  0.12210838861E+03 -0.42106209170E+03  0.45605692588E+03  0.12535014940E+03 0.  0.
         35    2    3    3    0    0 -0.84567167843E+01 -0.12210838861E+03 -0.11773422064E+04  0.14280929771E+04  0.79895738657E+03 0.  0.
         22    1    5    5    0    0 -0.30255179237E+03 -0.31260569292E+03 -0.48096161143E+03  0.64852446213E+03  0.00000000000E+00 0. -1.
         22    1    5    5    0    0  0.29409507558E+03  0.19049730432E+03 -0.69638059498E+03  0.77956851495E+03  0.00000000000E+00 0. -1.
          5    1    4    4  502    0  0.40910611491E+02  0.88574617204E+02 -0.38414221509E+03  0.39636658835E+03  0.47000000000E+01 0. -1.
         -5    1    4    4    0  502 -0.32453894707E+02  0.33533771401E+02 -0.36919876606E+02  0.59690337531E+02  0.47000000000E+01 0. -1.
<mgrwt>
<rscale>  0 0.99755930E+03</rscale>
<asrwt>0</asrwt>
<pdfrwt beam="1">  1        1 0.26788878E+00 0.99755930E+03</pdfrwt>
<pdfrwt beam="2">  1       -1 0.21980431E-01 0.99755930E+03</pdfrwt>
<totfact> 0.82741504E+01</totfact>
</mgrwt>
</event>
<event>
 9    1  0.4246427E-036  0.9992717E+03  0.7818608E-02  0.8681732E-01
          2   -1    0    0  501    0  0.00000000000E+00  0.00000000000E+00  0.70929631856E+03  0.70929631856E+03  0.00000000000E+00 0.  1.
         -2   -1    0    0    0  501 -0.00000000000E+00 -0.00000000000E+00 -0.35194879539E+03  0.35194879539E+03  0.00000000000E+00 0.  1.
         36    2    1    2    0    0 -0.14210854715E-13 -0.28421709430E-13  0.35734752318E+03  0.10612451140E+04  0.99927170458E+03 0.  0.
         25    2    3    3    0    0 -0.95174688022E+02  0.88412886805E+02  0.12692934112E+03  0.22002372831E+03  0.12419470033E+03 0.  0.
         35    2    3    3    0    0  0.95174688022E+02 -0.88412886805E+02  0.23041818206E+03  0.84122138564E+03  0.79855232843E+03 0.  0.
         22    1    5    5    0    0 -0.10695455652E+03 -0.38834250517E+03  0.25823513995E+03  0.47847107121E+03  0.00000000000E+00 0.  1.
         22    1    5    5    0    0  0.20212924454E+03  0.29992961836E+03 -0.27816957892E+02  0.36275031443E+03  0.00000000000E+00 0.  1.
          5    1    4    4  502    0 -0.86009490365E+02  0.44924869447E+02  0.13468452189E+02  0.98078364240E+02  0.47000000000E+01 0.  1.
         -5    1    4    4    0  502 -0.91651976571E+01  0.43488017358E+02  0.11346088893E+03  0.12194536407E+03  0.47000000000E+01 0.  1.
<mgrwt>
<rscale>  0 0.99927170E+03</rscale>
<asrwt>0</asrwt>
<pdfrwt beam="1">  1        2 0.10912251E+00 0.99927170E+03</pdfrwt>
<pdfrwt beam="2">  1       -2 0.54145969E-01 0.99927170E+03</pdfrwt>
<totfact> 0.15661389E+02</totfact>
</mgrwt>
</event>
<event>
 9    1  0.4246427E-036  0.9997920E+03  0.7818608E-02  0.8681236E-01
          1   -1    0    0  501    0  0.00000000000E+00  0.00000000000E+00  0.11098847362E+04  0.11098847362E+04  0.00000000000E+00 0.  1.
         -1   -1    0    0    0  501 -0.00000000000E+00 -0.00000000000E+00 -0.22515491670E+03  0.22515491670E+03  0.00000000000E+00 0.  1.
         36    2    1    2    0    0  0.28421709430E-13  0.00000000000E+00  0.88472981952E+03  0.13350396529E+04  0.99979198902E+03 0.  0.
         25    2    3    3    0    0  0.11956993326E+03  0.29350245959E+02  0.25354434693E+03  0.30837756513E+03  0.12511427152E+03 0.  0.
         35    2    3    3    0    0 -0.11956993326E+03 -0.29350245959E+02  0.63118547259E+03  0.10266620878E+04  0.80030090329E+03 0.  0.
         22    1    5    5    0    0  0.24730455871E+03 -0.96670801219E+02  0.59543015465E+03  0.65195234307E+03  0.00000000000E+00 0. -1.
         22    1    5    5    0    0 -0.36687449197E+03  0.67320555259E+02  0.35755317937E+02  0.37470974471E+03  0.00000000000E+00 0. -1.
          5    1    4    4  502    0  0.99952158039E+02  0.74903682015E+02  0.19345326983E+03  0.23031989294E+03  0.47000000000E+01 0. -1.
         -5    1    4    4    0  502  0.19617775225E+02 -0.45553436055E+02  0.60091077097E+02  0.78057672191E+02  0.47000000000E+01 0. -1.
<mgrwt>
<rscale>  0 0.99979199E+03</rscale>
<asrwt>0</asrwt>
<pdfrwt beam="1">  1        1 0.17075149E+00 0.99979199E+03</pdfrwt>
<pdfrwt beam="2">  1       -1 0.34639219E-01 0.99979199E+03</pdfrwt>
<totfact> 0.10934979E+02</totfact>
</mgrwt>
</event>
<event>
 9    1  0.4246427E-036  0.1003404E+04  0.7818608E-02  0.8677803E-01
         -2   -1    0    0    0  501 -0.00000000000E+00  0.00000000000E+00  0.15538248159E+03  0.15538248159E+03  0.00000000000E+00 0.  1.
          2   -1    0    0  501    0  0.00000000000E+00 -0.00000000000E+00 -0.16199063288E+04  0.16199063288E+04  0.00000000000E+00 0.  1.
         36    2    1    2    0    0 -0.14210854715E-13 -0.14210854715E-13 -0.14645238472E+04  0.17752888104E+04  0.10034043359E+04 0.  0.
         25    2    3    3    0    0 -0.83621089105E+02  0.85996736864E+02 -0.41980100864E+03  0.45414460398E+03  0.12500603654E+03 0.  0.
         35    2    3    3    0    0  0.83621089105E+02 -0.85996736864E+02 -0.10447228386E+04  0.13211442064E+04  0.79974263322E+03 0.  0.
         22    1    5    5    0    0 -0.67171982291E+02 -0.37999000111E+03 -0.24820152437E+03  0.45881202343E+03  0.00000000000E+00 0.  1.
         22    1    5    5    0    0  0.15079307140E+03  0.29399326425E+03 -0.79652131421E+03  0.86233218298E+03  0.00000000000E+00 0.  1.
          5    1    4    4  502    0 -0.70113793149E+02  0.99066395361E+02 -0.41729199982E+03  0.43460878706E+03  0.47000000000E+01 0. -1.
         -5    1    4    4    0  502 -0.13507295955E+02 -0.13069658497E+02 -0.25090088215E+01  0.19535816915E+02  0.47000000000E+01 0. -1.
<mgrwt>
<rscale>  0 0.10034043E+04</rscale>
<asrwt>0</asrwt>
<pdfrwt beam="1">  1        2 0.24921637E+00 0.10034043E+04</pdfrwt>
<pdfrwt beam="2">  1       -2 0.23904996E-01 0.10034043E+04</pdfrwt>
<totfact> 0.20129846E+02</totfact>
</mgrwt>
</event>
<event>
 9    1  0.4246427E-036  0.1001376E+04  0.7818608E-02  0.8679728E-01
         -2   -1    0    0    0  501 -0.00000000000E+00  0.00000000000E+00  0.32691283050E+03  0.32691283050E+03  0.00000000000E+00 0.  1.
          2   -1    0    0  501    0  0.00000000000E+00 -0.00000000000E+00 -0.76683618109E+03  0.76683618109E+03  0.00000000000E+00 0.  1.
         36    2    1    2    0    0  0.00000000000E+00 -0.14210854715E-13 -0.43992335059E+03  0.10937490116E+04  0.10013762260E+04 0.  0.
         25    2    3    3    0    0 -0.11243776092E+03  0.78476109759E+02 -0.97798591987E+02  0.21144361428E+03  0.12784008582E+03 0.  0.
         35    2    3    3    0    0  0.11243776092E+03 -0.78476109759E+02 -0.34212475860E+03  0.88230539731E+03  0.80163128294E+03 0.  0.
         22    1    5    5    0    0  0.39221165618E+03 -0.25985217042E+03 -0.13374535711E+03  0.48912263724E+03  0.00000000000E+00 0.  1.
         22    1    5    5    0    0 -0.27977389526E+03  0.18137606066E+03 -0.20837940148E+03  0.39318276007E+03  0.00000000000E+00 0.  1.
          5    1    4    4  502    0 -0.63972717509E+02  0.10224409890E+02  0.18992893966E+02  0.67674715842E+02  0.47000000000E+01 0.  1.
         -5    1    4    4    0  502 -0.48465043407E+02  0.68251699869E+02 -0.11679148595E+03  0.14376889844E+03  0.47000000000E+01 0.  1.
<mgrwt>
<rscale>  0 0.10013762E+04</rscale>
<asrwt>0</asrwt>
<pdfrwt beam="1">  1        2 0.11797480E+00 0.10013762E+04</pdfrwt>
<pdfrwt beam="2">  1       -2 0.50294282E-01 0.10013762E+04</pdfrwt>
<totfact> 0.16488443E+02</totfact>
</mgrwt>
</event>
<event>
 9    1  0.4246427E-036  0.9985059E+03  0.7818608E-02  0.8682462E-01
          2   -1    0    0  501    0  0.00000000000E+00  0.00000000000E+00  0.80929755143E+03  0.80929755143E+03  0.00000000000E+00 0. -1.
         -2   -1    0    0    0  501 -0.00000000000E+00 -0.00000000000E+00 -0.30798745980E+03  0.30798745980E+03  0.00000000000E+00 0. -1.
         36    2    1    2    0    0 -0.28421709430E-13 -0.14210854715E-13  0.50131009163E+03  0.11172850112E+04  0.99850587797E+03 0.  0.
         25    2    3    3    0    0 -0.12310940521E+03  0.54102554772E+02  0.13099804092E+03  0.22545249591E+03  0.12484121557E+03 0.  0.
         35    2    3    3    0    0  0.12310940521E+03 -0.54102554772E+02  0.37031205071E+03  0.89183251532E+03  0.80009449966E+03 0.  0.
         22    1    5    5    0    0  0.79772961861E+02 -0.17066995810E+03  0.60095778420E+03  0.62979537822E+03  0.00000000000E+00 0. -1.
         22    1    5    5    0    0  0.43336443350E+02  0.11656740333E+03 -0.23064573349E+03  0.26203713709E+03  0.00000000000E+00 0. -1.
          5    1    4    4  502    0 -0.11192947558E+03  0.90682257360E+02  0.11173557403E+03  0.18236887839E+03  0.47000000000E+01 0. -1.
         -5    1    4    4    0  502 -0.11179929635E+02 -0.36579702587E+02  0.19262466888E+02  0.43083617520E+02  0.47000000000E+01 0. -1.
<mgrwt>
<rscale>  0 0.99850588E+03</rscale>
<asrwt>0</asrwt>
<pdfrwt beam="1">  1        2 0.12450731E+00 0.99850588E+03</pdfrwt>
<pdfrwt beam="2">  1       -2 0.47382687E-01 0.99850588E+03</pdfrwt>
<totfact> 0.17326964E+02</totfact>
</mgrwt>
</event>
<event>
 9    1  0.4246427E-036  0.1002996E+04  0.7818608E-02  0.8678190E-01
          1   -1    0    0  501    0  0.00000000000E+00  0.00000000000E+00  0.13537662027E+04  0.13537662027E+04  0.00000000000E+00 0.  1.
         -1   -1    0    0    0  501 -0.00000000000E+00 -0.00000000000E+00 -0.18577836628E+03  0.18577836628E+03  0.00000000000E+00 0.  1.
         36    2    1    2    0    0  0.00000000000E+00 -0.28421709430E-13  0.11679878364E+04  0.15395445690E+04  0.10029964576E+04 0.  0.
         25    2    3    3    0    0 -0.73077616891E+02  0.11596710136E+03  0.28856434716E+03  0.34299819467E+03  0.12485860966E+03 0.  0.
         35    2    3    3    0    0  0.73077616891E+02 -0.11596710136E+03  0.87942348928E+03  0.11965463743E+04  0.79971797889E+03 0.  0.
         22    1    5    5    0    0  0.55729648121E+02  0.34090980589E+03  0.29305589335E+03  0.45299784333E+03  0.00000000000E+00 0.  1.
         22    1    5    5    0    0  0.17347968770E+02 -0.45687690726E+03  0.58636759593E+03  0.74354853101E+03  0.00000000000E+00 0.  1.
          5    1    4    4  502    0 -0.28573467055E+02  0.11225861928E+03  0.11341302863E+03  0.16218213738E+03  0.47000000000E+01 0.  1.
         -5    1    4    4    0  502 -0.44504149836E+02  0.37084820887E+01  0.17515131853E+03  0.18081605730E+03  0.47000000000E+01 0.  1.
<mgrwt>
<rscale>  0 0.10029965E+04</rscale>
<asrwt>0</asrwt>
<pdfrwt beam="1">  1        1 0.20827172E+00 0.10029965E+04</pdfrwt>
<pdfrwt beam="2">  1       -1 0.28581288E-01 0.10029965E+04</pdfrwt>
<totfact> 0.10031948E+02</totfact>
</mgrwt>
</event>
<event>
 9    1  0.4246427E-036  0.1000931E+04  0.7818608E-02  0.8680152E-01
          1   -1    0    0  501    0  0.00000000000E+00  0.00000000000E+00  0.21258464589E+03  0.21258464589E+03  0.00000000000E+00 0. -1.
         -1   -1    0    0    0  501 -0.00000000000E+00 -0.00000000000E+00 -0.11781925567E+04  0.11781925567E+04  0.00000000000E+00 0. -1.
         36    2    1    2    0    0 -0.71054273576E-14  0.00000000000E+00 -0.96560791079E+03  0.13907772026E+04  0.10009308617E+04 0.  0.
         25    2    3    3    0    0  0.14719309088E+02 -0.56066262849E+02 -0.36113893371E+03  0.38627705213E+03  0.12421170503E+03 0.  0.
         35    2    3    3    0    0 -0.14719309088E+02  0.56066262849E+02 -0.60446897708E+03  0.10045001505E+04  0.80017355875E+03 0.  0.
         22    1    5    5    0    0 -0.68855216800E+02  0.16375322826E+03 -0.77532185330E+03  0.79541192903E+03  0.00000000000E+00 0.  1.
         22    1    5    5    0    0  0.54135907712E+02 -0.10768696541E+03  0.17085287622E+03  0.20908822142E+03  0.00000000000E+00 0.  1.
          5    1    4    4  502    0 -0.44235770468E+02  0.89762454063E+01 -0.83270380855E+02  0.94833658045E+02  0.47000000000E+01 0.  1.
         -5    1    4    4    0  502  0.58955079556E+02 -0.65042508256E+02 -0.27786855286E+03  0.29144339408E+03  0.47000000000E+01 0.  1.
<mgrwt>
<rscale>  0 0.10009309E+04</rscale>
<asrwt>0</asrwt>
<pdfrwt beam="1">  1        1 0.32705330E-01 0.10009309E+04</pdfrwt>
<pdfrwt beam="2">  1       -1 0.18126039E+00 0.10009309E+04</pdfrwt>
<totfact> 0.30791328E+01</totfact>
</mgrwt>
</event>
<event>
 9    1  0.4246427E-036  0.1000537E+04  0.7818608E-02  0.8680527E-01
          2   -1    0    0  501    0  0.00000000000E+00  0.00000000000E+00  0.59990859221E+03  0.59990859221E+03  0.00000000000E+00 0. -1.
         -2   -1    0    0    0  501 -0.00000000000E+00 -0.00000000000E+00 -0.41717759761E+03  0.41717759761E+03  0.00000000000E+00 0. -1.
         36    2    1    2    0    0  0.35527136788E-14  0.00000000000E+00  0.18273099460E+03  0.10170861898E+04  0.10005367065E+04 0.  0.
         25    2    3    3    0    0  0.15018489978E+02 -0.41453264726E+02  0.16782180535E+03  0.21462246762E+03  0.12631198305E+03 0.  0.
         35    2    3    3    0    0 -0.15018489978E+02  0.41453264726E+02  0.14909189254E+02  0.80246372219E+03  0.80111285929E+03 0.  0.
         22    1    5    5    0    0 -0.26812042320E+03 -0.36561042297E+02 -0.29130715929E+03  0.39759921052E+03  0.00000000000E+00 0.  1.
         22    1    5    5    0    0  0.25310193322E+03  0.78014307023E+02  0.30621634854E+03  0.40486451168E+03  0.00000000000E+00 0.  1.
          5    1    4    4  502    0  0.19544490853E+02 -0.82936115695E+02  0.14094063544E+03  0.16476267517E+03  0.47000000000E+01 0.  1.
         -5    1    4    4    0  502 -0.45260008749E+01  0.41482850969E+02  0.26881169906E+02  0.49859792457E+02  0.47000000000E+01 0.  1.
<mgrwt>
<rscale>  0 0.10005367E+04</rscale>
<asrwt>0</asrwt>
<pdfrwt beam="1">  1        2 0.92293630E-01 0.10005367E+04</pdfrwt>
<pdfrwt beam="2">  1       -2 0.64181169E-01 0.10005367E+04</pdfrwt>
<totfact> 0.13465282E+02</totfact>
</mgrwt>
</event>
<event>
 9    1  0.4246427E-036  0.9998826E+03  0.7818608E-02  0.8681150E-01
          1   -1    0    0  501    0  0.00000000000E+00  0.00000000000E+00  0.54357846318E+03  0.54357846318E+03  0.00000000000E+00 0.  1.
         -1   -1    0    0    0  501 -0.00000000000E+00 -0.00000000000E+00 -0.45980722919E+03  0.45980722919E+03  0.00000000000E+00 0.  1.
         36    2    1    2    0    0  0.14210854715E-13  0.14210854715E-13  0.83771233987E+02  0.10033856924E+04  0.99988260711E+03 0.  0.
         25    2    3    3    0    0 -0.12705276503E+03  0.15709874031E+02  0.76582279595E+02  0.19454811402E+03  0.12487961354E+03 0.  0.
         35    2    3    3    0    0  0.12705276503E+03 -0.15709874031E+02  0.71889543916E+01  0.80883757835E+03  0.79860963044E+03 0.  0.
         22    1    5    5    0    0 -0.77657930414E+02  0.33112196257E+03  0.16282320965E+03  0.37707281240E+03  0.00000000000E+00 0.  1.
         22    1    5    5    0    0  0.20471069544E+03 -0.34683183660E+03 -0.15563425526E+03  0.43176476595E+03  0.00000000000E+00 0.  1.
          5    1    4    4  502    0 -0.69868767627E+02  0.59452469153E+02  0.80711027269E+02  0.12228082720E+03  0.47000000000E+01 0.  1.
         -5    1    4    4    0  502 -0.57183997403E+02 -0.43742595122E+02 -0.41287476738E+01  0.72267286820E+02  0.47000000000E+01 0.  1.
<mgrwt>
<rscale>  0 0.99988261E+03</rscale>
<asrwt>0</asrwt>
<pdfrwt beam="1">  1        1 0.83627456E-01 0.99988261E+03</pdfrwt>
<pdfrwt beam="2">  1       -1 0.70739574E-01 0.99988261E+03</pdfrwt>
<totfact> 0.93421203E+01</totfact>
</mgrwt>
</event>
<event>
 9    1  0.4246427E-036  0.1000326E+04  0.7818608E-02  0.8680728E-01
         -2   -1    0    0    0  501 -0.00000000000E+00  0.00000000000E+00  0.37039192814E+03  0.37039192814E+03  0.00000000000E+00 0. -1.
          2   -1    0    0  501    0  0.00000000000E+00 -0.00000000000E+00 -0.67540063801E+03  0.67540063801E+03  0.00000000000E+00 0. -1.
         36    2    1    2    0    0  0.00000000000E+00  0.14210854715E-13 -0.30500870986E+03  0.10457925662E+04  0.10003258361E+04 0.  0.
         25    2    3    3    0    0  0.11034797803E+03 -0.45112923631E+02 -0.13531403467E+03  0.21966849138E+03  0.12542928682E+03 0.  0.
         35    2    3    3    0    0 -0.11034797803E+03  0.45112923631E+02 -0.16969467519E+03  0.82612407477E+03  0.79967046463E+03 0.  0.
         22    1    5    5    0    0  0.77581343398E+02  0.13315719211E+03  0.28629028045E+03  0.32513355307E+03  0.00000000000E+00 0.  1.
         22    1    5    5    0    0 -0.18792932143E+03 -0.88044268479E+02 -0.45598495564E+03  0.50099052170E+03  0.00000000000E+00 0.  1.
          5    1    4    4  502    0  0.13959907182E+02  0.21817979551E+02 -0.90028668420E+02  0.93798477481E+02  0.47000000000E+01 0.  1.
         -5    1    4    4    0  502  0.96388070849E+02 -0.66930903181E+02 -0.45285366249E+02  0.12587001390E+03  0.47000000000E+01 0.  1.
<mgrwt>
<rscale>  0 0.10003258E+04</rscale>
<asrwt>0</asrwt>
<pdfrwt beam="1">  1        2 0.10390779E+00 0.10003258E+04</pdfrwt>
<pdfrwt beam="2">  1       -2 0.56983375E-01 0.10003258E+04</pdfrwt>
<totfact> 0.14975731E+02</totfact>
</mgrwt>
</event>
<event>
 9    1  0.4246427E-036  0.1000239E+04  0.7818608E-02  0.8680811E-01
         -2   -1    0    0    0  501 -0.00000000000E+00  0.00000000000E+00  0.13638091233E+03  0.13638091233E+03  0.00000000000E+00 0.  1.
          2   -1    0    0  501    0  0.00000000000E+00 -0.00000000000E+00 -0.18339764325E+04  0.18339764325E+04  0.00000000000E+00 0.  1.
         36    2    1    2    0    0 -0.35527136788E-14  0.00000000000E+00 -0.16975955201E+04  0.19703573448E+04  0.10002387296E+04 0.  0.
         25    2    3    3    0    0 -0.21003335012E+02 -0.74793038886E+02 -0.56767392789E+03  0.58642578844E+03  0.12492549056E+03 0.  0.
         35    2    3    3    0    0  0.21003335012E+02  0.74793038886E+02 -0.11299215922E+04  0.13839315563E+04  0.79530409864E+03 0.  0.
         22    1    5    5    0    0  0.38118335256E+03 -0.23459304482E+02 -0.79672725915E+03  0.88353008591E+03  0.00000000000E+00 0.  1.
         22    1    5    5    0    0 -0.36018001755E+03  0.98252343368E+02 -0.33319433308E+03  0.50040147044E+03  0.00000000000E+00 0.  1.
          5    1    4    4  502    0 -0.10967059219E+02  0.23084039123E+02 -0.29504687943E+02  0.39316228974E+02  0.47000000000E+01 0.  1.
         -5    1    4    4    0  502 -0.10036275793E+02 -0.97877078009E+02 -0.53816923995E+03  0.54710955946E+03  0.47000000000E+01 0.  1.
<mgrwt>
<rscale>  0 0.10002387E+04</rscale>
<asrwt>0</asrwt>
<pdfrwt beam="1">  1        2 0.28215021E+00 0.10002387E+04</pdfrwt>
<pdfrwt beam="2">  1       -2 0.20981680E-01 0.10002387E+04</pdfrwt>
<totfact> 0.19159749E+02</totfact>
</mgrwt>
</event>
<event>
 9    1  0.4246427E-036  0.9994474E+03  0.7818608E-02  0.8681564E-01
          1   -1    0    0  501    0  0.00000000000E+00  0.00000000000E+00  0.12407808775E+04  0.12407808775E+04  0.00000000000E+00 0. -1.
         -1   -1    0    0    0  501 -0.00000000000E+00 -0.00000000000E+00 -0.20126338628E+03  0.20126338628E+03  0.00000000000E+00 0. -1.
         36    2    1    2    0    0  0.14210854715E-13 -0.28421709430E-13  0.10395174912E+04  0.14420442638E+04  0.99944736936E+03 0.  0.
         25    2    3    3    0    0  0.67999496705E+02 -0.11855334800E+03  0.15436102394E+03  0.24104939722E+03  0.12489458881E+03 0.  0.
         35    2    3    3    0    0 -0.67999496705E+02  0.11855334800E+03  0.88515646727E+03  0.12009948665E+04  0.80012990822E+03 0.  0.
         22    1    5    5    0    0  0.52876411231E+02 -0.30652638579E+03  0.59771323429E+03  0.67380668629E+03  0.00000000000E+00 0.  1.
         22    1    5    5    0    0 -0.12087590794E+03  0.42507973380E+03  0.28744323298E+03  0.52718818025E+03  0.00000000000E+00 0.  1.
          5    1    4    4  502    0  0.67484336320E+02 -0.11162580512E+03  0.17526375920E+03  0.21852672904E+03  0.47000000000E+01 0.  1.
         -5    1    4    4    0  502  0.51516038579E+00 -0.69275428819E+01 -0.20902735259E+02  0.22522668179E+02  0.47000000000E+01 0.  1.
<mgrwt>
<rscale>  0 0.99944737E+03</rscale>
<asrwt>0</asrwt>
<pdfrwt beam="1">  1        1 0.19088936E+00 0.99944737E+03</pdfrwt>
<pdfrwt beam="2">  1       -1 0.30963599E-01 0.99944737E+03</pdfrwt>
<totfact> 0.10585225E+02</totfact>
</mgrwt>
</event>
<event>
 9    1  0.4246427E-036  0.9975132E+03  0.7818608E-02  0.8683410E-01
          2   -1    0    0  501    0  0.00000000000E+00  0.00000000000E+00  0.16124213458E+04  0.16124213458E+04  0.00000000000E+00 0.  1.
         -2   -1    0    0    0  501 -0.00000000000E+00 -0.00000000000E+00 -0.15427613010E+03  0.15427613010E+03  0.00000000000E+00 0.  1.
         36    2    1    2    0    0  0.00000000000E+00  0.00000000000E+00  0.14581452157E+04  0.17666974759E+04  0.99751315846E+03 0.  0.
         25    2    3    3    0    0 -0.10538740755E+03 -0.87778371642E+02  0.25781097711E+03  0.31768242188E+03  0.12507626895E+03 0.  0.
         35    2    3    3    0    0  0.10538740755E+03  0.87778371642E+02  0.12003342386E+04  0.14490150540E+04  0.80001924618E+03 0.  0.
         22    1    5    5    0    0  0.70830385525E-01  0.37139491744E+03  0.24009677071E+03  0.44224501017E+03  0.00000000000E+00 0. -1.
         22    1    5    5    0    0  0.10531657717E+03 -0.28361654580E+03  0.96023746787E+03  0.10067700438E+04  0.00000000000E+00 0. -1.
          5    1    4    4  502    0 -0.93859739637E+02  0.22727323004E+01  0.11717141765E+03  0.15021999584E+03  0.47000000000E+01 0. -1.
         -5    1    4    4    0  502 -0.11527667916E+02 -0.90051103942E+02  0.14063955946E+03  0.16746242604E+03  0.47000000000E+01 0. -1.
<mgrwt>
<rscale>  0 0.99751316E+03</rscale>
<asrwt>0</asrwt>
<pdfrwt beam="1">  1        2 0.24806481E+00 0.99751316E+03</pdfrwt>
<pdfrwt beam="2">  1       -2 0.23734790E-01 0.99751316E+03</pdfrwt>
<totfact> 0.20584195E+02</totfact>
</mgrwt>
</event>
<event>
 9    1  0.4246427E-036  0.9993625E+03  0.7818608E-02  0.8681645E-01
          2   -1    0    0  501    0  0.00000000000E+00  0.00000000000E+00  0.33334615832E+04  0.33334615832E+04  0.00000000000E+00 0.  1.
         -2   -1    0    0    0  501 -0.00000000000E+00 -0.00000000000E+00 -0.74901520473E+02  0.74901520473E+02  0.00000000000E+00 0.  1.
         36    2    1    2    0    0  0.00000000000E+00 -0.14210854715E-13  0.32585600628E+04  0.34083631037E+04  0.99936247883E+03 0.  0.
         25    2    3    3    0    0  0.11474273884E+03  0.78131472237E+02  0.64223464819E+03  0.66889084704E+03  0.12521660770E+03 0.  0.
         35    2    3    3    0    0 -0.11474273884E+03 -0.78131472237E+02  0.26163254146E+04  0.27394722567E+04  0.80017444790E+03 0.  0.
         22    1    5    5    0    0 -0.32129261333E+03 -0.94239593367E+02  0.24527649472E+04  0.24755132661E+04  0.00000000000E+00 0.  1.
         22    1    5    5    0    0  0.20654987449E+03  0.16108121130E+02  0.16356046734E+03  0.26395899056E+03  0.00000000000E+00 0.  1.
          5    1    4    4  502    0  0.13853756206E+03  0.78776888671E+02  0.59214277820E+03  0.61323210456E+03  0.47000000000E+01 0. -1.
         -5    1    4    4    0  502 -0.23794823226E+02 -0.64541643345E+00  0.50091869986E+02  0.55658742471E+02  0.47000000000E+01 0. -1.
<mgrwt>
<rscale>  0 0.99936248E+03</rscale>
<asrwt>0</asrwt>
<pdfrwt beam="1">  1        2 0.51284013E+00 0.99936248E+03</pdfrwt>
<pdfrwt beam="2">  1       -2 0.11523313E-01 0.99936248E+03</pdfrwt>
<totfact> 0.60802567E+01</totfact>
</mgrwt>
</event>
<event>
 9    1  0.4246427E-036  0.9987570E+03  0.7818608E-02  0.8682223E-01
         -2   -1    0    0    0  501 -0.00000000000E+00  0.00000000000E+00  0.26398962169E+03  0.26398962169E+03  0.00000000000E+00 0.  1.
          2   -1    0    0  501    0  0.00000000000E+00 -0.00000000000E+00 -0.94465422167E+03  0.94465422167E+03  0.00000000000E+00 0.  1.
         36    2    1    2    0    0  0.00000000000E+00  0.71054273576E-14 -0.68066459999E+03  0.12086438434E+04  0.99875704875E+03 0.  0.
         25    2    3    3    0    0  0.13545914753E+03  0.26319663838E+02 -0.11094132977E+03  0.21683793409E+03  0.12517509997E+03 0.  0.
         35    2    3    3    0    0 -0.13545914753E+03 -0.26319663838E+02 -0.56972327022E+03  0.99180590927E+03  0.80003278163E+03 0.  0.
         22    1    5    5    0    0  0.78436028161E+02 -0.10614132211E+03 -0.71111930707E+03  0.72326264916E+03  0.00000000000E+00 0. -1.
         22    1    5    5    0    0 -0.21389517570E+03  0.79821658269E+02  0.14139603686E+03  0.26854326012E+03  0.00000000000E+00 0. -1.
          5    1    4    4  502    0  0.87239002640E+02 -0.22957153641E+02 -0.51524111709E+01  0.90478239515E+02  0.47000000000E+01 0.  1.
         -5    1    4    4    0  502  0.48220144895E+02  0.49276817478E+02 -0.10578891860E+03  0.12635969457E+03  0.47000000000E+01 0.  1.
<mgrwt>
<rscale>  0 0.99875705E+03</rscale>
<asrwt>0</asrwt>
<pdfrwt beam="1">  1        2 0.14533142E+00 0.99875705E+03</pdfrwt>
<pdfrwt beam="2">  1       -2 0.40613788E-01 0.99875705E+03</pdfrwt>
<totfact> 0.18998530E+02</totfact>
</mgrwt>
</event>
<event>
 9    1  0.4246427E-036  0.1000407E+04  0.7818608E-02  0.8680650E-01
          2   -1    0    0  501    0  0.00000000000E+00  0.00000000000E+00  0.15171845901E+04  0.15171845901E+04  0.00000000000E+00 0. -1.
         -2   -1    0    0    0  501 -0.00000000000E+00 -0.00000000000E+00 -0.16491309500E+03  0.16491309500E+03  0.00000000000E+00 0. -1.
         36    2    1    2    0    0  0.35527136788E-14  0.00000000000E+00  0.13522714951E+04  0.16820976851E+04  0.10004071300E+04 0.  0.
         25    2    3    3    0    0  0.29979273064E+02 -0.13578573847E+03  0.25454875291E+03  0.31603914925E+03  0.12549562806E+03 0.  0.
         35    2    3    3    0    0 -0.29979273064E+02  0.13578573847E+03  0.10977227422E+04  0.13660585358E+04  0.80111433705E+03 0.  0.
         22    1    5    5    0    0 -0.48474621517E+02  0.49354302205E+01  0.11987341267E+04  0.11997239907E+04  0.00000000000E+00 0. -1.
         22    1    5    5    0    0  0.18495348452E+02  0.13085030825E+03 -0.10101138454E+03  0.16633454509E+03  0.00000000000E+00 0. -1.
          5    1    4    4  502    0  0.55697724137E+02 -0.30351456804E+02  0.15944220269E+03  0.17166057614E+03  0.47000000000E+01 0. -1.
         -5    1    4    4    0  502 -0.25718451072E+02 -0.10543428167E+03  0.95106550226E+02  0.14437857311E+03  0.47000000000E+01 0. -1.
<mgrwt>
<rscale>  0 0.10004071E+04</rscale>
<asrwt>0</asrwt>
<pdfrwt beam="1">  1        2 0.23341300E+00 0.10004071E+04</pdfrwt>
<pdfrwt beam="2">  1       -2 0.25371246E-01 0.10004071E+04</pdfrwt>
<totfact> 0.20703653E+02</totfact>
</mgrwt>
</event>
<event>
 9    1  0.4246427E-036  0.9999659E+03  0.7818608E-02  0.8681070E-01
         -2   -1    0    0    0  501 -0.00000000000E+00  0.00000000000E+00  0.14494820854E+03  0.14494820854E+03  0.00000000000E+00 0. -1.
          2   -1    0    0  501    0  0.00000000000E+00 -0.00000000000E+00 -0.17246362480E+04  0.17246362480E+04  0.00000000000E+00 0. -1.
         36    2    1    2    0    0  0.00000000000E+00  0.00000000000E+00 -0.15796880394E+04  0.18695844565E+04  0.99996586847E+03 0.  0.
         25    2    3    3    0    0 -0.35309275871E+02 -0.58537119807E+02 -0.52433623403E+03  0.54330974418E+03  0.12483450022E+03 0.  0.
         35    2    3    3    0    0  0.35309275871E+02  0.58537119807E+02 -0.10553518054E+04  0.13262747123E+04  0.80035232245E+03 0.  0.
         22    1    5    5    0    0 -0.13307638559E+03  0.57919793679E+02  0.88570293269E+02  0.17002565616E+03  0.00000000000E+00 0. -1.
         22    1    5    5    0    0  0.16838566146E+03  0.61732612740E+00 -0.11439220987E+04  0.11562490562E+04  0.00000000000E+00 0. -1.
          5    1    4    4  502    0  0.53164097827E+01  0.37114514867E+02 -0.16097747038E+03  0.16535291771E+03  0.47000000000E+01 0.  1.
         -5    1    4    4    0  502 -0.40625685654E+02 -0.95651634673E+02 -0.36335876365E+03  0.37795682647E+03  0.47000000000E+01 0.  1.
<mgrwt>
<rscale>  0 0.99996587E+03</rscale>
<asrwt>0</asrwt>
<pdfrwt beam="1">  1        2 0.26532865E+00 0.99996587E+03</pdfrwt>
<pdfrwt beam="2">  1       -2 0.22299725E-01 0.99996587E+03</pdfrwt>
<totfact> 0.19855911E+02</totfact>
</mgrwt>
</event>
<event>
 9    1  0.4246427E-036  0.1000869E+04  0.7818608E-02  0.8680211E-01
         -1   -1    0    0    0  501 -0.00000000000E+00  0.00000000000E+00  0.36130121272E+03  0.36130121272E+03  0.00000000000E+00 0.  1.
          1   -1    0    0  501    0  0.00000000000E+00 -0.00000000000E+00 -0.69314690823E+03  0.69314690823E+03  0.00000000000E+00 0.  1.
         36    2    1    2    0    0 -0.14210854715E-13  0.00000000000E+00 -0.33184569551E+03  0.10544481210E+04  0.10008692593E+04 0.  0.
         25    2    3    3    0    0 -0.40814181123E+02 -0.13454291165E+03 -0.88696011023E+02  0.20812005448E+03  0.12521734005E+03 0.  0.
         35    2    3    3    0    0  0.40814181123E+02  0.13454291165E+03 -0.24314968449E+03  0.84632806647E+03  0.79836196965E+03 0.  0.
         22    1    5    5    0    0  0.22348766936E+03 -0.21624003793E+03 -0.31691941535E+03  0.44400946858E+03  0.00000000000E+00 0.  1.
         22    1    5    5    0    0 -0.18267348824E+03  0.35078294958E+03  0.73769730855E+02  0.40231859790E+03  0.00000000000E+00 0.  1.
          5    1    4    4  502    0 -0.80970412355E+02 -0.89660969031E+02 -0.84624443974E+02  0.14757602638E+03  0.47000000000E+01 0. -1.
         -5    1    4    4    0  502  0.40156231232E+02 -0.44881942621E+02 -0.40715670492E+01  0.60544028099E+02  0.47000000000E+01 0. -1.
<mgrwt>
<rscale>  0 0.10008693E+04</rscale>
<asrwt>0</asrwt>
<pdfrwt beam="1">  1        1 0.10663799E+00 0.10008693E+04</pdfrwt>
<pdfrwt beam="2">  1       -1 0.55584802E-01 0.10008693E+04</pdfrwt>
<totfact> 0.10418833E+02</totfact>
</mgrwt>
</event>
<event>
 9    1  0.4246427E-036  0.9991406E+03  0.7818608E-02  0.8681857E-01
          1   -1    0    0  501    0  0.00000000000E+00  0.00000000000E+00  0.55318457739E+03  0.55318457739E+03  0.00000000000E+00 0. -1.
         -1   -1    0    0    0  501 -0.00000000000E+00 -0.00000000000E+00 -0.45115229911E+03  0.45115229911E+03  0.00000000000E+00 0. -1.
         36    2    1    2    0    0  0.00000000000E+00  0.00000000000E+00  0.10203227829E+03  0.10043368765E+04  0.99914061857E+03 0.  0.
         25    2    3    3    0    0 -0.12810368262E+03 -0.46537722804E+02  0.44202975006E+02  0.19064663950E+03  0.12576138123E+03 0.  0.
         35    2    3    3    0    0  0.12810368262E+03  0.46537722804E+02  0.57829303281E+02  0.81369023700E+03  0.80010703054E+03 0.  0.
         22    1    5    5    0    0  0.21773009418E+03 -0.48705858237E+02  0.39410557753E+03  0.45287731317E+03  0.00000000000E+00 0.  1.
         22    1    5    5    0    0 -0.89626411556E+02  0.95243581041E+02 -0.33627627425E+03  0.36081292383E+03  0.00000000000E+00 0.  1.
          5    1    4    4  502    0  0.18056830687E+02 -0.30766865005E+02 -0.31700519835E+01  0.36121854137E+02  0.47000000000E+01 0. -1.
         -5    1    4    4    0  502 -0.14616051331E+03 -0.15770857799E+02  0.47373026989E+02  0.15452478537E+03  0.47000000000E+01 0. -1.
<mgrwt>
<rscale>  0 0.99914062E+03</rscale>
<asrwt>0</asrwt>
<pdfrwt beam="1">  1        1 0.85105319E-01 0.99914062E+03</pdfrwt>
<pdfrwt beam="2">  1       -1 0.69408046E-01 0.99914062E+03</pdfrwt>
<totfact> 0.94635350E+01</totfact>
</mgrwt>
</event>
<event>
 9    1  0.4246427E-036  0.9996865E+03  0.7818608E-02  0.8681337E-01
         -2   -1    0    0    0  501 -0.00000000000E+00  0.00000000000E+00  0.23883536128E+03  0.23883536128E+03  0.00000000000E+00 0.  1.
          2   -1    0    0  501    0  0.00000000000E+00 -0.00000000000E+00 -0.10460900056E+04  0.10460900056E+04  0.00000000000E+00 0.  1.
         36    2    1    2    0    0  0.00000000000E+00  0.00000000000E+00 -0.80725464428E+03  0.12849253668E+04  0.99968651967E+03 0.  0.
         25    2    3    3    0    0  0.96141921938E+02 -0.53118029420E+02 -0.39196558194E+02  0.17027817306E+03  0.12407051158E+03 0.  0.
         35    2    3    3    0    0 -0.96141921938E+02  0.53118029420E+02 -0.76805808608E+03  0.11146471938E+04  0.80028766626E+03 0.  0.
         22    1    5    5    0    0 -0.75162012907E+02 -0.26337956352E+03  0.10354084975E+02  0.27409000299E+03  0.00000000000E+00 0.  1.
         22    1    5    5    0    0 -0.20979909031E+02  0.31649759294E+03 -0.77841217106E+03  0.84055719078E+03  0.00000000000E+00 0.  1.
          5    1    4    4  502    0  0.70769735241E+02 -0.90005431654E+02 -0.67581715165E+01  0.11479153294E+03  0.47000000000E+01 0.  1.
         -5    1    4    4    0  502  0.25372186696E+02  0.36887402235E+02 -0.32438386677E+02  0.55486640118E+02  0.47000000000E+01 0.  1.
<mgrwt>
<rscale>  0 0.99968652E+03</rscale>
<asrwt>0</asrwt>
<pdfrwt beam="1">  1        2 0.16093692E+00 0.99968652E+03</pdfrwt>
<pdfrwt beam="2">  1       -2 0.36743903E-01 0.99968652E+03</pdfrwt>
<totfact> 0.19838418E+02</totfact>
</mgrwt>
</event>
<event>
 9    1  0.4246427E-036  0.1001645E+04  0.7818608E-02  0.8679473E-01
          2   -1    0    0  501    0  0.00000000000E+00  0.00000000000E+00  0.21799473980E+04  0.21799473980E+04  0.00000000000E+00 0. -1.
         -2   -1    0    0    0  501 -0.00000000000E+00 -0.00000000000E+00 -0.11505916739E+03  0.11505916739E+03  0.00000000000E+00 0. -1.
         36    2    1    2    0    0 -0.17763568394E-14  0.00000000000E+00  0.20648882306E+04  0.22950065654E+04  0.10016445129E+04 0.  0.
         25    2    3    3    0    0 -0.12931101529E+02  0.12385736952E+03  0.53894542567E+03  0.56714550665E+03  0.12523574765E+03 0.  0.
         35    2    3    3    0    0  0.12931101529E+02 -0.12385736952E+03  0.15259428049E+04  0.17278610587E+04  0.80093353842E+03 0.  0.
         22    1    5    5    0    0 -0.92744252864E+01  0.23527424974E+02 -0.95902752403E+02  0.99181110141E+02  0.00000000000E+00 0.  1.
         22    1    5    5    0    0  0.22205526816E+02 -0.14738479449E+03  0.16218455573E+04  0.16286799486E+04  0.00000000000E+00 0.  1.
          5    1    4    4  502    0  0.11750360565E+02  0.12838175130E+03  0.51887602601E+03  0.53467220370E+03  0.47000000000E+01 0.  1.
         -5    1    4    4    0  502 -0.24681462094E+02 -0.45243817832E+01  0.20069399657E+02  0.32473302946E+02  0.47000000000E+01 0.  1.
<mgrwt>
<rscale>  0 0.10016445E+04</rscale>
<asrwt>0</asrwt>
<pdfrwt beam="1">  1        2 0.33537649E+00 0.10016445E+04</pdfrwt>
<pdfrwt beam="2">  1       -2 0.17701412E-01 0.10016445E+04</pdfrwt>
<totfact> 0.16296174E+02</totfact>
</mgrwt>
</event>
<event>
 9    1  0.4246427E-036  0.1000534E+04  0.7818608E-02  0.8680529E-01
          1   -1    0    0  501    0  0.00000000000E+00  0.00000000000E+00  0.21827301011E+03  0.21827301011E+03  0.00000000000E+00 0. -1.
         -1   -1    0    0    0  501 -0.00000000000E+00 -0.00000000000E+00 -0.11465791076E+04  0.11465791076E+04  0.00000000000E+00 0. -1.
         36    2    1    2    0    0  0.00000000000E+00  0.00000000000E+00 -0.92830609750E+03  0.13648521177E+04  0.10005344035E+04 0.  0.
         25    2    3    3    0    0 -0.53017861777E+02  0.11489541208E+03 -0.27732457516E+03  0.32570963196E+03  0.11474316964E+03 0.  0.
         35    2    3    3    0    0  0.53017861777E+02 -0.11489541208E+03 -0.65098152233E+03  0.10391424858E+04  0.80001769600E+03 0.  0.
         22    1    5    5    0    0  0.23619239444E+03 -0.85860633269E+02 -0.77586619125E+03  0.81555333502E+03  0.00000000000E+00 0.  1.
         22    1    5    5    0    0 -0.18317453266E+03 -0.29034778807E+02  0.12488466892E+03  0.22358915074E+03  0.00000000000E+00 0.  1.
          5    1    4    4  502    0 -0.75100324401E+02  0.11671415556E+03 -0.18903152056E+03  0.23455758056E+03  0.47000000000E+01 0.  1.
         -5    1    4    4    0  502  0.22082462625E+02 -0.18187434823E+01 -0.88293054604E+02  0.91152051401E+02  0.47000000000E+01 0.  1.
<mgrwt>
<rscale>  0 0.10005344E+04</rscale>
<asrwt>0</asrwt>
<pdfrwt beam="1">  1        1 0.33580463E-01 0.10005344E+04</pdfrwt>
<pdfrwt beam="2">  1       -1 0.17639678E+00 0.10005344E+04</pdfrwt>
<totfact> 0.32683436E+01</totfact>
</mgrwt>
</event>
<event>
 9    1  0.4246427E-036  0.1000132E+04  0.7818608E-02  0.8680912E-01
          2   -1    0    0  501    0  0.00000000000E+00  0.00000000000E+00  0.21846519887E+04  0.21846519887E+04  0.00000000000E+00 0.  1.
         -2   -1    0    0    0  501 -0.00000000000E+00 -0.00000000000E+00 -0.11446492718E+03  0.11446492718E+03  0.00000000000E+00 0.  1.
         36    2    1    2    0    0 -0.14210854715E-13  0.00000000000E+00  0.20701870615E+04  0.22991169159E+04  0.10001320529E+04 0.  0.
         25    2    3    3    0    0 -0.10058701779E+03 -0.65873902734E+02  0.22414301978E+03  0.28386527733E+03  0.12602493066E+03 0.  0.
         35    2    3    3    0    0  0.10058701779E+03  0.65873902734E+02  0.18460440417E+04  0.20152516385E+04  0.79931435832E+03 0.  0.
         22    1    5    5    0    0 -0.30471783808E+03  0.15274266056E+03  0.12016000196E+04  0.12490099633E+04  0.00000000000E+00 0. -1.
         22    1    5    5    0    0  0.40530485587E+03 -0.86868757826E+02  0.64444402209E+03  0.76624167525E+03  0.00000000000E+00 0. -1.
          5    1    4    4  502    0 -0.14009250881E+02 -0.39731627256E+02  0.17653522373E+03  0.18155339857E+03  0.47000000000E+01 0.  1.
         -5    1    4    4    0  502 -0.86577766909E+02 -0.26142275477E+02  0.47607796042E+02  0.10231187875E+03  0.47000000000E+01 0.  1.
<mgrwt>
<rscale>  0 0.10001321E+04</rscale>
<asrwt>0</asrwt>
<pdfrwt beam="1">  1        2 0.33610028E+00 0.10001321E+04</pdfrwt>
<pdfrwt beam="2">  1       -2 0.17609990E-01 0.10001321E+04</pdfrwt>
<totfact> 0.16338013E+02</totfact>
</mgrwt>
</event>
<event>
 9    1  0.4246427E-036  0.9999701E+03  0.7818608E-02  0.8681066E-01
         -2   -1    0    0    0  501 -0.00000000000E+00  0.00000000000E+00  0.50249254958E+03  0.50249254958E+03  0.00000000000E+00 0.  1.
          2   -1    0    0  501    0  0.00000000000E+00 -0.00000000000E+00 -0.49749005982E+03  0.49749005982E+03  0.00000000000E+00 0.  1.
         36    2    1    2    0    0 -0.28421709430E-13 -0.71054273576E-14  0.50024897613E+01  0.99998260940E+03  0.99997009665E+03 0.  0.
         25    2    3    3    0    0  0.40520641396E+02  0.63862273144E+02  0.11995560321E+03  0.18949942332E+03  0.12569953216E+03 0.  0.
         35    2    3    3    0    0 -0.40520641396E+02 -0.63862273144E+02 -0.11495311345E+03  0.81048318608E+03  0.79871676101E+03 0.  0.
         22    1    5    5    0    0  0.33795656491E+03 -0.11103091289E+03  0.10410232293E+03  0.37064780725E+03  0.00000000000E+00 0.  1.
         22    1    5    5    0    0 -0.37847720630E+03  0.47168639745E+02 -0.21905543638E+03  0.43983537883E+03  0.00000000000E+00 0.  1.
          5    1    4    4  502    0  0.62125101608E+02 -0.15573264247E+02  0.50799260099E+02  0.81882291344E+02  0.47000000000E+01 0. -1.
         -5    1    4    4    0  502 -0.21604460212E+02  0.79435537391E+02  0.69156343115E+02  0.10761713198E+03  0.47000000000E+01 0. -1.
<mgrwt>
<rscale>  0 0.99997010E+03</rscale>
<asrwt>0</asrwt>
<pdfrwt beam="1">  1        2 0.76536932E-01 0.99997010E+03</pdfrwt>
<pdfrwt beam="2">  1       -2 0.77306546E-01 0.99997010E+03</pdfrwt>
<totfact> 0.11157826E+02</totfact>
</mgrwt>
</event>
<event>
 9    1  0.4246427E-036  0.9995864E+03  0.7818608E-02  0.8681432E-01
         -2   -1    0    0    0  501 -0.00000000000E+00  0.00000000000E+00  0.10660946633E+03  0.10660946633E+03  0.00000000000E+00 0. -1.
          2   -1    0    0  501    0  0.00000000000E+00 -0.00000000000E+00 -0.23430681954E+04  0.23430681954E+04  0.00000000000E+00 0. -1.
         36    2    1    2    0    0 -0.14210854715E-13  0.00000000000E+00 -0.22364587290E+04  0.24496776617E+04  0.99958641423E+03 0.  0.
         25    2    3    3    0    0  0.12631064785E+03  0.60825061214E+02 -0.46570960082E+03  0.50234712799E+03  0.12575029571E+03 0.  0.
         35    2    3    3    0    0 -0.12631064785E+03 -0.60825061214E+02 -0.17707491282E+04  0.19473305337E+04  0.79805367274E+03 0.  0.
         22    1    5    5    0    0  0.28743619605E+03 -0.58386337907E+02 -0.12407843486E+04  0.12749801296E+04  0.00000000000E+00 0. -1.
         22    1    5    5    0    0 -0.41374684390E+03 -0.24387233068E+01 -0.52996477963E+03  0.67235040407E+03  0.00000000000E+00 0. -1.
          5    1    4    4  502    0  0.17006853669E+02 -0.36030153699E+02 -0.72395344757E+02  0.82768236599E+02  0.47000000000E+01 0. -1.
         -5    1    4    4    0  502  0.10930379418E+03  0.96855214913E+02 -0.39331425607E+03  0.41957889139E+03  0.47000000000E+01 0. -1.
<mgrwt>
<rscale>  0 0.99958641E+03</rscale>
<asrwt>0</asrwt>
<pdfrwt beam="1">  1        2 0.36047198E+00 0.99958641E+03</pdfrwt>
<pdfrwt beam="2">  1       -2 0.16401458E-01 0.99958641E+03</pdfrwt>
<totfact> 0.14884836E+02</totfact>
</mgrwt>
</event>
<event>
 9    1  0.4246427E-036  0.9898276E+03  0.7818608E-02  0.8690786E-01
          4   -1    0    0  501    0  0.00000000000E+00  0.00000000000E+00  0.12202933903E+03  0.12202933903E+03  0.00000000000E+00 0. -1.
         -4   -1    0    0    0  501 -0.00000000000E+00 -0.00000000000E+00 -0.20072195566E+04  0.20072195566E+04  0.00000000000E+00 0. -1.
         36    2    1    2    0    0  0.00000000000E+00  0.00000000000E+00 -0.18851902175E+04  0.21292488956E+04  0.98982761281E+03 0.  0.
         25    2    3    3    0    0 -0.82413396527E+02 -0.61992597858E+02 -0.17446962722E+03  0.23798027472E+03  0.12473936916E+03 0.  0.
         35    2    3    3    0    0  0.82413396527E+02  0.61992597858E+02 -0.17107205903E+04  0.18912686209E+04  0.79981060761E+03 0.  0.
         22    1    5    5    0    0 -0.26632110296E+03  0.55309097325E+02 -0.13934814010E+04  0.14197804200E+04  0.00000000000E+00 0. -1.
         22    1    5    5    0    0  0.34873449949E+03  0.66835005329E+01 -0.31723918933E+03  0.47148820087E+03  0.00000000000E+00 0. -1.
          5    1    4    4  502    0 -0.82527999185E+02  0.54926003008E+01 -0.13844190293E+03  0.16133595320E+03  0.47000000000E+01 0.  1.
         -5    1    4    4    0  502  0.11460265840E+00 -0.67485198159E+02 -0.36027724294E+02  0.76644321525E+02  0.47000000000E+01 0.  1.
<mgrwt>
<rscale>  0 0.98982761E+03</rscale>
<asrwt>0</asrwt>
<pdfrwt beam="1">  1        4 0.18773747E-01 0.98982761E+03</pdfrwt>
<pdfrwt beam="2">  1       -4 0.30880297E+00 0.98982761E+03</pdfrwt>
<totfact> 0.10965219E+00</totfact>
</mgrwt>
</event>
<event>
 9    1  0.4246427E-036  0.9998292E+03  0.7818608E-02  0.8681201E-01
          2   -1    0    0  501    0  0.00000000000E+00  0.00000000000E+00  0.10014198185E+04  0.10014198185E+04  0.00000000000E+00 0. -1.
         -2   -1    0    0    0  501 -0.00000000000E+00 -0.00000000000E+00 -0.24956025355E+03  0.24956025355E+03  0.00000000000E+00 0. -1.
         36    2    1    2    0    0 -0.71054273576E-14  0.00000000000E+00  0.75185956493E+03  0.12509800720E+04  0.99982915303E+03 0.  0.
         25    2    3    3    0    0 -0.38267167934E+02  0.13323820398E+03  0.16572546290E+03  0.24963707255E+03  0.12504776605E+03 0.  0.
         35    2    3    3    0    0  0.38267167934E+02 -0.13323820398E+03  0.58613410203E+03  0.10013429995E+04  0.79994863705E+03 0.  0.
         22    1    5    5    0    0 -0.11619799862E+03 -0.15339783112E+03 -0.15307674813E+03  0.24589705223E+03  0.00000000000E+00 0.  1.
         22    1    5    5    0    0  0.15446516656E+03  0.20159627138E+02  0.73921085016E+03  0.75544594726E+03  0.00000000000E+00 0.  1.
          5    1    4    4  502    0 -0.44993224141E+02  0.42828036050E+02  0.14311002013E+03  0.15608074433E+03  0.47000000000E+01 0.  1.
         -5    1    4    4    0  502  0.67260562072E+01  0.90410167932E+02  0.22615442775E+02  0.93556328217E+02  0.47000000000E+01 0.  1.
<mgrwt>
<rscale>  0 0.99982915E+03</rscale>
<asrwt>0</asrwt>
<pdfrwt beam="1">  1        2 0.15406459E+00 0.99982915E+03</pdfrwt>
<pdfrwt beam="2">  1       -2 0.38393886E-01 0.99982915E+03</pdfrwt>
<totfact> 0.19464657E+02</totfact>
</mgrwt>
</event>
<event>
 9    1  0.4246427E-036  0.9866645E+03  0.7818608E-02  0.8693842E-01
         -2   -1    0    0    0  501 -0.00000000000E+00  0.00000000000E+00  0.69054707905E+02  0.69054707905E+02  0.00000000000E+00 0.  1.
          2   -1    0    0  501    0  0.00000000000E+00 -0.00000000000E+00 -0.35244040605E+04  0.35244040605E+04  0.00000000000E+00 0.  1.
         36    2    1    2    0    0 -0.71054273576E-14 -0.71054273576E-14 -0.34553493526E+04  0.35934587684E+04  0.98666446766E+03 0.  0.
         25    2    3    3    0    0  0.29716442295E+02  0.53768780818E+02 -0.22178910134E+03  0.26147619936E+03  0.12411788197E+03 0.  0.
         35    2    3    3    0    0 -0.29716442295E+02 -0.53768780818E+02 -0.32335602512E+04  0.33319825690E+04  0.80151219154E+03 0.  0.
         22    1    5    5    0    0  0.12783869943E+03  0.63534743946E+02 -0.30782881011E+04  0.30815965067E+04  0.00000000000E+00 0. -1.
         22    1    5    5    0    0 -0.15755514172E+03 -0.11730352476E+03 -0.15527215018E+03  0.25038606237E+03  0.00000000000E+00 0. -1.
          5    1    4    4  502    0  0.26239917500E+02 -0.32877898736E+02 -0.33001309542E+02  0.53671835512E+02  0.47000000000E+01 0. -1.
         -5    1    4    4    0  502  0.34765247948E+01  0.86646679554E+02 -0.18878779180E+03  0.20780436385E+03  0.47000000000E+01 0. -1.
<mgrwt>
<rscale>  0 0.98666447E+03</rscale>
<asrwt>0</asrwt>
<pdfrwt beam="1">  1        2 0.54221590E+00 0.98666447E+03</pdfrwt>
<pdfrwt beam="2">  1       -2 0.10623803E-01 0.98666447E+03</pdfrwt>
<totfact> 0.50151799E+01</totfact>
</mgrwt>
</event>
<event>
 9    1  0.4246427E-036  0.1000514E+04  0.7818608E-02  0.8680549E-01
         -1   -1    0    0    0  501 -0.00000000000E+00  0.00000000000E+00  0.13997653434E+03  0.13997653434E+03  0.00000000000E+00 0.  1.
          1   -1    0    0  501    0  0.00000000000E+00 -0.00000000000E+00 -0.17878489144E+04  0.17878489144E+04  0.00000000000E+00 0.  1.
         36    2    1    2    0    0 -0.14210854715E-13  0.14210854715E-13 -0.16478723800E+04  0.19278254487E+04  0.10005136580E+04 0.  0.
         25    2    3    3    0    0 -0.39734285316E+02  0.90275391602E+02 -0.49630136511E+03  0.52131272189E+03  0.12539317861E+03 0.  0.
         35    2    3    3    0    0  0.39734285316E+02 -0.90275391602E+02 -0.11515710149E+04  0.14065127268E+04  0.80151967446E+03 0.  0.
         22    1    5    5    0    0 -0.28083568580E+03 -0.17188245393E+03 -0.16970553962E+03  0.37042169290E+03  0.00000000000E+00 0.  1.
         22    1    5    5    0    0  0.32056997112E+03  0.81607062326E+02 -0.98186547530E+03  0.10360910339E+04  0.00000000000E+00 0.  1.
          5    1    4    4  502    0  0.85852214893E+01 -0.28490257465E+02 -0.72334488136E+02  0.78356677905E+02  0.47000000000E+01 0.  1.
         -5    1    4    4    0  502 -0.48319506806E+02  0.11876564907E+03 -0.42396687697E+03  0.44295604399E+03  0.47000000000E+01 0.  1.
<mgrwt>
<rscale>  0 0.10005137E+04</rscale>
<asrwt>0</asrwt>
<pdfrwt beam="1">  1        1 0.27505365E+00 0.10005137E+04</pdfrwt>
<pdfrwt beam="2">  1       -1 0.21534854E-01 0.10005137E+04</pdfrwt>
<totfact> 0.79374355E+01</totfact>
</mgrwt>
</event>
<event>
 9    1  0.4246427E-036  0.9988264E+03  0.7818608E-02  0.8682156E-01
         -2   -1    0    0    0  501 -0.00000000000E+00  0.00000000000E+00  0.21821042743E+03  0.21821042743E+03  0.00000000000E+00 0. -1.
          2   -1    0    0  501    0  0.00000000000E+00 -0.00000000000E+00 -0.11429955203E+04  0.11429955203E+04  0.00000000000E+00 0. -1.
         36    2    1    2    0    0  0.53290705182E-14  0.00000000000E+00 -0.92478509290E+03  0.13612059478E+04  0.99882639341E+03 0.  0.
         25    2    3    3    0    0  0.15016819667E+02  0.13346472716E+03 -0.13500066952E+03  0.22783739929E+03  0.12508541672E+03 0.  0.
         35    2    3    3    0    0 -0.15016819667E+02 -0.13346472716E+03 -0.78978442338E+03  0.11333685485E+04  0.80170224708E+03 0.  0.
         22    1    5    5    0    0 -0.39567640566E+03 -0.13054086566E+03 -0.52224017972E+03  0.66808348349E+03  0.00000000000E+00 0.  1.
         22    1    5    5    0    0  0.38065958599E+03 -0.29238615098E+01 -0.26754424365E+03  0.46528506497E+03  0.00000000000E+00 0.  1.
          5    1    4    4  502    0 -0.11317005013E+02  0.13443172231E+03 -0.59108445709E+02  0.14736302426E+03  0.47000000000E+01 0.  1.
         -5    1    4    4    0  502  0.26333824680E+02 -0.96699514542E+00 -0.75892223810E+02  0.80474375031E+02  0.47000000000E+01 0.  1.
<mgrwt>
<rscale>  0 0.99882639E+03</rscale>
<asrwt>0</asrwt>
<pdfrwt beam="1">  1        2 0.17584546E+00 0.99882639E+03</pdfrwt>
<pdfrwt beam="2">  1       -2 0.33570835E-01 0.99882639E+03</pdfrwt>
<totfact> 0.20505373E+02</totfact>
</mgrwt>
</event>
<event>
 9    1  0.4246427E-036  0.1000153E+04  0.7818608E-02  0.8680892E-01
          4   -1    0    0  501    0  0.00000000000E+00  0.00000000000E+00  0.66969410897E+03  0.66969410897E+03  0.00000000000E+00 0.  1.
         -4   -1    0    0    0  501 -0.00000000000E+00 -0.00000000000E+00 -0.37341935995E+03  0.37341935995E+03  0.00000000000E+00 0.  1.
         36    2    1    2    0    0  0.00000000000E+00 -0.24868995752E-13  0.29627474902E+03  0.10431134689E+04  0.10001534793E+04 0.  0.
         25    2    3    3    0    0 -0.14501723811E+03  0.16445615316E+02  0.54190543712E+02  0.19421407735E+03  0.11611216646E+03 0.  0.
         35    2    3    3    0    0  0.14501723811E+03 -0.16445615316E+02  0.24208420531E+03  0.84889939158E+03  0.80045296986E+03 0.  0.
         22    1    5    5    0    0  0.16994160525E+03 -0.34951724201E+03  0.32287645182E+03  0.50526394567E+03  0.00000000000E+00 0. -1.
         22    1    5    5    0    0 -0.24924367143E+02  0.33307162670E+03 -0.80792246506E+02  0.34363544591E+03  0.00000000000E+00 0. -1.
          5    1    4    4  502    0 -0.13241532896E+02 -0.22225874921E+02  0.50285313117E+02  0.56745311918E+02  0.47000000000E+01 0.  1.
         -5    1    4    4    0  502 -0.13177570522E+03  0.38671490237E+02  0.39052305950E+01  0.13746876543E+03  0.47000000000E+01 0.  1.
<mgrwt>
<rscale>  0 0.10001535E+04</rscale>
<asrwt>0</asrwt>
<pdfrwt beam="1">  1        4 0.10302986E+00 0.10001535E+04</pdfrwt>
<pdfrwt beam="2">  1       -4 0.57449132E-01 0.10001535E+04</pdfrwt>
<totfact> 0.49270484E+00</totfact>
</mgrwt>
</event>
<event>
 9    1  0.4246427E-036  0.9987254E+03  0.7818608E-02  0.8682253E-01
          1   -1    0    0  501    0  0.00000000000E+00  0.00000000000E+00  0.40150839777E+03  0.40150839777E+03  0.00000000000E+00 0. -1.
         -1   -1    0    0    0  501 -0.00000000000E+00 -0.00000000000E+00 -0.62106578521E+03  0.62106578521E+03  0.00000000000E+00 0. -1.
         36    2    1    2    0    0  0.00000000000E+00  0.17763568394E-13 -0.21955738744E+03  0.10225741830E+04  0.99872544442E+03 0.  0.
         25    2    3    3    0    0  0.13489973399E+03  0.18630241183E+02 -0.70889424208E+02  0.19795407104E+03  0.12496191283E+03 0.  0.
         35    2    3    3    0    0 -0.13489973399E+03 -0.18630241183E+02 -0.14866796323E+03  0.82462011195E+03  0.79959436067E+03 0.  0.
         22    1    5    5    0    0  0.72340476257E+02 -0.38371909197E+03 -0.53104265484E+02  0.39407302504E+03  0.00000000000E+00 0.  1.
         22    1    5    5    0    0 -0.20724021025E+03  0.36508885079E+03 -0.95563697743E+02  0.43054708691E+03  0.00000000000E+00 0.  1.
          5    1    4    4  502    0 -0.15641296368E+02 -0.23302586724E+02 -0.97074729188E+01  0.30066355459E+02  0.47000000000E+01 0. -1.
         -5    1    4    4    0  502  0.15054103036E+03  0.41932827907E+02 -0.61181951289E+02  0.16788771558E+03  0.47000000000E+01 0. -1.
<mgrwt>
<rscale>  0 0.99872544E+03</rscale>
<asrwt>0</asrwt>
<pdfrwt beam="1">  1        1 0.61770522E-01 0.99872544E+03</pdfrwt>
<pdfrwt beam="2">  1       -1 0.95548583E-01 0.99872544E+03</pdfrwt>
<totfact> 0.75410428E+01</totfact>
</mgrwt>
</event>
<event>
 9    1  0.4246427E-036  0.9989962E+03  0.7818608E-02  0.8681994E-01
          2   -1    0    0  501    0  0.00000000000E+00  0.00000000000E+00  0.72116460061E+03  0.72116460061E+03  0.00000000000E+00 0. -1.
         -2   -1    0    0    0  501 -0.00000000000E+00 -0.00000000000E+00 -0.34596589357E+03  0.34596589357E+03  0.00000000000E+00 0. -1.
         36    2    1    2    0    0  0.00000000000E+00 -0.14210854715E-13  0.37519870704E+03  0.10671304942E+04  0.99899620712E+03 0.  0.
         25    2    3    3    0    0 -0.92590191650E+02 -0.10147059677E+03  0.86040897707E+02  0.20525753190E+03  0.12593011047E+03 0.  0.
         35    2    3    3    0    0  0.92590191650E+02  0.10147059677E+03  0.28915780933E+03  0.86187296228E+03  0.80021468296E+03 0.  0.
         22    1    5    5    0    0 -0.15988797166E+03  0.33706714555E+03  0.34962855608E+03  0.51129106321E+03  0.00000000000E+00 0.  1.
         22    1    5    5    0    0  0.25247816331E+03 -0.23559654878E+03 -0.60470746747E+02  0.35058189908E+03  0.00000000000E+00 0.  1.
          5    1    4    4  502    0 -0.88971047863E+02 -0.15266491972E+02  0.11465139913E+02  0.91117795014E+02  0.47000000000E+01 0.  1.
         -5    1    4    4    0  502 -0.36191437867E+01 -0.86204104794E+02  0.74575757793E+02  0.11413973688E+03  0.47000000000E+01 0.  1.
<mgrwt>
<rscale>  0 0.99899621E+03</rscale>
<asrwt>0</asrwt>
<pdfrwt beam="1">  1        2 0.11094840E+00 0.99899621E+03</pdfrwt>
<pdfrwt beam="2">  1       -2 0.53225522E-01 0.99899621E+03</pdfrwt>
<totfact> 0.15887664E+02</totfact>
</mgrwt>
</event>
<event>
 9    1  0.4246427E-036  0.1000595E+04  0.7818608E-02  0.8680472E-01
         -3   -1    0    0    0  501 -0.00000000000E+00  0.00000000000E+00  0.12171991653E+03  0.12171991653E+03  0.00000000000E+00 0.  1.
          3   -1    0    0  501    0  0.00000000000E+00 -0.00000000000E+00 -0.20563402050E+04  0.20563402050E+04  0.00000000000E+00 0.  1.
         36    2    1    2    0    0  0.00000000000E+00  0.14210854715E-13 -0.19346202885E+04  0.21780601215E+04  0.10005949392E+04 0.  0.
         25    2    3    3    0    0  0.75403560971E+02  0.11725420149E+03 -0.40858848885E+03  0.44943300843E+03  0.12494491216E+03 0.  0.
         35    2    3    3    0    0 -0.75403560971E+02 -0.11725420149E+03 -0.15260317996E+04  0.17286271131E+04  0.79996524793E+03 0.  0.
         22    1    5    5    0    0 -0.79532299800E+02  0.17286653421E+03 -0.13990097685E+04  0.14118911282E+04  0.00000000000E+00 0.  1.
         22    1    5    5    0    0  0.41287388286E+01 -0.29012073571E+03 -0.12702203111E+03  0.31673598494E+03  0.00000000000E+00 0.  1.
          5    1    4    4  502    0 -0.28133065222E+02  0.26975621256E+00 -0.40491995897E+02  0.49530130819E+02  0.47000000000E+01 0.  1.
         -5    1    4    4    0  502  0.10353662619E+03  0.11698444528E+03 -0.36809649295E+03  0.39990287761E+03  0.47000000000E+01 0.  1.
<mgrwt>
<rscale>  0 0.10005949E+04</rscale>
<asrwt>0</asrwt>
<pdfrwt beam="1">  1        3 0.31636000E+00 0.10005949E+04</pdfrwt>
<pdfrwt beam="2">  1       -3 0.18726143E-01 0.10005949E+04</pdfrwt>
<totfact> 0.38724908E+00</totfact>
</mgrwt>
</event>
<event>
 9    1  0.4246427E-036  0.1003596E+04  0.7818608E-02  0.8677621E-01
          1   -1    0    0  501    0  0.00000000000E+00  0.00000000000E+00  0.69666023369E+03  0.69666023369E+03  0.00000000000E+00 0.  1.
         -1   -1    0    0    0  501 -0.00000000000E+00 -0.00000000000E+00 -0.36144065958E+03  0.36144065958E+03  0.00000000000E+00 0.  1.
         36    2    1    2    0    0  0.14210854715E-13  0.28421709430E-13  0.33521957412E+03  0.10581008933E+04  0.10035962024E+04 0.  0.
         25    2    3    3    0    0  0.41355842231E+02  0.14306588576E+03  0.89139490208E+02  0.21190019020E+03  0.12156351647E+03 0.  0.
         35    2    3    3    0    0 -0.41355842231E+02 -0.14306588576E+03  0.24608008391E+03  0.84620070307E+03  0.79581534844E+03 0.  0.
         22    1    5    5    0    0 -0.59811721571E+02  0.30464709964E+03  0.24918606966E+03  0.39809671522E+03  0.00000000000E+00 0. -1.
         22    1    5    5    0    0  0.18455879340E+02 -0.44771298540E+03 -0.31059857500E+01  0.44810398785E+03  0.00000000000E+00 0. -1.
          5    1    4    4  502    0  0.21193939816E+02 -0.17370927026E+02  0.26559757869E+02  0.38450525727E+02  0.47000000000E+01 0.  1.
         -5    1    4    4    0  502  0.20161902416E+02  0.16043681279E+03  0.62579732339E+02  0.17344966448E+03  0.47000000000E+01 0.  1.
<mgrwt>
<rscale>  0 0.10035962E+04</rscale>
<asrwt>0</asrwt>
<pdfrwt beam="1">  1        1 0.10717850E+00 0.10035962E+04</pdfrwt>
<pdfrwt beam="2">  1       -1 0.55606255E-01 0.10035962E+04</pdfrwt>
<totfact> 0.10328281E+02</totfact>
</mgrwt>
</event>
<event>
 9    1  0.4246427E-036  0.9993685E+03  0.7818608E-02  0.8681640E-01
         -2   -1    0    0    0  501 -0.00000000000E+00  0.00000000000E+00  0.16590951939E+03  0.16590951939E+03  0.00000000000E+00 0.  1.
          2   -1    0    0  501    0  0.00000000000E+00 -0.00000000000E+00 -0.15049427991E+04  0.15049427991E+04  0.00000000000E+00 0.  1.
         36    2    1    2    0    0  0.00000000000E+00  0.00000000000E+00 -0.13390332797E+04  0.16708523185E+04  0.99936847359E+03 0.  0.
         25    2    3    3    0    0  0.84414354794E+02 -0.78539494343E+02 -0.11884305985E+03  0.20785407903E+03  0.12564000091E+03 0.  0.
         35    2    3    3    0    0 -0.84414354794E+02  0.78539494343E+02 -0.12201902198E+04  0.14629982394E+04  0.79887761298E+03 0.  0.
         22    1    5    5    0    0 -0.92121726772E+02 -0.29318309036E+03 -0.17500435915E+03  0.35365132933E+03  0.00000000000E+00 0.  1.
         22    1    5    5    0    0  0.77073719777E+01  0.37172258471E+03 -0.10451858607E+04  0.11093469101E+04  0.00000000000E+00 0.  1.
          5    1    4    4  502    0  0.11533491964E+03 -0.59774742291E+02 -0.11009343463E+03  0.17034617064E+03  0.47000000000E+01 0. -1.
         -5    1    4    4    0  502 -0.30920564847E+02 -0.18764752052E+02 -0.87496252201E+01  0.37507908386E+02  0.47000000000E+01 0. -1.
<mgrwt>
<rscale>  0 0.99936847E+03</rscale>
<asrwt>0</asrwt>
<pdfrwt beam="1">  1        2 0.23152966E+00 0.99936847E+03</pdfrwt>
<pdfrwt beam="2">  1       -2 0.25524542E-01 0.99936847E+03</pdfrwt>
<totfact> 0.20812524E+02</totfact>
</mgrwt>
</event>
<event>
 9    1  0.4246427E-036  0.9939410E+03  0.7818608E-02  0.8686829E-01
         -2   -1    0    0    0  501 -0.00000000000E+00  0.00000000000E+00  0.16973406454E+03  0.16973406454E+03  0.00000000000E+00 0.  1.
          2   -1    0    0  501    0  0.00000000000E+00 -0.00000000000E+00 -0.14550978965E+04  0.14550978965E+04  0.00000000000E+00 0.  1.
         36    2    1    2    0    0  0.00000000000E+00  0.35527136788E-14 -0.12853638319E+04  0.16248319610E+04  0.99394100483E+03 0.  0.
         25    2    3    3    0    0  0.24309236148E+02 -0.19350689911E+02 -0.24665725226E+02  0.13172556480E+03  0.12560986529E+03 0.  0.
         35    2    3    3    0    0 -0.24309236148E+02  0.19350689911E+02 -0.12606981067E+04  0.14931063962E+04  0.79940077932E+03 0.  0.
         22    1    5    5    0    0 -0.73348165886E+02  0.80859765419E+02 -0.13611483958E+04  0.13655193922E+04  0.00000000000E+00 0. -1.
         22    1    5    5    0    0  0.49038929738E+02 -0.61509075508E+02  0.10045028912E+03  0.12758700397E+03  0.00000000000E+00 0. -1.
          5    1    4    4  502    0 -0.42791043659E+02  0.22232023315E+02  0.13706214774E+01  0.48469628442E+02  0.47000000000E+01 0.  1.
         -5    1    4    4    0  502  0.67100279807E+02 -0.41582713226E+02 -0.26036346703E+02  0.83255936359E+02  0.47000000000E+01 0.  1.
<mgrwt>
<rscale>  0 0.99394100E+03</rscale>
<asrwt>0</asrwt>
<pdfrwt beam="1">  1        2 0.22386122E+00 0.99394100E+03</pdfrwt>
<pdfrwt beam="2">  1       -2 0.26112932E-01 0.99394100E+03</pdfrwt>
<totfact> 0.21328183E+02</totfact>
</mgrwt>
</event>
<event>
 9    1  0.4246427E-036  0.9999645E+03  0.7818608E-02  0.8681072E-01
         -2   -1    0    0    0  501 -0.00000000000E+00  0.00000000000E+00  0.19974574568E+04  0.19974574568E+04  0.00000000000E+00 0.  1.
          2   -1    0    0  501    0  0.00000000000E+00 -0.00000000000E+00 -0.12515022192E+03  0.12515022192E+03  0.00000000000E+00 0.  1.
         36    2    1    2    0    0 -0.14210854715E-13  0.00000000000E+00  0.18723072348E+04  0.21226076787E+04  0.99996448733E+03 0.  0.
         25    2    3    3    0    0  0.12092074518E+02 -0.19585543656E+02  0.56851826881E+02  0.13868416399E+03  0.12438390304E+03 0.  0.
         35    2    3    3    0    0 -0.12092074518E+02  0.19585543656E+02  0.18154554080E+04  0.19839235147E+04  0.79971517558E+03 0.  0.
         22    1    5    5    0    0  0.34533981635E+03 -0.32139872754E+02  0.13552477022E+04  0.13989241918E+04  0.00000000000E+00 0. -1.
         22    1    5    5    0    0 -0.35743189086E+03  0.51725416410E+02  0.46020770580E+03  0.58499932290E+03  0.00000000000E+00 0. -1.
          5    1    4    4  502    0  0.13133564405E+02 -0.57821251510E+02  0.75300313978E+02  0.95958402057E+02  0.47000000000E+01 0. -1.
         -5    1    4    4    0  502 -0.10414898869E+01  0.38235707853E+02 -0.18448487097E+02  0.42725761929E+02  0.47000000000E+01 0. -1.
<mgrwt>
<rscale>  0 0.99996449E+03</rscale>
<asrwt>0</asrwt>
<pdfrwt beam="1">  1        2 0.19253882E-01 0.99996449E+03</pdfrwt>
<pdfrwt beam="2">  1       -2 0.30730112E+00 0.99996449E+03</pdfrwt>
<totfact> 0.94396812E+00</totfact>
</mgrwt>
</event>
<event>
 9    1  0.4246427E-036  0.1005545E+04  0.7818608E-02  0.8675775E-01
         -2   -1    0    0    0  501 -0.00000000000E+00  0.00000000000E+00  0.99346203699E+02  0.99346203699E+02  0.00000000000E+00 0.  1.
          2   -1    0    0  501    0  0.00000000000E+00 -0.00000000000E+00 -0.25444368460E+04  0.25444368460E+04  0.00000000000E+00 0.  1.
         36    2    1    2    0    0 -0.14210854715E-13  0.14210854715E-13 -0.24450906423E+04  0.26437830497E+04  0.10055449094E+04 0.  0.
         25    2    3    3    0    0 -0.57358381046E+02  0.11521730475E+03 -0.28029008964E+03  0.33255449093E+03  0.12435812758E+03 0.  0.
         35    2    3    3    0    0  0.57358381046E+02 -0.11521730475E+03 -0.21648005527E+04  0.23112285588E+04  0.79928155671E+03 0.  0.
         22    1    5    5    0    0  0.17311869102E+03  0.15497136415E+03 -0.15330154105E+03  0.27836588759E+03  0.00000000000E+00 0.  1.
         22    1    5    5    0    0 -0.11576030997E+03 -0.27018866890E+03 -0.20114990116E+04  0.20328626712E+04  0.00000000000E+00 0.  1.
          5    1    4    4  502    0 -0.86216135870E+02  0.11279722139E+03 -0.18747806713E+03  0.23521596649E+03  0.47000000000E+01 0. -1.
         -5    1    4    4    0  502  0.28857754824E+02  0.24200833589E+01 -0.92812022511E+02  0.97338524437E+02  0.47000000000E+01 0. -1.
<mgrwt>
<rscale>  0 0.10055449E+04</rscale>
<asrwt>0</asrwt>
<pdfrwt beam="1">  1        2 0.39145176E+00 0.10055449E+04</pdfrwt>
<pdfrwt beam="2">  1       -2 0.15284034E-01 0.10055449E+04</pdfrwt>
<totfact> 0.12674879E+02</totfact>
</mgrwt>
</event>
<event>
 9    1  0.4246427E-036  0.9991806E+03  0.7818608E-02  0.8681819E-01
          2   -1    0    0  501    0  0.00000000000E+00  0.00000000000E+00  0.27781230258E+04  0.27781230258E+04  0.00000000000E+00 0. -1.
         -2   -1    0    0    0  501 -0.00000000000E+00 -0.00000000000E+00 -0.89841407303E+02  0.89841407303E+02  0.00000000000E+00 0. -1.
         36    2    1    2    0    0  0.14210854715E-13 -0.28421709430E-13  0.26882816185E+04  0.28679644331E+04  0.99918062892E+03 0.  0.
         25    2    3    3    0    0 -0.55429185667E+02  0.12770650447E+03  0.49807492578E+03  0.53219031899E+03  0.12556495541E+03 0.  0.
         35    2    3    3    0    0  0.55429185667E+02 -0.12770650447E+03  0.21902066927E+04  0.23357741141E+04  0.79965868309E+03 0.  0.
         22    1    5    5    0    0  0.20124817511E+03 -0.26486685869E+03  0.20816176594E+04  0.21080292599E+04  0.00000000000E+00 0.  1.
         22    1    5    5    0    0 -0.14581898944E+03  0.13716035422E+03  0.10858903333E+03  0.22774485419E+03  0.00000000000E+00 0.  1.
          5    1    4    4  502    0 -0.12787886980E+01 -0.16540420579E+02  0.91065079842E+01  0.19499725668E+02  0.47000000000E+01 0.  1.
         -5    1    4    4    0  502 -0.54150396969E+02  0.14424692505E+03  0.48896841780E+03  0.51269059332E+03  0.47000000000E+01 0.  1.
<mgrwt>
<rscale>  0 0.99918063E+03</rscale>
<asrwt>0</asrwt>
<pdfrwt beam="1">  1        2 0.42740348E+00 0.99918063E+03</pdfrwt>
<pdfrwt beam="2">  1       -2 0.13821757E-01 0.99918063E+03</pdfrwt>
<totfact> 0.10709627E+02</totfact>
</mgrwt>
</event>
<event>
 9    1  0.4246427E-036  0.1000847E+04  0.7818608E-02  0.8680232E-01
          1   -1    0    0  501    0  0.00000000000E+00  0.00000000000E+00  0.53109948122E+03  0.53109948122E+03  0.00000000000E+00 0.  1.
         -1   -1    0    0    0  501 -0.00000000000E+00 -0.00000000000E+00 -0.47151895008E+03  0.47151895008E+03  0.00000000000E+00 0.  1.
         36    2    1    2    0    0  0.28421709430E-13  0.00000000000E+00  0.59580531138E+02  0.10026184313E+04  0.10008465812E+04 0.  0.
         25    2    3    3    0    0  0.13159233683E+03  0.34395956775E+02  0.52803541013E+02  0.19194410465E+03  0.12471848464E+03 0.  0.
         35    2    3    3    0    0 -0.13159233683E+03 -0.34395956775E+02  0.67769901255E+01  0.81067432665E+03  0.79915412240E+03 0.  0.
         22    1    5    5    0    0  0.21485724528E+03  0.15561732713E+02 -0.28341661257E+03  0.35599266798E+03  0.00000000000E+00 0. -1.
         22    1    5    5    0    0 -0.34644958211E+03 -0.49957689488E+02  0.29019360270E+03  0.45468165867E+03  0.00000000000E+00 0. -1.
          5    1    4    4  502    0  0.15391866684E+03  0.40617413405E+02  0.36993147981E+02  0.16349713536E+03  0.47000000000E+01 0. -1.
         -5    1    4    4    0  502 -0.22326330006E+02 -0.62214566297E+01  0.15810393032E+02  0.28446969293E+02  0.47000000000E+01 0. -1.
<mgrwt>
<rscale>  0 0.10008466E+04</rscale>
<asrwt>0</asrwt>
<pdfrwt beam="1">  1        1 0.81707613E-01 0.10008466E+04</pdfrwt>
<pdfrwt beam="2">  1       -1 0.72541377E-01 0.10008466E+04</pdfrwt>
<totfact> 0.91795372E+01</totfact>
</mgrwt>
</event>
<event>
 9    1  0.4246427E-036  0.9998285E+03  0.7818608E-02  0.8681201E-01
          2   -1    0    0  501    0  0.00000000000E+00  0.00000000000E+00  0.10028563360E+04  0.10028563360E+04  0.00000000000E+00 0. -1.
         -2   -1    0    0    0  501 -0.00000000000E+00 -0.00000000000E+00 -0.24920247043E+03  0.24920247043E+03  0.00000000000E+00 0. -1.
         36    2    1    2    0    0 -0.14210854715E-13  0.00000000000E+00  0.75365386561E+03  0.12520588065E+04  0.99982853816E+03 0.  0.
         25    2    3    3    0    0 -0.70224848270E+02 -0.99924992458E+02  0.56381650192E+02  0.18358981976E+03  0.12493917724E+03 0.  0.
         35    2    3    3    0    0  0.70224848270E+02  0.99924992458E+02  0.69727221542E+03  0.10684689867E+04  0.80032549613E+03 0.  0.
         22    1    5    5    0    0 -0.14384499040E+03  0.15435467339E+03 -0.10547693884E+03  0.23588584333E+03  0.00000000000E+00 0. -1.
         22    1    5    5    0    0  0.21406983867E+03 -0.54429680928E+02  0.80274915425E+03  0.83258314339E+03  0.00000000000E+00 0. -1.
          5    1    4    4  502    0  0.53055351989E+01  0.12336757532E+02 -0.22705965115E+02  0.26795431363E+02  0.47000000000E+01 0.  1.
         -5    1    4    4    0  502 -0.75530383469E+02 -0.11226174999E+03  0.79087615307E+02  0.15679438840E+03  0.47000000000E+01 0.  1.
<mgrwt>
<rscale>  0 0.99982854E+03</rscale>
<asrwt>0</asrwt>
<pdfrwt beam="1">  1        2 0.15428559E+00 0.99982854E+03</pdfrwt>
<pdfrwt beam="2">  1       -2 0.38338842E-01 0.99982854E+03</pdfrwt>
<totfact> 0.19477277E+02</totfact>
</mgrwt>
</event>
<event>
 9    1  0.4246427E-036  0.9997424E+03  0.7818608E-02  0.8681283E-01
          2   -1    0    0  501    0  0.00000000000E+00  0.00000000000E+00  0.14617531076E+04  0.14617531076E+04  0.00000000000E+00 0.  1.
         -2   -1    0    0    0  501 -0.00000000000E+00 -0.00000000000E+00 -0.17093940072E+03  0.17093940072E+03  0.00000000000E+00 0.  1.
         36    2    1    2    0    0 -0.28421709430E-13 -0.28421709430E-13  0.12908137069E+04  0.16326925083E+04  0.99974236724E+03 0.  0.
         25    2    3    3    0    0 -0.88210054359E+02 -0.11037918150E+03  0.23584511788E+03  0.30203435180E+03  0.12504900094E+03 0.  0.
         35    2    3    3    0    0  0.88210054359E+02  0.11037918150E+03  0.10549685890E+04  0.13306581565E+04  0.79857863003E+03 0.  0.
         22    1    5    5    0    0 -0.34328743930E+03  0.37699998817E+02  0.29721329218E+03  0.45563504797E+03  0.00000000000E+00 0. -1.
         22    1    5    5    0    0  0.43149749366E+03  0.72679182685E+02  0.75775529684E+03  0.87502310856E+03  0.00000000000E+00 0. -1.
          5    1    4    4  502    0 -0.96025051031E+02 -0.27006173866E+02  0.16190545037E+03  0.19022515268E+03  0.47000000000E+01 0. -1.
         -5    1    4    4    0  502  0.78149966725E+01 -0.83373007636E+02  0.73939667515E+02  0.11180919912E+03  0.47000000000E+01 0. -1.
<mgrwt>
<rscale>  0 0.99974237E+03</rscale>
<asrwt>0</asrwt>
<pdfrwt beam="1">  1        2 0.22488508E+00 0.99974237E+03</pdfrwt>
<pdfrwt beam="2">  1       -2 0.26298370E-01 0.99974237E+03</pdfrwt>
<totfact> 0.20877246E+02</totfact>
</mgrwt>
</event>
<event>
 9    1  0.4246427E-036  0.9996169E+03  0.7818608E-02  0.8681403E-01
         -2   -1    0    0    0  501 -0.00000000000E+00  0.00000000000E+00  0.26698944679E+03  0.26698944679E+03  0.00000000000E+00 0. -1.
          2   -1    0    0  501    0  0.00000000000E+00 -0.00000000000E+00 -0.93564927367E+03  0.93564927367E+03  0.00000000000E+00 0. -1.
         36    2    1    2    0    0  0.88817841970E-15  0.00000000000E+00 -0.66865982688E+03  0.12026387205E+04  0.99961689054E+03 0.  0.
         25    2    3    3    0    0  0.26055565888E-01  0.64615778815E+02 -0.27546426547E+03  0.30927494125E+03  0.12488085597E+03 0.  0.
         35    2    3    3    0    0 -0.26055565888E-01 -0.64615778815E+02 -0.39319556142E+03  0.89336377921E+03  0.79957544543E+03 0.  0.
         22    1    5    5    0    0  0.40889585539E+01  0.36329782225E+03 -0.10773856021E+03  0.37895860538E+03  0.00000000000E+00 0.  1.
         22    1    5    5    0    0 -0.41150141198E+01 -0.42791360107E+03 -0.28545700120E+03  0.51440517382E+03  0.00000000000E+00 0.  1.
          5    1    4    4  502    0 -0.85425856478E+01  0.32721345036E+02 -0.27375186643E+03  0.27587286304E+03  0.47000000000E+01 0.  1.
         -5    1    4    4    0  502  0.85686412137E+01  0.31894433779E+02 -0.17123990398E+01  0.33402078211E+02  0.47000000000E+01 0.  1.
<mgrwt>
<rscale>  0 0.99961689E+03</rscale>
<asrwt>0</asrwt>
<pdfrwt beam="1">  1        2 0.14394604E+00 0.99961689E+03</pdfrwt>
<pdfrwt beam="2">  1       -2 0.41075300E-01 0.99961689E+03</pdfrwt>
<totfact> 0.18840680E+02</totfact>
</mgrwt>
</event>
<event>
 9    1  0.4246427E-036  0.1000713E+04  0.7818608E-02  0.8680359E-01
          2   -1    0    0  501    0  0.00000000000E+00  0.00000000000E+00  0.70347173231E+03  0.70347173231E+03  0.00000000000E+00 0.  1.
         -2   -1    0    0    0  501 -0.00000000000E+00 -0.00000000000E+00 -0.35588747261E+03  0.35588747261E+03  0.00000000000E+00 0.  1.
         36    2    1    2    0    0  0.00000000000E+00  0.49737991503E-13  0.34758425970E+03  0.10593592049E+04  0.10007132993E+04 0.  0.
         25    2    3    3    0    0 -0.69960333561E+02  0.18643245287E+01 -0.67152056368E+02  0.15824212576E+03  0.12503298650E+03 0.  0.
         35    2    3    3    0    0  0.69960333561E+02 -0.18643245287E+01  0.41473631607E+03  0.90111707916E+03  0.79693654359E+03 0.  0.
         22    1    5    5    0    0  0.18728256996E+03 -0.33455474056E+03  0.38455557700E+02  0.38533163036E+03  0.00000000000E+00 0. -1.
         22    1    5    5    0    0 -0.11732223640E+03  0.33269041603E+03  0.37628075837E+03  0.51578544880E+03  0.00000000000E+00 0. -1.
          5    1    4    4  502    0 -0.48441851174E+02  0.55225201221E+02 -0.68423363077E+02  0.10050016124E+03  0.47000000000E+01 0.  1.
         -5    1    4    4    0  502 -0.21518482387E+02 -0.53360876692E+02  0.12713067090E+01  0.57741964517E+02  0.47000000000E+01 0.  1.
<mgrwt>
<rscale>  0 0.10007133E+04</rscale>
<asrwt>0</asrwt>
<pdfrwt beam="1">  1        2 0.10822642E+00 0.10007133E+04</pdfrwt>
<pdfrwt beam="2">  1       -2 0.54751919E-01 0.10007133E+04</pdfrwt>
<totfact> 0.15465490E+02</totfact>
</mgrwt>
</event>
<event>
 9    1  0.4246427E-036  0.9988492E+03  0.7818608E-02  0.8682135E-01
         -2   -1    0    0    0  501 -0.00000000000E+00  0.00000000000E+00  0.18560522084E+03  0.18560522084E+03  0.00000000000E+00 0. -1.
          2   -1    0    0  501    0  0.00000000000E+00 -0.00000000000E+00 -0.13438466485E+04  0.13438466485E+04  0.00000000000E+00 0. -1.
         36    2    1    2    0    0  0.28421709430E-13 -0.56843418861E-13 -0.11582414277E+04  0.15294518694E+04  0.99884924585E+03 0.  0.
         25    2    3    3    0    0 -0.10330663590E+03 -0.73534638426E+02 -0.30823029664E+03  0.35577955437E+03  0.12447317571E+03 0.  0.
         35    2    3    3    0    0  0.10330663590E+03  0.73534638426E+02 -0.85001113106E+03  0.11736723150E+04  0.79931731874E+03 0.  0.
         22    1    5    5    0    0 -0.21525462561E+03  0.33051977972E+03 -0.48606178152E+03  0.62596640012E+03  0.00000000000E+00 0. -1.
         22    1    5    5    0    0  0.31856126151E+03 -0.25698514129E+03 -0.36394934954E+03  0.54770591489E+03  0.00000000000E+00 0. -1.
          5    1    4    4  502    0 -0.11644228103E+03 -0.15021082810E+02 -0.20057538277E+03  0.23245862409E+03  0.47000000000E+01 0.  1.
         -5    1    4    4    0  502  0.13135645135E+02 -0.58513555615E+02 -0.10765491388E+03  0.12332093028E+03  0.47000000000E+01 0.  1.
<mgrwt>
<rscale>  0 0.99884925E+03</rscale>
<asrwt>0</asrwt>
<pdfrwt beam="1">  1        2 0.20674564E+00 0.99884925E+03</pdfrwt>
<pdfrwt beam="2">  1       -2 0.28554648E-01 0.99884925E+03</pdfrwt>
<totfact> 0.21026990E+02</totfact>
</mgrwt>
</event>
<event>
 9    1  0.4246427E-036  0.9985463E+03  0.7818608E-02  0.8682424E-01
          1   -1    0    0  501    0  0.00000000000E+00  0.00000000000E+00  0.11662054773E+04  0.11662054773E+04  0.00000000000E+00 0. -1.
         -1   -1    0    0    0  501 -0.00000000000E+00 -0.00000000000E+00 -0.21374762951E+03  0.21374762951E+03  0.00000000000E+00 0. -1.
         36    2    1    2    0    0  0.00000000000E+00 -0.28421709430E-13  0.95245784775E+03  0.13799531068E+04  0.99854625589E+03 0.  0.
         25    2    3    3    0    0 -0.76136290421E+02  0.68188564168E+02  0.30410239347E+03  0.34386435144E+03  0.12376595442E+03 0.  0.
         35    2    3    3    0    0  0.76136290421E+02 -0.68188564168E+02  0.64835545428E+03  0.10360887553E+04  0.80166620163E+03 0.  0.
         22    1    5    5    0    0  0.31152555209E+03  0.21494620243E+03  0.12983232500E+03  0.40013306807E+03  0.00000000000E+00 0. -1.
         22    1    5    5    0    0 -0.23538926167E+03 -0.28313476660E+03  0.51852312928E+03  0.63595568726E+03  0.00000000000E+00 0. -1.
          5    1    4    4  502    0 -0.26443946786E+01  0.82536814342E+02  0.19099257313E+03  0.20813354256E+03  0.47000000000E+01 0. -1.
         -5    1    4    4    0  502 -0.73491895742E+02 -0.14348250174E+02  0.11310982034E+03  0.13573080888E+03  0.47000000000E+01 0. -1.
<mgrwt>
<rscale>  0 0.99854626E+03</rscale>
<asrwt>0</asrwt>
<pdfrwt beam="1">  1        1 0.17941622E+00 0.99854626E+03</pdfrwt>
<pdfrwt beam="2">  1       -1 0.32884251E-01 0.99854626E+03</pdfrwt>
<totfact> 0.10847859E+02</totfact>
</mgrwt>
</event>
<event>
 9    1  0.4246427E-036  0.9981144E+03  0.7818608E-02  0.8682836E-01
          2   -1    0    0  501    0  0.00000000000E+00  0.00000000000E+00  0.21014289008E+04  0.21014289008E+04  0.00000000000E+00 0. -1.
         -2   -1    0    0    0  501 -0.00000000000E+00 -0.00000000000E+00 -0.11851845656E+03  0.11851845656E+03  0.00000000000E+00 0. -1.
         36    2    1    2    0    0  0.14210854715E-13 -0.14210854715E-13  0.19829104443E+04  0.22199473574E+04  0.99811444212E+03 0.  0.
         25    2    3    3    0    0 -0.10222543345E+03  0.91369749659E+02  0.37885486020E+03  0.42218241267E+03  0.12612895813E+03 0.  0.
         35    2    3    3    0    0  0.10222543345E+03 -0.91369749659E+02  0.16040555841E+04  0.17977649447E+04  0.80010374905E+03 0.  0.
         22    1    5    5    0    0  0.29532156203E+02 -0.31823793370E+03  0.20754571274E+03  0.38108103282E+03  0.00000000000E+00 0.  1.
         22    1    5    5    0    0  0.72693277251E+02  0.22686818405E+03  0.13965098713E+04  0.14166839119E+04  0.00000000000E+00 0.  1.
          5    1    4    4  502    0 -0.31820659594E+02 -0.26085241306E+02  0.44234866424E+02  0.60595442060E+02  0.47000000000E+01 0.  1.
         -5    1    4    4    0  502 -0.70404773860E+02  0.11745499096E+03  0.33461999377E+03  0.36158697061E+03  0.47000000000E+01 0.  1.
<mgrwt>
<rscale>  0 0.99811444E+03</rscale>
<asrwt>0</asrwt>
<pdfrwt beam="1">  1        2 0.32329673E+00 0.99811444E+03</pdfrwt>
<pdfrwt beam="2">  1       -2 0.18233610E-01 0.99811444E+03</pdfrwt>
<totfact> 0.17197364E+02</totfact>
</mgrwt>
</event>
<event>
 9    1  0.4246427E-036  0.1000008E+04  0.7818608E-02  0.8681030E-01
          2   -1    0    0  501    0  0.00000000000E+00  0.00000000000E+00  0.10790445199E+04  0.10790445199E+04  0.00000000000E+00 0.  1.
         -2   -1    0    0    0  501 -0.00000000000E+00 -0.00000000000E+00 -0.23169032603E+03  0.23169032603E+03  0.00000000000E+00 0.  1.
         36    2    1    2    0    0  0.14210854715E-13  0.14210854715E-13  0.84735419384E+03  0.13107348459E+04  0.10000083532E+04 0.  0.
         25    2    3    3    0    0 -0.58247528993E+02 -0.12307256417E+02  0.33574257850E+03  0.36307462433E+03  0.12472313585E+03 0.  0.
         35    2    3    3    0    0  0.58247528993E+02  0.12307256417E+02  0.51161161534E+03  0.94766022157E+03  0.79546791727E+03 0.  0.
         22    1    5    5    0    0 -0.13080922675E+03 -0.15865254891E+03  0.63284017630E+03  0.66540842632E+03  0.00000000000E+00 0.  1.
         22    1    5    5    0    0  0.18905675574E+03  0.17095980533E+03 -0.12122856097E+03  0.28225179525E+03  0.00000000000E+00 0.  1.
          5    1    4    4  502    0  0.28694724119E+02 -0.37137942983E+02  0.10078946663E+03  0.11127991995E+03  0.47000000000E+01 0. -1.
         -5    1    4    4    0  502 -0.86942253112E+02  0.24830686566E+02  0.23495311188E+03  0.25179470438E+03  0.47000000000E+01 0. -1.
<mgrwt>
<rscale>  0 0.10000084E+04</rscale>
<asrwt>0</asrwt>
<pdfrwt beam="1">  1        2 0.16600685E+00 0.10000084E+04</pdfrwt>
<pdfrwt beam="2">  1       -2 0.35644666E-01 0.10000084E+04</pdfrwt>
<totfact> 0.20046215E+02</totfact>
</mgrwt>
</event>
<event>
 9    1  0.4246427E-036  0.9995070E+03  0.7818608E-02  0.8681508E-01
         -4   -1    0    0    0  501 -0.00000000000E+00  0.00000000000E+00  0.39425160368E+03  0.39425160368E+03  0.00000000000E+00 0.  1.
          4   -1    0    0  501    0  0.00000000000E+00 -0.00000000000E+00 -0.63348780451E+03  0.63348780451E+03  0.00000000000E+00 0.  1.
         36    2    1    2    0    0  0.00000000000E+00  0.00000000000E+00 -0.23923620082E+03  0.10277394082E+04  0.99950704418E+03 0.  0.
         25    2    3    3    0    0  0.13174643375E+03  0.22805585459E+02 -0.70377202270E+02  0.19601823057E+03  0.12487184863E+03 0.  0.
         35    2    3    3    0    0 -0.13174643375E+03 -0.22805585459E+02 -0.16885899855E+03  0.83172117762E+03  0.80334895182E+03 0.  0.
         22    1    5    5    0    0  0.15162324397E+03 -0.31129620356E+03  0.82016208993E+02  0.35583927973E+03  0.00000000000E+00 0.  1.
         22    1    5    5    0    0 -0.28336967772E+03  0.28849061810E+03 -0.25087520755E+03  0.47588189789E+03  0.00000000000E+00 0.  1.
          5    1    4    4  502    0  0.10210408970E+02 -0.18706735540E+02  0.27043372171E+02  0.34750947962E+02  0.47000000000E+01 0.  1.
         -5    1    4    4    0  502  0.12153602478E+03  0.41512320998E+02 -0.97420574441E+02  0.16126728260E+03  0.47000000000E+01 0.  1.
<mgrwt>
<rscale>  0 0.99950704E+03</rscale>
<asrwt>0</asrwt>
<pdfrwt beam="1">  1        4 0.97459662E-01 0.99950704E+03</pdfrwt>
<pdfrwt beam="2">  1       -4 0.60654093E-01 0.99950704E+03</pdfrwt>
<totfact> 0.50580162E+00</totfact>
</mgrwt>
</event>
<event>
 9    1  0.4246427E-036  0.9999321E+03  0.7818608E-02  0.8681103E-01
          2   -1    0    0  501    0  0.00000000000E+00  0.00000000000E+00  0.16741114963E+04  0.16741114963E+04  0.00000000000E+00 0. -1.
         -2   -1    0    0    0  501 -0.00000000000E+00 -0.00000000000E+00 -0.14931265252E+03  0.14931265252E+03  0.00000000000E+00 0. -1.
         36    2    1    2    0    0 -0.14210854715E-13  0.00000000000E+00  0.15247988438E+04  0.18234241488E+04  0.99993205394E+03 0.  0.
         25    2    3    3    0    0  0.86938856256E+02  0.99628129144E+02  0.36736116320E+03  0.40995571740E+03  0.12500134862E+03 0.  0.
         35    2    3    3    0    0 -0.86938856256E+02 -0.99628129144E+02  0.11574376806E+04  0.14134684314E+04  0.80046667223E+03 0.  0.
         22    1    5    5    0    0 -0.40021952905E+03  0.11552558680E+02  0.92472688353E+03  0.10076849419E+04  0.00000000000E+00 0.  1.
         22    1    5    5    0    0  0.31328067280E+03 -0.11118068782E+03  0.23271079707E+03  0.40578348952E+03  0.00000000000E+00 0.  1.
          5    1    4    4  502    0  0.31314472225E+02  0.10370935376E+03  0.14742649915E+03  0.18301062505E+03  0.47000000000E+01 0. -1.
         -5    1    4    4    0  502  0.55624384031E+02 -0.40812246147E+01  0.21993466405E+03  0.22694509235E+03  0.47000000000E+01 0. -1.
<mgrwt>
<rscale>  0 0.99993205E+03</rscale>
<asrwt>0</asrwt>
<pdfrwt beam="1">  1        2 0.25755560E+00 0.99993205E+03</pdfrwt>
<pdfrwt beam="2">  1       -2 0.22971178E-01 0.99993205E+03</pdfrwt>
<totfact> 0.20125933E+02</totfact>
</mgrwt>
</event>
<event>
 9    1  0.4246427E-036  0.1000595E+04  0.7818608E-02  0.8680471E-01
          3   -1    0    0  501    0  0.00000000000E+00  0.00000000000E+00  0.89070306584E+03  0.89070306584E+03  0.00000000000E+00 0.  1.
         -3   -1    0    0    0  501 -0.00000000000E+00 -0.00000000000E+00 -0.28101135638E+03  0.28101135638E+03  0.00000000000E+00 0.  1.
         36    2    1    2    0    0 -0.14210854715E-13  0.28421709430E-13  0.60969170945E+03  0.11717144222E+04  0.10005951762E+04 0.  0.
         25    2    3    3    0    0  0.33332963921E+02  0.10944333992E+03  0.17310182919E+02  0.16953914862E+03  0.12391508926E+03 0.  0.
         35    2    3    3    0    0 -0.33332963921E+02 -0.10944333992E+03  0.59238152653E+03  0.10021752736E+04  0.80021901683E+03 0.  0.
         22    1    5    5    0    0  0.24554525519E+03 -0.35626749145E+03  0.36294752515E+03  0.56475649958E+03  0.00000000000E+00 0.  1.
         22    1    5    5    0    0 -0.27887821911E+03  0.24682415153E+03  0.22943400138E+03  0.43741877401E+03  0.00000000000E+00 0.  1.
          5    1    4    4  502    0  0.36473250650E+02  0.97667089112E+02 -0.39244061522E+02  0.11149594017E+03  0.47000000000E+01 0.  1.
         -5    1    4    4    0  502 -0.31402867292E+01  0.11776250808E+02  0.56554244440E+02  0.58043208458E+02  0.47000000000E+01 0.  1.
<mgrwt>
<rscale>  0 0.10005952E+04</rscale>
<asrwt>0</asrwt>
<pdfrwt beam="1">  1        3 0.13703124E+00 0.10005952E+04</pdfrwt>
<pdfrwt beam="2">  1       -3 0.43232517E-01 0.10005952E+04</pdfrwt>
<totfact> 0.90852483E+00</totfact>
</mgrwt>
</event>
<event>
 9    1  0.4246427E-036  0.1001931E+04  0.7818608E-02  0.8679202E-01
          2   -1    0    0  501    0  0.00000000000E+00  0.00000000000E+00  0.13070678210E+04  0.13070678210E+04  0.00000000000E+00 0. -1.
         -2   -1    0    0    0  501 -0.00000000000E+00 -0.00000000000E+00 -0.19200701501E+03  0.19200701501E+03  0.00000000000E+00 0. -1.
         36    2    1    2    0    0  0.14210854715E-13  0.14210854715E-13  0.11150608059E+04  0.14990748360E+04  0.10019305180E+04 0.  0.
         25    2    3    3    0    0 -0.10913172887E+03 -0.89046516124E+02  0.23574490186E+03  0.30217050159E+03  0.12606481269E+03 0.  0.
         35    2    3    3    0    0  0.10913172887E+03  0.89046516124E+02  0.87931590408E+03  0.11969043344E+04  0.79971526820E+03 0.  0.
         22    1    5    5    0    0  0.26858560798E+03  0.44958832814E+02  0.97051365714E+03  0.10079961727E+04  0.00000000000E+00 0.  1.
         22    1    5    5    0    0 -0.15945387912E+03  0.44087683310E+02 -0.91197753065E+02  0.18890816168E+03  0.00000000000E+00 0.  1.
          5    1    4    4  502    0 -0.84193087809E+02 -0.11253880139E+03  0.22610736479E+03  0.26627070486E+03  0.47000000000E+01 0. -1.
         -5    1    4    4    0  502 -0.24938641059E+02  0.23492285268E+02  0.96375370787E+01  0.35899796739E+02  0.47000000000E+01 0. -1.
<mgrwt>
<rscale>  0 0.10019305E+04</rscale>
<asrwt>0</asrwt>
<pdfrwt beam="1">  1        2 0.20108735E+00 0.10019305E+04</pdfrwt>
<pdfrwt beam="2">  1       -2 0.29539542E-01 0.10019305E+04</pdfrwt>
<totfact> 0.20763761E+02</totfact>
</mgrwt>
</event>
<event>
 9    1  0.4246427E-036  0.9979084E+03  0.7818608E-02  0.8683032E-01
          1   -1    0    0  501    0  0.00000000000E+00  0.00000000000E+00  0.64271085728E+03  0.64271085728E+03  0.00000000000E+00 0. -1.
         -1   -1    0    0    0  501 -0.00000000000E+00 -0.00000000000E+00 -0.38735190590E+03  0.38735190590E+03  0.00000000000E+00 0. -1.
         36    2    1    2    0    0  0.00000000000E+00  0.28421709430E-13  0.25535895138E+03  0.10300627632E+04  0.99790836354E+03 0.  0.
         25    2    3    3    0    0  0.12802855516E+02 -0.14129135280E+03  0.17018519577E+02  0.18292270336E+03  0.11421000792E+03 0.  0.
         35    2    3    3    0    0 -0.12802855516E+02  0.14129135280E+03  0.23834043180E+03  0.84714005981E+03  0.80044547598E+03 0.  0.
         22    1    5    5    0    0  0.12543330435E+03  0.27099174239E+03  0.46440210603E+03  0.55212258998E+03  0.00000000000E+00 0.  1.
         22    1    5    5    0    0 -0.13823615986E+03 -0.12970038959E+03 -0.22606167423E+03  0.29501746983E+03  0.00000000000E+00 0.  1.
          5    1    4    4  502    0  0.58888499580E+02 -0.63168579308E+02  0.29200393876E+02  0.91284597808E+02  0.47000000000E+01 0. -1.
         -5    1    4    4    0  502 -0.46085644064E+02 -0.78122773496E+02 -0.12181874299E+02  0.91638105551E+02  0.47000000000E+01 0. -1.
<mgrwt>
<rscale>  0 0.99790836E+03</rscale>
<asrwt>0</asrwt>
<pdfrwt beam="1">  1        1 0.98878593E-01 0.99790836E+03</pdfrwt>
<pdfrwt beam="2">  1       -1 0.59592601E-01 0.99790836E+03</pdfrwt>
<totfact> 0.10232210E+02</totfact>
</mgrwt>
</event>
<event>
 9    1  0.4246427E-036  0.9998678E+03  0.7818608E-02  0.8681164E-01
         -2   -1    0    0    0  501 -0.00000000000E+00  0.00000000000E+00  0.15965631324E+03  0.15965631324E+03  0.00000000000E+00 0. -1.
          2   -1    0    0  501    0  0.00000000000E+00 -0.00000000000E+00 -0.15654496451E+04  0.15654496451E+04  0.00000000000E+00 0. -1.
         36    2    1    2    0    0  0.00000000000E+00 -0.10658141036E-13 -0.14057933319E+04  0.17251059584E+04  0.99986782907E+03 0.  0.
         25    2    3    3    0    0 -0.98344244934E+02  0.45218260280E+01 -0.91424231227E+02  0.18373908406E+03  0.12533803706E+03 0.  0.
         35    2    3    3    0    0  0.98344244934E+02 -0.45218260280E+01 -0.13143691007E+04  0.15413668743E+04  0.79909553310E+03 0.  0.
         22    1    5    5    0    0 -0.13774350312E+02 -0.36919289276E+03 -0.92587608152E+03  0.99686490716E+03  0.00000000000E+00 0.  1.
         22    1    5    5    0    0  0.11211859525E+03  0.36467106673E+03 -0.38849301913E+03  0.54450196714E+03  0.00000000000E+00 0.  1.
          5    1    4    4  502    0 -0.95082405403E+02  0.34397385851E+02 -0.10888377038E+03  0.14866610045E+03  0.47000000000E+01 0.  1.
         -5    1    4    4    0  502 -0.32618395309E+01 -0.29875559823E+02  0.17459539154E+02  0.35072983611E+02  0.47000000000E+01 0.  1.
<mgrwt>
<rscale>  0 0.99986783E+03</rscale>
<asrwt>0</asrwt>
<pdfrwt beam="1">  1        2 0.24083840E+00 0.99986783E+03</pdfrwt>
<pdfrwt beam="2">  1       -2 0.24562510E-01 0.99986783E+03</pdfrwt>
<totfact> 0.20592941E+02</totfact>
</mgrwt>
</event>
<event>
 9    1  0.4246427E-036  0.1000323E+04  0.7818608E-02  0.8680730E-01
         -1   -1    0    0    0  501 -0.00000000000E+00  0.00000000000E+00  0.31408173083E+03  0.31408173083E+03  0.00000000000E+00 0.  1.
          1   -1    0    0  501    0  0.00000000000E+00 -0.00000000000E+00 -0.79648613589E+03  0.79648613589E+03  0.00000000000E+00 0.  1.
         36    2    1    2    0    0  0.71054273576E-14  0.00000000000E+00 -0.48240440506E+03  0.11105678667E+04  0.10003234360E+04 0.  0.
         25    2    3    3    0    0  0.14886676175E+02 -0.13052662813E+03 -0.14411289063E+03  0.23155358507E+03  0.12485881520E+03 0.  0.
         35    2    3    3    0    0 -0.14886676175E+02  0.13052662813E+03 -0.33829151443E+03  0.87901428165E+03  0.80060361281E+03 0.  0.
         22    1    5    5    0    0  0.25128684756E+03 -0.12796497416E+03  0.10502653498E+03  0.30091641267E+03  0.00000000000E+00 0. -1.
         22    1    5    5    0    0 -0.26617352373E+03  0.25849160229E+03 -0.44331804941E+03  0.57809786898E+03  0.00000000000E+00 0. -1.
          5    1    4    4  502    0 -0.42543210304E+02 -0.49693317170E+01 -0.34914672641E+02  0.55459384835E+02  0.47000000000E+01 0. -1.
         -5    1    4    4    0  502  0.57429886479E+02 -0.12555729641E+03 -0.10919821799E+03  0.17609420023E+03  0.47000000000E+01 0. -1.
<mgrwt>
<rscale>  0 0.10003234E+04</rscale>
<asrwt>0</asrwt>
<pdfrwt beam="1">  1        1 0.12253633E+00 0.10003234E+04</pdfrwt>
<pdfrwt beam="2">  1       -1 0.48320267E-01 0.10003234E+04</pdfrwt>
<totfact> 0.10865136E+02</totfact>
</mgrwt>
</event>
<event>
 9    1  0.4246427E-036  0.1001044E+04  0.7818608E-02  0.8680044E-01
         -1   -1    0    0    0  501 -0.00000000000E+00  0.00000000000E+00  0.13249372123E+03  0.13249372123E+03  0.00000000000E+00 0. -1.
          1   -1    0    0  501    0  0.00000000000E+00 -0.00000000000E+00 -0.18908238550E+04  0.18908238550E+04  0.00000000000E+00 0. -1.
         36    2    1    2    0    0  0.71054273576E-14  0.56843418861E-13 -0.17583301338E+04  0.20233175763E+04  0.10010440325E+04 0.  0.
         25    2    3    3    0    0  0.15188745639E+02  0.93947565757E+02 -0.12784032990E+03  0.20437136273E+03  0.12793615927E+03 0.  0.
         35    2    3    3    0    0 -0.15188745639E+02 -0.93947565757E+02 -0.16304898039E+04  0.18189462135E+04  0.80063192793E+03 0.  0.
         22    1    5    5    0    0  0.16972618303E+03  0.30978524889E+03 -0.59000219417E+03  0.68766013899E+03  0.00000000000E+00 0.  1.
         22    1    5    5    0    0 -0.18491492867E+03 -0.40373281464E+03 -0.10404876097E+04  0.11312860745E+04  0.00000000000E+00 0.  1.
          5    1    4    4  502    0  0.11720964757E+02 -0.17041125298E+02  0.13062983944E+02  0.24910088634E+02  0.47000000000E+01 0. -1.
         -5    1    4    4    0  502  0.34677808816E+01  0.11098869105E+03 -0.14090331385E+03  0.17946127409E+03  0.47000000000E+01 0. -1.
<mgrwt>
<rscale>  0 0.10010440E+04</rscale>
<asrwt>0</asrwt>
<pdfrwt beam="1">  1        1 0.29089595E+00 0.10010440E+04</pdfrwt>
<pdfrwt beam="2">  1       -1 0.20383651E-01 0.10010440E+04</pdfrwt>
<totfact> 0.73614716E+01</totfact>
</mgrwt>
</event>
<event>
 9    1  0.4246427E-036  0.1000522E+04  0.7818608E-02  0.8680541E-01
          2   -1    0    0  501    0  0.00000000000E+00  0.00000000000E+00  0.35265380752E+03  0.35265380752E+03  0.00000000000E+00 0. -1.
         -2   -1    0    0    0  501 -0.00000000000E+00 -0.00000000000E+00 -0.70965138201E+03  0.70965138201E+03  0.00000000000E+00 0. -1.
         36    2    1    2    0    0  0.21316282073E-13 -0.53290705182E-14 -0.35699757449E+03  0.10623051895E+04  0.10005223873E+04 0.  0.
         25    2    3    3    0    0  0.19977645658E+02  0.10722825018E+02  0.79682876812E+02  0.15038538719E+03  0.12550824085E+03 0.  0.
         35    2    3    3    0    0 -0.19977645658E+02 -0.10722825018E+02 -0.43668045131E+03  0.91191980234E+03  0.80024610217E+03 0.  0.
         22    1    5    5    0    0 -0.22787603961E+03  0.45560361584E+02  0.15695144200E+03  0.28042287910E+03  0.00000000000E+00 0. -1.
         22    1    5    5    0    0  0.20789839395E+03 -0.56283186602E+02 -0.59363189331E+03  0.63149692324E+03  0.00000000000E+00 0. -1.
          5    1    4    4  502    0  0.34505025793E+02  0.21789420557E+02  0.10846081540E+03  0.11597936941E+03  0.47000000000E+01 0. -1.
         -5    1    4    4    0  502 -0.14527380135E+02 -0.11066595539E+02 -0.28777938584E+02  0.34406017781E+02  0.47000000000E+01 0. -1.
<mgrwt>
<rscale>  0 0.10005224E+04</rscale>
<asrwt>0</asrwt>
<pdfrwt beam="1">  1        2 0.54254432E-01 0.10005224E+04</pdfrwt>
<pdfrwt beam="2">  1       -2 0.10917714E+00 0.10005224E+04</pdfrwt>
<totfact> 0.72302652E+01</totfact>
</mgrwt>
</event>
<event>
 9    1  0.4246427E-036  0.1000377E+04  0.7818608E-02  0.8680679E-01
         -1   -1    0    0    0  501 -0.00000000000E+00  0.00000000000E+00  0.24114430283E+03  0.24114430283E+03  0.00000000000E+00 0. -1.
          1   -1    0    0  501    0  0.00000000000E+00 -0.00000000000E+00 -0.10375059267E+04  0.10375059267E+04  0.00000000000E+00 0. -1.
         36    2    1    2    0    0 -0.35527136788E-14  0.00000000000E+00 -0.79636162385E+03  0.12786502295E+04  0.10003772156E+04 0.  0.
         25    2    3    3    0    0 -0.22744173106E+02 -0.13067752445E+03 -0.90500051086E+02  0.20363645058E+03  0.12523430820E+03 0.  0.
         35    2    3    3    0    0  0.22744173106E+02  0.13067752445E+03 -0.70586157276E+03  0.10750137789E+04  0.79988758723E+03 0.  0.
         22    1    5    5    0    0  0.24362552416E+03  0.30037749792E+03 -0.87092759676E+02  0.39644064634E+03  0.00000000000E+00 0.  1.
         22    1    5    5    0    0 -0.22088135106E+03 -0.16969997347E+03 -0.61876881309E+03  0.67857313260E+03  0.00000000000E+00 0.  1.
          5    1    4    4  502    0  0.23438579651E+02  0.12706667389E+02  0.14123591150E+01  0.27109245110E+02  0.47000000000E+01 0. -1.
         -5    1    4    4    0  502 -0.46182752757E+02 -0.14338419184E+03 -0.91912410201E+02  0.17652720547E+03  0.47000000000E+01 0. -1.
<mgrwt>
<rscale>  0 0.10003772E+04</rscale>
<asrwt>0</asrwt>
<pdfrwt beam="1">  1        1 0.15961630E+00 0.10003772E+04</pdfrwt>
<pdfrwt beam="2">  1       -1 0.37099123E-01 0.10003772E+04</pdfrwt>
<totfact> 0.11032364E+02</totfact>
</mgrwt>
</event>
<event>
 9    1  0.4246427E-036  0.9999122E+03  0.7818608E-02  0.8681122E-01
          2   -1    0    0  501    0  0.00000000000E+00  0.00000000000E+00  0.66362896878E+03  0.66362896878E+03  0.00000000000E+00 0.  1.
         -2   -1    0    0    0  501 -0.00000000000E+00 -0.00000000000E+00 -0.37665038300E+03  0.37665038300E+03  0.00000000000E+00 0.  1.
         36    2    1    2    0    0 -0.14210854715E-13  0.71054273576E-14  0.28697858577E+03  0.10402793518E+04  0.99991220667E+03 0.  0.
         25    2    3    3    0    0  0.12217799679E+03 -0.33285537340E+02 -0.10499567940E+02  0.17780225199E+03  0.12437045465E+03 0.  0.
         35    2    3    3    0    0 -0.12217799679E+03  0.33285537340E+02  0.29747815371E+03  0.86247709980E+03  0.79958620914E+03 0.  0.
         22    1    5    5    0    0  0.26516564049E+02  0.16004507432E+03  0.53260319350E+03  0.55676181236E+03  0.00000000000E+00 0.  1.
         22    1    5    5    0    0 -0.14869456084E+03 -0.12675953698E+03 -0.23512503978E+03  0.30571528743E+03  0.00000000000E+00 0.  1.
          5    1    4    4  502    0  0.13441327594E+03 -0.60349448250E+02 -0.81438634204E+01  0.14763941602E+03  0.47000000000E+01 0.  1.
         -5    1    4    4    0  502 -0.12235279148E+02  0.27063910911E+02 -0.23557045191E+01  0.30162835964E+02  0.47000000000E+01 0.  1.
<mgrwt>
<rscale>  0 0.99991221E+03</rscale>
<asrwt>0</asrwt>
<pdfrwt beam="1">  1        2 0.10209676E+00 0.99991221E+03</pdfrwt>
<pdfrwt beam="2">  1       -2 0.57946213E-01 0.99991221E+03</pdfrwt>
<totfact> 0.14778342E+02</totfact>
</mgrwt>
</event>
<event>
 9    1  0.4246427E-036  0.1000050E+04  0.7818608E-02  0.8680990E-01
          1   -1    0    0  501    0  0.00000000000E+00  0.00000000000E+00  0.22815133406E+04  0.22815133406E+04  0.00000000000E+00 0.  1.
         -1   -1    0    0    0  501 -0.00000000000E+00 -0.00000000000E+00 -0.10958731320E+03  0.10958731320E+03  0.00000000000E+00 0.  1.
         36    2    1    2    0    0  0.00000000000E+00  0.00000000000E+00  0.21719260274E+04  0.23911006539E+04  0.10000498328E+04 0.  0.
         25    2    3    3    0    0  0.83101520420E+02  0.89610011918E+02  0.55644984194E+03  0.58413084937E+03  0.12898296655E+03 0.  0.
         35    2    3    3    0    0 -0.83101520420E+02 -0.89610011918E+02  0.16154761855E+04  0.18069698045E+04  0.80027542223E+03 0.  0.
         22    1    5    5    0    0  0.29777929660E+03  0.17074538846E+03  0.78913374992E+03  0.86055712909E+03  0.00000000000E+00 0.  1.
         22    1    5    5    0    0 -0.38088081702E+03 -0.26035540038E+03  0.82634243559E+03  0.94641267539E+03  0.00000000000E+00 0.  1.
          5    1    4    4  502    0  0.12728172579E+02 -0.14920125868E+02  0.85452294677E+01  0.21902682022E+02  0.47000000000E+01 0.  1.
         -5    1    4    4    0  502  0.70373347840E+02  0.10453013779E+03  0.54790461247E+03  0.56222816735E+03  0.47000000000E+01 0.  1.
<mgrwt>
<rscale>  0 0.10000498E+04</rscale>
<asrwt>0</asrwt>
<pdfrwt beam="1">  1        1 0.35100202E+00 0.10000498E+04</pdfrwt>
<pdfrwt beam="2">  1       -1 0.16859588E-01 0.10000498E+04</pdfrwt>
<totfact> 0.53491068E+01</totfact>
</mgrwt>
</event>
<event>
 9    1  0.4246427E-036  0.1000825E+04  0.7818608E-02  0.8680253E-01
         -2   -1    0    0    0  501 -0.00000000000E+00  0.00000000000E+00  0.66418629606E+03  0.66418629606E+03  0.00000000000E+00 0. -1.
          2   -1    0    0  501    0  0.00000000000E+00 -0.00000000000E+00 -0.37702148411E+03  0.37702148411E+03  0.00000000000E+00 0. -1.
         36    2    1    2    0    0 -0.14210854715E-13  0.00000000000E+00  0.28716481194E+03  0.10412077802E+04  0.10008246661E+04 0.  0.
         25    2    3    3    0    0 -0.51763317871E+02  0.47112035597E+02  0.18055046834E+03  0.23055361025E+03  0.12512997485E+03 0.  0.
         35    2    3    3    0    0  0.51763317871E+02 -0.47112035597E+02  0.10661434360E+03  0.81065416992E+03  0.80055891724E+03 0.  0.
         22    1    5    5    0    0  0.36002597929E+03 -0.24431462375E+03  0.25587959867E+02  0.43584754770E+03  0.00000000000E+00 0. -1.
         22    1    5    5    0    0 -0.30826266142E+03  0.19720258815E+03  0.81026383736E+02  0.37480662222E+03  0.00000000000E+00 0. -1.
          5    1    4    4  502    0  0.20837402786E+02 -0.28314642516E+02  0.68477932169E+02  0.77118308655E+02  0.47000000000E+01 0.  1.
         -5    1    4    4    0  502 -0.72600720657E+02  0.75426678113E+02  0.11207253617E+03  0.15343530159E+03  0.47000000000E+01 0.  1.
<mgrwt>
<rscale>  0 0.10008247E+04</rscale>
<asrwt>0</asrwt>
<pdfrwt beam="1">  1        2 0.58003305E-01 0.10008247E+04</pdfrwt>
<pdfrwt beam="2">  1       -2 0.10218251E+00 0.10008247E+04</pdfrwt>
<totfact> 0.79095957E+01</totfact>
</mgrwt>
</event>
<event>
 9    1  0.4246427E-036  0.9999142E+03  0.7818608E-02  0.8681120E-01
         -2   -1    0    0    0  501 -0.00000000000E+00  0.00000000000E+00  0.68727831897E+02  0.68727831897E+02  0.00000000000E+00 0. -1.
          2   -1    0    0  501    0  0.00000000000E+00 -0.00000000000E+00 -0.36369122669E+04  0.36369122669E+04  0.00000000000E+00 0. -1.
         36    2    1    2    0    0  0.28421709430E-13  0.49737991503E-13 -0.35681844350E+04  0.37056400988E+04  0.99991418613E+03 0.  0.
         25    2    3    3    0    0  0.13832418450E+03 -0.10129302209E+02 -0.72067079857E+03  0.74416370872E+03  0.12319514065E+03 0.  0.
         35    2    3    3    0    0 -0.13832418450E+03  0.10129302209E+02 -0.28475136365E+04  0.29614763901E+04  0.80173082549E+03 0.  0.
         22    1    5    5    0    0 -0.17309688448E+03 -0.25618550010E+03 -0.43290926381E+03  0.53198117689E+03  0.00000000000E+00 0. -1.
         22    1    5    5    0    0  0.34772699983E+02  0.26631480230E+03 -0.24146043727E+04  0.24294952132E+04  0.00000000000E+00 0. -1.
          5    1    4    4  502    0  0.10262758452E+02  0.34303063742E+02 -0.30006219324E+03  0.30222745442E+03  0.47000000000E+01 0. -1.
         -5    1    4    4    0  502  0.12806142605E+03 -0.44432365950E+02 -0.42060860533E+03  0.44193625430E+03  0.47000000000E+01 0. -1.
<mgrwt>
<rscale>  0 0.99991419E+03</rscale>
<asrwt>0</asrwt>
<pdfrwt beam="1">  1        2 0.55952498E+00 0.99991419E+03</pdfrwt>
<pdfrwt beam="2">  1       -2 0.10573512E-01 0.99991419E+03</pdfrwt>
<totfact> 0.41337990E+01</totfact>
</mgrwt>
</event>
<event>
 9    1  0.4246427E-036  0.1001896E+04  0.7818608E-02  0.8679234E-01
         -2   -1    0    0    0  501 -0.00000000000E+00  0.00000000000E+00  0.75771910033E+02  0.75771910033E+02  0.00000000000E+00 0.  1.
          2   -1    0    0  501    0  0.00000000000E+00 -0.00000000000E+00 -0.33119006613E+04  0.33119006613E+04  0.00000000000E+00 0.  1.
         36    2    1    2    0    0 -0.42632564146E-13 -0.28421709430E-13 -0.32361287513E+04  0.33876725714E+04  0.10018962800E+04 0.  0.
         25    2    3    3    0    0 -0.16494698703E+00  0.14469939106E+03 -0.65964613382E+03  0.68614201146E+03  0.12132558277E+03 0.  0.
         35    2    3    3    0    0  0.16494698703E+00 -0.14469939106E+03 -0.25764826175E+04  0.27015305599E+04  0.79941650408E+03 0.  0.
         22    1    5    5    0    0 -0.33503455909E+03 -0.27331308643E+03 -0.10976186304E+04  0.11797096493E+04  0.00000000000E+00 0. -1.
         22    1    5    5    0    0  0.33519950608E+03  0.12861369536E+03 -0.14788639871E+04  0.15218209106E+04  0.00000000000E+00 0. -1.
          5    1    4    4  502    0 -0.53108725249E+02  0.47409569111E+02 -0.35130115501E+03  0.35847286571E+03  0.47000000000E+01 0. -1.
         -5    1    4    4    0  502  0.52943778262E+02  0.97289821953E+02 -0.30834497881E+03  0.32766914574E+03  0.47000000000E+01 0. -1.
<mgrwt>
<rscale>  0 0.10018963E+04</rscale>
<asrwt>0</asrwt>
<pdfrwt beam="1">  1        2 0.50952321E+00 0.10018963E+04</pdfrwt>
<pdfrwt beam="2">  1       -2 0.11657216E-01 0.10018963E+04</pdfrwt>
<totfact> 0.61827616E+01</totfact>
</mgrwt>
</event>
<event>
 9    1  0.4246427E-036  0.1002590E+04  0.7818608E-02  0.8678576E-01
         -2   -1    0    0    0  501 -0.00000000000E+00  0.00000000000E+00  0.50132856836E+03  0.50132856836E+03  0.00000000000E+00 0.  1.
          2   -1    0    0  501    0  0.00000000000E+00 -0.00000000000E+00 -0.50126126813E+03  0.50126126813E+03  0.00000000000E+00 0.  1.
         36    2    1    2    0    0  0.00000000000E+00  0.00000000000E+00  0.67300236654E-01  0.10025898365E+04  0.10025898342E+04 0.  0.
         25    2    3    3    0    0  0.46142084839E+02 -0.13348902942E+03 -0.12068860691E+02  0.18880319919E+03  0.12470997417E+03 0.  0.
         35    2    3    3    0    0 -0.46142084839E+02  0.13348902942E+03  0.12136160927E+02  0.81378663730E+03  0.80134449001E+03 0.  0.
         22    1    5    5    0    0  0.37455107508E+02  0.19645876952E+03 -0.36836401756E+03  0.41915508184E+03  0.00000000000E+00 0. -1.
         22    1    5    5    0    0 -0.83597192347E+02 -0.62969740094E+02  0.38050017849E+03  0.39463155546E+03  0.00000000000E+00 0. -1.
          5    1    4    4  502    0 -0.41407767421E+01 -0.88431399203E+02  0.45773862889E+02  0.99772716315E+02  0.47000000000E+01 0.  1.
         -5    1    4    4    0  502  0.50282861581E+02 -0.45057630221E+02 -0.57842723580E+02  0.89030482876E+02  0.47000000000E+01 0.  1.
<mgrwt>
<rscale>  0 0.10025898E+04</rscale>
<asrwt>0</asrwt>
<pdfrwt beam="1">  1        2 0.77117118E-01 0.10025898E+04</pdfrwt>
<pdfrwt beam="2">  1       -2 0.77127472E-01 0.10025898E+04</pdfrwt>
<totfact> 0.11118513E+02</totfact>
</mgrwt>
</event>
<event>
 9    1  0.4246427E-036  0.1000392E+04  0.7818608E-02  0.8680664E-01
         -1   -1    0    0    0  501 -0.00000000000E+00  0.00000000000E+00  0.45143724540E+03  0.45143724540E+03  0.00000000000E+00 0.  1.
          1   -1    0    0  501    0  0.00000000000E+00 -0.00000000000E+00 -0.55422147149E+03  0.55422147149E+03  0.00000000000E+00 0.  1.
         36    2    1    2    0    0  0.00000000000E+00  0.14210854715E-13 -0.10278422609E+03  0.10056587169E+04  0.10003923519E+04 0.  0.
         25    2    3    3    0    0 -0.82119465446E+02  0.11478342528E+03  0.50771819147E+01  0.18715316153E+03  0.12280751919E+03 0.  0.
         35    2    3    3    0    0  0.82119465446E+02 -0.11478342528E+03 -0.10786140801E+03  0.81850555536E+03  0.79899838517E+03 0.  0.
         22    1    5    5    0    0  0.10091425423E+03  0.29211755097E+03 -0.23888367704E+03  0.39061715457E+03  0.00000000000E+00 0.  1.
         22    1    5    5    0    0 -0.18794788781E+02 -0.40690097624E+03  0.13102226903E+03  0.42788840079E+03  0.00000000000E+00 0.  1.
          5    1    4    4  502    0 -0.50742111577E+02 -0.10959375339E+02  0.21596790945E+02  0.56421460228E+02  0.47000000000E+01 0.  1.
         -5    1    4    4    0  502 -0.31377353869E+02  0.12574280062E+03 -0.16519609030E+02  0.13073170130E+03  0.47000000000E+01 0.  1.
<mgrwt>
<rscale>  0 0.10003924E+04</rscale>
<asrwt>0</asrwt>
<pdfrwt beam="1">  1        1 0.85264842E-01 0.10003924E+04</pdfrwt>
<pdfrwt beam="2">  1       -1 0.69451884E-01 0.10003924E+04</pdfrwt>
<totfact> 0.94254155E+01</totfact>
</mgrwt>
</event>
<event>
 9    1  0.4246427E-036  0.9997180E+03  0.7818608E-02  0.8681307E-01
         -2   -1    0    0    0  501 -0.00000000000E+00  0.00000000000E+00  0.10503536433E+03  0.10503536433E+03  0.00000000000E+00 0.  1.
          2   -1    0    0  501    0  0.00000000000E+00 -0.00000000000E+00 -0.23788083638E+04  0.23788083638E+04  0.00000000000E+00 0.  1.
         36    2    1    2    0    0  0.00000000000E+00  0.28421709430E-13 -0.22737729995E+04  0.24838437281E+04  0.99971796655E+03 0.  0.
         25    2    3    3    0    0  0.67610933649E+02 -0.11849244333E+03 -0.36846961825E+03  0.41251138864E+03  0.12563474324E+03 0.  0.
         35    2    3    3    0    0 -0.67610933649E+02  0.11849244333E+03 -0.19053033812E+04  0.20713323395E+04  0.80101497405E+03 0.  0.
         22    1    5    5    0    0  0.12983126548E+03 -0.29396602232E+03 -0.10918405947E+04  0.11381511604E+04  0.00000000000E+00 0.  1.
         22    1    5    5    0    0 -0.19744219913E+03  0.41245846565E+03 -0.81346278651E+03  0.93318117904E+03  0.00000000000E+00 0.  1.
          5    1    4    4  502    0  0.19099060620E+01 -0.92714286215E+02 -0.30010004925E+03  0.31413646106E+03  0.47000000000E+01 0.  1.
         -5    1    4    4    0  502  0.65701027587E+02 -0.25778157112E+02 -0.68369568999E+02  0.98374927574E+02  0.47000000000E+01 0.  1.
<mgrwt>
<rscale>  0 0.99971797E+03</rscale>
<asrwt>0</asrwt>
<pdfrwt beam="1">  1        2 0.36597054E+00 0.99971797E+03</pdfrwt>
<pdfrwt beam="2">  1       -2 0.16159286E-01 0.99971797E+03</pdfrwt>
<totfact> 0.14534543E+02</totfact>
</mgrwt>
</event>
<event>
 9    1  0.4246427E-036  0.9994788E+03  0.7818608E-02  0.8681534E-01
          1   -1    0    0  501    0  0.00000000000E+00  0.00000000000E+00  0.30933472915E+03  0.30933472915E+03  0.00000000000E+00 0.  1.
         -1   -1    0    0    0  501 -0.00000000000E+00 -0.00000000000E+00 -0.80734379479E+03  0.80734379479E+03  0.00000000000E+00 0.  1.
         36    2    1    2    0    0  0.71054273576E-14  0.00000000000E+00 -0.49800906564E+03  0.11166785239E+04  0.99947881237E+03 0.  0.
         25    2    3    3    0    0 -0.16880155846E+02 -0.13794703303E+03 -0.69190299611E+02  0.19879375391E+03  0.12416656334E+03 0.  0.
         35    2    3    3    0    0  0.16880155846E+02  0.13794703303E+03 -0.42881876603E+03  0.91788477003E+03  0.79957025543E+03 0.  0.
         22    1    5    5    0    0 -0.30262705791E+02  0.37104201091E+02  0.23752694519E+03  0.24230477253E+03  0.00000000000E+00 0.  1.
         22    1    5    5    0    0  0.47142861636E+02  0.10084283194E+03 -0.66634571122E+03  0.67557999750E+03  0.00000000000E+00 0.  1.
          5    1    4    4  502    0 -0.68104758844E+02 -0.88682173354E+02 -0.24052773900E+02  0.11447013576E+03  0.47000000000E+01 0.  1.
         -5    1    4    4    0  502  0.51224602998E+02 -0.49264859678E+02 -0.45137525711E+02  0.84323618155E+02  0.47000000000E+01 0.  1.
<mgrwt>
<rscale>  0 0.99947881E+03</rscale>
<asrwt>0</asrwt>
<pdfrwt beam="1">  1        1 0.47589959E-01 0.99947881E+03</pdfrwt>
<pdfrwt beam="2">  1       -1 0.12420674E+00 0.99947881E+03</pdfrwt>
<totfact> 0.57504462E+01</totfact>
</mgrwt>
</event>
<event>
 9    1  0.4246427E-036  0.9987980E+03  0.7818608E-02  0.8682183E-01
          1   -1    0    0  501    0  0.00000000000E+00  0.00000000000E+00  0.67987331850E+03  0.67987331850E+03  0.00000000000E+00 0.  1.
         -1   -1    0    0    0  501 -0.00000000000E+00 -0.00000000000E+00 -0.36683208715E+03  0.36683208715E+03  0.00000000000E+00 0.  1.
         36    2    1    2    0    0  0.00000000000E+00  0.14210854715E-13  0.31304123135E+03  0.10467054057E+04  0.99879797442E+03 0.  0.
         25    2    3    3    0    0 -0.77915009170E+02  0.34858341482E+02  0.17426659691E+03  0.23100794473E+03  0.12533942359E+03 0.  0.
         35    2    3    3    0    0  0.77915009170E+02 -0.34858341482E+02  0.13877463444E+03  0.81569746093E+03  0.79926096863E+03 0.  0.
         22    1    5    5    0    0  0.43789612520E+02  0.82810756173E+02  0.46128452855E+03  0.47070008262E+03  0.00000000000E+00 0.  1.
         22    1    5    5    0    0  0.34125396650E+02 -0.11766909765E+03 -0.32250989411E+03  0.34499737830E+03  0.00000000000E+00 0.  1.
          5    1    4    4  502    0 -0.91066929124E+02  0.56377002004E+02  0.81249626217E+02  0.13451819095E+03  0.47000000000E+01 0. -1.
         -5    1    4    4    0  502  0.13151919954E+02 -0.21518660523E+02  0.93016970693E+02  0.96489753788E+02  0.47000000000E+01 0. -1.
<mgrwt>
<rscale>  0 0.99879797E+03</rscale>
<asrwt>0</asrwt>
<pdfrwt beam="1">  1        1 0.10459589E+00 0.99879797E+03</pdfrwt>
<pdfrwt beam="2">  1       -1 0.56435706E-01 0.99879797E+03</pdfrwt>
<totfact> 0.10428652E+02</totfact>
</mgrwt>
</event>
<event>
 9    1  0.4246427E-036  0.1003001E+04  0.7818608E-02  0.8678185E-01
          2   -1    0    0  501    0  0.00000000000E+00  0.00000000000E+00  0.85271841495E+03  0.85271841495E+03  0.00000000000E+00 0. -1.
         -2   -1    0    0    0  501 -0.00000000000E+00 -0.00000000000E+00 -0.29494261120E+03  0.29494261120E+03  0.00000000000E+00 0. -1.
         36    2    1    2    0    0  0.14210854715E-13 -0.28421709430E-13  0.55777580375E+03  0.11476610261E+04  0.10030014874E+04 0.  0.
         25    2    3    3    0    0 -0.12122105907E+02  0.11300944002E+03  0.71608912485E+01  0.16950875911E+03  0.12555421963E+03 0.  0.
         35    2    3    3    0    0  0.12122105907E+02 -0.11300944002E+03  0.55061491250E+03  0.97815226703E+03  0.80042925774E+03 0.  0.
         22    1    5    5    0    0  0.20497820105E+03  0.27985468458E+03  0.36265272697E+03  0.50184829159E+03  0.00000000000E+00 0.  1.
         22    1    5    5    0    0 -0.19285609515E+03 -0.39286412461E+03  0.18796218553E+03  0.47630397545E+03  0.00000000000E+00 0.  1.
          5    1    4    4  502    0  0.53246478022E+02  0.29396900222E+02  0.15510380692E+02  0.62944634987E+02  0.47000000000E+01 0.  1.
         -5    1    4    4    0  502 -0.65368583928E+02  0.83612539803E+02 -0.83494894437E+01  0.10656412413E+03  0.47000000000E+01 0.  1.
<mgrwt>
<rscale>  0 0.10030015E+04</rscale>
<asrwt>0</asrwt>
<pdfrwt beam="1">  1        2 0.13118745E+00 0.10030015E+04</pdfrwt>
<pdfrwt beam="2">  1       -2 0.45375787E-01 0.10030015E+04</pdfrwt>
<totfact> 0.17615969E+02</totfact>
</mgrwt>
</event>
<event>
 9    1  0.4246427E-036  0.9994633E+03  0.7818608E-02  0.8681549E-01
          2   -1    0    0  501    0  0.00000000000E+00  0.00000000000E+00  0.43401426856E+03  0.43401426856E+03  0.00000000000E+00 0. -1.
         -2   -1    0    0    0  501 -0.00000000000E+00 -0.00000000000E+00 -0.57539975328E+03  0.57539975328E+03  0.00000000000E+00 0. -1.
         36    2    1    2    0    0  0.28421709430E-13  0.00000000000E+00 -0.14138548472E+03  0.10094140218E+04  0.99946326205E+03 0.  0.
         25    2    3    3    0    0  0.83908653147E+02  0.76995300728E+02 -0.11309526927E+03  0.20401506142E+03  0.12594707994E+03 0.  0.
         35    2    3    3    0    0 -0.83908653147E+02 -0.76995300728E+02 -0.28290215449E+02  0.80539896042E+03  0.79680500171E+03 0.  0.
         22    1    5    5    0    0 -0.15848490539E+02 -0.24491869063E+03  0.32564774419E+03  0.40777787209E+03  0.00000000000E+00 0. -1.
         22    1    5    5    0    0 -0.68060162608E+02  0.16792338991E+03 -0.35393795964E+03  0.39762108833E+03  0.00000000000E+00 0. -1.
          5    1    4    4  502    0 -0.31143282794E+02  0.14768264587E+02 -0.68950034946E+01  0.35463174919E+02  0.47000000000E+01 0.  1.
         -5    1    4    4    0  502  0.11505193594E+03  0.62227036141E+02 -0.10620026578E+03  0.16855188650E+03  0.47000000000E+01 0.  1.
<mgrwt>
<rscale>  0 0.99946326E+03</rscale>
<asrwt>0</asrwt>
<pdfrwt beam="1">  1        2 0.66771426E-01 0.99946326E+03</pdfrwt>
<pdfrwt beam="2">  1       -2 0.88523039E-01 0.99946326E+03</pdfrwt>
<totfact> 0.95198488E+01</totfact>
</mgrwt>
</event>
<event>
 9    1  0.4246427E-036  0.1000956E+04  0.7818608E-02  0.8680128E-01
         -2   -1    0    0    0  501 -0.00000000000E+00  0.00000000000E+00  0.14224846507E+03  0.14224846507E+03  0.00000000000E+00 0.  1.
          2   -1    0    0  501    0  0.00000000000E+00 -0.00000000000E+00 -0.17608492941E+04  0.17608492941E+04  0.00000000000E+00 0.  1.
         36    2    1    2    0    0  0.14210854715E-13  0.00000000000E+00 -0.16186008290E+04  0.19030977592E+04  0.10009557619E+04 0.  0.
         25    2    3    3    0    0 -0.91768054844E+02 -0.44026468440E+02 -0.49520572132E+03  0.52076483380E+03  0.12493038013E+03 0.  0.
         35    2    3    3    0    0  0.91768054844E+02  0.44026468440E+02 -0.11233951077E+04  0.13823329254E+04  0.79904195304E+03 0.  0.
         22    1    5    5    0    0  0.32459842391E+03 -0.19409019724E+03 -0.26556527613E+03  0.46212558613E+03  0.00000000000E+00 0.  1.
         22    1    5    5    0    0 -0.23283036907E+03  0.23811666568E+03 -0.85782983158E+03  0.92020733923E+03  0.00000000000E+00 0.  1.
          5    1    4    4  502    0 -0.93595017812E+02 -0.31498509469E+02 -0.49735859699E+03  0.50708958524E+03  0.47000000000E+01 0.  1.
         -5    1    4    4    0  502  0.18269629672E+01 -0.12527958971E+02  0.21528756638E+01  0.13675248564E+02  0.47000000000E+01 0.  1.
<mgrwt>
<rscale>  0 0.10009558E+04</rscale>
<asrwt>0</asrwt>
<pdfrwt beam="1">  1        2 0.27089989E+00 0.10009558E+04</pdfrwt>
<pdfrwt beam="2">  1       -2 0.21884379E-01 0.10009558E+04</pdfrwt>
<totfact> 0.19578052E+02</totfact>
</mgrwt>
</event>
<event>
 9    1  0.4246427E-036  0.9994296E+03  0.7818608E-02  0.8681581E-01
         -2   -1    0    0    0  501 -0.00000000000E+00  0.00000000000E+00  0.82567297663E+02  0.82567297663E+02  0.00000000000E+00 0. -1.
          2   -1    0    0  501    0  0.00000000000E+00 -0.00000000000E+00 -0.30243797285E+04  0.30243797285E+04  0.00000000000E+00 0. -1.
         36    2    1    2    0    0  0.00000000000E+00  0.00000000000E+00 -0.29418124309E+04  0.31069470262E+04  0.99942955988E+03 0.  0.
         25    2    3    3    0    0  0.86075966593E+02  0.92534855001E+02 -0.36565614266E+03  0.40640489317E+03  0.12445381117E+03 0.  0.
         35    2    3    3    0    0 -0.86075966593E+02 -0.92534855001E+02 -0.25761562882E+04  0.27005421330E+04  0.80023422793E+03 0.  0.
         22    1    5    5    0    0 -0.37222249397E+02  0.96207061822E+02  0.13074282537E+02  0.10398188043E+03  0.00000000000E+00 0. -1.
         22    1    5    5    0    0 -0.48853717196E+02 -0.18874191682E+03 -0.25892305707E+04  0.25965602526E+04  0.00000000000E+00 0. -1.
          5    1    4    4  502    0  0.89186492713E+02  0.98136065412E+02 -0.19675756141E+03  0.23731950149E+03  0.47000000000E+01 0. -1.
         -5    1    4    4    0  502 -0.31105261206E+01 -0.56012104109E+01 -0.16889858125E+03  0.16908539168E+03  0.47000000000E+01 0. -1.
<mgrwt>
<rscale>  0 0.99942956E+03</rscale>
<asrwt>0</asrwt>
<pdfrwt beam="1">  1        2 0.46528918E+00 0.99942956E+03</pdfrwt>
<pdfrwt beam="2">  1       -2 0.12702661E-01 0.99942956E+03</pdfrwt>
<totfact> 0.84998991E+01</totfact>
</mgrwt>
</event>
<event>
 9    1  0.4246427E-036  0.9998363E+03  0.7818608E-02  0.8681194E-01
         -2   -1    0    0    0  501 -0.00000000000E+00  0.00000000000E+00  0.68856070826E+02  0.68856070826E+02  0.00000000000E+00 0.  1.
          2   -1    0    0  501    0  0.00000000000E+00 -0.00000000000E+00 -0.36295730612E+04  0.36295730612E+04  0.00000000000E+00 0.  1.
         36    2    1    2    0    0 -0.14210854715E-13  0.28421709430E-13 -0.35607169904E+04  0.36984291321E+04  0.99983626614E+03 0.  0.
         25    2    3    3    0    0  0.12402816956E+03  0.59934224595E+02 -0.56767660549E+03  0.59741389234E+03  0.12518599049E+03 0.  0.
         35    2    3    3    0    0 -0.12402816956E+03 -0.59934224595E+02 -0.29930403849E+04  0.31010152397E+04  0.79939331566E+03 0.  0.
         22    1    5    5    0    0  0.69202942611E+02  0.35017825150E+03 -0.12475972916E+04  0.12976566792E+04  0.00000000000E+00 0.  1.
         22    1    5    5    0    0 -0.19323111217E+03 -0.41011247610E+03 -0.17454430933E+04  0.18033585605E+04  0.00000000000E+00 0.  1.
          5    1    4    4  502    0  0.98348703926E+02  0.92964496636E+02 -0.49728632509E+03  0.51539367897E+03  0.47000000000E+01 0. -1.
         -5    1    4    4    0  502  0.25679465636E+02 -0.33030272041E+02 -0.70390280405E+02  0.82020213374E+02  0.47000000000E+01 0. -1.
<mgrwt>
<rscale>  0 0.99983627E+03</rscale>
<asrwt>0</asrwt>
<pdfrwt beam="1">  1        2 0.55839595E+00 0.99983627E+03</pdfrwt>
<pdfrwt beam="2">  1       -2 0.10593240E-01 0.99983627E+03</pdfrwt>
<totfact> 0.41762661E+01</totfact>
</mgrwt>
</event>
<event>
 9    1  0.4246427E-036  0.1000486E+04  0.7818608E-02  0.8680576E-01
         -1   -1    0    0    0  501 -0.00000000000E+00  0.00000000000E+00  0.17395150410E+04  0.17395150410E+04  0.00000000000E+00 0. -1.
          1   -1    0    0  501    0  0.00000000000E+00 -0.00000000000E+00 -0.14385781456E+03  0.14385781456E+03  0.00000000000E+00 0. -1.
         36    2    1    2    0    0  0.28421709430E-13  0.00000000000E+00  0.15956572264E+04  0.18833728555E+04  0.10004855465E+04 0.  0.
         25    2    3    3    0    0 -0.64811957852E+02 -0.96180445630E+02  0.14559520537E+03  0.22431856856E+03  0.12517822643E+03 0.  0.
         35    2    3    3    0    0  0.64811957852E+02  0.96180445630E+02  0.14500620210E+04  0.16590542870E+04  0.79770294863E+03 0.  0.
         22    1    5    5    0    0  0.41034454533E+03  0.11838941535E+03  0.56187112583E+03  0.70576048457E+03  0.00000000000E+00 0. -1.
         22    1    5    5    0    0 -0.34553258748E+03 -0.22208969721E+02  0.88819089519E+03  0.95329380238E+03  0.00000000000E+00 0. -1.
          5    1    4    4  502    0 -0.77364181756E+02 -0.10781615706E+02  0.40097820209E+02  0.87928294886E+02  0.47000000000E+01 0. -1.
         -5    1    4    4    0  502  0.12552223905E+02 -0.85398829923E+02  0.10549738516E+03  0.13639027367E+03  0.47000000000E+01 0. -1.
<mgrwt>
<rscale>  0 0.10004855E+04</rscale>
<asrwt>0</asrwt>
<pdfrwt beam="1">  1        1 0.22131973E-01 0.10004855E+04</pdfrwt>
<pdfrwt beam="2">  1       -1 0.26761768E+00 0.10004855E+04</pdfrwt>
<totfact> 0.86479662E+00</totfact>
</mgrwt>
</event>
<event>
 9    1  0.4246427E-036  0.9997329E+03  0.7818608E-02  0.8681292E-01
          1   -1    0    0  501    0  0.00000000000E+00  0.00000000000E+00  0.18268568126E+04  0.18268568126E+04  0.00000000000E+00 0.  1.
         -1   -1    0    0    0  501 -0.00000000000E+00 -0.00000000000E+00 -0.13677397173E+03  0.13677397173E+03  0.00000000000E+00 0.  1.
         36    2    1    2    0    0  0.71054273576E-14  0.28421709430E-13  0.16900828408E+04  0.19636307843E+04  0.99973288840E+03 0.  0.
         25    2    3    3    0    0  0.47276820862E+02  0.12981963960E+03  0.26572182224E+03  0.32437282939E+03  0.12458494698E+03 0.  0.
         35    2    3    3    0    0 -0.47276820862E+02 -0.12981963960E+03  0.14243610186E+04  0.16392579549E+04  0.79954618055E+03 0.  0.
         22    1    5    5    0    0  0.25462627834E+03  0.86253800735E+02  0.14159593127E+03  0.30384809941E+03  0.00000000000E+00 0.  1.
         22    1    5    5    0    0 -0.30190309920E+03 -0.21607344033E+03  0.12827650873E+04  0.13354098555E+04  0.00000000000E+00 0.  1.
          5    1    4    4  502    0  0.65631635169E+02  0.14484558966E+03  0.24695558676E+03  0.29376335410E+03  0.47000000000E+01 0.  1.
         -5    1    4    4    0  502 -0.18354814306E+02 -0.15025950060E+02  0.18766235479E+02  0.30609475289E+02  0.47000000000E+01 0.  1.
<mgrwt>
<rscale>  0 0.99973289E+03</rscale>
<asrwt>0</asrwt>
<pdfrwt beam="1">  1        1 0.28105488E+00 0.99973289E+03</pdfrwt>
<pdfrwt beam="2">  1       -1 0.21042151E-01 0.99973289E+03</pdfrwt>
<totfact> 0.77444534E+01</totfact>
</mgrwt>
</event>
<event>
 9    1  0.4246427E-036  0.9985219E+03  0.7818608E-02  0.8682447E-01
         -2   -1    0    0    0  501 -0.00000000000E+00  0.00000000000E+00  0.20469880204E+03  0.20469880204E+03  0.00000000000E+00 0.  1.
          2   -1    0    0  501    0  0.00000000000E+00 -0.00000000000E+00 -0.12176989462E+04  0.12176989462E+04  0.00000000000E+00 0.  1.
         36    2    1    2    0    0  0.00000000000E+00  0.28421709430E-13 -0.10130001442E+04  0.14223977482E+04  0.99852193874E+03 0.  0.
         25    2    3    3    0    0 -0.66193933156E+02 -0.80478205496E+02 -0.31593000824E+03  0.35595722666E+03  0.12663095496E+03 0.  0.
         35    2    3    3    0    0  0.66193933156E+02  0.80478205496E+02 -0.69707013591E+03  0.10664405216E+04  0.80033132723E+03 0.  0.
         22    1    5    5    0    0 -0.16756989404E+03  0.36351277223E+03 -0.19708100533E+03  0.44616379013E+03  0.00000000000E+00 0.  1.
         22    1    5    5    0    0  0.23376382719E+03 -0.28303456674E+03 -0.49998913058E+03  0.62027673145E+03  0.00000000000E+00 0.  1.
          5    1    4    4  502    0  0.26660983289E+02 -0.45452048538E+02 -0.53012800462E+02  0.74894217127E+02  0.47000000000E+01 0. -1.
         -5    1    4    4    0  502 -0.92854916445E+02 -0.35026156958E+02 -0.26291720778E+03  0.28106300953E+03  0.47000000000E+01 0. -1.
<mgrwt>
<rscale>  0 0.99852194E+03</rscale>
<asrwt>0</asrwt>
<pdfrwt beam="1">  1        2 0.18733830E+00 0.99852194E+03</pdfrwt>
<pdfrwt beam="2">  1       -2 0.31492123E-01 0.99852194E+03</pdfrwt>
<totfact> 0.20830115E+02</totfact>
</mgrwt>
</event>
<event>
 9    1  0.4246427E-036  0.9999567E+03  0.7818608E-02  0.8681079E-01
         -2   -1    0    0    0  501 -0.00000000000E+00  0.00000000000E+00  0.16258653472E+03  0.16258653472E+03  0.00000000000E+00 0.  1.
          2   -1    0    0  501    0  0.00000000000E+00 -0.00000000000E+00 -0.15375097016E+04  0.15375097016E+04  0.00000000000E+00 0.  1.
         36    2    1    2    0    0  0.00000000000E+00  0.00000000000E+00 -0.13749231669E+04  0.17000962363E+04  0.99995674802E+03 0.  0.
         25    2    3    3    0    0 -0.10941454155E+02  0.41733134700E+02 -0.30534827730E+02  0.13534246993E+03  0.12459469696E+03 0.  0.
         35    2    3    3    0    0  0.10941454155E+02 -0.41733134700E+02 -0.13443883391E+04  0.15647537664E+04  0.79950795683E+03 0.  0.
         22    1    5    5    0    0  0.32881011008E+02  0.64116188597E+02  0.96156495905E+02  0.12015872099E+03  0.00000000000E+00 0. -1.
         22    1    5    5    0    0 -0.21939556853E+02 -0.10584932330E+03 -0.14405448350E+04  0.14445950454E+04  0.00000000000E+00 0. -1.
          5    1    4    4  502    0  0.20750192031E+02 -0.21439958702E+02  0.29700396247E+02  0.42360899845E+02  0.47000000000E+01 0. -1.
         -5    1    4    4    0  502 -0.31691646186E+02  0.63173093402E+02 -0.60235223976E+02  0.92981570084E+02  0.47000000000E+01 0. -1.
<mgrwt>
<rscale>  0 0.99995675E+03</rscale>
<asrwt>0</asrwt>
<pdfrwt beam="1">  1        2 0.23653995E+00 0.99995675E+03</pdfrwt>
<pdfrwt beam="2">  1       -2 0.25013313E-01 0.99995675E+03</pdfrwt>
<totfact> 0.20678018E+02</totfact>
</mgrwt>
</event>
<event>
 9    1  0.4246427E-036  0.1000299E+04  0.7818608E-02  0.8680754E-01
          1   -1    0    0  501    0  0.00000000000E+00  0.00000000000E+00  0.11533235278E+04  0.11533235278E+04  0.00000000000E+00 0. -1.
         -1   -1    0    0    0  501 -0.00000000000E+00 -0.00000000000E+00 -0.21689438180E+03  0.21689438180E+03  0.00000000000E+00 0. -1.
         36    2    1    2    0    0 -0.28421709430E-13  0.00000000000E+00  0.93642914601E+03  0.13702179096E+04  0.10002987425E+04 0.  0.
         25    2    3    3    0    0  0.11447227295E+03  0.79136207212E+02  0.16342423437E+03  0.24783719029E+03  0.12389250157E+03 0.  0.
         35    2    3    3    0    0 -0.11447227295E+03 -0.79136207212E+02  0.77300491164E+03  0.11223807193E+04  0.80177019471E+03 0.  0.
         22    1    5    5    0    0  0.28355361235E+03 -0.19707557174E+02  0.41184848950E+02  0.28720590291E+03  0.00000000000E+00 0. -1.
         22    1    5    5    0    0 -0.39802588530E+03 -0.59428650038E+02  0.73182006269E+03  0.83517481641E+03  0.00000000000E+00 0. -1.
          5    1    4    4  502    0  0.94631339249E+01  0.50716027834E+02  0.41732979611E+00  0.51806665084E+02  0.47000000000E+01 0.  1.
         -5    1    4    4    0  502  0.10500913902E+03  0.28420179378E+02  0.16300690457E+03  0.19603052521E+03  0.47000000000E+01 0.  1.
<mgrwt>
<rscale>  0 0.10002987E+04</rscale>
<asrwt>0</asrwt>
<pdfrwt beam="1">  1        1 0.17743438E+00 0.10002987E+04</pdfrwt>
<pdfrwt beam="2">  1       -1 0.33368367E-01 0.10002987E+04</pdfrwt>
<totfact> 0.10814479E+02</totfact>
</mgrwt>
</event>
<event>
 9    1  0.4246427E-036  0.1000171E+04  0.7818608E-02  0.8680875E-01
          2   -1    0    0  501    0  0.00000000000E+00  0.00000000000E+00  0.14261205467E+04  0.14261205467E+04  0.00000000000E+00 0. -1.
         -2   -1    0    0    0  501 -0.00000000000E+00 -0.00000000000E+00 -0.17536057591E+03  0.17536057591E+03  0.00000000000E+00 0. -1.
         36    2    1    2    0    0  0.00000000000E+00  0.14210854715E-13  0.12507599708E+04  0.16014811226E+04  0.10001706262E+04 0.  0.
         25    2    3    3    0    0  0.22615401329E+02  0.86810447169E+02  0.73195121787E+02  0.17472204596E+03  0.13085395437E+03 0.  0.
         35    2    3    3    0    0 -0.22615401329E+02 -0.86810447169E+02  0.11775648490E+04  0.14267590766E+04  0.80058414866E+03 0.  0.
         22    1    5    5    0    0  0.83889082734E+02  0.33632557958E+03  0.35820512224E+03  0.49846081418E+03  0.00000000000E+00 0.  1.
         22    1    5    5    0    0 -0.10650448406E+03 -0.42313602675E+03  0.81935972673E+03  0.92829826244E+03  0.00000000000E+00 0.  1.
          5    1    4    4  502    0 -0.40255697392E+02  0.23490045265E+02  0.71343126699E+02  0.85347730645E+02  0.47000000000E+01 0. -1.
         -5    1    4    4    0  502  0.62871098721E+02  0.63320401904E+02  0.18519950887E+01  0.89374315312E+02  0.47000000000E+01 0. -1.
<mgrwt>
<rscale>  0 0.10001706E+04</rscale>
<asrwt>0</asrwt>
<pdfrwt beam="1">  1        2 0.21940315E+00 0.10001706E+04</pdfrwt>
<pdfrwt beam="2">  1       -2 0.26978551E-01 0.10001706E+04</pdfrwt>
<totfact> 0.20897555E+02</totfact>
</mgrwt>
</event>
<event>
 9    1  0.4246427E-036  0.1000782E+04  0.7818608E-02  0.8680294E-01
          1   -1    0    0  501    0  0.00000000000E+00  0.00000000000E+00  0.11773467176E+04  0.11773467176E+04  0.00000000000E+00 0.  1.
         -1   -1    0    0    0  501 -0.00000000000E+00 -0.00000000000E+00 -0.21267398572E+03  0.21267398572E+03  0.00000000000E+00 0.  1.
         36    2    1    2    0    0  0.00000000000E+00  0.28421709430E-13  0.96467273191E+03  0.13900207034E+04  0.10007817325E+04 0.  0.
         25    2    3    3    0    0  0.97370420324E+02 -0.10190537036E+03  0.14711246838E+03  0.23746737310E+03  0.12199578547E+03 0.  0.
         35    2    3    3    0    0 -0.97370420324E+02  0.10190537036E+03  0.81756026353E+03  0.11525533303E+04  0.80006792918E+03 0.  0.
         22    1    5    5    0    0 -0.20437036531E+03 -0.31832829110E+03  0.40029422966E+03  0.55075912833E+03  0.00000000000E+00 0. -1.
         22    1    5    5    0    0  0.10699994498E+03  0.42023366146E+03  0.41726603387E+03  0.60179420192E+03  0.00000000000E+00 0. -1.
          5    1    4    4  502    0  0.11208288149E+03 -0.56684768907E+02  0.14164468247E+03  0.18937011755E+03  0.47000000000E+01 0. -1.
         -5    1    4    4    0  502 -0.14712461166E+02 -0.45220601451E+02  0.54677859158E+01  0.48097255556E+02  0.47000000000E+01 0. -1.
<mgrwt>
<rscale>  0 0.10007817E+04</rscale>
<asrwt>0</asrwt>
<pdfrwt beam="1">  1        1 0.18113026E+00 0.10007817E+04</pdfrwt>
<pdfrwt beam="2">  1       -1 0.32719075E-01 0.10007817E+04</pdfrwt>
<totfact> 0.10731446E+02</totfact>
</mgrwt>
</event>
<event>
 9    1  0.4246427E-036  0.1001152E+04  0.7818608E-02  0.8679942E-01
         -2   -1    0    0    0  501 -0.00000000000E+00  0.00000000000E+00  0.11497334029E+04  0.11497334029E+04  0.00000000000E+00 0. -1.
          2   -1    0    0  501    0  0.00000000000E+00 -0.00000000000E+00 -0.21794277591E+03  0.21794277591E+03  0.00000000000E+00 0. -1.
         36    2    1    2    0    0 -0.71054273576E-14 -0.28421709430E-13  0.93179062703E+03  0.13676761789E+04  0.10011515158E+04 0.  0.
         25    2    3    3    0    0  0.14478453548E+01  0.14004056777E+02 -0.17025760482E+02  0.12671129670E+03  0.12477045456E+03 0.  0.
         35    2    3    3    0    0 -0.14478453548E+01 -0.14004056777E+02  0.94881638752E+03  0.12409648822E+04  0.79971438130E+03 0.  0.
         22    1    5    5    0    0  0.25528592448E+03  0.25428303888E+03  0.21777485065E+03  0.42101858947E+03  0.00000000000E+00 0.  1.
         22    1    5    5    0    0 -0.25673376984E+03 -0.26828709566E+03  0.73104153686E+03  0.81994629269E+03  0.00000000000E+00 0.  1.
          5    1    4    4  502    0 -0.39643249728E+02 -0.38401906034E+02  0.68391014552E+01  0.55813591039E+02  0.47000000000E+01 0.  1.
         -5    1    4    4    0  502  0.41091095082E+02  0.52405962811E+02 -0.23864861938E+02  0.70897705665E+02  0.47000000000E+01 0.  1.
<mgrwt>
<rscale>  0 0.10011515E+04</rscale>
<asrwt>0</asrwt>
<pdfrwt beam="1">  1        2 0.33529659E-01 0.10011515E+04</pdfrwt>
<pdfrwt beam="2">  1       -2 0.17688206E+00 0.10011515E+04</pdfrwt>
<totfact> 0.33104426E+01</totfact>
</mgrwt>
</event>
<event>
 9    1  0.4246427E-036  0.1000535E+04  0.7818608E-02  0.8680529E-01
          2   -1    0    0  501    0  0.00000000000E+00  0.00000000000E+00  0.11032298631E+04  0.11032298631E+04  0.00000000000E+00 0. -1.
         -2   -1    0    0    0  501 -0.00000000000E+00 -0.00000000000E+00 -0.22684983017E+03  0.22684983017E+03  0.00000000000E+00 0. -1.
         36    2    1    2    0    0  0.00000000000E+00  0.00000000000E+00  0.87638003291E+03  0.13300796932E+04  0.10005348711E+04 0.  0.
         25    2    3    3    0    0 -0.11031919039E+03 -0.68290862221E+02  0.91199701288E+02  0.20172994227E+03  0.12467404887E+03 0.  0.
         35    2    3    3    0    0  0.11031919039E+03  0.68290862221E+02  0.78518033162E+03  0.11283497510E+04  0.79989439410E+03 0.  0.
         22    1    5    5    0    0 -0.20091064311E+03 -0.20470629752E+03  0.61904203661E+03  0.68226299757E+03  0.00000000000E+00 0. -1.
         22    1    5    5    0    0  0.31122983350E+03  0.27299715974E+03  0.16613829501E+03  0.44608675340E+03  0.00000000000E+00 0. -1.
          5    1    4    4  502    0 -0.13130381274E+03 -0.32027437058E+02  0.54393758329E+02  0.14576425799E+03  0.47000000000E+01 0.  1.
         -5    1    4    4    0  502  0.20984622345E+02 -0.36263425163E+02  0.36805942959E+02  0.55965684277E+02  0.47000000000E+01 0.  1.
<mgrwt>
<rscale>  0 0.10005349E+04</rscale>
<asrwt>0</asrwt>
<pdfrwt beam="1">  1        2 0.16972767E+00 0.10005349E+04</pdfrwt>
<pdfrwt beam="2">  1       -2 0.34899975E-01 0.10005349E+04</pdfrwt>
<totfact> 0.20158375E+02</totfact>
</mgrwt>
</event>
<event>
 9    1  0.4246427E-036  0.9996548E+03  0.7818608E-02  0.8681367E-01
         -2   -1    0    0    0  501 -0.00000000000E+00  0.00000000000E+00  0.12334562654E+03  0.12334562654E+03  0.00000000000E+00 0.  1.
          2   -1    0    0  501    0  0.00000000000E+00 -0.00000000000E+00 -0.20254261176E+04  0.20254261176E+04  0.00000000000E+00 0.  1.
         36    2    1    2    0    0 -0.15987211555E-13  0.00000000000E+00 -0.19020804911E+04  0.21487717442E+04  0.99965484740E+03 0.  0.
         25    2    3    3    0    0 -0.11627634584E+02  0.13884780985E+03 -0.39498352261E+03  0.43719939407E+03  0.12536909849E+03 0.  0.
         35    2    3    3    0    0  0.11627634584E+02 -0.13884780985E+03 -0.15070969685E+04  0.17115723501E+04  0.79920255318E+03 0.  0.
         22    1    5    5    0    0 -0.15998076002E+03  0.18416771655E+03 -0.12266198633E+04  0.12506429868E+04  0.00000000000E+00 0. -1.
         22    1    5    5    0    0  0.17160839461E+03 -0.32301552641E+03 -0.28047710515E+03  0.46092936326E+03  0.00000000000E+00 0. -1.
          5    1    4    4  502    0 -0.21868936517E+02  0.27550967384E+02 -0.10851199949E+02  0.37109900681E+02  0.47000000000E+01 0.  1.
         -5    1    4    4    0  502  0.10241301933E+02  0.11129684247E+03 -0.38413232266E+03  0.40008949339E+03  0.47000000000E+01 0.  1.
<mgrwt>
<rscale>  0 0.99965485E+03</rscale>
<asrwt>0</asrwt>
<pdfrwt beam="1">  1        2 0.31160401E+00 0.99965485E+03</pdfrwt>
<pdfrwt beam="2">  1       -2 0.18976250E-01 0.99965485E+03</pdfrwt>
<totfact> 0.17750922E+02</totfact>
</mgrwt>
</event>
<event>
 9    1  0.4246427E-036  0.9999400E+03  0.7818608E-02  0.8681095E-01
          2   -1    0    0  501    0  0.00000000000E+00  0.00000000000E+00  0.37044832090E+03  0.37044832090E+03  0.00000000000E+00 0.  1.
         -2   -1    0    0    0  501 -0.00000000000E+00 -0.00000000000E+00 -0.67477699759E+03  0.67477699759E+03  0.00000000000E+00 0.  1.
         36    2    1    2    0    0 -0.71054273576E-14  0.14210854715E-13 -0.30432867669E+03  0.10452253185E+04  0.99994000968E+03 0.  0.
         25    2    3    3    0    0  0.33142531828E+02  0.52635752617E+02 -0.18894167632E+03  0.23490618918E+03  0.12495203397E+03 0.  0.
         35    2    3    3    0    0 -0.33142531828E+02 -0.52635752617E+02 -0.11538700037E+03  0.81031912931E+03  0.79964616025E+03 0.  0.
         22    1    5    5    0    0  0.14648054488E+03 -0.39105959743E+03 -0.36867850922E+02  0.41921760125E+03  0.00000000000E+00 0.  1.
         22    1    5    5    0    0 -0.17962307671E+03  0.33842384481E+03 -0.78519149445E+02  0.39110152806E+03  0.00000000000E+00 0.  1.
          5    1    4    4  502    0  0.74689918832E+02  0.22624410729E+02 -0.68567509993E+02  0.10399058305E+03  0.47000000000E+01 0.  1.
         -5    1    4    4    0  502 -0.41547387004E+02  0.30011341888E+02 -0.12037416633E+03  0.13091560613E+03  0.47000000000E+01 0.  1.
<mgrwt>
<rscale>  0 0.99994001E+03</rscale>
<asrwt>0</asrwt>
<pdfrwt beam="1">  1        2 0.56992050E-01 0.99994001E+03</pdfrwt>
<pdfrwt beam="2">  1       -2 0.10381184E+00 0.99994001E+03</pdfrwt>
<totfact> 0.77590428E+01</totfact>
</mgrwt>
</event>
<event>
 9    1  0.4246427E-036  0.9999657E+03  0.7818608E-02  0.8681071E-01
         -2   -1    0    0    0  501 -0.00000000000E+00  0.00000000000E+00  0.13319044635E+03  0.13319044635E+03  0.00000000000E+00 0. -1.
          2   -1    0    0  501    0  0.00000000000E+00 -0.00000000000E+00 -0.18768826464E+04  0.18768826464E+04  0.00000000000E+00 0. -1.
         36    2    1    2    0    0 -0.56843418861E-13  0.00000000000E+00 -0.17436922001E+04  0.20100730928E+04  0.99996567425E+03 0.  0.
         25    2    3    3    0    0 -0.12910003861E+03  0.24610054795E+02 -0.42123179719E+03  0.45875447936E+03  0.12548693400E+03 0.  0.
         35    2    3    3    0    0  0.12910003861E+03 -0.24610054795E+02 -0.13224604029E+04  0.15513186134E+04  0.80025961309E+03 0.  0.
         22    1    5    5    0    0  0.42118958092E+03 -0.28135213150E+01 -0.39033102580E+03  0.57425333144E+03  0.00000000000E+00 0.  1.
         22    1    5    5    0    0 -0.29208954230E+03 -0.21796533480E+02 -0.93212937707E+03  0.97706528195E+03  0.00000000000E+00 0.  1.
          5    1    4    4  502    0  0.77028113806E+01  0.81409141308E+01  0.31369413892E+01  0.12551421725E+02  0.47000000000E+01 0. -1.
         -5    1    4    4    0  502 -0.13680284999E+03  0.16469140664E+02 -0.42436873858E+03  0.44620305764E+03  0.47000000000E+01 0. -1.
<mgrwt>
<rscale>  0 0.99996567E+03</rscale>
<asrwt>0</asrwt>
<pdfrwt beam="1">  1        2 0.28875117E+00 0.99996567E+03</pdfrwt>
<pdfrwt beam="2">  1       -2 0.20490838E-01 0.99996567E+03</pdfrwt>
<totfact> 0.18880079E+02</totfact>
</mgrwt>
</event>
<event>
 9    1  0.4246427E-036  0.9990242E+03  0.7818608E-02  0.8681968E-01
         -2   -1    0    0    0  501 -0.00000000000E+00  0.00000000000E+00  0.19365084076E+03  0.19365084076E+03  0.00000000000E+00 0.  1.
          2   -1    0    0  501    0  0.00000000000E+00 -0.00000000000E+00 -0.12884649842E+04  0.12884649842E+04  0.00000000000E+00 0.  1.
         36    2    1    2    0    0  0.00000000000E+00  0.28421709430E-13 -0.10948141435E+04  0.14821158250E+04  0.99902417886E+03 0.  0.
         25    2    3    3    0    0 -0.73024307613E+02  0.12042666515E+03 -0.20798208513E+03  0.28084002679E+03  0.12561624787E+03 0.  0.
         35    2    3    3    0    0  0.73024307613E+02 -0.12042666515E+03 -0.88683205832E+03  0.12012757982E+04  0.79797074663E+03 0.  0.
         22    1    5    5    0    0  0.13244354314E+03  0.14531122843E+03  0.68260047423E+02  0.20812515298E+03  0.00000000000E+00 0.  1.
         22    1    5    5    0    0 -0.59419235528E+02 -0.26573789358E+03 -0.95509210574E+03  0.99315064521E+03  0.00000000000E+00 0.  1.
          5    1    4    4  502    0  0.55800741107E+00 -0.38392124628E+01  0.14400696476E+02  0.15637166738E+02  0.47000000000E+01 0. -1.
         -5    1    4    4    0  502 -0.73582315024E+02  0.12426587761E+03 -0.22238278161E+03  0.26520286005E+03  0.47000000000E+01 0. -1.
<mgrwt>
<rscale>  0 0.99902418E+03</rscale>
<asrwt>0</asrwt>
<pdfrwt beam="1">  1        2 0.19822539E+00 0.99902418E+03</pdfrwt>
<pdfrwt beam="2">  1       -2 0.29792436E-01 0.99902418E+03</pdfrwt>
<totfact> 0.20958944E+02</totfact>
</mgrwt>
</event>
<event>
 9    1  0.4246427E-036  0.9998373E+03  0.7818608E-02  0.8681193E-01
         -1   -1    0    0    0  501 -0.00000000000E+00  0.00000000000E+00  0.64223892868E+03  0.64223892868E+03  0.00000000000E+00 0.  1.
          1   -1    0    0  501    0  0.00000000000E+00 -0.00000000000E+00 -0.38913658523E+03  0.38913658523E+03  0.00000000000E+00 0.  1.
         36    2    1    2    0    0  0.00000000000E+00 -0.17763568394E-13  0.25310234345E+03  0.10313755139E+04  0.99983731398E+03 0.  0.
         25    2    3    3    0    0 -0.89677708900E+02  0.13091350574E+02 -0.62146365746E+02  0.16675181264E+03  0.12542137501E+03 0.  0.
         35    2    3    3    0    0  0.89677708900E+02 -0.13091350574E+02  0.31524870920E+03  0.86462370127E+03  0.79998682565E+03 0.  0.
         22    1    5    5    0    0  0.30209256132E+03  0.29758834189E+03  0.12034498554E+03  0.44079661113E+03  0.00000000000E+00 0. -1.
         22    1    5    5    0    0 -0.21241485242E+03 -0.31067969247E+03  0.19490372366E+03  0.42382709014E+03  0.00000000000E+00 0. -1.
          5    1    4    4  502    0 -0.99645314395E+02  0.35873675110E+02 -0.82455900658E+02  0.13430254949E+03  0.47000000000E+01 0.  1.
         -5    1    4    4    0  502  0.99676054943E+01 -0.22782324535E+02  0.20309534912E+02  0.32449263148E+02  0.47000000000E+01 0.  1.
<mgrwt>
<rscale>  0 0.99983731E+03</rscale>
<asrwt>0</asrwt>
<pdfrwt beam="1">  1        1 0.59867167E-01 0.99983731E+03</pdfrwt>
<pdfrwt beam="2">  1       -1 0.98805989E-01 0.99983731E+03</pdfrwt>
<totfact> 0.73005140E+01</totfact>
</mgrwt>
</event>
<event>
 9    1  0.4246427E-036  0.1000529E+04  0.7818608E-02  0.8680534E-01
          2   -1    0    0  501    0  0.00000000000E+00  0.00000000000E+00  0.37100258682E+03  0.37100258682E+03  0.00000000000E+00 0.  1.
         -2   -1    0    0    0  501 -0.00000000000E+00 -0.00000000000E+00 -0.67456298606E+03  0.67456298606E+03  0.00000000000E+00 0.  1.
         36    2    1    2    0    0 -0.28421709430E-13  0.00000000000E+00 -0.30356039924E+03  0.10455655729E+04  0.10005290856E+04 0.  0.
         25    2    3    3    0    0  0.85954031682E+02  0.22761405764E+02 -0.17111024497E+03  0.22987651593E+03  0.12513320697E+03 0.  0.
         35    2    3    3    0    0 -0.85954031682E+02 -0.22761405764E+02 -0.13245015428E+03  0.81568905695E+03  0.79993713322E+03 0.  0.
         22    1    5    5    0    0 -0.24259330876E+03  0.29535108920E+02  0.27985582778E+03  0.37154154607E+03  0.00000000000E+00 0.  1.
         22    1    5    5    0    0  0.15663927708E+03 -0.52296514685E+02 -0.41230598206E+03  0.44414751087E+03  0.00000000000E+00 0.  1.
          5    1    4    4  502    0  0.10568119156E+03 -0.13807443780E+02 -0.94134610120E+02  0.14227640203E+03  0.47000000000E+01 0.  1.
         -5    1    4    4    0  502 -0.19727159878E+02  0.36568849544E+02 -0.76975634846E+02  0.87600113892E+02  0.47000000000E+01 0.  1.
<mgrwt>
<rscale>  0 0.10005291E+04</rscale>
<asrwt>0</asrwt>
<pdfrwt beam="1">  1        2 0.57077322E-01 0.10005291E+04</pdfrwt>
<pdfrwt beam="2">  1       -2 0.10377892E+00 0.10005291E+04</pdfrwt>
<totfact> 0.77517891E+01</totfact>
</mgrwt>
</event>
<event>
 9    1  0.4246427E-036  0.9931287E+03  0.7818608E-02  0.8687609E-01
         -2   -1    0    0    0  501 -0.00000000000E+00  0.00000000000E+00  0.10874501413E+03  0.10874501413E+03  0.00000000000E+00 0.  1.
          2   -1    0    0  501    0  0.00000000000E+00 -0.00000000000E+00 -0.22674710715E+04  0.22674710715E+04  0.00000000000E+00 0.  1.
         36    2    1    2    0    0  0.00000000000E+00 -0.42632564146E-13 -0.21587260573E+04  0.23762160856E+04  0.99312874031E+03 0.  0.
         25    2    3    3    0    0 -0.12140227590E+03  0.45861804142E+02 -0.35502290153E+03  0.39827197482E+03  0.12544914365E+03 0.  0.
         35    2    3    3    0    0  0.12140227590E+03 -0.45861804142E+02 -0.18037031558E+04  0.19779441108E+04  0.80129645789E+03 0.  0.
         22    1    5    5    0    0 -0.15031117381E+03 -0.28204698667E+03 -0.14043974598E+04  0.14403041959E+04  0.00000000000E+00 0.  1.
         22    1    5    5    0    0  0.27171344972E+03  0.23618518253E+03 -0.39930569604E+03  0.53763991490E+03  0.00000000000E+00 0.  1.
          5    1    4    4  502    0 -0.83206928466E+01  0.19253925044E+02  0.31288562801E+01  0.21721586053E+02  0.47000000000E+01 0. -1.
         -5    1    4    4    0  502 -0.11308158306E+03  0.26607879098E+02 -0.35815175781E+03  0.37655038877E+03  0.47000000000E+01 0. -1.
<mgrwt>
<rscale>  0 0.99312874E+03</rscale>
<asrwt>0</asrwt>
<pdfrwt beam="1">  1        2 0.34884169E+00 0.99312874E+03</pdfrwt>
<pdfrwt beam="2">  1       -2 0.16730003E-01 0.99312874E+03</pdfrwt>
<totfact> 0.15950375E+02</totfact>
</mgrwt>
</event>
<event>
 9    1  0.4246427E-036  0.1000232E+04  0.7818608E-02  0.8680817E-01
         -2   -1    0    0    0  501 -0.00000000000E+00  0.00000000000E+00  0.13180063551E+03  0.13180063551E+03  0.00000000000E+00 0.  1.
          2   -1    0    0  501    0  0.00000000000E+00 -0.00000000000E+00 -0.18976835442E+04  0.18976835442E+04  0.00000000000E+00 0.  1.
         36    2    1    2    0    0  0.42632564146E-13  0.00000000000E+00 -0.17658829087E+04  0.20294841797E+04  0.10002317674E+04 0.  0.
         25    2    3    3    0    0 -0.26205107516E+02  0.98896886527E+01 -0.61088306167E+03  0.62425256676E+03  0.12541386874E+03 0.  0.
         35    2    3    3    0    0  0.26205107516E+02 -0.98896886527E+01 -0.11549998470E+04  0.14052316129E+04  0.79991669931E+03 0.  0.
         22    1    5    5    0    0  0.40980980818E+03 -0.54811203062E+02 -0.62694898255E+03  0.75100823803E+03  0.00000000000E+00 0. -1.
         22    1    5    5    0    0 -0.38360470067E+03  0.44921514409E+02 -0.52805086446E+03  0.65422337492E+03  0.00000000000E+00 0. -1.
          5    1    4    4  502    0  0.34183127740E+02  0.43583037116E+02 -0.34671909062E+03  0.35114695663E+03  0.47000000000E+01 0. -1.
         -5    1    4    4    0  502 -0.60388235256E+02 -0.33693348463E+02 -0.26416397104E+03  0.27310561013E+03  0.47000000000E+01 0. -1.
<mgrwt>
<rscale>  0 0.10002318E+04</rscale>
<asrwt>0</asrwt>
<pdfrwt beam="1">  1        2 0.29195131E+00 0.10002318E+04</pdfrwt>
<pdfrwt beam="2">  1       -2 0.20277021E-01 0.10002318E+04</pdfrwt>
<totfact> 0.18712055E+02</totfact>
</mgrwt>
</event>
<event>
 9    1  0.4246427E-036  0.1000278E+04  0.7818608E-02  0.8680773E-01
          1   -1    0    0  501    0  0.00000000000E+00  0.00000000000E+00  0.22529643427E+04  0.22529643427E+04  0.00000000000E+00 0. -1.
         -1   -1    0    0    0  501 -0.00000000000E+00 -0.00000000000E+00 -0.11102664559E+03  0.11102664559E+03  0.00000000000E+00 0. -1.
         36    2    1    2    0    0  0.00000000000E+00 -0.35527136788E-13  0.21419376971E+04  0.23639909883E+04  0.10002781085E+04 0.  0.
         25    2    3    3    0    0 -0.90866486767E+02 -0.18884661675E+02  0.65768140078E+03  0.67586515811E+03  0.12504214549E+03 0.  0.
         35    2    3    3    0    0  0.90866486767E+02  0.18884661675E+02  0.14842562964E+04  0.16881258302E+04  0.79883585075E+03 0.  0.
         22    1    5    5    0    0 -0.14621510680E+03  0.35928040631E+03  0.76872178139E+03  0.86104264993E+03  0.00000000000E+00 0. -1.
         22    1    5    5    0    0  0.23708159357E+03 -0.34039574464E+03  0.71553451496E+03  0.82708318026E+03  0.00000000000E+00 0. -1.
          5    1    4    4  502    0  0.23758700761E+02 -0.25365894441E+02  0.24455570588E+03  0.24705766076E+03  0.47000000000E+01 0.  1.
         -5    1    4    4    0  502 -0.11462518753E+03  0.64812327650E+01  0.41312569491E+03  0.42880749735E+03  0.47000000000E+01 0.  1.
<mgrwt>
<rscale>  0 0.10002781E+04</rscale>
<asrwt>0</asrwt>
<pdfrwt beam="1">  1        1 0.34660987E+00 0.10002781E+04</pdfrwt>
<pdfrwt beam="2">  1       -1 0.17081024E-01 0.10002781E+04</pdfrwt>
<totfact> 0.54840165E+01</totfact>
</mgrwt>
</event>
<event>
 9    1  0.4246427E-036  0.1000437E+04  0.7818608E-02  0.8680622E-01
          1   -1    0    0  501    0  0.00000000000E+00  0.00000000000E+00  0.10776211580E+04  0.10776211580E+04  0.00000000000E+00 0. -1.
         -1   -1    0    0    0  501 -0.00000000000E+00 -0.00000000000E+00 -0.23219540030E+03  0.23219540030E+03  0.00000000000E+00 0. -1.
         36    2    1    2    0    0  0.00000000000E+00  0.28421709430E-13  0.84542575769E+03  0.13098165583E+04  0.10004372567E+04 0.  0.
         25    2    3    3    0    0  0.37217866436E+02 -0.18703815360E+02  0.33487014838E+03  0.35983418923E+03  0.12493048135E+03 0.  0.
         35    2    3    3    0    0 -0.37217866436E+02  0.18703815360E+02  0.51055560931E+03  0.94998236906E+03  0.80004029213E+03 0.  0.
         22    1    5    5    0    0 -0.97644136079E+02  0.40024716237E+03  0.30337031444E+03  0.51163044865E+03  0.00000000000E+00 0. -1.
         22    1    5    5    0    0  0.60426269643E+02 -0.38154334701E+03  0.20718529487E+03  0.43835192041E+03  0.00000000000E+00 0. -1.
          5    1    4    4  502    0 -0.60815704288E+01  0.49612309794E+02  0.14313953854E+03  0.15168844477E+03  0.47000000000E+01 0.  1.
         -5    1    4    4    0  502  0.43299436865E+02 -0.68316125154E+02  0.19173060984E+03  0.20814574446E+03  0.47000000000E+01 0.  1.
<mgrwt>
<rscale>  0 0.10004373E+04</rscale>
<asrwt>0</asrwt>
<pdfrwt beam="1">  1        1 0.16578787E+00 0.10004373E+04</pdfrwt>
<pdfrwt beam="2">  1       -1 0.35722370E-01 0.10004373E+04</pdfrwt>
<totfact> 0.10971246E+02</totfact>
</mgrwt>
</event>
<event>
 9    1  0.4246427E-036  0.9977525E+03  0.7818608E-02  0.8683181E-01
          2   -1    0    0  501    0  0.00000000000E+00  0.00000000000E+00  0.40363152394E+03  0.40363152394E+03  0.00000000000E+00 0.  1.
         -2   -1    0    0    0  501 -0.00000000000E+00 -0.00000000000E+00 -0.61659582112E+03  0.61659582112E+03  0.00000000000E+00 0.  1.
         36    2    1    2    0    0  0.14210854715E-13 -0.71054273576E-14 -0.21296429718E+03  0.10202273451E+04  0.99775249623E+03 0.  0.
         25    2    3    3    0    0 -0.12076710020E+03 -0.46140206575E+02  0.63051493558E+01  0.18069951548E+03  0.12609103392E+03 0.  0.
         35    2    3    3    0    0  0.12076710020E+03  0.46140206575E+02 -0.21926944653E+03  0.83952782957E+03  0.80000892201E+03 0.  0.
         22    1    5    5    0    0 -0.33934774039E+03  0.76494192287E+02 -0.11884889933E+03  0.36760483026E+03  0.00000000000E+00 0.  1.
         22    1    5    5    0    0  0.46011484059E+03 -0.30353985711E+02 -0.10042054720E+03  0.47192299931E+03  0.00000000000E+00 0.  1.
          5    1    4    4  502    0  0.34064136131E+01 -0.83490660006E+01  0.44237992696E+02  0.45391635293E+02  0.47000000000E+01 0. -1.
         -5    1    4    4    0  502 -0.12417351381E+03 -0.37791140575E+02 -0.37932843340E+02  0.13530788019E+03  0.47000000000E+01 0. -1.
<mgrwt>
<rscale>  0 0.99775250E+03</rscale>
<asrwt>0</asrwt>
<pdfrwt beam="1">  1        2 0.62097157E-01 0.99775250E+03</pdfrwt>
<pdfrwt beam="2">  1       -2 0.94860896E-01 0.99775250E+03</pdfrwt>
<totfact> 0.87751498E+01</totfact>
</mgrwt>
</event>
<event>
 9    1  0.4246427E-036  0.1003247E+04  0.7818608E-02  0.8677952E-01
          2   -1    0    0  501    0  0.00000000000E+00  0.00000000000E+00  0.60266396485E+03  0.60266396485E+03  0.00000000000E+00 0.  1.
         -2   -1    0    0    0  501 -0.00000000000E+00 -0.00000000000E+00 -0.41752304461E+03  0.41752304461E+03  0.00000000000E+00 0.  1.
         36    2    1    2    0    0  0.14210854715E-13  0.00000000000E+00  0.18514092023E+03  0.10201870095E+04  0.10032469157E+04 0.  0.
         25    2    3    3    0    0 -0.16356038916E+01  0.42230105595E+02 -0.10390632846E+03  0.16783737822E+03  0.12484712016E+03 0.  0.
         35    2    3    3    0    0  0.16356038916E+01 -0.42230105595E+02  0.28904724870E+03  0.85234963125E+03  0.80072812170E+03 0.  0.
         22    1    5    5    0    0 -0.20393954138E+03 -0.35148485381E+03  0.46983415047E+02  0.40907258559E+03  0.00000000000E+00 0.  1.
         22    1    5    5    0    0  0.20557514527E+03  0.30925474821E+03  0.24206383365E+03  0.44327704566E+03  0.00000000000E+00 0.  1.
          5    1    4    4  502    0 -0.61905965841E+02  0.17451498599E+02 -0.66121579709E+02  0.92363719680E+02  0.47000000000E+01 0. -1.
         -5    1    4    4    0  502  0.60270361949E+02  0.24778606996E+02 -0.37784748755E+02  0.75473658535E+02  0.47000000000E+01 0. -1.
<mgrwt>
<rscale>  0 0.10032469E+04</rscale>
<asrwt>0</asrwt>
<pdfrwt beam="1">  1        2 0.92717533E-01 0.10032469E+04</pdfrwt>
<pdfrwt beam="2">  1       -2 0.64234315E-01 0.10032469E+04</pdfrwt>
<totfact> 0.13367897E+02</totfact>
</mgrwt>
</event>
<event>
 9    1  0.4246427E-036  0.9979970E+03  0.7818608E-02  0.8682948E-01
          2   -1    0    0  501    0  0.00000000000E+00  0.00000000000E+00  0.18811677804E+04  0.18811677804E+04  0.00000000000E+00 0. -1.
         -2   -1    0    0    0  501 -0.00000000000E+00 -0.00000000000E+00 -0.13236433455E+03  0.13236433455E+03  0.00000000000E+00 0. -1.
         36    2    1    2    0    0 -0.35527136788E-14  0.56843418861E-13  0.17488034459E+04  0.20135321150E+04  0.99799703693E+03 0.  0.
         25    2    3    3    0    0  0.22212971118E+00  0.13627131339E+03  0.28344777362E+03  0.33832084966E+03  0.12469337091E+03 0.  0.
         35    2    3    3    0    0 -0.22212971118E+00 -0.13627131339E+03  0.14653556723E+04  0.16752112653E+04  0.80030970070E+03 0.  0.
         22    1    5    5    0    0 -0.20705946068E+03  0.22068565136E+03  0.25253663898E+03  0.39414531711E+03  0.00000000000E+00 0. -1.
         22    1    5    5    0    0  0.20683733097E+03 -0.35695696475E+03  0.12128190333E+04  0.12810659482E+04  0.00000000000E+00 0. -1.
          5    1    4    4  502    0 -0.17639638613E+02  0.12723711807E+03  0.28961196630E+03  0.31685583803E+03  0.47000000000E+01 0.  1.
         -5    1    4    4    0  502  0.17861768324E+02  0.90341953180E+01 -0.61641926868E+01  0.21465011628E+02  0.47000000000E+01 0.  1.
<mgrwt>
<rscale>  0 0.99799704E+03</rscale>
<asrwt>0</asrwt>
<pdfrwt beam="1">  1        2 0.28941041E+00 0.99799704E+03</pdfrwt>
<pdfrwt beam="2">  1       -2 0.20363745E-01 0.99799704E+03</pdfrwt>
<totfact> 0.18978665E+02</totfact>
</mgrwt>
</event>
<event>
 9    1  0.4246427E-036  0.1000045E+04  0.7818608E-02  0.8680995E-01
         -2   -1    0    0    0  501 -0.00000000000E+00  0.00000000000E+00  0.23685167647E+03  0.23685167647E+03  0.00000000000E+00 0.  1.
          2   -1    0    0  501    0  0.00000000000E+00 -0.00000000000E+00 -0.10556080239E+04  0.10556080239E+04  0.00000000000E+00 0.  1.
         36    2    1    2    0    0 -0.14210854715E-13 -0.71054273576E-14 -0.81875634744E+03  0.12924597004E+04  0.10000450593E+04 0.  0.
         25    2    3    3    0    0  0.12848595960E+02 -0.29763332001E+02  0.75909023390E+01  0.14113441788E+03  0.13715086497E+03 0.  0.
         35    2    3    3    0    0 -0.12848595960E+02  0.29763332001E+02 -0.82634724978E+03  0.11513252825E+04  0.80103007844E+03 0.  0.
         22    1    5    5    0    0  0.36051847458E+03 -0.11149539752E+03 -0.25933964767E+03  0.45788846572E+03  0.00000000000E+00 0.  1.
         22    1    5    5    0    0 -0.37336707054E+03  0.14125872952E+03 -0.56700760211E+03  0.69343681679E+03  0.00000000000E+00 0.  1.
          5    1    4    4  502    0  0.69525348488E+02 -0.25504442236E+02  0.29755381986E+02  0.79948254598E+02  0.47000000000E+01 0. -1.
         -5    1    4    4    0  502 -0.56676752528E+02 -0.42588897655E+01 -0.22164479647E+02  0.61186163282E+02  0.47000000000E+01 0. -1.
<mgrwt>
<rscale>  0 0.10000451E+04</rscale>
<asrwt>0</asrwt>
<pdfrwt beam="1">  1        2 0.16240124E+00 0.10000451E+04</pdfrwt>
<pdfrwt beam="2">  1       -2 0.36438718E-01 0.10000451E+04</pdfrwt>
<totfact> 0.19881592E+02</totfact>
</mgrwt>
</event>
<event>
 9    1  0.4246427E-036  0.1000816E+04  0.7818608E-02  0.8680262E-01
          2   -1    0    0  501    0  0.00000000000E+00  0.00000000000E+00  0.84165427843E+03  0.84165427843E+03  0.00000000000E+00 0.  1.
         -2   -1    0    0    0  501 -0.00000000000E+00 -0.00000000000E+00 -0.29751882873E+03  0.29751882873E+03  0.00000000000E+00 0.  1.
         36    2    1    2    0    0  0.00000000000E+00  0.14210854715E-13  0.54413544970E+03  0.11391731072E+04  0.10008156576E+04 0.  0.
         25    2    3    3    0    0 -0.78624429117E+02  0.11432959838E+03  0.13017790066E+03  0.22707387462E+03  0.12394837955E+03 0.  0.
         35    2    3    3    0    0  0.78624429117E+02 -0.11432959838E+03  0.41395754904E+03  0.91209923254E+03  0.80081901805E+03 0.  0.
         22    1    5    5    0    0 -0.13833730304E+03  0.76891838136E+01 -0.20359539242E+03  0.24626696241E+03  0.00000000000E+00 0. -1.
         22    1    5    5    0    0  0.21696173216E+03 -0.12201878219E+03  0.61755294146E+03  0.66583227012E+03  0.00000000000E+00 0. -1.
          5    1    4    4  502    0  0.12160929400E+02  0.37613540772E+02  0.95041039257E+02  0.10304152462E+03  0.47000000000E+01 0.  1.
         -5    1    4    4    0  502 -0.90785358517E+02  0.76716057606E+02  0.35136861403E+02  0.12403234999E+03  0.47000000000E+01 0.  1.
<mgrwt>
<rscale>  0 0.10008157E+04</rscale>
<asrwt>0</asrwt>
<pdfrwt beam="1">  1        2 0.12948527E+00 0.10008157E+04</pdfrwt>
<pdfrwt beam="2">  1       -2 0.45772128E-01 0.10008157E+04</pdfrwt>
<totfact> 0.17620697E+02</totfact>
</mgrwt>
</event>
<event>
 9    1  0.4246427E-036  0.9996833E+03  0.7818608E-02  0.8681340E-01
         -2   -1    0    0    0  501 -0.00000000000E+00  0.00000000000E+00  0.19015146129E+03  0.19015146129E+03  0.00000000000E+00 0.  1.
          2   -1    0    0  501    0  0.00000000000E+00 -0.00000000000E+00 -0.13139088786E+04  0.13139088786E+04  0.00000000000E+00 0.  1.
         36    2    1    2    0    0  0.71054273576E-14  0.00000000000E+00 -0.11237574174E+04  0.15040603399E+04  0.99968333642E+03 0.  0.
         25    2    3    3    0    0  0.62757479077E+02 -0.10526658670E+03 -0.11053610243E+03  0.20731769759E+03  0.12547048393E+03 0.  0.
         35    2    3    3    0    0 -0.62757479077E+02  0.10526658670E+03 -0.10132213149E+04  0.12967426423E+04  0.79994030528E+03 0.  0.
         22    1    5    5    0    0 -0.34023422698E+03 -0.14640506118E+03 -0.25097121483E+03  0.44741515600E+03  0.00000000000E+00 0. -1.
         22    1    5    5    0    0  0.27747674790E+03  0.25167164788E+03 -0.76225010010E+03  0.84932748635E+03  0.00000000000E+00 0. -1.
          5    1    4    4  502    0 -0.30089566192E+02 -0.55876322492E+02 -0.15507109974E+02  0.65498899751E+02  0.47000000000E+01 0. -1.
         -5    1    4    4    0  502  0.92847045268E+02 -0.49390264208E+02 -0.95028992451E+02  0.14181879784E+03  0.47000000000E+01 0. -1.
<mgrwt>
<rscale>  0 0.99968334E+03</rscale>
<asrwt>0</asrwt>
<pdfrwt beam="1">  1        2 0.20213983E+00 0.99968334E+03</pdfrwt>
<pdfrwt beam="2">  1       -2 0.29254070E-01 0.99968334E+03</pdfrwt>
<totfact> 0.20941608E+02</totfact>
</mgrwt>
</event>
<event>
 9    1  0.4246427E-036  0.1000210E+04  0.7818608E-02  0.8680838E-01
          2   -1    0    0  501    0  0.00000000000E+00  0.00000000000E+00  0.27025093856E+04  0.27025093856E+04  0.00000000000E+00 0.  1.
         -2   -1    0    0    0  501 -0.00000000000E+00 -0.00000000000E+00 -0.92545450418E+02  0.92545450418E+02  0.00000000000E+00 0.  1.
         36    2    1    2    0    0  0.00000000000E+00 -0.42632564146E-13  0.26099639352E+04  0.27950548361E+04  0.10002098747E+04 0.  0.
         25    2    3    3    0    0 -0.51214171906E+01  0.30145268542E+02  0.88474619793E+03  0.89363770443E+03  0.12197354587E+03 0.  0.
         35    2    3    3    0    0  0.51214171906E+01 -0.30145268542E+02  0.17252177373E+04  0.19014171316E+04  0.79879653308E+03 0.  0.
         22    1    5    5    0    0 -0.42707919060E+02  0.26588580284E+03  0.17204227492E+03  0.31955871270E+03  0.00000000000E+00 0. -1.
         22    1    5    5    0    0  0.47829336250E+02 -0.29603107138E+03  0.15531754624E+04  0.15818584189E+04  0.00000000000E+00 0. -1.
          5    1    4    4  502    0 -0.24699383061E+01  0.69945872401E+02  0.74320625099E+03  0.74650930816E+03  0.47000000000E+01 0.  1.
         -5    1    4    4    0  502 -0.26514788845E+01 -0.39800603859E+02  0.14153994694E+03  0.14712839627E+03  0.47000000000E+01 0.  1.
<mgrwt>
<rscale>  0 0.10002099E+04</rscale>
<asrwt>0</asrwt>
<pdfrwt beam="1">  1        2 0.41577061E+00 0.10002099E+04</pdfrwt>
<pdfrwt beam="2">  1       -2 0.14237764E-01 0.10002099E+04</pdfrwt>
<totfact> 0.11383898E+02</totfact>
</mgrwt>
</event>
<event>
 9    1  0.4246427E-036  0.9996943E+03  0.7818608E-02  0.8681329E-01
         -2   -1    0    0    0  501 -0.00000000000E+00  0.00000000000E+00  0.22752976890E+03  0.22752976890E+03  0.00000000000E+00 0. -1.
          2   -1    0    0  501    0  0.00000000000E+00 -0.00000000000E+00 -0.10980857553E+04  0.10980857553E+04  0.00000000000E+00 0. -1.
         36    2    1    2    0    0  0.14210854715E-13 -0.28421709430E-13 -0.87055598636E+03  0.13256155242E+04  0.99969434955E+03 0.  0.
         25    2    3    3    0    0  0.72945116144E+02  0.11047632728E+03 -0.10772291161E+03  0.21163416190E+03  0.12513506277E+03 0.  0.
         35    2    3    3    0    0 -0.72945116144E+02 -0.11047632728E+03 -0.76283307475E+03  0.11139813623E+04  0.80094579510E+03 0.  0.
         22    1    5    5    0    0  0.97224534388E+02  0.31057284762E+03 -0.47679605080E+03  0.57727166726E+03  0.00000000000E+00 0.  1.
         22    1    5    5    0    0 -0.17016965053E+03 -0.42104917490E+03 -0.28603702394E+03  0.53670969501E+03  0.00000000000E+00 0.  1.
          5    1    4    4  502    0 -0.11017710957E+02  0.76654178993E+02 -0.98015351124E+01  0.78201107424E+02  0.47000000000E+01 0. -1.
         -5    1    4    4    0  502  0.83962827101E+02  0.33822148292E+02 -0.97921376501E+02  0.13343305447E+03  0.47000000000E+01 0. -1.
<mgrwt>
<rscale>  0 0.99969435E+03</rscale>
<asrwt>0</asrwt>
<pdfrwt beam="1">  1        2 0.16893627E+00 0.99969435E+03</pdfrwt>
<pdfrwt beam="2">  1       -2 0.35004579E-01 0.99969435E+03</pdfrwt>
<totfact> 0.20190740E+02</totfact>
</mgrwt>
</event>
<event>
 9    1  0.4246427E-036  0.9990393E+03  0.7818608E-02  0.8681953E-01
         -2   -1    0    0    0  501 -0.00000000000E+00  0.00000000000E+00  0.15130406595E+03  0.15130406595E+03  0.00000000000E+00 0.  1.
          2   -1    0    0  501    0  0.00000000000E+00 -0.00000000000E+00 -0.16491288549E+04  0.16491288549E+04  0.00000000000E+00 0.  1.
         36    2    1    2    0    0  0.14210854715E-13  0.00000000000E+00 -0.14978247889E+04  0.18004329208E+04  0.99903934058E+03 0.  0.
         25    2    3    3    0    0 -0.86138700597E+02  0.10497730323E+03 -0.30563108751E+03  0.35721470115E+03  0.12550645852E+03 0.  0.
         35    2    3    3    0    0  0.86138700597E+02 -0.10497730323E+03 -0.11921937014E+04  0.14432182197E+04  0.80194320120E+03 0.  0.
         22    1    5    5    0    0  0.29255384425E+02  0.27511055073E+03 -0.11516543446E+03  0.29967443991E+03  0.00000000000E+00 0.  1.
         22    1    5    5    0    0  0.56883316172E+02 -0.38008785397E+03 -0.10770282669E+04  0.11435437797E+04  0.00000000000E+00 0.  1.
          5    1    4    4  502    0 -0.28124081272E+02  0.28530752694E+02 -0.38651487478E+01  0.40521564278E+02  0.47000000000E+01 0.  1.
         -5    1    4    4    0  502 -0.58014619326E+02  0.76446550540E+02 -0.30176593876E+03  0.31669313687E+03  0.47000000000E+01 0.  1.
<mgrwt>
<rscale>  0 0.99903934E+03</rscale>
<asrwt>0</asrwt>
<pdfrwt beam="1">  1        2 0.25371212E+00 0.99903934E+03</pdfrwt>
<pdfrwt beam="2">  1       -2 0.23277550E-01 0.99903934E+03</pdfrwt>
<totfact> 0.20310664E+02</totfact>
</mgrwt>
</event>
<event>
 9    1  0.4246427E-036  0.1002058E+04  0.7818608E-02  0.8679080E-01
         -2   -1    0    0    0  501 -0.00000000000E+00  0.00000000000E+00  0.29318443650E+03  0.29318443650E+03  0.00000000000E+00 0.  1.
          2   -1    0    0  501    0  0.00000000000E+00 -0.00000000000E+00 -0.85621935688E+03  0.85621935688E+03  0.00000000000E+00 0.  1.
         36    2    1    2    0    0 -0.14210854715E-13  0.00000000000E+00 -0.56303492037E+03  0.11494037934E+04  0.10020582611E+04 0.  0.
         25    2    3    3    0    0 -0.90692256144E+02 -0.36704700356E+02 -0.21434817390E+03  0.26684801173E+03  0.12526133224E+03 0.  0.
         35    2    3    3    0    0  0.90692256144E+02  0.36704700356E+02 -0.34868674647E+03  0.88255578166E+03  0.80482913728E+03 0.  0.
         22    1    5    5    0    0 -0.23592331744E+03 -0.19250785113E+03 -0.37454018404E+03  0.48270014908E+03  0.00000000000E+00 0.  1.
         22    1    5    5    0    0  0.32661557359E+03  0.22921255149E+03  0.25853437569E+02  0.39985563258E+03  0.00000000000E+00 0.  1.
          5    1    4    4  502    0  0.19443677817E+01 -0.18870906932E+02 -0.15294592189E+03  0.15418961287E+03  0.47000000000E+01 0.  1.
         -5    1    4    4    0  502 -0.92636623925E+02 -0.17833793424E+02 -0.61402252011E+02  0.11265839885E+03  0.47000000000E+01 0.  1.
<mgrwt>
<rscale>  0 0.10020583E+04</rscale>
<asrwt>0</asrwt>
<pdfrwt beam="1">  1        2 0.13172605E+00 0.10020583E+04</pdfrwt>
<pdfrwt beam="2">  1       -2 0.45105298E-01 0.10020583E+04</pdfrwt>
<totfact> 0.17727058E+02</totfact>
</mgrwt>
</event>
<event>
 9    1  0.4246427E-036  0.1000735E+04  0.7818608E-02  0.8680338E-01
          1   -1    0    0  501    0  0.00000000000E+00  0.00000000000E+00  0.26524041685E+03  0.26524041685E+03  0.00000000000E+00 0. -1.
         -1   -1    0    0    0  501 -0.00000000000E+00 -0.00000000000E+00 -0.94392802762E+03  0.94392802762E+03  0.00000000000E+00 0. -1.
         36    2    1    2    0    0  0.14210854715E-13  0.14210854715E-13 -0.67868761078E+03  0.12091684445E+04  0.10007354566E+04 0.  0.
         25    2    3    3    0    0 -0.12654202718E+03 -0.66866770802E+02 -0.10887887418E+03  0.21888815515E+03  0.12479329126E+03 0.  0.
         35    2    3    3    0    0  0.12654202718E+03  0.66866770802E+02 -0.56980873659E+03  0.99028028932E+03  0.79717564278E+03 0.  0.
         22    1    5    5    0    0 -0.71207939380E+02 -0.15174692250E+03 -0.66083529201E+03  0.68176314237E+03  0.00000000000E+00 0.  1.
         22    1    5    5    0    0  0.19774996656E+03  0.21861369330E+03  0.91026555419E+02  0.30851714695E+03  0.00000000000E+00 0.  1.
          5    1    4    4  502    0 -0.42682067907E+02 -0.60341221727E+02 -0.11235928023E+03  0.13457161593E+03  0.47000000000E+01 0.  1.
         -5    1    4    4    0  502 -0.83859959270E+02 -0.65255490751E+01  0.34804060496E+01  0.84316539219E+02  0.47000000000E+01 0.  1.
<mgrwt>
<rscale>  0 0.10007355E+04</rscale>
<asrwt>0</asrwt>
<pdfrwt beam="1">  1        1 0.40806218E-01 0.10007355E+04</pdfrwt>
<pdfrwt beam="2">  1       -1 0.14521970E+00 0.10007355E+04</pdfrwt>
<totfact> 0.46296475E+01</totfact>
</mgrwt>
</event>
<event>
 9    1  0.4246427E-036  0.1000181E+04  0.7818608E-02  0.8680866E-01
         -1   -1    0    0    0  501 -0.00000000000E+00  0.00000000000E+00  0.18947684115E+03  0.18947684115E+03  0.00000000000E+00 0.  1.
          1   -1    0    0  501    0  0.00000000000E+00 -0.00000000000E+00 -0.13198998221E+04  0.13198998221E+04  0.00000000000E+00 0.  1.
         36    2    1    2    0    0  0.28421709430E-13 -0.71054273576E-14 -0.11304229810E+04  0.15093766633E+04  0.10001808815E+04 0.  0.
         25    2    3    3    0    0 -0.13951608284E+03 -0.14283506815E+02 -0.19892324442E+03  0.27325431998E+03  0.12421235961E+03 0.  0.
         35    2    3    3    0    0  0.13951608284E+03  0.14283506815E+02 -0.93149973657E+03  0.12361223433E+04  0.80039860847E+03 0.  0.
         22    1    5    5    0    0  0.37276671813E+03 -0.92538957881E+02 -0.14786403812E+03  0.41156075936E+03  0.00000000000E+00 0.  1.
         22    1    5    5    0    0 -0.23325063529E+03  0.10682246470E+03 -0.78363569845E+03  0.82456158394E+03  0.00000000000E+00 0.  1.
          5    1    4    4  502    0 -0.65238759289E+02  0.46494826465E+02 -0.45575107906E+02  0.92287838105E+02  0.47000000000E+01 0.  1.
         -5    1    4    4    0  502 -0.74277323553E+02 -0.60778333280E+02 -0.15334813651E+03  0.18096648187E+03  0.47000000000E+01 0.  1.
<mgrwt>
<rscale>  0 0.10001809E+04</rscale>
<asrwt>0</asrwt>
<pdfrwt beam="1">  1        1 0.20306152E+00 0.10001809E+04</pdfrwt>
<pdfrwt beam="2">  1       -1 0.29150282E-01 0.10001809E+04</pdfrwt>
<totfact> 0.10268158E+02</totfact>
</mgrwt>
</event>
<event>
 9    1  0.4246427E-036  0.9981578E+03  0.7818608E-02  0.8682794E-01
          1   -1    0    0  501    0  0.00000000000E+00  0.00000000000E+00  0.58003935518E+03  0.58003935518E+03  0.00000000000E+00 0.  1.
         -1   -1    0    0    0  501 -0.00000000000E+00 -0.00000000000E+00 -0.42941874006E+03  0.42941874006E+03  0.00000000000E+00 0.  1.
         36    2    1    2    0    0  0.71054273576E-14  0.00000000000E+00  0.15062061512E+03  0.10094580952E+04  0.99815784140E+03 0.  0.
         25    2    3    3    0    0 -0.24643302739E+02  0.11872292455E+03  0.75730212452E+01  0.17449922441E+03  0.12526054241E+03 0.  0.
         35    2    3    3    0    0  0.24643302739E+02 -0.11872292455E+03  0.14304759387E+03  0.83495887083E+03  0.81362846354E+03 0.  0.
         22    1    5    5    0    0 -0.26702499531E+03 -0.33136417943E+03  0.19883055585E+03  0.46972136152E+03  0.00000000000E+00 0. -1.
         22    1    5    5    0    0  0.29166829805E+03  0.21264125488E+03 -0.55782961980E+02  0.36523750931E+03  0.00000000000E+00 0. -1.
          5    1    4    4  502    0 -0.49862140503E+02  0.96217828656E+02 -0.40292946974E+02  0.11571393686E+03  0.47000000000E+01 0.  1.
         -5    1    4    4    0  502  0.25218837765E+02  0.22505095894E+02  0.47865968219E+02  0.58785287555E+02  0.47000000000E+01 0.  1.
<mgrwt>
<rscale>  0 0.99815784E+03</rscale>
<asrwt>0</asrwt>
<pdfrwt beam="1">  1        1 0.89236824E-01 0.99815784E+03</pdfrwt>
<pdfrwt beam="2">  1       -1 0.66064421E-01 0.99815784E+03</pdfrwt>
<totfact> 0.97443444E+01</totfact>
</mgrwt>
</event>
<event>
 9    1  0.4246427E-036  0.9996940E+03  0.7818608E-02  0.8681329E-01
          2   -1    0    0  501    0  0.00000000000E+00  0.00000000000E+00  0.24283592057E+03  0.24283592057E+03  0.00000000000E+00 0.  1.
         -2   -1    0    0    0  501 -0.00000000000E+00 -0.00000000000E+00 -0.10288718264E+04  0.10288718264E+04  0.00000000000E+00 0.  1.
         36    2    1    2    0    0  0.00000000000E+00  0.71054273576E-14 -0.78603590585E+03  0.12717077470E+04  0.99969402742E+03 0.  0.
         25    2    3    3    0    0 -0.69757558369E+02 -0.33689582182E+02  0.16008217468E+00  0.14703677218E+03  0.12497472485E+03 0.  0.
         35    2    3    3    0    0  0.69757558369E+02  0.33689582182E+02 -0.78619598803E+03  0.11246709748E+04  0.80048707989E+03 0.  0.
         22    1    5    5    0    0 -0.15765188725E+03 -0.29069306146E+03 -0.60405418287E+03  0.68864942415E+03  0.00000000000E+00 0.  1.
         22    1    5    5    0    0  0.22740944561E+03  0.32438264364E+03 -0.18214180515E+03  0.43602155066E+03  0.00000000000E+00 0.  1.
          5    1    4    4  502    0 -0.55125517405E+02 -0.71868743526E+02 -0.30529489824E+02  0.95697851147E+02  0.47000000000E+01 0.  1.
         -5    1    4    4    0  502 -0.14632040963E+02  0.38179161344E+02  0.30689571998E+02  0.51338921036E+02  0.47000000000E+01 0.  1.
<mgrwt>
<rscale>  0 0.99969403E+03</rscale>
<asrwt>0</asrwt>
<pdfrwt beam="1">  1        2 0.37359372E-01 0.99969403E+03</pdfrwt>
<pdfrwt beam="2">  1       -2 0.15828797E+00 0.99969403E+03</pdfrwt>
<totfact> 0.40523959E+01</totfact>
</mgrwt>
</event>
<event>
 9    1  0.4246427E-036  0.9999296E+03  0.7818608E-02  0.8681105E-01
         -2   -1    0    0    0  501 -0.00000000000E+00  0.00000000000E+00  0.12972658185E+04  0.12972658185E+04  0.00000000000E+00 0. -1.
          2   -1    0    0  501    0  0.00000000000E+00 -0.00000000000E+00 -0.19268587934E+03  0.19268587934E+03  0.00000000000E+00 0. -1.
         36    2    1    2    0    0 -0.28421709430E-13  0.00000000000E+00  0.11045799392E+04  0.14899516978E+04  0.99992960747E+03 0.  0.
         25    2    3    3    0    0 -0.93065854715E+01  0.24821411783E+02  0.41803984767E+03  0.43709551672E+03  0.12486977810E+03 0.  0.
         35    2    3    3    0    0  0.93065854715E+01 -0.24821411783E+02  0.68654009151E+03  0.10528561811E+04  0.79778827134E+03 0.  0.
         22    1    5    5    0    0 -0.28246718197E+03 -0.11499071263E+03  0.68238878510E+03  0.74743897872E+03  0.00000000000E+00 0. -1.
         22    1    5    5    0    0  0.29177376744E+03  0.90169300847E+02  0.41513064015E+01  0.30541720241E+03  0.00000000000E+00 0. -1.
          5    1    4    4  502    0  0.40194503968E+02  0.50855332062E+02  0.15393528335E+03  0.16709286164E+03  0.47000000000E+01 0. -1.
         -5    1    4    4    0  502 -0.49501089440E+02 -0.26033920279E+02  0.26410456431E+03  0.27000265508E+03  0.47000000000E+01 0. -1.
<mgrwt>
<rscale>  0 0.99992961E+03</rscale>
<asrwt>0</asrwt>
<pdfrwt beam="1">  1        2 0.29643982E-01 0.99992961E+03</pdfrwt>
<pdfrwt beam="2">  1       -2 0.19957935E+00 0.99992961E+03</pdfrwt>
<totfact> 0.26320500E+01</totfact>
</mgrwt>
</event>
<event>
 9    1  0.4246427E-036  0.1000007E+04  0.7818608E-02  0.8681031E-01
          2   -1    0    0  501    0  0.00000000000E+00  0.00000000000E+00  0.13367700169E+04  0.13367700169E+04  0.00000000000E+00 0. -1.
         -2   -1    0    0    0  501 -0.00000000000E+00 -0.00000000000E+00 -0.18702055361E+03  0.18702055361E+03  0.00000000000E+00 0. -1.
         36    2    1    2    0    0  0.00000000000E+00 -0.35527136788E-14  0.11497494632E+04  0.15237905705E+04  0.10000069372E+04 0.  0.
         25    2    3    3    0    0 -0.13641510234E+03  0.25976180906E+02  0.23145626180E+03  0.29812917756E+03  0.12659053386E+03 0.  0.
         35    2    3    3    0    0  0.13641510234E+03 -0.25976180906E+02  0.91829320144E+03  0.12256613929E+04  0.79981223055E+03 0.  0.
         22    1    5    5    0    0  0.26421664221E+03  0.29015688176E+02 -0.29748816919E+02  0.26746464493E+03  0.00000000000E+00 0. -1.
         22    1    5    5    0    0 -0.12780153987E+03 -0.54991869082E+02  0.94804201836E+03  0.95819674798E+03  0.00000000000E+00 0. -1.
          5    1    4    4  502    0 -0.60363189975E+01  0.24790995152E+02  0.13079133496E+03  0.13333976859E+03  0.47000000000E+01 0. -1.
         -5    1    4    4    0  502 -0.13037878334E+03  0.11851857542E+01  0.10066492685E+03  0.16478940897E+03  0.47000000000E+01 0. -1.
<mgrwt>
<rscale>  0 0.10000069E+04</rscale>
<asrwt>0</asrwt>
<pdfrwt beam="1">  1        2 0.20565692E+00 0.10000069E+04</pdfrwt>
<pdfrwt beam="2">  1       -2 0.28772394E-01 0.10000069E+04</pdfrwt>
<totfact> 0.20935339E+02</totfact>
</mgrwt>
</event>
<event>
 9    1  0.4246427E-036  0.1000424E+04  0.7818608E-02  0.8680634E-01
          1   -1    0    0  501    0  0.00000000000E+00  0.00000000000E+00  0.10376773766E+04  0.10376773766E+04  0.00000000000E+00 0. -1.
         -1   -1    0    0    0  501 -0.00000000000E+00 -0.00000000000E+00 -0.24112724243E+03  0.24112724243E+03  0.00000000000E+00 0. -1.
         36    2    1    2    0    0  0.00000000000E+00 -0.35527136788E-13  0.79655013415E+03  0.12788046190E+04  0.10004244786E+04 0.  0.
         25    2    3    3    0    0  0.57163353347E+02  0.59254556315E+02  0.29237371424E+03  0.33064673917E+03  0.13063738338E+03 0.  0.
         35    2    3    3    0    0 -0.57163353347E+02 -0.59254556315E+02  0.50417641991E+03  0.94815787984E+03  0.79876827134E+03 0.  0.
         22    1    5    5    0    0  0.16273344811E+02 -0.42079488233E+03  0.18353091428E+03  0.45936559650E+03  0.00000000000E+00 0.  1.
         22    1    5    5    0    0 -0.73436698159E+02  0.36154032602E+03  0.32064550563E+03  0.48879228334E+03  0.00000000000E+00 0.  1.
          5    1    4    4  502    0  0.15237879166E+02 -0.41535891003E+02  0.99017175688E+02  0.10855373915E+03  0.47000000000E+01 0.  1.
         -5    1    4    4    0  502  0.41925474181E+02  0.10079044732E+03  0.19335653855E+03  0.22209300002E+03  0.47000000000E+01 0.  1.
<mgrwt>
<rscale>  0 0.10004245E+04</rscale>
<asrwt>0</asrwt>
<pdfrwt beam="1">  1        1 0.15964267E+00 0.10004245E+04</pdfrwt>
<pdfrwt beam="2">  1       -1 0.37096499E-01 0.10004245E+04</pdfrwt>
<totfact> 0.11030278E+02</totfact>
</mgrwt>
</event>
<event>
 9    1  0.4246427E-036  0.9998324E+03  0.7818608E-02  0.8681198E-01
         -2   -1    0    0    0  501 -0.00000000000E+00  0.00000000000E+00  0.43280699919E+03  0.43280699919E+03  0.00000000000E+00 0.  1.
          2   -1    0    0  501    0  0.00000000000E+00 -0.00000000000E+00 -0.57743110578E+03  0.57743110578E+03  0.00000000000E+00 0.  1.
         36    2    1    2    0    0 -0.71054273576E-14  0.00000000000E+00 -0.14462410659E+03  0.10102381050E+04  0.99983243422E+03 0.  0.
         25    2    3    3    0    0  0.30468019591E+02  0.75414115939E+02  0.88160160434E+02  0.17316404827E+03  0.12489189175E+03 0.  0.
         35    2    3    3    0    0 -0.30468019591E+02 -0.75414115939E+02 -0.23278426703E+03  0.83707405669E+03  0.79993054218E+03 0.  0.
         22    1    5    5    0    0  0.83611696792E+02 -0.27444667957E+03 -0.44176326317E+03  0.52675105738E+03  0.00000000000E+00 0.  1.
         22    1    5    5    0    0 -0.11407971638E+03  0.19903256363E+03  0.20897899614E+03  0.31032299931E+03  0.00000000000E+00 0.  1.
          5    1    4    4  502    0  0.58542170340E+02 -0.87739984789E+01  0.26679309790E+02  0.65100263658E+02  0.47000000000E+01 0. -1.
         -5    1    4    4    0  502 -0.28074150749E+02  0.84188114418E+02  0.61480850644E+02  0.10806378462E+03  0.47000000000E+01 0. -1.
<mgrwt>
<rscale>  0 0.99983243E+03</rscale>
<asrwt>0</asrwt>
<pdfrwt beam="1">  1        2 0.88835555E-01 0.99983243E+03</pdfrwt>
<pdfrwt beam="2">  1       -2 0.66585692E-01 0.99983243E+03</pdfrwt>
<totfact> 0.13024462E+02</totfact>
</mgrwt>
</event>
<event>
 9    1  0.4246427E-036  0.1000347E+04  0.7818608E-02  0.8680708E-01
          1   -1    0    0  501    0  0.00000000000E+00  0.00000000000E+00  0.10971803974E+04  0.10971803974E+04  0.00000000000E+00 0. -1.
         -1   -1    0    0    0  501 -0.00000000000E+00 -0.00000000000E+00 -0.22801477925E+03  0.22801477925E+03  0.00000000000E+00 0. -1.
         36    2    1    2    0    0 -0.28421709430E-13  0.00000000000E+00  0.86916561815E+03  0.13251951767E+04  0.10003466322E+04 0.  0.
         25    2    3    3    0    0  0.48294088398E+02  0.12321031536E+03  0.23185818099E+03  0.29474421848E+03  0.12491131834E+03 0.  0.
         35    2    3    3    0    0 -0.48294088398E+02 -0.12321031536E+03  0.63730743716E+03  0.10304509582E+04  0.79884623487E+03 0.  0.
         22    1    5    5    0    0  0.80173715978E+02  0.12564308077E+03 -0.13984409062E+03  0.20437802759E+03  0.00000000000E+00 0.  1.
         22    1    5    5    0    0 -0.12846780438E+03 -0.24885339613E+03  0.77715152778E+03  0.82607293059E+03  0.00000000000E+00 0.  1.
          5    1    4    4  502    0  0.78253762731E+02  0.11960426401E+03  0.21911375894E+03  0.26165198395E+03  0.47000000000E+01 0.  1.
         -5    1    4    4    0  502 -0.29959674333E+02  0.36060513419E+01  0.12744422055E+02  0.33092234526E+02  0.47000000000E+01 0.  1.
<mgrwt>
<rscale>  0 0.10003466E+04</rscale>
<asrwt>0</asrwt>
<pdfrwt beam="1">  1        1 0.16879698E+00 0.10003466E+04</pdfrwt>
<pdfrwt beam="2">  1       -1 0.35079197E-01 0.10003466E+04</pdfrwt>
<totfact> 0.10938934E+02</totfact>
</mgrwt>
</event>
<event>
 9    1  0.4246427E-036  0.1000101E+04  0.7818608E-02  0.8680942E-01
          2   -1    0    0  501    0  0.00000000000E+00  0.00000000000E+00  0.49433764211E+03  0.49433764211E+03  0.00000000000E+00 0.  1.
         -2   -1    0    0    0  501 -0.00000000000E+00 -0.00000000000E+00 -0.50582954364E+03  0.50582954364E+03  0.00000000000E+00 0.  1.
         36    2    1    2    0    0  0.21316282073E-13  0.14210854715E-13 -0.11491901537E+02  0.10001671858E+04  0.10001011627E+04 0.  0.
         25    2    3    3    0    0  0.40177701714E+02  0.93793852187E+02  0.96070551935E+02  0.18712374069E+03  0.12399277785E+03 0.  0.
         35    2    3    3    0    0 -0.40177701714E+02 -0.93793852187E+02 -0.10756245347E+03  0.81304344506E+03  0.79941130073E+03 0.  0.
         22    1    5    5    0    0  0.27407069932E+03  0.21610362259E+03 -0.12663198975E+03  0.37128315980E+03  0.00000000000E+00 0. -1.
         22    1    5    5    0    0 -0.31424840103E+03 -0.30989747477E+03  0.19069536282E+02  0.44176028526E+03  0.00000000000E+00 0. -1.
          5    1    4    4  502    0  0.76122069185E+02  0.91285088695E+02  0.51510856265E+02  0.12962636749E+03  0.47000000000E+01 0. -1.
         -5    1    4    4    0  502 -0.35944367471E+02  0.25087634919E+01  0.44559695670E+02  0.57497373204E+02  0.47000000000E+01 0. -1.
<mgrwt>
<rscale>  0 0.10001012E+04</rscale>
<asrwt>0</asrwt>
<pdfrwt beam="1">  1        2 0.76051945E-01 0.10001012E+04</pdfrwt>
<pdfrwt beam="2">  1       -2 0.77819930E-01 0.10001012E+04</pdfrwt>
<totfact> 0.11072383E+02</totfact>
</mgrwt>
</event>
<event>
 9    1  0.4246427E-036  0.1000322E+04  0.7818608E-02  0.8680731E-01
         -1   -1    0    0    0  501 -0.00000000000E+00  0.00000000000E+00  0.13186165922E+04  0.13186165922E+04  0.00000000000E+00 0.  1.
          1   -1    0    0  501    0  0.00000000000E+00 -0.00000000000E+00 -0.18971472802E+03  0.18971472802E+03  0.00000000000E+00 0.  1.
         36    2    1    2    0    0  0.28421709430E-13 -0.71054273576E-14  0.11289018642E+04  0.15083313202E+04  0.10003219245E+04 0.  0.
         25    2    3    3    0    0 -0.12523062482E+03  0.46528561654E+02  0.27954492912E+03  0.33424194745E+03  0.12539814830E+03 0.  0.
         35    2    3    3    0    0  0.12523062482E+03 -0.46528561654E+02  0.84935693505E+03  0.11740893728E+04  0.79951925284E+03 0.  0.
         22    1    5    5    0    0  0.42379174184E+03 -0.20691407219E+03  0.48586041334E+03  0.67710650194E+03  0.00000000000E+00 0.  1.
         22    1    5    5    0    0 -0.29856111702E+03  0.16038551054E+03  0.36349652171E+03  0.49698287081E+03  0.00000000000E+00 0.  1.
          5    1    4    4  502    0 -0.12795116843E+03  0.78504531253E+02  0.21890458852E+03  0.26547273270E+03  0.47000000000E+01 0. -1.
         -5    1    4    4    0  502  0.27205436167E+01 -0.31975969600E+02  0.60640340598E+02  0.68769214749E+02  0.47000000000E+01 0. -1.
<mgrwt>
<rscale>  0 0.10003219E+04</rscale>
<asrwt>0</asrwt>
<pdfrwt beam="1">  1        1 0.29186882E-01 0.10003219E+04</pdfrwt>
<pdfrwt beam="2">  1       -1 0.20286409E+00 0.10003219E+04</pdfrwt>
<totfact> 0.23463342E+01</totfact>
</mgrwt>
</event>
<event>
 9    1  0.4246427E-036  0.1000389E+04  0.7818608E-02  0.8680667E-01
         -2   -1    0    0    0  501 -0.00000000000E+00  0.00000000000E+00  0.14562620227E+03  0.14562620227E+03  0.00000000000E+00 0.  1.
          2   -1    0    0  501    0  0.00000000000E+00 -0.00000000000E+00 -0.17180609925E+04  0.17180609925E+04  0.00000000000E+00 0.  1.
         36    2    1    2    0    0  0.00000000000E+00  0.00000000000E+00 -0.15724347902E+04  0.18636871947E+04  0.10003893194E+04 0.  0.
         25    2    3    3    0    0 -0.12709077092E+03 -0.38315845853E+02 -0.33452276394E+03  0.38110818790E+03  0.12537066321E+03 0.  0.
         35    2    3    3    0    0  0.12709077092E+03  0.38315845853E+02 -0.12379120263E+04  0.14825790068E+04  0.80498084366E+03 0.  0.
         22    1    5    5    0    0  0.24913281914E+03 -0.22622289877E+03 -0.17269820666E+03  0.37824414348E+03  0.00000000000E+00 0. -1.
         22    1    5    5    0    0 -0.12204204822E+03  0.26453874462E+03 -0.10652138196E+04  0.11043348633E+04  0.00000000000E+00 0. -1.
          5    1    4    4  502    0 -0.13861720571E+03 -0.13960275684E+02 -0.19970799245E+03  0.24354669216E+03  0.47000000000E+01 0. -1.
         -5    1    4    4    0  502  0.11526434788E+02 -0.24355570170E+02 -0.13481477149E+03  0.13756149574E+03  0.47000000000E+01 0. -1.
<mgrwt>
<rscale>  0 0.10003893E+04</rscale>
<asrwt>0</asrwt>
<pdfrwt beam="1">  1        2 0.26431707E+00 0.10003893E+04</pdfrwt>
<pdfrwt beam="2">  1       -2 0.22404032E-01 0.10003893E+04</pdfrwt>
<totfact> 0.19862851E+02</totfact>
</mgrwt>
</event>
<event>
 9    1  0.4246427E-036  0.1000091E+04  0.7818608E-02  0.8680952E-01
          2   -1    0    0  501    0  0.00000000000E+00  0.00000000000E+00  0.93463024951E+03  0.93463024951E+03  0.00000000000E+00 0. -1.
         -2   -1    0    0    0  501 -0.00000000000E+00 -0.00000000000E+00 -0.26753391628E+03  0.26753391628E+03  0.00000000000E+00 0. -1.
         36    2    1    2    0    0  0.00000000000E+00 -0.17763568394E-13  0.66709633323E+03  0.12021641658E+04  0.10000905777E+04 0.  0.
         25    2    3    3    0    0  0.34191863707E+02 -0.13834326295E+02  0.28495025517E+03  0.31330097781E+03  0.12490149178E+03 0.  0.
         35    2    3    3    0    0 -0.34191863707E+02  0.13834326295E+02  0.38214607807E+03  0.88886318798E+03  0.80167429162E+03 0.  0.
         22    1    5    5    0    0 -0.28069200852E+02 -0.37122505918E+03  0.33510907476E+03  0.50089321875E+03  0.00000000000E+00 0.  1.
         22    1    5    5    0    0 -0.61226628549E+01  0.38505938548E+03  0.47037003303E+02  0.38796996923E+03  0.00000000000E+00 0.  1.
          5    1    4    4  502    0  0.57832064815E+02  0.10348678014E+02  0.54304768958E+02  0.80142003899E+02  0.47000000000E+01 0. -1.
         -5    1    4    4    0  502 -0.23640201107E+02 -0.24183004309E+02  0.23064548621E+03  0.23315897391E+03  0.47000000000E+01 0. -1.
<mgrwt>
<rscale>  0 0.10000906E+04</rscale>
<asrwt>0</asrwt>
<pdfrwt beam="1">  1        2 0.14378927E+00 0.10000906E+04</pdfrwt>
<pdfrwt beam="2">  1       -2 0.41159065E-01 0.10000906E+04</pdfrwt>
<totfact> 0.18795375E+02</totfact>
</mgrwt>
</event>
<event>
 9    1  0.4246427E-036  0.9871099E+03  0.7818608E-02  0.8693411E-01
          2   -1    0    0  501    0  0.00000000000E+00  0.00000000000E+00  0.15861767218E+04  0.15861767218E+04  0.00000000000E+00 0. -1.
         -2   -1    0    0    0  501 -0.00000000000E+00 -0.00000000000E+00 -0.15357461532E+03  0.15357461532E+03  0.00000000000E+00 0. -1.
         36    2    1    2    0    0  0.00000000000E+00  0.00000000000E+00  0.14326021065E+04  0.17397513371E+04  0.98710988220E+03 0.  0.
         25    2    3    3    0    0 -0.94799160062E+02 -0.80197814767E+02  0.27728268094E+03  0.32855321163E+03  0.12507180929E+03 0.  0.
         35    2    3    3    0    0  0.94799160062E+02  0.80197814767E+02  0.11553194255E+04  0.14111981255E+04  0.80081121629E+03 0.  0.
         22    1    5    5    0    0 -0.91289642783E+02  0.45289437293E+02 -0.99351255594E+02  0.14232218379E+03  0.00000000000E+00 0.  1.
         22    1    5    5    0    0  0.18608880284E+03  0.34908377474E+02  0.12546706811E+04  0.12688759417E+04  0.00000000000E+00 0.  1.
          5    1    4    4  502    0 -0.81639771006E+02 -0.59101899524E+02  0.28480956447E+03  0.30215337951E+03  0.47000000000E+01 0. -1.
         -5    1    4    4    0  502 -0.13159389055E+02 -0.21095915243E+02 -0.75268835268E+01  0.26399832118E+02  0.47000000000E+01 0. -1.
<mgrwt>
<rscale>  0 0.98710988E+03</rscale>
<asrwt>0</asrwt>
<pdfrwt beam="1">  1        2 0.24402718E+00 0.98710988E+03</pdfrwt>
<pdfrwt beam="2">  1       -2 0.23626865E-01 0.98710988E+03</pdfrwt>
<totfact> 0.21468920E+02</totfact>
</mgrwt>
</event>
<event>
 9    1  0.4246427E-036  0.9998639E+03  0.7818608E-02  0.8681168E-01
          1   -1    0    0  501    0  0.00000000000E+00  0.00000000000E+00  0.21813901139E+04  0.21813901139E+04  0.00000000000E+00 0. -1.
         -1   -1    0    0    0  501 -0.00000000000E+00 -0.00000000000E+00 -0.11457461957E+03  0.11457461957E+03  0.00000000000E+00 0. -1.
         36    2    1    2    0    0  0.28421709430E-13  0.28421709430E-13  0.20668154944E+04  0.22959647335E+04  0.99986387561E+03 0.  0.
         25    2    3    3    0    0 -0.76821308561E+02 -0.10048983781E+03  0.47211058823E+03  0.50751242080E+03  0.13667746267E+03 0.  0.
         35    2    3    3    0    0  0.76821308561E+02  0.10048983781E+03  0.15947049061E+04  0.17884523127E+04  0.79967381862E+03 0.  0.
         22    1    5    5    0    0  0.17376041910E+03  0.39395204431E+03  0.54710397775E+03  0.69621380260E+03  0.00000000000E+00 0. -1.
         22    1    5    5    0    0 -0.96939110539E+02 -0.29346220650E+03  0.10476009284E+04  0.10922385101E+04  0.00000000000E+00 0. -1.
          5    1    4    4  502    0 -0.10209157722E+02  0.25532113088E+02  0.22548773938E+02  0.35869944330E+02  0.47000000000E+01 0.  1.
         -5    1    4    4    0  502 -0.66612150839E+02 -0.12602195090E+03  0.44956181429E+03  0.47164247647E+03  0.47000000000E+01 0.  1.
<mgrwt>
<rscale>  0 0.99986388E+03</rscale>
<asrwt>0</asrwt>
<pdfrwt beam="1">  1        1 0.33559845E+00 0.99986388E+03</pdfrwt>
<pdfrwt beam="2">  1       -1 0.17626866E-01 0.99986388E+03</pdfrwt>
<totfact> 0.58487296E+01</totfact>
</mgrwt>
</event>
<event>
 9    1  0.4246427E-036  0.1000864E+04  0.7818608E-02  0.8680215E-01
         -2   -1    0    0    0  501 -0.00000000000E+00  0.00000000000E+00  0.22117679056E+03  0.22117679056E+03  0.00000000000E+00 0.  1.
          2   -1    0    0  501    0  0.00000000000E+00 -0.00000000000E+00 -0.11322720910E+04  0.11322720910E+04  0.00000000000E+00 0.  1.
         36    2    1    2    0    0  0.00000000000E+00 -0.71054273576E-14 -0.91109530043E+03  0.13534488816E+04  0.10008642408E+04 0.  0.
         25    2    3    3    0    0 -0.11307877599E+03  0.47727320977E+02 -0.77587324519E+02  0.19168031480E+03  0.12512730880E+03 0.  0.
         35    2    3    3    0    0  0.11307877599E+03 -0.47727320977E+02 -0.83350797591E+03  0.11617685668E+04  0.79994121663E+03 0.  0.
         22    1    5    5    0    0  0.22165417831E+03  0.29452530611E+03 -0.16696197742E+03  0.40466286289E+03  0.00000000000E+00 0.  1.
         22    1    5    5    0    0 -0.10857540231E+03 -0.34225262708E+03 -0.66654599849E+03  0.75710570387E+03  0.00000000000E+00 0.  1.
          5    1    4    4  502    0 -0.53292427409E+02  0.30062159538E+01  0.29410051204E+02  0.61124146336E+02  0.47000000000E+01 0. -1.
         -5    1    4    4    0  502 -0.59786348584E+02  0.44721105024E+02 -0.10699737572E+03  0.13055616846E+03  0.47000000000E+01 0. -1.
<mgrwt>
<rscale>  0 0.10008642E+04</rscale>
<asrwt>0</asrwt>
<pdfrwt beam="1">  1        2 0.17419571E+00 0.10008642E+04</pdfrwt>
<pdfrwt beam="2">  1       -2 0.34027198E-01 0.10008642E+04</pdfrwt>
<totfact> 0.20296156E+02</totfact>
</mgrwt>
</event>
<event>
 9    1  0.4246427E-036  0.1000436E+04  0.7818608E-02  0.8680622E-01
         -1   -1    0    0    0  501 -0.00000000000E+00  0.00000000000E+00  0.70174734889E+03  0.70174734889E+03  0.00000000000E+00 0. -1.
          1   -1    0    0  501    0  0.00000000000E+00 -0.00000000000E+00 -0.35656461602E+03  0.35656461602E+03  0.00000000000E+00 0. -1.
         36    2    1    2    0    0 -0.42632564146E-13  0.00000000000E+00  0.34518273287E+03  0.10583119649E+04  0.10004364527E+04 0.  0.
         25    2    3    3    0    0  0.40784337678E+02 -0.13792865813E+03  0.44400884635E+02  0.19542942264E+03  0.12463363808E+03 0.  0.
         35    2    3    3    0    0 -0.40784337678E+02  0.13792865813E+03  0.30078184824E+03  0.86288254227E+03  0.79586989174E+03 0.  0.
         22    1    5    5    0    0  0.33255161103E+03  0.23462023025E+03  0.23996663237E+03  0.47246292033E+03  0.00000000000E+00 0. -1.
         22    1    5    5    0    0 -0.37333594870E+03 -0.96691572114E+02  0.60815215870E+02  0.39041962194E+03  0.00000000000E+00 0. -1.
          5    1    4    4  502    0  0.61475199206E+02 -0.47897291088E+02  0.63911152807E+02  0.10089636299E+03  0.47000000000E+01 0. -1.
         -5    1    4    4    0  502 -0.20690861528E+02 -0.90031367047E+02 -0.19510268172E+02  0.94533059652E+02  0.47000000000E+01 0. -1.
<mgrwt>
<rscale>  0 0.10004365E+04</rscale>
<asrwt>0</asrwt>
<pdfrwt beam="1">  1        1 0.54856095E-01 0.10004365E+04</pdfrwt>
<pdfrwt beam="2">  1       -1 0.10796113E+00 0.10004365E+04</pdfrwt>
<totfact> 0.67003852E+01</totfact>
</mgrwt>
</event>
<event>
 9    1  0.4246427E-036  0.9998099E+03  0.7818608E-02  0.8681219E-01
          1   -1    0    0  501    0  0.00000000000E+00  0.00000000000E+00  0.69004082982E+03  0.69004082982E+03  0.00000000000E+00 0. -1.
         -1   -1    0    0    0  501 -0.00000000000E+00 -0.00000000000E+00 -0.36215963568E+03  0.36215963568E+03  0.00000000000E+00 0. -1.
         36    2    1    2    0    0  0.00000000000E+00 -0.28421709430E-13  0.32788119413E+03  0.10522004655E+04  0.99980985299E+03 0.  0.
         25    2    3    3    0    0  0.10820434279E+02 -0.12508727812E+03 -0.18100694769E+01  0.17835703774E+03  0.12666510022E+03 0.  0.
         35    2    3    3    0    0 -0.10820434279E+02  0.12508727812E+03  0.32969126361E+03  0.87384342776E+03  0.79946363143E+03 0.  0.
         22    1    5    5    0    0  0.88722635661E+02  0.42864570174E+03  0.33992256804E+03  0.55421674096E+03  0.00000000000E+00 0. -1.
         22    1    5    5    0    0 -0.99543069940E+02 -0.30355842362E+03 -0.10231304431E+02  0.31962668680E+03  0.00000000000E+00 0. -1.
          5    1    4    4  502    0  0.63367476950E+02 -0.63587711142E+02 -0.26382477189E+02  0.93685427074E+02  0.47000000000E+01 0.  1.
         -5    1    4    4    0  502 -0.52547042671E+02 -0.61499566980E+02  0.24572407712E+02  0.84671610667E+02  0.47000000000E+01 0.  1.
<mgrwt>
<rscale>  0 0.99980985E+03</rscale>
<asrwt>0</asrwt>
<pdfrwt beam="1">  1        1 0.10616013E+00 0.99980985E+03</pdfrwt>
<pdfrwt beam="2">  1       -1 0.55716867E-01 0.99980985E+03</pdfrwt>
<totfact> 0.10444751E+02</totfact>
</mgrwt>
</event>
<event>
 9    1  0.4246427E-036  0.9998721E+03  0.7818608E-02  0.8681160E-01
         -4   -1    0    0    0  501 -0.00000000000E+00  0.00000000000E+00  0.28406377332E+03  0.28406377332E+03  0.00000000000E+00 0.  1.
          4   -1    0    0  501    0  0.00000000000E+00 -0.00000000000E+00 -0.87985887484E+03  0.87985887484E+03  0.00000000000E+00 0.  1.
         36    2    1    2    0    0  0.00000000000E+00  0.00000000000E+00 -0.59579510151E+03  0.11639226482E+04  0.99987205577E+03 0.  0.
         25    2    3    3    0    0  0.99002630597E+02 -0.65106128538E+02 -0.20107142014E+03  0.26385646038E+03  0.12308609528E+03 0.  0.
         35    2    3    3    0    0 -0.99002630597E+02  0.65106128538E+02 -0.39472368137E+03  0.90006618777E+03  0.80017000000E+03 0.  0.
         22    1    5    5    0    0 -0.30665247435E+03  0.34641806457E+02  0.13004625006E+03  0.33488478905E+03  0.00000000000E+00 0.  1.
         22    1    5    5    0    0  0.20764984375E+03  0.30464322080E+02 -0.52476993144E+03  0.56518139873E+03  0.00000000000E+00 0.  1.
          5    1    4    4  502    0  0.12481560654E+03 -0.63360421991E+02 -0.14326726106E+03  0.20035238157E+03  0.47000000000E+01 0.  1.
         -5    1    4    4    0  502 -0.25812975945E+02 -0.17457065470E+01 -0.57804159084E+02  0.63504078813E+02  0.47000000000E+01 0.  1.
<mgrwt>
<rscale>  0 0.99987206E+03</rscale>
<asrwt>0</asrwt>
<pdfrwt beam="1">  1        4 0.13536290E+00 0.99987206E+03</pdfrwt>
<pdfrwt beam="2">  1       -4 0.43702119E-01 0.99987206E+03</pdfrwt>
<totfact> 0.41171121E+00</totfact>
</mgrwt>
</event>
<event>
 9    1  0.4246427E-036  0.9997533E+03  0.7818608E-02  0.8681273E-01
          1   -1    0    0  501    0  0.00000000000E+00  0.00000000000E+00  0.42502985276E+03  0.42502985276E+03  0.00000000000E+00 0. -1.
         -1   -1    0    0    0  501 -0.00000000000E+00 -0.00000000000E+00 -0.58790378508E+03  0.58790378508E+03  0.00000000000E+00 0. -1.
         36    2    1    2    0    0  0.71054273576E-14  0.14210854715E-13 -0.16287393232E+03  0.10129336378E+04  0.99975328798E+03 0.  0.
         25    2    3    3    0    0  0.44523407651E+01 -0.12570442134E+03  0.23400279370E+02  0.17959088684E+03  0.12603130039E+03 0.  0.
         35    2    3    3    0    0 -0.44523407651E+01  0.12570442134E+03 -0.18627421169E+03  0.83334275100E+03  0.80245911660E+03 0.  0.
         22    1    5    5    0    0  0.33131824850E+03  0.20592484632E+03  0.78943942367E+02  0.39800624387E+03  0.00000000000E+00 0.  1.
         22    1    5    5    0    0 -0.33577058926E+03 -0.80220424980E+02 -0.26521815406E+03  0.43533650713E+03  0.00000000000E+00 0.  1.
          5    1    4    4  502    0 -0.41653488920E+02 -0.14233365232E+02 -0.23451775619E+02  0.50096682572E+02  0.47000000000E+01 0. -1.
         -5    1    4    4    0  502  0.46105829685E+02 -0.11147105611E+03  0.46852054989E+02  0.12949420427E+03  0.47000000000E+01 0. -1.
<mgrwt>
<rscale>  0 0.99975329E+03</rscale>
<asrwt>0</asrwt>
<pdfrwt beam="1">  1        1 0.65389208E-01 0.99975329E+03</pdfrwt>
<pdfrwt beam="2">  1       -1 0.90446736E-01 0.99975329E+03</pdfrwt>
<totfact> 0.78678980E+01</totfact>
</mgrwt>
</event>
<event>
 9    1  0.4246427E-036  0.1000090E+04  0.7818608E-02  0.8680952E-01
         -2   -1    0    0    0  501 -0.00000000000E+00  0.00000000000E+00  0.21992573015E+03  0.21992573015E+03  0.00000000000E+00 0. -1.
          2   -1    0    0  501    0  0.00000000000E+00 -0.00000000000E+00 -0.11369530979E+04  0.11369530979E+04  0.00000000000E+00 0. -1.
         36    2    1    2    0    0  0.71054273576E-14  0.14210854715E-13 -0.91702736773E+03  0.13568788280E+04  0.10000904763E+04 0.  0.
         25    2    3    3    0    0  0.21171154934E+01  0.75062517185E+02 -0.13784386310E+02  0.14621061508E+03  0.12469431018E+03 0.  0.
         35    2    3    3    0    0 -0.21171154934E+01 -0.75062517185E+02 -0.90324298142E+03  0.12106682130E+04  0.80263987860E+03 0.  0.
         22    1    5    5    0    0 -0.37096273348E+03  0.85376569782E+02 -0.29558979826E+03  0.48195003593E+03  0.00000000000E+00 0.  1.
         22    1    5    5    0    0  0.36884561798E+03 -0.16043908697E+03 -0.60765318316E+03  0.72871817703E+03  0.00000000000E+00 0.  1.
          5    1    4    4  502    0  0.13574226961E+02  0.45724593762E+02 -0.68084199937E+02  0.83261914422E+02  0.47000000000E+01 0. -1.
         -5    1    4    4    0  502 -0.11457111467E+02  0.29337923424E+02  0.54299813627E+02  0.62948700653E+02  0.47000000000E+01 0. -1.
<mgrwt>
<rscale>  0 0.10000905E+04</rscale>
<asrwt>0</asrwt>
<pdfrwt beam="1">  1        2 0.17491586E+00 0.10000905E+04</pdfrwt>
<pdfrwt beam="2">  1       -2 0.33834728E-01 0.10000905E+04</pdfrwt>
<totfact> 0.20378874E+02</totfact>
</mgrwt>
</event>
<event>
 9    1  0.4246427E-036  0.1000302E+04  0.7818608E-02  0.8680751E-01
         -3   -1    0    0    0  501 -0.00000000000E+00  0.00000000000E+00  0.43492322898E+03  0.43492322898E+03  0.00000000000E+00 0.  1.
          3   -1    0    0  501    0  0.00000000000E+00 -0.00000000000E+00 -0.57516079543E+03  0.57516079543E+03  0.00000000000E+00 0.  1.
         36    2    1    2    0    0  0.28421709430E-13  0.71054273576E-14 -0.14023756644E+03  0.10100840244E+04  0.10003015352E+04 0.  0.
         25    2    3    3    0    0  0.24207259242E+02  0.36702499311E+02 -0.15984814276E+03  0.20891548616E+03  0.12712665637E+03 0.  0.
         35    2    3    3    0    0 -0.24207259242E+02 -0.36702499311E+02  0.19610576313E+02  0.80116853825E+03  0.79972081824E+03 0.  0.
         22    1    5    5    0    0  0.29787824213E+03 -0.10643206452E+03 -0.22718685645E+03  0.38945230676E+03  0.00000000000E+00 0.  1.
         22    1    5    5    0    0 -0.32208550137E+03  0.69729565213E+02  0.24679743277E+03  0.41171623150E+03  0.00000000000E+00 0.  1.
          5    1    4    4  502    0  0.28419632842E+02  0.32456528301E+02 -0.18116088751E+03  0.18628596009E+03  0.47000000000E+01 0.  1.
         -5    1    4    4    0  502 -0.42123735993E+01  0.42459710099E+01  0.21312744758E+02  0.22629526073E+02  0.47000000000E+01 0.  1.
<mgrwt>
<rscale>  0 0.10003015E+04</rscale>
<asrwt>0</asrwt>
<pdfrwt beam="1">  1        3 0.88486276E-01 0.10003015E+04</pdfrwt>
<pdfrwt beam="2">  1       -3 0.66911266E-01 0.10003015E+04</pdfrwt>
<totfact> 0.10146170E+01</totfact>
</mgrwt>
</event>
<event>
 9    1  0.4246427E-036  0.9996779E+03  0.7818608E-02  0.8681345E-01
         -2   -1    0    0    0  501 -0.00000000000E+00  0.00000000000E+00  0.12500372423E+03  0.12500372423E+03  0.00000000000E+00 0. -1.
          2   -1    0    0  501    0  0.00000000000E+00 -0.00000000000E+00 -0.19986522752E+04  0.19986522752E+04  0.00000000000E+00 0. -1.
         36    2    1    2    0    0  0.00000000000E+00 -0.71054273576E-14 -0.18736485510E+04  0.21236559995E+04  0.99967790383E+03 0.  0.
         25    2    3    3    0    0  0.31304258644E+02 -0.14050126077E+02 -0.62818716450E+02  0.14329786187E+03  0.12413993486E+03 0.  0.
         35    2    3    3    0    0 -0.31304258644E+02  0.14050126077E+02 -0.18108298346E+04  0.19803581376E+04  0.80095961247E+03 0.  0.
         22    1    5    5    0    0 -0.22249762174E+03 -0.32762371835E+03 -0.72532442960E+03  0.82640064174E+03  0.00000000000E+00 0.  1.
         22    1    5    5    0    0  0.19119336310E+03  0.34167384443E+03 -0.10855054050E+04  0.11539574959E+04  0.00000000000E+00 0.  1.
          5    1    4    4  502    0  0.31674541952E+02 -0.47780342408E+02  0.14061089238E+02  0.59211839687E+02  0.47000000000E+01 0. -1.
         -5    1    4    4    0  502 -0.37028330796E+00  0.33730216331E+02 -0.76879805688E+02  0.84086022181E+02  0.47000000000E+01 0. -1.
<mgrwt>
<rscale>  0 0.99967790E+03</rscale>
<asrwt>0</asrwt>
<pdfrwt beam="1">  1        2 0.30748494E+00 0.99967790E+03</pdfrwt>
<pdfrwt beam="2">  1       -2 0.19231343E-01 0.99967790E+03</pdfrwt>
<totfact> 0.17968498E+02</totfact>
</mgrwt>
</event>
<event>
 9    1  0.4246427E-036  0.1000342E+04  0.7818608E-02  0.8680713E-01
          2   -1    0    0  501    0  0.00000000000E+00  0.00000000000E+00  0.35188956213E+04  0.35188956213E+04  0.00000000000E+00 0. -1.
         -2   -1    0    0    0  501 -0.00000000000E+00 -0.00000000000E+00 -0.71093565020E+02  0.71093565020E+02  0.00000000000E+00 0. -1.
         36    2    1    2    0    0  0.71054273576E-14 -0.28421709430E-13  0.34478020563E+04  0.35899891863E+04  0.10003416110E+04 0.  0.
         25    2    3    3    0    0 -0.22689378611E+02 -0.10148677414E+03  0.30955560727E+03  0.34964653697E+03  0.12495460614E+03 0.  0.
         35    2    3    3    0    0  0.22689378611E+02  0.10148677414E+03  0.31382464490E+04  0.32403426493E+04  0.80025954367E+03 0.  0.
         22    1    5    5    0    0  0.17015149270E+03  0.41403981834E+03  0.20596449711E+04  0.21077281392E+04  0.00000000000E+00 0.  1.
         22    1    5    5    0    0 -0.14746211409E+03 -0.31255304420E+03  0.10786014779E+04  0.11326145101E+04  0.00000000000E+00 0.  1.
          5    1    4    4  502    0 -0.65961715186E+02 -0.59080225644E+02  0.11141632823E+03  0.14239771462E+03  0.47000000000E+01 0.  1.
         -5    1    4    4    0  502  0.43272336576E+02 -0.42406548501E+02  0.19813927904E+03  0.20724882235E+03  0.47000000000E+01 0.  1.
<mgrwt>
<rscale>  0 0.10003416E+04</rscale>
<asrwt>0</asrwt>
<pdfrwt beam="1">  1        2 0.54136842E+00 0.10003416E+04</pdfrwt>
<pdfrwt beam="2">  1       -2 0.10937474E-01 0.10003416E+04</pdfrwt>
<totfact> 0.48254256E+01</totfact>
</mgrwt>
</event>
<event>
 9    1  0.4246427E-036  0.1000510E+04  0.7818608E-02  0.8680553E-01
         -2   -1    0    0    0  501 -0.00000000000E+00  0.00000000000E+00  0.46914181191E+03  0.46914181191E+03  0.00000000000E+00 0. -1.
          2   -1    0    0  501    0  0.00000000000E+00 -0.00000000000E+00 -0.53343134125E+03  0.53343134125E+03  0.00000000000E+00 0. -1.
         36    2    1    2    0    0 -0.56843418861E-13 -0.28421709430E-13 -0.64289529334E+02  0.10025731532E+04  0.10005097620E+04 0.  0.
         25    2    3    3    0    0  0.11631300607E+03 -0.13290562819E+01  0.57779209662E+02  0.18497128905E+03  0.13170215994E+03 0.  0.
         35    2    3    3    0    0 -0.11631300607E+03  0.13290562819E+01 -0.12206873900E+03  0.81760186411E+03  0.80002596795E+03 0.  0.
         22    1    5    5    0    0 -0.27889650689E+03  0.32938128837E+03 -0.13201862180E+03  0.45133602912E+03  0.00000000000E+00 0.  1.
         22    1    5    5    0    0  0.16258350083E+03 -0.32805223208E+03  0.99498828008E+01  0.36626583499E+03  0.00000000000E+00 0.  1.
          5    1    4    4  502    0  0.45940474606E+02  0.60360661637E+02  0.49945487837E+02  0.90942720630E+02  0.47000000000E+01 0. -1.
         -5    1    4    4    0  502  0.70372531459E+02 -0.61689717919E+02  0.78337218246E+01  0.94028568417E+02  0.47000000000E+01 0. -1.
<mgrwt>
<rscale>  0 0.10005098E+04</rscale>
<asrwt>0</asrwt>
<pdfrwt beam="1">  1        2 0.82066361E-01 0.10005098E+04</pdfrwt>
<pdfrwt beam="2">  1       -2 0.72175663E-01 0.10005098E+04</pdfrwt>
<totfact> 0.11996103E+02</totfact>
</mgrwt>
</event>
<event>
 9    1  0.4246427E-036  0.1000550E+04  0.7818608E-02  0.8680514E-01
          2   -1    0    0  501    0  0.00000000000E+00  0.00000000000E+00  0.98688118720E+03  0.98688118720E+03  0.00000000000E+00 0.  1.
         -2   -1    0    0    0  501 -0.00000000000E+00 -0.00000000000E+00 -0.25360212687E+03  0.25360212687E+03  0.00000000000E+00 0.  1.
         36    2    1    2    0    0  0.28421709430E-13 -0.14210854715E-13  0.73327906033E+03  0.12404833141E+04  0.10005501847E+04 0.  0.
         25    2    3    3    0    0 -0.12895009614E+03  0.37621062622E+02  0.86194929372E+02  0.20273994094E+03  0.12502178272E+03 0.  0.
         35    2    3    3    0    0  0.12895009614E+03 -0.37621062622E+02  0.64708413096E+03  0.10377433731E+04  0.80009372219E+03 0.  0.
         22    1    5    5    0    0  0.40145254759E+03 -0.24152214906E+03  0.33476603599E+03  0.57581715441E+03  0.00000000000E+00 0.  1.
         22    1    5    5    0    0 -0.27250245146E+03  0.20390108644E+03  0.31231809496E+03  0.46192621872E+03  0.00000000000E+00 0.  1.
          5    1    4    4  502    0 -0.10161995350E+03  0.71244162942E+02  0.97291410545E+02  0.15776582098E+03  0.47000000000E+01 0. -1.
         -5    1    4    4    0  502 -0.27330142637E+02 -0.33623100320E+02 -0.11096481173E+02  0.44974119959E+02  0.47000000000E+01 0. -1.
<mgrwt>
<rscale>  0 0.10005502E+04</rscale>
<asrwt>0</asrwt>
<pdfrwt beam="1">  1        2 0.15182787E+00 0.10005502E+04</pdfrwt>
<pdfrwt beam="2">  1       -2 0.39015712E-01 0.10005502E+04</pdfrwt>
<totfact> 0.19280917E+02</totfact>
</mgrwt>
</event>
<event>
 9    1  0.4246427E-036  0.9995068E+03  0.7818608E-02  0.8681508E-01
         -2   -1    0    0    0  501 -0.00000000000E+00  0.00000000000E+00  0.14800825000E+03  0.14800825000E+03  0.00000000000E+00 0.  1.
          2   -1    0    0  501    0  0.00000000000E+00 -0.00000000000E+00 -0.16874291744E+04  0.16874291744E+04  0.00000000000E+00 0.  1.
         36    2    1    2    0    0  0.35527136788E-14  0.28421709430E-13 -0.15394209244E+04  0.18354374244E+04  0.99950675657E+03 0.  0.
         25    2    3    3    0    0  0.40792484891E+01  0.13128867209E+03 -0.36139658221E+03  0.40541058402E+03  0.12844024414E+03 0.  0.
         35    2    3    3    0    0 -0.40792484891E+01 -0.13128867209E+03 -0.11780243422E+04  0.14300268404E+04  0.79998878601E+03 0.  0.
         22    1    5    5    0    0  0.44434129955E+02 -0.44561259734E+03 -0.44663058554E+03  0.63247439375E+03  0.00000000000E+00 0. -1.
         22    1    5    5    0    0 -0.48513378444E+02  0.31432392524E+03 -0.73139375663E+03  0.79755244662E+03  0.00000000000E+00 0. -1.
          5    1    4    4  502    0  0.19018303625E+02 -0.18258435488E+02 -0.23741803284E+02  0.35788679250E+02  0.47000000000E+01 0.  1.
         -5    1    4    4    0  502 -0.14939055136E+02  0.14954710758E+03 -0.33765477893E+03  0.36962190477E+03  0.47000000000E+01 0.  1.
<mgrwt>
<rscale>  0 0.99950676E+03</rscale>
<asrwt>0</asrwt>
<pdfrwt beam="1">  1        2 0.25960449E+00 0.99950676E+03</pdfrwt>
<pdfrwt beam="2">  1       -2 0.22770500E-01 0.99950676E+03</pdfrwt>
<totfact> 0.20088184E+02</totfact>
</mgrwt>
</event>
<event>
 9    1  0.4246427E-036  0.1000582E+04  0.7818608E-02  0.8680484E-01
         -1   -1    0    0    0  501 -0.00000000000E+00  0.00000000000E+00  0.65594301202E+03  0.65594301202E+03  0.00000000000E+00 0. -1.
          1   -1    0    0  501    0  0.00000000000E+00 -0.00000000000E+00 -0.38157437927E+03  0.38157437927E+03  0.00000000000E+00 0. -1.
         36    2    1    2    0    0  0.00000000000E+00  0.71054273576E-14  0.27436863275E+03  0.10375173913E+04  0.10005819260E+04 0.  0.
         25    2    3    3    0    0 -0.13385784952E+03  0.20025158410E+02  0.50316102789E+01  0.18329024422E+03  0.12349520507E+03 0.  0.
         35    2    3    3    0    0  0.13385784952E+03 -0.20025158410E+02  0.26933702247E+03  0.85422714708E+03  0.79927633287E+03 0.  0.
         22    1    5    5    0    0  0.42447200083E+02  0.23042936021E+03  0.46689899375E+03  0.52239269253E+03  0.00000000000E+00 0. -1.
         22    1    5    5    0    0  0.91410649441E+02 -0.25045451862E+03 -0.19756197128E+03  0.33183445455E+03  0.00000000000E+00 0. -1.
          5    1    4    4  502    0 -0.73909335021E+02  0.71249177786E+02 -0.86143304469E+01  0.10312774519E+03  0.47000000000E+01 0. -1.
         -5    1    4    4    0  502 -0.59948514503E+02 -0.51224019376E+02  0.13645940726E+02  0.80162499028E+02  0.47000000000E+01 0. -1.
<mgrwt>
<rscale>  0 0.10005819E+04</rscale>
<asrwt>0</asrwt>
<pdfrwt beam="1">  1        1 0.58703751E-01 0.10005819E+04</pdfrwt>
<pdfrwt beam="2">  1       -1 0.10091431E+00 0.10005819E+04</pdfrwt>
<totfact> 0.71465189E+01</totfact>
</mgrwt>
</event>
<event>
 9    1  0.4246427E-036  0.9994294E+03  0.7818608E-02  0.8681582E-01
          2   -1    0    0  501    0  0.00000000000E+00  0.00000000000E+00  0.31286091329E+04  0.31286091329E+04  0.00000000000E+00 0. -1.
         -2   -1    0    0    0  501 -0.00000000000E+00 -0.00000000000E+00 -0.79816541486E+02  0.79816541486E+02  0.00000000000E+00 0. -1.
         36    2    1    2    0    0  0.71054273576E-14  0.28421709430E-13  0.30487925914E+04  0.32084256744E+04  0.99942935848E+03 0.  0.
         25    2    3    3    0    0  0.55330784333E+02  0.12593591763E+03  0.63978148259E+03  0.66634289242E+03  0.12558325431E+03 0.  0.
         35    2    3    3    0    0 -0.55330784333E+02 -0.12593591763E+03  0.24090111088E+04  0.25420827819E+04  0.79995562183E+03 0.  0.
         22    1    5    5    0    0  0.20876354901E+03 -0.37638753559E+03  0.10406810560E+04  0.11261735464E+04  0.00000000000E+00 0.  1.
         22    1    5    5    0    0 -0.26409433335E+03  0.25045161796E+03  0.13683300528E+04  0.14159092355E+04  0.00000000000E+00 0.  1.
          5    1    4    4  502    0  0.67234945038E+02  0.82872025468E+01  0.22997654619E+03  0.23979265493E+03  0.47000000000E+01 0.  1.
         -5    1    4    4    0  502 -0.11904160705E+02  0.11764871508E+03  0.40980493641E+03  0.42655023749E+03  0.47000000000E+01 0.  1.
<mgrwt>
<rscale>  0 0.99942936E+03</rscale>
<asrwt>0</asrwt>
<pdfrwt beam="1">  1        2 0.48132439E+00 0.99942936E+03</pdfrwt>
<pdfrwt beam="2">  1       -2 0.12279470E-01 0.99942936E+03</pdfrwt>
<totfact> 0.76367268E+01</totfact>
</mgrwt>
</event>
<event>
 9    1  0.4246427E-036  0.1000346E+04  0.7818608E-02  0.8680708E-01
         -1   -1    0    0    0  501 -0.00000000000E+00  0.00000000000E+00  0.11461797848E+04  0.11461797848E+04  0.00000000000E+00 0.  1.
          1   -1    0    0  501    0  0.00000000000E+00 -0.00000000000E+00 -0.21826690473E+03  0.21826690473E+03  0.00000000000E+00 0.  1.
         36    2    1    2    0    0 -0.14210854715E-13  0.28421709430E-13  0.92791288009E+03  0.13644466895E+04  0.10003461679E+04 0.  0.
         25    2    3    3    0    0  0.57037354129E+02 -0.12135946197E+03  0.12396664864E+03  0.22128710029E+03  0.12497548562E+03 0.  0.
         35    2    3    3    0    0 -0.57037354129E+02  0.12135946197E+03  0.80394623145E+03  0.11431595893E+04  0.80156280145E+03 0.  0.
         22    1    5    5    0    0  0.16254535187E+03 -0.19368254912E+03  0.71618175287E+00  0.25285259374E+03  0.00000000000E+00 0.  1.
         22    1    5    5    0    0 -0.21958270599E+03  0.31504201109E+03  0.80323004970E+03  0.89030699551E+03  0.00000000000E+00 0.  1.
          5    1    4    4  502    0  0.82786850150E+02 -0.72834302324E+02  0.33489996602E+02  0.11533502515E+03  0.47000000000E+01 0.  1.
         -5    1    4    4    0  502 -0.25749496021E+02 -0.48525159642E+02  0.90476652040E+02  0.10595207515E+03  0.47000000000E+01 0.  1.
<mgrwt>
<rscale>  0 0.10003462E+04</rscale>
<asrwt>0</asrwt>
<pdfrwt beam="1">  1        1 0.33579524E-01 0.10003462E+04</pdfrwt>
<pdfrwt beam="2">  1       -1 0.17633535E+00 0.10003462E+04</pdfrwt>
<totfact> 0.32724177E+01</totfact>
</mgrwt>
</event>
<event>
 9    1  0.4246427E-036  0.9994953E+03  0.7818608E-02  0.8681519E-01
          2   -1    0    0  501    0  0.00000000000E+00  0.00000000000E+00  0.13502389388E+04  0.13502389388E+04  0.00000000000E+00 0. -1.
         -2   -1    0    0    0  501 -0.00000000000E+00 -0.00000000000E+00 -0.18496557321E+03  0.18496557321E+03  0.00000000000E+00 0. -1.
         36    2    1    2    0    0  0.00000000000E+00  0.00000000000E+00  0.11652733656E+04  0.15352045120E+04  0.99949531119E+03 0.  0.
         25    2    3    3    0    0  0.82121154654E+02 -0.58833797283E+02  0.70929757198E+02  0.17592258625E+03  0.12534921679E+03 0.  0.
         35    2    3    3    0    0 -0.82121154654E+02  0.58833797283E+02  0.10943436084E+04  0.13592819257E+04  0.79990882024E+03 0.  0.
         22    1    5    5    0    0  0.15227139477E+03 -0.50579352177E+01 -0.71568180405E+02  0.16832755217E+03  0.00000000000E+00 0. -1.
         22    1    5    5    0    0 -0.23439254942E+03  0.63891732501E+02  0.11659117888E+04  0.11909543735E+04  0.00000000000E+00 0. -1.
          5    1    4    4  502    0 -0.91838508632E+01  0.83208647532E+01  0.60579229482E+02  0.62012200021E+02  0.47000000000E+01 0. -1.
         -5    1    4    4    0  502  0.91305005517E+02 -0.67154662037E+02  0.10350527717E+02  0.11391038622E+03  0.47000000000E+01 0. -1.
<mgrwt>
<rscale>  0 0.99949531E+03</rscale>
<asrwt>0</asrwt>
<pdfrwt beam="1">  1        2 0.20772906E+00 0.99949531E+03</pdfrwt>
<pdfrwt beam="2">  1       -2 0.28456243E-01 0.99949531E+03</pdfrwt>
<totfact> 0.20980222E+02</totfact>
</mgrwt>
</event>
<event>
 9    1  0.4246427E-036  0.1000669E+04  0.7818608E-02  0.8680401E-01
         -4   -1    0    0    0  501 -0.00000000000E+00  0.00000000000E+00  0.10915333124E+03  0.10915333124E+03  0.00000000000E+00 0.  1.
          4   -1    0    0  501    0  0.00000000000E+00 -0.00000000000E+00 -0.22934237693E+04  0.22934237693E+04  0.00000000000E+00 0.  1.
         36    2    1    2    0    0  0.00000000000E+00  0.35527136788E-14 -0.21842704380E+04  0.24025771005E+04  0.10006694646E+04 0.  0.
         25    2    3    3    0    0 -0.13842080989E+03 -0.16395654305E+02 -0.43144068325E+03  0.47060816780E+03  0.12610252315E+03 0.  0.
         35    2    3    3    0    0  0.13842080989E+03  0.16395654305E+02 -0.17528297548E+04  0.19319689327E+04  0.80041406137E+03 0.  0.
         22    1    5    5    0    0 -0.33242884551E+03 -0.48877067115E+01 -0.58958089764E+03  0.67685926297E+03  0.00000000000E+00 0.  1.
         22    1    5    5    0    0  0.47084965540E+03  0.21283361017E+02 -0.11632488572E+04  0.12551096698E+04  0.00000000000E+00 0.  1.
          5    1    4    4  502    0 -0.11370132267E+03 -0.40027016250E+02 -0.41536744017E+03  0.43253017601E+03  0.47000000000E+01 0. -1.
         -5    1    4    4    0  502 -0.24719487215E+02  0.23631361945E+02 -0.16073243086E+02  0.38077991791E+02  0.47000000000E+01 0. -1.
<mgrwt>
<rscale>  0 0.10006695E+04</rscale>
<asrwt>0</asrwt>
<pdfrwt beam="1">  1        4 0.35283443E+00 0.10006695E+04</pdfrwt>
<pdfrwt beam="2">  1       -4 0.16792820E-01 0.10006695E+04</pdfrwt>
<totfact> 0.70510382E-01</totfact>
</mgrwt>
</event>
<event>
 9    1  0.4246427E-036  0.1001072E+04  0.7818608E-02  0.8680018E-01
         -2   -1    0    0    0  501 -0.00000000000E+00  0.00000000000E+00  0.27533058651E+03  0.27533058651E+03  0.00000000000E+00 0. -1.
          2   -1    0    0  501    0  0.00000000000E+00 -0.00000000000E+00 -0.90994706879E+03  0.90994706879E+03  0.00000000000E+00 0. -1.
         36    2    1    2    0    0  0.28421709430E-13 -0.42632564146E-13 -0.63461648228E+03  0.11852776553E+04  0.10010719457E+04 0.  0.
         25    2    3    3    0    0 -0.80357310899E+02  0.38031516763E+02 -0.24391663749E+03  0.29188390889E+03  0.13340613383E+03 0.  0.
         35    2    3    3    0    0  0.80357310899E+02 -0.38031516763E+02 -0.39069984480E+03  0.89339374640E+03  0.79850004615E+03 0.  0.
         22    1    5    5    0    0  0.23803885625E+03 -0.36764254198E+03 -0.21892477582E+03  0.48964435382E+03  0.00000000000E+00 0. -1.
         22    1    5    5    0    0 -0.15768154535E+03  0.32961102522E+03 -0.17177506898E+03  0.40374939258E+03  0.00000000000E+00 0. -1.
          5    1    4    4  502    0 -0.50997739690E+00  0.24960155571E+02  0.84896148666E+01  0.26784939866E+02  0.47000000000E+01 0.  1.
         -5    1    4    4    0  502 -0.79847333502E+02  0.13071361192E+02 -0.25240625235E+03  0.26509896902E+03  0.47000000000E+01 0.  1.
<mgrwt>
<rscale>  0 0.10010719E+04</rscale>
<asrwt>0</asrwt>
<pdfrwt beam="1">  1        2 0.13999186E+00 0.10010719E+04</pdfrwt>
<pdfrwt beam="2">  1       -2 0.42358551E-01 0.10010719E+04</pdfrwt>
<totfact> 0.18451904E+02</totfact>
</mgrwt>
</event>
<event>
 9    1  0.4246427E-036  0.9998435E+03  0.7818608E-02  0.8681187E-01
         -2   -1    0    0    0  501 -0.00000000000E+00  0.00000000000E+00  0.92324229080E+03  0.92324229080E+03  0.00000000000E+00 0. -1.
          2   -1    0    0  501    0  0.00000000000E+00 -0.00000000000E+00 -0.27070006731E+03  0.27070006731E+03  0.00000000000E+00 0. -1.
         36    2    1    2    0    0  0.28421709430E-13  0.00000000000E+00  0.65254222349E+03  0.11939423581E+04  0.99984348828E+03 0.  0.
         25    2    3    3    0    0 -0.57266376840E+02  0.12444750168E+03  0.15075668405E+03  0.23982013869E+03  0.12656817351E+03 0.  0.
         35    2    3    3    0    0  0.57266376840E+02 -0.12444750168E+03  0.50178553945E+03  0.95412221942E+03  0.79987115425E+03 0.  0.
         22    1    5    5    0    0 -0.30631306090E+03 -0.54407733642E+02 -0.22896236759E+02  0.31194892277E+03  0.00000000000E+00 0.  1.
         22    1    5    5    0    0  0.36357943774E+03 -0.70039768040E+02  0.52468177620E+03  0.64217329665E+03  0.00000000000E+00 0.  1.
          5    1    4    4  502    0 -0.42403519963E+02 -0.96201256232E+01  0.69986457012E+02  0.82527568045E+02  0.47000000000E+01 0. -1.
         -5    1    4    4    0  502 -0.14862856876E+02  0.13406762731E+03  0.80770227036E+02  0.15729257065E+03  0.47000000000E+01 0. -1.
<mgrwt>
<rscale>  0 0.99984349E+03</rscale>
<asrwt>0</asrwt>
<pdfrwt beam="1">  1        2 0.41646165E-01 0.99984349E+03</pdfrwt>
<pdfrwt beam="2">  1       -2 0.14203727E+00 0.99984349E+03</pdfrwt>
<totfact> 0.48578123E+01</totfact>
</mgrwt>
</event>
<event>
 9    1  0.4246427E-036  0.9997767E+03  0.7818608E-02  0.8681251E-01
          1   -1    0    0  501    0  0.00000000000E+00  0.00000000000E+00  0.10819371324E+04  0.10819371324E+04  0.00000000000E+00 0. -1.
         -1   -1    0    0    0  501 -0.00000000000E+00 -0.00000000000E+00 -0.23096384851E+03  0.23096384851E+03  0.00000000000E+00 0. -1.
         36    2    1    2    0    0  0.71054273576E-14 -0.71054273576E-14  0.85097328389E+03  0.13129009809E+04  0.99977670297E+03 0.  0.
         25    2    3    3    0    0 -0.63294908980E+00  0.55311172043E+02  0.32313350907E+03  0.35277271927E+03  0.13028277092E+03 0.  0.
         35    2    3    3    0    0  0.63294908980E+00 -0.55311172043E+02  0.52783977482E+03  0.96012826165E+03  0.80010732065E+03 0.  0.
         22    1    5    5    0    0  0.37234936547E+03 -0.16962184065E+03  0.22294521345E+03  0.46596157244E+03  0.00000000000E+00 0. -1.
         22    1    5    5    0    0 -0.37171641638E+03  0.11431066861E+03  0.30489456137E+03  0.49416668921E+03  0.00000000000E+00 0. -1.
          5    1    4    4  502    0  0.49375618589E+02  0.50911281564E+02  0.27131814825E+03  0.28047377395E+03  0.47000000000E+01 0. -1.
         -5    1    4    4    0  502 -0.50008567678E+02  0.43998904791E+01  0.51815360816E+02  0.72298945318E+02  0.47000000000E+01 0. -1.
<mgrwt>
<rscale>  0 0.99977670E+03</rscale>
<asrwt>0</asrwt>
<pdfrwt beam="1">  1        1 0.16645186E+00 0.99977670E+03</pdfrwt>
<pdfrwt beam="2">  1       -1 0.35532900E-01 0.99977670E+03</pdfrwt>
<totfact> 0.10989719E+02</totfact>
</mgrwt>
</event>
<event>
 9    1  0.4246427E-036  0.9980643E+03  0.7818608E-02  0.8682884E-01
          2   -1    0    0  501    0  0.00000000000E+00  0.00000000000E+00  0.33086930712E+04  0.33086930712E+04  0.00000000000E+00 0. -1.
         -2   -1    0    0    0  501 -0.00000000000E+00 -0.00000000000E+00 -0.75266300445E+02  0.75266300445E+02  0.00000000000E+00 0. -1.
         36    2    1    2    0    0  0.28421709430E-13  0.71054273576E-14  0.32334267708E+04  0.33839593716E+04  0.99806430009E+03 0.  0.
         25    2    3    3    0    0  0.10792439663E+03 -0.45472829501E+02  0.35989705640E+03  0.39843242482E+03  0.12452731560E+03 0.  0.
         35    2    3    3    0    0 -0.10792439663E+03  0.45472829501E+02  0.28735297144E+04  0.29855269468E+04  0.80155017144E+03 0.  0.
         22    1    5    5    0    0 -0.36705156364E+03  0.19760023336E+03  0.93327097044E+03  0.10221386437E+04  0.00000000000E+00 0. -1.
         22    1    5    5    0    0  0.25912716701E+03 -0.15212740386E+03  0.19402587439E+04  0.19633883032E+04  0.00000000000E+00 0. -1.
          5    1    4    4  502    0  0.38670805564E+02 -0.12045244192E+02  0.29469475941E+03  0.29750228627E+03  0.47000000000E+01 0. -1.
         -5    1    4    4    0  502  0.69253591063E+02 -0.33427585308E+02  0.65202296984E+02  0.10093013854E+03  0.47000000000E+01 0. -1.
<mgrwt>
<rscale>  0 0.99806430E+03</rscale>
<asrwt>0</asrwt>
<pdfrwt beam="1">  1        2 0.50902959E+00 0.99806430E+03</pdfrwt>
<pdfrwt beam="2">  1       -2 0.11579433E-01 0.99806430E+03</pdfrwt>
<totfact> 0.62854839E+01</totfact>
</mgrwt>
</event>
<event>
 9    1  0.4246427E-036  0.1001148E+04  0.7818608E-02  0.8679946E-01
         -1   -1    0    0    0  501 -0.00000000000E+00  0.00000000000E+00  0.32240830907E+03  0.32240830907E+03  0.00000000000E+00 0.  1.
          1   -1    0    0  501    0  0.00000000000E+00 -0.00000000000E+00 -0.77719538392E+03  0.77719538392E+03  0.00000000000E+00 0.  1.
         36    2    1    2    0    0  0.00000000000E+00 -0.28421709430E-13 -0.45478707485E+03  0.10996036930E+04  0.10011478403E+04 0.  0.
         25    2    3    3    0    0  0.12430947475E+03  0.28413248129E+02 -0.33933089289E+02  0.18656998161E+03  0.13189672213E+03 0.  0.
         35    2    3    3    0    0 -0.12430947475E+03 -0.28413248129E+02 -0.42085398556E+03  0.91303371138E+03  0.80015768619E+03 0.  0.
         22    1    5    5    0    0  0.11950990806E+03  0.27332232713E+03 -0.43194477119E+03  0.52494189964E+03  0.00000000000E+00 0. -1.
         22    1    5    5    0    0 -0.24381938282E+03 -0.30173557526E+03  0.11090785632E+02  0.38809181174E+03  0.00000000000E+00 0. -1.
          5    1    4    4  502    0  0.75145086528E+02  0.60521202743E+02  0.28515413282E+02  0.10072149128E+03  0.47000000000E+01 0.  1.
         -5    1    4    4    0  502  0.49164388225E+02 -0.32107954614E+02 -0.62448502572E+02  0.85848490333E+02  0.47000000000E+01 0.  1.
<mgrwt>
<rscale>  0 0.10011478E+04</rscale>
<asrwt>0</asrwt>
<pdfrwt beam="1">  1        1 0.11956852E+00 0.10011478E+04</pdfrwt>
<pdfrwt beam="2">  1       -1 0.49601279E-01 0.10011478E+04</pdfrwt>
<totfact> 0.10771362E+02</totfact>
</mgrwt>
</event>
<event>
 9    1  0.4246427E-036  0.1000544E+04  0.7818608E-02  0.8680520E-01
         -4   -1    0    0    0  501 -0.00000000000E+00  0.00000000000E+00  0.88233863424E+02  0.88233863424E+02  0.00000000000E+00 0. -1.
          4   -1    0    0  501    0  0.00000000000E+00 -0.00000000000E+00 -0.28364651286E+04  0.28364651286E+04  0.00000000000E+00 0. -1.
         36    2    1    2    0    0  0.71054273576E-14 -0.14210854715E-13 -0.27482312652E+04  0.29246989920E+04  0.10005444053E+04 0.  0.
         25    2    3    3    0    0  0.26931284187E+01  0.11761321613E+03 -0.29945393145E+03  0.34517639036E+03  0.12503584227E+03 0.  0.
         35    2    3    3    0    0 -0.26931284187E+01 -0.11761321613E+03 -0.24487773337E+04  0.25795226017E+04  0.80223830673E+03 0.  0.
         22    1    5    5    0    0  0.25778352377E+03 -0.31573718450E+03 -0.79201280817E+03  0.89074497085E+03  0.00000000000E+00 0. -1.
         22    1    5    5    0    0 -0.26047665219E+03  0.19812396837E+03 -0.16567645256E+04  0.16887776308E+04  0.00000000000E+00 0. -1.
          5    1    4    4  502    0 -0.29263615005E+02  0.10922699048E+01 -0.15014970485E+03  0.15305089377E+03  0.47000000000E+01 0. -1.
         -5    1    4    4    0  502  0.31956743424E+02  0.11652094622E+03 -0.14930422660E+03  0.19212549659E+03  0.47000000000E+01 0. -1.
<mgrwt>
<rscale>  0 0.10005444E+04</rscale>
<asrwt>0</asrwt>
<pdfrwt beam="1">  1        4 0.43637933E+00 0.10005444E+04</pdfrwt>
<pdfrwt beam="2">  1       -4 0.13574438E-01 0.10005444E+04</pdfrwt>
<totfact> 0.30682982E-01</totfact>
</mgrwt>
</event>
<event>
 9    1  0.4246427E-036  0.9997123E+03  0.7818608E-02  0.8681312E-01
          2   -1    0    0  501    0  0.00000000000E+00  0.00000000000E+00  0.15888873928E+04  0.15888873928E+04  0.00000000000E+00 0. -1.
         -2   -1    0    0    0  501 -0.00000000000E+00 -0.00000000000E+00 -0.15725229644E+03  0.15725229644E+03  0.00000000000E+00 0. -1.
         36    2    1    2    0    0  0.00000000000E+00  0.00000000000E+00  0.14316350964E+04  0.17461396893E+04  0.99971234124E+03 0.  0.
         25    2    3    3    0    0 -0.13921053106E+03  0.56712229336E+01  0.26725379073E+03  0.32634893684E+03  0.12516910638E+03 0.  0.
         35    2    3    3    0    0  0.13921053106E+03 -0.56712229336E+01  0.11643813056E+04  0.14197907524E+04  0.80038129724E+03 0.  0.
         22    1    5    5    0    0  0.36915410681E+03  0.25083491327E+03  0.81462745176E+03  0.92887609155E+03  0.00000000000E+00 0.  1.
         22    1    5    5    0    0 -0.22994357575E+03 -0.25650613621E+03  0.34975385388E+03  0.49091466086E+03  0.00000000000E+00 0.  1.
          5    1    4    4  502    0 -0.12734639430E+03  0.87105663711E+01  0.28018645275E+03  0.30792777791E+03  0.47000000000E+01 0.  1.
         -5    1    4    4    0  502 -0.11864136757E+02 -0.30393434375E+01 -0.12932662016E+02  0.18421158930E+02  0.47000000000E+01 0.  1.
<mgrwt>
<rscale>  0 0.99971234E+03</rscale>
<asrwt>0</asrwt>
<pdfrwt beam="1">  1        2 0.24444420E+00 0.99971234E+03</pdfrwt>
<pdfrwt beam="2">  1       -2 0.24192662E-01 0.99971234E+03</pdfrwt>
<totfact> 0.20518542E+02</totfact>
</mgrwt>
</event>
<event>
 9    1  0.4246427E-036  0.1000528E+04  0.7818608E-02  0.8680535E-01
          2   -1    0    0  501    0  0.00000000000E+00  0.00000000000E+00  0.22675218566E+04  0.22675218566E+04  0.00000000000E+00 0. -1.
         -2   -1    0    0    0  501 -0.00000000000E+00 -0.00000000000E+00 -0.11036902754E+03  0.11036902754E+03  0.00000000000E+00 0. -1.
         36    2    1    2    0    0 -0.28421709430E-13 -0.35527136788E-14  0.21571528290E+04  0.23778908841E+04  0.10005282250E+04 0.  0.
         25    2    3    3    0    0  0.92050331841E+02  0.27526830230E+02  0.66196627720E+03  0.68016879073E+03  0.12328520495E+03 0.  0.
         35    2    3    3    0    0 -0.92050331841E+02 -0.27526830230E+02  0.14951865519E+04  0.16977220934E+04  0.79840246219E+03 0.  0.
         22    1    5    5    0    0 -0.35286816706E+03 -0.10031314628E+03  0.13319405750E+04  0.13815369579E+04  0.00000000000E+00 0. -1.
         22    1    5    5    0    0  0.26081783522E+03  0.72786316055E+02  0.16324597684E+03  0.31618513552E+03  0.00000000000E+00 0. -1.
          5    1    4    4  502    0  0.90947091688E+02  0.47429657015E+02  0.64624265464E+03  0.65434899291E+03  0.47000000000E+01 0.  1.
         -5    1    4    4    0  502  0.11032401531E+01 -0.19902826785E+02  0.15723622560E+02  0.25819797817E+02  0.47000000000E+01 0.  1.
<mgrwt>
<rscale>  0 0.10005282E+04</rscale>
<asrwt>0</asrwt>
<pdfrwt beam="1">  1        2 0.34884948E+00 0.10005282E+04</pdfrwt>
<pdfrwt beam="2">  1       -2 0.16979852E-01 0.10005282E+04</pdfrwt>
<totfact> 0.15551757E+02</totfact>
</mgrwt>
</event>
<event>
 9    1  0.4246427E-036  0.1001832E+04  0.7818608E-02  0.8679295E-01
         -1   -1    0    0    0  501 -0.00000000000E+00  0.00000000000E+00  0.93018486047E+03  0.93018486047E+03  0.00000000000E+00 0.  1.
          1   -1    0    0  501    0  0.00000000000E+00 -0.00000000000E+00 -0.26974953538E+03  0.26974953538E+03  0.00000000000E+00 0.  1.
         36    2    1    2    0    0  0.39079850467E-13 -0.28421709430E-13  0.66043532509E+03  0.11999343958E+04  0.10018321894E+04 0.  0.
         25    2    3    3    0    0 -0.31561324375E+02 -0.12367585736E+03  0.97182611240E+02  0.20205484441E+03  0.12284081297E+03 0.  0.
         35    2    3    3    0    0  0.31561324375E+02  0.12367585736E+03  0.56325271385E+03  0.99787955144E+03  0.81376786901E+03 0.  0.
         22    1    5    5    0    0 -0.27436928131E+03 -0.13670416274E+03  0.50666411904E+03  0.59217823344E+03  0.00000000000E+00 0. -1.
         22    1    5    5    0    0  0.30593060568E+03  0.26038002011E+03  0.56588594807E+02  0.40570131800E+03  0.00000000000E+00 0. -1.
          5    1    4    4  502    0 -0.15348609325E+02 -0.12955158708E+03  0.31918889396E+02  0.13438786784E+03  0.47000000000E+01 0. -1.
         -5    1    4    4    0  502 -0.16212715050E+02  0.58757297131E+01  0.65263721844E+02  0.67666976568E+02  0.47000000000E+01 0. -1.
<mgrwt>
<rscale>  0 0.10018322E+04</rscale>
<asrwt>0</asrwt>
<pdfrwt beam="1">  1        1 0.41499929E-01 0.10018322E+04</pdfrwt>
<pdfrwt beam="2">  1       -1 0.14310536E+00 0.10018322E+04</pdfrwt>
<totfact> 0.47191343E+01</totfact>
</mgrwt>
</event>
<event>
 9    1  0.4246427E-036  0.1000442E+04  0.7818608E-02  0.8680617E-01
          2   -1    0    0  501    0  0.00000000000E+00  0.00000000000E+00  0.15447897172E+04  0.15447897172E+04  0.00000000000E+00 0.  1.
         -2   -1    0    0    0  501 -0.00000000000E+00 -0.00000000000E+00 -0.16197752817E+03  0.16197752817E+03  0.00000000000E+00 0.  1.
         36    2    1    2    0    0 -0.14210854715E-13  0.00000000000E+00  0.13828121891E+04  0.17067672454E+04  0.10004423421E+04 0.  0.
         25    2    3    3    0    0  0.59396548997E+02  0.68105563524E+02  0.78676603744E+02  0.17329807205E+03  0.12520341842E+03 0.  0.
         35    2    3    3    0    0 -0.59396548997E+02 -0.68105563524E+02  0.13041355853E+04  0.15334691734E+04  0.80161821519E+03 0.  0.
         22    1    5    5    0    0  0.32104744129E+03 -0.92431534242E+02  0.97215399440E+03  0.10279583829E+04  0.00000000000E+00 0.  1.
         22    1    5    5    0    0 -0.38044399028E+03  0.24325970718E+02  0.33198159094E+03  0.50551079050E+03  0.00000000000E+00 0.  1.
          5    1    4    4  502    0  0.49383762338E+02  0.10387592757E+02 -0.23157753435E+02  0.55722792555E+02  0.47000000000E+01 0.  1.
         -5    1    4    4    0  502  0.10012786658E+02  0.57717970767E+02  0.10183435718E+03  0.11757527949E+03  0.47000000000E+01 0.  1.
<mgrwt>
<rscale>  0 0.10004423E+04</rscale>
<asrwt>0</asrwt>
<pdfrwt beam="1">  1        2 0.23765995E+00 0.10004423E+04</pdfrwt>
<pdfrwt beam="2">  1       -2 0.24919621E-01 0.10004423E+04</pdfrwt>
<totfact> 0.20619749E+02</totfact>
</mgrwt>
</event>
<event>
 9    1  0.4246427E-036  0.9994307E+03  0.7818608E-02  0.8681580E-01
          2   -1    0    0  501    0  0.00000000000E+00  0.00000000000E+00  0.22154518518E+04  0.22154518518E+04  0.00000000000E+00 0.  1.
         -2   -1    0    0    0  501 -0.00000000000E+00 -0.00000000000E+00 -0.11271534347E+03  0.11271534347E+03  0.00000000000E+00 0.  1.
         36    2    1    2    0    0 -0.28421709430E-13  0.14210854715E-13  0.21027365083E+04  0.23281671952E+04  0.99943067077E+03 0.  0.
         25    2    3    3    0    0  0.11801091239E+03 -0.70775356661E+02  0.45225017716E+03  0.48895975027E+03  0.12496274681E+03 0.  0.
         35    2    3    3    0    0 -0.11801091239E+03  0.70775356661E+02  0.16504863311E+04  0.18392074450E+04  0.79977695004E+03 0.  0.
         22    1    5    5    0    0  0.18707498626E+03 -0.15939374499E+03  0.14367334720E+03  0.28468482067E+03  0.00000000000E+00 0.  1.
         22    1    5    5    0    0 -0.30508589865E+03  0.23016910165E+03  0.15068129839E+04  0.15545226243E+04  0.00000000000E+00 0.  1.
          5    1    4    4  502    0 -0.20848660533E+02  0.11632880630E+02  0.57750765835E+02  0.62667627307E+02  0.47000000000E+01 0.  1.
         -5    1    4    4    0  502  0.13885957293E+03 -0.82408237291E+02  0.39449941132E+03  0.42629212296E+03  0.47000000000E+01 0.  1.
<mgrwt>
<rscale>  0 0.99943067E+03</rscale>
<asrwt>0</asrwt>
<pdfrwt beam="1">  1        2 0.34083872E+00 0.99943067E+03</pdfrwt>
<pdfrwt beam="2">  1       -2 0.17340824E-01 0.99943067E+03</pdfrwt>
<totfact> 0.16095370E+02</totfact>
</mgrwt>
</event>
<event>
 9    1  0.4246427E-036  0.9992056E+03  0.7818608E-02  0.8681795E-01
          2   -1    0    0  501    0  0.00000000000E+00  0.00000000000E+00  0.28550367737E+04  0.28550367737E+04  0.00000000000E+00 0.  1.
         -2   -1    0    0    0  501 -0.00000000000E+00 -0.00000000000E+00 -0.87425480316E+02  0.87425480316E+02  0.00000000000E+00 0.  1.
         36    2    1    2    0    0 -0.28421709430E-13 -0.14210854715E-13  0.27676112934E+04  0.29424622540E+04  0.99920560699E+03 0.  0.
         25    2    3    3    0    0 -0.11185625815E+03 -0.65462510378E+02  0.65650122233E+03  0.68088827880E+03  0.12576895692E+03 0.  0.
         35    2    3    3    0    0  0.11185625815E+03  0.65462510378E+02  0.21111100710E+04  0.22615739752E+04  0.80070840544E+03 0.  0.
         22    1    5    5    0    0  0.39365802186E+03  0.20090368789E+03  0.80272145218E+03  0.91634636452E+03  0.00000000000E+00 0. -1.
         22    1    5    5    0    0 -0.28180176371E+03 -0.13544117751E+03  0.13083886189E+04  0.13452276107E+04  0.00000000000E+00 0. -1.
          5    1    4    4  502    0 -0.10867364069E+03 -0.85567135426E+02  0.39480614221E+03  0.41836069937E+03  0.47000000000E+01 0.  1.
         -5    1    4    4    0  502 -0.31826174591E+01  0.20104625047E+02  0.26169508012E+03  0.26252757943E+03  0.47000000000E+01 0.  1.
<mgrwt>
<rscale>  0 0.99920561E+03</rscale>
<asrwt>0</asrwt>
<pdfrwt beam="1">  1        2 0.43923636E+00 0.99920561E+03</pdfrwt>
<pdfrwt beam="2">  1       -2 0.13450076E-01 0.99920561E+03</pdfrwt>
<totfact> 0.99991134E+01</totfact>
</mgrwt>
</event>
<event>
 9    1  0.4246427E-036  0.9996425E+03  0.7818608E-02  0.8681379E-01
         -1   -1    0    0    0  501 -0.00000000000E+00  0.00000000000E+00  0.31985185053E+03  0.31985185053E+03  0.00000000000E+00 0. -1.
          1   -1    0    0  501    0  0.00000000000E+00 -0.00000000000E+00 -0.78105304217E+03  0.78105304217E+03  0.00000000000E+00 0. -1.
         36    2    1    2    0    0  0.00000000000E+00  0.39079850467E-13 -0.46120119163E+03  0.11009048927E+04  0.99964245789E+03 0.  0.
         25    2    3    3    0    0 -0.33162554963E+02 -0.78059664666E+01 -0.23205517670E+03  0.26796186594E+03  0.12958884365E+03 0.  0.
         35    2    3    3    0    0  0.33162554963E+02  0.78059664666E+01 -0.22914601493E+03  0.83294302676E+03  0.80007843460E+03 0.  0.
         22    1    5    5    0    0  0.29169740970E+03 -0.26131516666E+03 -0.24051212354E+03  0.45958576645E+03  0.00000000000E+00 0. -1.
         22    1    5    5    0    0 -0.25853485473E+03  0.26912113313E+03  0.11366108609E+02  0.37335726032E+03  0.00000000000E+00 0. -1.
          5    1    4    4  502    0  0.43065675876E+02  0.23627367287E+02 -0.65022872721E+02  0.81627010851E+02  0.47000000000E+01 0.  1.
         -5    1    4    4    0  502 -0.76228230839E+02 -0.31433333754E+02 -0.16703230398E+03  0.18633485508E+03  0.47000000000E+01 0.  1.
<mgrwt>
<rscale>  0 0.99964246E+03</rscale>
<asrwt>0</asrwt>
<pdfrwt beam="1">  1        1 0.12016200E+00 0.99964246E+03</pdfrwt>
<pdfrwt beam="2">  1       -1 0.49207978E-01 0.99964246E+03</pdfrwt>
<totfact> 0.10845512E+02</totfact>
</mgrwt>
</event>
<event>
 9    1  0.4246427E-036  0.1000696E+04  0.7818608E-02  0.8680375E-01
         -2   -1    0    0    0  501 -0.00000000000E+00  0.00000000000E+00  0.35079065327E+03  0.35079065327E+03  0.00000000000E+00 0.  1.
          2   -1    0    0  501    0  0.00000000000E+00 -0.00000000000E+00 -0.71366827276E+03  0.71366827276E+03  0.00000000000E+00 0.  1.
         36    2    1    2    0    0  0.00000000000E+00 -0.14210854715E-13 -0.36287761948E+03  0.10644589260E+04  0.10006960770E+04 0.  0.
         25    2    3    3    0    0 -0.39344562623E+02  0.12220158231E+03 -0.13669166304E+03  0.22504559323E+03  0.12441739010E+03 0.  0.
         35    2    3    3    0    0  0.39344562623E+02 -0.12220158231E+03 -0.22618595644E+03  0.83941333280E+03  0.79810615526E+03 0.  0.
         22    1    5    5    0    0 -0.88008135568E+02 -0.20764593733E+03 -0.48709407616E+03  0.53677081352E+03  0.00000000000E+00 0. -1.
         22    1    5    5    0    0  0.12735269819E+03  0.85444355020E+02  0.26090811972E+03  0.30264251928E+03  0.00000000000E+00 0. -1.
          5    1    4    4  502    0 -0.69337305838E+02  0.91078784067E+02 -0.14063162227E+03  0.18139004954E+03  0.47000000000E+01 0. -1.
         -5    1    4    4    0  502  0.29992743215E+02  0.31122798246E+02  0.39399592325E+01  0.43655543692E+02  0.47000000000E+01 0. -1.
<mgrwt>
<rscale>  0 0.10006961E+04</rscale>
<asrwt>0</asrwt>
<pdfrwt beam="1">  1        2 0.10979512E+00 0.10006961E+04</pdfrwt>
<pdfrwt beam="2">  1       -2 0.53967793E-01 0.10006961E+04</pdfrwt>
<totfact> 0.15647067E+02</totfact>
</mgrwt>
</event>
<event>
 9    1  0.4246427E-036  0.1005225E+04  0.7818608E-02  0.8676078E-01
          2   -1    0    0  501    0  0.00000000000E+00  0.00000000000E+00  0.58555817622E+03  0.58555817622E+03  0.00000000000E+00 0. -1.
         -2   -1    0    0    0  501 -0.00000000000E+00 -0.00000000000E+00 -0.43141645083E+03  0.43141645083E+03  0.00000000000E+00 0. -1.
         36    2    1    2    0    0  0.00000000000E+00  0.00000000000E+00  0.15414172539E+03  0.10169746271E+04  0.10052252089E+04 0.  0.
         25    2    3    3    0    0 -0.64499269643E+02  0.92087432100E+02  0.12348287775E+03  0.20848267307E+03  0.12480686254E+03 0.  0.
         35    2    3    3    0    0  0.64499269643E+02 -0.92087432100E+02  0.30658847640E+02  0.80849195398E+03  0.80004938834E+03 0.  0.
         22    1    5    5    0    0 -0.26092403690E+03 -0.71001555253E+02  0.28653296404E+03  0.39398440751E+03  0.00000000000E+00 0.  1.
         22    1    5    5    0    0  0.32542330654E+03 -0.21085876847E+02 -0.25587411640E+03  0.41450754648E+03  0.00000000000E+00 0.  1.
          5    1    4    4  502    0 -0.41118648178E+01 -0.82659887571E+01 -0.20410692928E+02  0.22889307290E+02  0.47000000000E+01 0. -1.
         -5    1    4    4    0  502 -0.60387404825E+02  0.10035342086E+03  0.14389357068E+03  0.18559336578E+03  0.47000000000E+01 0. -1.
<mgrwt>
<rscale>  0 0.10052252E+04</rscale>
<asrwt>0</asrwt>
<pdfrwt beam="1">  1        2 0.90085874E-01 0.10052252E+04</pdfrwt>
<pdfrwt beam="2">  1       -2 0.66371761E-01 0.10052252E+04</pdfrwt>
<totfact> 0.12898583E+02</totfact>
</mgrwt>
</event>
<event>
 9    1  0.4246427E-036  0.1000245E+04  0.7818608E-02  0.8680805E-01
          2   -1    0    0  501    0  0.00000000000E+00  0.00000000000E+00  0.17458931788E+04  0.17458931788E+04  0.00000000000E+00 0.  1.
         -2   -1    0    0    0  501 -0.00000000000E+00 -0.00000000000E+00 -0.14326338248E+03  0.14326338248E+03  0.00000000000E+00 0.  1.
         36    2    1    2    0    0 -0.14210854715E-13 -0.14210854715E-13  0.16026297963E+04  0.18891565613E+04  0.10002450945E+04 0.  0.
         25    2    3    3    0    0 -0.85753412065E+02 -0.65272147438E+02  0.13166141257E+03  0.21120414811E+03  0.12513338366E+03 0.  0.
         35    2    3    3    0    0  0.85753412065E+02  0.65272147438E+02  0.14709683837E+04  0.16779524131E+04  0.80010137732E+03 0.  0.
         22    1    5    5    0    0  0.11792888595E+03  0.21784779144E+02 -0.68115229769E+02  0.13791839352E+03  0.00000000000E+00 0. -1.
         22    1    5    5    0    0 -0.32175473886E+02  0.43487368294E+02  0.15390836135E+04  0.15400340196E+04  0.00000000000E+00 0. -1.
          5    1    4    4  502    0 -0.54011936648E+02 -0.92617938695E+02  0.48091397229E+02  0.11760205932E+03  0.47000000000E+01 0. -1.
         -5    1    4    4    0  502 -0.31741475417E+02  0.27345791257E+02  0.83570015343E+02  0.93602088789E+02  0.47000000000E+01 0. -1.
<mgrwt>
<rscale>  0 0.10002451E+04</rscale>
<asrwt>0</asrwt>
<pdfrwt beam="1">  1        2 0.26859894E+00 0.10002451E+04</pdfrwt>
<pdfrwt beam="2">  1       -2 0.22040522E-01 0.10002451E+04</pdfrwt>
<totfact> 0.19715297E+02</totfact>
</mgrwt>
</event>
<event>
 9    1  0.4246427E-036  0.9998782E+03  0.7818608E-02  0.8681154E-01
          2   -1    0    0  501    0  0.00000000000E+00  0.00000000000E+00  0.24287412592E+03  0.24287412592E+03  0.00000000000E+00 0. -1.
         -2   -1    0    0    0  501 -0.00000000000E+00 -0.00000000000E+00 -0.10290890468E+04  0.10290890468E+04  0.00000000000E+00 0. -1.
         36    2    1    2    0    0  0.71054273576E-14  0.00000000000E+00 -0.78621492091E+03  0.12719631728E+04  0.99987819808E+03 0.  0.
         25    2    3    3    0    0 -0.56724045899E+02 -0.83277031396E+02 -0.26180503597E+02  0.16267778622E+03  0.12500384802E+03 0.  0.
         35    2    3    3    0    0  0.56724045899E+02  0.83277031396E+02 -0.76003441731E+03  0.11092853865E+04  0.80169138198E+03 0.  0.
         22    1    5    5    0    0  0.11099782578E+03 -0.80582081864E+02 -0.88539266124E+03  0.89595432574E+03  0.00000000000E+00 0.  1.
         22    1    5    5    0    0 -0.54273779876E+02  0.16385911326E+03  0.12535824393E+03  0.21333106080E+03  0.00000000000E+00 0.  1.
          5    1    4    4  502    0 -0.23545717457E+02 -0.23714388605E+02  0.50007562385E+02  0.60329257688E+02  0.47000000000E+01 0. -1.
         -5    1    4    4    0  502 -0.33178328442E+02 -0.59562642790E+02 -0.76188065982E+02  0.10234852853E+03  0.47000000000E+01 0. -1.
<mgrwt>
<rscale>  0 0.99987820E+03</rscale>
<asrwt>0</asrwt>
<pdfrwt beam="1">  1        2 0.37365251E-01 0.99987820E+03</pdfrwt>
<pdfrwt beam="2">  1       -2 0.15832139E+00 0.99987820E+03</pdfrwt>
<totfact> 0.40491654E+01</totfact>
</mgrwt>
</event>
<event>
 9    1  0.4246427E-036  0.1000274E+04  0.7818608E-02  0.8680777E-01
          2   -1    0    0  501    0  0.00000000000E+00  0.00000000000E+00  0.31956351284E+04  0.31956351284E+04  0.00000000000E+00 0. -1.
         -2   -1    0    0    0  501 -0.00000000000E+00 -0.00000000000E+00 -0.78274600343E+02  0.78274600343E+02  0.00000000000E+00 0. -1.
         36    2    1    2    0    0  0.00000000000E+00 -0.28421709430E-13  0.31173605280E+04  0.32739097287E+04  0.10002740875E+04 0.  0.
         25    2    3    3    0    0 -0.10250093868E+03 -0.81636262303E+02  0.75668035696E+03  0.77797282753E+03  0.12452162872E+03 0.  0.
         35    2    3    3    0    0  0.10250093868E+03  0.81636262303E+02  0.23606801711E+04  0.24959369012E+04  0.79982449503E+03 0.  0.
         22    1    5    5    0    0 -0.19438207114E+03 -0.17873198438E+03  0.17425280498E+04  0.17624226270E+04  0.00000000000E+00 0. -1.
         22    1    5    5    0    0  0.29688300982E+03  0.26036824669E+03  0.61815212129E+03  0.73351427420E+03  0.00000000000E+00 0. -1.
          5    1    4    4  502    0 -0.12859222851E+03 -0.84053141492E+02  0.62419077074E+03  0.64283520447E+03  0.47000000000E+01 0. -1.
         -5    1    4    4    0  502  0.26091289836E+02  0.24168791899E+01  0.13248958622E+03  0.13513762306E+03  0.47000000000E+01 0. -1.
<mgrwt>
<rscale>  0 0.10002741E+04</rscale>
<asrwt>0</asrwt>
<pdfrwt beam="1">  1        2 0.49163607E+00 0.10002741E+04</pdfrwt>
<pdfrwt beam="2">  1       -2 0.12042249E-01 0.10002741E+04</pdfrwt>
<totfact> 0.70860976E+01</totfact>
</mgrwt>
</event>
<event>
 9    1  0.4246427E-036  0.1000595E+04  0.7818608E-02  0.8680471E-01
          2   -1    0    0  501    0  0.00000000000E+00  0.00000000000E+00  0.72028368827E+03  0.72028368827E+03  0.00000000000E+00 0.  1.
         -2   -1    0    0    0  501 -0.00000000000E+00 -0.00000000000E+00 -0.34749881357E+03  0.34749881357E+03  0.00000000000E+00 0.  1.
         36    2    1    2    0    0  0.71054273576E-14 -0.28421709430E-13  0.37278487470E+03  0.10677825018E+04  0.10005952770E+04 0.  0.
         25    2    3    3    0    0 -0.20964479706E+02 -0.13073861857E+03  0.12339686223E+03  0.21965475726E+03  0.12445614080E+03 0.  0.
         35    2    3    3    0    0  0.20964479706E+02  0.13073861857E+03  0.24938801247E+03  0.84812774458E+03  0.79974633139E+03 0.  0.
         22    1    5    5    0    0 -0.64704249458E+02 -0.13163885859E+03  0.47153663578E+03  0.49382408595E+03  0.00000000000E+00 0. -1.
         22    1    5    5    0    0  0.85668729164E+02  0.26237747716E+03 -0.22214862331E+03  0.35430365863E+03  0.00000000000E+00 0. -1.
          5    1    4    4  502    0 -0.80947258768E+01 -0.66776429418E+02 -0.12736009170E+02  0.68621512971E+02  0.47000000000E+01 0. -1.
         -5    1    4    4    0  502 -0.12869753829E+02 -0.63962189153E+02  0.13613287140E+03  0.15103324429E+03  0.47000000000E+01 0. -1.
<mgrwt>
<rscale>  0 0.10005953E+04</rscale>
<asrwt>0</asrwt>
<pdfrwt beam="1">  1        2 0.11081287E+00 0.10005953E+04</pdfrwt>
<pdfrwt beam="2">  1       -2 0.53461356E-01 0.10005953E+04</pdfrwt>
<totfact> 0.15768878E+02</totfact>
</mgrwt>
</event>
<event>
 9    1  0.4246427E-036  0.9936107E+03  0.7818608E-02  0.8687146E-01
         -1   -1    0    0    0  501 -0.00000000000E+00  0.00000000000E+00  0.12470354137E+04  0.12470354137E+04  0.00000000000E+00 0.  1.
          1   -1    0    0  501    0  0.00000000000E+00 -0.00000000000E+00 -0.19792185581E+03  0.19792185581E+03  0.00000000000E+00 0.  1.
         36    2    1    2    0    0  0.00000000000E+00  0.88817841970E-15  0.10491135579E+04  0.14449572695E+04  0.99361071521E+03 0.  0.
         25    2    3    3    0    0 -0.12301142321E+03 -0.70665621910E+01  0.11162348183E+03  0.20759687878E+03  0.12431780180E+03 0.  0.
         35    2    3    3    0    0  0.12301142321E+03  0.70665621910E+01  0.93749007608E+03  0.12373603907E+04  0.79811737689E+03 0.  0.
         22    1    5    5    0    0  0.15480411326E+02 -0.29781309075E+03  0.62687215214E+02  0.30473261576E+03  0.00000000000E+00 0.  1.
         22    1    5    5    0    0  0.10753101188E+03  0.30487965294E+03  0.87480286086E+03  0.93262777498E+03  0.00000000000E+00 0.  1.
          5    1    4    4  502    0 -0.13112898295E+03  0.21528509371E+01  0.13018341148E+03  0.18484927796E+03  0.47000000000E+01 0.  1.
         -5    1    4    4    0  502  0.81175597381E+01 -0.92194131282E+01 -0.18559929657E+02  0.22747600827E+02  0.47000000000E+01 0.  1.
<mgrwt>
<rscale>  0 0.99361072E+03</rscale>
<asrwt>0</asrwt>
<pdfrwt beam="1">  1        1 0.30449517E-01 0.99361072E+03</pdfrwt>
<pdfrwt beam="2">  1       -1 0.19185160E+00 0.99361072E+03</pdfrwt>
<totfact> 0.27547692E+01</totfact>
</mgrwt>
</event>
<event>
 9    1  0.4246427E-036  0.9998410E+03  0.7818608E-02  0.8681189E-01
         -1   -1    0    0    0  501 -0.00000000000E+00  0.00000000000E+00  0.17904697564E+03  0.17904697564E+03  0.00000000000E+00 0. -1.
          1   -1    0    0  501    0  0.00000000000E+00 -0.00000000000E+00 -0.13958376588E+04  0.13958376588E+04  0.00000000000E+00 0. -1.
         36    2    1    2    0    0 -0.14210854715E-13  0.42632564146E-13 -0.12167906831E+04  0.15748846344E+04  0.99984100995E+03 0.  0.
         25    2    3    3    0    0 -0.70314794618E+02  0.92197580070E+02 -0.36045196315E+03  0.39871352753E+03  0.12490914771E+03 0.  0.
         35    2    3    3    0    0  0.70314794618E+02 -0.92197580070E+02 -0.85633871999E+03  0.11761711069E+04  0.79788339075E+03 0.  0.
         22    1    5    5    0    0 -0.55575136768E+02 -0.37314441748E+03 -0.76836610376E+03  0.85598587694E+03  0.00000000000E+00 0.  1.
         22    1    5    5    0    0  0.12588993139E+03  0.28094683741E+03 -0.87972616232E+02  0.32018522995E+03  0.00000000000E+00 0.  1.
          5    1    4    4  502    0 -0.44059466200E+02  0.10962911583E+01 -0.24626869258E+03  0.25022549302E+03  0.47000000000E+01 0.  1.
         -5    1    4    4    0  502 -0.26255328418E+02  0.91101288912E+02 -0.11418327057E+03  0.14848803450E+03  0.47000000000E+01 0.  1.
<mgrwt>
<rscale>  0 0.99984101E+03</rscale>
<asrwt>0</asrwt>
<pdfrwt beam="1">  1        1 0.21474425E+00 0.99984101E+03</pdfrwt>
<pdfrwt beam="2">  1       -1 0.27545689E-01 0.99984101E+03</pdfrwt>
<totfact> 0.99627973E+01</totfact>
</mgrwt>
</event>
<event>
 9    1  0.4246427E-036  0.9987408E+03  0.7818608E-02  0.8682238E-01
          2   -1    0    0  501    0  0.00000000000E+00  0.00000000000E+00  0.11160120793E+04  0.11160120793E+04  0.00000000000E+00 0. -1.
         -2   -1    0    0    0  501 -0.00000000000E+00 -0.00000000000E+00 -0.22344810267E+03  0.22344810267E+03  0.00000000000E+00 0. -1.
         36    2    1    2    0    0 -0.56843418861E-13  0.71054273576E-14  0.89256397659E+03  0.13394601819E+04  0.99874077051E+03 0.  0.
         25    2    3    3    0    0 -0.13457222541E+03 -0.19925231340E+01  0.19768625470E+03  0.27129886871E+03  0.12809983162E+03 0.  0.
         35    2    3    3    0    0  0.13457222541E+03  0.19925231340E+01  0.69487772189E+03  0.10681613132E+04  0.79999993044E+03 0.  0.
         22    1    5    5    0    0  0.42153590192E+03 -0.18817359793E+03  0.33674091787E+03  0.57139851709E+03  0.00000000000E+00 0.  1.
         22    1    5    5    0    0 -0.28696367651E+03  0.19016612107E+03  0.35813680402E+03  0.49676279614E+03  0.00000000000E+00 0.  1.
          5    1    4    4  502    0 -0.12916104034E+03  0.39977128879E+02  0.11205953604E+03  0.17567064294E+03  0.47000000000E+01 0.  1.
         -5    1    4    4    0  502 -0.54111850757E+01 -0.41969652012E+02  0.85626718662E+02  0.95628225764E+02  0.47000000000E+01 0.  1.
<mgrwt>
<rscale>  0 0.99874077E+03</rscale>
<asrwt>0</asrwt>
<pdfrwt beam="1">  1        2 0.17169416E+00 0.99874077E+03</pdfrwt>
<pdfrwt beam="2">  1       -2 0.34376632E-01 0.99874077E+03</pdfrwt>
<totfact> 0.20368417E+02</totfact>
</mgrwt>
</event>
<event>
 9    1  0.4246427E-036  0.9991846E+03  0.7818608E-02  0.8681815E-01
         -2   -1    0    0    0  501 -0.00000000000E+00  0.00000000000E+00  0.12699672563E+03  0.12699672563E+03  0.00000000000E+00 0.  1.
          2   -1    0    0  501    0  0.00000000000E+00 -0.00000000000E+00 -0.19653455053E+04  0.19653455053E+04  0.00000000000E+00 0.  1.
         36    2    1    2    0    0 -0.17763568394E-14  0.28421709430E-13 -0.18383487796E+04  0.20923422309E+04  0.99918455532E+03 0.  0.
         25    2    3    3    0    0  0.14204896300E+02  0.13537396169E+03 -0.28630554593E+03  0.34107577081E+03  0.12583293379E+03 0.  0.
         35    2    3    3    0    0 -0.14204896300E+02 -0.13537396169E+03 -0.15520432337E+04  0.17512664601E+04  0.79973003339E+03 0.  0.
         22    1    5    5    0    0  0.10101267792E+03  0.32207608032E+03 -0.70779461563E+03  0.78416183312E+03  0.00000000000E+00 0.  1.
         22    1    5    5    0    0 -0.11521757422E+03 -0.45745004201E+03 -0.84424861808E+03  0.96710462695E+03  0.00000000000E+00 0.  1.
          5    1    4    4  502    0 -0.20433796069E+01  0.15508542076E+03 -0.21468841962E+03  0.26489407440E+03  0.47000000000E+01 0. -1.
         -5    1    4    4    0  502  0.16248275907E+02 -0.19711459067E+02 -0.71617126306E+02  0.76181696416E+02  0.47000000000E+01 0. -1.
<mgrwt>
<rscale>  0 0.99918456E+03</rscale>
<asrwt>0</asrwt>
<pdfrwt beam="1">  1        2 0.30236079E+00 0.99918456E+03</pdfrwt>
<pdfrwt beam="2">  1       -2 0.19537962E-01 0.99918456E+03</pdfrwt>
<totfact> 0.18264862E+02</totfact>
</mgrwt>
</event>
<event>
 9    1  0.4246427E-036  0.9949347E+03  0.7818608E-02  0.8685877E-01
         -1   -1    0    0    0  501 -0.00000000000E+00  0.00000000000E+00  0.37537540201E+03  0.37537540201E+03  0.00000000000E+00 0.  1.
          1   -1    0    0  501    0  0.00000000000E+00 -0.00000000000E+00 -0.65927008609E+03  0.65927008609E+03  0.00000000000E+00 0.  1.
         36    2    1    2    0    0  0.00000000000E+00 -0.14210854715E-13 -0.28389468408E+03  0.10346454881E+04  0.99493471866E+03 0.  0.
         25    2    3    3    0    0 -0.76839858648E+02 -0.11007743147E+03 -0.79737418233E+02  0.19738613125E+03  0.12075522410E+03 0.  0.
         35    2    3    3    0    0  0.76839858648E+02  0.11007743147E+03 -0.20415726585E+03  0.83725935686E+03  0.80081310969E+03 0.  0.
         22    1    5    5    0    0  0.27636725741E+03  0.37256420643E+03 -0.31175471677E+02  0.46492457336E+03  0.00000000000E+00 0.  1.
         22    1    5    5    0    0 -0.19952739876E+03 -0.26248677496E+03 -0.17298179417E+03  0.37233478350E+03  0.00000000000E+00 0.  1.
          5    1    4    4  502    0 -0.82100590983E+02 -0.22072321639E+02 -0.11745437187E+02  0.85951961682E+02  0.47000000000E+01 0.  1.
         -5    1    4    4    0  502  0.52607323355E+01 -0.88005109828E+02 -0.67991981046E+02  0.11143416957E+03  0.47000000000E+01 0.  1.
<mgrwt>
<rscale>  0 0.99493472E+03</rscale>
<asrwt>0</asrwt>
<pdfrwt beam="1">  1        1 0.10142617E+00 0.99493472E+03</pdfrwt>
<pdfrwt beam="2">  1       -1 0.57750062E-01 0.99493472E+03</pdfrwt>
<totfact> 0.10461339E+02</totfact>
</mgrwt>
</event>
<event>
 9    1  0.4246427E-036  0.9993299E+03  0.7818608E-02  0.8681676E-01
         -1   -1    0    0    0  501 -0.00000000000E+00  0.00000000000E+00  0.37704989601E+03  0.37704989601E+03  0.00000000000E+00 0. -1.
          1   -1    0    0  501    0  0.00000000000E+00 -0.00000000000E+00 -0.66215387759E+03  0.66215387759E+03  0.00000000000E+00 0. -1.
         36    2    1    2    0    0  0.00000000000E+00  0.00000000000E+00 -0.28510398158E+03  0.10392037736E+04  0.99932987684E+03 0.  0.
         25    2    3    3    0    0 -0.10613436753E+03 -0.90967184396E+02 -0.51227413604E+02  0.19429719638E+03  0.12485039050E+03 0.  0.
         35    2    3    3    0    0  0.10613436753E+03  0.90967184396E+02 -0.23387656798E+03  0.84490657721E+03  0.79976830555E+03 0.  0.
         22    1    5    5    0    0  0.13490114852E+03  0.40637860070E+03 -0.29810907064E+03  0.52173834916E+03  0.00000000000E+00 0. -1.
         22    1    5    5    0    0 -0.28766780990E+02 -0.31541141631E+03  0.64232502663E+02  0.32316822806E+03  0.00000000000E+00 0. -1.
          5    1    4    4  502    0 -0.12561826458E+03 -0.53159416584E+02 -0.13325174620E+02  0.13713322809E+03  0.47000000000E+01 0. -1.
         -5    1    4    4    0  502  0.19483897047E+02 -0.37807767813E+02 -0.37902238983E+02  0.57163968293E+02  0.47000000000E+01 0. -1.
<mgrwt>
<rscale>  0 0.99932988E+03</rscale>
<asrwt>0</asrwt>
<pdfrwt beam="1">  1        1 0.10186983E+00 0.99932988E+03</pdfrwt>
<pdfrwt beam="2">  1       -1 0.58007677E-01 0.99932988E+03</pdfrwt>
<totfact> 0.10300916E+02</totfact>
</mgrwt>
</event>
<event>
 9    1  0.4246427E-036  0.9987218E+03  0.7818608E-02  0.8682256E-01
          1   -1    0    0  501    0  0.00000000000E+00  0.00000000000E+00  0.78696140469E+03  0.78696140469E+03  0.00000000000E+00 0. -1.
         -1   -1    0    0    0  501 -0.00000000000E+00 -0.00000000000E+00 -0.31686597889E+03  0.31686597889E+03  0.00000000000E+00 0. -1.
         36    2    1    2    0    0  0.21316282073E-13 -0.21316282073E-13  0.47009542580E+03  0.11038273836E+04  0.99872177477E+03 0.  0.
         25    2    3    3    0    0 -0.63108858417E+02  0.34782733673E+02  0.21591005044E+03  0.26090447266E+03  0.12752030191E+03 0.  0.
         35    2    3    3    0    0  0.63108858417E+02 -0.34782733673E+02  0.25418537536E+03  0.84292291093E+03  0.80044753866E+03 0.  0.
         22    1    5    5    0    0  0.26976378373E+03 -0.33774280688E+03  0.18276197493E+03  0.46930229287E+03  0.00000000000E+00 0.  1.
         22    1    5    5    0    0 -0.20665492531E+03  0.30296007320E+03  0.71423400423E+02  0.37362061806E+03  0.00000000000E+00 0.  1.
          5    1    4    4  502    0 -0.22392889195E+02  0.19539721794E+02 -0.92961280675E+01  0.31492065848E+02  0.47000000000E+01 0. -1.
         -5    1    4    4    0  502 -0.40715969222E+02  0.15243011878E+02  0.22520617851E+03  0.22941240681E+03  0.47000000000E+01 0. -1.
<mgrwt>
<rscale>  0 0.99872177E+03</rscale>
<asrwt>0</asrwt>
<pdfrwt beam="1">  1        1 0.12107098E+00 0.99872177E+03</pdfrwt>
<pdfrwt beam="2">  1       -1 0.48748612E-01 0.99872177E+03</pdfrwt>
<totfact> 0.10902122E+02</totfact>
</mgrwt>
</event>
<event>
 9    1  0.4246427E-036  0.9996818E+03  0.7818608E-02  0.8681341E-01
          2   -1    0    0  501    0  0.00000000000E+00  0.00000000000E+00  0.22211019680E+04  0.22211019680E+04  0.00000000000E+00 0. -1.
         -2   -1    0    0    0  501 -0.00000000000E+00 -0.00000000000E+00 -0.11248512759E+03  0.11248512759E+03  0.00000000000E+00 0. -1.
         36    2    1    2    0    0  0.28421709430E-13  0.10658141036E-13  0.21086168404E+04  0.23335870955E+04  0.99968182589E+03 0.  0.
         25    2    3    3    0    0 -0.13508048241E+03  0.18249353706E+02  0.31483382750E+03  0.36514724337E+03  0.12502957555E+03 0.  0.
         35    2    3    3    0    0  0.13508048241E+03 -0.18249353706E+02  0.17937830129E+04  0.19684398522E+04  0.79907332501E+03 0.  0.
         22    1    5    5    0    0 -0.22710958404E+03  0.51061584454E+02  0.14356262483E+04  0.14543757333E+04  0.00000000000E+00 0. -1.
         22    1    5    5    0    0  0.36219006645E+03 -0.69310938160E+02  0.35815676454E+03  0.51406411892E+03  0.00000000000E+00 0. -1.
          5    1    4    4  502    0 -0.27029373474E+02 -0.25662205296E+02  0.10216197945E+02  0.38930662870E+02  0.47000000000E+01 0. -1.
         -5    1    4    4    0  502 -0.10805110893E+03  0.43911559002E+02  0.30461762955E+03  0.32621658050E+03  0.47000000000E+01 0. -1.
<mgrwt>
<rscale>  0 0.99968183E+03</rscale>
<asrwt>0</asrwt>
<pdfrwt beam="1">  1        2 0.34170796E+00 0.99968183E+03</pdfrwt>
<pdfrwt beam="2">  1       -2 0.17305406E-01 0.99968183E+03</pdfrwt>
<totfact> 0.16029462E+02</totfact>
</mgrwt>
</event>
<event>
 9    1  0.4246427E-036  0.9991105E+03  0.7818608E-02  0.8681885E-01
         -2   -1    0    0    0  501 -0.00000000000E+00  0.00000000000E+00  0.39358887823E+03  0.39358887823E+03  0.00000000000E+00 0. -1.
          2   -1    0    0  501    0  0.00000000000E+00 -0.00000000000E+00 -0.63405108687E+03  0.63405108687E+03  0.00000000000E+00 0. -1.
         36    2    1    2    0    0  0.14210854715E-13 -0.14210854715E-13 -0.24046220864E+03  0.10276399651E+04  0.99911051645E+03 0.  0.
         25    2    3    3    0    0  0.84072213538E+02  0.35791679901E+02  0.62665917749E+02  0.16738026551E+03  0.12545897574E+03 0.  0.
         35    2    3    3    0    0 -0.84072213538E+02 -0.35791679901E+02 -0.30312812639E+03  0.86025969959E+03  0.79988180895E+03 0.  0.
         22    1    5    5    0    0  0.28919302929E+02  0.14357377739E+02  0.27102886872E+03  0.27294524736E+03  0.00000000000E+00 0. -1.
         22    1    5    5    0    0 -0.11299151647E+03 -0.50149057640E+02 -0.57415699511E+03  0.58731445224E+03  0.00000000000E+00 0. -1.
          5    1    4    4  502    0  0.40043154371E+02 -0.46630052127E+02  0.24658445556E+02  0.66392355814E+02  0.47000000000E+01 0. -1.
         -5    1    4    4    0  502  0.44029059167E+02  0.82421732028E+02  0.38007472193E+02  0.10098790969E+03  0.47000000000E+01 0. -1.
<mgrwt>
<rscale>  0 0.99911052E+03</rscale>
<asrwt>0</asrwt>
<pdfrwt beam="1">  1        2 0.97546320E-01 0.99911052E+03</pdfrwt>
<pdfrwt beam="2">  1       -2 0.60552136E-01 0.99911052E+03</pdfrwt>
<totfact> 0.14249026E+02</totfact>
</mgrwt>
</event>
<event>
 9    1  0.4246427E-036  0.9996259E+03  0.7818608E-02  0.8681394E-01
         -1   -1    0    0    0  501 -0.00000000000E+00  0.00000000000E+00  0.11527773416E+03  0.11527773416E+03  0.00000000000E+00 0. -1.
          1   -1    0    0  501    0  0.00000000000E+00 -0.00000000000E+00 -0.21670533840E+04  0.21670533840E+04  0.00000000000E+00 0. -1.
         36    2    1    2    0    0  0.00000000000E+00  0.14210854715E-13 -0.20517756499E+04  0.22823311182E+04  0.99962593786E+03 0.  0.
         25    2    3    3    0    0 -0.78120404681E+02  0.10372928877E+02 -0.12084806534E+03  0.19070249513E+03  0.12471083141E+03 0.  0.
         35    2    3    3    0    0  0.78120404681E+02 -0.10372928877E+02 -0.19309275845E+04  0.20916286231E+04  0.80013659135E+03 0.  0.
         22    1    5    5    0    0 -0.14741359524E+02 -0.28453202544E+03 -0.16933626430E+04  0.17171641803E+04  0.00000000000E+00 0.  1.
         22    1    5    5    0    0  0.92861764205E+02  0.27415909657E+03 -0.23756494149E+03  0.37446444278E+03  0.00000000000E+00 0.  1.
          5    1    4    4  502    0  0.12341707473E+02  0.41076307149E+02 -0.99940643050E+01  0.44289412659E+02  0.47000000000E+01 0.  1.
         -5    1    4    4    0  502 -0.90462112154E+02 -0.30703378272E+02 -0.11085400103E+03  0.14641308247E+03  0.47000000000E+01 0.  1.
<mgrwt>
<rscale>  0 0.99962594E+03</rscale>
<asrwt>0</asrwt>
<pdfrwt beam="1">  1        1 0.33339277E+00 0.99962594E+03</pdfrwt>
<pdfrwt beam="2">  1       -1 0.17735039E-01 0.99962594E+03</pdfrwt>
<totfact> 0.59263670E+01</totfact>
</mgrwt>
</event>
<event>
 9    1  0.4246427E-036  0.1001869E+04  0.7818608E-02  0.8679260E-01
          2   -1    0    0  501    0  0.00000000000E+00  0.00000000000E+00  0.13289478106E+04  0.13289478106E+04  0.00000000000E+00 0.  1.
         -2   -1    0    0    0  501 -0.00000000000E+00 -0.00000000000E+00 -0.18882266709E+03  0.18882266709E+03  0.00000000000E+00 0.  1.
         36    2    1    2    0    0  0.00000000000E+00  0.28421709430E-13  0.11401251435E+04  0.15177704777E+04  0.10018691931E+04 0.  0.
         25    2    3    3    0    0  0.88454770506E+02 -0.68299353601E+02  0.33864066488E+03  0.37770019958E+03  0.12446241491E+03 0.  0.
         35    2    3    3    0    0 -0.88454770506E+02  0.68299353601E+02  0.80148447865E+03  0.11400702781E+04  0.80305281359E+03 0.  0.
         22    1    5    5    0    0  0.11177396665E+03 -0.22146048585E+03 -0.17374722869E+02  0.24867659200E+03  0.00000000000E+00 0. -1.
         22    1    5    5    0    0 -0.20022873716E+03  0.28975983945E+03  0.81885920152E+03  0.89139368612E+03  0.00000000000E+00 0. -1.
          5    1    4    4  502    0  0.79546828031E+02  0.26769127144E+00  0.26436683681E+03  0.27611534531E+03  0.47000000000E+01 0.  1.
         -5    1    4    4    0  502  0.89079424749E+01 -0.68567044872E+02  0.74273828060E+02  0.10158485427E+03  0.47000000000E+01 0.  1.
<mgrwt>
<rscale>  0 0.10018692E+04</rscale>
<asrwt>0</asrwt>
<pdfrwt beam="1">  1        2 0.20445350E+00 0.10018692E+04</pdfrwt>
<pdfrwt beam="2">  1       -2 0.29049642E-01 0.10018692E+04</pdfrwt>
<totfact> 0.20789354E+02</totfact>
</mgrwt>
</event>
<event>
 9    1  0.4246427E-036  0.1000281E+04  0.7818608E-02  0.8680770E-01
          1   -1    0    0  501    0  0.00000000000E+00  0.00000000000E+00  0.45067265650E+03  0.45067265650E+03  0.00000000000E+00 0. -1.
         -1   -1    0    0    0  501 -0.00000000000E+00 -0.00000000000E+00 -0.55503820426E+03  0.55503820426E+03  0.00000000000E+00 0. -1.
         36    2    1    2    0    0  0.00000000000E+00  0.14210854715E-13 -0.10436554776E+03  0.10057108608E+04  0.10002810444E+04 0.  0.
         25    2    3    3    0    0  0.52583857315E+02  0.82325035015E+02  0.77689702478E+02  0.17681510882E+03  0.12524144440E+03 0.  0.
         35    2    3    3    0    0 -0.52583857315E+02 -0.82325035015E+02 -0.18205525024E+03  0.82889575193E+03  0.80273381640E+03 0.  0.
         22    1    5    5    0    0  0.26474570284E+03 -0.16948305674E+03  0.16128957525E+03  0.35331164823E+03  0.00000000000E+00 0. -1.
         22    1    5    5    0    0 -0.31732956015E+03  0.87158021726E+02 -0.34334482549E+03  0.47558410370E+03  0.00000000000E+00 0. -1.
          5    1    4    4  502    0 -0.36220461739E+02  0.54298714605E+02  0.35868842200E+02  0.74625304670E+02  0.47000000000E+01 0. -1.
         -5    1    4    4    0  502  0.88804319054E+02  0.28026320410E+02  0.41820860279E+02  0.10218980415E+03  0.47000000000E+01 0. -1.
<mgrwt>
<rscale>  0 0.10002810E+04</rscale>
<asrwt>0</asrwt>
<pdfrwt beam="1">  1        1 0.69334255E-01 0.10002810E+04</pdfrwt>
<pdfrwt beam="2">  1       -1 0.85390493E-01 0.10002810E+04</pdfrwt>
<totfact> 0.82178707E+01</totfact>
</mgrwt>
</event>
<event>
 9    1  0.4246427E-036  0.1000293E+04  0.7818608E-02  0.8680759E-01
         -2   -1    0    0    0  501 -0.00000000000E+00  0.00000000000E+00  0.58312034170E+03  0.58312034170E+03  0.00000000000E+00 0. -1.
          2   -1    0    0  501    0  0.00000000000E+00 -0.00000000000E+00 -0.42897943503E+03  0.42897943503E+03  0.00000000000E+00 0. -1.
         36    2    1    2    0    0 -0.42632564146E-13  0.10658141036E-13  0.15414090668E+03  0.10120997767E+04  0.10002932265E+04 0.  0.
         25    2    3    3    0    0 -0.50584616539E+02  0.27000063595E+02 -0.10027451897E+03  0.17033715715E+03  0.12518770341E+03 0.  0.
         35    2    3    3    0    0  0.50584616539E+02 -0.27000063595E+02  0.25441542565E+03  0.84176261958E+03  0.80034323390E+03 0.  0.
         22    1    5    5    0    0  0.38790462662E+03  0.14668566112E+03  0.19296856774E+03  0.45740960929E+03  0.00000000000E+00 0.  1.
         22    1    5    5    0    0 -0.33732001009E+03 -0.17368572471E+03  0.61446857911E+02  0.38435301029E+03  0.00000000000E+00 0.  1.
          5    1    4    4  502    0 -0.59574331472E+02  0.32912034943E+02  0.11524699564E+01  0.68232845474E+02  0.47000000000E+01 0.  1.
         -5    1    4    4    0  502  0.89897149329E+01 -0.59119713486E+01 -0.10142698893E+03  0.10210431168E+03  0.47000000000E+01 0.  1.
<mgrwt>
<rscale>  0 0.10002932E+04</rscale>
<asrwt>0</asrwt>
<pdfrwt beam="1">  1        2 0.65996836E-01 0.10002932E+04</pdfrwt>
<pdfrwt beam="2">  1       -2 0.89710822E-01 0.10002932E+04</pdfrwt>
<totfact> 0.93484731E+01</totfact>
</mgrwt>
</event>
<event>
 9    1  0.4246427E-036  0.9999023E+03  0.7818608E-02  0.8681131E-01
          2   -1    0    0  501    0  0.00000000000E+00  0.00000000000E+00  0.15431026694E+04  0.15431026694E+04  0.00000000000E+00 0. -1.
         -2   -1    0    0    0  501 -0.00000000000E+00 -0.00000000000E+00 -0.16197960539E+03  0.16197960539E+03  0.00000000000E+00 0. -1.
         36    2    1    2    0    0 -0.71054273576E-14  0.00000000000E+00  0.13811230640E+04  0.17050822748E+04  0.99990231818E+03 0.  0.
         25    2    3    3    0    0  0.37713898287E+02  0.12348887609E+03  0.16841570314E+03  0.24644245665E+03  0.12529243686E+03 0.  0.
         35    2    3    3    0    0 -0.37713898287E+02 -0.12348887609E+03  0.12127073609E+04  0.14586398182E+04  0.80018693775E+03 0.  0.
         22    1    5    5    0    0  0.65119266659E+02  0.55198975894E+02 -0.99061152638E+02  0.13076910106E+03  0.00000000000E+00 0. -1.
         22    1    5    5    0    0 -0.10283316495E+03 -0.17868785198E+03  0.13117685135E+04  0.13278707171E+04  0.00000000000E+00 0. -1.
          5    1    4    4  502    0 -0.42327675833E+02  0.54103895816E+02  0.38987482982E+02  0.79126338934E+02  0.47000000000E+01 0. -1.
         -5    1    4    4    0  502  0.80041574120E+02  0.69384980275E+02  0.12942822015E+03  0.16731611772E+03  0.47000000000E+01 0. -1.
<mgrwt>
<rscale>  0 0.99990232E+03</rscale>
<asrwt>0</asrwt>
<pdfrwt beam="1">  1        2 0.23740040E+00 0.99990232E+03</pdfrwt>
<pdfrwt beam="2">  1       -2 0.24919940E-01 0.99990232E+03</pdfrwt>
<totfact> 0.20664645E+02</totfact>
</mgrwt>
</event>
<event>
 9    1  0.4246427E-036  0.1002043E+04  0.7818608E-02  0.8679095E-01
         -2   -1    0    0    0  501 -0.00000000000E+00  0.00000000000E+00  0.41740856902E+03  0.41740856902E+03  0.00000000000E+00 0.  1.
          2   -1    0    0  501    0  0.00000000000E+00 -0.00000000000E+00 -0.60138297192E+03  0.60138297192E+03  0.00000000000E+00 0.  1.
         36    2    1    2    0    0  0.14210854715E-13  0.56843418861E-13 -0.18397440289E+03  0.10187915409E+04  0.10020427251E+04 0.  0.
         25    2    3    3    0    0 -0.91614924037E+02 -0.88435946329E+02  0.27679876444E+02  0.18151912391E+03  0.12636774064E+03 0.  0.
         35    2    3    3    0    0  0.91614924037E+02  0.88435946329E+02 -0.21165427934E+03  0.83727241703E+03  0.80000834711E+03 0.  0.
         22    1    5    5    0    0  0.12925738724E+03  0.43859963761E+03 -0.13614293795E+03  0.47708700865E+03  0.00000000000E+00 0. -1.
         22    1    5    5    0    0 -0.37642463200E+02 -0.35016369129E+03 -0.75511341385E+02  0.36018540838E+03  0.00000000000E+00 0. -1.
          5    1    4    4  502    0 -0.78579613323E+02 -0.65401149463E+01 -0.25367673327E+02  0.82964676722E+02  0.47000000000E+01 0. -1.
         -5    1    4    4    0  502 -0.13035310713E+02 -0.81895831382E+02  0.53047549771E+02  0.98554447185E+02  0.47000000000E+01 0. -1.
<mgrwt>
<rscale>  0 0.10020427E+04</rscale>
<asrwt>0</asrwt>
<pdfrwt beam="1">  1        2 0.92520457E-01 0.10020427E+04</pdfrwt>
<pdfrwt beam="2">  1       -2 0.64216703E-01 0.10020427E+04</pdfrwt>
<totfact> 0.13409889E+02</totfact>
</mgrwt>
</event>
<event>
 9    1  0.4246427E-036  0.1000167E+04  0.7818608E-02  0.8680879E-01
         -2   -1    0    0    0  501 -0.00000000000E+00  0.00000000000E+00  0.37295633199E+03  0.37295633199E+03  0.00000000000E+00 0.  1.
          2   -1    0    0  501    0  0.00000000000E+00 -0.00000000000E+00 -0.67054358900E+03  0.67054358900E+03  0.00000000000E+00 0.  1.
         36    2    1    2    0    0  0.28421709430E-13  0.14210854715E-13 -0.29758725701E+03  0.10434999210E+04  0.10001669409E+04 0.  0.
         25    2    3    3    0    0 -0.11388734001E+03 -0.77960086946E+02 -0.66191585842E+02  0.19883615650E+03  0.12691095194E+03 0.  0.
         35    2    3    3    0    0  0.11388734001E+03  0.77960086946E+02 -0.23139567117E+03  0.84466376449E+03  0.80054032818E+03 0.  0.
         22    1    5    5    0    0 -0.25650499073E+03  0.21591826724E+03 -0.29222550022E+03  0.44475976816E+03  0.00000000000E+00 0. -1.
         22    1    5    5    0    0  0.37039233074E+03 -0.13795818029E+03  0.60829829051E+02  0.39990399633E+03  0.00000000000E+00 0. -1.
          5    1    4    4  502    0 -0.69349993513E+02 -0.92364951866E+02  0.24465211066E+01  0.11562344658E+03  0.47000000000E+01 0. -1.
         -5    1    4    4    0  502 -0.44537346501E+02  0.14404864920E+02 -0.68638106948E+02  0.83212709920E+02  0.47000000000E+01 0. -1.
<mgrwt>
<rscale>  0 0.10001669E+04</rscale>
<asrwt>0</asrwt>
<pdfrwt beam="1">  1        2 0.10316055E+00 0.10001669E+04</pdfrwt>
<pdfrwt beam="2">  1       -2 0.57377897E-01 0.10001669E+04</pdfrwt>
<totfact> 0.14894074E+02</totfact>
</mgrwt>
</event>
<event>
 9    1  0.4246427E-036  0.9999692E+03  0.7818608E-02  0.8681067E-01
         -1   -1    0    0    0  501 -0.00000000000E+00  0.00000000000E+00  0.78715639871E+03  0.78715639871E+03  0.00000000000E+00 0.  1.
          1   -1    0    0  501    0  0.00000000000E+00 -0.00000000000E+00 -0.31757931884E+03  0.31757931884E+03  0.00000000000E+00 0.  1.
         36    2    1    2    0    0  0.00000000000E+00  0.28421709430E-13  0.46957707987E+03  0.11047357175E+04  0.99996918537E+03 0.  0.
         25    2    3    3    0    0  0.84442262995E+02  0.11094394603E+03  0.63815420915E+02  0.19768438870E+03  0.12477040774E+03 0.  0.
         35    2    3    3    0    0 -0.84442262995E+02 -0.11094394603E+03  0.40576165895E+03  0.90705132885E+03  0.79916239548E+03 0.  0.
         22    1    5    5    0    0 -0.93372543403E+02  0.27794630832E+03  0.42643145689E+03  0.51750977729E+03  0.00000000000E+00 0.  1.
         22    1    5    5    0    0  0.89302804079E+01 -0.38889025436E+03 -0.20669797933E+02  0.38954155155E+03  0.00000000000E+00 0.  1.
          5    1    4    4  502    0  0.77981702418E+02  0.65121694227E+02  0.97000792685E+02  0.14054616591E+03  0.47000000000E+01 0.  1.
         -5    1    4    4    0  502  0.64605605766E+01  0.45822251807E+02 -0.33185371770E+02  0.57138222786E+02  0.47000000000E+01 0.  1.
<mgrwt>
<rscale>  0 0.99996919E+03</rscale>
<asrwt>0</asrwt>
<pdfrwt beam="1">  1        1 0.48858357E-01 0.99996919E+03</pdfrwt>
<pdfrwt beam="2">  1       -1 0.12110098E+00 0.99996919E+03</pdfrwt>
<totfact> 0.59198280E+01</totfact>
</mgrwt>
</event>
<event>
 9    1  0.4246427E-036  0.1000185E+04  0.7818608E-02  0.8680862E-01
          1   -1    0    0  501    0  0.00000000000E+00  0.00000000000E+00  0.14524559564E+04  0.14524559564E+04  0.00000000000E+00 0. -1.
         -1   -1    0    0    0  501 -0.00000000000E+00 -0.00000000000E+00 -0.17218586807E+03  0.17218586807E+03  0.00000000000E+00 0. -1.
         36    2    1    2    0    0  0.14210854715E-13 -0.28421709430E-13  0.12802700883E+04  0.16246418244E+04  0.10001847623E+04 0.  0.
         25    2    3    3    0    0  0.66728478568E+02  0.12105469533E+03  0.21109856886E+03  0.28234266060E+03  0.12668008174E+03 0.  0.
         35    2    3    3    0    0 -0.66728478568E+02 -0.12105469533E+03  0.10691715194E+04  0.13422991638E+04  0.79970768293E+03 0.  0.
         22    1    5    5    0    0  0.17304419032E+03 -0.33361796637E+03  0.90991963771E+03  0.98447904314E+03  0.00000000000E+00 0. -1.
         22    1    5    5    0    0 -0.23977266888E+03  0.21256327104E+03  0.15925188172E+03  0.35782012069E+03  0.00000000000E+00 0. -1.
          5    1    4    4  502    0  0.50924157472E+02 -0.10733050701E+02  0.81225921291E+02  0.96582651036E+02  0.47000000000E+01 0. -1.
         -5    1    4    4    0  502  0.15804321096E+02  0.13178774603E+03  0.12987264756E+03  0.18576000957E+03  0.47000000000E+01 0. -1.
<mgrwt>
<rscale>  0 0.10001848E+04</rscale>
<asrwt>0</asrwt>
<pdfrwt beam="1">  1        1 0.22345475E+00 0.10001848E+04</pdfrwt>
<pdfrwt beam="2">  1       -1 0.26490135E-01 0.10001848E+04</pdfrwt>
<totfact> 0.96929916E+01</totfact>
</mgrwt>
</event>
<event>
 9    1  0.4246427E-036  0.1000303E+04  0.7818608E-02  0.8680749E-01
         -2   -1    0    0    0  501 -0.00000000000E+00  0.00000000000E+00  0.62793263371E+03  0.62793263371E+03  0.00000000000E+00 0. -1.
          2   -1    0    0  501    0  0.00000000000E+00 -0.00000000000E+00 -0.39837354572E+03  0.39837354572E+03  0.00000000000E+00 0. -1.
         36    2    1    2    0    0 -0.28421709430E-13  0.00000000000E+00  0.22955908799E+03  0.10263061794E+04  0.10003034535E+04 0.  0.
         25    2    3    3    0    0 -0.13699691166E+03 -0.22725117468E+01  0.70458183166E+01  0.18564840075E+03  0.12506944883E+03 0.  0.
         35    2    3    3    0    0  0.13699691166E+03  0.22725117468E+01  0.22251326967E+03  0.84065777867E+03  0.79901190701E+03 0.  0.
         22    1    5    5    0    0  0.34165005152E+03 -0.96525842717E+01 -0.18195682592E+03  0.38720306892E+03  0.00000000000E+00 0.  1.
         22    1    5    5    0    0 -0.20465313985E+03  0.11925096019E+02  0.40447009559E+03  0.45345470975E+03  0.00000000000E+00 0.  1.
          5    1    4    4  502    0 -0.11291594239E+02 -0.63483932004E+01  0.50618082121E+02  0.52460293883E+02  0.47000000000E+01 0. -1.
         -5    1    4    4    0  502 -0.12570531743E+03  0.40758814537E+01 -0.43572263805E+02  0.13318810687E+03  0.47000000000E+01 0. -1.
<mgrwt>
<rscale>  0 0.10003035E+04</rscale>
<asrwt>0</asrwt>
<pdfrwt beam="1">  1        2 0.61288238E-01 0.10003035E+04</pdfrwt>
<pdfrwt beam="2">  1       -2 0.96605020E-01 0.10003035E+04</pdfrwt>
<totfact> 0.85241680E+01</totfact>
</mgrwt>
</event>
<event>
 9    1  0.4246427E-036  0.9999811E+03  0.7818608E-02  0.8681056E-01
          3   -1    0    0  501    0  0.00000000000E+00  0.00000000000E+00  0.37273675952E+03  0.37273675952E+03  0.00000000000E+00 0.  1.
         -3   -1    0    0    0  501 -0.00000000000E+00 -0.00000000000E+00 -0.67068926550E+03  0.67068926550E+03  0.00000000000E+00 0.  1.
         36    2    1    2    0    0 -0.71054273576E-14  0.00000000000E+00 -0.29795250598E+03  0.10434260250E+04  0.99998108675E+03 0.  0.
         25    2    3    3    0    0 -0.45307922569E+02  0.13227581574E+03 -0.51361939670E+02  0.19458487706E+03  0.12520194191E+03 0.  0.
         35    2    3    3    0    0  0.45307922569E+02 -0.13227581574E+03 -0.24659056631E+03  0.84884114795E+03  0.80010917242E+03 0.  0.
         22    1    5    5    0    0 -0.32264750998E+03  0.17410543732E+02 -0.30858126641E+03  0.44679630785E+03  0.00000000000E+00 0. -1.
         22    1    5    5    0    0  0.36795543255E+03 -0.14968635947E+03  0.61990700098E+02  0.40204484010E+03  0.00000000000E+00 0. -1.
          5    1    4    4  502    0 -0.23335962436E+02  0.57205054918E+02 -0.88367400325E+02  0.10792531163E+03  0.47000000000E+01 0.  1.
         -5    1    4    4    0  502 -0.21971960133E+02  0.75070760822E+02  0.37005460655E+02  0.86659565431E+02  0.47000000000E+01 0.  1.
<mgrwt>
<rscale>  0 0.99998109E+03</rscale>
<asrwt>0</asrwt>
<pdfrwt beam="1">  1        3 0.57344118E-01 0.99998109E+03</pdfrwt>
<pdfrwt beam="2">  1       -3 0.10318296E+00 0.99998109E+03</pdfrwt>
<totfact> 0.89063277E+00</totfact>
</mgrwt>
</event>
<event>
 9    1  0.4246427E-036  0.1000814E+04  0.7818608E-02  0.8680263E-01
         -1   -1    0    0    0  501 -0.00000000000E+00  0.00000000000E+00  0.16201973971E+03  0.16201973971E+03  0.00000000000E+00 0. -1.
          1   -1    0    0  501    0  0.00000000000E+00 -0.00000000000E+00 -0.15455341503E+04  0.15455341503E+04  0.00000000000E+00 0. -1.
         36    2    1    2    0    0 -0.28421709430E-13  0.21316282073E-13 -0.13835144105E+04  0.17075538900E+04  0.10008137504E+04 0.  0.
         25    2    3    3    0    0  0.92786160064E+02  0.15564980808E+02 -0.44501115766E+03  0.47166252404E+03  0.12481612881E+03 0.  0.
         35    2    3    3    0    0 -0.92786160064E+02 -0.15564980808E+02 -0.93850325288E+03  0.12358913659E+04  0.79861603577E+03 0.  0.
         22    1    5    5    0    0  0.17797873658E+03  0.31927389108E+03 -0.34502807150E+03  0.50264959795E+03  0.00000000000E+00 0.  1.
         22    1    5    5    0    0 -0.27076489664E+03 -0.33483887189E+03 -0.59347518138E+03  0.73324176798E+03  0.00000000000E+00 0.  1.
          5    1    4    4  502    0  0.21985675304E+02 -0.47008236753E+02 -0.24398827660E+03  0.24949050755E+03  0.47000000000E+01 0. -1.
         -5    1    4    4    0  502  0.70800484760E+02  0.62573217561E+02 -0.20102288107E+03  0.22217201649E+03  0.47000000000E+01 0. -1.
<mgrwt>
<rscale>  0 0.10008138E+04</rscale>
<asrwt>0</asrwt>
<pdfrwt beam="1">  1        1 0.23777447E+00 0.10008138E+04</pdfrwt>
<pdfrwt beam="2">  1       -1 0.24926115E-01 0.10008138E+04</pdfrwt>
<totfact> 0.92180806E+01</totfact>
</mgrwt>
</event>
<event>
 9    1  0.4246427E-036  0.1001690E+04  0.7818608E-02  0.8679430E-01
         -2   -1    0    0    0  501 -0.00000000000E+00  0.00000000000E+00  0.20531367787E+03  0.20531367787E+03  0.00000000000E+00 0. -1.
          2   -1    0    0  501    0  0.00000000000E+00 -0.00000000000E+00 -0.12217682357E+04  0.12217682357E+04  0.00000000000E+00 0. -1.
         36    2    1    2    0    0  0.00000000000E+00 -0.28421709430E-13 -0.10164545579E+04  0.14270819136E+04  0.10016900319E+04 0.  0.
         25    2    3    3    0    0 -0.47636097323E+01  0.14070640596E+03 -0.17713926627E+03  0.25815059873E+03  0.12426756341E+03 0.  0.
         35    2    3    3    0    0  0.47636097323E+01 -0.14070640596E+03 -0.83931529160E+03  0.11689313149E+04  0.80132969214E+03 0.  0.
         22    1    5    5    0    0 -0.33220225937E+03 -0.29380578201E+03 -0.45860430331E+03  0.63796401598E+03  0.00000000000E+00 0. -1.
         22    1    5    5    0    0  0.33696586910E+03  0.15309937605E+03 -0.38071098829E+03  0.53096729889E+03  0.00000000000E+00 0. -1.
          5    1    4    4  502    0  0.28953969931E+02  0.14851447682E+03 -0.15572939538E+03  0.21718337134E+03  0.47000000000E+01 0.  1.
         -5    1    4    4    0  502 -0.33717579663E+02 -0.78080708612E+01 -0.21409870895E+02  0.40967227398E+02  0.47000000000E+01 0.  1.
<mgrwt>
<rscale>  0 0.10016900E+04</rscale>
<asrwt>0</asrwt>
<pdfrwt beam="1">  1        2 0.18796434E+00 0.10016900E+04</pdfrwt>
<pdfrwt beam="2">  1       -2 0.31586720E-01 0.10016900E+04</pdfrwt>
<totfact> 0.20601574E+02</totfact>
</mgrwt>
</event>
<event>
 9    1  0.4246427E-036  0.1000599E+04  0.7818608E-02  0.8680468E-01
         -2   -1    0    0    0  501 -0.00000000000E+00  0.00000000000E+00  0.16780848172E+03  0.16780848172E+03  0.00000000000E+00 0. -1.
          2   -1    0    0  501    0  0.00000000000E+00 -0.00000000000E+00 -0.14915794281E+04  0.14915794281E+04  0.00000000000E+00 0. -1.
         36    2    1    2    0    0  0.28421709430E-13  0.00000000000E+00 -0.13237709464E+04  0.16593879099E+04  0.10005991789E+04 0.  0.
         25    2    3    3    0    0 -0.69138223865E+02 -0.58906563269E+02 -0.41899414076E+03  0.44777918540E+03  0.12922860246E+03 0.  0.
         35    2    3    3    0    0  0.69138223865E+02  0.58906563269E+02 -0.90477680566E+03  0.12116087245E+04  0.80070253898E+03 0.  0.
         22    1    5    5    0    0 -0.35528192218E+03 -0.10712063675E+01 -0.55207336667E+03  0.65651458011E+03  0.00000000000E+00 0. -1.
         22    1    5    5    0    0  0.42442014604E+03  0.59977769637E+02 -0.35270343899E+03  0.55509414435E+03  0.00000000000E+00 0. -1.
          5    1    4    4  502    0  0.23418930652E+02 -0.79432758210E+01 -0.22859297162E+03  0.22997473474E+03  0.47000000000E+01 0.  1.
         -5    1    4    4    0  502 -0.92557154517E+02 -0.50963287448E+02 -0.19040116914E+03  0.21780445066E+03  0.47000000000E+01 0.  1.
<mgrwt>
<rscale>  0 0.10005992E+04</rscale>
<asrwt>0</asrwt>
<pdfrwt beam="1">  1        2 0.22947375E+00 0.10005992E+04</pdfrwt>
<pdfrwt beam="2">  1       -2 0.25816690E-01 0.10005992E+04</pdfrwt>
<totfact> 0.20753313E+02</totfact>
</mgrwt>
</event>
<event>
 9    1  0.4246427E-036  0.1000337E+04  0.7818608E-02  0.8680717E-01
         -1   -1    0    0    0  501 -0.00000000000E+00  0.00000000000E+00  0.15875491978E+03  0.15875491978E+03  0.00000000000E+00 0. -1.
          1   -1    0    0  501    0  0.00000000000E+00 -0.00000000000E+00 -0.15758151243E+04  0.15758151243E+04  0.00000000000E+00 0. -1.
         36    2    1    2    0    0 -0.14210854715E-13  0.15987211555E-13 -0.14170602046E+04  0.17345700441E+04  0.10003367506E+04 0.  0.
         25    2    3    3    0    0  0.85877947195E+02 -0.95386189360E+01 -0.76244561762E+02  0.16669274893E+03  0.12044597246E+03 0.  0.
         35    2    3    3    0    0 -0.85877947195E+02  0.95386189360E+01 -0.13408156428E+04  0.15678772952E+04  0.80807587376E+03 0.  0.
         22    1    5    5    0    0  0.12897145475E+03 -0.16588758244E+03 -0.12049037246E+02  0.21046972572E+03  0.00000000000E+00 0. -1.
         22    1    5    5    0    0 -0.21484940194E+03  0.17542620137E+03 -0.13287666055E+04  0.13574075695E+04  0.00000000000E+00 0. -1.
          5    1    4    4  502    0  0.60338355316E+02  0.67550906737E+01 -0.10709636367E+03  0.12319930796E+03  0.47000000000E+01 0. -1.
         -5    1    4    4    0  502  0.25539591879E+02 -0.16293709610E+02  0.30851801905E+02  0.43493440965E+02  0.47000000000E+01 0. -1.
<mgrwt>
<rscale>  0 0.10003368E+04</rscale>
<asrwt>0</asrwt>
<pdfrwt beam="1">  1        1 0.24243309E+00 0.10003368E+04</pdfrwt>
<pdfrwt beam="2">  1       -1 0.24423835E-01 0.10003368E+04</pdfrwt>
<totfact> 0.90782359E+01</totfact>
</mgrwt>
</event>
<event>
 9    1  0.4246427E-036  0.1000440E+04  0.7818608E-02  0.8680619E-01
         -1   -1    0    0    0  501 -0.00000000000E+00  0.00000000000E+00  0.51491112493E+03  0.51491112493E+03  0.00000000000E+00 0.  1.
          1   -1    0    0  501    0  0.00000000000E+00 -0.00000000000E+00 -0.48594825074E+03  0.48594825074E+03  0.00000000000E+00 0.  1.
         36    2    1    2    0    0  0.00000000000E+00 -0.28421709430E-13  0.28962874184E+02  0.10008593757E+04  0.10004402240E+04 0.  0.
         25    2    3    3    0    0  0.64843510129E+02 -0.53570521169E+02 -0.10792789145E+03  0.18561669451E+03  0.12542187203E+03 0.  0.
         35    2    3    3    0    0 -0.64843510129E+02  0.53570521169E+02  0.13689076564E+03  0.81524268116E+03  0.79925406845E+03 0.  0.
         22    1    5    5    0    0 -0.15493489359E+03 -0.31750366963E+03  0.23081646402E+03  0.42200668424E+03  0.00000000000E+00 0. -1.
         22    1    5    5    0    0  0.90091383465E+02  0.37107419080E+03 -0.93925698382E+02  0.39323599692E+03  0.00000000000E+00 0. -1.
          5    1    4    4  502    0  0.72512691219E+02 -0.54419502286E+02 -0.14716754830E+02  0.91968720170E+02  0.47000000000E+01 0. -1.
         -5    1    4    4    0  502 -0.76691810897E+01  0.84898111692E+00 -0.93211136625E+02  0.93647974342E+02  0.47000000000E+01 0. -1.
<mgrwt>
<rscale>  0 0.10004402E+04</rscale>
<asrwt>0</asrwt>
<pdfrwt beam="1">  1        1 0.74761270E-01 0.10004402E+04</pdfrwt>
<pdfrwt beam="2">  1       -1 0.79217096E-01 0.10004402E+04</pdfrwt>
<totfact> 0.86821204E+01</totfact>
</mgrwt>
</event>
<event>
 9    1  0.4246427E-036  0.1000475E+04  0.7818608E-02  0.8680585E-01
          2   -1    0    0  501    0  0.00000000000E+00  0.00000000000E+00  0.73680969978E+03  0.73680969978E+03  0.00000000000E+00 0.  1.
         -2   -1    0    0    0  501 -0.00000000000E+00 -0.00000000000E+00 -0.33962337708E+03  0.33962337708E+03  0.00000000000E+00 0.  1.
         36    2    1    2    0    0  0.00000000000E+00  0.71054273576E-14  0.39718632270E+03  0.10764330769E+04  0.10004754840E+04 0.  0.
         25    2    3    3    0    0  0.13670669706E+03  0.19251746350E+02  0.83513062919E+02  0.20476301070E+03  0.12607183711E+03 0.  0.
         35    2    3    3    0    0 -0.13670669706E+03 -0.19251746350E+02  0.31367325978E+03  0.87167006616E+03  0.80147266927E+03 0.  0.
         22    1    5    5    0    0  0.25127263044E+03 -0.11804771600E+03 -0.10085219821E+03  0.29537156929E+03  0.00000000000E+00 0.  1.
         22    1    5    5    0    0 -0.38797932750E+03  0.98795969648E+02  0.41452545798E+03  0.57629849688E+03  0.00000000000E+00 0.  1.
          5    1    4    4  502    0  0.92067449261E+02  0.71231613189E+02  0.38712035779E+02  0.12276428489E+03  0.47000000000E+01 0. -1.
         -5    1    4    4    0  502  0.44639247797E+02 -0.51979866840E+02  0.44801027141E+02  0.81998725804E+02  0.47000000000E+01 0. -1.
<mgrwt>
<rscale>  0 0.10004755E+04</rscale>
<asrwt>0</asrwt>
<pdfrwt beam="1">  1        2 0.11335534E+00 0.10004755E+04</pdfrwt>
<pdfrwt beam="2">  1       -2 0.52249751E-01 0.10004755E+04</pdfrwt>
<totfact> 0.16058675E+02</totfact>
</mgrwt>
</event>
<event>
 9    1  0.4246427E-036  0.9986998E+03  0.7818608E-02  0.8682277E-01
          2   -1    0    0  501    0  0.00000000000E+00  0.00000000000E+00  0.20244888293E+04  0.20244888293E+04  0.00000000000E+00 0. -1.
         -2   -1    0    0    0  501 -0.00000000000E+00 -0.00000000000E+00 -0.12316705987E+03  0.12316705987E+03  0.00000000000E+00 0. -1.
         36    2    1    2    0    0 -0.14210854715E-13 -0.42632564146E-13  0.19013217695E+04  0.21476558892E+04  0.99869982846E+03 0.  0.
         25    2    3    3    0    0 -0.78727596414E+02  0.66180581042E+02  0.15390225155E+03  0.22309729497E+03  0.12453351455E+03 0.  0.
         35    2    3    3    0    0  0.78727596414E+02 -0.66180581042E+02  0.17474195179E+04  0.19245585942E+04  0.79992056311E+03 0.  0.
         22    1    5    5    0    0 -0.67413499965E+02  0.30159955831E+03  0.32653867983E+03  0.44959357533E+03  0.00000000000E+00 0. -1.
         22    1    5    5    0    0  0.14614109638E+03 -0.36778013935E+03  0.14208808381E+04  0.14749650189E+04  0.00000000000E+00 0. -1.
          5    1    4    4  502    0 -0.10931280945E+03  0.41079181720E+02  0.88841608258E+02  0.14680500958E+03  0.47000000000E+01 0. -1.
         -5    1    4    4    0  502  0.30585213032E+02  0.25101399321E+02  0.65060643291E+02  0.76292285387E+02  0.47000000000E+01 0. -1.
<mgrwt>
<rscale>  0 0.99869983E+03</rscale>
<asrwt>0</asrwt>
<pdfrwt beam="1">  1        2 0.31145980E+00 0.99869983E+03</pdfrwt>
<pdfrwt beam="2">  1       -2 0.18948780E-01 0.99869983E+03</pdfrwt>
<totfact> 0.17817301E+02</totfact>
</mgrwt>
</event>
<event>
 9    1  0.4246427E-036  0.9999105E+03  0.7818608E-02  0.8681123E-01
          2   -1    0    0  501    0  0.00000000000E+00  0.00000000000E+00  0.89636119572E+03  0.89636119572E+03  0.00000000000E+00 0.  1.
         -2   -1    0    0    0  501 -0.00000000000E+00 -0.00000000000E+00 -0.27885552407E+03  0.27885552407E+03  0.00000000000E+00 0.  1.
         36    2    1    2    0    0  0.28421709430E-13  0.35527136788E-13  0.61750567165E+03  0.11752167198E+04  0.99991053798E+03 0.  0.
         25    2    3    3    0    0 -0.83974323068E+02  0.62984429831E+02  0.23276846485E+03  0.28362093423E+03  0.12345424566E+03 0.  0.
         35    2    3    3    0    0  0.83974323068E+02 -0.62984429831E+02  0.38473720680E+03  0.89159578556E+03  0.79743438677E+03 0.  0.
         22    1    5    5    0    0  0.35837721718E+03 -0.27649977768E+03  0.17341239226E+03  0.48472488551E+03  0.00000000000E+00 0.  1.
         22    1    5    5    0    0 -0.27440289411E+03  0.21351534785E+03  0.21132481454E+03  0.40687090005E+03  0.00000000000E+00 0.  1.
          5    1    4    4  502    0 -0.31216562426E+02  0.22944908430E+02  0.20974524450E+03  0.21334502615E+03  0.47000000000E+01 0.  1.
         -5    1    4    4    0  502 -0.52757760642E+02  0.40039521401E+02  0.23023220349E+02  0.70275908085E+02  0.47000000000E+01 0.  1.
<mgrwt>
<rscale>  0 0.99991054E+03</rscale>
<asrwt>0</asrwt>
<pdfrwt beam="1">  1        2 0.13790172E+00 0.99991054E+03</pdfrwt>
<pdfrwt beam="2">  1       -2 0.42900850E-01 0.99991054E+03</pdfrwt>
<totfact> 0.18377140E+02</totfact>
</mgrwt>
</event>
<event>
 9    1  0.4246427E-036  0.1000108E+04  0.7818608E-02  0.8680935E-01
          1   -1    0    0  501    0  0.00000000000E+00  0.00000000000E+00  0.15965304868E+04  0.15965304868E+04  0.00000000000E+00 0.  1.
         -1   -1    0    0    0  501 -0.00000000000E+00 -0.00000000000E+00 -0.15662329905E+03  0.15662329905E+03  0.00000000000E+00 0.  1.
         36    2    1    2    0    0 -0.14210854715E-13  0.00000000000E+00  0.14399071878E+04  0.17531537859E+04  0.10001077380E+04 0.  0.
         25    2    3    3    0    0  0.12796906746E+03 -0.21283500156E+02  0.18248217510E+03  0.25663634393E+03  0.12543284734E+03 0.  0.
         35    2    3    3    0    0 -0.12796906746E+03  0.21283500156E+02  0.12574250127E+04  0.14965174419E+04  0.80101043809E+03 0.  0.
         22    1    5    5    0    0 -0.27910688420E+03 -0.74225606849E+02  0.12837208290E+04  0.13158074557E+04  0.00000000000E+00 0.  1.
         22    1    5    5    0    0  0.15113781674E+03  0.95509107005E+02 -0.26295816377E+02  0.18070998625E+03  0.00000000000E+00 0.  1.
          5    1    4    4  502    0  0.10432538387E+03  0.39979314180E+02  0.92385252391E+02  0.14504915078E+03  0.47000000000E+01 0.  1.
         -5    1    4    4    0  502  0.23643683585E+02 -0.61262814336E+02  0.90096922707E+02  0.11158719315E+03  0.47000000000E+01 0.  1.
<mgrwt>
<rscale>  0 0.10001077E+04</rscale>
<asrwt>0</asrwt>
<pdfrwt beam="1">  1        1 0.24562006E+00 0.10001077E+04</pdfrwt>
<pdfrwt beam="2">  1       -1 0.24095893E-01 0.10001077E+04</pdfrwt>
<totfact> 0.89779397E+01</totfact>
</mgrwt>
</event>
<event>
 9    1  0.4246427E-036  0.9996337E+03  0.7818608E-02  0.8681387E-01
          1   -1    0    0  501    0  0.00000000000E+00  0.00000000000E+00  0.10327107181E+04  0.10327107181E+04  0.00000000000E+00 0.  1.
         -1   -1    0    0    0  501 -0.00000000000E+00 -0.00000000000E+00 -0.24190402548E+03  0.24190402548E+03  0.00000000000E+00 0.  1.
         36    2    1    2    0    0  0.14210854715E-13 -0.14210854715E-13  0.79080669266E+03  0.12746147436E+04  0.99963369265E+03 0.  0.
         25    2    3    3    0    0  0.90192583318E+02  0.13464778962E+02  0.12796421782E+02  0.15509066326E+03  0.12479328132E+03 0.  0.
         35    2    3    3    0    0 -0.90192583318E+02 -0.13464778962E+02  0.77801027087E+03  0.11195240803E+04  0.79982384469E+03 0.  0.
         22    1    5    5    0    0  0.29467391515E+03 -0.19840402155E+03  0.22364959839E+03  0.41978091297E+03  0.00000000000E+00 0.  1.
         22    1    5    5    0    0 -0.38486649846E+03  0.18493924259E+03  0.55436067249E+03  0.69974316738E+03  0.00000000000E+00 0.  1.
          5    1    4    4  502    0 -0.38915938136E+01  0.39215494353E+02 -0.28705127894E+02  0.48980341640E+02  0.47000000000E+01 0.  1.
         -5    1    4    4    0  502  0.94084177131E+02 -0.25750715391E+02  0.41501549677E+02  0.10611032162E+03  0.47000000000E+01 0.  1.
<mgrwt>
<rscale>  0 0.99963369E+03</rscale>
<asrwt>0</asrwt>
<pdfrwt beam="1">  1        1 0.15887857E+00 0.99963369E+03</pdfrwt>
<pdfrwt beam="2">  1       -1 0.37216004E-01 0.99963369E+03</pdfrwt>
<totfact> 0.11067618E+02</totfact>
</mgrwt>
</event>
<event>
 9    1  0.4246427E-036  0.9999393E+03  0.7818608E-02  0.8681096E-01
         -2   -1    0    0    0  501 -0.00000000000E+00  0.00000000000E+00  0.40113904688E+03  0.40113904688E+03  0.00000000000E+00 0.  1.
          2   -1    0    0  501    0  0.00000000000E+00 -0.00000000000E+00 -0.62314967599E+03  0.62314967599E+03  0.00000000000E+00 0.  1.
         36    2    1    2    0    0  0.56843418861E-13  0.14210854715E-13 -0.22201062910E+03  0.10242887229E+04  0.99993933234E+03 0.  0.
         25    2    3    3    0    0  0.11583589004E+03  0.75989116635E+02 -0.60883596820E+02  0.19650284143E+03  0.12535651184E+03 0.  0.
         35    2    3    3    0    0 -0.11583589004E+03 -0.75989116635E+02 -0.16112703228E+03  0.82778588144E+03  0.80004702718E+03 0.  0.
         22    1    5    5    0    0 -0.43724303718E+03 -0.41037280584E+02  0.49470265188E+02  0.44194212189E+03  0.00000000000E+00 0. -1.
         22    1    5    5    0    0  0.32140714714E+03 -0.34951836051E+02 -0.21059729747E+03  0.38584375955E+03  0.00000000000E+00 0. -1.
          5    1    4    4  502    0  0.99885238984E+01 -0.27647591248E+02  0.11054757373E+02  0.31756220998E+02  0.47000000000E+01 0. -1.
         -5    1    4    4    0  502  0.10584736614E+03  0.10363670788E+03 -0.71938354193E+02  0.16474662043E+03  0.47000000000E+01 0. -1.
<mgrwt>
<rscale>  0 0.99993933E+03</rscale>
<asrwt>0</asrwt>
<pdfrwt beam="1">  1        2 0.95869181E-01 0.99993933E+03</pdfrwt>
<pdfrwt beam="2">  1       -2 0.61713700E-01 0.99993933E+03</pdfrwt>
<totfact> 0.13979957E+02</totfact>
</mgrwt>
</event>
<event>
 9    1  0.4246427E-036  0.1002511E+04  0.7818608E-02  0.8678650E-01
          1   -1    0    0  501    0  0.00000000000E+00  0.00000000000E+00  0.61650134677E+03  0.61650134677E+03  0.00000000000E+00 0. -1.
         -1   -1    0    0    0  501 -0.00000000000E+00 -0.00000000000E+00 -0.40755328006E+03  0.40755328006E+03  0.00000000000E+00 0. -1.
         36    2    1    2    0    0  0.00000000000E+00 -0.17763568394E-14  0.20894806671E+03  0.10240546268E+04  0.10025111392E+04 0.  0.
         25    2    3    3    0    0  0.52670828177E+02 -0.72069158172E+01  0.17567465007E+03  0.22211617976E+03  0.12509140201E+03 0.  0.
         35    2    3    3    0    0 -0.52670828177E+02  0.72069158172E+01  0.33273416641E+02  0.80193844707E+03  0.79948233055E+03 0.  0.
         22    1    5    5    0    0  0.36249790650E+02  0.38598973701E+02  0.41009366913E+03  0.41349818083E+03  0.00000000000E+00 0.  1.
         22    1    5    5    0    0 -0.88920618827E+02 -0.31392057884E+02 -0.37682025249E+03  0.38844026624E+03  0.00000000000E+00 0.  1.
          5    1    4    4  502    0 -0.15683134036E+02  0.46140799363E+01  0.14521715324E+03  0.14620999290E+03  0.47000000000E+01 0.  1.
         -5    1    4    4    0  502  0.68353962214E+02 -0.11820995754E+02  0.30457496825E+02  0.75906186861E+02  0.47000000000E+01 0.  1.
<mgrwt>
<rscale>  0 0.10025111E+04</rscale>
<asrwt>0</asrwt>
<pdfrwt beam="1">  1        1 0.94846361E-01 0.10025111E+04</pdfrwt>
<pdfrwt beam="2">  1       -1 0.62700505E-01 0.10025111E+04</pdfrwt>
<totfact> 0.98651610E+01</totfact>
</mgrwt>
</event>
<event>
 9    1  0.4246427E-036  0.9987598E+03  0.7818608E-02  0.8682220E-01
          1   -1    0    0  501    0  0.00000000000E+00  0.00000000000E+00  0.13034268955E+04  0.13034268955E+04  0.00000000000E+00 0. -1.
         -1   -1    0    0    0  501 -0.00000000000E+00 -0.00000000000E+00 -0.19132665201E+03  0.19132665201E+03  0.00000000000E+00 0. -1.
         36    2    1    2    0    0  0.00000000000E+00  0.28421709430E-13  0.11121002435E+04  0.14947535475E+04  0.99875983910E+03 0.  0.
         25    2    3    3    0    0  0.57238250751E+02 -0.11737954940E+03  0.27724040137E+03  0.33089981995E+03  0.12481295897E+03 0.  0.
         35    2    3    3    0    0 -0.57238250751E+02  0.11737954940E+03  0.83485984211E+03  0.11638537275E+04  0.80031891592E+03 0.  0.
         22    1    5    5    0    0 -0.28524405832E+03  0.17774287705E+03  0.44466431886E+02  0.33901912441E+03  0.00000000000E+00 0. -1.
         22    1    5    5    0    0  0.22800580757E+03 -0.60363327656E+02  0.79039341022E+03  0.82483460314E+03  0.00000000000E+00 0. -1.
          5    1    4    4  502    0  0.95529520175E+02 -0.77049420867E+02  0.21234896894E+03  0.24530934979E+03  0.47000000000E+01 0.  1.
         -5    1    4    4    0  502 -0.38291269424E+02 -0.40330128528E+02  0.64891432428E+02  0.85590470169E+02  0.47000000000E+01 0.  1.
<mgrwt>
<rscale>  0 0.99875984E+03</rscale>
<asrwt>0</asrwt>
<pdfrwt beam="1">  1        1 0.20052721E+00 0.99875984E+03</pdfrwt>
<pdfrwt beam="2">  1       -1 0.29434870E-01 0.99875984E+03</pdfrwt>
<totfact> 0.10383929E+02</totfact>
</mgrwt>
</event>
<event>
 9    1  0.4246427E-036  0.1011111E+04  0.7818608E-02  0.8670529E-01
          1   -1    0    0  501    0  0.00000000000E+00  0.00000000000E+00  0.45596122880E+03  0.45596122880E+03  0.00000000000E+00 0. -1.
         -1   -1    0    0    0  501 -0.00000000000E+00 -0.00000000000E+00 -0.56054377454E+03  0.56054377454E+03  0.00000000000E+00 0. -1.
         36    2    1    2    0    0  0.00000000000E+00  0.14210854715E-13 -0.10458254574E+03  0.10165050033E+04  0.10111107323E+04 0.  0.
         25    2    3    3    0    0  0.78930595093E+02 -0.86077133250E+02  0.77573458993E+02  0.18765194121E+03  0.12472488841E+03 0.  0.
         35    2    3    3    0    0 -0.78930595093E+02  0.86077133250E+02 -0.18215600474E+03  0.82885306213E+03  0.80011079035E+03 0.  0.
         22    1    5    5    0    0 -0.13168683718E+03  0.18415345888E+03  0.27621954886E+03  0.35714305072E+03  0.00000000000E+00 0.  1.
         22    1    5    5    0    0  0.52756242082E+02 -0.98076325626E+02 -0.45837555360E+03  0.47171001141E+03  0.00000000000E+00 0.  1.
          5    1    4    4  502    0  0.17069669392E+02 -0.11708495598E+02 -0.33891720887E+02  0.39990014091E+02  0.47000000000E+01 0. -1.
         -5    1    4    4    0  502  0.61860925700E+02 -0.74368637653E+02  0.11146517988E+03  0.14766192712E+03  0.47000000000E+01 0. -1.
<mgrwt>
<rscale>  0 0.10111107E+04</rscale>
<asrwt>0</asrwt>
<pdfrwt beam="1">  1        1 0.70147881E-01 0.10111107E+04</pdfrwt>
<pdfrwt beam="2">  1       -1 0.86237504E-01 0.10111107E+04</pdfrwt>
<totfact> 0.79112590E+01</totfact>
</mgrwt>
</event>
<event>
 9    1  0.4246427E-036  0.9954166E+03  0.7818608E-02  0.8685415E-01
         -1   -1    0    0    0  501 -0.00000000000E+00  0.00000000000E+00  0.23978343512E+03  0.23978343512E+03  0.00000000000E+00 0.  1.
          1   -1    0    0  501    0  0.00000000000E+00 -0.00000000000E+00 -0.10330719132E+04  0.10330719132E+04  0.00000000000E+00 0.  1.
         36    2    1    2    0    0  0.00000000000E+00  0.35527136788E-14 -0.79328847804E+03  0.12728553483E+04  0.99541656016E+03 0.  0.
         25    2    3    3    0    0  0.13118330168E+03 -0.11249753522E+02 -0.10642617869E+03  0.21008203538E+03  0.12438775858E+03 0.  0.
         35    2    3    3    0    0 -0.13118330168E+03  0.11249753522E+02 -0.68686229934E+03  0.10627733129E+04  0.80023226675E+03 0.  0.
         22    1    5    5    0    0  0.23672488395E+03 -0.22759244885E+03 -0.12828262947E+03  0.35255272865E+03  0.00000000000E+00 0.  1.
         22    1    5    5    0    0 -0.36790818563E+03  0.23884220237E+03 -0.55857966987E+03  0.71022058424E+03  0.00000000000E+00 0.  1.
          5    1    4    4  502    0  0.73386492238E+02  0.30405660293E+00  0.14975803039E+02  0.75046881149E+02  0.47000000000E+01 0.  1.
         -5    1    4    4    0  502  0.57796809442E+02 -0.11553810125E+02 -0.12140198173E+03  0.13503515423E+03  0.47000000000E+01 0.  1.
<mgrwt>
<rscale>  0 0.99541656E+03</rscale>
<asrwt>0</asrwt>
<pdfrwt beam="1">  1        1 0.15893414E+00 0.99541656E+03</pdfrwt>
<pdfrwt beam="2">  1       -1 0.36889759E-01 0.99541656E+03</pdfrwt>
<totfact> 0.11237319E+02</totfact>
</mgrwt>
</event>
<event>
 9    1  0.4246427E-036  0.9996390E+03  0.7818608E-02  0.8681382E-01
         -2   -1    0    0    0  501 -0.00000000000E+00  0.00000000000E+00  0.34864709817E+03  0.34864709817E+03  0.00000000000E+00 0.  1.
          2   -1    0    0  501    0  0.00000000000E+00 -0.00000000000E+00 -0.71653977518E+03  0.71653977518E+03  0.00000000000E+00 0.  1.
         36    2    1    2    0    0  0.28421709430E-13  0.00000000000E+00 -0.36789267700E+03  0.10651868733E+04  0.99963896151E+03 0.  0.
         25    2    3    3    0    0 -0.10786125911E+03  0.52858096300E+02  0.10704951085E+02  0.17333607709E+03  0.12451012040E+03 0.  0.
         35    2    3    3    0    0  0.10786125911E+03 -0.52858096300E+02 -0.37859762809E+03  0.89185079626E+03  0.79851966114E+03 0.  0.
         22    1    5    5    0    0  0.25897620516E+03  0.31457491198E+03 -0.15493252027E+03  0.43592446126E+03  0.00000000000E+00 0. -1.
         22    1    5    5    0    0 -0.15111494605E+03 -0.36743300828E+03 -0.22366510782E+03  0.45592633500E+03  0.00000000000E+00 0. -1.
          5    1    4    4  502    0 -0.10205114628E+03  0.71744311779E+02  0.45647703757E+02  0.13291909414E+03  0.47000000000E+01 0. -1.
         -5    1    4    4    0  502 -0.58101128305E+01 -0.18886215479E+02 -0.34942752673E+02  0.40416982947E+02  0.47000000000E+01 0. -1.
<mgrwt>
<rscale>  0 0.99963896E+03</rscale>
<asrwt>0</asrwt>
<pdfrwt beam="1">  1        2 0.11023689E+00 0.99963896E+03</pdfrwt>
<pdfrwt beam="2">  1       -2 0.53638015E-01 0.99963896E+03</pdfrwt>
<totfact> 0.15765379E+02</totfact>
</mgrwt>
</event>
<event>
 9    1  0.4246427E-036  0.1000389E+04  0.7818608E-02  0.8680667E-01
         -4   -1    0    0    0  501 -0.00000000000E+00  0.00000000000E+00  0.22056656539E+03  0.22056656539E+03  0.00000000000E+00 0.  1.
          4   -1    0    0  501    0  0.00000000000E+00 -0.00000000000E+00 -0.11343269220E+04  0.11343269220E+04  0.00000000000E+00 0.  1.
         36    2    1    2    0    0  0.28421709430E-13 -0.14210854715E-13 -0.91376035664E+03  0.13548934874E+04  0.10003891107E+04 0.  0.
         25    2    3    3    0    0  0.79877542492E+02  0.11471221274E+03 -0.17714213891E+03  0.25835729694E+03  0.12581669983E+03 0.  0.
         35    2    3    3    0    0 -0.79877542492E+02 -0.11471221274E+03 -0.73661821773E+03  0.10965361905E+04  0.80015367574E+03 0.  0.
         22    1    5    5    0    0 -0.32701496603E+03 -0.31661188094E+03 -0.26377417755E+03  0.52607859480E+03  0.00000000000E+00 0.  1.
         22    1    5    5    0    0  0.24713742354E+03  0.20189966821E+03 -0.47284404018E+03  0.57045759568E+03  0.00000000000E+00 0.  1.
          5    1    4    4  502    0  0.90746271099E+02  0.30293724762E+02 -0.58397156959E+02  0.11218250050E+03  0.47000000000E+01 0.  1.
         -5    1    4    4    0  502 -0.10868728606E+02  0.84418487975E+02 -0.11874498195E+03  0.14617479643E+03  0.47000000000E+01 0.  1.
<mgrwt>
<rscale>  0 0.10003891E+04</rscale>
<asrwt>0</asrwt>
<pdfrwt beam="1">  1        4 0.17451183E+00 0.10003891E+04</pdfrwt>
<pdfrwt beam="2">  1       -4 0.33933318E-01 0.10003891E+04</pdfrwt>
<totfact> 0.31149831E+00</totfact>
</mgrwt>
</event>
<event>
 9    1  0.4246427E-036  0.1000184E+04  0.7818608E-02  0.8680863E-01
          1   -1    0    0  501    0  0.00000000000E+00  0.00000000000E+00  0.17191651717E+04  0.17191651717E+04  0.00000000000E+00 0. -1.
         -1   -1    0    0    0  501 -0.00000000000E+00 -0.00000000000E+00 -0.14547291578E+03  0.14547291578E+03  0.00000000000E+00 0. -1.
         36    2    1    2    0    0 -0.11546319456E-13 -0.71054273576E-14  0.15736922560E+04  0.18646380875E+04  0.10001839236E+04 0.  0.
         25    2    3    3    0    0  0.30862310641E+01  0.58745119613E+02  0.53319446529E+03  0.55089784567E+03  0.12542561399E+03 0.  0.
         35    2    3    3    0    0 -0.30862310641E+01 -0.58745119613E+02  0.10404977907E+04  0.13137402418E+04  0.79988577731E+03 0.  0.
         22    1    5    5    0    0 -0.33159056401E+03  0.58503063790E+01  0.15307652713E+03  0.36526559020E+03  0.00000000000E+00 0. -1.
         22    1    5    5    0    0  0.32850433295E+03 -0.64595425992E+02  0.88742126353E+03  0.94847465163E+03  0.00000000000E+00 0. -1.
          5    1    4    4  502    0  0.10937179361E+02 -0.30849361833E+02  0.28418800735E+03  0.28610525779E+03  0.47000000000E+01 0. -1.
         -5    1    4    4    0  502 -0.78509482968E+01  0.89594481445E+02  0.24900645795E+03  0.26479258788E+03  0.47000000000E+01 0. -1.
<mgrwt>
<rscale>  0 0.10001839E+04</rscale>
<asrwt>0</asrwt>
<pdfrwt beam="1">  1        1 0.26448693E+00 0.10001839E+04</pdfrwt>
<pdfrwt beam="2">  1       -1 0.22380450E-01 0.10001839E+04</pdfrwt>
<totfact> 0.83207364E+01</totfact>
</mgrwt>
</event>
<event>
 9    1  0.4246427E-036  0.9999410E+03  0.7818608E-02  0.8681094E-01
         -1   -1    0    0    0  501 -0.00000000000E+00  0.00000000000E+00  0.64477941823E+03  0.64477941823E+03  0.00000000000E+00 0. -1.
          1   -1    0    0  501    0  0.00000000000E+00 -0.00000000000E+00 -0.38768372571E+03  0.38768372571E+03  0.00000000000E+00 0. -1.
         36    2    1    2    0    0  0.00000000000E+00  0.00000000000E+00  0.25709569252E+03  0.10324631439E+04  0.99994097250E+03 0.  0.
         25    2    3    3    0    0 -0.13434060206E+03 -0.37625603503E+02  0.34221933164E+02  0.19024926251E+03  0.12474196477E+03 0.  0.
         35    2    3    3    0    0  0.13434060206E+03  0.37625603503E+02  0.22287375935E+03  0.84221388143E+03  0.80011775763E+03 0.  0.
         22    1    5    5    0    0  0.43120876927E+03  0.19115547678E+03  0.78593299043E+02  0.47818231424E+03  0.00000000000E+00 0. -1.
         22    1    5    5    0    0 -0.29686816721E+03 -0.15352987327E+03  0.14428046031E+03  0.36403156720E+03  0.00000000000E+00 0. -1.
          5    1    4    4  502    0 -0.79125016625E+02 -0.81623754480E+00 -0.41483102269E+02  0.89467157513E+02  0.47000000000E+01 0.  1.
         -5    1    4    4    0  502 -0.55215585434E+02 -0.36809365958E+02  0.75705035432E+02  0.10078210499E+03  0.47000000000E+01 0.  1.
<mgrwt>
<rscale>  0 0.99994097E+03</rscale>
<asrwt>0</asrwt>
<pdfrwt beam="1">  1        1 0.59643650E-01 0.99994097E+03</pdfrwt>
<pdfrwt beam="2">  1       -1 0.99196834E-01 0.99994097E+03</pdfrwt>
<totfact> 0.72725275E+01</totfact>
</mgrwt>
</event>
<event>
 9    1  0.4246427E-036  0.1000240E+04  0.7818608E-02  0.8680810E-01
          2   -1    0    0  501    0  0.00000000000E+00  0.00000000000E+00  0.13627665423E+04  0.13627665423E+04  0.00000000000E+00 0.  1.
         -2   -1    0    0    0  501 -0.00000000000E+00 -0.00000000000E+00 -0.18353830659E+03  0.18353830659E+03  0.00000000000E+00 0.  1.
         36    2    1    2    0    0  0.14210854715E-13 -0.71054273576E-14  0.11792282357E+04  0.15463048489E+04  0.10002396982E+04 0.  0.
         25    2    3    3    0    0 -0.42909852629E+02  0.35126424966E+02  0.21087051699E+02  0.13746405129E+03  0.12400234056E+03 0.  0.
         35    2    3    3    0    0  0.42909852629E+02 -0.35126424966E+02  0.11581411840E+04  0.14088407976E+04  0.80029136550E+03 0.  0.
         22    1    5    5    0    0 -0.30955790835E+03  0.10363942188E+03  0.21084763961E+03  0.38861800719E+03  0.00000000000E+00 0.  1.
         22    1    5    5    0    0  0.35246776097E+03 -0.13876584685E+03  0.94729354444E+03  0.10202227904E+04  0.00000000000E+00 0.  1.
          5    1    4    4  502    0  0.54471612732E+01  0.43584822343E+02 -0.39558439857E+02  0.59298132084E+02  0.47000000000E+01 0. -1.
         -5    1    4    4    0  502 -0.48357013902E+02 -0.84583973776E+01  0.60645491556E+02  0.78165919209E+02  0.47000000000E+01 0. -1.
<mgrwt>
<rscale>  0 0.10002397E+04</rscale>
<asrwt>0</asrwt>
<pdfrwt beam="1">  1        2 0.20965638E+00 0.10002397E+04</pdfrwt>
<pdfrwt beam="2">  1       -2 0.28236663E-01 0.10002397E+04</pdfrwt>
<totfact> 0.20926350E+02</totfact>
</mgrwt>
</event>
<event>
 9    1  0.4246427E-036  0.9991127E+03  0.7818608E-02  0.8681883E-01
          2   -1    0    0  501    0  0.00000000000E+00  0.00000000000E+00  0.22107495013E+04  0.22107495013E+04  0.00000000000E+00 0. -1.
         -2   -1    0    0    0  501 -0.00000000000E+00 -0.00000000000E+00 -0.11288322387E+03  0.11288322387E+03  0.00000000000E+00 0. -1.
         36    2    1    2    0    0 -0.42632564146E-13  0.00000000000E+00  0.20978662774E+04  0.23236327251E+04  0.99911266807E+03 0.  0.
         25    2    3    3    0    0 -0.42743867302E+02  0.15873023172E+02  0.86820750548E+02  0.15870883567E+03  0.12478646056E+03 0.  0.
         35    2    3    3    0    0  0.42743867302E+02 -0.15873023172E+02  0.20110455269E+04  0.21649238895E+04  0.80032015161E+03 0.  0.
         22    1    5    5    0    0  0.42039276305E+03  0.27134622159E+02  0.10847133608E+04  0.11636448935E+04  0.00000000000E+00 0.  1.
         22    1    5    5    0    0 -0.37764889575E+03 -0.43007645331E+02  0.92633216604E+03  0.10012789960E+04  0.00000000000E+00 0.  1.
          5    1    4    4  502    0  0.29881587693E+02  0.24854459680E+02 -0.68542432570E+01  0.39745743164E+02  0.47000000000E+01 0. -1.
         -5    1    4    4    0  502 -0.72625454994E+02 -0.89814365080E+01  0.93674993805E+02  0.11896309251E+03  0.47000000000E+01 0. -1.
<mgrwt>
<rscale>  0 0.99911267E+03</rscale>
<asrwt>0</asrwt>
<pdfrwt beam="1">  1        2 0.34011527E+00 0.99911267E+03</pdfrwt>
<pdfrwt beam="2">  1       -2 0.17366652E-01 0.99911267E+03</pdfrwt>
<totfact> 0.16156215E+02</totfact>
</mgrwt>
</event>
<event>
 9    1  0.4246427E-036  0.9988754E+03  0.7818608E-02  0.8682110E-01
          2   -1    0    0  501    0  0.00000000000E+00  0.00000000000E+00  0.49417313014E+03  0.49417313014E+03  0.00000000000E+00 0. -1.
         -2   -1    0    0    0  501 -0.00000000000E+00 -0.00000000000E+00 -0.50475832451E+03  0.50475832451E+03  0.00000000000E+00 0. -1.
         36    2    1    2    0    0  0.14210854715E-13  0.71054273576E-14 -0.10585194370E+02  0.99893145465E+03  0.99887536998E+03 0.  0.
         25    2    3    3    0    0 -0.50646402982E+02 -0.30643694034E+02 -0.12530341766E+03  0.18842452053E+03  0.12766659446E+03 0.  0.
         35    2    3    3    0    0  0.50646402982E+02  0.30643694034E+02  0.11471822329E+03  0.81050693412E+03  0.80016068723E+03 0.  0.
         22    1    5    5    0    0 -0.14264118222E+03  0.17664745464E+03  0.38537260463E+03  0.44728388579E+03  0.00000000000E+00 0.  1.
         22    1    5    5    0    0  0.19328758520E+03 -0.14600376060E+03 -0.27065438133E+03  0.36322304833E+03  0.00000000000E+00 0.  1.
          5    1    4    4  502    0 -0.68466956662E+02  0.28170681072E+02 -0.43489907789E+02  0.85992868926E+02  0.47000000000E+01 0.  1.
         -5    1    4    4    0  502  0.17820553680E+02 -0.58814375106E+02 -0.81813509875E+02  0.10243165161E+03  0.47000000000E+01 0.  1.
<mgrwt>
<rscale>  0 0.99887537E+03</rscale>
<asrwt>0</asrwt>
<pdfrwt beam="1">  1        2 0.76026636E-01 0.99887537E+03</pdfrwt>
<pdfrwt beam="2">  1       -2 0.77655127E-01 0.99887537E+03</pdfrwt>
<totfact> 0.11130416E+02</totfact>
</mgrwt>
</event>
<event>
 9    1  0.4246427E-036  0.1000047E+04  0.7818608E-02  0.8680993E-01
          2   -1    0    0  501    0  0.00000000000E+00  0.00000000000E+00  0.96416906353E+03  0.96416906353E+03  0.00000000000E+00 0.  1.
         -2   -1    0    0    0  501 -0.00000000000E+00 -0.00000000000E+00 -0.25931488694E+03  0.25931488694E+03  0.00000000000E+00 0.  1.
         36    2    1    2    0    0 -0.14210854715E-13  0.00000000000E+00  0.70485417659E+03  0.12234839505E+04  0.10000467823E+04 0.  0.
         25    2    3    3    0    0  0.10007895469E+03  0.63580075098E+02  0.39838107969E+02  0.17652765870E+03  0.12456611224E+03 0.  0.
         35    2    3    3    0    0 -0.10007895469E+03 -0.63580075098E+02  0.66501606862E+03  0.10469562918E+04  0.79988304285E+03 0.  0.
         22    1    5    5    0    0  0.21200739374E+03 -0.28989714051E+03  0.11857778536E+03  0.37821710466E+03  0.00000000000E+00 0.  1.
         22    1    5    5    0    0 -0.31208634842E+03  0.22631706541E+03  0.54643828326E+03  0.66873918712E+03  0.00000000000E+00 0.  1.
          5    1    4    4  502    0  0.76757543059E+02 -0.19969139554E+02  0.41508843955E+02  0.89641291141E+02  0.47000000000E+01 0. -1.
         -5    1    4    4    0  502  0.23321411628E+02  0.83549214652E+02 -0.16707359865E+01  0.86886367561E+02  0.47000000000E+01 0. -1.
<mgrwt>
<rscale>  0 0.10000468E+04</rscale>
<asrwt>0</asrwt>
<pdfrwt beam="1">  1        2 0.14833370E+00 0.10000468E+04</pdfrwt>
<pdfrwt beam="2">  1       -2 0.39894598E-01 0.10000468E+04</pdfrwt>
<totfact> 0.19101901E+02</totfact>
</mgrwt>
</event>
<event>
 9    1  0.4246427E-036  0.9992685E+03  0.7818608E-02  0.8681735E-01
          1   -1    0    0  501    0  0.00000000000E+00  0.00000000000E+00  0.15327607292E+04  0.15327607292E+04  0.00000000000E+00 0.  1.
         -1   -1    0    0    0  501 -0.00000000000E+00 -0.00000000000E+00 -0.16286586527E+03  0.16286586527E+03  0.00000000000E+00 0.  1.
         36    2    1    2    0    0 -0.71054273576E-14  0.28421709430E-13  0.13698948639E+04  0.16956265944E+04  0.99926853728E+03 0.  0.
         25    2    3    3    0    0  0.45564144261E+02  0.12940384317E+03  0.28848710633E+03  0.34319028908E+03  0.12543252421E+03 0.  0.
         35    2    3    3    0    0 -0.45564144261E+02 -0.12940384317E+03  0.10814077576E+04  0.13524363053E+04  0.80051219606E+03 0.  0.
         22    1    5    5    0    0  0.20098670261E+03  0.19497047174E+03  0.82453004015E+03  0.87078064206E+03  0.00000000000E+00 0. -1.
         22    1    5    5    0    0 -0.24655084687E+03 -0.32437431491E+03  0.25687771740E+03  0.48165566328E+03  0.00000000000E+00 0. -1.
          5    1    4    4  502    0  0.74852122617E+02  0.13416381732E+03  0.25849274730E+03  0.30073802643E+03  0.47000000000E+01 0. -1.
         -5    1    4    4    0  502 -0.29287978356E+02 -0.47599741467E+01  0.29994359037E+02  0.42452262650E+02  0.47000000000E+01 0. -1.
<mgrwt>
<rscale>  0 0.99926854E+03</rscale>
<asrwt>0</asrwt>
<pdfrwt beam="1">  1        1 0.23580933E+00 0.99926854E+03</pdfrwt>
<pdfrwt beam="2">  1       -1 0.25056288E-01 0.99926854E+03</pdfrwt>
<totfact> 0.93319279E+01</totfact>
</mgrwt>
</event>
<event>
 9    1  0.4246427E-036  0.1000596E+04  0.7818608E-02  0.8680471E-01
          1   -1    0    0  501    0  0.00000000000E+00  0.00000000000E+00  0.45301597176E+03  0.45301597176E+03  0.00000000000E+00 0.  1.
         -1   -1    0    0    0  501 -0.00000000000E+00 -0.00000000000E+00 -0.55251462051E+03  0.55251462051E+03  0.00000000000E+00 0.  1.
         36    2    1    2    0    0 -0.14210854715E-13  0.14210854715E-13 -0.99498648753E+02  0.10055305923E+04  0.10005957180E+04 0.  0.
         25    2    3    3    0    0 -0.43542624898E+02  0.10183624964E+03 -0.90088729972E+02  0.19761169551E+03  0.13663023460E+03 0.  0.
         35    2    3    3    0    0  0.43542624898E+02 -0.10183624964E+03 -0.94099187812E+01  0.80791889676E+03  0.80023609969E+03 0.  0.
         22    1    5    5    0    0  0.35385090752E+03 -0.38711135176E+02  0.21858379805E+03  0.41771748049E+03  0.00000000000E+00 0.  1.
         22    1    5    5    0    0 -0.31030828262E+03 -0.63125114468E+02 -0.22799371683E+03  0.39020141627E+03  0.00000000000E+00 0.  1.
          5    1    4    4  502    0 -0.84600005546E+02  0.95933407312E+02 -0.43802965369E+02  0.13528181456E+03  0.47000000000E+01 0.  1.
         -5    1    4    4    0  502  0.41057380647E+02  0.59028423318E+01 -0.46285764603E+02  0.62329880941E+02  0.47000000000E+01 0.  1.
<mgrwt>
<rscale>  0 0.10005957E+04</rscale>
<asrwt>0</asrwt>
<pdfrwt beam="1">  1        1 0.69694764E-01 0.10005957E+04</pdfrwt>
<pdfrwt beam="2">  1       -1 0.85002250E-01 0.10005957E+04</pdfrwt>
<totfact> 0.82392508E+01</totfact>
</mgrwt>
</event>
<event>
 9    1  0.4246427E-036  0.9997357E+03  0.7818608E-02  0.8681290E-01
         -2   -1    0    0    0  501 -0.00000000000E+00  0.00000000000E+00  0.22086544691E+03  0.22086544691E+03  0.00000000000E+00 0.  1.
          2   -1    0    0  501    0  0.00000000000E+00 -0.00000000000E+00 -0.11313126667E+04  0.11313126667E+04  0.00000000000E+00 0.  1.
         36    2    1    2    0    0  0.00000000000E+00 -0.14210854715E-13 -0.91044721980E+03  0.13521781136E+04  0.99973572054E+03 0.  0.
         25    2    3    3    0    0  0.97149405884E+02  0.89677161200E+01 -0.30351624291E+03  0.34277583462E+03  0.12591559113E+03 0.  0.
         35    2    3    3    0    0 -0.97149405884E+02 -0.89677161200E+01 -0.60693097689E+03  0.10094022790E+04  0.80063057846E+03 0.  0.
         22    1    5    5    0    0  0.28811722009E+03  0.15199621774E+03 -0.46630147788E+03  0.56881583223E+03  0.00000000000E+00 0.  1.
         22    1    5    5    0    0 -0.38526662598E+03 -0.16096393386E+03 -0.14062949900E+03  0.44058644678E+03  0.00000000000E+00 0.  1.
          5    1    4    4  502    0 -0.19670980623E+02  0.34050767008E+02 -0.70111660238E+02  0.80524139944E+02  0.47000000000E+01 0.  1.
         -5    1    4    4    0  502  0.11682038651E+03 -0.25083050888E+02 -0.23340458267E+03  0.26225169467E+03  0.47000000000E+01 0.  1.
<mgrwt>
<rscale>  0 0.99973572E+03</rscale>
<asrwt>0</asrwt>
<pdfrwt beam="1">  1        2 0.17404810E+00 0.99973572E+03</pdfrwt>
<pdfrwt beam="2">  1       -2 0.33979300E-01 0.99973572E+03</pdfrwt>
<totfact> 0.20376493E+02</totfact>
</mgrwt>
</event>
<event>
 9    1  0.4246427E-036  0.1000588E+04  0.7818608E-02  0.8680479E-01
          2   -1    0    0  501    0  0.00000000000E+00  0.00000000000E+00  0.51160805392E+03  0.51160805392E+03  0.00000000000E+00 0. -1.
         -2   -1    0    0    0  501 -0.00000000000E+00 -0.00000000000E+00 -0.48922971571E+03  0.48922971571E+03  0.00000000000E+00 0. -1.
         36    2    1    2    0    0 -0.14210854715E-13  0.00000000000E+00  0.22378338212E+02  0.10008377696E+04  0.10005875529E+04 0.  0.
         25    2    3    3    0    0 -0.11344738611E+03 -0.80859919351E+02  0.28212307861E+02  0.18893394016E+03  0.12446470767E+03 0.  0.
         35    2    3    3    0    0  0.11344738611E+03  0.80859919351E+02 -0.58339696488E+01  0.81190382947E+03  0.79984070735E+03 0.  0.
         22    1    5    5    0    0 -0.11330130108E+03 -0.46077048790E+02 -0.35566995327E+03  0.37611353992E+03  0.00000000000E+00 0. -1.
         22    1    5    5    0    0  0.22674868719E+03  0.12693696814E+03  0.34983598362E+03  0.43579028955E+03  0.00000000000E+00 0. -1.
          5    1    4    4  502    0 -0.23925791253E+02  0.18700102834E+02 -0.29924581671E+02  0.42891816484E+02  0.47000000000E+01 0. -1.
         -5    1    4    4    0  502 -0.89521594859E+02 -0.99560022185E+02  0.58136889531E+02  0.14604212368E+03  0.47000000000E+01 0. -1.
<mgrwt>
<rscale>  0 0.10005876E+04</rscale>
<asrwt>0</asrwt>
<pdfrwt beam="1">  1        2 0.78708931E-01 0.10005876E+04</pdfrwt>
<pdfrwt beam="2">  1       -2 0.75266110E-01 0.10005876E+04</pdfrwt>
<totfact> 0.11473219E+02</totfact>
</mgrwt>
</event>
<event>
 9    1  0.4246427E-036  0.9997820E+03  0.7818608E-02  0.8681246E-01
         -2   -1    0    0    0  501 -0.00000000000E+00  0.00000000000E+00  0.10690167262E+04  0.10690167262E+04  0.00000000000E+00 0. -1.
          2   -1    0    0  501    0  0.00000000000E+00 -0.00000000000E+00 -0.23375780115E+03  0.23375780115E+03  0.00000000000E+00 0. -1.
         36    2    1    2    0    0  0.00000000000E+00 -0.56843418861E-13  0.83525892502E+03  0.13027745273E+04  0.99978197483E+03 0.  0.
         25    2    3    3    0    0 -0.73416071150E+02  0.83004864493E+02  0.26949414121E+03  0.31669824082E+03  0.12406029405E+03 0.  0.
         35    2    3    3    0    0  0.73416071150E+02 -0.83004864493E+02  0.56576478381E+03  0.98607628650E+03  0.79998557809E+03 0.  0.
         22    1    5    5    0    0 -0.15179952746E+03  0.24908277146E+03 -0.94548186549E+00  0.29169541908E+03  0.00000000000E+00 0.  1.
         22    1    5    5    0    0  0.22521559861E+03 -0.33208763595E+03  0.56671026568E+03  0.69438086742E+03  0.00000000000E+00 0.  1.
          5    1    4    4  502    0 -0.89038514234E+02  0.15416971813E+02  0.10815258490E+03  0.14101280672E+03  0.47000000000E+01 0.  1.
         -5    1    4    4    0  502  0.15622443084E+02  0.67587892680E+02  0.16134155631E+03  0.17568543411E+03  0.47000000000E+01 0.  1.
<mgrwt>
<rscale>  0 0.99978197E+03</rscale>
<asrwt>0</asrwt>
<pdfrwt beam="1">  1        2 0.35962739E-01 0.99978197E+03</pdfrwt>
<pdfrwt beam="2">  1       -2 0.16446411E+00 0.99978197E+03</pdfrwt>
<totfact> 0.37893838E+01</totfact>
</mgrwt>
</event>
<event>
 9    1  0.4246427E-036  0.9994966E+03  0.7818608E-02  0.8681517E-01
         -2   -1    0    0    0  501 -0.00000000000E+00  0.00000000000E+00  0.84856738358E+03  0.84856738358E+03  0.00000000000E+00 0. -1.
          2   -1    0    0  501    0  0.00000000000E+00 -0.00000000000E+00 -0.29431767726E+03  0.29431767726E+03  0.00000000000E+00 0. -1.
         36    2    1    2    0    0  0.35527136788E-14  0.28421709430E-13  0.55424970632E+03  0.11428850608E+04  0.99949663598E+03 0.  0.
         25    2    3    3    0    0  0.20863337528E+02 -0.11889014056E+03  0.21126583167E+02  0.17479300902E+03  0.12464396941E+03 0.  0.
         35    2    3    3    0    0 -0.20863337528E+02  0.11889014056E+03  0.53312312315E+03  0.96809205182E+03  0.79900676591E+03 0.  0.
         22    1    5    5    0    0  0.52318483497E+01  0.45618926824E+03  0.39212108510E+03  0.60157706578E+03  0.00000000000E+00 0. -1.
         22    1    5    5    0    0 -0.26095185878E+02 -0.33729912767E+03  0.14100203806E+03  0.36651498604E+03  0.00000000000E+00 0. -1.
          5    1    4    4  502    0  0.14456824192E+02  0.23116421586E+02  0.17064683972E+02  0.32506340177E+02  0.47000000000E+01 0. -1.
         -5    1    4    4    0  502  0.64065133361E+01 -0.14200656215E+03  0.40618991954E+01  0.14228666885E+03  0.47000000000E+01 0. -1.
<mgrwt>
<rscale>  0 0.99949664E+03</rscale>
<asrwt>0</asrwt>
<pdfrwt beam="1">  1        2 0.45279643E-01 0.99949664E+03</pdfrwt>
<pdfrwt beam="2">  1       -2 0.13054883E+00 0.99949664E+03</pdfrwt>
<totfact> 0.55621360E+01</totfact>
</mgrwt>
</event>
<event>
 9    1  0.4246427E-036  0.9996209E+03  0.7818608E-02  0.8681399E-01
          2   -1    0    0  501    0  0.00000000000E+00  0.00000000000E+00  0.83322930736E+03  0.83322930736E+03  0.00000000000E+00 0. -1.
         -2   -1    0    0    0  501 -0.00000000000E+00 -0.00000000000E+00 -0.29981000270E+03  0.29981000270E+03  0.00000000000E+00 0. -1.
         36    2    1    2    0    0 -0.28421709430E-13  0.14210854715E-13  0.53341930466E+03  0.11330393101E+04  0.99962088992E+03 0.  0.
         25    2    3    3    0    0  0.70449062615E+02  0.88875800273E+02  0.19173885369E+03  0.25537019265E+03  0.12485258901E+03 0.  0.
         35    2    3    3    0    0 -0.70449062615E+02 -0.88875800273E+02  0.34168045097E+03  0.87766911742E+03  0.80043461369E+03 0.  0.
         22    1    5    5    0    0  0.14193746584E+03 -0.20814178617E+03 -0.17479813809E+03  0.30663273870E+03  0.00000000000E+00 0. -1.
         22    1    5    5    0    0 -0.21238652846E+03  0.11926598589E+03  0.51647858906E+03  0.57103637872E+03  0.00000000000E+00 0. -1.
          5    1    4    4  502    0  0.36511742419E+02 -0.23346207728E+02  0.21482439928E+02  0.48597715739E+02  0.47000000000E+01 0. -1.
         -5    1    4    4    0  502  0.33937320195E+02  0.11222200800E+03  0.17025641376E+03  0.20677247691E+03  0.47000000000E+01 0. -1.
<mgrwt>
<rscale>  0 0.99962089E+03</rscale>
<asrwt>0</asrwt>
<pdfrwt beam="1">  1        2 0.12818912E+00 0.99962089E+03</pdfrwt>
<pdfrwt beam="2">  1       -2 0.46124616E-01 0.99962089E+03</pdfrwt>
<totfact> 0.17588925E+02</totfact>
</mgrwt>
</event>
<event>
 9    1  0.4246427E-036  0.1000947E+04  0.7818608E-02  0.8680137E-01
          2   -1    0    0  501    0  0.00000000000E+00  0.00000000000E+00  0.56018491631E+03  0.56018491631E+03  0.00000000000E+00 0.  1.
         -2   -1    0    0    0  501 -0.00000000000E+00 -0.00000000000E+00 -0.44712680931E+03  0.44712680931E+03  0.00000000000E+00 0.  1.
         36    2    1    2    0    0 -0.28421709430E-13 -0.71054273576E-14  0.11305810700E+03  0.10073117256E+04  0.10009469402E+04 0.  0.
         25    2    3    3    0    0  0.13161138531E+03  0.49751963482E+02  0.52476008542E+02  0.19491651977E+03  0.12426545615E+03 0.  0.
         35    2    3    3    0    0 -0.13161138531E+03 -0.49751963482E+02  0.60582098462E+02  0.81239520586E+03  0.79782138680E+03 0.  0.
         22    1    5    5    0    0  0.12987664413E+03  0.32266854725E+03  0.80078152698E+02  0.35692498457E+03  0.00000000000E+00 0.  1.
         22    1    5    5    0    0 -0.26148802944E+03 -0.37242051073E+03 -0.19496054236E+02  0.45547022129E+03  0.00000000000E+00 0.  1.
          5    1    4    4  502    0  0.14519078153E+03  0.11876843129E+02  0.30792186700E+02  0.14896869203E+03  0.47000000000E+01 0. -1.
         -5    1    4    4    0  502 -0.13579396225E+02  0.37875120354E+02  0.21683821842E+02  0.45947827732E+02  0.47000000000E+01 0. -1.
<mgrwt>
<rscale>  0 0.10009469E+04</rscale>
<asrwt>0</asrwt>
<pdfrwt beam="1">  1        2 0.86182295E-01 0.10009469E+04</pdfrwt>
<pdfrwt beam="2">  1       -2 0.68788740E-01 0.10009469E+04</pdfrwt>
<totfact> 0.12582500E+02</totfact>
</mgrwt>
</event>
<event>
 9    1  0.4246427E-036  0.1000483E+04  0.7818608E-02  0.8680578E-01
         -1   -1    0    0    0  501 -0.00000000000E+00  0.00000000000E+00  0.20302186989E+03  0.20302186989E+03  0.00000000000E+00 0.  1.
          1   -1    0    0  501    0  0.00000000000E+00 -0.00000000000E+00 -0.12325837047E+04  0.12325837047E+04  0.00000000000E+00 0.  1.
         36    2    1    2    0    0 -0.71054273576E-14 -0.28421709430E-13 -0.10295618348E+04  0.14356055745E+04  0.10004827805E+04 0.  0.
         25    2    3    3    0    0 -0.42425141334E+02 -0.13168990958E+03 -0.16175475345E+03  0.24745668912E+03  0.12620652845E+03 0.  0.
         35    2    3    3    0    0  0.42425141334E+02  0.13168990958E+03 -0.86780708133E+03  0.11881488854E+04  0.79966650464E+03 0.  0.
         22    1    5    5    0    0 -0.15083863735E+02  0.24487066518E+03  0.59292002293E+02  0.25239791431E+03  0.00000000000E+00 0. -1.
         22    1    5    5    0    0  0.57509005069E+02 -0.11318075560E+03 -0.92709908362E+03  0.93575097112E+03  0.00000000000E+00 0. -1.
          5    1    4    4  502    0  0.30974901063E+02  0.52253261269E+01 -0.24649339205E+02  0.40204831205E+02  0.47000000000E+01 0. -1.
         -5    1    4    4    0  502 -0.73400042397E+02 -0.13691523571E+03 -0.13710541424E+03  0.20725185791E+03  0.47000000000E+01 0. -1.
<mgrwt>
<rscale>  0 0.10004828E+04</rscale>
<asrwt>0</asrwt>
<pdfrwt beam="1">  1        1 0.18962826E+00 0.10004828E+04</pdfrwt>
<pdfrwt beam="2">  1       -1 0.31234134E-01 0.10004828E+04</pdfrwt>
<totfact> 0.10573856E+02</totfact>
</mgrwt>
</event>
<event>
 9    1  0.4246427E-036  0.9997222E+03  0.7818608E-02  0.8681303E-01
          2   -1    0    0  501    0  0.00000000000E+00  0.00000000000E+00  0.76495863220E+03  0.76495863220E+03  0.00000000000E+00 0. -1.
         -2   -1    0    0    0  501 -0.00000000000E+00 -0.00000000000E+00 -0.32663351525E+03  0.32663351525E+03  0.00000000000E+00 0. -1.
         36    2    1    2    0    0 -0.35527136788E-13  0.00000000000E+00  0.43832511695E+03  0.10915921474E+04  0.99972221553E+03 0.  0.
         25    2    3    3    0    0  0.25094841354E+01  0.45468481205E+02 -0.62107452381E+02  0.14695812889E+03  0.12516259709E+03 0.  0.
         35    2    3    3    0    0 -0.25094841354E+01 -0.45468481205E+02  0.50043256933E+03  0.94463401856E+03  0.79989186287E+03 0.  0.
         22    1    5    5    0    0  0.35071307525E+03 -0.83336473256E+02  0.39421182355E+02  0.36262743766E+03  0.00000000000E+00 0. -1.
         22    1    5    5    0    0 -0.35322255939E+03  0.37867992052E+02  0.46101138697E+03  0.58200658089E+03  0.00000000000E+00 0. -1.
          5    1    4    4  502    0 -0.48427696273E+02 -0.10609663600E+02 -0.49126060782E+02  0.69951887580E+02  0.47000000000E+01 0.  1.
         -5    1    4    4    0  502  0.50937180408E+02  0.56078144805E+02 -0.12981391598E+02  0.77006241309E+02  0.47000000000E+01 0.  1.
<mgrwt>
<rscale>  0 0.99972222E+03</rscale>
<asrwt>0</asrwt>
<pdfrwt beam="1">  1        2 0.11768594E+00 0.99972222E+03</pdfrwt>
<pdfrwt beam="2">  1       -2 0.50251310E-01 0.99972222E+03</pdfrwt>
<totfact> 0.16568847E+02</totfact>
</mgrwt>
</event>
<event>
 9    1  0.4246427E-036  0.9999812E+03  0.7818608E-02  0.8681056E-01
         -2   -1    0    0    0  501 -0.00000000000E+00  0.00000000000E+00  0.48835523620E+03  0.48835523620E+03  0.00000000000E+00 0.  1.
          2   -1    0    0  501    0  0.00000000000E+00 -0.00000000000E+00 -0.51190316618E+03  0.51190316618E+03  0.00000000000E+00 0.  1.
         36    2    1    2    0    0  0.00000000000E+00  0.71054273576E-14 -0.23547929986E+02  0.10002584024E+04  0.99998118308E+03 0.  0.
         25    2    3    3    0    0 -0.43823432167E+02  0.45310105555E+02  0.12022799852E+03  0.18440363163E+03  0.12480556421E+03 0.  0.
         35    2    3    3    0    0  0.43823432167E+02 -0.45310105555E+02 -0.14377592851E+03  0.81585477075E+03  0.80060851261E+03 0.  0.
         22    1    5    5    0    0  0.38574338785E+03  0.18136811591E+02  0.90390137529E+02  0.39660721396E+03  0.00000000000E+00 0.  1.
         22    1    5    5    0    0 -0.34191995568E+03 -0.63446917146E+02 -0.23416606603E+03  0.41924755679E+03  0.00000000000E+00 0.  1.
          5    1    4    4  502    0 -0.40429896941E+02 -0.36097284805E+02  0.27779736436E+02  0.61085139710E+02  0.47000000000E+01 0. -1.
         -5    1    4    4    0  502 -0.33935352257E+01  0.81407390360E+02  0.92448262083E+02  0.12331849192E+03  0.47000000000E+01 0. -1.
<mgrwt>
<rscale>  0 0.99998118E+03</rscale>
<asrwt>0</asrwt>
<pdfrwt beam="1">  1        2 0.78754333E-01 0.99998118E+03</pdfrwt>
<pdfrwt beam="2">  1       -2 0.75131575E-01 0.99998118E+03</pdfrwt>
<totfact> 0.11511722E+02</totfact>
</mgrwt>
</event>
<event>
 9    1  0.4246427E-036  0.1000243E+04  0.7818608E-02  0.8680806E-01
         -2   -1    0    0    0  501 -0.00000000000E+00  0.00000000000E+00  0.21169406098E+03  0.21169406098E+03  0.00000000000E+00 0. -1.
          2   -1    0    0  501    0  0.00000000000E+00 -0.00000000000E+00 -0.11815239542E+04  0.11815239542E+04  0.00000000000E+00 0. -1.
         36    2    1    2    0    0  0.14210854715E-13  0.42632564146E-13 -0.96982989323E+03  0.13932180152E+04  0.10002431785E+04 0.  0.
         25    2    3    3    0    0  0.42978959462E+02 -0.11133403674E+03 -0.28500056759E+03  0.33308607227E+03  0.12441281815E+03 0.  0.
         35    2    3    3    0    0 -0.42978959462E+02  0.11133403674E+03 -0.68482932564E+03  0.10601319429E+04  0.80040369343E+03 0.  0.
         22    1    5    5    0    0 -0.15185584784E+03 -0.20788292880E+03 -0.67531806325E+03  0.72272401175E+03  0.00000000000E+00 0.  1.
         22    1    5    5    0    0  0.10887688837E+03  0.31921696554E+03 -0.95112623983E+01  0.33740793118E+03  0.00000000000E+00 0.  1.
          5    1    4    4  502    0  0.61872002051E+02 -0.12792050753E+03 -0.20799399443E+03  0.25194323290E+03  0.47000000000E+01 0.  1.
         -5    1    4    4    0  502 -0.18893042588E+02  0.16586470791E+02 -0.77006573162E+02  0.81142839374E+02  0.47000000000E+01 0.  1.
<mgrwt>
<rscale>  0 0.10002432E+04</rscale>
<asrwt>0</asrwt>
<pdfrwt beam="1">  1        2 0.18177291E+00 0.10002432E+04</pdfrwt>
<pdfrwt beam="2">  1       -2 0.32568317E-01 0.10002432E+04</pdfrwt>
<totfact> 0.20569734E+02</totfact>
</mgrwt>
</event>
<event>
 9    1  0.4246427E-036  0.1000094E+04  0.7818608E-02  0.8680948E-01
         -1   -1    0    0    0  501 -0.00000000000E+00  0.00000000000E+00  0.18024567808E+03  0.18024567808E+03  0.00000000000E+00 0.  1.
          1   -1    0    0  501    0  0.00000000000E+00 -0.00000000000E+00 -0.13872578543E+04  0.13872578543E+04  0.00000000000E+00 0.  1.
         36    2    1    2    0    0  0.14210854715E-13  0.00000000000E+00 -0.12070121762E+04  0.15675035324E+04  0.10000944608E+04 0.  0.
         25    2    3    3    0    0 -0.22396299781E+02  0.13142694122E+02 -0.44714540155E+03  0.46505130339E+03  0.12513744447E+03 0.  0.
         35    2    3    3    0    0  0.22396299781E+02 -0.13142694122E+02 -0.75986677464E+03  0.11024522290E+04  0.79832892801E+03 0.  0.
         22    1    5    5    0    0  0.19851508834E+03 -0.17314264413E+03 -0.81643384253E+03  0.85787576883E+03  0.00000000000E+00 0.  1.
         22    1    5    5    0    0 -0.17611878856E+03  0.15999995000E+03  0.56567067888E+02  0.24457646014E+03  0.00000000000E+00 0.  1.
          5    1    4    4  502    0 -0.52679865486E+02  0.54450179002E+02 -0.24687213015E+03  0.25827878130E+03  0.47000000000E+01 0.  1.
         -5    1    4    4    0  502  0.30283565705E+02 -0.41307484880E+02 -0.20027327140E+03  0.20677252210E+03  0.47000000000E+01 0.  1.
<mgrwt>
<rscale>  0 0.10000945E+04</rscale>
<asrwt>0</asrwt>
<pdfrwt beam="1">  1        1 0.21342428E+00 0.10000945E+04</pdfrwt>
<pdfrwt beam="2">  1       -1 0.27730105E-01 0.10000945E+04</pdfrwt>
<totfact> 0.99915943E+01</totfact>
</mgrwt>
</event>
<event>
 9    1  0.4246427E-036  0.1009504E+04  0.7818608E-02  0.8672040E-01
          3   -1    0    0  501    0  0.00000000000E+00  0.00000000000E+00  0.58783903441E+03  0.58783903441E+03  0.00000000000E+00 0.  1.
         -3   -1    0    0    0  501 -0.00000000000E+00 -0.00000000000E+00 -0.43340852634E+03  0.43340852634E+03  0.00000000000E+00 0.  1.
         36    2    1    2    0    0 -0.53290705182E-14  0.00000000000E+00  0.15443050807E+03  0.10212475608E+04  0.10095037387E+04 0.  0.
         25    2    3    3    0    0 -0.11459854461E+02  0.11941789704E+03 -0.61406344125E+02  0.18364142980E+03  0.12474563416E+03 0.  0.
         35    2    3    3    0    0  0.11459854461E+02 -0.11941789704E+03  0.21583685219E+03  0.83760613095E+03  0.80037898614E+03 0.  0.
         22    1    5    5    0    0 -0.15138601385E+03 -0.57417487574E+02  0.48815803611E+03  0.51430804124E+03  0.00000000000E+00 0. -1.
         22    1    5    5    0    0  0.16284586831E+03 -0.62000409463E+02 -0.27232118392E+03  0.32329808971E+03  0.00000000000E+00 0. -1.
          5    1    4    4  502    0 -0.77582461430E+00 -0.17854042994E+02  0.17013921165E+02  0.25118365163E+02  0.47000000000E+01 0.  1.
         -5    1    4    4    0  502 -0.10684029847E+02  0.13727194003E+03 -0.78420265290E+02  0.15852306464E+03  0.47000000000E+01 0.  1.
<mgrwt>
<rscale>  0 0.10095037E+04</rscale>
<asrwt>0</asrwt>
<pdfrwt beam="1">  1        3 0.90436775E-01 0.10095037E+04</pdfrwt>
<pdfrwt beam="2">  1       -3 0.66678235E-01 0.10095037E+04</pdfrwt>
<totfact> 0.97302981E+00</totfact>
</mgrwt>
</event>
<event>
 9    1  0.4246427E-036  0.1001775E+04  0.7818608E-02  0.8679349E-01
         -1   -1    0    0    0  501 -0.00000000000E+00  0.00000000000E+00  0.23987654026E+03  0.23987654026E+03  0.00000000000E+00 0.  1.
          1   -1    0    0  501    0  0.00000000000E+00 -0.00000000000E+00 -0.10459067378E+04  0.10459067378E+04  0.00000000000E+00 0.  1.
         36    2    1    2    0    0 -0.14210854715E-13 -0.28421709430E-13 -0.80603019750E+03  0.12857832780E+04  0.10017754034E+04 0.  0.
         25    2    3    3    0    0  0.12617018295E+03 -0.54060224889E+02 -0.89425412245E+02  0.20556597774E+03  0.12417344268E+03 0.  0.
         35    2    3    3    0    0 -0.12617018295E+03  0.54060224889E+02 -0.71660478525E+03  0.10802173003E+04  0.79655858203E+03 0.  0.
         22    1    5    5    0    0  0.20478756637E+02 -0.36331097293E+03 -0.28555690338E+03  0.46255484820E+03  0.00000000000E+00 0. -1.
         22    1    5    5    0    0 -0.14664893959E+03  0.41737119782E+03 -0.43104788187E+03  0.61766245208E+03  0.00000000000E+00 0. -1.
          5    1    4    4  502    0  0.73633856813E+02 -0.44354061510E+02 -0.11700098587E+03  0.14526027790E+03  0.47000000000E+01 0.  1.
         -5    1    4    4    0  502  0.52536326138E+02 -0.97061633792E+01  0.27575573629E+02  0.60305699835E+02  0.47000000000E+01 0.  1.
<mgrwt>
<rscale>  0 0.10017754E+04</rscale>
<asrwt>0</asrwt>
<pdfrwt beam="1">  1        1 0.16090873E+00 0.10017754E+04</pdfrwt>
<pdfrwt beam="2">  1       -1 0.36904083E-01 0.10017754E+04</pdfrwt>
<totfact> 0.10966453E+02</totfact>
</mgrwt>
</event>
<event>
 9    1  0.4246427E-036  0.9976585E+03  0.7818608E-02  0.8683271E-01
          1   -1    0    0  501    0  0.00000000000E+00  0.00000000000E+00  0.10939327203E+04  0.10939327203E+04  0.00000000000E+00 0.  1.
         -1   -1    0    0    0  501 -0.00000000000E+00 -0.00000000000E+00 -0.22746429893E+03  0.22746429893E+03  0.00000000000E+00 0.  1.
         36    2    1    2    0    0  0.00000000000E+00 -0.35527136788E-14  0.86646842136E+03  0.13213970192E+04  0.99765853737E+03 0.  0.
         25    2    3    3    0    0  0.44263381321E+02  0.28856808428E+01 -0.10887115282E+02  0.13329843420E+03  0.12522926655E+03 0.  0.
         35    2    3    3    0    0 -0.44263381321E+02 -0.28856808428E+01  0.87735553665E+03  0.11880985850E+04  0.79991120504E+03 0.  0.
         22    1    5    5    0    0  0.60403618024E+02  0.23687831980E+02 -0.14562976452E+03  0.15942941626E+03  0.00000000000E+00 0. -1.
         22    1    5    5    0    0 -0.10466699935E+03 -0.26573512823E+02  0.10229853012E+04  0.10286691688E+04  0.00000000000E+00 0. -1.
          5    1    4    4  502    0  0.47845430012E+02  0.40582227442E+02 -0.48714101977E+02  0.79569190575E+02  0.47000000000E+01 0.  1.
         -5    1    4    4    0  502 -0.35820486909E+01 -0.37696546600E+02  0.37826986695E+02  0.53729243628E+02  0.47000000000E+01 0.  1.
<mgrwt>
<rscale>  0 0.99765854E+03</rscale>
<asrwt>0</asrwt>
<pdfrwt beam="1">  1        1 0.16829734E+00 0.99765854E+03</pdfrwt>
<pdfrwt beam="2">  1       -1 0.34994508E-01 0.99765854E+03</pdfrwt>
<totfact> 0.11051128E+02</totfact>
</mgrwt>
</event>
<event>
 9    1  0.4246427E-036  0.1000360E+04  0.7818608E-02  0.8680695E-01
          2   -1    0    0  501    0  0.00000000000E+00  0.00000000000E+00  0.14399942077E+04  0.14399942077E+04  0.00000000000E+00 0. -1.
         -2   -1    0    0    0  501 -0.00000000000E+00 -0.00000000000E+00 -0.17373692958E+03  0.17373692958E+03  0.00000000000E+00 0. -1.
         36    2    1    2    0    0  0.28421709430E-13  0.14210854715E-13  0.12662572781E+04  0.16137311373E+04  0.10003602796E+04 0.  0.
         25    2    3    3    0    0  0.76904747573E+02 -0.11615661115E+03  0.19900949572E+03  0.27373548571E+03  0.12617304877E+03 0.  0.
         35    2    3    3    0    0 -0.76904747573E+02  0.11615661115E+03  0.10672477824E+04  0.13399956516E+04  0.79822541846E+03 0.  0.
         22    1    5    5    0    0 -0.30566451498E+03  0.58245379508E+02  0.75002170390E+02  0.32007599959E+03  0.00000000000E+00 0. -1.
         22    1    5    5    0    0  0.22875976741E+03  0.57911231645E+02  0.99224561200E+03  0.10199196520E+04  0.00000000000E+00 0. -1.
          5    1    4    4  502    0  0.64750377065E+02 -0.16215647315E+02  0.14429273680E+03  0.15905358356E+03  0.47000000000E+01 0. -1.
         -5    1    4    4    0  502  0.12154370508E+02 -0.99940963839E+02  0.54716758919E+02  0.11468190216E+03  0.47000000000E+01 0. -1.
<mgrwt>
<rscale>  0 0.10003603E+04</rscale>
<asrwt>0</asrwt>
<pdfrwt beam="1">  1        2 0.22153756E+00 0.10003603E+04</pdfrwt>
<pdfrwt beam="2">  1       -2 0.26728759E-01 0.10003603E+04</pdfrwt>
<totfact> 0.20865670E+02</totfact>
</mgrwt>
</event>
<event>
 9    1  0.4246427E-036  0.1001548E+04  0.7818608E-02  0.8679565E-01
          1   -1    0    0  501    0  0.00000000000E+00  0.00000000000E+00  0.79234256665E+03  0.79234256665E+03  0.00000000000E+00 0. -1.
         -1   -1    0    0    0  501 -0.00000000000E+00 -0.00000000000E+00 -0.31649752193E+03  0.31649752193E+03  0.00000000000E+00 0. -1.
         36    2    1    2    0    0  0.14210854715E-13  0.14210854715E-13  0.47584504472E+03  0.11088400886E+04  0.10015477200E+04 0.  0.
         25    2    3    3    0    0  0.56127830440E+02 -0.33171625565E+02  0.23258923017E+03  0.27184314959E+03  0.12470067319E+03 0.  0.
         35    2    3    3    0    0 -0.56127830440E+02  0.33171625565E+02  0.24325581455E+03  0.83699693899E+03  0.79821036981E+03 0.  0.
         22    1    5    5    0    0 -0.33268167498E+03 -0.23661050125E+03  0.17720935992E+03  0.44504469822E+03  0.00000000000E+00 0.  1.
         22    1    5    5    0    0  0.27655384454E+03  0.26978212681E+03  0.66046454624E+02  0.39195224077E+03  0.00000000000E+00 0.  1.
          5    1    4    4  502    0  0.14883033903E+01  0.44975791598E+02  0.75052768636E+02  0.87635865698E+02  0.47000000000E+01 0.  1.
         -5    1    4    4    0  502  0.54639527049E+02 -0.78147417163E+02  0.15753646153E+03  0.18420728389E+03  0.47000000000E+01 0.  1.
<mgrwt>
<rscale>  0 0.10015477E+04</rscale>
<asrwt>0</asrwt>
<pdfrwt beam="1">  1        1 0.12189886E+00 0.10015477E+04</pdfrwt>
<pdfrwt beam="2">  1       -1 0.48691927E-01 0.10015477E+04</pdfrwt>
<totfact> 0.10803020E+02</totfact>
</mgrwt>
</event>
<event>
 9    1  0.4246427E-036  0.1000305E+04  0.7818608E-02  0.8680747E-01
         -1   -1    0    0    0  501 -0.00000000000E+00  0.00000000000E+00  0.14649638586E+03  0.14649638586E+03  0.00000000000E+00 0. -1.
          1   -1    0    0  501    0  0.00000000000E+00 -0.00000000000E+00 -0.17075691199E+04  0.17075691199E+04  0.00000000000E+00 0. -1.
         36    2    1    2    0    0 -0.28421709430E-13  0.00000000000E+00 -0.15610727340E+04  0.18540655057E+04  0.10003053627E+04 0.  0.
         25    2    3    3    0    0  0.10731945077E+03 -0.76428005398E+02 -0.36485874836E+03  0.40770671793E+03  0.12547572302E+03 0.  0.
         35    2    3    3    0    0 -0.10731945077E+03  0.76428005398E+02 -0.11962139857E+04  0.14463587878E+04  0.80228868811E+03 0.  0.
         22    1    5    5    0    0 -0.23847127651E+03 -0.18222425772E+03 -0.11009272787E+04  0.11411025821E+04  0.00000000000E+00 0.  1.
         22    1    5    5    0    0  0.13115182575E+03  0.25865226311E+03 -0.95286706932E+02  0.30525620572E+03  0.00000000000E+00 0.  1.
          5    1    4    4  502    0  0.46633299965E+02  0.32432668878E+02 -0.12397660135E+03  0.13645083495E+03  0.47000000000E+01 0. -1.
         -5    1    4    4    0  502  0.60686150801E+02 -0.10886067428E+03 -0.24088214701E+03  0.27125588298E+03  0.47000000000E+01 0. -1.
<mgrwt>
<rscale>  0 0.10003054E+04</rscale>
<asrwt>0</asrwt>
<pdfrwt beam="1">  1        1 0.26270294E+00 0.10003054E+04</pdfrwt>
<pdfrwt beam="2">  1       -1 0.22537906E-01 0.10003054E+04</pdfrwt>
<totfact> 0.83800971E+01</totfact>
</mgrwt>
</event>
<event>
 9    1  0.4246427E-036  0.9994726E+03  0.7818608E-02  0.8681540E-01
          1   -1    0    0  501    0  0.00000000000E+00  0.00000000000E+00  0.14643079894E+04  0.14643079894E+04  0.00000000000E+00 0. -1.
         -1   -1    0    0    0  501 -0.00000000000E+00 -0.00000000000E+00 -0.17054908085E+03  0.17054908085E+03  0.00000000000E+00 0. -1.
         36    2    1    2    0    0 -0.28421709430E-13  0.14210854715E-13  0.12937589085E+04  0.16348570702E+04  0.99947262428E+03 0.  0.
         25    2    3    3    0    0  0.70127598970E+02  0.10386495856E+03  0.16434104020E+03  0.24182140684E+03  0.12555399459E+03 0.  0.
         35    2    3    3    0    0 -0.70127598970E+02 -0.10386495856E+03  0.11294178683E+04  0.13930356634E+04  0.80576536809E+03 0.  0.
         22    1    5    5    0    0  0.36054033453E+03  0.32842960170E+02  0.45962938929E+03  0.58508731686E+03  0.00000000000E+00 0. -1.
         22    1    5    5    0    0 -0.43066793350E+03 -0.13670791873E+03  0.66978847902E+03  0.80794834651E+03  0.00000000000E+00 0. -1.
          5    1    4    4  502    0  0.71232179422E+02  0.55859083269E+01  0.36129898002E+02  0.80204022883E+02  0.47000000000E+01 0. -1.
         -5    1    4    4    0  502 -0.11045804516E+01  0.98279050237E+02  0.12821114220E+03  0.16161738396E+03  0.47000000000E+01 0. -1.
<mgrwt>
<rscale>  0 0.99947262E+03</rscale>
<asrwt>0</asrwt>
<pdfrwt beam="1">  1        1 0.22527814E+00 0.99947262E+03</pdfrwt>
<pdfrwt beam="2">  1       -1 0.26238321E-01 0.99947262E+03</pdfrwt>
<totfact> 0.96608219E+01</totfact>
</mgrwt>
</event>
<event>
 9    1  0.4246427E-036  0.9999522E+03  0.7818608E-02  0.8681084E-01
         -2   -1    0    0    0  501 -0.00000000000E+00  0.00000000000E+00  0.25468733670E+03  0.25468733670E+03  0.00000000000E+00 0.  1.
          2   -1    0    0  501    0  0.00000000000E+00 -0.00000000000E+00 -0.98150181719E+03  0.98150181719E+03  0.00000000000E+00 0.  1.
         36    2    1    2    0    0  0.00000000000E+00  0.00000000000E+00 -0.72681448048E+03  0.12361891539E+04  0.99995216643E+03 0.  0.
         25    2    3    3    0    0 -0.44983158548E+02 -0.10006745198E+03 -0.23895993233E+03  0.29241775007E+03  0.12794261134E+03 0.  0.
         35    2    3    3    0    0  0.44983158548E+02  0.10006745198E+03 -0.48785454815E+03  0.94377140382E+03  0.80041578134E+03 0.  0.
         22    1    5    5    0    0  0.15453797034E+03  0.18803574811E+03  0.15313873891E+03  0.28756025490E+03  0.00000000000E+00 0.  1.
         22    1    5    5    0    0 -0.10955481179E+03 -0.87968296130E+02 -0.64099328706E+03  0.65621114892E+03  0.00000000000E+00 0.  1.
          5    1    4    4  502    0 -0.37872652836E+02  0.22545443083E+02 -0.48123096266E+02  0.65425967557E+02  0.47000000000E+01 0.  1.
         -5    1    4    4    0  502 -0.71105057124E+01 -0.12261289506E+03 -0.19083683607E+03  0.22699178251E+03  0.47000000000E+01 0.  1.
<mgrwt>
<rscale>  0 0.99995217E+03</rscale>
<asrwt>0</asrwt>
<pdfrwt beam="1">  1        2 0.15100028E+00 0.99995217E+03</pdfrwt>
<pdfrwt beam="2">  1       -2 0.39182666E-01 0.99995217E+03</pdfrwt>
<totfact> 0.19275144E+02</totfact>
</mgrwt>
</event>
<event>
 9    1  0.4246427E-036  0.1000588E+04  0.7818608E-02  0.8680478E-01
          1   -1    0    0  501    0  0.00000000000E+00  0.00000000000E+00  0.10233861470E+04  0.10233861470E+04  0.00000000000E+00 0. -1.
         -1   -1    0    0    0  501 -0.00000000000E+00 -0.00000000000E+00 -0.24457438142E+03  0.24457438142E+03  0.00000000000E+00 0. -1.
         36    2    1    2    0    0  0.14210854715E-13 -0.14210854715E-13  0.77881176560E+03  0.12679605284E+04  0.10005878949E+04 0.  0.
         25    2    3    3    0    0  0.84782466796E+02 -0.83187995423E+02  0.48559356842E+02  0.17949153197E+03  0.12550254840E+03 0.  0.
         35    2    3    3    0    0 -0.84782466796E+02  0.83187995423E+02  0.73025240876E+03  0.10884689965E+04  0.79836574733E+03 0.  0.
         22    1    5    5    0    0  0.44467944738E+02  0.35749637391E+03  0.69548321200E+03  0.78324833459E+03  0.00000000000E+00 0. -1.
         22    1    5    5    0    0 -0.12925041153E+03 -0.27430837849E+03  0.34769196762E+02  0.30522066187E+03  0.00000000000E+00 0. -1.
          5    1    4    4  502    0  0.56170506067E+02 -0.84902584881E+01  0.75816133676E+02  0.94854553747E+02  0.47000000000E+01 0.  1.
         -5    1    4    4    0  502  0.28611960729E+02 -0.74697736935E+02 -0.27256776834E+02  0.84636978227E+02  0.47000000000E+01 0.  1.
<mgrwt>
<rscale>  0 0.10005879E+04</rscale>
<asrwt>0</asrwt>
<pdfrwt beam="1">  1        1 0.15744402E+00 0.10005879E+04</pdfrwt>
<pdfrwt beam="2">  1       -1 0.37626828E-01 0.10005879E+04</pdfrwt>
<totfact> 0.11039415E+02</totfact>
</mgrwt>
</event>
<event>
 9    1  0.4246427E-036  0.9998623E+03  0.7818608E-02  0.8681169E-01
          2   -1    0    0  501    0  0.00000000000E+00  0.00000000000E+00  0.15649500140E+04  0.15649500140E+04  0.00000000000E+00 0.  1.
         -2   -1    0    0    0  501 -0.00000000000E+00 -0.00000000000E+00 -0.15970552336E+03  0.15970552336E+03  0.00000000000E+00 0.  1.
         36    2    1    2    0    0  0.00000000000E+00  0.00000000000E+00  0.14052444907E+04  0.17246555374E+04  0.99986231255E+03 0.  0.
         25    2    3    3    0    0 -0.82445455253E+02  0.87344466759E+02  0.39192365178E+03  0.42824853644E+03  0.12396108736E+03 0.  0.
         35    2    3    3    0    0  0.82445455253E+02 -0.87344466759E+02  0.10133208389E+04  0.12964070009E+04  0.79964096980E+03 0.  0.
         22    1    5    5    0    0  0.25411510279E+03 -0.22432628677E+03  0.10218650362E+04  0.10766173510E+04  0.00000000000E+00 0.  1.
         22    1    5    5    0    0 -0.17166964754E+03  0.13698182001E+03 -0.85441972765E+01  0.21978964990E+03  0.00000000000E+00 0.  1.
          5    1    4    4  502    0  0.25658475521E+01  0.87239247767E+02  0.19284317602E+03  0.21172588520E+03  0.47000000000E+01 0. -1.
         -5    1    4    4    0  502 -0.85011302806E+02  0.10521899143E+00  0.19908047575E+03  0.21652265124E+03  0.47000000000E+01 0. -1.
<mgrwt>
<rscale>  0 0.99986231E+03</rscale>
<asrwt>0</asrwt>
<pdfrwt beam="1">  1        2 0.24076153E+00 0.99986231E+03</pdfrwt>
<pdfrwt beam="2">  1       -2 0.24570082E-01 0.99986231E+03</pdfrwt>
<totfact> 0.20595085E+02</totfact>
</mgrwt>
</event>
<event>
 9    1  0.4246427E-036  0.9962007E+03  0.7818608E-02  0.8684664E-01
          2   -1    0    0  501    0  0.00000000000E+00  0.00000000000E+00  0.91546931194E+03  0.91546931194E+03  0.00000000000E+00 0.  1.
         -2   -1    0    0    0  501 -0.00000000000E+00 -0.00000000000E+00 -0.27101284183E+03  0.27101284183E+03  0.00000000000E+00 0.  1.
         36    2    1    2    0    0 -0.14210854715E-13  0.00000000000E+00  0.64445647011E+03  0.11864821538E+04  0.99620066220E+03 0.  0.
         25    2    3    3    0    0 -0.12439492408E+03  0.22265257229E+02  0.16977358189E+03  0.24589584785E+03  0.12518729993E+03 0.  0.
         35    2    3    3    0    0  0.12439492408E+03 -0.22265257229E+02  0.47468288822E+03  0.94058630593E+03  0.80212774277E+03 0.  0.
         22    1    5    5    0    0 -0.18454223732E+03  0.23545983498E+03  0.44626361953E+03  0.53726007609E+03  0.00000000000E+00 0. -1.
         22    1    5    5    0    0  0.30893716140E+03 -0.25772509221E+03  0.28419268686E+02  0.40332622984E+03  0.00000000000E+00 0. -1.
          5    1    4    4  502    0 -0.34816794987E+02  0.56278839845E+02  0.22352499614E+02  0.70008865628E+02  0.47000000000E+01 0. -1.
         -5    1    4    4    0  502 -0.89578129093E+02 -0.34013582617E+02  0.14742108228E+03  0.17588698222E+03  0.47000000000E+01 0. -1.
<mgrwt>
<rscale>  0 0.99620066E+03</rscale>
<asrwt>0</asrwt>
<pdfrwt beam="1">  1        2 0.14084143E+00 0.99620066E+03</pdfrwt>
<pdfrwt beam="2">  1       -2 0.41694284E-01 0.99620066E+03</pdfrwt>
<totfact> 0.18867646E+02</totfact>
</mgrwt>
</event>
<event>
 9    1  0.4246427E-036  0.1000562E+04  0.7818608E-02  0.8680503E-01
          2   -1    0    0  501    0  0.00000000000E+00  0.00000000000E+00  0.14471999079E+04  0.14471999079E+04  0.00000000000E+00 0.  1.
         -2   -1    0    0    0  501 -0.00000000000E+00 -0.00000000000E+00 -0.17294155355E+03  0.17294155355E+03  0.00000000000E+00 0.  1.
         36    2    1    2    0    0 -0.14210854715E-13  0.17763568394E-13  0.12742583544E+04  0.16201414614E+04  0.10005618429E+04 0.  0.
         25    2    3    3    0    0  0.11145088118E+03 -0.27462472902E+02  0.37283130600E+03  0.40980665611E+03  0.12555009488E+03 0.  0.
         35    2    3    3    0    0 -0.11145088118E+03  0.27462472902E+02  0.90142704835E+03  0.12103348053E+04  0.79947741129E+03 0.  0.
         22    1    5    5    0    0 -0.35008740518E+03 -0.12241338277E+03  0.84518982518E+03  0.92297999335E+03  0.00000000000E+00 0.  1.
         22    1    5    5    0    0  0.23863652400E+03  0.14987585567E+03  0.56237223178E+02  0.28735481199E+03  0.00000000000E+00 0.  1.
          5    1    4    4  502    0  0.25613121846E+02  0.15104739865E+02  0.60733526295E+01  0.30710922963E+02  0.47000000000E+01 0.  1.
         -5    1    4    4    0  502  0.85837759332E+02 -0.42567212767E+02  0.36675795337E+03  0.37909573315E+03  0.47000000000E+01 0.  1.
<mgrwt>
<rscale>  0 0.10005618E+04</rscale>
<asrwt>0</asrwt>
<pdfrwt beam="1">  1        2 0.22264613E+00 0.10005618E+04</pdfrwt>
<pdfrwt beam="2">  1       -2 0.26606394E-01 0.10005618E+04</pdfrwt>
<totfact> 0.20840080E+02</totfact>
</mgrwt>
</event>
<event>
 9    1  0.4246427E-036  0.1001283E+04  0.7818608E-02  0.8679817E-01
         -1   -1    0    0    0  501 -0.00000000000E+00  0.00000000000E+00  0.23232284625E+03  0.23232284625E+03  0.00000000000E+00 0.  1.
          1   -1    0    0  501    0  0.00000000000E+00 -0.00000000000E+00 -0.10788522636E+04  0.10788522636E+04  0.00000000000E+00 0.  1.
         36    2    1    2    0    0  0.00000000000E+00  0.00000000000E+00 -0.84652941738E+03  0.13111751099E+04  0.10012832338E+04 0.  0.
         25    2    3    3    0    0  0.11155111661E+03  0.17055594401E+02 -0.49806427338E+02  0.17645821036E+03  0.12618349686E+03 0.  0.
         35    2    3    3    0    0 -0.11155111661E+03 -0.17055594401E+02 -0.79672299005E+03  0.11347168995E+04  0.80005023234E+03 0.  0.
         22    1    5    5    0    0 -0.44171004907E+03  0.92467082110E+02 -0.53178198927E+03  0.69745968546E+03  0.00000000000E+00 0. -1.
         22    1    5    5    0    0  0.33015893247E+03 -0.10952267651E+03 -0.26494100078E+03  0.43725721406E+03  0.00000000000E+00 0. -1.
          5    1    4    4  502    0  0.88750449565E+02  0.29653635304E+02 -0.88959419840E+02  0.12919693790E+03  0.47000000000E+01 0. -1.
         -5    1    4    4    0  502  0.22800667044E+02 -0.12598040904E+02  0.39152992502E+02  0.47261272455E+02  0.47000000000E+01 0. -1.
<mgrwt>
<rscale>  0 0.10012832E+04</rscale>
<asrwt>0</asrwt>
<pdfrwt beam="1">  1        1 0.16597727E+00 0.10012832E+04</pdfrwt>
<pdfrwt beam="2">  1       -1 0.35741977E-01 0.10012832E+04</pdfrwt>
<totfact> 0.10935895E+02</totfact>
</mgrwt>
</event>
<event>
 9    1  0.4246427E-036  0.1001373E+04  0.7818608E-02  0.8679732E-01
         -1   -1    0    0    0  501 -0.00000000000E+00  0.00000000000E+00  0.26954186629E+03  0.26954186629E+03  0.00000000000E+00 0. -1.
          1   -1    0    0  501    0  0.00000000000E+00 -0.00000000000E+00 -0.93004767117E+03  0.93004767117E+03  0.00000000000E+00 0. -1.
         36    2    1    2    0    0 -0.14210854715E-13  0.00000000000E+00 -0.66050580488E+03  0.11995895375E+04  0.10013726280E+04 0.  0.
         25    2    3    3    0    0 -0.11610570359E+03  0.30573648429E+02 -0.34169156171E+02  0.17635306394E+03  0.12456961726E+03 0.  0.
         35    2    3    3    0    0  0.11610570359E+03 -0.30573648429E+02 -0.62633664871E+03  0.10232364735E+04  0.80018747856E+03 0.  0.
         22    1    5    5    0    0 -0.13342871132E+02  0.21690782960E+03 -0.70118451836E+03  0.73408907330E+03  0.00000000000E+00 0. -1.
         22    1    5    5    0    0  0.12944857472E+03 -0.24748147803E+03  0.74847869645E+02  0.28914740022E+03  0.00000000000E+00 0. -1.
          5    1    4    4  502    0 -0.98867334909E+02  0.30913388396E+02  0.31438344879E+02  0.10835518918E+03  0.47000000000E+01 0. -1.
         -5    1    4    4    0  502 -0.17238368680E+02 -0.33973996717E+00 -0.65607501050E+02  0.67997874761E+02  0.47000000000E+01 0. -1.
<mgrwt>
<rscale>  0 0.10013726E+04</rscale>
<asrwt>0</asrwt>
<pdfrwt beam="1">  1        1 0.14308425E+00 0.10013726E+04</pdfrwt>
<pdfrwt beam="2">  1       -1 0.41467980E-01 0.10013726E+04</pdfrwt>
<totfact> 0.11036487E+02</totfact>
</mgrwt>
</event>
<event>
 9    1  0.4246427E-036  0.1009642E+04  0.7818608E-02  0.8671909E-01
         -3   -1    0    0    0  501 -0.00000000000E+00  0.00000000000E+00  0.13945303930E+03  0.13945303930E+03  0.00000000000E+00 0. -1.
          3   -1    0    0  501    0  0.00000000000E+00 -0.00000000000E+00 -0.18274571098E+04  0.18274571098E+04  0.00000000000E+00 0. -1.
         36    2    1    2    0    0  0.00000000000E+00  0.14210854715E-13 -0.16880040705E+04  0.19669101491E+04  0.10096424083E+04 0.  0.
         25    2    3    3    0    0  0.38580314473E+02  0.12018582968E+03 -0.17166627359E+03  0.24773341121E+03  0.12637032571E+03 0.  0.
         35    2    3    3    0    0 -0.38580314473E+02 -0.12018582968E+03 -0.15163377969E+04  0.17191767379E+04  0.80022201133E+03 0.  0.
         22    1    5    5    0    0 -0.21291325619E+03  0.23643873997E+03 -0.10950436277E+04  0.11403314777E+04  0.00000000000E+00 0. -1.
         22    1    5    5    0    0  0.17433294171E+03 -0.35662456965E+03 -0.42129416918E+03  0.57884526017E+03  0.00000000000E+00 0. -1.
          5    1    4    4  502    0 -0.37745570766E+02  0.10943731978E+02 -0.15819997798E+02  0.42624590466E+02  0.47000000000E+01 0.  1.
         -5    1    4    4    0  502  0.76325885239E+02  0.10924209771E+03 -0.15584627579E+03  0.20510882075E+03  0.47000000000E+01 0.  1.
<mgrwt>
<rscale>  0 0.10096424E+04</rscale>
<asrwt>0</asrwt>
<pdfrwt beam="1">  1        3 0.28114724E+00 0.10096424E+04</pdfrwt>
<pdfrwt beam="2">  1       -3 0.21454314E-01 0.10096424E+04</pdfrwt>
<totfact> 0.41945658E+00</totfact>
</mgrwt>
</event>
<event>
 9    1  0.4246427E-036  0.9987146E+03  0.7818608E-02  0.8682263E-01
          1   -1    0    0  501    0  0.00000000000E+00  0.00000000000E+00  0.83871733917E+03  0.83871733917E+03  0.00000000000E+00 0. -1.
         -1   -1    0    0    0  501 -0.00000000000E+00 -0.00000000000E+00 -0.29730839825E+03  0.29730839825E+03  0.00000000000E+00 0. -1.
         36    2    1    2    0    0 -0.14210854715E-13  0.28421709430E-13  0.54140894092E+03  0.11360257374E+04  0.99871459125E+03 0.  0.
         25    2    3    3    0    0 -0.11075672523E+03  0.81170043083E+02  0.85256620654E+02  0.20461499608E+03  0.12547102127E+03 0.  0.
         35    2    3    3    0    0  0.11075672523E+03 -0.81170043083E+02  0.45615232027E+03  0.93141074134E+03  0.80037203956E+03 0.  0.
         22    1    5    5    0    0 -0.21184032823E+03  0.20480310232E+03 -0.12134337876E+02  0.29490316637E+03  0.00000000000E+00 0. -1.
         22    1    5    5    0    0  0.32259705346E+03 -0.28597314540E+03  0.46828665815E+03  0.63650757497E+03  0.00000000000E+00 0. -1.
          5    1    4    4  502    0 -0.22546380858E+02  0.77820379913E+02  0.83149827059E+02  0.11619094009E+03  0.47000000000E+01 0. -1.
         -5    1    4    4    0  502 -0.88210344376E+02  0.33496631703E+01  0.21067935945E+01  0.88424055989E+02  0.47000000000E+01 0. -1.
<mgrwt>
<rscale>  0 0.99871459E+03</rscale>
<asrwt>0</asrwt>
<pdfrwt beam="1">  1        1 0.12903344E+00 0.99871459E+03</pdfrwt>
<pdfrwt beam="2">  1       -1 0.45739754E-01 0.99871459E+03</pdfrwt>
<totfact> 0.11035124E+02</totfact>
</mgrwt>
</event>
<event>
 9    1  0.4246427E-036  0.1000247E+04  0.7818608E-02  0.8680803E-01
          2   -1    0    0  501    0  0.00000000000E+00  0.00000000000E+00  0.28843757516E+03  0.28843757516E+03  0.00000000000E+00 0. -1.
         -2   -1    0    0    0  501 -0.00000000000E+00 -0.00000000000E+00 -0.86716645376E+03  0.86716645376E+03  0.00000000000E+00 0. -1.
         36    2    1    2    0    0  0.14210854715E-13  0.14210854715E-13 -0.57872887860E+03  0.11556040289E+04  0.10002467479E+04 0.  0.
         25    2    3    3    0    0  0.68402859729E+02 -0.76267914798E+02 -0.22128452727E+03  0.27336519153E+03  0.12355541220E+03 0.  0.
         35    2    3    3    0    0 -0.68402859729E+02  0.76267914798E+02 -0.35744435133E+03  0.88223883739E+03  0.80005197073E+03 0.  0.
         22    1    5    5    0    0 -0.35809511052E+03 -0.11782438073E+03 -0.37679460663E+03  0.53299987660E+03  0.00000000000E+00 0.  1.
         22    1    5    5    0    0  0.28969225079E+03  0.19409229553E+03  0.19350255301E+02  0.34923896079E+03  0.00000000000E+00 0.  1.
          5    1    4    4  502    0 -0.30473090129E+02 -0.29642552235E+02 -0.10658026887E+03  0.11484221278E+03  0.47000000000E+01 0. -1.
         -5    1    4    4    0  502  0.98875949857E+02 -0.46625362563E+02 -0.11470425841E+03  0.15852297875E+03  0.47000000000E+01 0. -1.
<mgrwt>
<rscale>  0 0.10002467E+04</rscale>
<asrwt>0</asrwt>
<pdfrwt beam="1">  1        2 0.44375012E-01 0.10002467E+04</pdfrwt>
<pdfrwt beam="2">  1       -2 0.13341022E+00 0.10002467E+04</pdfrwt>
<totfact> 0.53673391E+01</totfact>
</mgrwt>
</event>
<event>
 9    1  0.4246427E-036  0.1001375E+04  0.7818608E-02  0.8679730E-01
          2   -1    0    0  501    0  0.00000000000E+00  0.00000000000E+00  0.51271936689E+03  0.51271936689E+03  0.00000000000E+00 0. -1.
         -2   -1    0    0    0  501 -0.00000000000E+00 -0.00000000000E+00 -0.48893775289E+03  0.48893775289E+03  0.00000000000E+00 0. -1.
         36    2    1    2    0    0 -0.42632564146E-13  0.00000000000E+00  0.23781613993E+02  0.10016571198E+04  0.10013747652E+04 0.  0.
         25    2    3    3    0    0 -0.79958347228E+02 -0.25074827526E+02 -0.10860849329E+03  0.18573546171E+03  0.12521889895E+03 0.  0.
         35    2    3    3    0    0  0.79958347228E+02  0.25074827526E+02  0.13239010728E+03  0.81592165807E+03  0.80073649057E+03 0.  0.
         22    1    5    5    0    0 -0.31080017729E+03  0.18954525287E+03 -0.22053343526E+02  0.36470605019E+03  0.00000000000E+00 0.  1.
         22    1    5    5    0    0  0.39075852451E+03 -0.16447042534E+03  0.15444345081E+03  0.45121560788E+03  0.00000000000E+00 0.  1.
          5    1    4    4  502    0  0.25867798974E+02 -0.20558690468E+02 -0.60951151973E+02  0.69490543992E+02  0.47000000000E+01 0.  1.
         -5    1    4    4    0  502 -0.10582614620E+03 -0.45161370582E+01 -0.47657341318E+02  0.11624491772E+03  0.47000000000E+01 0.  1.
<mgrwt>
<rscale>  0 0.10013748E+04</rscale>
<asrwt>0</asrwt>
<pdfrwt beam="1">  1        2 0.78879902E-01 0.10013748E+04</pdfrwt>
<pdfrwt beam="2">  1       -2 0.75221193E-01 0.10013748E+04</pdfrwt>
<totfact> 0.11459518E+02</totfact>
</mgrwt>
</event>
<event>
 9    1  0.4246427E-036  0.1004199E+04  0.7818608E-02  0.8677050E-01
          2   -1    0    0  501    0  0.00000000000E+00  0.00000000000E+00  0.10705044887E+04  0.10705044887E+04  0.00000000000E+00 0. -1.
         -2   -1    0    0    0  501 -0.00000000000E+00 -0.00000000000E+00 -0.23550001575E+03  0.23550001575E+03  0.00000000000E+00 0. -1.
         36    2    1    2    0    0  0.35527136788E-14  0.00000000000E+00  0.83500447292E+03  0.13060045044E+04  0.10041988328E+04 0.  0.
         25    2    3    3    0    0 -0.10942861919E+02 -0.13412897394E+03  0.23046951593E+03  0.29446210883E+03  0.12442430585E+03 0.  0.
         35    2    3    3    0    0  0.10942861919E+02  0.13412897394E+03  0.60453495699E+03  0.10115423956E+04  0.79977820423E+03 0.  0.
         22    1    5    5    0    0 -0.76290568258E+02 -0.32864304896E+03  0.29346684825E+03  0.44715690251E+03  0.00000000000E+00 0.  1.
         22    1    5    5    0    0  0.87233430176E+02  0.46277202290E+03  0.31106810874E+03  0.56438549308E+03  0.00000000000E+00 0.  1.
          5    1    4    4  502    0 -0.30375452111E+02 -0.92924815472E+02  0.53257588096E+02  0.11142777980E+03  0.47000000000E+01 0. -1.
         -5    1    4    4    0  502  0.19432590192E+02 -0.41204158470E+02  0.17721192784E+03  0.18303432903E+03  0.47000000000E+01 0. -1.
<mgrwt>
<rscale>  0 0.10041988E+04</rscale>
<asrwt>0</asrwt>
<pdfrwt beam="1">  1        2 0.16469300E+00 0.10041988E+04</pdfrwt>
<pdfrwt beam="2">  1       -2 0.36230772E-01 0.10041988E+04</pdfrwt>
<totfact> 0.19677003E+02</totfact>
</mgrwt>
</event>
<event>
 9    1  0.4246427E-036  0.1000566E+04  0.7818608E-02  0.8680499E-01
         -2   -1    0    0    0  501 -0.00000000000E+00  0.00000000000E+00  0.18987880418E+03  0.18987880418E+03  0.00000000000E+00 0.  1.
          2   -1    0    0  501    0  0.00000000000E+00 -0.00000000000E+00 -0.13181194899E+04  0.13181194899E+04  0.00000000000E+00 0.  1.
         36    2    1    2    0    0 -0.39079850467E-13  0.00000000000E+00 -0.11282406857E+04  0.15079982941E+04  0.10005657450E+04 0.  0.
         25    2    3    3    0    0  0.57745434149E+01 -0.13944985010E+03 -0.25215862836E+03  0.31418661680E+03  0.12509856224E+03 0.  0.
         35    2    3    3    0    0 -0.57745434149E+01  0.13944985010E+03 -0.87608205735E+03  0.11938116773E+04  0.79886603604E+03 0.  0.
         22    1    5    5    0    0 -0.38727088088E+03  0.53409118984E+02 -0.59603475800E+03  0.71280341042E+03  0.00000000000E+00 0. -1.
         22    1    5    5    0    0  0.38149633746E+03  0.86040731117E+02 -0.28004729935E+03  0.48100826685E+03  0.00000000000E+00 0. -1.
          5    1    4    4  502    0  0.19544573469E+02 -0.12390767069E+03 -0.99849562880E+02  0.16039677807E+03  0.47000000000E+01 0.  1.
         -5    1    4    4    0  502 -0.13770030054E+02 -0.15542179407E+02 -0.15230906548E+03  0.15378983873E+03  0.47000000000E+01 0.  1.
<mgrwt>
<rscale>  0 0.10005657E+04</rscale>
<asrwt>0</asrwt>
<pdfrwt beam="1">  1        2 0.20278761E+00 0.10005657E+04</pdfrwt>
<pdfrwt beam="2">  1       -2 0.29212125E-01 0.10005657E+04</pdfrwt>
<totfact> 0.20878734E+02</totfact>
</mgrwt>
</event>
<event>
 9    1  0.4246427E-036  0.9994533E+03  0.7818608E-02  0.8681559E-01
         -1   -1    0    0    0  501 -0.00000000000E+00  0.00000000000E+00  0.21429877031E+03  0.21429877031E+03  0.00000000000E+00 0. -1.
          1   -1    0    0  501    0  0.00000000000E+00 -0.00000000000E+00 -0.11653204354E+04  0.11653204354E+04  0.00000000000E+00 0. -1.
         36    2    1    2    0    0  0.00000000000E+00  0.28421709430E-13 -0.95102166504E+03  0.13796192057E+04  0.99945332320E+03 0.  0.
         25    2    3    3    0    0  0.23570074801E+02 -0.28216233428E+02 -0.36425630489E+03  0.38682531152E+03  0.12489780513E+03 0.  0.
         35    2    3    3    0    0 -0.23570074801E+02  0.28216233428E+02 -0.58676536015E+03  0.99279389414E+03  0.79999651506E+03 0.  0.
         22    1    5    5    0    0  0.58252261999E+02 -0.35408379840E+03 -0.45660503937E+03  0.58073817189E+03  0.00000000000E+00 0.  1.
         22    1    5    5    0    0 -0.81822336800E+02  0.38230003182E+03 -0.13016032079E+03  0.41205572225E+03  0.00000000000E+00 0.  1.
          5    1    4    4  502    0  0.66461929837E+02 -0.27874942961E+02 -0.13080484613E+03  0.14941953799E+03  0.47000000000E+01 0.  1.
         -5    1    4    4    0  502 -0.42891855036E+02 -0.34129046632E+00 -0.23345145877E+03  0.23740577353E+03  0.47000000000E+01 0.  1.
<mgrwt>
<rscale>  0 0.99945332E+03</rscale>
<asrwt>0</asrwt>
<pdfrwt beam="1">  1        1 0.17928007E+00 0.99945332E+03</pdfrwt>
<pdfrwt beam="2">  1       -1 0.32969042E-01 0.99945332E+03</pdfrwt>
<totfact> 0.10815359E+02</totfact>
</mgrwt>
</event>
<event>
 9    1  0.4246427E-036  0.1001534E+04  0.7818608E-02  0.8679579E-01
         -1   -1    0    0    0  501 -0.00000000000E+00  0.00000000000E+00  0.51823114387E+03  0.51823114387E+03  0.00000000000E+00 0.  1.
          1   -1    0    0  501    0  0.00000000000E+00 -0.00000000000E+00 -0.48389105530E+03  0.48389105530E+03  0.00000000000E+00 0.  1.
         36    2    1    2    0    0  0.00000000000E+00  0.71054273576E-14  0.34340088565E+02  0.10021221992E+04  0.10015336541E+04 0.  0.
         25    2    3    3    0    0  0.10977934700E+03 -0.20011162280E+02 -0.92679227350E+02  0.19145014101E+03  0.12494705145E+03 0.  0.
         35    2    3    3    0    0 -0.10977934700E+03  0.20011162280E+02  0.12701931592E+03  0.81067205817E+03  0.79284508426E+03 0.  0.
         22    1    5    5    0    0 -0.35453770523E+03 -0.20823248922E+03 -0.77576275765E+02  0.41842064069E+03  0.00000000000E+00 0.  1.
         22    1    5    5    0    0  0.24475835824E+03  0.22824365150E+03  0.20459559168E+03  0.39225141747E+03  0.00000000000E+00 0.  1.
          5    1    4    4  502    0  0.31178453110E+02 -0.60744241571E+02 -0.74101130730E+02  0.10087133586E+03  0.47000000000E+01 0. -1.
         -5    1    4    4    0  502  0.78600893886E+02  0.40733079291E+02 -0.18578096620E+02  0.90578805149E+02  0.47000000000E+01 0. -1.
<mgrwt>
<rscale>  0 0.10015337E+04</rscale>
<asrwt>0</asrwt>
<pdfrwt beam="1">  1        1 0.74444778E-01 0.10015337E+04</pdfrwt>
<pdfrwt beam="2">  1       -1 0.79727868E-01 0.10015337E+04</pdfrwt>
<totfact> 0.86162236E+01</totfact>
</mgrwt>
</event>
<event>
 9    1  0.4246427E-036  0.1003587E+04  0.7818608E-02  0.8677629E-01
         -2   -1    0    0    0  501 -0.00000000000E+00  0.00000000000E+00  0.26365481905E+03  0.26365481905E+03  0.00000000000E+00 0. -1.
          2   -1    0    0  501    0  0.00000000000E+00 -0.00000000000E+00 -0.95502429456E+03  0.95502429456E+03  0.00000000000E+00 0. -1.
         36    2    1    2    0    0  0.00000000000E+00  0.00000000000E+00 -0.69136947552E+03  0.12186791136E+04  0.10035870816E+04 0.  0.
         25    2    3    3    0    0  0.20275019031E+02 -0.10938217300E+03 -0.24506667007E+03  0.29668678473E+03  0.12485927794E+03 0.  0.
         35    2    3    3    0    0 -0.20275019031E+02  0.10938217300E+03 -0.44630280544E+03  0.92199232888E+03  0.79906703361E+03 0.  0.
         22    1    5    5    0    0 -0.28961212708E+03 -0.62689229807E+02  0.79385924027E+02  0.30676904768E+03  0.00000000000E+00 0.  1.
         22    1    5    5    0    0  0.26933710805E+03  0.17207140280E+03 -0.52568872947E+03  0.61522328120E+03  0.00000000000E+00 0.  1.
          5    1    4    4  502    0  0.48912053481E+02  0.48420278081E+01 -0.72183930657E+02  0.87455383220E+02  0.47000000000E+01 0.  1.
         -5    1    4    4    0  502 -0.28637034450E+02 -0.11422420080E+03 -0.17288273942E+03  0.20923140151E+03  0.47000000000E+01 0.  1.
<mgrwt>
<rscale>  0 0.10035871E+04</rscale>
<asrwt>0</asrwt>
<pdfrwt beam="1">  1        2 0.14692682E+00 0.10035871E+04</pdfrwt>
<pdfrwt beam="2">  1       -2 0.40562279E-01 0.10035871E+04</pdfrwt>
<totfact> 0.18753995E+02</totfact>
</mgrwt>
</event>
<event>
 9    1  0.4246427E-036  0.1000101E+04  0.7818608E-02  0.8680942E-01
         -1   -1    0    0    0  501 -0.00000000000E+00  0.00000000000E+00  0.20030036763E+03  0.20030036763E+03  0.00000000000E+00 0.  1.
          1   -1    0    0  501    0  0.00000000000E+00 -0.00000000000E+00 -0.12483769985E+04  0.12483769985E+04  0.00000000000E+00 0.  1.
         36    2    1    2    0    0  0.00000000000E+00 -0.21316282073E-13 -0.10480766309E+04  0.14486773661E+04  0.10001007384E+04 0.  0.
         25    2    3    3    0    0 -0.68229493241E+02 -0.50520191771E+02 -0.25083697160E+02  0.14797836636E+03  0.11857846146E+03 0.  0.
         35    2    3    3    0    0  0.68229493241E+02  0.50520191771E+02 -0.10229929337E+04  0.13006989998E+04  0.79880898346E+03 0.  0.
         22    1    5    5    0    0 -0.14234674882E+03 -0.15419202880E+03  0.25921355229E+02  0.21144667248E+03  0.00000000000E+00 0. -1.
         22    1    5    5    0    0  0.21057624206E+03  0.20471222057E+03 -0.10489142890E+04  0.10892523273E+04  0.00000000000E+00 0. -1.
          5    1    4    4  502    0 -0.69292904438E+02 -0.37773714167E+02 -0.67169766076E+02  0.10374115655E+03  0.47000000000E+01 0.  1.
         -5    1    4    4    0  502  0.10634111973E+01 -0.12746477604E+02  0.42086068916E+02  0.44237209807E+02  0.47000000000E+01 0.  1.
<mgrwt>
<rscale>  0 0.10001007E+04</rscale>
<asrwt>0</asrwt>
<pdfrwt beam="1">  1        1 0.19205799E+00 0.10001007E+04</pdfrwt>
<pdfrwt beam="2">  1       -1 0.30815442E-01 0.10001007E+04</pdfrwt>
<totfact> 0.10535236E+02</totfact>
</mgrwt>
</event>
<event>
 9    1  0.4246427E-036  0.1003523E+04  0.7818608E-02  0.8677690E-01
          2   -1    0    0  501    0  0.00000000000E+00  0.00000000000E+00  0.66596361558E+03  0.66596361558E+03  0.00000000000E+00 0. -1.
         -2   -1    0    0    0  501 -0.00000000000E+00 -0.00000000000E+00 -0.37804550176E+03  0.37804550176E+03  0.00000000000E+00 0. -1.
         36    2    1    2    0    0  0.28421709430E-13  0.00000000000E+00  0.28791811382E+03  0.10440091173E+04  0.10035228930E+04 0.  0.
         25    2    3    3    0    0  0.75284570291E+02 -0.61807969887E+02  0.16423481972E+03  0.22854197476E+03  0.12558012006E+03 0.  0.
         35    2    3    3    0    0 -0.75284570291E+02  0.61807969887E+02  0.12368329410E+03  0.81546714259E+03  0.80012568496E+03 0.  0.
         22    1    5    5    0    0 -0.29661216014E+03 -0.10410906749E+03 -0.21300558615E+03  0.37972207101E+03  0.00000000000E+00 0.  1.
         22    1    5    5    0    0  0.22132758985E+03  0.16591703738E+03  0.33668888025E+03  0.43574507158E+03  0.00000000000E+00 0.  1.
          5    1    4    4  502    0  0.10051513186E+03 -0.64910192063E+02  0.16352619653E+03  0.20268086175E+03  0.47000000000E+01 0. -1.
         -5    1    4    4    0  502 -0.25230561568E+02  0.31022221765E+01  0.70862318816E+00  0.25861113013E+02  0.47000000000E+01 0. -1.
<mgrwt>
<rscale>  0 0.10035229E+04</rscale>
<asrwt>0</asrwt>
<pdfrwt beam="1">  1        2 0.10245594E+00 0.10035229E+04</pdfrwt>
<pdfrwt beam="2">  1       -2 0.58160847E-01 0.10035229E+04</pdfrwt>
<totfact> 0.14601724E+02</totfact>
</mgrwt>
</event>
<event>
 9    1  0.4246427E-036  0.1000466E+04  0.7818608E-02  0.8680595E-01
         -2   -1    0    0    0  501 -0.00000000000E+00  0.00000000000E+00  0.19993339814E+03  0.19993339814E+03  0.00000000000E+00 0. -1.
          2   -1    0    0  501    0  0.00000000000E+00 -0.00000000000E+00 -0.12515810492E+04  0.12515810492E+04  0.00000000000E+00 0. -1.
         36    2    1    2    0    0  0.28421709430E-13 -0.14210854715E-13 -0.10516476511E+04  0.14515144474E+04  0.10004655961E+04 0.  0.
         25    2    3    3    0    0  0.82552112647E+02 -0.86762196372E+02 -0.30510017566E+03  0.35085688931E+03  0.12518749764E+03 0.  0.
         35    2    3    3    0    0 -0.82552112647E+02  0.86762196372E+02 -0.74654747543E+03  0.11006575581E+04  0.79985711038E+03 0.  0.
         22    1    5    5    0    0 -0.35893489658E+03 -0.14126649351E+03 -0.60052581134E+03  0.71373785962E+03  0.00000000000E+00 0.  1.
         22    1    5    5    0    0  0.27638278393E+03  0.22802868988E+03 -0.14602166409E+03  0.38691969844E+03  0.00000000000E+00 0.  1.
          5    1    4    4  502    0  0.21049554934E+02 -0.94622818364E+02 -0.11305949476E+03  0.14900033850E+03  0.47000000000E+01 0.  1.
         -5    1    4    4    0  502  0.61502557713E+02  0.78606219921E+01 -0.19204068091E+03  0.20185655081E+03  0.47000000000E+01 0.  1.
<mgrwt>
<rscale>  0 0.10004656E+04</rscale>
<asrwt>0</asrwt>
<pdfrwt beam="1">  1        2 0.19255093E+00 0.10004656E+04</pdfrwt>
<pdfrwt beam="2">  1       -2 0.30758984E-01 0.10004656E+04</pdfrwt>
<totfact> 0.20775981E+02</totfact>
</mgrwt>
</event>
<event>
 9    1  0.4246427E-036  0.1000479E+04  0.7818608E-02  0.8680582E-01
         -2   -1    0    0    0  501 -0.00000000000E+00  0.00000000000E+00  0.13922073107E+03  0.13922073107E+03  0.00000000000E+00 0.  1.
          2   -1    0    0  501    0  0.00000000000E+00 -0.00000000000E+00 -0.17974312326E+04  0.17974312326E+04  0.00000000000E+00 0.  1.
         36    2    1    2    0    0 -0.14210854715E-13 -0.56843418861E-13 -0.16582105016E+04  0.19366519637E+04  0.10004792656E+04 0.  0.
         25    2    3    3    0    0  0.10581377239E+03 -0.89320214266E+02 -0.26030572223E+03  0.31998937458E+03  0.12433614002E+03 0.  0.
         35    2    3    3    0    0 -0.10581377239E+03  0.89320214266E+02 -0.13979047793E+04  0.16166625891E+04  0.80017841752E+03 0.  0.
         22    1    5    5    0    0 -0.16189096796E+03  0.27419553959E+03 -0.14662727448E+03  0.35055874980E+03  0.00000000000E+00 0. -1.
         22    1    5    5    0    0  0.56077195564E+02 -0.18487532533E+03 -0.12512775049E+04  0.12661038393E+04  0.00000000000E+00 0. -1.
          5    1    4    4  502    0  0.10799265164E+03 -0.97542638683E+02 -0.14923739671E+03  0.20849669001E+03  0.47000000000E+01 0. -1.
         -5    1    4    4    0  502 -0.21788792473E+01  0.82224244171E+01 -0.11106832552E+03  0.11149268457E+03  0.47000000000E+01 0. -1.
<mgrwt>
<rscale>  0 0.10004793E+04</rscale>
<asrwt>0</asrwt>
<pdfrwt beam="1">  1        2 0.27652787E+00 0.10004793E+04</pdfrwt>
<pdfrwt beam="2">  1       -2 0.21418575E-01 0.10004793E+04</pdfrwt>
<totfact> 0.19383652E+02</totfact>
</mgrwt>
</event>
<event>
 9    1  0.4246427E-036  0.1000362E+04  0.7818608E-02  0.8680693E-01
          2   -1    0    0  501    0  0.00000000000E+00  0.00000000000E+00  0.21686570873E+03  0.21686570873E+03  0.00000000000E+00 0. -1.
         -2   -1    0    0    0  501 -0.00000000000E+00 -0.00000000000E+00 -0.11536229551E+04  0.11536229551E+04  0.00000000000E+00 0. -1.
         36    2    1    2    0    0 -0.71054273576E-14  0.00000000000E+00 -0.93675724641E+03  0.13704886639E+04  0.10003624539E+04 0.  0.
         25    2    3    3    0    0  0.46171318068E+02 -0.10466833933E+03 -0.64442510313E+02  0.18141847121E+03  0.12519014614E+03 0.  0.
         35    2    3    3    0    0 -0.46171318068E+02  0.10466833933E+03 -0.87231473610E+03  0.11890701927E+04  0.79991729098E+03 0.  0.
         22    1    5    5    0    0 -0.98519258963E+02  0.15670385022E+03  0.10241876119E+03  0.21154607939E+03  0.00000000000E+00 0. -1.
         22    1    5    5    0    0  0.52347940895E+02 -0.52035510887E+02 -0.97473349729E+03  0.97752411328E+03  0.00000000000E+00 0. -1.
          5    1    4    4  502    0  0.20075838435E+02  0.26050675928E+02  0.14297355439E+00  0.33223296745E+02  0.47000000000E+01 0.  1.
         -5    1    4    4    0  502  0.26095479632E+02 -0.13071901526E+03 -0.64585483868E+02  0.14819517446E+03  0.47000000000E+01 0.  1.
<mgrwt>
<rscale>  0 0.10003625E+04</rscale>
<asrwt>0</asrwt>
<pdfrwt beam="1">  1        2 0.33363956E-01 0.10003625E+04</pdfrwt>
<pdfrwt beam="2">  1       -2 0.17748045E+00 0.10003625E+04</pdfrwt>
<totfact> 0.32959092E+01</totfact>
</mgrwt>
</event>
<event>
 9    1  0.4246427E-036  0.1000167E+04  0.7818608E-02  0.8680879E-01
         -2   -1    0    0    0  501 -0.00000000000E+00  0.00000000000E+00  0.29144058587E+03  0.29144058587E+03  0.00000000000E+00 0. -1.
          2   -1    0    0  501    0  0.00000000000E+00 -0.00000000000E+00 -0.85809394157E+03  0.85809394157E+03  0.00000000000E+00 0. -1.
         36    2    1    2    0    0 -0.14210854715E-13  0.35527136788E-13 -0.56665335570E+03  0.11495345274E+04  0.10001667882E+04 0.  0.
         25    2    3    3    0    0 -0.11201684437E+03 -0.43778878994E+02 -0.19113096332E+03  0.25818053829E+03  0.12514703971E+03 0.  0.
         35    2    3    3    0    0  0.11201684437E+03  0.43778878994E+02 -0.37552239238E+03  0.89135398915E+03  0.79939383480E+03 0.  0.
         22    1    5    5    0    0  0.94742256654E+02 -0.29500947077E+03  0.83200581681E+02  0.32082552864E+03  0.00000000000E+00 0.  1.
         22    1    5    5    0    0  0.17274587715E+02  0.33878834976E+03 -0.45872297406E+03  0.57052846050E+03  0.00000000000E+00 0.  1.
          5    1    4    4  502    0 -0.78519344470E+02 -0.55203703000E+02 -0.42069834520E+02  0.10490327572E+03  0.47000000000E+01 0. -1.
         -5    1    4    4    0  502 -0.33497499899E+02  0.11424824006E+02 -0.14906112880E+03  0.15327726257E+03  0.47000000000E+01 0. -1.
<mgrwt>
<rscale>  0 0.10001668E+04</rscale>
<asrwt>0</asrwt>
<pdfrwt beam="1">  1        2 0.13201445E+00 0.10001668E+04</pdfrwt>
<pdfrwt beam="2">  1       -2 0.44837013E-01 0.10001668E+04</pdfrwt>
<totfact> 0.17883711E+02</totfact>
</mgrwt>
</event>
<event>
 9    1  0.4246427E-036  0.9994309E+03  0.7818608E-02  0.8681580E-01
          2   -1    0    0  501    0  0.00000000000E+00  0.00000000000E+00  0.30576256866E+03  0.30576256866E+03  0.00000000000E+00 0.  1.
         -2   -1    0    0    0  501 -0.00000000000E+00 -0.00000000000E+00 -0.81669751822E+03  0.81669751822E+03  0.00000000000E+00 0.  1.
         36    2    1    2    0    0  0.00000000000E+00  0.00000000000E+00 -0.51093494956E+03  0.11224600869E+04  0.99943090004E+03 0.  0.
         25    2    3    3    0    0 -0.66439660909E+02 -0.83072643447E+02 -0.19626471825E+03  0.25590630615E+03  0.12511157127E+03 0.  0.
         35    2    3    3    0    0  0.66439660909E+02  0.83072643447E+02 -0.31467023131E+03  0.86655378073E+03  0.80036417198E+03 0.  0.
         22    1    5    5    0    0 -0.85377886934E+02  0.21339179114E+02  0.25710754394E+03  0.27175178618E+03  0.00000000000E+00 0. -1.
         22    1    5    5    0    0  0.15181754784E+03  0.61733464334E+02 -0.57177777525E+03  0.59480199455E+03  0.00000000000E+00 0. -1.
          5    1    4    4  502    0  0.11854145789E+02  0.22874903099E+02 -0.10711461399E+02  0.28295006087E+02  0.47000000000E+01 0. -1.
         -5    1    4    4    0  502 -0.78293806698E+02 -0.10594754655E+03 -0.18555325685E+03  0.22761130006E+03  0.47000000000E+01 0. -1.
<mgrwt>
<rscale>  0 0.99943090E+03</rscale>
<asrwt>0</asrwt>
<pdfrwt beam="1">  1        2 0.47040396E-01 0.99943090E+03</pdfrwt>
<pdfrwt beam="2">  1       -2 0.12564577E+00 0.99943090E+03</pdfrwt>
<totfact> 0.58997199E+01</totfact>
</mgrwt>
</event>
<event>
 9    1  0.4246427E-036  0.1002039E+04  0.7818608E-02  0.8679098E-01
          2   -1    0    0  501    0  0.00000000000E+00  0.00000000000E+00  0.86867662644E+03  0.86867662644E+03  0.00000000000E+00 0.  1.
         -2   -1    0    0    0  501 -0.00000000000E+00 -0.00000000000E+00 -0.28896901015E+03  0.28896901015E+03  0.00000000000E+00 0.  1.
         36    2    1    2    0    0  0.00000000000E+00  0.00000000000E+00  0.57970761629E+03  0.11576456366E+04  0.10020391707E+04 0.  0.
         25    2    3    3    0    0 -0.71339541136E+02 -0.12046522022E+03  0.13712965957E+03  0.23229007597E+03  0.12471141266E+03 0.  0.
         35    2    3    3    0    0  0.71339541136E+02  0.12046522022E+03  0.44257795671E+03  0.92535556061E+03  0.80050388280E+03 0.  0.
         22    1    5    5    0    0  0.10609000514E+03  0.41974548102E+03  0.44935519731E+03  0.62398834235E+03  0.00000000000E+00 0. -1.
         22    1    5    5    0    0 -0.34750464008E+02 -0.29928026080E+03 -0.67772406028E+01  0.30136721827E+03  0.00000000000E+00 0. -1.
          5    1    4    4  502    0 -0.12536386966E+01 -0.58750299360E+02  0.12474128452E+03  0.13796973345E+03  0.47000000000E+01 0. -1.
         -5    1    4    4    0  502 -0.70085902439E+02 -0.61714920860E+02  0.12388375057E+02  0.94320342525E+02  0.47000000000E+01 0. -1.
<mgrwt>
<rscale>  0 0.10020392E+04</rscale>
<asrwt>0</asrwt>
<pdfrwt beam="1">  1        2 0.13364256E+00 0.10020392E+04</pdfrwt>
<pdfrwt beam="2">  1       -2 0.44456771E-01 0.10020392E+04</pdfrwt>
<totfact> 0.17887894E+02</totfact>
</mgrwt>
</event>
<event>
 9    1  0.4246427E-036  0.1000173E+04  0.7818608E-02  0.8680874E-01
          2   -1    0    0  501    0  0.00000000000E+00  0.00000000000E+00  0.46998418135E+03  0.46998418135E+03  0.00000000000E+00 0. -1.
         -2   -1    0    0    0  501 -0.00000000000E+00 -0.00000000000E+00 -0.53211652644E+03  0.53211652644E+03  0.00000000000E+00 0. -1.
         36    2    1    2    0    0  0.00000000000E+00 -0.42632564146E-13 -0.62132345089E+02  0.10021007078E+04  0.10001726852E+04 0.  0.
         25    2    3    3    0    0  0.63163773579E+02  0.87539085940E+02  0.80722425076E+02  0.18217863823E+03  0.12255689477E+03 0.  0.
         35    2    3    3    0    0 -0.63163773579E+02 -0.87539085940E+02 -0.14285477017E+03  0.81992206956E+03  0.80013246462E+03 0.  0.
         22    1    5    5    0    0 -0.14027296498E+03 -0.31444660796E+03  0.20258496385E+03  0.39949197932E+03  0.00000000000E+00 0. -1.
         22    1    5    5    0    0  0.77109191402E+02  0.22690752202E+03 -0.34543973401E+03  0.42043009024E+03  0.00000000000E+00 0. -1.
          5    1    4    4  502    0  0.70301543171E+02  0.24766710974E+02  0.91294444158E+02  0.11795110207E+03  0.47000000000E+01 0.  1.
         -5    1    4    4    0  502 -0.71377695918E+01  0.62772374966E+02 -0.10572019082E+02  0.64227536159E+02  0.47000000000E+01 0.  1.
<mgrwt>
<rscale>  0 0.10001727E+04</rscale>
<asrwt>0</asrwt>
<pdfrwt beam="1">  1        2 0.72305259E-01 0.10001727E+04</pdfrwt>
<pdfrwt beam="2">  1       -2 0.81864081E-01 0.10001727E+04</pdfrwt>
<totfact> 0.10443652E+02</totfact>
</mgrwt>
</event>
<event>
 9    1  0.4246427E-036  0.1000408E+04  0.7818608E-02  0.8680650E-01
         -2   -1    0    0    0  501 -0.00000000000E+00  0.00000000000E+00  0.42601551331E+03  0.42601551331E+03  0.00000000000E+00 0. -1.
          2   -1    0    0  501    0  0.00000000000E+00 -0.00000000000E+00 -0.58731193624E+03  0.58731193624E+03  0.00000000000E+00 0. -1.
         36    2    1    2    0    0  0.21316282073E-13  0.00000000000E+00 -0.16129642294E+03  0.10133274496E+04  0.10004079088E+04 0.  0.
         25    2    3    3    0    0 -0.20220152821E+02 -0.26550434080E+02  0.10844046723E+03  0.16839916618E+03  0.12443939934E+03 0.  0.
         35    2    3    3    0    0  0.20220152821E+02  0.26550434080E+02 -0.26973689017E+03  0.84492828337E+03  0.80002002099E+03 0.  0.
         22    1    5    5    0    0 -0.23650423007E+03 -0.23639233983E+03 -0.33313739361E+03  0.47201283054E+03  0.00000000000E+00 0.  1.
         22    1    5    5    0    0  0.25672438289E+03  0.26294277391E+03  0.63400503441E+02  0.37291545283E+03  0.00000000000E+00 0.  1.
          5    1    4    4  502    0 -0.54424348443E+01 -0.17394367565E+02  0.13500231519E+03  0.13630810404E+03  0.47000000000E+01 0. -1.
         -5    1    4    4    0  502 -0.14777717977E+02 -0.91560665155E+01 -0.26561847957E+02  0.32091062144E+02  0.47000000000E+01 0. -1.
<mgrwt>
<rscale>  0 0.10004079E+04</rscale>
<asrwt>0</asrwt>
<pdfrwt beam="1">  1        2 0.90355682E-01 0.10004079E+04</pdfrwt>
<pdfrwt beam="2">  1       -2 0.65540848E-01 0.10004079E+04</pdfrwt>
<totfact> 0.13205461E+02</totfact>
</mgrwt>
</event>
<event>
 9    1  0.4246427E-036  0.9998781E+03  0.7818608E-02  0.8681154E-01
         -2   -1    0    0    0  501 -0.00000000000E+00  0.00000000000E+00  0.17566027967E+03  0.17566027967E+03  0.00000000000E+00 0.  1.
          2   -1    0    0  501    0  0.00000000000E+00 -0.00000000000E+00 -0.14228546596E+04  0.14228546596E+04  0.00000000000E+00 0.  1.
         36    2    1    2    0    0  0.00000000000E+00  0.00000000000E+00 -0.12471943800E+04  0.15985149393E+04  0.99987808746E+03 0.  0.
         25    2    3    3    0    0  0.11367937973E+03  0.73363878614E+02 -0.27340066075E+03  0.32942524257E+03  0.12436964695E+03 0.  0.
         35    2    3    3    0    0 -0.11367937973E+03 -0.73363878614E+02 -0.97379371922E+03  0.12690896967E+04  0.80250183223E+03 0.  0.
         22    1    5    5    0    0 -0.21833535660E+03 -0.63531166758E+02  0.55805529848E+02  0.23413840832E+03  0.00000000000E+00 0.  1.
         22    1    5    5    0    0  0.10465597687E+03 -0.98327118561E+01 -0.10295992491E+04  0.10349512884E+04  0.00000000000E+00 0.  1.
          5    1    4    4  502    0 -0.21936915130E+01  0.49592718701E+02 -0.15153617326E+03  0.15952915670E+03  0.47000000000E+01 0.  1.
         -5    1    4    4    0  502  0.11587307124E+03  0.23771159913E+02 -0.12186448749E+03  0.16989608587E+03  0.47000000000E+01 0.  1.
<mgrwt>
<rscale>  0 0.99987809E+03</rscale>
<asrwt>0</asrwt>
<pdfrwt beam="1">  1        2 0.21890071E+00 0.99987809E+03</pdfrwt>
<pdfrwt beam="2">  1       -2 0.27024659E-01 0.99987809E+03</pdfrwt>
<totfact> 0.20923193E+02</totfact>
</mgrwt>
</event>
<event>
 9    1  0.4246427E-036  0.1000251E+04  0.7818608E-02  0.8680799E-01
         -1   -1    0    0    0  501 -0.00000000000E+00  0.00000000000E+00  0.10257802593E+03  0.10257802593E+03  0.00000000000E+00 0.  1.
          1   -1    0    0  501    0  0.00000000000E+00 -0.00000000000E+00 -0.24383912165E+04  0.24383912165E+04  0.00000000000E+00 0.  1.
         36    2    1    2    0    0  0.21316282073E-13  0.00000000000E+00 -0.23358131906E+04  0.25409692424E+04  0.10002506834E+04 0.  0.
         25    2    3    3    0    0  0.12230843116E+00  0.13936475800E+03 -0.48180343735E+03  0.51759269827E+03  0.12784795003E+03 0.  0.
         35    2    3    3    0    0 -0.12230843116E+00 -0.13936475800E+03 -0.18540097532E+04  0.20233765442E+04  0.79829688943E+03 0.  0.
         22    1    5    5    0    0 -0.32969190607E+03  0.44884109254E+02 -0.13682798112E+04  0.14081551683E+04  0.00000000000E+00 0. -1.
         22    1    5    5    0    0  0.32956959764E+03 -0.18424886725E+03 -0.48572994204E+03  0.61522137590E+03  0.00000000000E+00 0. -1.
          5    1    4    4  502    0 -0.39430773130E+02  0.84336372730E+02 -0.40258616241E+03  0.41323736254E+03  0.47000000000E+01 0. -1.
         -5    1    4    4    0  502  0.39553081561E+02  0.55028385268E+02 -0.79217274940E+02  0.10435533573E+03  0.47000000000E+01 0. -1.
<mgrwt>
<rscale>  0 0.10002507E+04</rscale>
<asrwt>0</asrwt>
<pdfrwt beam="1">  1        1 0.37513713E+00 0.10002507E+04</pdfrwt>
<pdfrwt beam="2">  1       -1 0.15781234E-01 0.10002507E+04</pdfrwt>
<totfact> 0.46202804E+01</totfact>
</mgrwt>
</event>
<event>
 9    1  0.4246427E-036  0.9998650E+03  0.7818608E-02  0.8681167E-01
          2   -1    0    0  501    0  0.00000000000E+00  0.00000000000E+00  0.12394069940E+03  0.12394069940E+03  0.00000000000E+00 0.  1.
         -2   -1    0    0    0  501 -0.00000000000E+00 -0.00000000000E+00 -0.20165490612E+04  0.20165490612E+04  0.00000000000E+00 0.  1.
         36    2    1    2    0    0  0.00000000000E+00 -0.14210854715E-13 -0.18926083618E+04  0.21404897606E+04  0.99986499292E+03 0.  0.
         25    2    3    3    0    0  0.93288837882E+02 -0.45158364263E+02 -0.53947886277E+03  0.56531941250E+03  0.13344103433E+03 0.  0.
         35    2    3    3    0    0 -0.93288837882E+02  0.45158364263E+02 -0.13531294990E+04  0.15751703481E+04  0.79966249082E+03 0.  0.
         22    1    5    5    0    0 -0.51856121169E+02 -0.36903616973E+03 -0.80339389648E+03  0.88561758382E+03  0.00000000000E+00 0.  1.
         22    1    5    5    0    0 -0.41432716714E+02  0.41419453399E+03 -0.54973560252E+03  0.68955276425E+03  0.00000000000E+00 0.  1.
          5    1    4    4  502    0  0.16257419813E+01 -0.49073564044E+02 -0.62728320531E+02  0.79798433077E+02  0.47000000000E+01 0. -1.
         -5    1    4    4    0  502  0.91663095901E+02  0.39151997802E+01 -0.47675054224E+03  0.48552097943E+03  0.47000000000E+01 0. -1.
<mgrwt>
<rscale>  0 0.99986499E+03</rscale>
<asrwt>0</asrwt>
<pdfrwt beam="1">  1        2 0.19067799E-01 0.99986499E+03</pdfrwt>
<pdfrwt beam="2">  1       -2 0.31023832E+00 0.99986499E+03</pdfrwt>
<totfact> 0.92052815E+00</totfact>
</mgrwt>
</event>
<event>
 9    1  0.4246427E-036  0.9991647E+03  0.7818608E-02  0.8681834E-01
         -2   -1    0    0    0  501 -0.00000000000E+00  0.00000000000E+00  0.13445873397E+03  0.13445873397E+03  0.00000000000E+00 0.  1.
          2   -1    0    0  501    0  0.00000000000E+00 -0.00000000000E+00 -0.18562015805E+04  0.18562015805E+04  0.00000000000E+00 0.  1.
         36    2    1    2    0    0  0.14210854715E-13  0.28421709430E-13 -0.17217428465E+04  0.19906603145E+04  0.99916468013E+03 0.  0.
         25    2    3    3    0    0 -0.97158876947E+02  0.98815716918E+02 -0.35180085052E+03  0.39799961995E+03  0.12423954997E+03 0.  0.
         35    2    3    3    0    0  0.97158876947E+02 -0.98815716918E+02 -0.13699419960E+04  0.15926606945E+04  0.80038904424E+03 0.  0.
         22    1    5    5    0    0 -0.62393416862E+02  0.25103246532E+03 -0.12044380352E+03  0.28533655027E+03  0.00000000000E+00 0. -1.
         22    1    5    5    0    0  0.15955229381E+03 -0.34984818224E+03 -0.12494981925E+04  0.13073241443E+04  0.00000000000E+00 0. -1.
          5    1    4    4  502    0  0.12933936061E+01  0.80072593376E+01  0.90715917978E+01  0.13045031501E+02  0.47000000000E+01 0. -1.
         -5    1    4    4    0  502 -0.98452270553E+02  0.90808457580E+02 -0.36087244232E+03  0.38495458845E+03  0.47000000000E+01 0. -1.
<mgrwt>
<rscale>  0 0.99916468E+03</rscale>
<asrwt>0</asrwt>
<pdfrwt beam="1">  1        2 0.28556948E+00 0.99916468E+03</pdfrwt>
<pdfrwt beam="2">  1       -2 0.20685959E-01 0.99916468E+03</pdfrwt>
<totfact> 0.19078999E+02</totfact>
</mgrwt>
</event>
<event>
 9    1  0.4246427E-036  0.1000958E+04  0.7818608E-02  0.8680127E-01
          1   -1    0    0  501    0  0.00000000000E+00  0.00000000000E+00  0.17596636660E+04  0.17596636660E+04  0.00000000000E+00 0.  1.
         -1   -1    0    0    0  501 -0.00000000000E+00 -0.00000000000E+00 -0.14234480970E+03  0.14234480970E+03  0.00000000000E+00 0.  1.
         36    2    1    2    0    0  0.00000000000E+00 -0.71054273576E-14  0.16173188562E+04  0.19020084757E+04  0.10009575209E+04 0.  0.
         25    2    3    3    0    0  0.65825397249E+02 -0.35726544269E+02  0.52612690060E+03  0.54702448120E+03  0.12967998538E+03 0.  0.
         35    2    3    3    0    0 -0.65825397249E+02  0.35726544269E+02  0.10911919556E+04  0.13549839945E+04  0.79979520646E+03 0.  0.
         22    1    5    5    0    0 -0.24815326197E+03  0.21766083661E+02  0.11390438085E+04  0.11659650945E+04  0.00000000000E+00 0.  1.
         22    1    5    5    0    0  0.18232786472E+03  0.13960460608E+02 -0.47851852897E+02  0.18901889995E+03  0.00000000000E+00 0.  1.
          5    1    4    4  502    0 -0.30232494505E+02 -0.38244403597E+02  0.24627345312E+03  0.25109628002E+03  0.47000000000E+01 0. -1.
         -5    1    4    4    0  502  0.96057891754E+02  0.25178593278E+01  0.27985344748E+03  0.29592820118E+03  0.47000000000E+01 0. -1.
<mgrwt>
<rscale>  0 0.10009575E+04</rscale>
<asrwt>0</asrwt>
<pdfrwt beam="1">  1        1 0.27071747E+00 0.10009575E+04</pdfrwt>
<pdfrwt beam="2">  1       -1 0.21899203E-01 0.10009575E+04</pdfrwt>
<totfact> 0.80792312E+01</totfact>
</mgrwt>
</event>
<event>
 9    1  0.4246427E-036  0.1006192E+04  0.7818608E-02  0.8675164E-01
         -1   -1    0    0    0  501 -0.00000000000E+00  0.00000000000E+00  0.34656274015E+03  0.34656274015E+03  0.00000000000E+00 0. -1.
          1   -1    0    0  501    0  0.00000000000E+00 -0.00000000000E+00 -0.73033076208E+03  0.73033076208E+03  0.00000000000E+00 0. -1.
         36    2    1    2    0    0 -0.14210854715E-13  0.14210854715E-13 -0.38376802193E+03  0.10768935022E+04  0.10061916917E+04 0.  0.
         25    2    3    3    0    0 -0.10977540530E+03 -0.43592507872E+02 -0.16441906498E+03  0.23802629346E+03  0.12518762358E+03 0.  0.
         35    2    3    3    0    0  0.10977540530E+03  0.43592507872E+02 -0.21934895695E+03  0.83886720877E+03  0.80102015124E+03 0.  0.
         22    1    5    5    0    0 -0.36290333392E+02  0.32673487113E+03 -0.36269172842E+03  0.48950786937E+03  0.00000000000E+00 0.  1.
         22    1    5    5    0    0  0.14606573870E+03 -0.28314236326E+03  0.14334277147E+03  0.34935933940E+03  0.00000000000E+00 0.  1.
          5    1    4    4  502    0 -0.21231587286E+01 -0.59411850119E+02 -0.82259726502E+02  0.10160230481E+03  0.47000000000E+01 0. -1.
         -5    1    4    4    0  502 -0.10765224657E+03  0.15819342247E+02 -0.82159338477E+02  0.13642398866E+03  0.47000000000E+01 0. -1.
<mgrwt>
<rscale>  0 0.10061917E+04</rscale>
<asrwt>0</asrwt>
<pdfrwt beam="1">  1        1 0.11235858E+00 0.10061917E+04</pdfrwt>
<pdfrwt beam="2">  1       -1 0.53317345E-01 0.10061917E+04</pdfrwt>
<totfact> 0.10387706E+02</totfact>
</mgrwt>
</event>
<event>
 9    1  0.4246427E-036  0.9995195E+03  0.7818608E-02  0.8681496E-01
         -2   -1    0    0    0  501 -0.00000000000E+00  0.00000000000E+00  0.24826054125E+03  0.24826054125E+03  0.00000000000E+00 0.  1.
          2   -1    0    0  501    0  0.00000000000E+00 -0.00000000000E+00 -0.10060391294E+04  0.10060391294E+04  0.00000000000E+00 0.  1.
         36    2    1    2    0    0  0.00000000000E+00  0.28421709430E-13 -0.75777858816E+03  0.12542996707E+04  0.99951952214E+03 0.  0.
         25    2    3    3    0    0 -0.64485606332E+02 -0.11964839102E+03 -0.10118427461E+03  0.21056488101E+03  0.12500072315E+03 0.  0.
         35    2    3    3    0    0  0.64485606332E+02  0.11964839102E+03 -0.65659431355E+03  0.10437347897E+04  0.79987004422E+03 0.  0.
         22    1    5    5    0    0  0.20355498090E+03 -0.26662367336E+03 -0.50466951260E+03  0.60598195550E+03  0.00000000000E+00 0.  1.
         22    1    5    5    0    0 -0.13906937457E+03  0.38627206438E+03 -0.15192480095E+03  0.43775283415E+03  0.00000000000E+00 0.  1.
          5    1    4    4  502    0 -0.10949448651E+02 -0.83393486913E+02  0.69077148529E+01  0.84523195691E+02  0.47000000000E+01 0. -1.
         -5    1    4    4    0  502 -0.53536157681E+02 -0.36254904102E+02 -0.10809198947E+03  0.12604168532E+03  0.47000000000E+01 0. -1.
<mgrwt>
<rscale>  0 0.99951952E+03</rscale>
<asrwt>0</asrwt>
<pdfrwt beam="1">  1        2 0.15477526E+00 0.99951952E+03</pdfrwt>
<pdfrwt beam="2">  1       -2 0.38193928E-01 0.99951952E+03</pdfrwt>
<totfact> 0.19527872E+02</totfact>
</mgrwt>
</event>
<event>
 9    1  0.4246427E-036  0.1000433E+04  0.7818608E-02  0.8680626E-01
         -3   -1    0    0    0  501 -0.00000000000E+00  0.00000000000E+00  0.31047833751E+03  0.31047833751E+03  0.00000000000E+00 0. -1.
          3   -1    0    0  501    0  0.00000000000E+00 -0.00000000000E+00 -0.80590590617E+03  0.80590590617E+03  0.00000000000E+00 0. -1.
         36    2    1    2    0    0  0.28421709430E-13 -0.14210854715E-13 -0.49542756866E+03  0.11163842437E+04  0.10004325583E+04 0.  0.
         25    2    3    3    0    0  0.98804312923E+02 -0.57246993731E+02 -0.19104674266E+03  0.25437028076E+03  0.12314979217E+03 0.  0.
         35    2    3    3    0    0 -0.98804312923E+02  0.57246993731E+02 -0.30438082600E+03  0.86201396291E+03  0.79836136835E+03 0.  0.
         22    1    5    5    0    0 -0.27539644417E+03  0.31820171144E+03 -0.34519195173E+03  0.54429129532E+03  0.00000000000E+00 0.  1.
         22    1    5    5    0    0  0.17659213125E+03 -0.26095471771E+03  0.40811125732E+02  0.31772266758E+03  0.00000000000E+00 0.  1.
          5    1    4    4  502    0  0.46936960655E+02  0.11522869262E+02 -0.15220691690E+03  0.15976510991E+03  0.47000000000E+01 0.  1.
         -5    1    4    4    0  502  0.51867352268E+02 -0.68769862993E+02 -0.38839825759E+02  0.94605170854E+02  0.47000000000E+01 0.  1.
<mgrwt>
<rscale>  0 0.10004326E+04</rscale>
<asrwt>0</asrwt>
<pdfrwt beam="1">  1        3 0.12398552E+00 0.10004326E+04</pdfrwt>
<pdfrwt beam="2">  1       -3 0.47765898E-01 0.10004326E+04</pdfrwt>
<totfact> 0.95454325E+00</totfact>
</mgrwt>
</event>
<event>
 9    1  0.4246427E-036  0.9995732E+03  0.7818608E-02  0.8681445E-01
          2   -1    0    0  501    0  0.00000000000E+00  0.00000000000E+00  0.15010472891E+04  0.15010472891E+04  0.00000000000E+00 0. -1.
         -2   -1    0    0    0  501 -0.00000000000E+00 -0.00000000000E+00 -0.16640824365E+03  0.16640824365E+03  0.00000000000E+00 0. -1.
         36    2    1    2    0    0 -0.14210854715E-13  0.21316282073E-13  0.13346390454E+04  0.16674555327E+04  0.99957319495E+03 0.  0.
         25    2    3    3    0    0 -0.76188145221E+02 -0.50831711487E+02  0.74936286435E+02  0.17244536972E+03  0.12543309830E+03 0.  0.
         35    2    3    3    0    0  0.76188145221E+02  0.50831711487E+02  0.12597027590E+04  0.14950101630E+04  0.79988489805E+03 0.  0.
         22    1    5    5    0    0  0.15560843444E+03 -0.17208695017E+03  0.12355416926E+04  0.12571361014E+04  0.00000000000E+00 0. -1.
         22    1    5    5    0    0 -0.79420289215E+02  0.22291866166E+03  0.24161066381E+02  0.23787406160E+03  0.00000000000E+00 0. -1.
          5    1    4    4  502    0  0.27083718663E+02  0.80394123357E+01  0.38578455673E+02  0.48047343417E+02  0.47000000000E+01 0.  1.
         -5    1    4    4    0  502 -0.10327186388E+03 -0.58871123823E+02  0.36357830762E+02  0.12439802630E+03  0.47000000000E+01 0.  1.
<mgrwt>
<rscale>  0 0.99957319E+03</rscale>
<asrwt>0</asrwt>
<pdfrwt beam="1">  1        2 0.23093034E+00 0.99957319E+03</pdfrwt>
<pdfrwt beam="2">  1       -2 0.25601269E-01 0.99957319E+03</pdfrwt>
<totfact> 0.20807024E+02</totfact>
</mgrwt>
</event>
<event>
 9    1  0.4246427E-036  0.1000075E+04  0.7818608E-02  0.8680967E-01
          1   -1    0    0  501    0  0.00000000000E+00  0.00000000000E+00  0.36704452915E+03  0.36704452915E+03  0.00000000000E+00 0. -1.
         -1   -1    0    0    0  501 -0.00000000000E+00 -0.00000000000E+00 -0.68121804544E+03  0.68121804544E+03  0.00000000000E+00 0. -1.
         36    2    1    2    0    0 -0.21316282073E-13  0.28421709430E-13 -0.31417351630E+03  0.10482625746E+04  0.10000747107E+04 0.  0.
         25    2    3    3    0    0 -0.21611579868E+02 -0.11542467085E+03  0.22554528854E+02  0.17249395381E+03  0.12432032137E+03 0.  0.
         35    2    3    3    0    0  0.21611579868E+02  0.11542467085E+03 -0.33672804515E+03  0.87576862078E+03  0.79987185581E+03 0.  0.
         22    1    5    5    0    0  0.17701592515E+03 -0.30885145090E+03 -0.13137012820E+03  0.37944955800E+03  0.00000000000E+00 0. -1.
         22    1    5    5    0    0 -0.15540434528E+03  0.42427612175E+03 -0.20535791695E+03  0.49631906278E+03  0.00000000000E+00 0. -1.
          5    1    4    4  502    0  0.85159463782E+01  0.93769090266E+01  0.40573588377E+02  0.42763931524E+02  0.47000000000E+01 0.  1.
         -5    1    4    4    0  502 -0.30127526246E+02 -0.12480157988E+03 -0.18019059522E+02  0.12973002229E+03  0.47000000000E+01 0.  1.
<mgrwt>
<rscale>  0 0.10000747E+04</rscale>
<asrwt>0</asrwt>
<pdfrwt beam="1">  1        1 0.56468389E-01 0.10000747E+04</pdfrwt>
<pdfrwt beam="2">  1       -1 0.10480278E+00 0.10000747E+04</pdfrwt>
<totfact> 0.69059182E+01</totfact>
</mgrwt>
</event>
<event>
 9    1  0.4246427E-036  0.1000010E+04  0.7818608E-02  0.8681028E-01
         -2   -1    0    0    0  501 -0.00000000000E+00  0.00000000000E+00  0.10241000231E+04  0.10241000231E+04  0.00000000000E+00 0.  1.
          2   -1    0    0  501    0  0.00000000000E+00 -0.00000000000E+00 -0.24412163633E+03  0.24412163633E+03  0.00000000000E+00 0.  1.
         36    2    1    2    0    0 -0.28421709430E-13  0.14210854715E-13  0.77997838673E+03  0.12682216594E+04  0.10000099467E+04 0.  0.
         25    2    3    3    0    0  0.12516209258E+03 -0.63534484353E+02  0.14270877257E+03  0.23624793137E+03  0.12547952497E+03 0.  0.
         35    2    3    3    0    0 -0.12516209258E+03  0.63534484353E+02  0.63726961416E+03  0.10319737280E+04  0.79947172186E+03 0.  0.
         22    1    5    5    0    0 -0.44081350611E+03 -0.59188922899E+02  0.49264733744E+03  0.66371776746E+03  0.00000000000E+00 0. -1.
         22    1    5    5    0    0  0.31565141354E+03  0.12272340725E+03  0.14462227673E+03  0.36825596055E+03  0.00000000000E+00 0. -1.
          5    1    4    4  502    0  0.67810437392E+02 -0.32431167247E+02 -0.42042597696E+01  0.75430775076E+02  0.47000000000E+01 0. -1.
         -5    1    4    4    0  502  0.57351655184E+02 -0.31103317106E+02  0.14691303234E+03  0.16081715629E+03  0.47000000000E+01 0. -1.
<mgrwt>
<rscale>  0 0.10000099E+04</rscale>
<asrwt>0</asrwt>
<pdfrwt beam="1">  1        2 0.37557175E-01 0.10000099E+04</pdfrwt>
<pdfrwt beam="2">  1       -2 0.15755385E+00 0.10000099E+04</pdfrwt>
<totfact> 0.40821216E+01</totfact>
</mgrwt>
</event>
<event>
 9    1  0.4246427E-036  0.9998832E+03  0.7818608E-02  0.8681149E-01
         -2   -1    0    0    0  501 -0.00000000000E+00  0.00000000000E+00  0.90790939507E+02  0.90790939507E+02  0.00000000000E+00 0. -1.
          2   -1    0    0  501    0  0.00000000000E+00 -0.00000000000E+00 -0.27529352756E+04  0.27529352756E+04  0.00000000000E+00 0. -1.
         36    2    1    2    0    0 -0.14210854715E-13 -0.14210854715E-13 -0.26621443361E+04  0.28437262151E+04  0.99988315332E+03 0.  0.
         25    2    3    3    0    0 -0.10409516670E+03 -0.43850630887E+02 -0.73140424238E+03  0.75049779730E+03  0.12464387841E+03 0.  0.
         35    2    3    3    0    0  0.10409516670E+03  0.43850630887E+02 -0.19307400937E+04  0.20932284178E+04  0.80068047189E+03 0.  0.
         22    1    5    5    0    0 -0.22707060117E+02 -0.23290405416E+02  0.75320059509E+02  0.82043676954E+02  0.00000000000E+00 0. -1.
         22    1    5    5    0    0  0.12680222682E+03  0.67141036302E+02 -0.20060601532E+04  0.20111847409E+04  0.00000000000E+00 0. -1.
          5    1    4    4  502    0 -0.19714120683E+02 -0.72600652375E+02 -0.25954609145E+03  0.27026980014E+03  0.47000000000E+01 0. -1.
         -5    1    4    4    0  502 -0.84381046016E+02  0.28750021489E+02 -0.47185815092E+03  0.48022799716E+03  0.47000000000E+01 0. -1.
<mgrwt>
<rscale>  0 0.99988315E+03</rscale>
<asrwt>0</asrwt>
<pdfrwt beam="1">  1        2 0.42352853E+00 0.99988315E+03</pdfrwt>
<pdfrwt beam="2">  1       -2 0.13967836E-01 0.99988315E+03</pdfrwt>
<totfact> 0.10919958E+02</totfact>
</mgrwt>
</event>
<event>
 9    1  0.4246427E-036  0.9996719E+03  0.7818608E-02  0.8681350E-01
          2   -1    0    0  501    0  0.00000000000E+00  0.00000000000E+00  0.16004772415E+04  0.16004772415E+04  0.00000000000E+00 0.  1.
         -2   -1    0    0    0  501 -0.00000000000E+00 -0.00000000000E+00 -0.15610092467E+03  0.15610092467E+03  0.00000000000E+00 0.  1.
         36    2    1    2    0    0  0.71054273576E-14  0.00000000000E+00  0.14443763168E+04  0.17565781662E+04  0.99967190081E+03 0.  0.
         25    2    3    3    0    0 -0.36879488905E+02  0.13270123071E+03  0.23129880707E+03  0.29677708140E+03  0.12493111925E+03 0.  0.
         35    2    3    3    0    0  0.36879488905E+02 -0.13270123071E+03  0.12130775097E+04  0.14598010848E+04  0.80030772150E+03 0.  0.
         22    1    5    5    0    0 -0.13104026615E+03 -0.40547482634E+03  0.39416515598E+03  0.58047183940E+03  0.00000000000E+00 0.  1.
         22    1    5    5    0    0  0.16791975505E+03  0.27277359562E+03  0.81891235376E+03  0.87932924536E+03  0.00000000000E+00 0.  1.
          5    1    4    4  502    0 -0.43749288951E+01 -0.20209086487E+02  0.51583237191E+01  0.21823049353E+02  0.47000000000E+01 0.  1.
         -5    1    4    4    0  502 -0.32504560010E+02  0.15291031720E+03  0.22614048335E+03  0.27495403205E+03  0.47000000000E+01 0.  1.
<mgrwt>
<rscale>  0 0.99967190E+03</rscale>
<asrwt>0</asrwt>
<pdfrwt beam="1">  1        2 0.24622726E+00 0.99967190E+03</pdfrwt>
<pdfrwt beam="2">  1       -2 0.24015528E-01 0.99967190E+03</pdfrwt>
<totfact> 0.20476289E+02</totfact>
</mgrwt>
</event>
<event>
 9    1  0.4246427E-036  0.9975087E+03  0.7818608E-02  0.8683414E-01
          2   -1    0    0  501    0  0.00000000000E+00  0.00000000000E+00  0.20670721988E+04  0.20670721988E+04  0.00000000000E+00 0. -1.
         -2   -1    0    0    0  501 -0.00000000000E+00 -0.00000000000E+00 -0.12034215389E+03  0.12034215389E+03  0.00000000000E+00 0. -1.
         36    2    1    2    0    0  0.00000000000E+00  0.28421709430E-13  0.19467300450E+04  0.21874143527E+04  0.99750873810E+03 0.  0.
         25    2    3    3    0    0  0.45797994871E+00  0.12844800374E+03  0.46743747404E+03  0.50077481008E+03  0.12561257446E+03 0.  0.
         35    2    3    3    0    0 -0.45797994871E+00 -0.12844800374E+03  0.14792925709E+04  0.16866395427E+04  0.79996708498E+03 0.  0.
         22    1    5    5    0    0  0.30931333321E+02 -0.21738360434E+03  0.15832061326E+02  0.22014321017E+03  0.00000000000E+00 0. -1.
         22    1    5    5    0    0 -0.31389313270E+02  0.88935600606E+02  0.14634605096E+04  0.14664963325E+04  0.00000000000E+00 0. -1.
          5    1    4    4  502    0 -0.23036948200E+02  0.13611199658E+03  0.44849701531E+03  0.46928545613E+03  0.47000000000E+01 0.  1.
         -5    1    4    4    0  502  0.23494928149E+02 -0.76639928465E+01  0.18940458732E+02  0.31489353948E+02  0.47000000000E+01 0.  1.
<mgrwt>
<rscale>  0 0.99750874E+03</rscale>
<asrwt>0</asrwt>
<pdfrwt beam="1">  1        2 0.31801108E+00 0.99750874E+03</pdfrwt>
<pdfrwt beam="2">  1       -2 0.18514179E-01 0.99750874E+03</pdfrwt>
<totfact> 0.17530858E+02</totfact>
</mgrwt>
</event>
<event>
 9    1  0.4246427E-036  0.9997108E+03  0.7818608E-02  0.8681313E-01
         -2   -1    0    0    0  501 -0.00000000000E+00  0.00000000000E+00  0.17391007597E+03  0.17391007597E+03  0.00000000000E+00 0.  1.
          2   -1    0    0  501    0  0.00000000000E+00 -0.00000000000E+00 -0.14366930756E+04  0.14366930756E+04  0.00000000000E+00 0.  1.
         36    2    1    2    0    0  0.00000000000E+00  0.00000000000E+00 -0.12627829996E+04  0.16106031515E+04  0.99971076201E+03 0.  0.
         25    2    3    3    0    0  0.72112978247E+02 -0.33188431646E+02 -0.42568084211E+03  0.45065346601E+03  0.12483033870E+03 0.  0.
         35    2    3    3    0    0 -0.72112978247E+02  0.33188431646E+02 -0.83710215750E+03  0.11599496855E+04  0.79902534206E+03 0.  0.
         22    1    5    5    0    0 -0.91046800378E+02  0.26292961467E+03 -0.88221748529E+03  0.92505631909E+03  0.00000000000E+00 0. -1.
         22    1    5    5    0    0  0.18933822132E+02 -0.22974118303E+03  0.45115327796E+02  0.23489336645E+03  0.00000000000E+00 0. -1.
          5    1    4    4  502    0  0.54585704568E+02  0.11651799394E+02 -0.38004659472E+03  0.38415214138E+03  0.47000000000E+01 0.  1.
         -5    1    4    4    0  502  0.17527273679E+02 -0.44840231040E+02 -0.45634247395E+02  0.66501324631E+02  0.47000000000E+01 0.  1.
<mgrwt>
<rscale>  0 0.99971076E+03</rscale>
<asrwt>0</asrwt>
<pdfrwt beam="1">  1        2 0.22102970E+00 0.99971076E+03</pdfrwt>
<pdfrwt beam="2">  1       -2 0.26755396E-01 0.99971076E+03</pdfrwt>
<totfact> 0.20918892E+02</totfact>
</mgrwt>
</event>
<event>
 9    1  0.4246427E-036  0.1001077E+04  0.7818608E-02  0.8680013E-01
         -2   -1    0    0    0  501 -0.00000000000E+00  0.00000000000E+00  0.32940608016E+03  0.32940608016E+03  0.00000000000E+00 0. -1.
          2   -1    0    0  501    0  0.00000000000E+00 -0.00000000000E+00 -0.76057796284E+03  0.76057796284E+03  0.00000000000E+00 0. -1.
         36    2    1    2    0    0 -0.28421709430E-13  0.28421709430E-13 -0.43117188268E+03  0.10899840430E+04  0.10010774304E+04 0.  0.
         25    2    3    3    0    0  0.13334722336E+03 -0.43804095527E+02 -0.93602874350E+02  0.21007048852E+03  0.12517120795E+03 0.  0.
         35    2    3    3    0    0 -0.13334722336E+03  0.43804095527E+02 -0.33756900833E+03  0.87991355447E+03  0.80037163068E+03 0.  0.
         22    1    5    5    0    0 -0.41609328987E+03 -0.17576725644E+03 -0.15128358807E+03  0.47635541178E+03  0.00000000000E+00 0.  1.
         22    1    5    5    0    0  0.28274606651E+03  0.21957135197E+03 -0.18628542026E+03  0.40355814269E+03  0.00000000000E+00 0.  1.
          5    1    4    4  502    0  0.32334249546E+02 -0.74743798112E+02 -0.31570671568E+02  0.87469631034E+02  0.47000000000E+01 0.  1.
         -5    1    4    4    0  502  0.10101297382E+03  0.30939702585E+02 -0.62032202782E+02  0.12260085749E+03  0.47000000000E+01 0.  1.
<mgrwt>
<rscale>  0 0.10010774E+04</rscale>
<asrwt>0</asrwt>
<pdfrwt beam="1">  1        2 0.11701199E+00 0.10010774E+04</pdfrwt>
<pdfrwt beam="2">  1       -2 0.50677858E-01 0.10010774E+04</pdfrwt>
<totfact> 0.16408842E+02</totfact>
</mgrwt>
</event>
<event>
 9    1  0.4246427E-036  0.1000705E+04  0.7818608E-02  0.8680366E-01
         -2   -1    0    0    0  501 -0.00000000000E+00  0.00000000000E+00  0.95066758176E+02  0.95066758176E+02  0.00000000000E+00 0.  1.
          2   -1    0    0  501    0  0.00000000000E+00 -0.00000000000E+00 -0.26334427041E+04  0.26334427041E+04  0.00000000000E+00 0.  1.
         36    2    1    2    0    0  0.00000000000E+00  0.00000000000E+00 -0.25383759459E+04  0.27285094623E+04  0.10007054726E+04 0.  0.
         25    2    3    3    0    0 -0.54818907509E+02 -0.60998556540E+02 -0.76587458637E+03  0.78200426835E+03  0.13505871741E+03 0.  0.
         35    2    3    3    0    0  0.54818907509E+02  0.60998556540E+02 -0.17725013595E+04  0.19465051939E+04  0.80024712673E+03 0.  0.
         22    1    5    5    0    0  0.42384162665E+03  0.79479722953E+02 -0.86069558997E+03  0.96268148909E+03  0.00000000000E+00 0.  1.
         22    1    5    5    0    0 -0.36902271914E+03 -0.18481166413E+02 -0.91180576958E+03  0.98382370483E+03  0.00000000000E+00 0.  1.
          5    1    4    4  502    0  0.44636790239E+01  0.31151260952E+02 -0.62525322578E+02  0.70155765642E+02  0.47000000000E+01 0. -1.
         -5    1    4    4    0  502 -0.59282586533E+02 -0.92149817492E+02 -0.70334926379E+03  0.71184850271E+03  0.47000000000E+01 0. -1.
<mgrwt>
<rscale>  0 0.10007055E+04</rscale>
<asrwt>0</asrwt>
<pdfrwt beam="1">  1        2 0.40514495E+00 0.10007055E+04</pdfrwt>
<pdfrwt beam="2">  1       -2 0.14625658E-01 0.10007055E+04</pdfrwt>
<totfact> 0.12023919E+02</totfact>
</mgrwt>
</event>
<event>
 9    1  0.4246427E-036  0.1000318E+04  0.7818608E-02  0.8680735E-01
         -2   -1    0    0    0  501 -0.00000000000E+00  0.00000000000E+00  0.20799660547E+03  0.20799660547E+03  0.00000000000E+00 0. -1.
          2   -1    0    0  501    0  0.00000000000E+00 -0.00000000000E+00 -0.12027071350E+04  0.12027071350E+04  0.00000000000E+00 0. -1.
         36    2    1    2    0    0  0.00000000000E+00 -0.14210854715E-13 -0.99471052957E+03  0.14107037405E+04  0.10003179524E+04 0.  0.
         25    2    3    3    0    0  0.27431815154E+02 -0.88172596491E+02 -0.33324261267E+03  0.36813979049E+03  0.12629075656E+03 0.  0.
         35    2    3    3    0    0 -0.27431815154E+02  0.88172596491E+02 -0.66146791690E+03  0.10425639500E+04  0.80054536007E+03 0.  0.
         22    1    5    5    0    0 -0.20724721382E+03 -0.32765958749E+02 -0.77150298928E+03  0.79952603345E+03  0.00000000000E+00 0.  1.
         22    1    5    5    0    0  0.17981539866E+03  0.12093855524E+03  0.11003507238E+03  0.24303791657E+03  0.00000000000E+00 0.  1.
          5    1    4    4  502    0  0.71711303825E+02 -0.44306269880E+02 -0.25114328830E+03  0.26495395432E+03  0.47000000000E+01 0.  1.
         -5    1    4    4    0  502 -0.44279488670E+02 -0.43866326611E+02 -0.82099324363E+02  0.10318583618E+03  0.47000000000E+01 0.  1.
<mgrwt>
<rscale>  0 0.10003180E+04</rscale>
<asrwt>0</asrwt>
<pdfrwt beam="1">  1        2 0.18503187E+00 0.10003180E+04</pdfrwt>
<pdfrwt beam="2">  1       -2 0.31999478E-01 0.10003180E+04</pdfrwt>
<totfact> 0.20643225E+02</totfact>
</mgrwt>
</event>
<event>
 9    1  0.4246427E-036  0.1010809E+04  0.7818608E-02  0.8670812E-01
         -2   -1    0    0    0  501 -0.00000000000E+00  0.00000000000E+00  0.33649431613E+03  0.33649431613E+03  0.00000000000E+00 0.  1.
          2   -1    0    0  501    0  0.00000000000E+00 -0.00000000000E+00 -0.75910314105E+03  0.75910314105E+03  0.00000000000E+00 0.  1.
         36    2    1    2    0    0  0.71054273576E-14 -0.35527136788E-14 -0.42260882493E+03  0.10955974572E+04  0.10108093635E+04 0.  0.
         25    2    3    3    0    0 -0.50113601465E+02 -0.18036836385E+02 -0.23660344677E+03  0.27276905056E+03  0.12484015141E+03 0.  0.
         35    2    3    3    0    0  0.50113601465E+02  0.18036836385E+02 -0.18600537816E+03  0.82282840662E+03  0.79975739166E+03 0.  0.
         22    1    5    5    0    0  0.24207689420E+03 -0.19426053846E+02  0.24780468746E+03  0.34696650761E+03  0.00000000000E+00 0.  1.
         22    1    5    5    0    0 -0.19196329274E+03  0.37462890232E+02 -0.43381006561E+03  0.47586189901E+03  0.00000000000E+00 0.  1.
          5    1    4    4  502    0 -0.62272847215E+01 -0.26278493968E+02  0.42732980405E+01  0.27743276597E+02  0.47000000000E+01 0.  1.
         -5    1    4    4    0  502 -0.43886316743E+02  0.82416575822E+01 -0.24087674481E+03  0.24502577397E+03  0.47000000000E+01 0.  1.
<mgrwt>
<rscale>  0 0.10108094E+04</rscale>
<asrwt>0</asrwt>
<pdfrwt beam="1">  1        2 0.11678510E+00 0.10108094E+04</pdfrwt>
<pdfrwt beam="2">  1       -2 0.51768357E-01 0.10108094E+04</pdfrwt>
<totfact> 0.15755529E+02</totfact>
</mgrwt>
</event>
<event>
 9    1  0.4246427E-036  0.1003027E+04  0.7818608E-02  0.8678160E-01
          1   -1    0    0  501    0  0.00000000000E+00  0.00000000000E+00  0.11557570725E+04  0.11557570725E+04  0.00000000000E+00 0. -1.
         -1   -1    0    0    0  501 -0.00000000000E+00 -0.00000000000E+00 -0.21762005897E+03  0.21762005897E+03  0.00000000000E+00 0. -1.
         36    2    1    2    0    0 -0.28421709430E-13 -0.35527136788E-13  0.93813701355E+03  0.13733771315E+04  0.10030272624E+04 0.  0.
         25    2    3    3    0    0  0.11792732723E+03 -0.25382297623E+02  0.28455473549E+03  0.33372081194E+03  0.12588513531E+03 0.  0.
         35    2    3    3    0    0 -0.11792732723E+03  0.25382297623E+02  0.65358227806E+03  0.10396563195E+04  0.79947755005E+03 0.  0.
         22    1    5    5    0    0 -0.24114941877E+03 -0.29856770395E+03  0.11765552879E+03  0.40142065152E+03  0.00000000000E+00 0. -1.
         22    1    5    5    0    0  0.12322209153E+03  0.32395000157E+03  0.53592674927E+03  0.63823566803E+03  0.00000000000E+00 0. -1.
          5    1    4    4  502    0  0.27133241583E+02  0.48199601259E+02  0.69813566971E+02  0.89193264845E+02  0.47000000000E+01 0. -1.
         -5    1    4    4    0  502  0.90794085651E+02 -0.73581898883E+02  0.21474116852E+03  0.24452754710E+03  0.47000000000E+01 0. -1.
<mgrwt>
<rscale>  0 0.10030273E+04</rscale>
<asrwt>0</asrwt>
<pdfrwt beam="1">  1        1 0.17780878E+00 0.10030273E+04</pdfrwt>
<pdfrwt beam="2">  1       -1 0.33480010E-01 0.10030273E+04</pdfrwt>
<totfact> 0.10704024E+02</totfact>
</mgrwt>
</event>
<event>
 9    1  0.4246427E-036  0.1000724E+04  0.7818608E-02  0.8680349E-01
          1   -1    0    0  501    0  0.00000000000E+00  0.00000000000E+00  0.31627363674E+03  0.31627363674E+03  0.00000000000E+00 0.  1.
         -1   -1    0    0    0  501 -0.00000000000E+00 -0.00000000000E+00 -0.79159992426E+03  0.79159992426E+03  0.00000000000E+00 0.  1.
         36    2    1    2    0    0 -0.71054273576E-14 -0.14210854715E-13 -0.47532628753E+03  0.11078735610E+04  0.10007241116E+04 0.  0.
         25    2    3    3    0    0 -0.58959961279E+02 -0.33754262439E+02 -0.22614415341E+03  0.26715333228E+03  0.12495638263E+03 0.  0.
         35    2    3    3    0    0  0.58959961279E+02  0.33754262439E+02 -0.24918213412E+03  0.84072022873E+03  0.80006445975E+03 0.  0.
         22    1    5    5    0    0  0.12346553312E+03 -0.13177551083E+03  0.25140893706E+03  0.30953994372E+03  0.00000000000E+00 0.  1.
         22    1    5    5    0    0 -0.64505571840E+02  0.16552977327E+03 -0.50059107118E+03  0.53118028501E+03  0.00000000000E+00 0.  1.
          5    1    4    4  502    0  0.37920154919E+01 -0.25124393894E+02 -0.19446609283E+03  0.19617534455E+03  0.47000000000E+01 0. -1.
         -5    1    4    4    0  502 -0.62751976771E+02 -0.86298685448E+01 -0.31678060579E+02  0.70977987727E+02  0.47000000000E+01 0. -1.
<mgrwt>
<rscale>  0 0.10007241E+04</rscale>
<asrwt>0</asrwt>
<pdfrwt beam="1">  1        1 0.48657483E-01 0.10007241E+04</pdfrwt>
<pdfrwt beam="2">  1       -1 0.12178460E+00 0.10007241E+04</pdfrwt>
<totfact> 0.58683989E+01</totfact>
</mgrwt>
</event>
<event>
 9    1  0.4246427E-036  0.1000387E+04  0.7818608E-02  0.8680669E-01
          2   -1    0    0  501    0  0.00000000000E+00  0.00000000000E+00  0.28393973870E+04  0.28393973870E+04  0.00000000000E+00 0. -1.
         -2   -1    0    0    0  501 -0.00000000000E+00 -0.00000000000E+00 -0.88115069143E+02  0.88115069143E+02  0.00000000000E+00 0. -1.
         36    2    1    2    0    0 -0.14210854715E-13 -0.28421709430E-13  0.27512823179E+04  0.29275124561E+04  0.10003873192E+04 0.  0.
         25    2    3    3    0    0 -0.98337478478E+02  0.55008461114E+02  0.26822536731E+03  0.31630272702E+03  0.12412242739E+03 0.  0.
         35    2    3    3    0    0  0.98337478478E+02 -0.55008461114E+02  0.24830569505E+04  0.26112097291E+04  0.80009264424E+03 0.  0.
         22    1    5    5    0    0 -0.16210866745E+03  0.28195052345E+03  0.62032463553E+03  0.70041271489E+03  0.00000000000E+00 0. -1.
         22    1    5    5    0    0  0.26044614593E+03 -0.33695898456E+03  0.18627323150E+04  0.19107970142E+04  0.00000000000E+00 0. -1.
          5    1    4    4  502    0 -0.11503962475E+03  0.32832769124E+02  0.13634541461E+03  0.18145045626E+03  0.47000000000E+01 0. -1.
         -5    1    4    4    0  502  0.16702146269E+02  0.22175691990E+02  0.13187995270E+03  0.13485227076E+03  0.47000000000E+01 0. -1.
<mgrwt>
<rscale>  0 0.10003873E+04</rscale>
<asrwt>0</asrwt>
<pdfrwt beam="1">  1        2 0.43683030E+00 0.10003873E+04</pdfrwt>
<pdfrwt beam="2">  1       -2 0.13556167E-01 0.10003873E+04</pdfrwt>
<totfact> 0.10101855E+02</totfact>
</mgrwt>
</event>
<event>
 9    1  0.4246427E-036  0.1000092E+04  0.7818608E-02  0.8680951E-01
          1   -1    0    0  501    0  0.00000000000E+00  0.00000000000E+00  0.52075675136E+03  0.52075675136E+03  0.00000000000E+00 0. -1.
         -1   -1    0    0    0  501 -0.00000000000E+00 -0.00000000000E+00 -0.48015858564E+03  0.48015858564E+03  0.00000000000E+00 0. -1.
         36    2    1    2    0    0 -0.28421709430E-13  0.00000000000E+00  0.40598165721E+02  0.10009153370E+04  0.10000916462E+04 0.  0.
         25    2    3    3    0    0 -0.10039616698E+03  0.35245568723E+02 -0.85818013857E+02  0.18512164986E+03  0.12483450359E+03 0.  0.
         35    2    3    3    0    0  0.10039616698E+03 -0.35245568723E+02  0.12641617958E+03  0.81579368713E+03  0.79888462812E+03 0.  0.
         22    1    5    5    0    0  0.44963210652E+03 -0.12831938900E+02  0.12096688619E+03  0.46579681990E+03  0.00000000000E+00 0. -1.
         22    1    5    5    0    0 -0.34923593955E+03 -0.22413629823E+02  0.54492933840E+01  0.34999686723E+03  0.00000000000E+00 0. -1.
          5    1    4    4  502    0 -0.12455689785E+03  0.65888346788E+01 -0.55134153664E+02  0.13645401586E+03  0.47000000000E+01 0.  1.
         -5    1    4    4    0  502  0.24160730877E+02  0.28656734044E+02 -0.30683860193E+02  0.48667633998E+02  0.47000000000E+01 0.  1.
<mgrwt>
<rscale>  0 0.10000916E+04</rscale>
<asrwt>0</asrwt>
<pdfrwt beam="1">  1        1 0.80116423E-01 0.10000916E+04</pdfrwt>
<pdfrwt beam="2">  1       -1 0.73870552E-01 0.10000916E+04</pdfrwt>
<totfact> 0.90986485E+01</totfact>
</mgrwt>
</event>
<event>
 9    1  0.4246427E-036  0.1000113E+04  0.7818608E-02  0.8680930E-01
          1   -1    0    0  501    0  0.00000000000E+00  0.00000000000E+00  0.13163023073E+04  0.13163023073E+04  0.00000000000E+00 0.  1.
         -1   -1    0    0    0  501 -0.00000000000E+00 -0.00000000000E+00 -0.18996896729E+03  0.18996896729E+03  0.00000000000E+00 0.  1.
         36    2    1    2    0    0 -0.14210854715E-13  0.14210854715E-13  0.11263333400E+04  0.15062712746E+04  0.10001131735E+04 0.  0.
         25    2    3    3    0    0  0.50651008198E+02 -0.11141168743E+03  0.33978375072E+03  0.38174914245E+03  0.12369851164E+03 0.  0.
         35    2    3    3    0    0 -0.50651008198E+02  0.11141168743E+03  0.78654958933E+03  0.11245221322E+04  0.79429949047E+03 0.  0.
         22    1    5    5    0    0  0.22701429730E+03  0.25975227530E+03  0.72621414903E+03  0.80398614786E+03  0.00000000000E+00 0. -1.
         22    1    5    5    0    0 -0.27766530550E+03 -0.14834058787E+03  0.60335440292E+02  0.32053598432E+03  0.00000000000E+00 0. -1.
          5    1    4    4  502    0  0.48415023397E+02 -0.14139872554E+02  0.22762979996E+03  0.23319812674E+03  0.47000000000E+01 0.  1.
         -5    1    4    4    0  502  0.22359848008E+01 -0.97271814875E+02  0.11215395076E+03  0.14855101571E+03  0.47000000000E+01 0.  1.
<mgrwt>
<rscale>  0 0.10001132E+04</rscale>
<asrwt>0</asrwt>
<pdfrwt beam="1">  1        1 0.20250804E+00 0.10001132E+04</pdfrwt>
<pdfrwt beam="2">  1       -1 0.29225996E-01 0.10001132E+04</pdfrwt>
<totfact> 0.10284768E+02</totfact>
</mgrwt>
</event>
<event>
 9    1  0.4246427E-036  0.9999458E+03  0.7818608E-02  0.8681090E-01
          1   -1    0    0  501    0  0.00000000000E+00  0.00000000000E+00  0.22310574835E+03  0.22310574835E+03  0.00000000000E+00 0.  1.
         -1   -1    0    0    0  501 -0.00000000000E+00 -0.00000000000E+00 -0.11204234104E+04  0.11204234104E+04  0.00000000000E+00 0.  1.
         36    2    1    2    0    0 -0.28421709430E-13 -0.71054273576E-14 -0.89731766206E+03  0.13435291588E+04  0.99994580543E+03 0.  0.
         25    2    3    3    0    0 -0.86781336537E+02 -0.24511586285E+02 -0.23420997291E+02  0.15535094390E+03  0.12431232612E+03 0.  0.
         35    2    3    3    0    0  0.86781336537E+02  0.24511586285E+02 -0.87389666476E+03  0.11881782149E+04  0.79996266872E+03 0.  0.
         22    1    5    5    0    0 -0.32601792789E+03  0.81555803951E+02 -0.60548034740E+03  0.69249223068E+03  0.00000000000E+00 0. -1.
         22    1    5    5    0    0  0.41279926443E+03 -0.57044217666E+02 -0.26841631736E+03  0.49568598417E+03  0.00000000000E+00 0. -1.
          5    1    4    4  502    0 -0.78864267605E+02  0.24900255043E+02 -0.51733614707E+02  0.97662952529E+02  0.47000000000E+01 0.  1.
         -5    1    4    4    0  502 -0.79170689321E+01 -0.49411841328E+02  0.28312617416E+02  0.57687991375E+02  0.47000000000E+01 0.  1.
<mgrwt>
<rscale>  0 0.99994581E+03</rscale>
<asrwt>0</asrwt>
<pdfrwt beam="1">  1        1 0.34323961E-01 0.99994581E+03</pdfrwt>
<pdfrwt beam="2">  1       -1 0.17237283E+00 0.99994581E+03</pdfrwt>
<totfact> 0.34330173E+01</totfact>
</mgrwt>
</event>
<event>
 9    1  0.4246427E-036  0.1000841E+04  0.7818608E-02  0.8680238E-01
         -1   -1    0    0    0  501 -0.00000000000E+00  0.00000000000E+00  0.87621625353E+03  0.87621625353E+03  0.00000000000E+00 0. -1.
          1   -1    0    0  501    0  0.00000000000E+00 -0.00000000000E+00 -0.28579762098E+03  0.28579762098E+03  0.00000000000E+00 0. -1.
         36    2    1    2    0    0 -0.28421709430E-13  0.00000000000E+00  0.59041863256E+03  0.11620138745E+04  0.10008406881E+04 0.  0.
         25    2    3    3    0    0  0.84153271537E+02  0.97913859389E+02  0.45788670143E+02  0.18516981295E+03  0.12458876491E+03 0.  0.
         35    2    3    3    0    0 -0.84153271537E+02 -0.97913859389E+02  0.54462996241E+03  0.97684406156E+03  0.80058330464E+03 0.  0.
         22    1    5    5    0    0  0.26799254936E+03  0.75270862004E+02  0.51235716961E+03  0.58309139801E+03  0.00000000000E+00 0.  1.
         22    1    5    5    0    0 -0.35214582090E+03 -0.17318472139E+03  0.32272792806E+02  0.39375266355E+03  0.00000000000E+00 0.  1.
          5    1    4    4  502    0  0.23970174627E+02 -0.12625590579E+02  0.52262911053E+02  0.59054861619E+02  0.47000000000E+01 0.  1.
         -5    1    4    4    0  502  0.60183096911E+02  0.11053944997E+03 -0.64742409105E+01  0.12611495133E+03  0.47000000000E+01 0.  1.
<mgrwt>
<rscale>  0 0.10008407E+04</rscale>
<asrwt>0</asrwt>
<pdfrwt beam="1">  1        1 0.43968865E-01 0.10008407E+04</pdfrwt>
<pdfrwt beam="2">  1       -1 0.13480250E+00 0.10008407E+04</pdfrwt>
<totfact> 0.51544321E+01</totfact>
</mgrwt>
</event>
<event>
 9    1  0.4246427E-036  0.9996817E+03  0.7818608E-02  0.8681341E-01
         -2   -1    0    0    0  501 -0.00000000000E+00  0.00000000000E+00  0.32237968498E+03  0.32237968498E+03  0.00000000000E+00 0.  1.
          2   -1    0    0  501    0  0.00000000000E+00 -0.00000000000E+00 -0.77498957990E+03  0.77498957990E+03  0.00000000000E+00 0.  1.
         36    2    1    2    0    0 -0.14210854715E-13 -0.28421709430E-13 -0.45260989492E+03  0.10973692649E+04  0.99968174262E+03 0.  0.
         25    2    3    3    0    0 -0.45541338808E+02 -0.13869327983E+03 -0.10310619513E+03  0.21762956947E+03  0.12418495329E+03 0.  0.
         35    2    3    3    0    0  0.45541338808E+02  0.13869327983E+03 -0.34950369979E+03  0.87973969541E+03  0.79402723889E+03 0.  0.
         22    1    5    5    0    0 -0.98632111705E+02 -0.35705391009E+02  0.23262427543E+03  0.25518076324E+03  0.00000000000E+00 0. -1.
         22    1    5    5    0    0  0.14417345051E+03  0.17439867084E+03 -0.58212797522E+03  0.62455893217E+03  0.00000000000E+00 0. -1.
          5    1    4    4  502    0 -0.71727853112E+02 -0.45629691073E+02 -0.82732161438E+02  0.11871669704E+03  0.47000000000E+01 0.  1.
         -5    1    4    4    0  502  0.26186514303E+02 -0.93063588760E+02 -0.20374033690E+02  0.98912872433E+02  0.47000000000E+01 0.  1.
<mgrwt>
<rscale>  0 0.99968174E+03</rscale>
<asrwt>0</asrwt>
<pdfrwt beam="1">  1        2 0.11922917E+00 0.99968174E+03</pdfrwt>
<pdfrwt beam="2">  1       -2 0.49596874E-01 0.99968174E+03</pdfrwt>
<totfact> 0.16729516E+02</totfact>
</mgrwt>
</event>
<event>
 9    1  0.4246427E-036  0.9996328E+03  0.7818608E-02  0.8681388E-01
         -1   -1    0    0    0  501 -0.00000000000E+00  0.00000000000E+00  0.50994673604E+03  0.50994673604E+03  0.00000000000E+00 0.  1.
          1   -1    0    0  501    0  0.00000000000E+00 -0.00000000000E+00 -0.48988734365E+03  0.48988734365E+03  0.00000000000E+00 0.  1.
         36    2    1    2    0    0 -0.42632564146E-13 -0.28421709430E-13  0.20059392394E+02  0.99983407969E+03  0.99963283644E+03 0.  0.
         25    2    3    3    0    0  0.95374128319E+02  0.79929958633E+02  0.62731676468E+02  0.18783932664E+03  0.12594969932E+03 0.  0.
         35    2    3    3    0    0 -0.95374128319E+02 -0.79929958633E+02 -0.42672284074E+02  0.81199475305E+03  0.80126745380E+03 0.  0.
         22    1    5    5    0    0  0.20389151257E+03  0.20966659163E+03 -0.21327059505E+03  0.36196156600E+03  0.00000000000E+00 0.  1.
         22    1    5    5    0    0 -0.29926564089E+03 -0.28959655027E+03  0.17059831098E+03  0.45003318706E+03  0.00000000000E+00 0.  1.
          5    1    4    4  502    0  0.57188521755E+02 -0.22715344189E+02  0.35313157247E+00  0.61714897586E+02  0.47000000000E+01 0.  1.
         -5    1    4    4    0  502  0.38185606564E+02  0.10264530282E+03  0.62378544895E+02  0.12612442905E+03  0.47000000000E+01 0.  1.
<mgrwt>
<rscale>  0 0.99963284E+03</rscale>
<asrwt>0</asrwt>
<pdfrwt beam="1">  1        1 0.75367283E-01 0.99963284E+03</pdfrwt>
<pdfrwt beam="2">  1       -1 0.78453344E-01 0.99963284E+03</pdfrwt>
<totfact> 0.87606137E+01</totfact>
</mgrwt>
</event>
<event>
 9    1  0.4246427E-036  0.1000493E+04  0.7818608E-02  0.8680568E-01
         -1   -1    0    0    0  501 -0.00000000000E+00  0.00000000000E+00  0.29793724921E+03  0.29793724921E+03  0.00000000000E+00 0.  1.
          1   -1    0    0  501    0  0.00000000000E+00 -0.00000000000E+00 -0.83993089852E+03  0.83993089852E+03  0.00000000000E+00 0.  1.
         36    2    1    2    0    0  0.00000000000E+00  0.14210854715E-13 -0.54199364931E+03  0.11378681477E+04  0.10004932812E+04 0.  0.
         25    2    3    3    0    0 -0.10303321403E+03  0.93122066905E+02 -0.12944235451E+03  0.22724590536E+03  0.12489121596E+03 0.  0.
         35    2    3    3    0    0  0.10303321403E+03 -0.93122066905E+02 -0.41255129480E+03  0.91062224236E+03  0.79984169365E+03 0.  0.
         22    1    5    5    0    0  0.36740380071E+03 -0.24087398023E+03 -0.56113591146E+02  0.44289339828E+03  0.00000000000E+00 0.  1.
         22    1    5    5    0    0 -0.26437058668E+03  0.14775191333E+03 -0.35643770366E+03  0.46772884408E+03  0.00000000000E+00 0.  1.
          5    1    4    4  502    0  0.12857310506E+02 -0.46703968691E+01 -0.57593260952E+02  0.59381788011E+02  0.47000000000E+01 0.  1.
         -5    1    4    4    0  502 -0.11589052454E+03  0.97792463774E+02 -0.71849093557E+02  0.16786411735E+03  0.47000000000E+01 0.  1.
<mgrwt>
<rscale>  0 0.10004933E+04</rscale>
<asrwt>0</asrwt>
<pdfrwt beam="1">  1        1 0.12922014E+00 0.10004933E+04</pdfrwt>
<pdfrwt beam="2">  1       -1 0.45836501E-01 0.10004933E+04</pdfrwt>
<totfact> 0.10964622E+02</totfact>
</mgrwt>
</event>
<event>
 9    1  0.4246427E-036  0.9986721E+03  0.7818608E-02  0.8682304E-01
         -2   -1    0    0    0  501 -0.00000000000E+00  0.00000000000E+00  0.28271157380E+03  0.28271157380E+03  0.00000000000E+00 0. -1.
          2   -1    0    0  501    0  0.00000000000E+00 -0.00000000000E+00 -0.88194649449E+03  0.88194649449E+03  0.00000000000E+00 0. -1.
         36    2    1    2    0    0  0.21316282073E-13  0.00000000000E+00 -0.59923492070E+03  0.11646580683E+04  0.99867208124E+03 0.  0.
         25    2    3    3    0    0  0.46829529962E+02 -0.11867346550E+03 -0.50314713821E+02  0.18560115944E+03  0.12505928061E+03 0.  0.
         35    2    3    3    0    0 -0.46829529962E+02  0.11867346550E+03 -0.54892020688E+03  0.97905690885E+03  0.80060142453E+03 0.  0.
         22    1    5    5    0    0 -0.12468482027E+03  0.43543467279E+03 -0.44933297240E+03  0.63800452879E+03  0.00000000000E+00 0. -1.
         22    1    5    5    0    0  0.77855290309E+02 -0.31676120729E+03 -0.99587234478E+02  0.34105238006E+03  0.00000000000E+00 0. -1.
          5    1    4    4  502    0 -0.39933412045E+02 -0.25186744749E+02 -0.30596369406E+02  0.56455976915E+02  0.47000000000E+01 0. -1.
         -5    1    4    4    0  502  0.86762942007E+02 -0.93486720754E+02 -0.19718344415E+02  0.12914518253E+03  0.47000000000E+01 0. -1.
<mgrwt>
<rscale>  0 0.99867208E+03</rscale>
<asrwt>0</asrwt>
<pdfrwt beam="1">  1        2 0.13568408E+00 0.99867208E+03</pdfrwt>
<pdfrwt beam="2">  1       -2 0.43494088E-01 0.99867208E+03</pdfrwt>
<totfact> 0.18291620E+02</totfact>
</mgrwt>
</event>
<event>
 9    1  0.4246427E-036  0.1001369E+04  0.7818608E-02  0.8679735E-01
          2   -1    0    0  501    0  0.00000000000E+00  0.00000000000E+00  0.67383635262E+03  0.67383635262E+03  0.00000000000E+00 0. -1.
         -2   -1    0    0    0  501 -0.00000000000E+00 -0.00000000000E+00 -0.37202684431E+03  0.37202684431E+03  0.00000000000E+00 0. -1.
         36    2    1    2    0    0  0.16875389974E-13  0.28421709430E-13  0.30180950831E+03  0.10458631969E+04  0.10013694859E+04 0.  0.
         25    2    3    3    0    0  0.50672485874E+00  0.77746879452E+02 -0.67179765774E+02  0.16134996753E+03  0.12440199781E+03 0.  0.
         35    2    3    3    0    0 -0.50672485874E+00 -0.77746879452E+02  0.36898927408E+03  0.88451322940E+03  0.80010357739E+03 0.  0.
         22    1    5    5    0    0 -0.18663941114E+03 -0.25703264848E+03  0.50184678735E+03  0.59392781560E+03  0.00000000000E+00 0.  1.
         22    1    5    5    0    0  0.18613268628E+03  0.17928576903E+03 -0.13285751327E+03  0.29058541379E+03  0.00000000000E+00 0.  1.
          5    1    4    4  502    0 -0.43140292187E+01  0.10653284878E+03 -0.24614209692E+02  0.10952537622E+03  0.47000000000E+01 0.  1.
         -5    1    4    4    0  502  0.48207540774E+01 -0.28785969328E+02 -0.42565556081E+02  0.51824591311E+02  0.47000000000E+01 0.  1.
<mgrwt>
<rscale>  0 0.10013695E+04</rscale>
<asrwt>0</asrwt>
<pdfrwt beam="1">  1        2 0.10366713E+00 0.10013695E+04</pdfrwt>
<pdfrwt beam="2">  1       -2 0.57234899E-01 0.10013695E+04</pdfrwt>
<totfact> 0.14881647E+02</totfact>
</mgrwt>
</event>
<event>
 9    1  0.4246427E-036  0.9990977E+03  0.7818608E-02  0.8681898E-01
         -1   -1    0    0    0  501 -0.00000000000E+00  0.00000000000E+00  0.94682883310E+03  0.94682883310E+03  0.00000000000E+00 0. -1.
          1   -1    0    0  501    0  0.00000000000E+00 -0.00000000000E+00 -0.26356300725E+03  0.26356300725E+03  0.00000000000E+00 0. -1.
         36    2    1    2    0    0 -0.21316282073E-13  0.00000000000E+00  0.68326582586E+03  0.12103918403E+04  0.99909770213E+03 0.  0.
         25    2    3    3    0    0 -0.39478775804E+02  0.52683736872E+02 -0.20820819992E+02  0.14293999504E+03  0.12515664492E+03 0.  0.
         35    2    3    3    0    0  0.39478775804E+02 -0.52683736872E+02  0.70408664585E+03  0.10674518453E+04  0.79961321107E+03 0.  0.
         22    1    5    5    0    0  0.35346472453E+03  0.12095440049E+03  0.57586126908E+03  0.68642805866E+03  0.00000000000E+00 0. -1.
         22    1    5    5    0    0 -0.31398594873E+03 -0.17363813736E+03  0.12822537677E+03  0.38102378665E+03  0.00000000000E+00 0. -1.
          5    1    4    4  502    0 -0.10257169952E+02  0.80850082848E+02  0.21188616523E+02  0.84338561181E+02  0.47000000000E+01 0.  1.
         -5    1    4    4    0  502 -0.29221605852E+02 -0.28166345976E+02 -0.42009436515E+02  0.58601433860E+02  0.47000000000E+01 0.  1.
<mgrwt>
<rscale>  0 0.99909770E+03</rscale>
<asrwt>0</asrwt>
<pdfrwt beam="1">  1        1 0.40548155E-01 0.99909770E+03</pdfrwt>
<pdfrwt beam="2">  1       -1 0.14566597E+00 0.99909770E+03</pdfrwt>
<totfact> 0.46286484E+01</totfact>
</mgrwt>
</event>
<event>
 9    1  0.4246427E-036  0.1000793E+04  0.7818608E-02  0.8680283E-01
          3   -1    0    0  501    0  0.00000000000E+00  0.00000000000E+00  0.27914718715E+04  0.27914718715E+04  0.00000000000E+00 0. -1.
         -3   -1    0    0    0  501 -0.00000000000E+00 -0.00000000000E+00 -0.89700584760E+02  0.89700584760E+02  0.00000000000E+00 0. -1.
         36    2    1    2    0    0 -0.28421709430E-13  0.28421709430E-13  0.27017712867E+04  0.28811724563E+04  0.10007930040E+04 0.  0.
         25    2    3    3    0    0  0.77941764819E+02  0.10328249099E+03  0.69457181202E+03  0.71740368578E+03  0.12448234681E+03 0.  0.
         35    2    3    3    0    0 -0.77941764819E+02 -0.10328249099E+03  0.20071994747E+04  0.21637687705E+04  0.79768625985E+03 0.  0.
         22    1    5    5    0    0  0.24873686937E+03 -0.32677072635E+03  0.10907424274E+04  0.11654905322E+04  0.00000000000E+00 0.  1.
         22    1    5    5    0    0 -0.32667863419E+03  0.22348823537E+03  0.91645704731E+03  0.99827823825E+03  0.00000000000E+00 0.  1.
          5    1    4    4  502    0  0.79797872253E+02  0.41346488648E+01  0.29208587642E+03  0.30285482486E+03  0.47000000000E+01 0.  1.
         -5    1    4    4    0  502 -0.18561074338E+01  0.99147842120E+02  0.40248593560E+03  0.41454886092E+03  0.47000000000E+01 0.  1.
<mgrwt>
<rscale>  0 0.10007930E+04</rscale>
<asrwt>0</asrwt>
<pdfrwt beam="1">  1        3 0.42945715E+00 0.10007930E+04</pdfrwt>
<pdfrwt beam="2">  1       -3 0.13800092E-01 0.10007930E+04</pdfrwt>
<totfact> 0.32615023E+00</totfact>
</mgrwt>
</event>
<event>
 9    1  0.4246427E-036  0.9918166E+03  0.7818608E-02  0.8688870E-01
          2   -1    0    0  501    0  0.00000000000E+00  0.00000000000E+00  0.14381836026E+04  0.14381836026E+04  0.00000000000E+00 0. -1.
         -2   -1    0    0    0  501 -0.00000000000E+00 -0.00000000000E+00 -0.17099695551E+03  0.17099695551E+03  0.00000000000E+00 0. -1.
         36    2    1    2    0    0  0.71054273576E-14 -0.14210854715E-13  0.12671866471E+04  0.16091805582E+04  0.99181655062E+03 0.  0.
         25    2    3    3    0    0 -0.18452285841E+02 -0.11054610396E+03  0.12322576646E+03  0.20909224514E+03  0.12638848644E+03 0.  0.
         35    2    3    3    0    0  0.18452285841E+02  0.11054610396E+03  0.11439608807E+04  0.14000883130E+04  0.79939968714E+03 0.  0.
         22    1    5    5    0    0  0.28898764746E+03  0.17891052881E+03  0.10531589356E+04  0.11066465476E+04  0.00000000000E+00 0. -1.
         22    1    5    5    0    0 -0.27053536162E+03 -0.68364424848E+02  0.90801945106E+02  0.29344176545E+03  0.00000000000E+00 0. -1.
          5    1    4    4  502    0  0.47783462761E+02 -0.13113594661E+02  0.25364160535E+02  0.55862834855E+02  0.47000000000E+01 0. -1.
         -5    1    4    4    0  502 -0.66235748603E+02 -0.97432509300E+02  0.97861605929E+02  0.15322941029E+03  0.47000000000E+01 0. -1.
<mgrwt>
<rscale>  0 0.99181655E+03</rscale>
<asrwt>0</asrwt>
<pdfrwt beam="1">  1        2 0.22125901E+00 0.99181655E+03</pdfrwt>
<pdfrwt beam="2">  1       -2 0.26307225E-01 0.99181655E+03</pdfrwt>
<totfact> 0.21519465E+02</totfact>
</mgrwt>
</event>
<event>
 9    1  0.4246427E-036  0.9997471E+03  0.7818608E-02  0.8681279E-01
          1   -1    0    0  501    0  0.00000000000E+00  0.00000000000E+00  0.36376243691E+04  0.36376243691E+04  0.00000000000E+00 0.  1.
         -1   -1    0    0    0  501 -0.00000000000E+00 -0.00000000000E+00 -0.68691417525E+02  0.68691417525E+02  0.00000000000E+00 0.  1.
         36    2    1    2    0    0  0.00000000000E+00  0.00000000000E+00  0.35689329516E+04  0.37063157866E+04  0.99974711670E+03 0.  0.
         25    2    3    3    0    0  0.10233082597E+03  0.94934697024E+02  0.61315314178E+03  0.64120305866E+03  0.12530120717E+03 0.  0.
         35    2    3    3    0    0 -0.10233082597E+03 -0.94934697024E+02  0.29557798098E+04  0.30651127280E+04  0.79924811949E+03 0.  0.
         22    1    5    5    0    0  0.22311122390E+03  0.16502647437E+03  0.20433311571E+04  0.20620898557E+04  0.00000000000E+00 0.  1.
         22    1    5    5    0    0 -0.32544204987E+03 -0.25996117139E+03  0.91244865275E+03  0.10030228723E+04  0.00000000000E+00 0.  1.
          5    1    4    4  502    0  0.11230948364E+03  0.80863049279E+02  0.33519802574E+03  0.36267348857E+03  0.47000000000E+01 0.  1.
         -5    1    4    4    0  502 -0.99786576719E+01  0.14071647744E+02  0.27795511604E+03  0.27852957009E+03  0.47000000000E+01 0.  1.
<mgrwt>
<rscale>  0 0.99974712E+03</rscale>
<asrwt>0</asrwt>
<pdfrwt beam="1">  1        1 0.55963437E+00 0.99974712E+03</pdfrwt>
<pdfrwt beam="2">  1       -1 0.10567913E-01 0.99974712E+03</pdfrwt>
<totfact> 0.11915871E+01</totfact>
</mgrwt>
</event>
<event>
 9    1  0.4246427E-036  0.9999592E+03  0.7818608E-02  0.8681077E-01
         -2   -1    0    0    0  501 -0.00000000000E+00  0.00000000000E+00  0.22549071094E+03  0.22549071094E+03  0.00000000000E+00 0. -1.
          2   -1    0    0  501    0  0.00000000000E+00 -0.00000000000E+00 -0.11086027064E+04  0.11086027064E+04  0.00000000000E+00 0. -1.
         36    2    1    2    0    0  0.62172489379E-14 -0.14210854715E-13 -0.88311199547E+03  0.13340934173E+04  0.99995922401E+03 0.  0.
         25    2    3    3    0    0  0.31456416782E+01  0.12704693661E+03 -0.27287895880E+03  0.32591949877E+03  0.12493908258E+03 0.  0.
         35    2    3    3    0    0 -0.31456416782E+01 -0.12704693661E+03 -0.61023303667E+03  0.10081739186E+04  0.79238846023E+03 0.  0.
         22    1    5    5    0    0 -0.22311708812E+03 -0.39184538666E+03 -0.41278124605E+03  0.61132021000E+03  0.00000000000E+00 0.  1.
         22    1    5    5    0    0  0.21997144644E+03  0.26479845005E+03 -0.19745179061E+03  0.39685370858E+03  0.00000000000E+00 0.  1.
          5    1    4    4  502    0 -0.69593413680E+01  0.61831914137E+02 -0.24719410595E+03  0.25494829683E+03  0.47000000000E+01 0. -1.
         -5    1    4    4    0  502  0.10104983046E+02  0.65215022475E+02 -0.25684852847E+02  0.70971201938E+02  0.47000000000E+01 0. -1.
<mgrwt>
<rscale>  0 0.99995922E+03</rscale>
<asrwt>0</asrwt>
<pdfrwt beam="1">  1        2 0.17055427E+00 0.99995922E+03</pdfrwt>
<pdfrwt beam="2">  1       -2 0.34690878E-01 0.99995922E+03</pdfrwt>
<totfact> 0.20233490E+02</totfact>
</mgrwt>
</event>
<event>
 9    1  0.4246427E-036  0.1000171E+04  0.7818608E-02  0.8680875E-01
          2   -1    0    0  501    0  0.00000000000E+00  0.00000000000E+00  0.23022776976E+04  0.23022776976E+04  0.00000000000E+00 0.  1.
         -2   -1    0    0    0  501 -0.00000000000E+00 -0.00000000000E+00 -0.10862525923E+03  0.10862525923E+03  0.00000000000E+00 0.  1.
         36    2    1    2    0    0 -0.71054273576E-14  0.71054273576E-14  0.21936524384E+04  0.24109029569E+04  0.10001710088E+04 0.  0.
         25    2    3    3    0    0 -0.19282686523E+02  0.74844906730E+01  0.77806731290E+02  0.14858666876E+03  0.12488503152E+03 0.  0.
         35    2    3    3    0    0  0.19282686523E+02 -0.74844906730E+01  0.21158457071E+04  0.22623162881E+04  0.80052738335E+03 0.  0.
         22    1    5    5    0    0 -0.12218759320E+03  0.10617852562E+03  0.25219274891E+02  0.16382826087E+03  0.00000000000E+00 0. -1.
         22    1    5    5    0    0  0.14147027972E+03 -0.11366301629E+03  0.20906264322E+04  0.20984880272E+04  0.00000000000E+00 0. -1.
          5    1    4    4  502    0 -0.43093066439E+02 -0.30013154956E+02  0.88171669295E+02  0.10273332036E+03  0.47000000000E+01 0.  1.
         -5    1    4    4    0  502  0.23810379915E+02  0.37497645629E+02 -0.10364938005E+02  0.45853348398E+02  0.47000000000E+01 0.  1.
<mgrwt>
<rscale>  0 0.10001710E+04</rscale>
<asrwt>0</asrwt>
<pdfrwt beam="1">  1        2 0.35419653E+00 0.10001710E+04</pdfrwt>
<pdfrwt beam="2">  1       -2 0.16711580E-01 0.10001710E+04</pdfrwt>
<totfact> 0.15243029E+02</totfact>
</mgrwt>
</event>
<event>
 9    1  0.4246427E-036  0.9993962E+03  0.7818608E-02  0.8681613E-01
         -2   -1    0    0    0  501 -0.00000000000E+00  0.00000000000E+00  0.12319073467E+03  0.12319073467E+03  0.00000000000E+00 0.  1.
          2   -1    0    0  501    0  0.00000000000E+00 -0.00000000000E+00 -0.20269233531E+04  0.20269233531E+04  0.00000000000E+00 0.  1.
         36    2    1    2    0    0  0.00000000000E+00  0.00000000000E+00 -0.19037326185E+04  0.21501140878E+04  0.99939617167E+03 0.  0.
         25    2    3    3    0    0 -0.10179271561E+03  0.76781912508E+02 -0.46405775099E+03  0.49789911761E+03  0.12765859166E+03 0.  0.
         35    2    3    3    0    0  0.10179271561E+03 -0.76781912508E+02 -0.14396748675E+04  0.16522149702E+04  0.80055815819E+03 0.  0.
         22    1    5    5    0    0  0.10252683006E+03 -0.40656816508E+03 -0.11071402851E+04  0.11838788091E+04  0.00000000000E+00 0.  1.
         22    1    5    5    0    0 -0.73411445652E+00  0.32978625257E+03 -0.33253458237E+03  0.46833616109E+03  0.00000000000E+00 0.  1.
          5    1    4    4  502    0  0.28177703053E+02  0.29388794259E+02 -0.12968856456E+03  0.13601065382E+03  0.47000000000E+01 0. -1.
         -5    1    4    4    0  502 -0.12997041866E+03  0.47393118249E+02 -0.33436918644E+03  0.36188846379E+03  0.47000000000E+01 0. -1.
<mgrwt>
<rscale>  0 0.99939617E+03</rscale>
<asrwt>0</asrwt>
<pdfrwt beam="1">  1        2 0.31183433E+00 0.99939617E+03</pdfrwt>
<pdfrwt beam="2">  1       -2 0.18952423E-01 0.99939617E+03</pdfrwt>
<totfact> 0.17754378E+02</totfact>
</mgrwt>
</event>
<event>
 9    1  0.4246427E-036  0.9940060E+03  0.7818608E-02  0.8686767E-01
          1   -1    0    0  501    0  0.00000000000E+00  0.00000000000E+00  0.73128970405E+03  0.73128970405E+03  0.00000000000E+00 0. -1.
         -1   -1    0    0    0  501 -0.00000000000E+00 -0.00000000000E+00 -0.33777581701E+03  0.33777581701E+03  0.00000000000E+00 0. -1.
         36    2    1    2    0    0 -0.28421709430E-13  0.71054273576E-14  0.39351388705E+03  0.10690655211E+04  0.99400599043E+03 0.  0.
         25    2    3    3    0    0 -0.13362492326E+03 -0.47166108360E+01  0.86365520898E+02  0.20270193283E+03  0.12550380010E+03 0.  0.
         35    2    3    3    0    0  0.13362492326E+03  0.47166108360E+01  0.30714836615E+03  0.86636358823E+03  0.79897927485E+03 0.  0.
         22    1    5    5    0    0 -0.27875975016E+03 -0.13559005460E+03  0.29899869071E+03  0.43068768065E+03  0.00000000000E+00 0. -1.
         22    1    5    5    0    0  0.41238467342E+03  0.14030666544E+03  0.81496754416E+01  0.43567590758E+03  0.00000000000E+00 0. -1.
          5    1    4    4  502    0 -0.27254204144E+01  0.25864619938E+02 -0.18404864141E+02  0.32206140797E+02  0.47000000000E+01 0. -1.
         -5    1    4    4    0  502 -0.13089950284E+03 -0.30581230774E+02  0.10477038504E+03  0.17049579203E+03  0.47000000000E+01 0. -1.
<mgrwt>
<rscale>  0 0.99400599E+03</rscale>
<asrwt>0</asrwt>
<pdfrwt beam="1">  1        1 0.11250611E+00 0.99400599E+03</pdfrwt>
<pdfrwt beam="2">  1       -1 0.51965511E-01 0.99400599E+03</pdfrwt>
<totfact> 0.10887659E+02</totfact>
</mgrwt>
</event>
<event>
 9    1  0.4246427E-036  0.1000566E+04  0.7818608E-02  0.8680499E-01
         -1   -1    0    0    0  501 -0.00000000000E+00  0.00000000000E+00  0.22261121294E+03  0.22261121294E+03  0.00000000000E+00 0. -1.
          1   -1    0    0  501    0  0.00000000000E+00 -0.00000000000E+00 -0.11243068287E+04  0.11243068287E+04  0.00000000000E+00 0. -1.
         36    2    1    2    0    0  0.00000000000E+00 -0.14210854715E-13 -0.90169561572E+03  0.13469180416E+04  0.10005664533E+04 0.  0.
         25    2    3    3    0    0 -0.12033234579E+03 -0.70696609057E+02 -0.14694868582E+03  0.23818571010E+03  0.12514244786E+03 0.  0.
         35    2    3    3    0    0  0.12033234579E+03  0.70696609057E+02 -0.75474692990E+03  0.11087323315E+04  0.80010409995E+03 0.  0.
         22    1    5    5    0    0  0.23283531006E+03 -0.28781099188E+03 -0.59428451732E+03  0.70015822225E+03  0.00000000000E+00 0.  1.
         22    1    5    5    0    0 -0.11250296427E+03  0.35850760094E+03 -0.16046241258E+03  0.40857410926E+03  0.00000000000E+00 0.  1.
          5    1    4    4  502    0 -0.80341429603E+02  0.22522828076E+02 -0.47855050382E+02  0.96302746286E+02  0.47000000000E+01 0. -1.
         -5    1    4    4    0  502 -0.39990916188E+02 -0.93219437132E+02 -0.99093635435E+02  0.14188296381E+03  0.47000000000E+01 0. -1.
<mgrwt>
<rscale>  0 0.10005665E+04</rscale>
<asrwt>0</asrwt>
<pdfrwt beam="1">  1        1 0.17297028E+00 0.10005665E+04</pdfrwt>
<pdfrwt beam="2">  1       -1 0.34247879E-01 0.10005665E+04</pdfrwt>
<totfact> 0.10873674E+02</totfact>
</mgrwt>
</event>
<event>
 9    1  0.4246427E-036  0.1013425E+04  0.7818608E-02  0.8668357E-01
          2   -1    0    0  501    0  0.00000000000E+00  0.00000000000E+00  0.16400502566E+04  0.16400502566E+04  0.00000000000E+00 0. -1.
         -2   -1    0    0    0  501 -0.00000000000E+00 -0.00000000000E+00 -0.15655482305E+03  0.15655482305E+03  0.00000000000E+00 0. -1.
         36    2    1    2    0    0 -0.14210854715E-13  0.00000000000E+00  0.14834954335E+04  0.17966050797E+04  0.10134254343E+04 0.  0.
         25    2    3    3    0    0 -0.50648134332E+02 -0.13950280832E+03  0.21131885814E+03  0.28628691107E+03  0.12360529360E+03 0.  0.
         35    2    3    3    0    0  0.50648134332E+02  0.13950280832E+03  0.12721765754E+04  0.15103181686E+04  0.80037582690E+03 0.  0.
         22    1    5    5    0    0  0.30321958098E+03  0.45821656309E+01  0.12510667422E+03  0.32804693333E+03  0.00000000000E+00 0. -1.
         22    1    5    5    0    0 -0.25257144665E+03  0.13492064269E+03  0.11470699012E+04  0.11822712352E+04  0.00000000000E+00 0. -1.
          5    1    4    4  502    0  0.26264205654E+02 -0.93403395512E+02  0.14553303253E+03  0.17497415909E+03  0.47000000000E+01 0. -1.
         -5    1    4    4    0  502 -0.76912339985E+02 -0.46099412809E+02  0.65785825613E+02  0.11131275199E+03  0.47000000000E+01 0. -1.
<mgrwt>
<rscale>  0 0.10134254E+04</rscale>
<asrwt>0</asrwt>
<pdfrwt beam="1">  1        2 0.25231541E+00 0.10134254E+04</pdfrwt>
<pdfrwt beam="2">  1       -2 0.24085359E-01 0.10134254E+04</pdfrwt>
<totfact> 0.19351476E+02</totfact>
</mgrwt>
</event>
<event>
 9    1  0.4246427E-036  0.1000130E+04  0.7818608E-02  0.8680915E-01
         -1   -1    0    0    0  501 -0.00000000000E+00  0.00000000000E+00  0.62738859875E+03  0.62738859875E+03  0.00000000000E+00 0. -1.
          1   -1    0    0  501    0  0.00000000000E+00 -0.00000000000E+00 -0.39858041862E+03  0.39858041862E+03  0.00000000000E+00 0. -1.
         36    2    1    2    0    0  0.28421709430E-13 -0.71054273576E-14  0.22880818013E+03  0.10259690174E+04  0.10001296122E+04 0.  0.
         25    2    3    3    0    0  0.13555049483E+03 -0.32649394363E+02  0.59363115288E+02  0.19658383996E+03  0.12522502575E+03 0.  0.
         35    2    3    3    0    0 -0.13555049483E+03  0.32649394363E+02  0.16944506484E+03  0.82938517741E+03  0.79983012128E+03 0.  0.
         22    1    5    5    0    0 -0.26545070360E+03 -0.12580445750E+03  0.41571299932E+03  0.50902665487E+03  0.00000000000E+00 0. -1.
         22    1    5    5    0    0  0.12990020877E+03  0.15845385186E+03 -0.24626793448E+03  0.32035852253E+03  0.00000000000E+00 0. -1.
          5    1    4    4  502    0  0.12332243622E+03  0.75722940063E+01  0.82236175739E+02  0.14849458412E+03  0.47000000000E+01 0. -1.
         -5    1    4    4    0  502  0.12228058612E+02 -0.40221688370E+02 -0.22873060451E+02  0.48089255839E+02  0.47000000000E+01 0. -1.
<mgrwt>
<rscale>  0 0.10001296E+04</rscale>
<asrwt>0</asrwt>
<pdfrwt beam="1">  1        1 0.61320064E-01 0.10001296E+04</pdfrwt>
<pdfrwt beam="2">  1       -1 0.96521323E-01 0.10001296E+04</pdfrwt>
<totfact> 0.74464275E+01</totfact>
</mgrwt>
</event>
<event>
 9    1  0.4246427E-036  0.1000151E+04  0.7818608E-02  0.8680894E-01
         -2   -1    0    0    0  501 -0.00000000000E+00  0.00000000000E+00  0.23107373210E+03  0.23107373210E+03  0.00000000000E+00 0.  1.
          2   -1    0    0  501    0  0.00000000000E+00 -0.00000000000E+00 -0.10822328416E+04  0.10822328416E+04  0.00000000000E+00 0.  1.
         36    2    1    2    0    0  0.00000000000E+00  0.00000000000E+00 -0.85115910955E+03  0.13133065737E+04  0.10001511520E+04 0.  0.
         25    2    3    3    0    0 -0.32936021371E+02  0.13456570878E+03 -0.14264975510E+03  0.23549879843E+03  0.12616663564E+03 0.  0.
         35    2    3    3    0    0  0.32936021371E+02 -0.13456570878E+03 -0.70850935446E+03  0.10778077753E+04  0.80030705589E+03 0.  0.
         22    1    5    5    0    0  0.11208822297E+03  0.58703394465E+02  0.14885916994E+03  0.19536865339E+03  0.00000000000E+00 0.  1.
         22    1    5    5    0    0 -0.79152201604E+02 -0.19326910324E+03 -0.85736852440E+03  0.88243912193E+03  0.00000000000E+00 0.  1.
          5    1    4    4  502    0  0.47280734823E+02  0.38703589389E+02 -0.35685288796E+02  0.70915199735E+02  0.47000000000E+01 0.  1.
         -5    1    4    4    0  502 -0.80216756194E+02  0.95862119387E+02 -0.10696446630E+03  0.16458359869E+03  0.47000000000E+01 0.  1.
<mgrwt>
<rscale>  0 0.10001512E+04</rscale>
<asrwt>0</asrwt>
<pdfrwt beam="1">  1        2 0.16649736E+00 0.10001512E+04</pdfrwt>
<pdfrwt beam="2">  1       -2 0.35549805E-01 0.10001512E+04</pdfrwt>
<totfact> 0.20056360E+02</totfact>
</mgrwt>
</event>
<event>
 9    1  0.4246427E-036  0.1000574E+04  0.7818608E-02  0.8680492E-01
          3   -1    0    0  501    0  0.00000000000E+00  0.00000000000E+00  0.63319575208E+03  0.63319575208E+03  0.00000000000E+00 0. -1.
         -3   -1    0    0    0  501 -0.00000000000E+00 -0.00000000000E+00 -0.39527569213E+03  0.39527569213E+03  0.00000000000E+00 0. -1.
         36    2    1    2    0    0  0.28421709430E-13  0.71054273576E-14  0.23792005995E+03  0.10284714442E+04  0.10005736138E+04 0.  0.
         25    2    3    3    0    0 -0.11833194915E+03 -0.28321479498E+02 -0.24947340213E+02  0.17603076096E+03  0.12473933874E+03 0.  0.
         35    2    3    3    0    0  0.11833194915E+03  0.28321479498E+02  0.26286740016E+03  0.85244068325E+03  0.80171771341E+03 0.  0.
         22    1    5    5    0    0 -0.31049242563E+03 -0.14008768828E+03  0.17672952942E+03  0.38374918026E+03  0.00000000000E+00 0.  1.
         22    1    5    5    0    0  0.42882437478E+03  0.16840916778E+03  0.86137870737E+02  0.46869150299E+03  0.00000000000E+00 0.  1.
          5    1    4    4  502    0 -0.84446091434E+02  0.42417617444E+02 -0.39658057987E+01  0.94700655983E+02  0.47000000000E+01 0. -1.
         -5    1    4    4    0  502 -0.33885857720E+02 -0.70739096942E+02 -0.20981534414E+02  0.81330104979E+02  0.47000000000E+01 0. -1.
<mgrwt>
<rscale>  0 0.10005736E+04</rscale>
<asrwt>0</asrwt>
<pdfrwt beam="1">  1        3 0.97414731E-01 0.10005736E+04</pdfrwt>
<pdfrwt beam="2">  1       -3 0.60811645E-01 0.10005736E+04</pdfrwt>
<totfact> 0.10112608E+01</totfact>
</mgrwt>
</event>
<event>
 9    1  0.4246427E-036  0.9994939E+03  0.7818608E-02  0.8681520E-01
         -2   -1    0    0    0  501 -0.00000000000E+00  0.00000000000E+00  0.39033104235E+03  0.39033104235E+03  0.00000000000E+00 0. -1.
          2   -1    0    0  501    0  0.00000000000E+00 -0.00000000000E+00 -0.63983380766E+03  0.63983380766E+03  0.00000000000E+00 0. -1.
         36    2    1    2    0    0  0.00000000000E+00 -0.28421709430E-13 -0.24950276531E+03  0.10301648500E+04  0.99949386606E+03 0.  0.
         25    2    3    3    0    0 -0.91087571405E+02 -0.98161242053E+02 -0.68027962115E+01  0.18354617331E+03  0.12534091349E+03 0.  0.
         35    2    3    3    0    0  0.91087571405E+02  0.98161242053E+02 -0.24269996910E+03  0.84661867670E+03  0.79995458223E+03 0.  0.
         22    1    5    5    0    0  0.21502625126E+03  0.36966639588E+03 -0.32487143187E+03  0.53705770660E+03  0.00000000000E+00 0.  1.
         22    1    5    5    0    0 -0.12393867985E+03 -0.27150515382E+03  0.82171462773E+02  0.30956097010E+03  0.00000000000E+00 0.  1.
          5    1    4    4  502    0 -0.13335547593E+02 -0.81536048992E+01 -0.53308246561E+02  0.55751029173E+02  0.47000000000E+01 0.  1.
         -5    1    4    4    0  502 -0.77752023812E+02 -0.90007637154E+02  0.46505450350E+02  0.12779514414E+03  0.47000000000E+01 0.  1.
<mgrwt>
<rscale>  0 0.99949387E+03</rscale>
<asrwt>0</asrwt>
<pdfrwt beam="1">  1        2 0.98435970E-01 0.99949387E+03</pdfrwt>
<pdfrwt beam="2">  1       -2 0.60050930E-01 0.99949387E+03</pdfrwt>
<totfact> 0.14341102E+02</totfact>
</mgrwt>
</event>
<event>
 9    1  0.4246427E-036  0.9997420E+03  0.7818608E-02  0.8681284E-01
         -1   -1    0    0    0  501 -0.00000000000E+00  0.00000000000E+00  0.24508205974E+03  0.24508205974E+03  0.00000000000E+00 0.  1.
          1   -1    0    0  501    0  0.00000000000E+00 -0.00000000000E+00 -0.10195402043E+04  0.10195402043E+04  0.00000000000E+00 0.  1.
         36    2    1    2    0    0  0.28421709430E-13  0.14210854715E-13 -0.77445814456E+03  0.12646222640E+04  0.99974199324E+03 0.  0.
         25    2    3    3    0    0  0.12433392806E+03  0.39688831332E+02 -0.92962690217E+02  0.20634358259E+03  0.13000570490E+03 0.  0.
         35    2    3    3    0    0 -0.12433392806E+03 -0.39688831332E+02 -0.68149545434E+03  0.10582786815E+04  0.79905167813E+03 0.  0.
         22    1    5    5    0    0  0.26418202902E+03 -0.25094396166E+03 -0.35365514532E+03  0.50777650415E+03  0.00000000000E+00 0.  1.
         22    1    5    5    0    0 -0.38851595708E+03  0.21125513033E+03 -0.32784030902E+03  0.55050217730E+03  0.00000000000E+00 0.  1.
          5    1    4    4  502    0  0.12080588144E+03  0.65702063545E+02 -0.34156858453E+02  0.14177306910E+03  0.47000000000E+01 0.  1.
         -5    1    4    4    0  502  0.35280466229E+01 -0.26013232213E+02 -0.58805831764E+02  0.64570513491E+02  0.47000000000E+01 0.  1.
<mgrwt>
<rscale>  0 0.99974199E+03</rscale>
<asrwt>0</asrwt>
<pdfrwt beam="1">  1        1 0.15685234E+00 0.99974199E+03</pdfrwt>
<pdfrwt beam="2">  1       -1 0.37704933E-01 0.99974199E+03</pdfrwt>
<totfact> 0.11076966E+02</totfact>
</mgrwt>
</event>
<event>
 9    1  0.4246427E-036  0.9999211E+03  0.7818608E-02  0.8681113E-01
          2   -1    0    0  501    0  0.00000000000E+00  0.00000000000E+00  0.14988272852E+04  0.14988272852E+04  0.00000000000E+00 0. -1.
         -2   -1    0    0    0  501 -0.00000000000E+00 -0.00000000000E+00 -0.16677076623E+03  0.16677076623E+03  0.00000000000E+00 0. -1.
         36    2    1    2    0    0  0.28421709430E-13  0.00000000000E+00  0.13320565189E+04  0.16655980514E+04  0.99992114649E+03 0.  0.
         25    2    3    3    0    0  0.79246072158E+02 -0.10785384073E+03  0.18356322732E+03  0.25949818982E+03  0.12542512182E+03 0.  0.
         35    2    3    3    0    0 -0.79246072158E+02  0.10785384073E+03  0.11484932916E+04  0.14060998616E+04  0.80010473623E+03 0.  0.
         22    1    5    5    0    0 -0.20369965035E+03  0.35851543902E+02  0.12256126744E+04  0.12429421983E+04  0.00000000000E+00 0.  1.
         22    1    5    5    0    0  0.12445357819E+03  0.72002296825E+02 -0.77119382791E+02  0.16315766324E+03  0.00000000000E+00 0.  1.
          5    1    4    4  502    0  0.23031370490E+02 -0.41236976319E+02  0.16306268442E+03  0.16983068419E+03  0.47000000000E+01 0.  1.
         -5    1    4    4    0  502  0.56214701668E+02 -0.66616864408E+02  0.20500542905E+02  0.89667505634E+02  0.47000000000E+01 0.  1.
<mgrwt>
<rscale>  0 0.99992115E+03</rscale>
<asrwt>0</asrwt>
<pdfrwt beam="1">  1        2 0.23058880E+00 0.99992115E+03</pdfrwt>
<pdfrwt beam="2">  1       -2 0.25657042E-01 0.99992115E+03</pdfrwt>
<totfact> 0.20786614E+02</totfact>
</mgrwt>
</event>
<event>
 9    1  0.4246427E-036  0.9996630E+03  0.7818608E-02  0.8681359E-01
         -1   -1    0    0    0  501 -0.00000000000E+00  0.00000000000E+00  0.37227247798E+03  0.37227247798E+03  0.00000000000E+00 0.  1.
          1   -1    0    0  501    0  0.00000000000E+00 -0.00000000000E+00 -0.67109861685E+03  0.67109861685E+03  0.00000000000E+00 0.  1.
         36    2    1    2    0    0 -0.71054273576E-14 -0.71054273576E-14 -0.29882613888E+03  0.10433710948E+04  0.99966303335E+03 0.  0.
         25    2    3    3    0    0 -0.63038831187E+02 -0.34193853065E+02  0.68010154042E+02  0.16013163745E+03  0.12599066011E+03 0.  0.
         35    2    3    3    0    0  0.63038831187E+02  0.34193853065E+02 -0.36683629292E+03  0.88323945738E+03  0.80024993561E+03 0.  0.
         22    1    5    5    0    0  0.55442293466E+01  0.17255930298E+02  0.25644407283E+03  0.25708377642E+03  0.00000000000E+00 0.  1.
         22    1    5    5    0    0  0.57494601840E+02  0.16937922767E+02 -0.62328036575E+03  0.62615568096E+03  0.00000000000E+00 0.  1.
          5    1    4    4  502    0  0.10250622997E+02  0.22446488983E+02 -0.20126105729E+02  0.32188045472E+02  0.47000000000E+01 0. -1.
         -5    1    4    4    0  502 -0.73289454184E+02 -0.56640342049E+02  0.88136259772E+02  0.12794359198E+03  0.47000000000E+01 0. -1.
<mgrwt>
<rscale>  0 0.99966303E+03</rscale>
<asrwt>0</asrwt>
<pdfrwt beam="1">  1        1 0.10324594E+00 0.99966303E+03</pdfrwt>
<pdfrwt beam="2">  1       -1 0.57272689E-01 0.99966303E+03</pdfrwt>
<totfact> 0.10342107E+02</totfact>
</mgrwt>
</event>
<event>
 9    1  0.4246427E-036  0.9996081E+03  0.7818608E-02  0.8681411E-01
         -2   -1    0    0    0  501 -0.00000000000E+00  0.00000000000E+00  0.17861291879E+03  0.17861291879E+03  0.00000000000E+00 0. -1.
          2   -1    0    0  501    0  0.00000000000E+00 -0.00000000000E+00 -0.13985780817E+04  0.13985780817E+04  0.00000000000E+00 0. -1.
         36    2    1    2    0    0  0.71054273576E-14 -0.28421709430E-13 -0.12199651629E+04  0.15771910005E+04  0.99960814987E+03 0.  0.
         25    2    3    3    0    0  0.57587136932E+02 -0.10592013637E+03 -0.11779617481E+03  0.20985141306E+03  0.12500529242E+03 0.  0.
         35    2    3    3    0    0 -0.57587136932E+02  0.10592013637E+03 -0.11021689881E+04  0.13673395874E+04  0.80019104930E+03 0.  0.
         22    1    5    5    0    0 -0.19317413563E+03 -0.21869253477E+03 -0.93188918387E+03  0.97650403094E+03  0.00000000000E+00 0. -1.
         22    1    5    5    0    0  0.13558699870E+03  0.32461267114E+03 -0.17027980424E+03  0.39083555649E+03  0.00000000000E+00 0. -1.
          5    1    4    4  502    0  0.31798397161E+02  0.21791487575E+02 -0.85672681410E+01  0.39768015743E+02  0.47000000000E+01 0. -1.
         -5    1    4    4    0  502  0.25788739771E+02 -0.12771162395E+03 -0.10922890667E+03  0.17008339732E+03  0.47000000000E+01 0. -1.
<mgrwt>
<rscale>  0 0.99960815E+03</rscale>
<asrwt>0</asrwt>
<pdfrwt beam="1">  1        2 0.21516586E+00 0.99960815E+03</pdfrwt>
<pdfrwt beam="2">  1       -2 0.27478910E-01 0.99960815E+03</pdfrwt>
<totfact> 0.20964458E+02</totfact>
</mgrwt>
</event>
<event>
 9    1  0.4246427E-036  0.1000023E+04  0.7818608E-02  0.8681016E-01
          2   -1    0    0  501    0  0.00000000000E+00  0.00000000000E+00  0.90328474202E+03  0.90328474202E+03  0.00000000000E+00 0. -1.
         -2   -1    0    0    0  501 -0.00000000000E+00 -0.00000000000E+00 -0.27678013884E+03  0.27678013884E+03  0.00000000000E+00 0. -1.
         36    2    1    2    0    0  0.00000000000E+00  0.00000000000E+00  0.62650460318E+03  0.11800648809E+04  0.10000225524E+04 0.  0.
         25    2    3    3    0    0  0.66789059742E+02  0.53981427623E+02  0.24700579472E+03  0.28983271946E+03  0.12496547368E+03 0.  0.
         35    2    3    3    0    0 -0.66789059742E+02 -0.53981427623E+02  0.37949880846E+03  0.89023216140E+03  0.80069918356E+03 0.  0.
         22    1    5    5    0    0  0.96454264582E+02 -0.38378936108E+03  0.33702590215E+03  0.51979241775E+03  0.00000000000E+00 0.  1.
         22    1    5    5    0    0 -0.16324332432E+03  0.32980793345E+03  0.42472906307E+02  0.37043974365E+03  0.00000000000E+00 0.  1.
          5    1    4    4  502    0  0.30654717270E+02  0.92892355594E+02  0.16964296557E+03  0.19588141103E+03  0.47000000000E+01 0. -1.
         -5    1    4    4    0  502  0.36134342473E+02 -0.38910927971E+02  0.77362829144E+02  0.93951308425E+02  0.47000000000E+01 0. -1.
<mgrwt>
<rscale>  0 0.10000226E+04</rscale>
<asrwt>0</asrwt>
<pdfrwt beam="1">  1        2 0.13896688E+00 0.10000226E+04</pdfrwt>
<pdfrwt beam="2">  1       -2 0.42581560E-01 0.10000226E+04</pdfrwt>
<totfact> 0.18450371E+02</totfact>
</mgrwt>
</event>
<event>
 9    1  0.4246427E-036  0.9999102E+03  0.7818608E-02  0.8681124E-01
          3   -1    0    0  501    0  0.00000000000E+00  0.00000000000E+00  0.83175589812E+03  0.83175589812E+03  0.00000000000E+00 0. -1.
         -3   -1    0    0    0  501 -0.00000000000E+00 -0.00000000000E+00 -0.30051494687E+03  0.30051494687E+03  0.00000000000E+00 0. -1.
         36    2    1    2    0    0  0.14210854715E-13 -0.71054273576E-14  0.53124095125E+03  0.11322708450E+04  0.99991015503E+03 0.  0.
         25    2    3    3    0    0  0.10571878395E+03  0.12977571440E+02  0.20342868958E+03  0.26135703914E+03  0.12481743278E+03 0.  0.
         35    2    3    3    0    0 -0.10571878395E+03 -0.12977571440E+02  0.32781226168E+03  0.87091380586E+03  0.79980316309E+03 0.  0.
         22    1    5    5    0    0 -0.28285901857E+03 -0.32538869384E+03  0.26570921611E+03  0.50644685209E+03  0.00000000000E+00 0. -1.
         22    1    5    5    0    0  0.17714023463E+03  0.31241112240E+03  0.62103045563E+02  0.36446695377E+03  0.00000000000E+00 0. -1.
          5    1    4    4  502    0  0.11535488925E+03  0.19586948251E+02  0.21463347861E+03  0.24449952792E+03  0.47000000000E+01 0. -1.
         -5    1    4    4    0  502 -0.96361053014E+01 -0.66093768113E+01 -0.11204789030E+02  0.16857511217E+02  0.47000000000E+01 0. -1.
<mgrwt>
<rscale>  0 0.99991016E+03</rscale>
<asrwt>0</asrwt>
<pdfrwt beam="1">  1        3 0.12796244E+00 0.99991016E+03</pdfrwt>
<pdfrwt beam="2">  1       -3 0.46233069E-01 0.99991016E+03</pdfrwt>
<totfact> 0.94367309E+00</totfact>
</mgrwt>
</event>
<event>
 9    1  0.4246427E-036  0.9990033E+03  0.7818608E-02  0.8681988E-01
         -2   -1    0    0    0  501 -0.00000000000E+00  0.00000000000E+00  0.77655693927E+02  0.77655693927E+02  0.00000000000E+00 0.  1.
          2   -1    0    0  501    0  0.00000000000E+00 -0.00000000000E+00 -0.32129248242E+04  0.32129248242E+04  0.00000000000E+00 0.  1.
         36    2    1    2    0    0  0.00000000000E+00 -0.14210854715E-13 -0.31352691302E+04  0.32905805181E+04  0.99900331682E+03 0.  0.
         25    2    3    3    0    0 -0.13384429019E+03 -0.91903097093E+01 -0.46949146713E+03  0.50409988415E+03  0.12528247957E+03 0.  0.
         35    2    3    3    0    0  0.13384429019E+03  0.91903097093E+01 -0.26657776631E+04  0.27864806339E+04  0.80006563379E+03 0.  0.
         22    1    5    5    0    0  0.24720899127E+03  0.22435447556E+03 -0.24119641735E+04  0.24349575746E+04  0.00000000000E+00 0. -1.
         22    1    5    5    0    0 -0.11336470108E+03 -0.21516416585E+03 -0.25381348965E+03  0.35152305933E+03  0.00000000000E+00 0. -1.
          5    1    4    4  502    0 -0.55273675937E+02 -0.54799950676E+02 -0.12114542892E+03  0.14407122819E+03  0.47000000000E+01 0.  1.
         -5    1    4    4    0  502 -0.78570614255E+02  0.45609640967E+02 -0.34834603821E+03  0.36002865596E+03  0.47000000000E+01 0.  1.
<mgrwt>
<rscale>  0 0.99900332E+03</rscale>
<asrwt>0</asrwt>
<pdfrwt beam="1">  1        2 0.49429605E+00 0.99900332E+03</pdfrwt>
<pdfrwt beam="2">  1       -2 0.11947032E-01 0.99900332E+03</pdfrwt>
<totfact> 0.69823525E+01</totfact>
</mgrwt>
</event>
<event>
 9    1  0.4246427E-036  0.9999541E+03  0.7818608E-02  0.8681082E-01
         -3   -1    0    0    0  501 -0.00000000000E+00  0.00000000000E+00  0.89168146776E+02  0.89168146776E+02  0.00000000000E+00 0. -1.
          3   -1    0    0  501    0  0.00000000000E+00 -0.00000000000E+00 -0.28034344130E+04  0.28034344130E+04  0.00000000000E+00 0. -1.
         36    2    1    2    0    0  0.71054273576E-14  0.28421709430E-13 -0.27142662662E+04  0.28926025598E+04  0.99995410138E+03 0.  0.
         25    2    3    3    0    0  0.23414816714E+02 -0.13648756919E+03 -0.46594337872E+03  0.50221024806E+03  0.12623308164E+03 0.  0.
         35    2    3    3    0    0 -0.23414816714E+02  0.13648756919E+03 -0.22483228875E+04  0.23903923117E+04  0.79990154847E+03 0.  0.
         22    1    5    5    0    0 -0.91438848345E+02 -0.32460160855E+03 -0.11177781512E+04  0.11675424029E+04  0.00000000000E+00 0. -1.
         22    1    5    5    0    0  0.68024031630E+02  0.46108917774E+03 -0.11305447363E+04  0.12228499088E+04  0.00000000000E+00 0. -1.
          5    1    4    4  502    0  0.94386086952E+01 -0.85820998111E+02 -0.42941045966E+03  0.43802940988E+03  0.47000000000E+01 0. -1.
         -5    1    4    4    0  502  0.13976208019E+02 -0.50666571075E+02 -0.36532919059E+02  0.64180838185E+02  0.47000000000E+01 0. -1.
<mgrwt>
<rscale>  0 0.99995410E+03</rscale>
<asrwt>0</asrwt>
<pdfrwt beam="1">  1        3 0.43129756E+00 0.99995410E+03</pdfrwt>
<pdfrwt beam="2">  1       -3 0.13718178E-01 0.99995410E+03</pdfrwt>
<totfact> 0.32600883E+00</totfact>
</mgrwt>
</event>
<event>
 9    1  0.4246427E-036  0.9999113E+03  0.7818608E-02  0.8681122E-01
          2   -1    0    0  501    0  0.00000000000E+00  0.00000000000E+00  0.30506594325E+04  0.30506594325E+04  0.00000000000E+00 0. -1.
         -2   -1    0    0    0  501 -0.00000000000E+00 -0.00000000000E+00 -0.81934954111E+02  0.81934954111E+02  0.00000000000E+00 0. -1.
         36    2    1    2    0    0  0.42632564146E-13  0.71054273576E-14  0.29687244784E+04  0.31325943866E+04  0.99991127729E+03 0.  0.
         25    2    3    3    0    0  0.12767962493E+03 -0.38639266586E+02  0.69038487836E+03  0.71410264344E+03  0.12456414231E+03 0.  0.
         35    2    3    3    0    0 -0.12767962493E+03  0.38639266586E+02  0.22783396000E+04  0.24184917432E+04  0.80029738173E+03 0.  0.
         22    1    5    5    0    0  0.13528742062E+03  0.10420581972E+03  0.56040457116E+02  0.17972777158E+03  0.00000000000E+00 0. -1.
         22    1    5    5    0    0 -0.26296704555E+03 -0.65566553135E+02  0.22222991429E+04  0.22387639716E+04  0.00000000000E+00 0. -1.
          5    1    4    4  502    0  0.96675483370E+02  0.21107759223E+02  0.25583699873E+03  0.27434712775E+03  0.47000000000E+01 0. -1.
         -5    1    4    4    0  502  0.31004141562E+02 -0.59747025809E+02  0.43454787963E+03  0.43975551568E+03  0.47000000000E+01 0. -1.
<mgrwt>
<rscale>  0 0.99991128E+03</rscale>
<asrwt>0</asrwt>
<pdfrwt beam="1">  1        2 0.46933213E+00 0.99991128E+03</pdfrwt>
<pdfrwt beam="2">  1       -2 0.12605380E-01 0.99991128E+03</pdfrwt>
<totfact> 0.82648109E+01</totfact>
</mgrwt>
</event>
<event>
 9    1  0.4246427E-036  0.1000822E+04  0.7818608E-02  0.8680256E-01
          2   -1    0    0  501    0  0.00000000000E+00  0.00000000000E+00  0.47795062562E+04  0.47795062562E+04  0.00000000000E+00 0.  1.
         -2   -1    0    0    0  501 -0.00000000000E+00 -0.00000000000E+00 -0.52392665719E+02  0.52392665719E+02  0.00000000000E+00 0.  1.
         36    2    1    2    0    0  0.28421709430E-13  0.00000000000E+00  0.47271135905E+04  0.48318989219E+04  0.10008218095E+04 0.  0.
         25    2    3    3    0    0  0.84115088352E+02  0.11045195732E+03  0.99530693570E+03  0.10125860711E+04  0.12417597246E+03 0.  0.
         35    2    3    3    0    0 -0.84115088352E+02 -0.11045195732E+03  0.37318066548E+04  0.38193128509E+04  0.80093368073E+03 0.  0.
         22    1    5    5    0    0 -0.42866204194E+03 -0.81539044390E+02  0.15487648278E+04  0.16090594314E+04  0.00000000000E+00 0.  1.
         22    1    5    5    0    0  0.34454695359E+03 -0.28912912932E+02  0.21830418270E+04  0.22102534195E+04  0.00000000000E+00 0.  1.
          5    1    4    4  502    0  0.58665313825E+02 -0.67586489966E+01  0.21144122360E+03  0.21958319476E+03  0.47000000000E+01 0. -1.
         -5    1    4    4    0  502  0.25449774527E+02  0.11721060632E+03  0.78386571210E+03  0.79300287633E+03  0.47000000000E+01 0. -1.
<mgrwt>
<rscale>  0 0.10008218E+04</rscale>
<asrwt>0</asrwt>
<pdfrwt beam="1">  1        2 0.73530831E+00 0.10008218E+04</pdfrwt>
<pdfrwt beam="2">  1       -2 0.80604139E-02 0.10008218E+04</pdfrwt>
<totfact> 0.52819699E+00</totfact>
</mgrwt>
</event>
<event>
 9    1  0.4246427E-036  0.9995781E+03  0.7818608E-02  0.8681440E-01
          2   -1    0    0  501    0  0.00000000000E+00  0.00000000000E+00  0.33493015531E+03  0.33493015531E+03  0.00000000000E+00 0. -1.
         -2   -1    0    0    0  501 -0.00000000000E+00 -0.00000000000E+00 -0.74579452209E+03  0.74579452209E+03  0.00000000000E+00 0. -1.
         36    2    1    2    0    0  0.00000000000E+00 -0.71054273576E-14 -0.41086436678E+03  0.10807246774E+04  0.99957806122E+03 0.  0.
         25    2    3    3    0    0  0.95330590207E+02 -0.83840490765E+01 -0.18762176940E+03  0.24498757089E+03  0.12513499842E+03 0.  0.
         35    2    3    3    0    0 -0.95330590207E+02  0.83840490765E+01 -0.22324259738E+03  0.83573710652E+03  0.79966307919E+03 0.  0.
         22    1    5    5    0    0 -0.23444296265E+03 -0.12332157451E+03 -0.46022023751E+03  0.53101259918E+03  0.00000000000E+00 0. -1.
         22    1    5    5    0    0  0.13911237245E+03  0.13170562359E+03  0.23697764012E+03  0.30472450734E+03  0.00000000000E+00 0. -1.
          5    1    4    4  502    0  0.45098043118E+02  0.53161026966E+02 -0.49669698814E+02  0.85726875957E+02  0.47000000000E+01 0.  1.
         -5    1    4    4    0  502  0.50232547089E+02 -0.61545076042E+02 -0.13795207058E+03  0.15926069493E+03  0.47000000000E+01 0.  1.
<mgrwt>
<rscale>  0 0.99957806E+03</rscale>
<asrwt>0</asrwt>
<pdfrwt beam="1">  1        2 0.51527717E-01 0.99957806E+03</pdfrwt>
<pdfrwt beam="2">  1       -2 0.11473762E+00 0.99957806E+03</pdfrwt>
<totfact> 0.67514268E+01</totfact>
</mgrwt>
</event>
<event>
 9    1  0.4246427E-036  0.9999738E+03  0.7818608E-02  0.8681063E-01
         -2   -1    0    0    0  501 -0.00000000000E+00  0.00000000000E+00  0.14371481114E+03  0.14371481114E+03  0.00000000000E+00 0. -1.
          2   -1    0    0  501    0  0.00000000000E+00 -0.00000000000E+00 -0.17394649542E+04  0.17394649542E+04  0.00000000000E+00 0. -1.
         36    2    1    2    0    0  0.71054273576E-14  0.00000000000E+00 -0.15957501430E+04  0.18831797653E+04  0.99997375441E+03 0.  0.
         25    2    3    3    0    0 -0.42433533525E+02 -0.12224780451E+03 -0.20105595636E+03  0.26996448126E+03  0.12534828711E+03 0.  0.
         35    2    3    3    0    0  0.42433533525E+02  0.12224780451E+03 -0.13946941867E+04  0.16132152840E+04  0.80034151953E+03 0.  0.
         22    1    5    5    0    0 -0.18648442233E+02  0.80809014192E+02 -0.14902028022E+04  0.14925087111E+04  0.00000000000E+00 0.  1.
         22    1    5    5    0    0  0.61081975758E+02  0.41438790322E+02  0.95508615520E+02  0.12070657291E+03  0.00000000000E+00 0.  1.
          5    1    4    4  502    0 -0.55289011962E+02 -0.92962832412E+02 -0.57051077198E+02  0.12237597176E+03  0.47000000000E+01 0.  1.
         -5    1    4    4    0  502  0.12855478437E+02 -0.29284972101E+02 -0.14400487916E+03  0.14758850951E+03  0.47000000000E+01 0.  1.
<mgrwt>
<rscale>  0 0.99997375E+03</rscale>
<asrwt>0</asrwt>
<pdfrwt beam="1">  1        2 0.26761001E+00 0.99997375E+03</pdfrwt>
<pdfrwt beam="2">  1       -2 0.22109970E-01 0.99997375E+03</pdfrwt>
<totfact> 0.19771306E+02</totfact>
</mgrwt>
</event>
<event>
 9    1  0.4246427E-036  0.9995646E+03  0.7818608E-02  0.8681453E-01
          1   -1    0    0  501    0  0.00000000000E+00  0.00000000000E+00  0.12350019732E+04  0.12350019732E+04  0.00000000000E+00 0.  1.
         -1   -1    0    0    0  501 -0.00000000000E+00 -0.00000000000E+00 -0.20225260976E+03  0.20225260976E+03  0.00000000000E+00 0.  1.
         36    2    1    2    0    0  0.21316282073E-13 -0.14210854715E-13  0.10327493635E+04  0.14372545830E+04  0.99956464954E+03 0.  0.
         25    2    3    3    0    0 -0.21649429045E+02 -0.80919540255E+02  0.32116358498E+02  0.15387634746E+03  0.12501919873E+03 0.  0.
         35    2    3    3    0    0  0.21649429045E+02  0.80919540255E+02  0.10006330050E+04  0.12833782355E+04  0.79923501866E+03 0.  0.
         22    1    5    5    0    0 -0.31337739608E+03 -0.93682633400E+02  0.78017693528E+03  0.84596564855E+03  0.00000000000E+00 0.  1.
         22    1    5    5    0    0  0.33502682513E+03  0.17460217366E+03  0.22045606969E+03  0.43741258700E+03  0.00000000000E+00 0.  1.
          5    1    4    4  502    0 -0.14537150539E+02 -0.14079737388E+02 -0.46143798044E+02  0.50605413235E+02  0.47000000000E+01 0. -1.
         -5    1    4    4    0  502 -0.71122785062E+01 -0.66839802867E+02  0.78260156543E+02  0.10327093422E+03  0.47000000000E+01 0. -1.
<mgrwt>
<rscale>  0 0.99956465E+03</rscale>
<asrwt>0</asrwt>
<pdfrwt beam="1">  1        1 0.19000030E+00 0.99956465E+03</pdfrwt>
<pdfrwt beam="2">  1       -1 0.31115787E-01 0.99956465E+03</pdfrwt>
<totfact> 0.10600138E+02</totfact>
</mgrwt>
</event>
<event>
 9    1  0.4246427E-036  0.9996263E+03  0.7818608E-02  0.8681394E-01
          2   -1    0    0  501    0  0.00000000000E+00  0.00000000000E+00  0.19260894723E+04  0.19260894723E+04  0.00000000000E+00 0.  1.
         -2   -1    0    0    0  501 -0.00000000000E+00 -0.00000000000E+00 -0.12969968315E+03  0.12969968315E+03  0.00000000000E+00 0.  1.
         36    2    1    2    0    0  0.00000000000E+00  0.00000000000E+00  0.17963897891E+04  0.20557891555E+04  0.99962631875E+03 0.  0.
         25    2    3    3    0    0 -0.37459358068E+02 -0.10421926552E+03  0.14775317839E+03  0.21983915326E+03  0.11930378356E+03 0.  0.
         35    2    3    3    0    0  0.37459358068E+02  0.10421926552E+03  0.16486366108E+04  0.18359500022E+04  0.80027800008E+03 0.  0.
         22    1    5    5    0    0 -0.90188872851E+02  0.10713727563E+03  0.16945029364E+04  0.17002801623E+04  0.00000000000E+00 0.  1.
         22    1    5    5    0    0  0.12764823092E+03 -0.29180101163E+01 -0.45866325663E+02  0.13566983994E+03  0.00000000000E+00 0.  1.
          5    1    4    4  502    0 -0.13826493329E+02 -0.12080766335E+03  0.14665331537E+03  0.19056481404E+03  0.47000000000E+01 0. -1.
         -5    1    4    4    0  502 -0.23632864739E+02  0.16588397829E+02  0.10998630206E+01  0.29274339223E+02  0.47000000000E+01 0. -1.
<mgrwt>
<rscale>  0 0.99962632E+03</rscale>
<asrwt>0</asrwt>
<pdfrwt beam="1">  1        2 0.29632144E+00 0.99962632E+03</pdfrwt>
<pdfrwt beam="2">  1       -2 0.19953799E-01 0.99962632E+03</pdfrwt>
<totfact> 0.18539411E+02</totfact>
</mgrwt>
</event>
<event>
 9    1  0.4246427E-036  0.1000807E+04  0.7818608E-02  0.8680270E-01
         -2   -1    0    0    0  501 -0.00000000000E+00  0.00000000000E+00  0.46455056160E+03  0.46455056160E+03  0.00000000000E+00 0.  1.
          2   -1    0    0  501    0  0.00000000000E+00 -0.00000000000E+00 -0.53902301629E+03  0.53902301629E+03  0.00000000000E+00 0.  1.
         36    2    1    2    0    0  0.00000000000E+00  0.28421709430E-13 -0.74472454692E+02  0.10035735779E+04  0.10008065646E+04 0.  0.
         25    2    3    3    0    0  0.23299996484E+02 -0.30813214025E+02  0.12496057126E+03  0.18091283947E+03  0.12498786790E+03 0.  0.
         35    2    3    3    0    0 -0.23299996484E+02  0.30813214025E+02 -0.19943302595E+03  0.82266073842E+03  0.79718555852E+03 0.  0.
         22    1    5    5    0    0  0.97856082856E+00 -0.30700759263E+03 -0.33809185373E+03  0.45668448745E+03  0.00000000000E+00 0.  1.
         22    1    5    5    0    0 -0.24278557312E+02  0.33782080666E+03  0.13865882778E+03  0.36597625097E+03  0.00000000000E+00 0.  1.
          5    1    4    4  502    0  0.92145818926E+01 -0.70655420920E+02  0.11785988975E+03  0.13780471921E+03  0.47000000000E+01 0.  1.
         -5    1    4    4    0  502  0.14085414591E+02  0.39842206895E+02  0.71006815102E+01  0.43108120261E+02  0.47000000000E+01 0.  1.
<mgrwt>
<rscale>  0 0.10008066E+04</rscale>
<asrwt>0</asrwt>
<pdfrwt beam="1">  1        2 0.82926618E-01 0.10008066E+04</pdfrwt>
<pdfrwt beam="2">  1       -2 0.71469317E-01 0.10008066E+04</pdfrwt>
<totfact> 0.12110018E+02</totfact>
</mgrwt>
</event>
<event>
 9    1  0.4246427E-036  0.1000185E+04  0.7818608E-02  0.8680862E-01
         -1   -1    0    0    0  501 -0.00000000000E+00  0.00000000000E+00  0.52925610619E+03  0.52925610619E+03  0.00000000000E+00 0. -1.
          1   -1    0    0  501    0  0.00000000000E+00 -0.00000000000E+00 -0.47253573107E+03  0.47253573107E+03  0.00000000000E+00 0. -1.
         36    2    1    2    0    0  0.00000000000E+00  0.30198066270E-13  0.56720375122E+02  0.10017918373E+04  0.10001848250E+04 0.  0.
         25    2    3    3    0    0  0.11598900706E+03 -0.67999666244E+01  0.88230412493E+02  0.19280977485E+03  0.12606075631E+03 0.  0.
         35    2    3    3    0    0 -0.11598900706E+03  0.67999666244E+01 -0.31510037371E+02  0.80898206241E+03  0.79997462806E+03 0.  0.
         22    1    5    5    0    0  0.39063315002E+02  0.39156268865E+03 -0.18948552843E+02  0.39396234513E+03  0.00000000000E+00 0. -1.
         22    1    5    5    0    0 -0.15505232207E+03 -0.38476272203E+03 -0.12561484527E+02  0.41501971728E+03  0.00000000000E+00 0. -1.
          5    1    4    4  502    0  0.95283543902E+02 -0.22314327760E+02 -0.28433713085E+01  0.98015599382E+02  0.47000000000E+01 0.  1.
         -5    1    4    4    0  502  0.20705463162E+02  0.15514361135E+02  0.91073783801E+02  0.94794175465E+02  0.47000000000E+01 0.  1.
<mgrwt>
<rscale>  0 0.10001848E+04</rscale>
<asrwt>0</asrwt>
<pdfrwt beam="1">  1        1 0.72697805E-01 0.10001848E+04</pdfrwt>
<pdfrwt beam="2">  1       -1 0.81424016E-01 0.10001848E+04</pdfrwt>
<totfact> 0.85199035E+01</totfact>
</mgrwt>
</event>
<event>
 9    1  0.4246427E-036  0.1001703E+04  0.7818608E-02  0.8679418E-01
         -2   -1    0    0    0  501 -0.00000000000E+00  0.00000000000E+00  0.32407384450E+03  0.32407384450E+03  0.00000000000E+00 0.  1.
          2   -1    0    0  501    0  0.00000000000E+00 -0.00000000000E+00 -0.77405908991E+03  0.77405908991E+03  0.00000000000E+00 0.  1.
         36    2    1    2    0    0  0.00000000000E+00  0.28421709430E-13 -0.44998524540E+03  0.10981329344E+04  0.10017031599E+04 0.  0.
         25    2    3    3    0    0  0.66592632961E+02 -0.12013012665E+03 -0.47362830976E+02  0.19216304199E+03  0.12576792459E+03 0.  0.
         35    2    3    3    0    0 -0.66592632961E+02  0.12013012665E+03 -0.40262241443E+03  0.90596989242E+03  0.79988174831E+03 0.  0.
         22    1    5    5    0    0 -0.20532853517E+03  0.42165063495E+03 -0.30710801356E+03  0.56059289801E+03  0.00000000000E+00 0.  1.
         22    1    5    5    0    0  0.13873590221E+03 -0.30152050830E+03 -0.95514400868E+02  0.34537699440E+03  0.00000000000E+00 0.  1.
          5    1    4    4  502    0  0.32676473279E+02  0.19030290649E+02 -0.28568230038E+02  0.47624968615E+02  0.47000000000E+01 0.  1.
         -5    1    4    4    0  502  0.33916159682E+02 -0.13916041730E+03 -0.18794600938E+02  0.14453807338E+03  0.47000000000E+01 0.  1.
<mgrwt>
<rscale>  0 0.10017032E+04</rscale>
<asrwt>0</asrwt>
<pdfrwt beam="1">  1        2 0.11908601E+00 0.10017032E+04</pdfrwt>
<pdfrwt beam="2">  1       -2 0.49857515E-01 0.10017032E+04</pdfrwt>
<totfact> 0.16579755E+02</totfact>
</mgrwt>
</event>
<event>
 9    1  0.4246427E-036  0.9981814E+03  0.7818608E-02  0.8682772E-01
         -1   -1    0    0    0  501 -0.00000000000E+00  0.00000000000E+00  0.96357133272E+02  0.96357133272E+02  0.00000000000E+00 0. -1.
          1   -1    0    0  501    0  0.00000000000E+00 -0.00000000000E+00 -0.25850865241E+04  0.25850865241E+04  0.00000000000E+00 0. -1.
         36    2    1    2    0    0  0.00000000000E+00 -0.35527136788E-13 -0.24887293908E+04  0.26814436573E+04  0.99818139978E+03 0.  0.
         25    2    3    3    0    0  0.10940519978E+03 -0.50583792035E+02 -0.29219525778E+03  0.34053676434E+03  0.12672411547E+03 0.  0.
         35    2    3    3    0    0 -0.10940519978E+03  0.50583792035E+02 -0.21965341330E+04  0.23409068930E+04  0.80034659144E+03 0.  0.
         22    1    5    5    0    0 -0.13106110316E+03  0.36636491200E+03 -0.61311405423E+03  0.72616052289E+03  0.00000000000E+00 0.  1.
         22    1    5    5    0    0  0.21655903383E+02 -0.31578111997E+03 -0.15834200788E+04  0.16147463701E+04  0.00000000000E+00 0.  1.
          5    1    4    4  502    0  0.36436025318E+01  0.23181817271E+02 -0.13529206924E+03  0.13739252705E+03  0.47000000000E+01 0. -1.
         -5    1    4    4    0  502  0.10576159724E+03 -0.73765609306E+02 -0.15690318854E+03  0.20314423729E+03  0.47000000000E+01 0. -1.
<mgrwt>
<rscale>  0 0.99818140E+03</rscale>
<asrwt>0</asrwt>
<pdfrwt beam="1">  1        1 0.39770565E+00 0.99818140E+03</pdfrwt>
<pdfrwt beam="2">  1       -1 0.14824173E-01 0.99818140E+03</pdfrwt>
<totfact> 0.40333397E+01</totfact>
</mgrwt>
</event>
<event>
 9    1  0.4246427E-036  0.1001134E+04  0.7818608E-02  0.8679959E-01
         -2   -1    0    0    0  501 -0.00000000000E+00  0.00000000000E+00  0.23574668291E+03  0.23574668291E+03  0.00000000000E+00 0. -1.
          2   -1    0    0  501    0  0.00000000000E+00 -0.00000000000E+00 -0.10628662757E+04  0.10628662757E+04  0.00000000000E+00 0. -1.
         36    2    1    2    0    0 -0.35527136788E-14  0.00000000000E+00 -0.82711959280E+03  0.12986129586E+04  0.10011337551E+04 0.  0.
         25    2    3    3    0    0  0.11786859532E+02  0.12583122307E+03 -0.24006546663E+03  0.29842537196E+03  0.12431350532E+03 0.  0.
         35    2    3    3    0    0 -0.11786859532E+02 -0.12583122307E+03 -0.58705412617E+03  0.10001875867E+04  0.79985638381E+03 0.  0.
         22    1    5    5    0    0 -0.29194880622E+03 -0.28488252521E+03 -0.53669016355E+03  0.67411311386E+03  0.00000000000E+00 0.  1.
         22    1    5    5    0    0  0.28016194669E+03  0.15905130214E+03 -0.50363962623E+02  0.32607447281E+03  0.00000000000E+00 0.  1.
          5    1    4    4  502    0  0.18175449741E+01  0.94633548465E+02 -0.53252267154E+02  0.10870467295E+03  0.47000000000E+01 0.  1.
         -5    1    4    4    0  502  0.99693145576E+01  0.31197674607E+02 -0.18681319947E+03  0.18972069901E+03  0.47000000000E+01 0.  1.
<mgrwt>
<rscale>  0 0.10011338E+04</rscale>
<asrwt>0</asrwt>
<pdfrwt beam="1">  1        2 0.16351789E+00 0.10011338E+04</pdfrwt>
<pdfrwt beam="2">  1       -2 0.36268720E-01 0.10011338E+04</pdfrwt>
<totfact> 0.19851836E+02</totfact>
</mgrwt>
</event>
<event>
 9    1  0.4246427E-036  0.9965574E+03  0.7818608E-02  0.8684323E-01
          2   -1    0    0  501    0  0.00000000000E+00  0.00000000000E+00  0.61091586826E+03  0.61091586826E+03  0.00000000000E+00 0.  1.
         -2   -1    0    0    0  501 -0.00000000000E+00 -0.00000000000E+00 -0.40640890198E+03  0.40640890198E+03  0.00000000000E+00 0.  1.
         36    2    1    2    0    0 -0.28421709430E-13  0.21316282073E-13  0.20450696628E+03  0.10173247702E+04  0.99655736859E+03 0.  0.
         25    2    3    3    0    0 -0.11213387125E+03  0.38817736367E+02 -0.34902870372E+02  0.17568837518E+03  0.12476927937E+03 0.  0.
         35    2    3    3    0    0  0.11213387125E+03 -0.38817736367E+02  0.23940983665E+03  0.84163639507E+03  0.79809393550E+03 0.  0.
         22    1    5    5    0    0 -0.25978390240E+03 -0.24040842096E+03  0.22286692059E+03  0.41827449015E+03  0.00000000000E+00 0.  1.
         22    1    5    5    0    0  0.37191777364E+03  0.20159068459E+03  0.16542916061E+02  0.42336190492E+03  0.00000000000E+00 0.  1.
          5    1    4    4  502    0 -0.72262613734E+02  0.25018564578E+02 -0.82040354953E+02  0.11225205458E+03  0.47000000000E+01 0.  1.
         -5    1    4    4    0  502 -0.39871257514E+02  0.13799171789E+02  0.47137484581E+02  0.63436320593E+02  0.47000000000E+01 0.  1.
<mgrwt>
<rscale>  0 0.99655737E+03</rscale>
<asrwt>0</asrwt>
<pdfrwt beam="1">  1        2 0.93987057E-01 0.99655737E+03</pdfrwt>
<pdfrwt beam="2">  1       -2 0.62524446E-01 0.99655737E+03</pdfrwt>
<totfact> 0.13928015E+02</totfact>
</mgrwt>
</event>
<event>
 9    1  0.4246427E-036  0.9992123E+03  0.7818608E-02  0.8681788E-01
          3   -1    0    0  501    0  0.00000000000E+00  0.00000000000E+00  0.82344076813E+03  0.82344076813E+03  0.00000000000E+00 0. -1.
         -3   -1    0    0    0  501 -0.00000000000E+00 -0.00000000000E+00 -0.30312600492E+03  0.30312600492E+03  0.00000000000E+00 0. -1.
         36    2    1    2    0    0  0.14210854715E-13  0.00000000000E+00  0.52031476321E+03  0.11265667730E+04  0.99921231043E+03 0.  0.
         25    2    3    3    0    0 -0.11364901198E+03 -0.22816231016E+02  0.80600863492E+01  0.16961129260E+03  0.12355706076E+03 0.  0.
         35    2    3    3    0    0  0.11364901198E+03  0.22816231016E+02  0.51225467687E+03  0.95695548045E+03  0.79995141056E+03 0.  0.
         22    1    5    5    0    0  0.11267019391E+03  0.35711222223E+02  0.72965748120E+03  0.73916838667E+03  0.00000000000E+00 0. -1.
         22    1    5    5    0    0  0.97881807771E+00 -0.12894991207E+02 -0.21740280433E+03  0.21778709377E+03  0.00000000000E+00 0. -1.
          5    1    4    4  502    0  0.96074890351E+01  0.47665382986E+01  0.37964483029E+02  0.39729280192E+02  0.47000000000E+01 0. -1.
         -5    1    4    4    0  502 -0.12325650102E+03 -0.27582769315E+02 -0.29904396680E+02  0.12988201241E+03  0.47000000000E+01 0. -1.
<mgrwt>
<rscale>  0 0.99921231E+03</rscale>
<asrwt>0</asrwt>
<pdfrwt beam="1">  1        3 0.12668319E+00 0.99921231E+03</pdfrwt>
<pdfrwt beam="2">  1       -3 0.46634770E-01 0.99921231E+03</pdfrwt>
<totfact> 0.95079403E+00</totfact>
</mgrwt>
</event>
<event>
 9    1  0.4246427E-036  0.1000829E+04  0.7818608E-02  0.8680249E-01
          1   -1    0    0  501    0  0.00000000000E+00  0.00000000000E+00  0.19374528996E+04  0.19374528996E+04  0.00000000000E+00 0.  1.
         -1   -1    0    0    0  501 -0.00000000000E+00 -0.00000000000E+00 -0.12924937957E+03  0.12924937957E+03  0.00000000000E+00 0.  1.
         36    2    1    2    0    0  0.00000000000E+00 -0.14210854715E-13  0.18082035201E+04  0.20667022792E+04  0.10008288270E+04 0.  0.
         25    2    3    3    0    0 -0.10627797886E+03 -0.84142277084E+02  0.25862591241E+03  0.31769383473E+03  0.12516820073E+03 0.  0.
         35    2    3    3    0    0  0.10627797886E+03  0.84142277084E+02  0.15495776077E+04  0.17490084445E+04  0.79966545825E+03 0.  0.
         22    1    5    5    0    0 -0.15366078349E+02  0.43726411812E+03  0.82604783479E+03  0.93476791276E+03  0.00000000000E+00 0.  1.
         22    1    5    5    0    0  0.12164405721E+03 -0.35312184104E+03  0.72352977287E+03  0.81424053172E+03  0.00000000000E+00 0.  1.
          5    1    4    4  502    0 -0.77168290039E+02 -0.96577552280E+02  0.10961948431E+03  0.16528971515E+03  0.47000000000E+01 0. -1.
         -5    1    4    4    0  502 -0.29109688825E+02  0.12435275196E+02  0.14900642810E+03  0.15240411959E+03  0.47000000000E+01 0. -1.
<mgrwt>
<rscale>  0 0.10008288E+04</rscale>
<asrwt>0</asrwt>
<pdfrwt beam="1">  1        1 0.29806966E+00 0.10008288E+04</pdfrwt>
<pdfrwt beam="2">  1       -1 0.19884521E-01 0.10008288E+04</pdfrwt>
<totfact> 0.71132936E+01</totfact>
</mgrwt>
</event>
<event>
 9    1  0.4246427E-036  0.1000126E+04  0.7818608E-02  0.8680918E-01
          2   -1    0    0  501    0  0.00000000000E+00  0.00000000000E+00  0.26144782710E+03  0.26144782710E+03  0.00000000000E+00 0. -1.
         -2   -1    0    0    0  501 -0.00000000000E+00 -0.00000000000E+00 -0.95645416726E+03  0.95645416726E+03  0.00000000000E+00 0. -1.
         36    2    1    2    0    0  0.00000000000E+00  0.00000000000E+00 -0.69500634016E+03  0.12179019944E+04  0.10001257196E+04 0.  0.
         25    2    3    3    0    0 -0.54245486029E+02 -0.12472549784E+03 -0.16192512017E+03  0.24547784159E+03  0.12466195732E+03 0.  0.
         35    2    3    3    0    0  0.54245486029E+02  0.12472549784E+03 -0.53308121999E+03  0.97242415277E+03  0.80183172999E+03 0.  0.
         22    1    5    5    0    0 -0.10340434625E+03 -0.29911001824E+03 -0.67925024361E+02  0.32368668612E+03  0.00000000000E+00 0.  1.
         22    1    5    5    0    0  0.15764983228E+03  0.42383551608E+03 -0.46515619563E+03  0.64873746665E+03  0.00000000000E+00 0.  1.
          5    1    4    4  502    0  0.49795513575E+01 -0.25401065823E+02 -0.11926023016E+03  0.12212740305E+03  0.47000000000E+01 0. -1.
         -5    1    4    4    0  502 -0.59225037386E+02 -0.99324432013E+02 -0.42664890008E+02  0.12335043854E+03  0.47000000000E+01 0. -1.
<mgrwt>
<rscale>  0 0.10001257E+04</rscale>
<asrwt>0</asrwt>
<pdfrwt beam="1">  1        2 0.40222743E-01 0.10001257E+04</pdfrwt>
<pdfrwt beam="2">  1       -2 0.14714679E+00 0.10001257E+04</pdfrwt>
<totfact> 0.45815318E+01</totfact>
</mgrwt>
</event>
<event>
 9    1  0.4246427E-036  0.9993329E+03  0.7818608E-02  0.8681673E-01
          1   -1    0    0  501    0  0.00000000000E+00  0.00000000000E+00  0.11494511794E+04  0.11494511794E+04  0.00000000000E+00 0.  1.
         -1   -1    0    0    0  501 -0.00000000000E+00 -0.00000000000E+00 -0.21720500944E+03  0.21720500944E+03  0.00000000000E+00 0.  1.
         36    2    1    2    0    0  0.00000000000E+00  0.00000000000E+00  0.93224616994E+03  0.13666561888E+04  0.99933288602E+03 0.  0.
         25    2    3    3    0    0 -0.89367125511E+02 -0.10553524401E+02  0.31439965258E+02  0.15832049431E+03  0.12640825727E+03 0.  0.
         35    2    3    3    0    0  0.89367125511E+02  0.10553524401E+02  0.90080620468E+03  0.12083356945E+04  0.80032835276E+03 0.  0.
         22    1    5    5    0    0  0.23942981556E+03  0.20566445637E+03  0.46210433983E+02  0.31899829059E+03  0.00000000000E+00 0. -1.
         22    1    5    5    0    0 -0.15006269005E+03 -0.19511093196E+03  0.85459577070E+03  0.88933740392E+03  0.00000000000E+00 0. -1.
          5    1    4    4  502    0 -0.69523204158E+02 -0.44545851473E+02 -0.27617389396E+02  0.87192998555E+02  0.47000000000E+01 0.  1.
         -5    1    4    4    0  502 -0.19843921353E+02  0.33992327072E+02  0.59057354654E+02  0.71127495760E+02  0.47000000000E+01 0.  1.
<mgrwt>
<rscale>  0 0.99933289E+03</rscale>
<asrwt>0</asrwt>
<pdfrwt beam="1">  1        1 0.17683864E+00 0.99933289E+03</pdfrwt>
<pdfrwt beam="2">  1       -1 0.33416156E-01 0.99933289E+03</pdfrwt>
<totfact> 0.10861575E+02</totfact>
</mgrwt>
</event>
<event>
 9    1  0.4246427E-036  0.9995376E+03  0.7818608E-02  0.8681478E-01
          1   -1    0    0  501    0  0.00000000000E+00  0.00000000000E+00  0.12527283588E+04  0.12527283588E+04  0.00000000000E+00 0.  1.
         -1   -1    0    0    0  501 -0.00000000000E+00 -0.00000000000E+00 -0.19937989245E+03  0.19937989245E+03  0.00000000000E+00 0.  1.
         36    2    1    2    0    0  0.14210854715E-13  0.00000000000E+00  0.10533484663E+04  0.14521082512E+04  0.99953758397E+03 0.  0.
         25    2    3    3    0    0 -0.59807589517E+02 -0.11381199124E+03  0.11811436615E+03  0.21464755151E+03  0.12486973517E+03 0.  0.
         35    2    3    3    0    0  0.59807589517E+02  0.11381199124E+03  0.93523410017E+03  0.12374606997E+04  0.80007252428E+03 0.  0.
         22    1    5    5    0    0 -0.97159343581E+02  0.15857585789E+03  0.10313871302E+04  0.10480198725E+04  0.00000000000E+00 0.  1.
         22    1    5    5    0    0  0.15696693310E+03 -0.44763866645E+02 -0.96153030030E+02  0.18944082725E+03  0.00000000000E+00 0.  1.
          5    1    4    4  502    0 -0.52595931228E+02  0.22291303612E+01  0.72379127342E+02  0.89622146140E+02  0.47000000000E+01 0. -1.
         -5    1    4    4    0  502 -0.72116582896E+01 -0.11604112160E+03  0.45735238810E+02  0.12502540537E+03  0.47000000000E+01 0. -1.
<mgrwt>
<rscale>  0 0.99953758E+03</rscale>
<asrwt>0</asrwt>
<pdfrwt beam="1">  1        1 0.19272743E+00 0.99953758E+03</pdfrwt>
<pdfrwt beam="2">  1       -1 0.30673830E-01 0.99953758E+03</pdfrwt>
<totfact> 0.10541204E+02</totfact>
</mgrwt>
</event>
<event>
 9    1  0.4246427E-036  0.1000545E+04  0.7818608E-02  0.8680519E-01
          1   -1    0    0  501    0  0.00000000000E+00  0.00000000000E+00  0.71756915979E+03  0.71756915979E+03  0.00000000000E+00 0.  1.
         -1   -1    0    0    0  501 -0.00000000000E+00 -0.00000000000E+00 -0.34877859348E+03  0.34877859348E+03  0.00000000000E+00 0.  1.
         36    2    1    2    0    0  0.00000000000E+00 -0.14210854715E-13  0.36879056631E+03  0.10663477533E+04  0.10005453758E+04 0.  0.
         25    2    3    3    0    0  0.11341003112E+03 -0.71706575117E+02  0.13094583005E+03  0.22530041627E+03  0.12493918157E+03 0.  0.
         35    2    3    3    0    0 -0.11341003112E+03  0.71706575117E+02  0.23784473626E+03  0.84104733699E+03  0.79547899810E+03 0.  0.
         22    1    5    5    0    0 -0.16843833345E+03  0.20226498072E+03 -0.23165388242E+03  0.35063672916E+03  0.00000000000E+00 0. -1.
         22    1    5    5    0    0  0.55028302328E+02 -0.13055840560E+03  0.46949861868E+03  0.49041060783E+03  0.00000000000E+00 0. -1.
          5    1    4    4  502    0 -0.13534579075E+02  0.19172579547E+02  0.33610839946E+02  0.41261982491E+02  0.47000000000E+01 0. -1.
         -5    1    4    4    0  502  0.12694461019E+03 -0.90879154664E+02  0.97334990104E+02  0.18403843378E+03  0.47000000000E+01 0. -1.
<mgrwt>
<rscale>  0 0.10005454E+04</rscale>
<asrwt>0</asrwt>
<pdfrwt beam="1">  1        1 0.11039525E+00 0.10005454E+04</pdfrwt>
<pdfrwt beam="2">  1       -1 0.53658245E-01 0.10005454E+04</pdfrwt>
<totfact> 0.10555528E+02</totfact>
</mgrwt>
</event>
<event>
 9    1  0.4246427E-036  0.9991510E+03  0.7818608E-02  0.8681847E-01
         -2   -1    0    0    0  501 -0.00000000000E+00  0.00000000000E+00  0.42309594094E+03  0.42309594094E+03  0.00000000000E+00 0. -1.
          2   -1    0    0  501    0  0.00000000000E+00 -0.00000000000E+00 -0.58987967533E+03  0.58987967533E+03  0.00000000000E+00 0. -1.
         36    2    1    2    0    0  0.71054273576E-14  0.00000000000E+00 -0.16678373439E+03  0.10129756163E+04  0.99915103218E+03 0.  0.
         25    2    3    3    0    0  0.33950448676E+02  0.13215032404E+03 -0.19970287601E+01  0.18440478638E+03  0.12403546269E+03 0.  0.
         35    2    3    3    0    0 -0.33950448676E+02 -0.13215032404E+03 -0.16478670563E+03  0.82857082990E+03  0.80047399751E+03 0.  0.
         22    1    5    5    0    0  0.20561531390E+03 -0.29990741351E+03 -0.33139572024E+03  0.49198093193E+03  0.00000000000E+00 0. -1.
         22    1    5    5    0    0 -0.23956576257E+03  0.16775708946E+03  0.16660901461E+03  0.33658989797E+03  0.00000000000E+00 0. -1.
          5    1    4    4  502    0  0.40883441506E+02  0.14303122486E+03 -0.31259276421E+02  0.15208096342E+03  0.47000000000E+01 0.  1.
         -5    1    4    4    0  502 -0.69329928306E+01 -0.10880900812E+02  0.29262247661E+02  0.32323822952E+02  0.47000000000E+01 0.  1.
<mgrwt>
<rscale>  0 0.99915103E+03</rscale>
<asrwt>0</asrwt>
<pdfrwt beam="1">  1        2 0.90750719E-01 0.99915103E+03</pdfrwt>
<pdfrwt beam="2">  1       -2 0.65091683E-01 0.99915103E+03</pdfrwt>
<totfact> 0.13331969E+02</totfact>
</mgrwt>
</event>
<event>
 9    1  0.4246427E-036  0.1000042E+04  0.7818608E-02  0.8680998E-01
         -2   -1    0    0    0  501 -0.00000000000E+00  0.00000000000E+00  0.14262590844E+03  0.14262590844E+03  0.00000000000E+00 0. -1.
          2   -1    0    0  501    0  0.00000000000E+00 -0.00000000000E+00 -0.17529833601E+04  0.17529833601E+04  0.00000000000E+00 0. -1.
         36    2    1    2    0    0  0.28421709430E-13  0.00000000000E+00 -0.16103574516E+04  0.18956092685E+04  0.10000416876E+04 0.  0.
         25    2    3    3    0    0 -0.13117176748E+03 -0.29036441653E+02 -0.22600553470E+03  0.29114126169E+03  0.12504233290E+03 0.  0.
         35    2    3    3    0    0  0.13117176748E+03  0.29036441653E+02 -0.13843519169E+04  0.16044680068E+04  0.79989887327E+03 0.  0.
         22    1    5    5    0    0  0.20687677489E+03  0.12690767307E+02 -0.14725649560E+04  0.14870798920E+04  0.00000000000E+00 0.  1.
         22    1    5    5    0    0 -0.75705007406E+02  0.16345674346E+02  0.88213039123E+02  0.11738811476E+03  0.00000000000E+00 0.  1.
          5    1    4    4  502    0 -0.33062658174E+02  0.48087451273E+02 -0.76789651939E+02  0.96562326921E+02  0.47000000000E+01 0.  1.
         -5    1    4    4    0  502 -0.98109109306E+02 -0.77123892926E+02 -0.14921588276E+03  0.19457893477E+03  0.47000000000E+01 0.  1.
<mgrwt>
<rscale>  0 0.10000417E+04</rscale>
<asrwt>0</asrwt>
<pdfrwt beam="1">  1        2 0.26968975E+00 0.10000417E+04</pdfrwt>
<pdfrwt beam="2">  1       -2 0.21942448E-01 0.10000417E+04</pdfrwt>
<totfact> 0.19687611E+02</totfact>
</mgrwt>
</event>
<event>
 9    1  0.4246427E-036  0.1004768E+04  0.7818608E-02  0.8676511E-01
          2   -1    0    0  501    0  0.00000000000E+00  0.00000000000E+00  0.75113918166E+03  0.75113918166E+03  0.00000000000E+00 0. -1.
         -2   -1    0    0    0  501 -0.00000000000E+00 -0.00000000000E+00 -0.33600926888E+03  0.33600926888E+03  0.00000000000E+00 0. -1.
         36    2    1    2    0    0  0.11546319456E-13  0.14210854715E-13  0.41512991278E+03  0.10871484505E+04  0.10047680872E+04 0.  0.
         25    2    3    3    0    0 -0.55264240220E+01  0.76249830110E+02  0.21237074933E+03  0.25841296726E+03  0.12582268683E+03 0.  0.
         35    2    3    3    0    0  0.55264240220E+01 -0.76249830110E+02  0.20275916345E+03  0.82873548328E+03  0.79990414734E+03 0.  0.
         22    1    5    5    0    0  0.20104346642E+03 -0.32631278103E+03  0.31077433461E+03  0.49343610884E+03  0.00000000000E+00 0. -1.
         22    1    5    5    0    0 -0.19551704240E+03  0.25006295092E+03 -0.10801517117E+03  0.33529937443E+03  0.00000000000E+00 0. -1.
          5    1    4    4  502    0  0.45037884537E+01 -0.33863607754E+02  0.33516407628E+02  0.48088123491E+02  0.47000000000E+01 0.  1.
         -5    1    4    4    0  502 -0.10030212476E+02  0.11011343786E+03  0.17885434170E+03  0.21032484377E+03  0.47000000000E+01 0.  1.
<mgrwt>
<rscale>  0 0.10047681E+04</rscale>
<asrwt>0</asrwt>
<pdfrwt beam="1">  1        2 0.11555987E+00 0.10047681E+04</pdfrwt>
<pdfrwt beam="2">  1       -2 0.51693734E-01 0.10047681E+04</pdfrwt>
<totfact> 0.16015659E+02</totfact>
</mgrwt>
</event>
<event>
 9    1  0.4246427E-036  0.1000266E+04  0.7818608E-02  0.8680784E-01
         -2   -1    0    0    0  501 -0.00000000000E+00  0.00000000000E+00  0.15525263400E+03  0.15525263400E+03  0.00000000000E+00 0.  1.
          2   -1    0    0  501    0  0.00000000000E+00 -0.00000000000E+00 -0.16111360684E+04  0.16111360684E+04  0.00000000000E+00 0.  1.
         36    2    1    2    0    0 -0.14210854715E-13 -0.14210854715E-13 -0.14558834344E+04  0.17663887024E+04  0.10002662013E+04 0.  0.
         25    2    3    3    0    0 -0.68986827953E+02  0.36252397777E+02 -0.46512592812E+03  0.48772080930E+03  0.12432232315E+03 0.  0.
         35    2    3    3    0    0  0.68986827953E+02 -0.36252397777E+02 -0.99075750628E+03  0.12786678931E+04  0.80456057934E+03 0.  0.
         22    1    5    5    0    0  0.19695506757E+03  0.97203571763E+02 -0.10590333932E+04  0.10815690273E+04  0.00000000000E+00 0. -1.
         22    1    5    5    0    0 -0.12796823962E+03 -0.13345596954E+03  0.68275886904E+02  0.19709886577E+03  0.00000000000E+00 0. -1.
          5    1    4    4  502    0 -0.74288771915E+02  0.35357958237E+00 -0.12392152015E+03  0.14455995229E+03  0.47000000000E+01 0. -1.
         -5    1    4    4    0  502  0.53019439626E+01  0.35898818194E+02 -0.34120440797E+03  0.34316085700E+03  0.47000000000E+01 0. -1.
<mgrwt>
<rscale>  0 0.10002662E+04</rscale>
<asrwt>0</asrwt>
<pdfrwt beam="1">  1        2 0.24786710E+00 0.10002662E+04</pdfrwt>
<pdfrwt beam="2">  1       -2 0.23885020E-01 0.10002662E+04</pdfrwt>
<totfact> 0.20390316E+02</totfact>
</mgrwt>
</event>
<event>
 9    1  0.4246427E-036  0.1000269E+04  0.7818608E-02  0.8680782E-01
         -2   -1    0    0    0  501 -0.00000000000E+00  0.00000000000E+00  0.27754997794E+03  0.27754997794E+03  0.00000000000E+00 0.  1.
          2   -1    0    0  501    0  0.00000000000E+00 -0.00000000000E+00 -0.90122257270E+03  0.90122257270E+03  0.00000000000E+00 0.  1.
         36    2    1    2    0    0 -0.28421709430E-13 -0.28421709430E-13 -0.62367259476E+03  0.11787725506E+04  0.10002685743E+04 0.  0.
         25    2    3    3    0    0  0.12275109374E+03 -0.69317598797E+02 -0.11227230408E+03  0.21912487092E+03  0.12465102596E+03 0.  0.
         35    2    3    3    0    0 -0.12275109374E+03  0.69317598797E+02 -0.51140029067E+03  0.95964767972E+03  0.79970035099E+03 0.  0.
         22    1    5    5    0    0  0.11650882778E+03  0.39182904874E+03 -0.22715687244E+03  0.46765858817E+03  0.00000000000E+00 0. -1.
         22    1    5    5    0    0 -0.23925992152E+03 -0.32251144995E+03 -0.28424341824E+03  0.49198909155E+03  0.00000000000E+00 0. -1.
          5    1    4    4  502    0  0.87136494723E+02 -0.96630705467E+02 -0.11527372316E+03  0.17389762276E+03  0.47000000000E+01 0.  1.
         -5    1    4    4    0  502  0.35614599018E+02  0.27313106670E+02  0.30014190755E+01  0.45227248154E+02  0.47000000000E+01 0.  1.
<mgrwt>
<rscale>  0 0.10002686E+04</rscale>
<asrwt>0</asrwt>
<pdfrwt beam="1">  1        2 0.13864962E+00 0.10002686E+04</pdfrwt>
<pdfrwt beam="2">  1       -2 0.42699997E-01 0.10002686E+04</pdfrwt>
<totfact> 0.18408702E+02</totfact>
</mgrwt>
</event>
<event>
 9    1  0.4246427E-036  0.9993711E+03  0.7818608E-02  0.8681637E-01
          2   -1    0    0  501    0  0.00000000000E+00  0.00000000000E+00  0.11377391886E+04  0.11377391886E+04  0.00000000000E+00 0.  1.
         -2   -1    0    0    0  501 -0.00000000000E+00 -0.00000000000E+00 -0.21945772226E+03  0.21945772226E+03  0.00000000000E+00 0.  1.
         36    2    1    2    0    0  0.71054273576E-14  0.00000000000E+00  0.91828146635E+03  0.13571969109E+04  0.99937110396E+03 0.  0.
         25    2    3    3    0    0  0.61956275542E+00 -0.12790234572E+03  0.24822437673E+03  0.30590130310E+03  0.12490345126E+03 0.  0.
         35    2    3    3    0    0 -0.61956275542E+00  0.12790234572E+03  0.67005708962E+03  0.10512956078E+04  0.79992909540E+03 0.  0.
         22    1    5    5    0    0 -0.10213234992E+03  0.44586273104E+03  0.27338666409E+03  0.53288353318E+03  0.00000000000E+00 0.  1.
         22    1    5    5    0    0  0.10151278717E+03 -0.31796038532E+03  0.39667042553E+03  0.51841207460E+03  0.00000000000E+00 0.  1.
          5    1    4    4  502    0 -0.60635987196E+02 -0.80200310169E+02  0.13059017994E+03  0.16487782686E+03  0.47000000000E+01 0.  1.
         -5    1    4    4    0  502  0.61255549951E+02 -0.47702035548E+02  0.11763419679E+03  0.14102347624E+03  0.47000000000E+01 0.  1.
<mgrwt>
<rscale>  0 0.99937110E+03</rscale>
<asrwt>0</asrwt>
<pdfrwt beam="1">  1        2 0.17503679E+00 0.99937110E+03</pdfrwt>
<pdfrwt beam="2">  1       -2 0.33762727E-01 0.99937110E+03</pdfrwt>
<totfact> 0.20437473E+02</totfact>
</mgrwt>
</event>
<event>
 9    1  0.4246427E-036  0.1000222E+04  0.7818608E-02  0.8680827E-01
          1   -1    0    0  501    0  0.00000000000E+00  0.00000000000E+00  0.31974439729E+04  0.31974439729E+04  0.00000000000E+00 0. -1.
         -1   -1    0    0    0  501 -0.00000000000E+00 -0.00000000000E+00 -0.78222110988E+02  0.78222110988E+02  0.00000000000E+00 0. -1.
         36    2    1    2    0    0 -0.24868995752E-13  0.00000000000E+00  0.31192218620E+04  0.32756660839E+04  0.10002216101E+04 0.  0.
         25    2    3    3    0    0 -0.26709890297E+02  0.99135708260E+02  0.27500061438E+03  0.31937124695E+03  0.12582268705E+03 0.  0.
         35    2    3    3    0    0  0.26709890297E+02 -0.99135708260E+02  0.28442212476E+04  0.29562948370E+04  0.79971454352E+03 0.  0.
         22    1    5    5    0    0 -0.30532677092E+03 -0.27899723424E+02  0.22587558963E+04  0.22794694626E+04  0.00000000000E+00 0.  1.
         22    1    5    5    0    0  0.33203666122E+03 -0.71235984836E+02  0.58546535123E+03  0.67682537439E+03  0.00000000000E+00 0.  1.
          5    1    4    4  502    0  0.46651752331E+01  0.77239608828E+02  0.52667635521E+02  0.93721346892E+02  0.47000000000E+01 0. -1.
         -5    1    4    4    0  502 -0.31375065530E+02  0.21896099432E+02  0.22233297886E+03  0.22564990006E+03  0.47000000000E+01 0. -1.
<mgrwt>
<rscale>  0 0.10002216E+04</rscale>
<asrwt>0</asrwt>
<pdfrwt beam="1">  1        1 0.49191436E+00 0.10002216E+04</pdfrwt>
<pdfrwt beam="2">  1       -1 0.12034173E-01 0.10002216E+04</pdfrwt>
<totfact> 0.20450292E+01</totfact>
</mgrwt>
</event>
<event>
 9    1  0.4246427E-036  0.9997097E+03  0.7818608E-02  0.8681314E-01
          1   -1    0    0  501    0  0.00000000000E+00  0.00000000000E+00  0.58550064387E+03  0.58550064387E+03  0.00000000000E+00 0. -1.
         -1   -1    0    0    0  501 -0.00000000000E+00 -0.00000000000E+00 -0.42673710928E+03  0.42673710928E+03  0.00000000000E+00 0. -1.
         36    2    1    2    0    0 -0.71054273576E-14  0.00000000000E+00  0.15876353459E+03  0.10122377532E+04  0.99970966235E+03 0.  0.
         25    2    3    3    0    0  0.31993503172E+02  0.44025457184E+02  0.16214255657E+03  0.21130764878E+03  0.12409225864E+03 0.  0.
         35    2    3    3    0    0 -0.31993503172E+02 -0.44025457184E+02 -0.33790219840E+01  0.80093010438E+03  0.79907182980E+03 0.  0.
         22    1    5    5    0    0 -0.33771481692E+03 -0.24878771103E+02 -0.23899626640E+03  0.41447492828E+03  0.00000000000E+00 0.  1.
         22    1    5    5    0    0  0.30572131375E+03 -0.19146686082E+02  0.23561724442E+03  0.38645517610E+03  0.00000000000E+00 0.  1.
          5    1    4    4  502    0 -0.46123853757E+02  0.28114367528E+02  0.80877667263E+02  0.97371015239E+02  0.47000000000E+01 0. -1.
         -5    1    4    4    0  502  0.78117356928E+02  0.15911089657E+02  0.81264889311E+02  0.11393663354E+03  0.47000000000E+01 0. -1.
<mgrwt>
<rscale>  0 0.99970966E+03</rscale>
<asrwt>0</asrwt>
<pdfrwt beam="1">  1        1 0.90077022E-01 0.99970966E+03</pdfrwt>
<pdfrwt beam="2">  1       -1 0.65651863E-01 0.99970966E+03</pdfrwt>
<totfact> 0.97301691E+01</totfact>
</mgrwt>
</event>
<event>
 9    1  0.4246427E-036  0.1000031E+04  0.7818608E-02  0.8681009E-01
         -2   -1    0    0    0  501 -0.00000000000E+00  0.00000000000E+00  0.41425136050E+03  0.41425136050E+03  0.00000000000E+00 0. -1.
          2   -1    0    0  501    0  0.00000000000E+00 -0.00000000000E+00 -0.60353524748E+03  0.60353524748E+03  0.00000000000E+00 0. -1.
         36    2    1    2    0    0 -0.14210854715E-13  0.00000000000E+00 -0.18928388698E+03  0.10177866080E+04  0.10000305943E+04 0.  0.
         25    2    3    3    0    0  0.39118912540E+02  0.12934898170E+03 -0.71641219256E+02  0.19875045894E+03  0.12691663503E+03 0.  0.
         35    2    3    3    0    0 -0.39118912540E+02 -0.12934898170E+03 -0.11764266772E+03  0.81903614903E+03  0.79919895381E+03 0.  0.
         22    1    5    5    0    0 -0.14860446331E+03 -0.44799288799E+03 -0.43104724113E+02  0.47396089654E+03  0.00000000000E+00 0.  1.
         22    1    5    5    0    0  0.10948555077E+03  0.31864390629E+03 -0.74537943612E+02  0.34507525249E+03  0.00000000000E+00 0.  1.
          5    1    4    4  502    0 -0.29604342580E+02  0.93175776638E+02 -0.79486750551E+01  0.98200885367E+02  0.47000000000E+01 0.  1.
         -5    1    4    4    0  502  0.68723255120E+02  0.36173205058E+02 -0.63692544201E+02  0.10054957357E+03  0.47000000000E+01 0.  1.
<mgrwt>
<rscale>  0 0.10000306E+04</rscale>
<asrwt>0</asrwt>
<pdfrwt beam="1">  1        2 0.92851577E-01 0.10000306E+04</pdfrwt>
<pdfrwt beam="2">  1       -2 0.63730978E-01 0.10000306E+04</pdfrwt>
<totfact> 0.13570448E+02</totfact>
</mgrwt>
</event>
<event>
 9    1  0.4246427E-036  0.1000501E+04  0.7818608E-02  0.8680561E-01
         -2   -1    0    0    0  501 -0.00000000000E+00  0.00000000000E+00  0.23217658452E+03  0.23217658452E+03  0.00000000000E+00 0. -1.
          2   -1    0    0  501    0  0.00000000000E+00 -0.00000000000E+00 -0.10778464773E+04  0.10778464773E+04  0.00000000000E+00 0. -1.
         36    2    1    2    0    0  0.14210854715E-13  0.00000000000E+00 -0.84566989278E+03  0.13100230618E+04  0.10005013018E+04 0.  0.
         25    2    3    3    0    0  0.12348667292E+03 -0.10348784965E+02 -0.23228296982E+03  0.29122190261E+03  0.12449402697E+03 0.  0.
         35    2    3    3    0    0 -0.12348667292E+03  0.10348784965E+02 -0.61338692296E+03  0.10188011592E+04  0.80396282812E+03 0.  0.
         22    1    5    5    0    0  0.33292579300E+02  0.46568327495E+02 -0.78295134256E+03  0.78504127903E+03  0.00000000000E+00 0.  1.
         22    1    5    5    0    0 -0.15677925222E+03 -0.36219542530E+02  0.16956441960E+03  0.23375988018E+03  0.00000000000E+00 0.  1.
          5    1    4    4  502    0  0.10032581777E+03  0.37965313874E+02 -0.93480862498E+02  0.14236360638E+03  0.47000000000E+01 0. -1.
         -5    1    4    4    0  502  0.23160855151E+02 -0.48314098839E+02 -0.13880210732E+03  0.14885829622E+03  0.47000000000E+01 0. -1.
<mgrwt>
<rscale>  0 0.10005013E+04</rscale>
<asrwt>0</asrwt>
<pdfrwt beam="1">  1        2 0.16582254E+00 0.10005013E+04</pdfrwt>
<pdfrwt beam="2">  1       -2 0.35719474E-01 0.10005013E+04</pdfrwt>
<totfact> 0.20001263E+02</totfact>
</mgrwt>
</event>
<event>
 9    1  0.4246427E-036  0.9987756E+03  0.7818608E-02  0.8682205E-01
         -1   -1    0    0    0  501 -0.00000000000E+00  0.00000000000E+00  0.59055847110E+03  0.59055847110E+03  0.00000000000E+00 0.  1.
          1   -1    0    0  501    0  0.00000000000E+00 -0.00000000000E+00 -0.42229208386E+03  0.42229208386E+03  0.00000000000E+00 0.  1.
         36    2    1    2    0    0  0.14210854715E-13  0.00000000000E+00  0.16826638724E+03  0.10128505550E+04  0.99877558520E+03 0.  0.
         25    2    3    3    0    0  0.79279950743E+02 -0.44602801726E+02 -0.73634872185E+02  0.17106443448E+03  0.12476468183E+03 0.  0.
         35    2    3    3    0    0 -0.79279950743E+02  0.44602801726E+02  0.24190125942E+03  0.84178612047E+03  0.80113228171E+03 0.  0.
         22    1    5    5    0    0 -0.26744722926E+03  0.21892825252E+02  0.47244573124E+03  0.54333441379E+03  0.00000000000E+00 0. -1.
         22    1    5    5    0    0  0.18816727852E+03  0.22709976474E+02 -0.23054447182E+03  0.29845170668E+03  0.00000000000E+00 0. -1.
          5    1    4    4  502    0  0.10682300770E+03 -0.55860734841E+02 -0.72854014785E+02  0.14093038758E+03  0.47000000000E+01 0.  1.
         -5    1    4    4    0  502 -0.27543056962E+02  0.11257933115E+02 -0.78085740015E+00  0.30134046909E+02  0.47000000000E+01 0.  1.
<mgrwt>
<rscale>  0 0.99877559E+03</rscale>
<asrwt>0</asrwt>
<pdfrwt beam="1">  1        1 0.64968013E-01 0.99877559E+03</pdfrwt>
<pdfrwt beam="2">  1       -1 0.90855150E-01 0.99877559E+03</pdfrwt>
<totfact> 0.78610198E+01</totfact>
</mgrwt>
</event>
<event>
 9    1  0.4246427E-036  0.9987679E+03  0.7818608E-02  0.8682212E-01
          2   -1    0    0  501    0  0.00000000000E+00  0.00000000000E+00  0.12475437145E+04  0.12475437145E+04  0.00000000000E+00 0. -1.
         -2   -1    0    0    0  501 -0.00000000000E+00 -0.00000000000E+00 -0.19990028961E+03  0.19990028961E+03  0.00000000000E+00 0. -1.
         36    2    1    2    0    0  0.35527136788E-14 -0.28421709430E-13  0.10476434249E+04  0.14474440041E+04  0.99876794068E+03 0.  0.
         25    2    3    3    0    0  0.13439683453E+02 -0.11294969561E+03  0.30794546916E+03  0.35096259011E+03  0.12412118614E+03 0.  0.
         35    2    3    3    0    0 -0.13439683453E+02  0.11294969561E+03  0.73969795576E+03  0.10964814140E+04  0.80136144575E+03 0.  0.
         22    1    5    5    0    0 -0.53439465018E+02  0.44725873573E+03  0.29396997358E+03  0.53787963196E+03  0.00000000000E+00 0. -1.
         22    1    5    5    0    0  0.39999781565E+02 -0.33430904013E+03  0.44572798218E+03  0.55860178207E+03  0.00000000000E+00 0. -1.
          5    1    4    4  502    0  0.34097979687E+02 -0.73508802077E+01  0.18142643803E+03  0.18480895562E+03  0.47000000000E+01 0.  1.
         -5    1    4    4    0  502 -0.20658296233E+02 -0.10559881540E+03  0.12651903113E+03  0.16615363449E+03  0.47000000000E+01 0.  1.
<mgrwt>
<rscale>  0 0.99876794E+03</rscale>
<asrwt>0</asrwt>
<pdfrwt beam="1">  1        2 0.19192980E+00 0.99876794E+03</pdfrwt>
<pdfrwt beam="2">  1       -2 0.30753891E-01 0.99876794E+03</pdfrwt>
<totfact> 0.20895613E+02</totfact>
</mgrwt>
</event>
<event>
 9    1  0.4246427E-036  0.1002639E+04  0.7818608E-02  0.8678529E-01
          2   -1    0    0  501    0  0.00000000000E+00  0.00000000000E+00  0.66064114696E+03  0.66064114696E+03  0.00000000000E+00 0. -1.
         -2   -1    0    0    0  501 -0.00000000000E+00 -0.00000000000E+00 -0.38042031234E+03  0.38042031234E+03  0.00000000000E+00 0. -1.
         36    2    1    2    0    0  0.28421709430E-13  0.00000000000E+00  0.28022083462E+03  0.10410614593E+04  0.10026391404E+04 0.  0.
         25    2    3    3    0    0  0.12305943101E+03 -0.68906965993E+02  0.32357510073E+02  0.19278056405E+03  0.12737952698E+03 0.  0.
         35    2    3    3    0    0 -0.12305943101E+03  0.68906965993E+02  0.24786332454E+03  0.84828089524E+03  0.79890703843E+03 0.  0.
         22    1    5    5    0    0 -0.44999522438E+03  0.44190898244E+02  0.27010296965E+02  0.45296588569E+03  0.00000000000E+00 0. -1.
         22    1    5    5    0    0  0.32693579337E+03  0.24716067749E+02  0.22085302758E+03  0.39531500956E+03  0.00000000000E+00 0. -1.
          5    1    4    4  502    0  0.67734107706E+02 -0.82264772410E+02  0.67022584153E+02  0.12597427878E+03  0.47000000000E+01 0.  1.
         -5    1    4    4    0  502  0.55325323308E+02  0.13357806417E+02 -0.34665074080E+02  0.66806285276E+02  0.47000000000E+01 0.  1.
<mgrwt>
<rscale>  0 0.10026391E+04</rscale>
<asrwt>0</asrwt>
<pdfrwt beam="1">  1        2 0.10163710E+00 0.10026391E+04</pdfrwt>
<pdfrwt beam="2">  1       -2 0.58526202E-01 0.10026391E+04</pdfrwt>
<totfact> 0.14554628E+02</totfact>
</mgrwt>
</event>
<event>
 9    1  0.4246427E-036  0.1000467E+04  0.7818608E-02  0.8680593E-01
         -2   -1    0    0    0  501 -0.00000000000E+00  0.00000000000E+00  0.17552812625E+03  0.17552812625E+03  0.00000000000E+00 0. -1.
          2   -1    0    0  501    0  0.00000000000E+00 -0.00000000000E+00 -0.14256035025E+04  0.14256035025E+04  0.00000000000E+00 0. -1.
         36    2    1    2    0    0 -0.28421709430E-13  0.35527136788E-14 -0.12500753762E+04  0.16011316287E+04  0.10004669141E+04 0.  0.
         25    2    3    3    0    0 -0.13652532756E+03 -0.24767468726E+02 -0.28176102834E+03  0.33801173321E+03  0.12494023422E+03 0.  0.
         35    2    3    3    0    0  0.13652532756E+03  0.24767468726E+02 -0.96831434787E+03  0.12631198955E+04  0.79911613771E+03 0.  0.
         22    1    5    5    0    0  0.42412941045E+02  0.40803441147E+03 -0.41553884872E+03  0.58392077657E+03  0.00000000000E+00 0.  1.
         22    1    5    5    0    0  0.94112386520E+02 -0.38326694274E+03 -0.55277549915E+03  0.67919911893E+03  0.00000000000E+00 0.  1.
          5    1    4    4  502    0 -0.12302422326E+03 -0.70470136783E+01 -0.11154545108E+03  0.16628017791E+03  0.47000000000E+01 0.  1.
         -5    1    4    4    0  502 -0.13501104305E+02 -0.17720455047E+02 -0.17021557726E+03  0.17173155530E+03  0.47000000000E+01 0.  1.
<mgrwt>
<rscale>  0 0.10004669E+04</rscale>
<asrwt>0</asrwt>
<pdfrwt beam="1">  1        2 0.21932360E+00 0.10004669E+04</pdfrwt>
<pdfrwt beam="2">  1       -2 0.27004329E-01 0.10004669E+04</pdfrwt>
<totfact> 0.20875911E+02</totfact>
</mgrwt>
</event>
<event>
 9    1  0.4246427E-036  0.1000045E+04  0.7818608E-02  0.8680996E-01
          2   -1    0    0  501    0  0.00000000000E+00  0.00000000000E+00  0.15416013629E+04  0.15416013629E+04  0.00000000000E+00 0.  1.
         -2   -1    0    0    0  501 -0.00000000000E+00 -0.00000000000E+00 -0.16218347090E+03  0.16218347090E+03  0.00000000000E+00 0.  1.
         36    2    1    2    0    0  0.28421709430E-13 -0.71054273576E-14  0.13794178920E+04  0.17037848338E+04  0.10000445186E+04 0.  0.
         25    2    3    3    0    0 -0.12205921923E+03  0.38790793948E+02  0.35077339171E+03  0.39434487235E+03  0.12673881538E+03 0.  0.
         35    2    3    3    0    0  0.12205921923E+03 -0.38790793948E+02  0.10286445003E+04  0.13094399614E+04  0.80007520019E+03 0.  0.
         22    1    5    5    0    0  0.46067165363E+03 -0.97515214650E+01  0.49064438597E+03  0.67308645664E+03  0.00000000000E+00 0. -1.
         22    1    5    5    0    0 -0.33861243440E+03 -0.29039272483E+02  0.53800011429E+03  0.63635350479E+03  0.00000000000E+00 0. -1.
          5    1    4    4  502    0 -0.14752398369E+03  0.24704028095E+02  0.27582154806E+03  0.31380444729E+03  0.47000000000E+01 0. -1.
         -5    1    4    4    0  502  0.25464764465E+02  0.14086765853E+02  0.74951843654E+02  0.80540425058E+02  0.47000000000E+01 0. -1.
<mgrwt>
<rscale>  0 0.10000445E+04</rscale>
<asrwt>0</asrwt>
<pdfrwt beam="1">  1        2 0.23716943E+00 0.10000445E+04</pdfrwt>
<pdfrwt beam="2">  1       -2 0.24951304E-01 0.10000445E+04</pdfrwt>
<totfact> 0.20658923E+02</totfact>
</mgrwt>
</event>
<event>
 9    1  0.4246427E-036  0.9998037E+03  0.7818608E-02  0.8681225E-01
          2   -1    0    0  501    0  0.00000000000E+00  0.00000000000E+00  0.16376506899E+04  0.16376506899E+04  0.00000000000E+00 0.  1.
         -2   -1    0    0    0  501 -0.00000000000E+00 -0.00000000000E+00 -0.15259777842E+03  0.15259777842E+03  0.00000000000E+00 0.  1.
         36    2    1    2    0    0 -0.14210854715E-13  0.00000000000E+00  0.14850529114E+04  0.17902484683E+04  0.99980369493E+03 0.  0.
         25    2    3    3    0    0  0.10594770803E+03 -0.74931479376E+02  0.36104077087E+03  0.40366498850E+03  0.12552028231E+03 0.  0.
         35    2    3    3    0    0 -0.10594770803E+03  0.74931479376E+02  0.11240121406E+04  0.13865834798E+04  0.80148038704E+03 0.  0.
         22    1    5    5    0    0 -0.44038358489E+03 -0.14180295803E+02  0.45516570060E+03  0.63349396022E+03  0.00000000000E+00 0. -1.
         22    1    5    5    0    0  0.33443587687E+03  0.89111775178E+02  0.66884643997E+03  0.75308951956E+03  0.00000000000E+00 0. -1.
          5    1    4    4  502    0  0.75483226493E+02 -0.93196087263E+02  0.16306716410E+03  0.20247522853E+03  0.47000000000E+01 0. -1.
         -5    1    4    4    0  502  0.30464481533E+02  0.18264607888E+02  0.19797360677E+03  0.20118975997E+03  0.47000000000E+01 0. -1.
<mgrwt>
<rscale>  0 0.99980369E+03</rscale>
<asrwt>0</asrwt>
<pdfrwt beam="1">  1        2 0.25194625E+00 0.99980369E+03</pdfrwt>
<pdfrwt beam="2">  1       -2 0.23476582E-01 0.99980369E+03</pdfrwt>
<totfact> 0.20308898E+02</totfact>
</mgrwt>
</event>
<event>
 9    1  0.4246427E-036  0.9999838E+03  0.7818608E-02  0.8681053E-01
          2   -1    0    0  501    0  0.00000000000E+00  0.00000000000E+00  0.12193886940E+04  0.12193886940E+04  0.00000000000E+00 0.  1.
         -2   -1    0    0    0  501 -0.00000000000E+00 -0.00000000000E+00 -0.20501413522E+03  0.20501413522E+03  0.00000000000E+00 0.  1.
         36    2    1    2    0    0  0.00000000000E+00  0.00000000000E+00  0.10143745588E+04  0.14244028292E+04  0.99998383705E+03 0.  0.
         25    2    3    3    0    0 -0.11345647813E+03 -0.86060649706E+02  0.17112276921E+03  0.25531803287E+03  0.12500195163E+03 0.  0.
         35    2    3    3    0    0  0.11345647813E+03  0.86060649706E+02  0.84325178958E+03  0.11690847963E+04  0.79712412620E+03 0.  0.
         22    1    5    5    0    0  0.70177673370E+02 -0.29857118023E+03  0.68573739314E+03  0.75120265432E+03  0.00000000000E+00 0. -1.
         22    1    5    5    0    0  0.43278804759E+02  0.38463182994E+03  0.15751439643E+03  0.41788214203E+03  0.00000000000E+00 0. -1.
          5    1    4    4  502    0 -0.70011874059E+02 -0.93005219384E+02  0.50766777797E+02  0.12708654165E+03  0.47000000000E+01 0. -1.
         -5    1    4    4    0  502 -0.43444604069E+02  0.69445696773E+01  0.12035599142E+03  0.12823149122E+03  0.47000000000E+01 0. -1.
<mgrwt>
<rscale>  0 0.99998384E+03</rscale>
<asrwt>0</asrwt>
<pdfrwt beam="1">  1        2 0.18759826E+00 0.99998384E+03</pdfrwt>
<pdfrwt beam="2">  1       -2 0.31540637E-01 0.99998384E+03</pdfrwt>
<totfact> 0.20723713E+02</totfact>
</mgrwt>
</event>
<event>
 9    1  0.4246427E-036  0.9978361E+03  0.7818608E-02  0.8683101E-01
          1   -1    0    0  501    0  0.00000000000E+00  0.00000000000E+00  0.12129178603E+04  0.12129178603E+04  0.00000000000E+00 0.  1.
         -1   -1    0    0    0  501 -0.00000000000E+00 -0.00000000000E+00 -0.20522349304E+03  0.20522349304E+03  0.00000000000E+00 0.  1.
         36    2    1    2    0    0 -0.14210854715E-13  0.00000000000E+00  0.10076943673E+04  0.14181413534E+04  0.99783613899E+03 0.  0.
         25    2    3    3    0    0  0.11101082352E+03 -0.96289244545E+02  0.18735669950E+03  0.26934013672E+03  0.12588309992E+03 0.  0.
         35    2    3    3    0    0 -0.11101082352E+03  0.96289244545E+02  0.82033766777E+03  0.11488012166E+04  0.79069293954E+03 0.  0.
         22    1    5    5    0    0 -0.26876166844E+03  0.32976487015E+03  0.74372380887E+03  0.85679799713E+03  0.00000000000E+00 0.  1.
         22    1    5    5    0    0  0.15775084493E+03 -0.23347562560E+03  0.76613858895E+02  0.29200321951E+03  0.00000000000E+00 0.  1.
          5    1    4    4  502    0  0.77529570837E+02 -0.11549082535E+03  0.18343736238E+03  0.23026141885E+03  0.47000000000E+01 0.  1.
         -5    1    4    4    0  502  0.33481252679E+02  0.19201580806E+02  0.39193371233E+01  0.39078717864E+02  0.47000000000E+01 0.  1.
<mgrwt>
<rscale>  0 0.99783614E+03</rscale>
<asrwt>0</asrwt>
<pdfrwt beam="1">  1        1 0.18660274E+00 0.99783614E+03</pdfrwt>
<pdfrwt beam="2">  1       -1 0.31572846E-01 0.99783614E+03</pdfrwt>
<totfact> 0.10736938E+02</totfact>
</mgrwt>
</event>
<event>
 9    1  0.4246427E-036  0.9997561E+03  0.7818608E-02  0.8681270E-01
          2   -1    0    0  501    0  0.00000000000E+00  0.00000000000E+00  0.17960836295E+04  0.17960836295E+04  0.00000000000E+00 0.  1.
         -2   -1    0    0    0  501 -0.00000000000E+00 -0.00000000000E+00 -0.13912384842E+03  0.13912384842E+03  0.00000000000E+00 0.  1.
         36    2    1    2    0    0 -0.56843418861E-13 -0.71054273576E-14  0.16569597811E+04  0.19352074779E+04  0.99975610351E+03 0.  0.
         25    2    3    3    0    0  0.12815619792E+03 -0.57731301602E+02  0.33573905463E+03  0.38452357374E+03  0.12401915865E+03 0.  0.
         35    2    3    3    0    0 -0.12815619792E+03  0.57731301602E+02  0.13212207265E+04  0.15506839042E+04  0.79952451397E+03 0.  0.
         22    1    5    5    0    0 -0.46196809115E+03  0.10742647047E+03  0.77073208391E+03  0.90497674498E+03  0.00000000000E+00 0. -1.
         22    1    5    5    0    0  0.33381189323E+03 -0.49695168867E+02  0.55048864255E+03  0.64570715920E+03  0.00000000000E+00 0. -1.
          5    1    4    4  502    0 -0.19871874816E+02  0.11689943014E+02  0.34833224012E+02  0.42035576260E+02  0.47000000000E+01 0.  1.
         -5    1    4    4    0  502  0.14802807274E+03 -0.69421244616E+02  0.30090583062E+03  0.34248799748E+03  0.47000000000E+01 0.  1.
<mgrwt>
<rscale>  0 0.99975610E+03</rscale>
<asrwt>0</asrwt>
<pdfrwt beam="1">  1        2 0.27632054E+00 0.99975610E+03</pdfrwt>
<pdfrwt beam="2">  1       -2 0.21403670E-01 0.99975610E+03</pdfrwt>
<totfact> 0.19441206E+02</totfact>
</mgrwt>
</event>
<event>
 9    1  0.4246427E-036  0.1000188E+04  0.7818608E-02  0.8680859E-01
          1   -1    0    0  501    0  0.00000000000E+00  0.00000000000E+00  0.31591237634E+03  0.31591237634E+03  0.00000000000E+00 0. -1.
         -1   -1    0    0    0  501 -0.00000000000E+00 -0.00000000000E+00 -0.79165624049E+03  0.79165624049E+03  0.00000000000E+00 0. -1.
         36    2    1    2    0    0  0.28421709430E-13  0.00000000000E+00 -0.47574386415E+03  0.11075686168E+04  0.10001879907E+04 0.  0.
         25    2    3    3    0    0  0.56201265186E+02  0.36858329755E+02 -0.22357691278E+03  0.26506075629E+03  0.12551274803E+03 0.  0.
         35    2    3    3    0    0 -0.56201265186E+02 -0.36858329755E+02 -0.25216695137E+03  0.84250786055E+03  0.80107066170E+03 0.  0.
         22    1    5    5    0    0 -0.37933695749E+03  0.16943975409E+03 -0.83968692252E+02  0.42385976320E+03  0.00000000000E+00 0.  1.
         22    1    5    5    0    0  0.32313569231E+03 -0.20629808384E+03 -0.16819825912E+03  0.41864809734E+03  0.00000000000E+00 0.  1.
          5    1    4    4  502    0 -0.32766434797E+02  0.27235893643E+02 -0.31776802221E+02  0.53359987924E+02  0.47000000000E+01 0. -1.
         -5    1    4    4    0  502  0.88967699984E+02  0.96224361118E+01 -0.19180011056E+03  0.21170076837E+03  0.47000000000E+01 0. -1.
<mgrwt>
<rscale>  0 0.10001880E+04</rscale>
<asrwt>0</asrwt>
<pdfrwt beam="1">  1        1 0.48601905E-01 0.10001880E+04</pdfrwt>
<pdfrwt beam="2">  1       -1 0.12179327E+00 0.10001880E+04</pdfrwt>
<totfact> 0.58764980E+01</totfact>
</mgrwt>
</event>
<event>
 9    1  0.4246427E-036  0.9999280E+03  0.7818608E-02  0.8681107E-01
         -1   -1    0    0    0  501 -0.00000000000E+00  0.00000000000E+00  0.11760889372E+03  0.11760889372E+03  0.00000000000E+00 0. -1.
          1   -1    0    0  501    0  0.00000000000E+00 -0.00000000000E+00 -0.21253834490E+04  0.21253834490E+04  0.00000000000E+00 0. -1.
         36    2    1    2    0    0  0.00000000000E+00  0.14210854715E-13 -0.20077745552E+04  0.22429923427E+04  0.99992798975E+03 0.  0.
         25    2    3    3    0    0  0.11153305554E+03  0.54198881768E+02 -0.24061494091E+03  0.29821742092E+03  0.12514367377E+03 0.  0.
         35    2    3    3    0    0 -0.11153305554E+03 -0.54198881768E+02 -0.17671596143E+04  0.19447749218E+04  0.80244579417E+03 0.  0.
         22    1    5    5    0    0 -0.25514119588E+03  0.24916039213E+03 -0.39502199764E+03  0.53218446939E+03  0.00000000000E+00 0. -1.
         22    1    5    5    0    0  0.14360814034E+03 -0.30335927390E+03 -0.13721376167E+04  0.14125904524E+04  0.00000000000E+00 0. -1.
          5    1    4    4  502    0  0.92464828768E+02 -0.20543035273E+02 -0.10034687514E+03  0.13807007716E+03  0.47000000000E+01 0.  1.
         -5    1    4    4    0  502  0.19068226772E+02  0.74741917041E+02 -0.14026806577E+03  0.16014734375E+03  0.47000000000E+01 0.  1.
<mgrwt>
<rscale>  0 0.99992799E+03</rscale>
<asrwt>0</asrwt>
<pdfrwt beam="1">  1        1 0.32698205E+00 0.99992799E+03</pdfrwt>
<pdfrwt beam="2">  1       -1 0.18093677E-01 0.99992799E+03</pdfrwt>
<totfact> 0.61347508E+01</totfact>
</mgrwt>
</event>
<event>
 9    1  0.4246427E-036  0.1000037E+04  0.7818608E-02  0.8681002E-01
          2   -1    0    0  501    0  0.00000000000E+00  0.00000000000E+00  0.18355080228E+04  0.18355080228E+04  0.00000000000E+00 0. -1.
         -2   -1    0    0    0  501 -0.00000000000E+00 -0.00000000000E+00 -0.13621221970E+03  0.13621221970E+03  0.00000000000E+00 0. -1.
         36    2    1    2    0    0  0.00000000000E+00 -0.14210854715E-13  0.16992958031E+04  0.19717202425E+04  0.10000372434E+04 0.  0.
         25    2    3    3    0    0  0.12117896569E+02 -0.79211478882E+02  0.10441958268E+03  0.18546858811E+03  0.13066692820E+03 0.  0.
         35    2    3    3    0    0 -0.12117896569E+02  0.79211478882E+02  0.15948762204E+04  0.17862516543E+04  0.80040209426E+03 0.  0.
         22    1    5    5    0    0 -0.18060495920E+03 -0.32134806004E+03  0.68300970102E+03  0.77613463953E+03  0.00000000000E+00 0.  1.
         22    1    5    5    0    0  0.16848706263E+03  0.40055953892E+03  0.91186651936E+03  0.10101170148E+04  0.00000000000E+00 0.  1.
          5    1    4    4  502    0  0.32491029613E+02  0.74428490260E+01  0.88804134245E+02  0.94970138811E+02  0.47000000000E+01 0. -1.
         -5    1    4    4    0  502 -0.20373133044E+02 -0.86654327908E+02  0.15615448432E+02  0.90498449296E+02  0.47000000000E+01 0. -1.
<mgrwt>
<rscale>  0 0.10000372E+04</rscale>
<asrwt>0</asrwt>
<pdfrwt beam="1">  1        2 0.28238583E+00 0.10000372E+04</pdfrwt>
<pdfrwt beam="2">  1       -2 0.20955727E-01 0.10000372E+04</pdfrwt>
<totfact> 0.19162852E+02</totfact>
</mgrwt>
</event>
<event>
 9    1  0.4246427E-036  0.9932957E+03  0.7818608E-02  0.8687449E-01
          2   -1    0    0  501    0  0.00000000000E+00  0.00000000000E+00  0.21412627579E+04  0.21412627579E+04  0.00000000000E+00 0. -1.
         -2   -1    0    0    0  501 -0.00000000000E+00 -0.00000000000E+00 -0.11519329213E+03  0.11519329213E+03  0.00000000000E+00 0. -1.
         36    2    1    2    0    0 -0.14210854715E-13  0.14210854715E-13  0.20260694657E+04  0.22564560500E+04  0.99329573923E+03 0.  0.
         25    2    3    3    0    0  0.97563549131E+02 -0.44864009729E+02  0.54193660917E+03  0.56708748854E+03  0.12791210190E+03 0.  0.
         35    2    3    3    0    0 -0.97563549131E+02  0.44864009729E+02  0.14841328566E+04  0.16893685614E+04  0.79986522302E+03 0.  0.
         22    1    5    5    0    0  0.24122115765E+03  0.29843440869E+03  0.69017867619E+03  0.78968180191E+03  0.00000000000E+00 0. -1.
         22    1    5    5    0    0 -0.33878470678E+03 -0.25357039896E+03  0.79395418036E+03  0.89968675954E+03  0.00000000000E+00 0. -1.
          5    1    4    4  502    0  0.26132839131E+02  0.20043784384E+02  0.35590369090E+03  0.35745518009E+03  0.47000000000E+01 0.  1.
         -5    1    4    4    0  502  0.71430710000E+02 -0.64907794113E+02  0.18603291827E+03  0.20963230845E+03  0.47000000000E+01 0.  1.
<mgrwt>
<rscale>  0 0.99329574E+03</rscale>
<asrwt>0</asrwt>
<pdfrwt beam="1">  1        2 0.32942501E+00 0.99329574E+03</pdfrwt>
<pdfrwt beam="2">  1       -2 0.17722047E-01 0.99329574E+03</pdfrwt>
<totfact> 0.17125803E+02</totfact>
</mgrwt>
</event>
<event>
 9    1  0.4246427E-036  0.9999019E+03  0.7818608E-02  0.8681131E-01
          2   -1    0    0  501    0  0.00000000000E+00  0.00000000000E+00  0.74449228692E+03  0.74449228692E+03  0.00000000000E+00 0. -1.
         -2   -1    0    0    0  501 -0.00000000000E+00 -0.00000000000E+00 -0.33573343088E+03  0.33573343088E+03  0.00000000000E+00 0. -1.
         36    2    1    2    0    0 -0.56843418861E-13  0.35527136788E-14  0.40875885604E+03  0.10802257178E+04  0.99990189468E+03 0.  0.
         25    2    3    3    0    0  0.12256584246E+03 -0.70127654690E+01  0.44620786022E+02  0.18096693014E+03  0.12524556137E+03 0.  0.
         35    2    3    3    0    0 -0.12256584246E+03  0.70127654690E+01  0.36413807002E+03  0.89925878765E+03  0.81301800011E+03 0.  0.
         22    1    5    5    0    0  0.24761155483E+03 -0.20767203033E+02 -0.13062017582E+03  0.28072119467E+03  0.00000000000E+00 0. -1.
         22    1    5    5    0    0 -0.37017739729E+03  0.27779968502E+02  0.49475824583E+03  0.61853759298E+03  0.00000000000E+00 0. -1.
          5    1    4    4  502    0  0.41338248309E+02  0.49086947956E+02  0.50744946285E+02  0.81948269087E+02  0.47000000000E+01 0. -1.
         -5    1    4    4    0  502  0.81227594154E+02 -0.56099713425E+02 -0.61241602634E+01  0.99018661056E+02  0.47000000000E+01 0. -1.
<mgrwt>
<rscale>  0 0.99990189E+03</rscale>
<asrwt>0</asrwt>
<pdfrwt beam="1">  1        2 0.11453727E+00 0.99990189E+03</pdfrwt>
<pdfrwt beam="2">  1       -2 0.51651297E-01 0.99990189E+03</pdfrwt>
<totfact> 0.16224490E+02</totfact>
</mgrwt>
</event>
<event>
 9    1  0.4246427E-036  0.1000523E+04  0.7818608E-02  0.8680540E-01
          2   -1    0    0  501    0  0.00000000000E+00  0.00000000000E+00  0.23624229407E+04  0.23624229407E+04  0.00000000000E+00 0. -1.
         -2   -1    0    0    0  501 -0.00000000000E+00 -0.00000000000E+00 -0.10593438368E+03  0.10593438368E+03  0.00000000000E+00 0. -1.
         36    2    1    2    0    0  0.00000000000E+00 -0.10658141036E-13  0.22564885570E+04  0.24683573244E+04  0.10005234994E+04 0.  0.
         25    2    3    3    0    0 -0.13587618929E+03 -0.24969408884E+01  0.50597741562E+03  0.53858014513E+03  0.12484732306E+03 0.  0.
         35    2    3    3    0    0  0.13587618929E+03  0.24969408884E+01  0.17505111414E+04  0.19297771793E+04  0.80080093148E+03 0.  0.
         22    1    5    5    0    0 -0.16107624245E+03  0.12122027890E+03  0.15254583565E+04  0.15387212578E+04  0.00000000000E+00 0. -1.
         22    1    5    5    0    0  0.29695243174E+03 -0.11872333801E+03  0.22505278497E+03  0.39105592148E+03  0.00000000000E+00 0. -1.
          5    1    4    4  502    0  0.94648906417E+01  0.15491502908E+02  0.96778473616E+01  0.21102643123E+02  0.47000000000E+01 0.  1.
         -5    1    4    4    0  502 -0.14534107993E+03 -0.17988443796E+02  0.49629956826E+03  0.51747750201E+03  0.47000000000E+01 0.  1.
<mgrwt>
<rscale>  0 0.10005235E+04</rscale>
<asrwt>0</asrwt>
<pdfrwt beam="1">  1        2 0.36344964E+00 0.10005235E+04</pdfrwt>
<pdfrwt beam="2">  1       -2 0.16297599E-01 0.10005235E+04</pdfrwt>
<totfact> 0.14652286E+02</totfact>
</mgrwt>
</event>
<event>
 9    1  0.4246427E-036  0.9995318E+03  0.7818608E-02  0.8681484E-01
         -3   -1    0    0    0  501 -0.00000000000E+00  0.00000000000E+00  0.37412451584E+03  0.37412451584E+03  0.00000000000E+00 0.  1.
          3   -1    0    0  501    0  0.00000000000E+00 -0.00000000000E+00 -0.66760114910E+03  0.66760114910E+03  0.00000000000E+00 0.  1.
         36    2    1    2    0    0  0.28421709430E-13  0.00000000000E+00 -0.29347663326E+03  0.10417256649E+04  0.99953180375E+03 0.  0.
         25    2    3    3    0    0  0.10373109139E+03  0.75935010992E+02 -0.11285461736E+03  0.21205838142E+03  0.12532488682E+03 0.  0.
         35    2    3    3    0    0 -0.10373109139E+03 -0.75935010992E+02 -0.18062201590E+03  0.82966728351E+03  0.79949810724E+03 0.  0.
         22    1    5    5    0    0 -0.26621581517E+03  0.20597599978E+03  0.14756156004E+03  0.36752059362E+03  0.00000000000E+00 0.  1.
         22    1    5    5    0    0  0.16248472378E+03 -0.28191101077E+03 -0.32818357594E+03  0.46214668989E+03  0.00000000000E+00 0.  1.
          5    1    4    4  502    0  0.20053574573E+02  0.70793082500E+02 -0.30010602046E+01  0.73789584261E+02  0.47000000000E+01 0.  1.
         -5    1    4    4    0  502  0.83677516815E+02  0.51419284920E+01 -0.10985355715E+03  0.13826879716E+03  0.47000000000E+01 0.  1.
<mgrwt>
<rscale>  0 0.99953180E+03</rscale>
<asrwt>0</asrwt>
<pdfrwt beam="1">  1        3 0.10270787E+00 0.99953180E+03</pdfrwt>
<pdfrwt beam="2">  1       -3 0.57557618E-01 0.99953180E+03</pdfrwt>
<totfact> 0.10098246E+01</totfact>
</mgrwt>
</event>
<event>
 9    1  0.4246427E-036  0.9996610E+03  0.7818608E-02  0.8681361E-01
          1   -1    0    0  501    0  0.00000000000E+00  0.00000000000E+00  0.16153277901E+04  0.16153277901E+04  0.00000000000E+00 0.  1.
         -1   -1    0    0    0  501 -0.00000000000E+00 -0.00000000000E+00 -0.15466244938E+03  0.15466244938E+03  0.00000000000E+00 0.  1.
         36    2    1    2    0    0 -0.14210854715E-13 -0.71054273576E-14  0.14606653408E+04  0.17699902395E+04  0.99966104771E+03 0.  0.
         25    2    3    3    0    0 -0.10000952070E+03  0.52007318160E+02  0.12709410065E+03  0.21105865856E+03  0.12524448715E+03 0.  0.
         35    2    3    3    0    0  0.10000952070E+03 -0.52007318160E+02  0.13335712401E+04  0.15589315810E+04  0.79946779567E+03 0.  0.
         22    1    5    5    0    0 -0.30415350383E+03  0.13812337309E+03  0.77363344098E+03  0.84267201276E+03  0.00000000000E+00 0. -1.
         22    1    5    5    0    0  0.40416302453E+03 -0.19013069125E+03  0.55993779913E+03  0.71625956821E+03  0.00000000000E+00 0. -1.
          5    1    4    4  502    0 -0.17659251380E+02 -0.26489144002E+02  0.82883166058E+02  0.88911377928E+02  0.47000000000E+01 0.  1.
         -5    1    4    4    0  502 -0.82350269316E+02  0.78496462162E+02  0.44210934595E+02  0.12214728063E+03  0.47000000000E+01 0.  1.
<mgrwt>
<rscale>  0 0.99966105E+03</rscale>
<asrwt>0</asrwt>
<pdfrwt beam="1">  1        1 0.24851196E+00 0.99966105E+03</pdfrwt>
<pdfrwt beam="2">  1       -1 0.23794224E-01 0.99966105E+03</pdfrwt>
<totfact> 0.88932503E+01</totfact>
</mgrwt>
</event>
<event>
 9    1  0.4246427E-036  0.9972569E+03  0.7818608E-02  0.8683655E-01
          2   -1    0    0  501    0  0.00000000000E+00  0.00000000000E+00  0.11387858683E+04  0.11387858683E+04  0.00000000000E+00 0. -1.
         -2   -1    0    0    0  501 -0.00000000000E+00 -0.00000000000E+00 -0.21832930899E+03  0.21832930899E+03  0.00000000000E+00 0. -1.
         36    2    1    2    0    0  0.00000000000E+00  0.28421709430E-13  0.92045655934E+03  0.13571151773E+04  0.99725690114E+03 0.  0.
         25    2    3    3    0    0 -0.50284345376E+02  0.84806981974E+02  0.41467415570E+02  0.16468856616E+03  0.12522794293E+03 0.  0.
         35    2    3    3    0    0  0.50284345376E+02 -0.84806981974E+02  0.87898914377E+03  0.11924266112E+04  0.79971155334E+03 0.  0.
         22    1    5    5    0    0  0.99283037569E+02  0.30694435094E+03  0.67479386217E+03  0.74794298749E+03  0.00000000000E+00 0.  1.
         22    1    5    5    0    0 -0.48998692193E+02 -0.39175133291E+03  0.20419528160E+03  0.44448362366E+03  0.00000000000E+00 0.  1.
          5    1    4    4  502    0 -0.10367076635E+02  0.42098636104E+02  0.82359317237E+02  0.93192910543E+02  0.47000000000E+01 0. -1.
         -5    1    4    4    0  502 -0.39917268741E+02  0.42708345870E+02 -0.40891901667E+02  0.71495655621E+02  0.47000000000E+01 0. -1.
<mgrwt>
<rscale>  0 0.99725690E+03</rscale>
<asrwt>0</asrwt>
<pdfrwt beam="1">  1        2 0.17519782E+00 0.99725690E+03</pdfrwt>
<pdfrwt beam="2">  1       -2 0.33589125E-01 0.99725690E+03</pdfrwt>
<totfact> 0.20604230E+02</totfact>
</mgrwt>
</event>
<event>
 9    1  0.4246427E-036  0.9994497E+03  0.7818608E-02  0.8681562E-01
          2   -1    0    0  501    0  0.00000000000E+00  0.00000000000E+00  0.17551451375E+04  0.17551451375E+04  0.00000000000E+00 0.  1.
         -2   -1    0    0    0  501 -0.00000000000E+00 -0.00000000000E+00 -0.14228164827E+03  0.14228164827E+03  0.00000000000E+00 0.  1.
         36    2    1    2    0    0  0.00000000000E+00  0.14210854715E-13  0.16128634892E+04  0.18974267858E+04  0.99944973485E+03 0.  0.
         25    2    3    3    0    0 -0.58962021824E+02  0.11401552117E+02  0.52982758089E+03  0.54938895928E+03  0.13230437518E+03 0.  0.
         35    2    3    3    0    0  0.58962021824E+02 -0.11401552117E+02  0.10830359084E+04  0.13480378265E+04  0.80039533202E+03 0.  0.
         22    1    5    5    0    0  0.17515411478E+02  0.14995319662E+03 -0.81554583472E+02  0.17159225187E+03  0.00000000000E+00 0. -1.
         22    1    5    5    0    0  0.41446610346E+02 -0.16135474874E+03  0.11645904918E+04  0.11764455746E+04  0.00000000000E+00 0. -1.
          5    1    4    4  502    0 -0.28789147313E+02 -0.60126708674E+02  0.27177654525E+03  0.27987250070E+03  0.47000000000E+01 0.  1.
         -5    1    4    4    0  502 -0.30172874511E+02  0.71528260791E+02  0.25805103564E+03  0.26951645858E+03  0.47000000000E+01 0.  1.
<mgrwt>
<rscale>  0 0.99944973E+03</rscale>
<asrwt>0</asrwt>
<pdfrwt beam="1">  1        2 0.27002231E+00 0.99944973E+03</pdfrwt>
<pdfrwt beam="2">  1       -2 0.21889486E-01 0.99944973E+03</pdfrwt>
<totfact> 0.19715522E+02</totfact>
</mgrwt>
</event>
<event>
 9    1  0.4246427E-036  0.9999893E+03  0.7818608E-02  0.8681048E-01
         -2   -1    0    0    0  501 -0.00000000000E+00  0.00000000000E+00  0.28221158282E+03  0.28221158282E+03  0.00000000000E+00 0.  1.
          2   -1    0    0  501    0  0.00000000000E+00 -0.00000000000E+00 -0.88584127464E+03  0.88584127464E+03  0.00000000000E+00 0.  1.
         36    2    1    2    0    0  0.00000000000E+00 -0.71054273576E-14 -0.60362969182E+03  0.11680528575E+04  0.99998933643E+03 0.  0.
         25    2    3    3    0    0  0.13956359446E+03 -0.10173446396E+02 -0.12061654476E+03  0.22345698908E+03  0.12571069639E+03 0.  0.
         35    2    3    3    0    0 -0.13956359446E+03  0.10173446396E+02 -0.48301314705E+03  0.94459586837E+03  0.79961125455E+03 0.  0.
         22    1    5    5    0    0 -0.38569090051E+03  0.12823559650E+03 -0.52968247240E+03  0.66765661872E+03  0.00000000000E+00 0. -1.
         22    1    5    5    0    0  0.24612730605E+03 -0.11806215010E+03  0.46669325348E+02  0.27693924966E+03  0.00000000000E+00 0. -1.
          5    1    4    4  502    0  0.69644858076E+02  0.50869767831E+02 -0.92055829568E+02  0.12623195037E+03  0.47000000000E+01 0. -1.
         -5    1    4    4    0  502  0.69918736386E+02 -0.61043214226E+02 -0.28560715196E+02  0.97225038716E+02  0.47000000000E+01 0. -1.
<mgrwt>
<rscale>  0 0.99998934E+03</rscale>
<asrwt>0</asrwt>
<pdfrwt beam="1">  1        2 0.13628327E+00 0.99998934E+03</pdfrwt>
<pdfrwt beam="2">  1       -2 0.43417167E-01 0.99998934E+03</pdfrwt>
<totfact> 0.18245279E+02</totfact>
</mgrwt>
</event>
<event>
 9    1  0.4246427E-036  0.1001036E+04  0.7818608E-02  0.8680052E-01
          1   -1    0    0  501    0  0.00000000000E+00  0.00000000000E+00  0.11278208346E+04  0.11278208346E+04  0.00000000000E+00 0. -1.
         -1   -1    0    0    0  501 -0.00000000000E+00 -0.00000000000E+00 -0.22212594082E+03  0.22212594082E+03  0.00000000000E+00 0. -1.
         36    2    1    2    0    0  0.00000000000E+00 -0.14210854715E-13  0.90569489375E+03  0.13499467754E+04  0.10010359913E+04 0.  0.
         25    2    3    3    0    0 -0.38973850061E+02  0.12348340285E+03  0.24567736910E+03  0.30445982488E+03  0.12478502919E+03 0.  0.
         35    2    3    3    0    0  0.38973850061E+02 -0.12348340285E+03  0.66001752466E+03  0.10454869505E+04  0.80040784547E+03 0.  0.
         22    1    5    5    0    0 -0.42077430303E+02 -0.32356916956E+03  0.74512592337E+03  0.81343724977E+03  0.00000000000E+00 0.  1.
         22    1    5    5    0    0  0.81051280364E+02  0.20008576671E+03 -0.85108398709E+02  0.23204970076E+03  0.00000000000E+00 0.  1.
          5    1    4    4  502    0 -0.25408966507E+02  0.95061221613E+02  0.25324545231E+03  0.27173075010E+03  0.47000000000E+01 0.  1.
         -5    1    4    4    0  502 -0.13564883554E+02  0.28422181235E+02 -0.75680832181E+01  0.32729074774E+02  0.47000000000E+01 0.  1.
<mgrwt>
<rscale>  0 0.10010360E+04</rscale>
<asrwt>0</asrwt>
<pdfrwt beam="1">  1        1 0.17351089E+00 0.10010360E+04</pdfrwt>
<pdfrwt beam="2">  1       -1 0.34173222E-01 0.10010360E+04</pdfrwt>
<totfact> 0.10847615E+02</totfact>
</mgrwt>
</event>
<event>
 9    1  0.4246427E-036  0.1000640E+04  0.7818608E-02  0.8680429E-01
         -2   -1    0    0    0  501 -0.00000000000E+00  0.00000000000E+00  0.87656344499E+02  0.87656344499E+02  0.00000000000E+00 0.  1.
          2   -1    0    0  501    0  0.00000000000E+00 -0.00000000000E+00 -0.28556990606E+04  0.28556990606E+04  0.00000000000E+00 0.  1.
         36    2    1    2    0    0  0.14210854715E-13  0.71054273576E-14 -0.27680427161E+04  0.29433554051E+04  0.10006400764E+04 0.  0.
         25    2    3    3    0    0  0.40069545880E+02 -0.23379130714E+02 -0.91238416766E+03  0.92207155076E+03  0.12497568987E+03 0.  0.
         35    2    3    3    0    0 -0.40069545880E+02  0.23379130714E+02 -0.18556585485E+04  0.20212838544E+04  0.79997976173E+03 0.  0.
         22    1    5    5    0    0 -0.23202901963E+03  0.26218095307E+03 -0.39065160653E+03  0.52458078100E+03  0.00000000000E+00 0. -1.
         22    1    5    5    0    0  0.19195947375E+03 -0.23880182236E+03 -0.14650069420E+04  0.14967030734E+04  0.00000000000E+00 0. -1.
          5    1    4    4  502    0  0.95580722111E+01 -0.47713569804E+02 -0.82269540115E+03  0.82414668267E+03  0.47000000000E+01 0. -1.
         -5    1    4    4    0  502  0.30511473669E+02  0.24334439090E+02 -0.89688766517E+02  0.97924868090E+02  0.47000000000E+01 0. -1.
<mgrwt>
<rscale>  0 0.10006401E+04</rscale>
<asrwt>0</asrwt>
<pdfrwt beam="1">  1        2 0.43933838E+00 0.10006401E+04</pdfrwt>
<pdfrwt beam="2">  1       -2 0.13485590E-01 0.10006401E+04</pdfrwt>
<totfact> 0.99450405E+01</totfact>
</mgrwt>
</event>
<event>
 9    1  0.4246427E-036  0.9981930E+03  0.7818608E-02  0.8682761E-01
         -2   -1    0    0    0  501 -0.00000000000E+00  0.00000000000E+00  0.10426014755E+04  0.10426014755E+04  0.00000000000E+00 0.  1.
          2   -1    0    0  501    0  0.00000000000E+00 -0.00000000000E+00 -0.23891903671E+03  0.23891903671E+03  0.00000000000E+00 0.  1.
         36    2    1    2    0    0  0.14210854715E-13  0.56843418861E-13  0.80368243879E+03  0.12815205122E+04  0.99819304785E+03 0.  0.
         25    2    3    3    0    0 -0.38138409672E+01 -0.13843203080E+03  0.12863549804E+03  0.22667399722E+03  0.12512408690E+03 0.  0.
         35    2    3    3    0    0  0.38138409672E+01  0.13843203080E+03  0.67504694074E+03  0.10548465150E+04  0.79864561943E+03 0.  0.
         22    1    5    5    0    0  0.22006877461E+03  0.39907925272E+03  0.28163555790E+03  0.53573603853E+03  0.00000000000E+00 0.  1.
         22    1    5    5    0    0 -0.21625493364E+03 -0.26064722191E+03  0.39341138284E+03  0.51911047645E+03  0.00000000000E+00 0.  1.
          5    1    4    4  502    0 -0.50858273994E+01 -0.13048451183E+03  0.38730624547E+02  0.13628728754E+03  0.47000000000E+01 0.  1.
         -5    1    4    4    0  502  0.12719864323E+01 -0.79475189726E+01  0.89904873497E+02  0.90386709674E+02  0.47000000000E+01 0.  1.
<mgrwt>
<rscale>  0 0.99819305E+03</rscale>
<asrwt>0</asrwt>
<pdfrwt beam="1">  1        2 0.36756776E-01 0.99819305E+03</pdfrwt>
<pdfrwt beam="2">  1       -2 0.16040022E+00 0.99819305E+03</pdfrwt>
<totfact> 0.39741014E+01</totfact>
</mgrwt>
</event>
<event>
 9    1  0.4246427E-036  0.1012982E+04  0.7818608E-02  0.8668773E-01
          2   -1    0    0  501    0  0.00000000000E+00  0.00000000000E+00  0.34653512451E+04  0.34653512451E+04  0.00000000000E+00 0.  1.
         -2   -1    0    0    0  501 -0.00000000000E+00 -0.00000000000E+00 -0.74028027673E+02  0.74028027673E+02  0.00000000000E+00 0.  1.
         36    2    1    2    0    0  0.00000000000E+00 -0.71054273576E-14  0.33913232174E+04  0.35393792728E+04  0.10129819700E+04 0.  0.
         25    2    3    3    0    0 -0.14866746853E+03  0.24006062010E+02  0.54975946686E+03  0.58353298692E+03  0.12488782248E+03 0.  0.
         35    2    3    3    0    0  0.14866746853E+03 -0.24006062010E+02  0.28415637506E+04  0.29558462858E+04  0.79991525168E+03 0.  0.
         22    1    5    5    0    0 -0.55535839001E+02 -0.38516968474E+03  0.11464872546E+04  0.12107323984E+04  0.00000000000E+00 0. -1.
         22    1    5    5    0    0  0.20420330754E+03  0.36116362273E+03  0.16950764959E+04  0.17451138875E+04  0.00000000000E+00 0. -1.
          5    1    4    4  502    0 -0.53021266433E+02 -0.50351063959E+02  0.23822202742E+03  0.24923544829E+03  0.47000000000E+01 0.  1.
         -5    1    4    4    0  502 -0.95646202102E+02  0.74357125969E+02  0.31153743944E+03  0.33429753863E+03  0.47000000000E+01 0.  1.
<mgrwt>
<rscale>  0 0.10129820E+04</rscale>
<asrwt>0</asrwt>
<pdfrwt beam="1">  1        2 0.53313084E+00 0.10129820E+04</pdfrwt>
<pdfrwt beam="2">  1       -2 0.11388930E-01 0.10129820E+04</pdfrwt>
<totfact> 0.49535183E+01</totfact>
</mgrwt>
</event>
<event>
 9    1 -0.4246427E-036  0.9985179E+03  0.7818608E-02  0.8682451E-01
         -1   -1    0    0    0  501 -0.00000000000E+00  0.00000000000E+00  0.26725464550E+04  0.26725464550E+04  0.00000000000E+00 0.  1.
          1   -1    0    0  501    0  0.00000000000E+00 -0.00000000000E+00 -0.93266664850E+02  0.93266664850E+02  0.00000000000E+00 0.  1.
         36    2    1    2    0    0  0.28421709430E-13  0.00000000000E+00  0.25792797901E+04  0.27658131198E+04  0.99851789070E+03 0.  0.
         25    2    3    3    0    0 -0.72302776930E+02 -0.10614066226E+03  0.62192763607E+03  0.64723118262E+03  0.12498274885E+03 0.  0.
         35    2    3    3    0    0  0.72302776930E+02  0.10614066226E+03  0.19573521541E+04  0.21185819372E+04  0.80041766468E+03 0.  0.
         22    1    5    5    0    0  0.26573568766E+03  0.33104158488E+03  0.63819999871E+03  0.76648758958E+03  0.00000000000E+00 0. -1.
         22    1    5    5    0    0 -0.19343291073E+03 -0.22490092262E+03  0.13191521553E+04  0.13520943476E+04  0.00000000000E+00 0. -1.
          5    1    4    4  502    0 -0.12592516680E+02  0.13155433483E+02  0.10786002433E+02  0.21680976798E+02  0.47000000000E+01 0.  1.
         -5    1    4    4    0  502 -0.59710260250E+02 -0.11929609575E+03  0.61114163364E+03  0.62555020582E+03  0.47000000000E+01 0.  1.
<mgrwt>
<rscale>  0 0.99851789E+03</rscale>
<asrwt>0</asrwt>
<pdfrwt beam="1">  1        1 0.14348720E-01 0.99851789E+03</pdfrwt>
<pdfrwt beam="2">  1       -1 0.41116093E+00 0.99851789E+03</pdfrwt>
<totfact>-0.21442181E+00</totfact>
</mgrwt>
</event>
<event>
 9    1  0.4246427E-036  0.9997169E+03  0.7818608E-02  0.8681308E-01
          2   -1    0    0  501    0  0.00000000000E+00  0.00000000000E+00  0.74180193796E+02  0.74180193796E+02  0.00000000000E+00 0.  1.
         -2   -1    0    0    0  501 -0.00000000000E+00 -0.00000000000E+00 -0.33682640596E+04  0.33682640596E+04  0.00000000000E+00 0.  1.
         36    2    1    2    0    0 -0.14210854715E-13 -0.14210854715E-13 -0.32940838658E+04  0.34424442534E+04  0.99971692134E+03 0.  0.
         25    2    3    3    0    0 -0.78953254456E+02  0.11381941086E+03 -0.64451606431E+03  0.67095535825E+03  0.12486657253E+03 0.  0.
         35    2    3    3    0    0  0.78953254456E+02 -0.11381941086E+03 -0.26495678015E+04  0.27714888952E+04  0.80109468013E+03 0.  0.
         22    1    5    5    0    0  0.21669702978E+03 -0.69880776357E+02 -0.26122696324E+04  0.26221734417E+04  0.00000000000E+00 0. -1.
         22    1    5    5    0    0 -0.13774377532E+03 -0.43938634501E+02 -0.37298169095E+02  0.14931545352E+03  0.00000000000E+00 0. -1.
          5    1    4    4  502    0 -0.67245025240E+02  0.10372727063E+03 -0.28033920061E+03  0.30642029550E+03  0.47000000000E+01 0. -1.
         -5    1    4    4    0  502 -0.11708229216E+02  0.10092140230E+02 -0.36417686369E+03  0.36453506275E+03  0.47000000000E+01 0. -1.
<mgrwt>
<rscale>  0 0.99971692E+03</rscale>
<asrwt>0</asrwt>
<pdfrwt beam="1">  1        2 0.11412339E-01 0.99971692E+03</pdfrwt>
<pdfrwt beam="2">  1       -2 0.51819442E+00 0.99971692E+03</pdfrwt>
<totfact> 0.15971448E+00</totfact>
</mgrwt>
</event>
<event>
 9    1  0.4246427E-036  0.9993217E+03  0.7818608E-02  0.8681684E-01
          1   -1    0    0  501    0  0.00000000000E+00  0.00000000000E+00  0.26220251197E+03  0.26220251197E+03  0.00000000000E+00 0. -1.
         -1   -1    0    0    0  501 -0.00000000000E+00 -0.00000000000E+00 -0.95216844092E+03  0.95216844092E+03  0.00000000000E+00 0. -1.
         36    2    1    2    0    0 -0.14210854715E-13 -0.14210854715E-13 -0.68996592894E+03  0.12143709529E+04  0.99932168401E+03 0.  0.
         25    2    3    3    0    0 -0.69313836282E+02  0.11619239470E+03 -0.12350033141E+03  0.22378658027E+03  0.12854190432E+03 0.  0.
         35    2    3    3    0    0  0.69313836282E+02 -0.11619239470E+03 -0.56646559753E+03  0.99058437262E+03  0.80129211003E+03 0.  0.
         22    1    5    5    0    0  0.24618834352E+03 -0.69004075630E+02  0.11833866519E+03  0.28173445408E+03  0.00000000000E+00 0.  1.
         22    1    5    5    0    0 -0.17687450724E+03 -0.47188319073E+02 -0.68480426272E+03  0.70884991854E+03  0.00000000000E+00 0.  1.
          5    1    4    4  502    0 -0.62420511859E+01 -0.18754329299E+02 -0.57145038151E+02  0.60649265913E+02  0.47000000000E+01 0. -1.
         -5    1    4    4    0  502 -0.63071785096E+02  0.13494672400E+03 -0.66355293256E+02  0.16313731436E+03  0.47000000000E+01 0. -1.
<mgrwt>
<rscale>  0 0.99932168E+03</rscale>
<asrwt>0</asrwt>
<pdfrwt beam="1">  1        1 0.40338848E-01 0.99932168E+03</pdfrwt>
<pdfrwt beam="2">  1       -1 0.14648745E+00 0.99932168E+03</pdfrwt>
<totfact> 0.45859604E+01</totfact>
</mgrwt>
</event>
<event>
 9    1  0.4246427E-036  0.9990755E+03  0.7818608E-02  0.8681919E-01
         -3   -1    0    0    0  501 -0.00000000000E+00  0.00000000000E+00  0.29810710404E+03  0.29810710404E+03  0.00000000000E+00 0.  1.
          3   -1    0    0  501    0  0.00000000000E+00 -0.00000000000E+00 -0.83707481976E+03  0.83707481976E+03  0.00000000000E+00 0.  1.
         36    2    1    2    0    0  0.00000000000E+00  0.00000000000E+00 -0.53896771572E+03  0.11351819238E+04  0.99907547340E+03 0.  0.
         25    2    3    3    0    0  0.79185192081E+02  0.11029627548E+03 -0.71011329958E+02  0.19849356098E+03  0.12618051251E+03 0.  0.
         35    2    3    3    0    0 -0.79185192081E+02 -0.11029627548E+03 -0.46795638576E+03  0.93668836282E+03  0.79997896663E+03 0.  0.
         22    1    5    5    0    0  0.21140958591E+03 -0.23422574800E+03  0.60241297213E+02  0.32122379727E+03  0.00000000000E+00 0.  1.
         22    1    5    5    0    0 -0.29059477800E+03  0.12392947251E+03 -0.52819768297E+03  0.61546456555E+03  0.00000000000E+00 0.  1.
          5    1    4    4  502    0  0.76180765154E+02  0.32429378366E+02 -0.85480715142E+02  0.11909750720E+03  0.47000000000E+01 0.  1.
         -5    1    4    4    0  502  0.30044269262E+01  0.77866897119E+02  0.14469385184E+02  0.79396053779E+02  0.47000000000E+01 0.  1.
<mgrwt>
<rscale>  0 0.99907547E+03</rscale>
<asrwt>0</asrwt>
<pdfrwt beam="1">  1        3 0.12878074E+00 0.99907547E+03</pdfrwt>
<pdfrwt beam="2">  1       -3 0.45862632E-01 0.99907547E+03</pdfrwt>
<totfact> 0.94427697E+00</totfact>
</mgrwt>
</event>
<event>
 9    1  0.4246427E-036  0.1001029E+04  0.7818608E-02  0.8680058E-01
         -1   -1    0    0    0  501 -0.00000000000E+00  0.00000000000E+00  0.46805184106E+03  0.46805184106E+03  0.00000000000E+00 0. -1.
          1   -1    0    0  501    0  0.00000000000E+00 -0.00000000000E+00 -0.53522893493E+03  0.53522893493E+03  0.00000000000E+00 0. -1.
         36    2    1    2    0    0  0.71054273576E-14 -0.28421709430E-13 -0.67177093866E+02  0.10032807760E+04  0.10010292471E+04 0.  0.
         25    2    3    3    0    0 -0.51716469362E+02  0.89011914741E+02 -0.10916748259E+03  0.19544291297E+03  0.12523050270E+03 0.  0.
         35    2    3    3    0    0  0.51716469362E+02 -0.89011914741E+02  0.41990388725E+02  0.80783786302E+03  0.80015067707E+03 0.  0.
         22    1    5    5    0    0 -0.59635652249E+02 -0.32063654294E+03  0.30038961509E+03  0.44339387067E+03  0.00000000000E+00 0.  1.
         22    1    5    5    0    0  0.11135212161E+03  0.23162462820E+03 -0.25839922636E+03  0.36444399235E+03  0.00000000000E+00 0.  1.
          5    1    4    4  502    0 -0.64766229396E+02  0.69952304872E+01 -0.88039313396E+02  0.10962029202E+03  0.47000000000E+01 0.  1.
         -5    1    4    4    0  502  0.13049760033E+02  0.82016684254E+02 -0.21128169195E+02  0.85822620949E+02  0.47000000000E+01 0.  1.
<mgrwt>
<rscale>  0 0.10010292E+04</rscale>
<asrwt>0</asrwt>
<pdfrwt beam="1">  1        1 0.82342913E-01 0.10010292E+04</pdfrwt>
<pdfrwt beam="2">  1       -1 0.72007975E-01 0.10010292E+04</pdfrwt>
<totfact> 0.92150096E+01</totfact>
</mgrwt>
</event>
<event>
 9    1  0.4246427E-036  0.9955608E+03  0.7818608E-02  0.8685277E-01
         -3   -1    0    0    0  501 -0.00000000000E+00  0.00000000000E+00  0.25363478133E+03  0.25363478133E+03  0.00000000000E+00 0.  1.
          3   -1    0    0  501    0  0.00000000000E+00 -0.00000000000E+00 -0.97693752076E+03  0.97693752076E+03  0.00000000000E+00 0.  1.
         36    2    1    2    0    0  0.00000000000E+00  0.28421709430E-13 -0.72330273943E+03  0.12305723021E+04  0.99556081572E+03 0.  0.
         25    2    3    3    0    0 -0.67328658442E+02 -0.38481667877E+02  0.21809934314E+01  0.14748310987E+03  0.12542935843E+03 0.  0.
         35    2    3    3    0    0  0.67328658442E+02  0.38481667877E+02 -0.72548373286E+03  0.10830891922E+04  0.80046334372E+03 0.  0.
         22    1    5    5    0    0 -0.24328163466E+03 -0.11399063775E+03 -0.68366072724E+03  0.73455551814E+03  0.00000000000E+00 0.  1.
         22    1    5    5    0    0  0.31061029311E+03  0.15247230563E+03 -0.41823005621E+02  0.34853367408E+03  0.00000000000E+00 0.  1.
          5    1    4    4  502    0 -0.10702413830E+02  0.54684650485E+01  0.56162682096E+02  0.57626232152E+02  0.47000000000E+01 0. -1.
         -5    1    4    4    0  502 -0.56626244613E+02 -0.43950132925E+02 -0.53981688665E+02  0.89856877723E+02  0.47000000000E+01 0. -1.
<mgrwt>
<rscale>  0 0.99556082E+03</rscale>
<asrwt>0</asrwt>
<pdfrwt beam="1">  1        3 0.15029808E+00 0.99556082E+03</pdfrwt>
<pdfrwt beam="2">  1       -3 0.39020736E-01 0.99556082E+03</pdfrwt>
<totfact> 0.87498533E+00</totfact>
</mgrwt>
</event>
<event>
 9    1  0.4246427E-036  0.1002620E+04  0.7818608E-02  0.8678547E-01
         -2   -1    0    0    0  501 -0.00000000000E+00  0.00000000000E+00  0.18502294262E+03  0.18502294262E+03  0.00000000000E+00 0.  1.
          2   -1    0    0  501    0  0.00000000000E+00 -0.00000000000E+00 -0.13582720435E+04  0.13582720435E+04  0.00000000000E+00 0.  1.
         36    2    1    2    0    0 -0.28421709430E-13  0.71054273576E-14 -0.11732491009E+04  0.15432949861E+04  0.10026195497E+04 0.  0.
         25    2    3    3    0    0 -0.12749511805E+03  0.24466037922E+02 -0.31758616883E+03  0.36478755989E+03  0.12391689586E+03 0.  0.
         35    2    3    3    0    0  0.12749511805E+03 -0.24466037922E+02 -0.85566293206E+03  0.11785074263E+04  0.79991693836E+03 0.  0.
         22    1    5    5    0    0 -0.29093577920E+03 -0.20190594195E+03 -0.41338481427E+03  0.54433137121E+03  0.00000000000E+00 0.  1.
         22    1    5    5    0    0  0.41843089725E+03  0.17743990402E+03 -0.44227811779E+03  0.63417605504E+03  0.00000000000E+00 0.  1.
          5    1    4    4  502    0 -0.51404986284E+02  0.66755163518E+01 -0.17893218226E+02  0.55039007911E+02  0.47000000000E+01 0.  1.
         -5    1    4    4    0  502 -0.76090131770E+02  0.17790521571E+02 -0.29969295060E+03  0.30974855198E+03  0.47000000000E+01 0.  1.
<mgrwt>
<rscale>  0 0.10026195E+04</rscale>
<asrwt>0</asrwt>
<pdfrwt beam="1">  1        2 0.20896492E+00 0.10026195E+04</pdfrwt>
<pdfrwt beam="2">  1       -2 0.28465069E-01 0.10026195E+04</pdfrwt>
<totfact> 0.20746530E+02</totfact>
</mgrwt>
</event>
<event>
 9    1  0.4246427E-036  0.1000196E+04  0.7818608E-02  0.8680851E-01
         -2   -1    0    0    0  501 -0.00000000000E+00  0.00000000000E+00  0.44915183091E+03  0.44915183091E+03  0.00000000000E+00 0.  1.
          2   -1    0    0  501    0  0.00000000000E+00 -0.00000000000E+00 -0.55682317273E+03  0.55682317273E+03  0.00000000000E+00 0.  1.
         36    2    1    2    0    0 -0.28421709430E-13 -0.28421709430E-13 -0.10767134182E+03  0.10059750036E+04  0.10001962758E+04 0.  0.
         25    2    3    3    0    0 -0.68709639305E+02  0.11778279165E+03 -0.80438988981E+02  0.19722920479E+03  0.11762281976E+03 0.  0.
         35    2    3    3    0    0  0.68709639305E+02 -0.11778279165E+03 -0.27232352834E+02  0.80874579886E+03  0.79670218123E+03 0.  0.
         22    1    5    5    0    0  0.27603764610E+03 -0.30432665388E+02 -0.33015153522E+03  0.43141970909E+03  0.00000000000E+00 0. -1.
         22    1    5    5    0    0 -0.20732800679E+03 -0.87350126266E+02  0.30291918239E+03  0.37732608976E+03  0.00000000000E+00 0. -1.
          5    1    4    4  502    0 -0.24566748769E+02  0.72819521316E+02  0.19100161642E+02  0.79329149778E+02  0.47000000000E+01 0.  1.
         -5    1    4    4    0  502 -0.44142890536E+02  0.44963270338E+02 -0.99539150623E+02  0.11790005501E+03  0.47000000000E+01 0.  1.
<mgrwt>
<rscale>  0 0.10001963E+04</rscale>
<asrwt>0</asrwt>
<pdfrwt beam="1">  1        2 0.85665103E-01 0.10001963E+04</pdfrwt>
<pdfrwt beam="2">  1       -2 0.69100282E-01 0.10001963E+04</pdfrwt>
<totfact> 0.12548308E+02</totfact>
</mgrwt>
</event>
<event>
 9    1  0.4246427E-036  0.9990502E+03  0.7818608E-02  0.8681943E-01
         -4   -1    0    0    0  501 -0.00000000000E+00  0.00000000000E+00  0.27501958731E+03  0.27501958731E+03  0.00000000000E+00 0.  1.
          4   -1    0    0  501    0  0.00000000000E+00 -0.00000000000E+00 -0.90730020899E+03  0.90730020899E+03  0.00000000000E+00 0.  1.
         36    2    1    2    0    0 -0.71054273576E-14 -0.28421709430E-13 -0.63228062167E+03  0.11823197963E+04  0.99905020704E+03 0.  0.
         25    2    3    3    0    0  0.15600291664E+02 -0.13717894924E+03 -0.11158992265E+03  0.21725042946E+03  0.12523579781E+03 0.  0.
         35    2    3    3    0    0 -0.15600291664E+02  0.13717894924E+03 -0.52069069903E+03  0.96506936684E+03  0.80073631461E+03 0.  0.
         22    1    5    5    0    0  0.17752454006E+03  0.36766143876E+03 -0.52409315821E+03  0.66435196572E+03  0.00000000000E+00 0. -1.
         22    1    5    5    0    0 -0.19312483172E+03 -0.23048248952E+03  0.34024591861E+01  0.30071740112E+03  0.00000000000E+00 0. -1.
          5    1    4    4  502    0  0.61253125633E+02 -0.27247343323E+02 -0.43113258566E+02  0.79844888266E+02  0.47000000000E+01 0.  1.
         -5    1    4    4    0  502 -0.45652833969E+02 -0.10993160591E+03 -0.68476664083E+02  0.13740554120E+03  0.47000000000E+01 0.  1.
<mgrwt>
<rscale>  0 0.99905021E+03</rscale>
<asrwt>0</asrwt>
<pdfrwt beam="1">  1        4 0.13958465E+00 0.99905021E+03</pdfrwt>
<pdfrwt beam="2">  1       -4 0.42310706E-01 0.99905021E+03</pdfrwt>
<totfact> 0.40167777E+00</totfact>
</mgrwt>
</event>
<event>
 9    1  0.4246427E-036  0.9999801E+03  0.7818608E-02  0.8681057E-01
          2   -1    0    0  501    0  0.00000000000E+00  0.00000000000E+00  0.13576328890E+04  0.13576328890E+04  0.00000000000E+00 0.  1.
         -2   -1    0    0    0  501 -0.00000000000E+00 -0.00000000000E+00 -0.18413671016E+03  0.18413671016E+03  0.00000000000E+00 0.  1.
         36    2    1    2    0    0  0.28421709430E-13 -0.35527136788E-13  0.11734961788E+04  0.15417695991E+04  0.99998010737E+03 0.  0.
         25    2    3    3    0    0  0.13414267306E+03 -0.37961632241E+02  0.20050453465E+03  0.27438760947E+03  0.12510455449E+03 0.  0.
         35    2    3    3    0    0 -0.13414267306E+03  0.37961632241E+02  0.97299164417E+03  0.12673819897E+04  0.80006813827E+03 0.  0.
         22    1    5    5    0    0 -0.57243288727E+02 -0.35422914877E+03  0.23745454851E+03  0.43027868475E+03  0.00000000000E+00 0.  1.
         22    1    5    5    0    0 -0.76899384337E+02  0.39219078101E+03  0.73553709566E+03  0.83710330492E+03  0.00000000000E+00 0.  1.
          5    1    4    4  502    0 -0.10527907826E+02 -0.17823762581E+02  0.86421427621E+02  0.88990316933E+02  0.47000000000E+01 0. -1.
         -5    1    4    4    0  502  0.14467058089E+03 -0.20137869660E+02  0.11408310703E+03  0.18539729254E+03  0.47000000000E+01 0. -1.
<mgrwt>
<rscale>  0 0.99998011E+03</rscale>
<asrwt>0</asrwt>
<pdfrwt beam="1">  1        2 0.20886659E+00 0.99998011E+03</pdfrwt>
<pdfrwt beam="2">  1       -2 0.28328725E-01 0.99998011E+03</pdfrwt>
<totfact> 0.20945293E+02</totfact>
</mgrwt>
</event>
<event>
 9    1  0.4246427E-036  0.1000811E+04  0.7818608E-02  0.8680266E-01
         -1   -1    0    0    0  501 -0.00000000000E+00  0.00000000000E+00  0.20642858244E+03  0.20642858244E+03  0.00000000000E+00 0. -1.
          1   -1    0    0  501    0  0.00000000000E+00 -0.00000000000E+00 -0.12130386591E+04  0.12130386591E+04  0.00000000000E+00 0. -1.
         36    2    1    2    0    0 -0.28421709430E-13 -0.28421709430E-13 -0.10066100767E+04  0.14194672416E+04  0.10008113725E+04 0.  0.
         25    2    3    3    0    0  0.10547408276E+02 -0.68339556016E+02 -0.37024589375E+03  0.39499976897E+03  0.11900106264E+03 0.  0.
         35    2    3    3    0    0 -0.10547408276E+02  0.68339556016E+02 -0.63636418294E+03  0.10244674726E+04  0.79987041848E+03 0.  0.
         22    1    5    5    0    0  0.16527443722E+03  0.38683775924E+03 -0.44891398080E+03  0.61520960146E+03  0.00000000000E+00 0.  1.
         22    1    5    5    0    0 -0.17582184549E+03 -0.31849820323E+03 -0.18745020215E+03  0.40925787115E+03  0.00000000000E+00 0.  1.
          5    1    4    4  502    0  0.46860781455E+02 -0.20695312940E+02 -0.60204218618E+02  0.79188804484E+02  0.47000000000E+01 0.  1.
         -5    1    4    4    0  502 -0.36313373179E+02 -0.47644243076E+02 -0.31004167513E+03  0.31581096449E+03  0.47000000000E+01 0.  1.
<mgrwt>
<rscale>  0 0.10008114E+04</rscale>
<asrwt>0</asrwt>
<pdfrwt beam="1">  1        1 0.18662133E+00 0.10008114E+04</pdfrwt>
<pdfrwt beam="2">  1       -1 0.31758244E-01 0.10008114E+04</pdfrwt>
<totfact> 0.10624258E+02</totfact>
</mgrwt>
</event>
<event>
 9    1  0.4246427E-036  0.1000303E+04  0.7818608E-02  0.8680749E-01
          2   -1    0    0  501    0  0.00000000000E+00  0.00000000000E+00  0.22624956745E+04  0.22624956745E+04  0.00000000000E+00 0.  1.
         -2   -1    0    0    0  501 -0.00000000000E+00 -0.00000000000E+00 -0.11056450359E+03  0.11056450359E+03  0.00000000000E+00 0.  1.
         36    2    1    2    0    0  0.00000000000E+00 -0.28421709430E-13  0.21519311709E+04  0.23730601781E+04  0.10003033762E+04 0.  0.
         25    2    3    3    0    0  0.36243737399E+02 -0.12428137691E+03  0.27757231490E+03  0.33102640450E+03  0.12558909717E+03 0.  0.
         35    2    3    3    0    0 -0.36243737399E+02  0.12428137691E+03  0.18743588560E+04  0.20420337736E+04  0.79995083737E+03 0.  0.
         22    1    5    5    0    0 -0.32432628232E+03 -0.14405098748E+03  0.12863043206E+04  0.13343601573E+04  0.00000000000E+00 0.  1.
         22    1    5    5    0    0  0.28808254492E+03  0.26833236439E+03  0.58805453541E+03  0.70767361621E+03  0.00000000000E+00 0.  1.
          5    1    4    4  502    0 -0.16849943132E+02 -0.12391661261E+03  0.17139329963E+03  0.21221922774E+03  0.47000000000E+01 0.  1.
         -5    1    4    4    0  502  0.53093680530E+02 -0.36476430337E+00  0.10617901527E+03  0.11880717676E+03  0.47000000000E+01 0.  1.
<mgrwt>
<rscale>  0 0.10003034E+04</rscale>
<asrwt>0</asrwt>
<pdfrwt beam="1">  1        2 0.34807622E+00 0.10003034E+04</pdfrwt>
<pdfrwt beam="2">  1       -2 0.17009925E-01 0.10003034E+04</pdfrwt>
<totfact> 0.15610783E+02</totfact>
</mgrwt>
</event>
<event>
 9    1  0.4246427E-036  0.9999100E+03  0.7818608E-02  0.8681124E-01
          2   -1    0    0  501    0  0.00000000000E+00  0.00000000000E+00  0.10590920596E+04  0.10590920596E+04  0.00000000000E+00 0.  1.
         -2   -1    0    0    0  501 -0.00000000000E+00 -0.00000000000E+00 -0.23600875776E+03  0.23600875776E+03  0.00000000000E+00 0.  1.
         36    2    1    2    0    0  0.00000000000E+00  0.00000000000E+00  0.82308330189E+03  0.12951008174E+04  0.99990999865E+03 0.  0.
         25    2    3    3    0    0 -0.42412944431E+02 -0.12335148200E+03  0.91563795858E+02  0.20290763985E+03  0.12559114471E+03 0.  0.
         35    2    3    3    0    0  0.42412944431E+02  0.12335148200E+03  0.73151950603E+03  0.10921931776E+04  0.80046905214E+03 0.  0.
         22    1    5    5    0    0  0.90575650215E+02 -0.19754478476E+03  0.73626509592E+03  0.76766801540E+03  0.00000000000E+00 0.  1.
         22    1    5    5    0    0 -0.48162705784E+02  0.32089626677E+03 -0.47455898871E+01  0.32452516216E+03  0.00000000000E+00 0.  1.
          5    1    4    4  502    0  0.93434958899E+01 -0.77917479472E+02 -0.10891876086E+02  0.79367231824E+02  0.47000000000E+01 0. -1.
         -5    1    4    4    0  502 -0.51756440321E+02 -0.45434002530E+02  0.10245567194E+03  0.12354040802E+03  0.47000000000E+01 0. -1.
<mgrwt>
<rscale>  0 0.99991000E+03</rscale>
<asrwt>0</asrwt>
<pdfrwt beam="1">  1        2 0.16293724E+00 0.99991000E+03</pdfrwt>
<pdfrwt beam="2">  1       -2 0.36309040E-01 0.99991000E+03</pdfrwt>
<totfact> 0.19916719E+02</totfact>
</mgrwt>
</event>
<event>
 9    1  0.4246427E-036  0.1000034E+04  0.7818608E-02  0.8681006E-01
         -2   -1    0    0    0  501 -0.00000000000E+00  0.00000000000E+00  0.12897095074E+04  0.12897095074E+04  0.00000000000E+00 0. -1.
          2   -1    0    0  501    0  0.00000000000E+00 -0.00000000000E+00 -0.19385522368E+03  0.19385522368E+03  0.00000000000E+00 0. -1.
         36    2    1    2    0    0 -0.42632564146E-13  0.21316282073E-13  0.10958542838E+04  0.14835647311E+04  0.10000338495E+04 0.  0.
         25    2    3    3    0    0 -0.80747048609E+02 -0.23024574232E+02  0.36338877793E+02  0.15502706745E+03  0.12515055224E+03 0.  0.
         35    2    3    3    0    0  0.80747048609E+02  0.23024574232E+02  0.10595154060E+04  0.13285376637E+04  0.79711304810E+03 0.  0.
         22    1    5    5    0    0 -0.26068661161E+03  0.19354093884E+03  0.80978145696E+03  0.87244576480E+03  0.00000000000E+00 0. -1.
         22    1    5    5    0    0  0.34143366022E+03 -0.17051636461E+03  0.24973394900E+03  0.45609189887E+03  0.00000000000E+00 0. -1.
          5    1    4    4  502    0 -0.51983027358E+02  0.38218640207E+02  0.54747768267E+02  0.84748496876E+02  0.47000000000E+01 0.  1.
         -5    1    4    4    0  502 -0.28764021251E+02 -0.61243214439E+02 -0.18408890474E+02  0.70278570573E+02  0.47000000000E+01 0.  1.
<mgrwt>
<rscale>  0 0.10000338E+04</rscale>
<asrwt>0</asrwt>
<pdfrwt beam="1">  1        2 0.29823881E-01 0.10000338E+04</pdfrwt>
<pdfrwt beam="2">  1       -2 0.19841684E+00 0.10000338E+04</pdfrwt>
<totfact> 0.26622421E+01</totfact>
</mgrwt>
</event>
<event>
 9    1  0.4246427E-036  0.9999028E+03  0.7818608E-02  0.8681131E-01
          2   -1    0    0  501    0  0.00000000000E+00  0.00000000000E+00  0.45672909083E+04  0.45672909083E+04  0.00000000000E+00 0. -1.
         -2   -1    0    0    0  501 -0.00000000000E+00 -0.00000000000E+00 -0.54726400707E+02  0.54726400707E+02  0.00000000000E+00 0. -1.
         36    2    1    2    0    0 -0.14210854715E-13  0.00000000000E+00  0.45125645076E+04  0.46220173090E+04  0.99990278006E+03 0.  0.
         25    2    3    3    0    0  0.23939463203E+02  0.81794324109E+02  0.33299728693E+03  0.36566861878E+03  0.12475149822E+03 0.  0.
         35    2    3    3    0    0 -0.23939463203E+02 -0.81794324109E+02  0.41795672207E+04  0.42563486903E+04  0.80028658076E+03 0.  0.
         22    1    5    5    0    0 -0.40481993158E+03  0.15764010256E+02  0.23906467836E+04  0.24247308562E+04  0.00000000000E+00 0.  1.
         22    1    5    5    0    0  0.38088046838E+03 -0.97558334365E+02  0.17889204371E+04  0.18316178341E+04  0.00000000000E+00 0.  1.
          5    1    4    4  502    0 -0.33092590167E+02  0.93905065819E+01  0.21613776771E+02  0.40896778408E+02  0.47000000000E+01 0. -1.
         -5    1    4    4    0  502  0.57032053370E+02  0.72403817527E+02  0.31138351015E+03  0.32477184037E+03  0.47000000000E+01 0. -1.
<mgrwt>
<rscale>  0 0.99990278E+03</rscale>
<asrwt>0</asrwt>
<pdfrwt beam="1">  1        2 0.70265984E+00 0.99990278E+03</pdfrwt>
<pdfrwt beam="2">  1       -2 0.84194498E-02 0.99990278E+03</pdfrwt>
<totfact> 0.85262159E+00</totfact>
</mgrwt>
</event>
<event>
 9    1  0.4246427E-036  0.9987386E+03  0.7818608E-02  0.8682240E-01
          1   -1    0    0  501    0  0.00000000000E+00  0.00000000000E+00  0.11059244500E+04  0.11059244500E+04  0.00000000000E+00 0. -1.
         -1   -1    0    0    0  501 -0.00000000000E+00 -0.00000000000E+00 -0.22548528330E+03  0.22548528330E+03  0.00000000000E+00 0. -1.
         36    2    1    2    0    0 -0.71054273576E-14  0.00000000000E+00  0.88043916670E+03  0.13314097333E+04  0.99873858025E+03 0.  0.
         25    2    3    3    0    0  0.33009050196E+02  0.11656729984E+03  0.26678267371E+03  0.32090824877E+03  0.13088764781E+03 0.  0.
         35    2    3    3    0    0 -0.33009050196E+02 -0.11656729984E+03  0.61365649299E+03  0.10105014845E+04  0.79363809514E+03 0.  0.
         22    1    5    5    0    0  0.31160454338E+03 -0.28174629118E+03  0.30208173586E+03  0.51742800387E+03  0.00000000000E+00 0. -1.
         22    1    5    5    0    0 -0.34461359357E+03  0.16517899133E+03  0.31157475713E+03  0.49307348067E+03  0.00000000000E+00 0. -1.
          5    1    4    4  502    0 -0.80376057636E+01  0.64111494896E+02  0.23961002754E+02  0.69073196952E+02  0.47000000000E+01 0.  1.
         -5    1    4    4    0  502  0.41046655960E+02  0.52455804948E+02  0.24282167096E+03  0.25183505182E+03  0.47000000000E+01 0.  1.
<mgrwt>
<rscale>  0 0.99873858E+03</rscale>
<asrwt>0</asrwt>
<pdfrwt beam="1">  1        1 0.17014222E+00 0.99873858E+03</pdfrwt>
<pdfrwt beam="2">  1       -1 0.34690044E-01 0.99873858E+03</pdfrwt>
<totfact> 0.10984488E+02</totfact>
</mgrwt>
</event>
<event>
 9    1  0.4246427E-036  0.9992294E+03  0.7818608E-02  0.8681772E-01
         -2   -1    0    0    0  501 -0.00000000000E+00  0.00000000000E+00  0.20127711549E+03  0.20127711549E+03  0.00000000000E+00 0. -1.
          2   -1    0    0  501    0  0.00000000000E+00 -0.00000000000E+00 -0.12401552276E+04  0.12401552276E+04  0.00000000000E+00 0. -1.
         36    2    1    2    0    0  0.71054273576E-14  0.14210854715E-13 -0.10388781121E+04  0.14414323431E+04  0.99922943704E+03 0.  0.
         25    2    3    3    0    0  0.54512649753E+02 -0.24278722927E+01 -0.37955901411E+03  0.40324429194E+03  0.12475331755E+03 0.  0.
         35    2    3    3    0    0 -0.54512649753E+02  0.24278722927E+01 -0.65931909796E+03  0.10381880511E+04  0.80009701474E+03 0.  0.
         22    1    5    5    0    0  0.57654334332E+02 -0.22613194614E+03  0.87448204872E+02  0.24921249541E+03  0.00000000000E+00 0.  1.
         22    1    5    5    0    0 -0.11216698408E+03  0.22855981843E+03 -0.74676730284E+03  0.78897555571E+03  0.00000000000E+00 0.  1.
          5    1    4    4  502    0 -0.18438234073E+02  0.41432724827E+02 -0.83272501220E+02  0.94937024505E+02  0.47000000000E+01 0.  1.
         -5    1    4    4    0  502  0.72950883825E+02 -0.43860597120E+02 -0.29628651289E+03  0.30830726744E+03  0.47000000000E+01 0.  1.
<mgrwt>
<rscale>  0 0.99922944E+03</rscale>
<asrwt>0</asrwt>
<pdfrwt beam="1">  1        2 0.19079311E+00 0.99922944E+03</pdfrwt>
<pdfrwt beam="2">  1       -2 0.30965710E-01 0.99922944E+03</pdfrwt>
<totfact> 0.20841215E+02</totfact>
</mgrwt>
</event>
<event>
 9    1  0.4246427E-036  0.9996808E+03  0.7818608E-02  0.8681342E-01
         -2   -1    0    0    0  501 -0.00000000000E+00  0.00000000000E+00  0.84137637040E+03  0.84137637040E+03  0.00000000000E+00 0.  1.
          2   -1    0    0  501    0  0.00000000000E+00 -0.00000000000E+00 -0.29694255204E+03  0.29694255204E+03  0.00000000000E+00 0.  1.
         36    2    1    2    0    0  0.14210854715E-13  0.00000000000E+00  0.54443381836E+03  0.11383189224E+04  0.99968084237E+03 0.  0.
         25    2    3    3    0    0 -0.50766839792E+02  0.12223270505E+03  0.48542485947E+02  0.18845264006E+03  0.12505965935E+03 0.  0.
         35    2    3    3    0    0  0.50766839792E+02 -0.12223270505E+03  0.49589133241E+03  0.94986628237E+03  0.79926193117E+03 0.  0.
         22    1    5    5    0    0  0.19324000734E+03 -0.51270287650E+02  0.67866601007E+03  0.70750116329E+03  0.00000000000E+00 0.  1.
         22    1    5    5    0    0 -0.14247316755E+03 -0.70962417400E+02 -0.18277467766E+03  0.24236511908E+03  0.00000000000E+00 0.  1.
          5    1    4    4  502    0  0.17928378505E+01  0.50691434362E+02 -0.38641621170E+02  0.63938256716E+02  0.47000000000E+01 0.  1.
         -5    1    4    4    0  502 -0.52559677643E+02  0.71541270688E+02  0.87184107117E+02  0.12451438334E+03  0.47000000000E+01 0.  1.
<mgrwt>
<rscale>  0 0.99968084E+03</rscale>
<asrwt>0</asrwt>
<pdfrwt beam="1">  1        2 0.45683470E-01 0.99968084E+03</pdfrwt>
<pdfrwt beam="2">  1       -2 0.12944252E+00 0.99968084E+03</pdfrwt>
<totfact> 0.56335283E+01</totfact>
</mgrwt>
</event>
<event>
 9    1  0.4246427E-036  0.1000499E+04  0.7818608E-02  0.8680563E-01
          2   -1    0    0  501    0  0.00000000000E+00  0.00000000000E+00  0.10621330376E+04  0.10621330376E+04  0.00000000000E+00 0. -1.
         -2   -1    0    0    0  501 -0.00000000000E+00 -0.00000000000E+00 -0.23561048476E+03  0.23561048476E+03  0.00000000000E+00 0. -1.
         36    2    1    2    0    0  0.28421709430E-13  0.00000000000E+00  0.82652255280E+03  0.12977435223E+04  0.10004992351E+04 0.  0.
         25    2    3    3    0    0  0.28989783599E+02 -0.12235681324E+03  0.23424705965E+03  0.29371632534E+03  0.12484389260E+03 0.  0.
         35    2    3    3    0    0 -0.28989783599E+02  0.12235681324E+03  0.59227549316E+03  0.10040271970E+04  0.80091744593E+03 0.  0.
         22    1    5    5    0    0  0.25085821551E+03  0.35887313895E+03  0.25901739125E+03  0.50873350894E+03  0.00000000000E+00 0.  1.
         22    1    5    5    0    0 -0.27984799911E+03 -0.23651632572E+03  0.33325810191E+03  0.49529368805E+03  0.00000000000E+00 0.  1.
          5    1    4    4  502    0 -0.37839008125E+00 -0.14165637673E+03  0.18815112991E+03  0.23556232707E+03  0.47000000000E+01 0. -1.
         -5    1    4    4    0  502  0.29368173681E+02  0.19299563497E+02  0.46095929740E+02  0.58153998272E+02  0.47000000000E+01 0. -1.
<mgrwt>
<rscale>  0 0.10004992E+04</rscale>
<asrwt>0</asrwt>
<pdfrwt beam="1">  1        2 0.16340508E+00 0.10004992E+04</pdfrwt>
<pdfrwt beam="2">  1       -2 0.36247768E-01 0.10004992E+04</pdfrwt>
<totfact> 0.19894116E+02</totfact>
</mgrwt>
</event>
<event>
 9    1  0.4246427E-036  0.1002201E+04  0.7818608E-02  0.8678945E-01
         -1   -1    0    0    0  501 -0.00000000000E+00  0.00000000000E+00  0.12514531957E+03  0.12514531957E+03  0.00000000000E+00 0.  1.
          1   -1    0    0  501    0  0.00000000000E+00 -0.00000000000E+00 -0.20064802388E+04  0.20064802388E+04  0.00000000000E+00 0.  1.
         36    2    1    2    0    0  0.00000000000E+00  0.00000000000E+00 -0.18813349192E+04  0.21316255583E+04  0.10022007996E+04 0.  0.
         25    2    3    3    0    0 -0.47966198376E+02  0.92738817810E+02 -0.56129861191E+03  0.58433433931E+03  0.12445579075E+03 0.  0.
         35    2    3    3    0    0  0.47966198376E+02 -0.92738817810E+02 -0.13200363073E+04  0.15472912190E+04  0.80044551307E+03 0.  0.
         22    1    5    5    0    0  0.34606749883E+03  0.12068698077E+03 -0.98370515307E+03  0.10497637302E+04  0.00000000000E+00 0.  1.
         22    1    5    5    0    0 -0.29810130046E+03 -0.21342579858E+03 -0.33633115421E+03  0.49752748881E+03  0.00000000000E+00 0.  1.
          5    1    4    4  502    0 -0.85486950987E+02  0.85982160272E+02 -0.46714462638E+03  0.48264598064E+03  0.47000000000E+01 0. -1.
         -5    1    4    4    0  502  0.37520752611E+02  0.67566575380E+01 -0.94153985537E+02  0.10168835868E+03  0.47000000000E+01 0. -1.
<mgrwt>
<rscale>  0 0.10022008E+04</rscale>
<asrwt>0</asrwt>
<pdfrwt beam="1">  1        1 0.30868925E+00 0.10022008E+04</pdfrwt>
<pdfrwt beam="2">  1       -1 0.19253127E-01 0.10022008E+04</pdfrwt>
<totfact> 0.67108517E+01</totfact>
</mgrwt>
</event>
<event>
 9    1  0.4246427E-036  0.1000148E+04  0.7818608E-02  0.8680897E-01
          2   -1    0    0  501    0  0.00000000000E+00  0.00000000000E+00  0.23694733095E+03  0.23694733095E+03  0.00000000000E+00 0.  1.
         -2   -1    0    0    0  501 -0.00000000000E+00 -0.00000000000E+00 -0.10553984603E+04  0.10553984603E+04  0.00000000000E+00 0.  1.
         36    2    1    2    0    0  0.00000000000E+00  0.00000000000E+00 -0.81845112931E+03  0.12923457912E+04  0.10001476856E+04 0.  0.
         25    2    3    3    0    0 -0.11028223757E+03  0.84850566095E+02 -0.13186229629E+03  0.22902541568E+03  0.12531235117E+03 0.  0.
         35    2    3    3    0    0  0.11028223757E+03 -0.84850566095E+02 -0.68658883302E+03  0.10633203755E+04  0.79992762478E+03 0.  0.
         22    1    5    5    0    0 -0.16011944600E+03  0.17759235679E+02  0.12360295689E+03  0.20305496396E+03  0.00000000000E+00 0. -1.
         22    1    5    5    0    0  0.27040168357E+03 -0.10260980177E+03 -0.81019178991E+03  0.86026541156E+03  0.00000000000E+00 0. -1.
          5    1    4    4  502    0 -0.10079859873E+03  0.11117069256E+02 -0.11355772296E+03  0.15232003538E+03  0.47000000000E+01 0.  1.
         -5    1    4    4    0  502 -0.94836388347E+01  0.73733496839E+02 -0.18304573332E+02  0.76705380297E+02  0.47000000000E+01 0.  1.
<mgrwt>
<rscale>  0 0.10001477E+04</rscale>
<asrwt>0</asrwt>
<pdfrwt beam="1">  1        2 0.36453435E-01 0.10001477E+04</pdfrwt>
<pdfrwt beam="2">  1       -2 0.16236899E+00 0.10001477E+04</pdfrwt>
<totfact> 0.38724770E+01</totfact>
</mgrwt>
</event>
<event>
 9    1  0.4246427E-036  0.9991646E+03  0.7818608E-02  0.8681834E-01
         -2   -1    0    0    0  501 -0.00000000000E+00  0.00000000000E+00  0.11158567804E+03  0.11158567804E+03  0.00000000000E+00 0. -1.
          2   -1    0    0  501    0  0.00000000000E+00 -0.00000000000E+00 -0.22366892693E+04  0.22366892693E+04  0.00000000000E+00 0. -1.
         36    2    1    2    0    0  0.14210854715E-13  0.14210854715E-13 -0.21251035913E+04  0.23482749474E+04  0.99916462843E+03 0.  0.
         25    2    3    3    0    0 -0.65575091567E+02  0.29050842262E+02 -0.11673550446E+03  0.18516378208E+03  0.12455683089E+03 0.  0.
         35    2    3    3    0    0  0.65575091567E+02 -0.29050842262E+02 -0.20083680868E+04  0.21631111653E+04  0.80022715344E+03 0.  0.
         22    1    5    5    0    0  0.31499776806E+03  0.12147079205E+03 -0.17213742085E+04  0.17541687242E+04  0.00000000000E+00 0. -1.
         22    1    5    5    0    0 -0.24942267649E+03 -0.15052163432E+03 -0.28699387837E+03  0.40894244114E+03  0.00000000000E+00 0. -1.
          5    1    4    4  502    0  0.25846494564E+02  0.36269445353E+01 -0.78312839649E+02  0.82681236456E+02  0.47000000000E+01 0. -1.
         -5    1    4    4    0  502 -0.91421586130E+02  0.25423897727E+02 -0.38422664809E+02  0.10248254562E+03  0.47000000000E+01 0. -1.
<mgrwt>
<rscale>  0 0.99916463E+03</rscale>
<asrwt>0</asrwt>
<pdfrwt beam="1">  1        2 0.34410604E+00 0.99916463E+03</pdfrwt>
<pdfrwt beam="2">  1       -2 0.17167027E-01 0.99916463E+03</pdfrwt>
<totfact> 0.15913094E+02</totfact>
</mgrwt>
</event>
<event>
 9    1  0.4246427E-036  0.1000287E+04  0.7818608E-02  0.8680765E-01
         -2   -1    0    0    0  501 -0.00000000000E+00  0.00000000000E+00  0.34966294894E+03  0.34966294894E+03  0.00000000000E+00 0. -1.
          2   -1    0    0  501    0  0.00000000000E+00 -0.00000000000E+00 -0.71538421214E+03  0.71538421214E+03  0.00000000000E+00 0. -1.
         36    2    1    2    0    0 -0.14210854715E-13 -0.14210854715E-13 -0.36572126319E+03  0.10650471611E+04  0.10002866654E+04 0.  0.
         25    2    3    3    0    0 -0.10077316575E+03  0.90298058752E+02 -0.10868927657E+03  0.21401081443E+03  0.12521301651E+03 0.  0.
         35    2    3    3    0    0  0.10077316575E+03 -0.90298058752E+02 -0.25703198663E+03  0.85103634665E+03  0.79993027872E+03 0.  0.
         22    1    5    5    0    0  0.33444843390E+03  0.86497084033E+02  0.12693381407E+03  0.36803490818E+03  0.00000000000E+00 0.  1.
         22    1    5    5    0    0 -0.23367526815E+03 -0.17679514279E+03 -0.38396580070E+03  0.48300143847E+03  0.00000000000E+00 0.  1.
          5    1    4    4  502    0 -0.10535956352E+03  0.10174130474E+03 -0.12529440300E+03  0.19280225138E+03  0.47000000000E+01 0. -1.
         -5    1    4    4    0  502  0.45863977698E+01 -0.11443245983E+02  0.16605126430E+02  0.21208563055E+02  0.47000000000E+01 0. -1.
<mgrwt>
<rscale>  0 0.10002867E+04</rscale>
<asrwt>0</asrwt>
<pdfrwt beam="1">  1        2 0.11005911E+00 0.10002867E+04</pdfrwt>
<pdfrwt beam="2">  1       -2 0.53794301E-01 0.10002867E+04</pdfrwt>
<totfact> 0.15703419E+02</totfact>
</mgrwt>
</event>
<event>
 9    1  0.4246427E-036  0.9997554E+03  0.7818608E-02  0.8681271E-01
          4   -1    0    0  501    0  0.00000000000E+00  0.00000000000E+00  0.47686505512E+03  0.47686505512E+03  0.00000000000E+00 0. -1.
         -4   -1    0    0    0  501 -0.00000000000E+00 -0.00000000000E+00 -0.52400090921E+03  0.52400090921E+03  0.00000000000E+00 0. -1.
         36    2    1    2    0    0  0.00000000000E+00  0.14210854715E-13 -0.47135854087E+02  0.10008659643E+04  0.99975541499E+03 0.  0.
         25    2    3    3    0    0 -0.37618922152E+02 -0.43744104364E+02 -0.13523651585E+03  0.19321806430E+03  0.12536177721E+03 0.  0.
         35    2    3    3    0    0  0.37618922152E+02  0.43744104364E+02  0.88100661758E+02  0.80764790002E+03  0.80075256718E+03 0.  0.
         22    1    5    5    0    0 -0.61977040216E+02  0.41414287485E+03  0.60477422603E+02  0.42309927080E+03  0.00000000000E+00 0. -1.
         22    1    5    5    0    0  0.99595962368E+02 -0.37039877049E+03  0.27623239155E+02  0.38454862923E+03  0.00000000000E+00 0. -1.
          5    1    4    4  502    0 -0.16410550227E+02  0.39444887252E+02 -0.80613641741E+02  0.91355648560E+02  0.47000000000E+01 0. -1.
         -5    1    4    4    0  502 -0.21208371925E+02 -0.83188991616E+02 -0.54622874104E+02  0.10186241574E+03  0.47000000000E+01 0. -1.
<mgrwt>
<rscale>  0 0.99975541E+03</rscale>
<asrwt>0</asrwt>
<pdfrwt beam="1">  1        4 0.73363855E-01 0.99975541E+03</pdfrwt>
<pdfrwt beam="2">  1       -4 0.80615524E-01 0.99975541E+03</pdfrwt>
<totfact> 0.53029894E+00</totfact>
</mgrwt>
</event>
<event>
 9    1  0.4246427E-036  0.1000233E+04  0.7818608E-02  0.8680816E-01
         -1   -1    0    0    0  501 -0.00000000000E+00  0.00000000000E+00  0.23939826493E+03  0.23939826493E+03  0.00000000000E+00 0. -1.
          1   -1    0    0  501    0  0.00000000000E+00 -0.00000000000E+00 -0.10447708971E+04  0.10447708971E+04  0.00000000000E+00 0. -1.
         36    2    1    2    0    0 -0.14210854715E-13  0.28421709430E-13 -0.80537263216E+03  0.12841691620E+04  0.10002326530E+04 0.  0.
         25    2    3    3    0    0 -0.49713399217E+02  0.99680333815E+02 -0.23692637410E+03  0.28999821558E+03  0.12472877489E+03 0.  0.
         35    2    3    3    0    0  0.49713399217E+02 -0.99680333815E+02 -0.56844625806E+03  0.99417094644E+03  0.80798337324E+03 0.  0.
         22    1    5    5    0    0  0.28202261386E+03 -0.28018318759E+03 -0.53517821731E+02  0.40112782324E+03  0.00000000000E+00 0.  1.
         22    1    5    5    0    0 -0.23230921464E+03  0.18050285378E+03 -0.51492843633E+03  0.59304312320E+03  0.00000000000E+00 0.  1.
          5    1    4    4  502    0 -0.56240085467E+01  0.96621372153E+02 -0.22344975705E+03  0.24355533859E+03  0.47000000000E+01 0. -1.
         -5    1    4    4    0  502 -0.44089390670E+02  0.30589616623E+01 -0.13476617044E+02  0.46442876989E+02  0.47000000000E+01 0. -1.
<mgrwt>
<rscale>  0 0.10002327E+04</rscale>
<asrwt>0</asrwt>
<pdfrwt beam="1">  1        1 0.16073398E+00 0.10002327E+04</pdfrwt>
<pdfrwt beam="2">  1       -1 0.36830503E-01 0.10002327E+04</pdfrwt>
<totfact> 0.11029050E+02</totfact>
</mgrwt>
</event>
<event>
 9    1  0.4246427E-036  0.1000057E+04  0.7818608E-02  0.8680983E-01
          1   -1    0    0  501    0  0.00000000000E+00  0.00000000000E+00  0.24882719674E+03  0.24882719674E+03  0.00000000000E+00 0.  1.
         -1   -1    0    0    0  501 -0.00000000000E+00 -0.00000000000E+00 -0.10048285781E+04  0.10048285781E+04  0.00000000000E+00 0.  1.
         36    2    1    2    0    0 -0.53290705182E-14 -0.28421709430E-13 -0.75600138139E+03  0.12536557749E+04  0.10000573550E+04 0.  0.
         25    2    3    3    0    0 -0.37843499778E+00 -0.91285624576E+02 -0.27310371264E+03  0.31406135424E+03  0.12536222679E+03 0.  0.
         35    2    3    3    0    0  0.37843499778E+00  0.91285624576E+02 -0.48289766876E+03  0.93959442063E+03  0.80082102140E+03 0.  0.
         22    1    5    5    0    0 -0.64699848992E+02  0.43173988013E+03 -0.15730477808E+03  0.46403683880E+03  0.00000000000E+00 0.  1.
         22    1    5    5    0    0  0.65078283990E+02 -0.34045425556E+03 -0.32559289068E+03  0.47555758183E+03  0.00000000000E+00 0.  1.
          5    1    4    4  502    0  0.13521827231E+02  0.29303050522E+02 -0.73289324773E+02  0.80217976210E+02  0.47000000000E+01 0. -1.
         -5    1    4    4    0  502 -0.13900262228E+02 -0.12058867510E+03 -0.19981438786E+03  0.23384337803E+03  0.47000000000E+01 0. -1.
<mgrwt>
<rscale>  0 0.10000574E+04</rscale>
<asrwt>0</asrwt>
<pdfrwt beam="1">  1        1 0.38281107E-01 0.10000574E+04</pdfrwt>
<pdfrwt beam="2">  1       -1 0.15458901E+00 0.10000574E+04</pdfrwt>
<totfact> 0.41964157E+01</totfact>
</mgrwt>
</event>
<event>
 9    1  0.4246427E-036  0.9994761E+03  0.7818608E-02  0.8681537E-01
          1   -1    0    0  501    0  0.00000000000E+00  0.00000000000E+00  0.26830398572E+03  0.26830398572E+03  0.00000000000E+00 0.  1.
         -1   -1    0    0    0  501 -0.00000000000E+00 -0.00000000000E+00 -0.93080283436E+03  0.93080283436E+03  0.00000000000E+00 0.  1.
         36    2    1    2    0    0  0.00000000000E+00 -0.28421709430E-13 -0.66249884864E+03  0.11991068201E+04  0.99947608350E+03 0.  0.
         25    2    3    3    0    0  0.83274431703E+02 -0.10974444572E+03 -0.71481649346E+02  0.19409812986E+03  0.11655892707E+03 0.  0.
         35    2    3    3    0    0 -0.83274431703E+02  0.10974444572E+03 -0.59101719930E+03  0.10050086902E+04  0.80110090700E+03 0.  0.
         22    1    5    5    0    0 -0.17026415746E+03 -0.32562283355E+03 -0.29746414717E+03  0.47276318797E+03  0.00000000000E+00 0. -1.
         22    1    5    5    0    0  0.86989725755E+02  0.43536727927E+03 -0.29355305212E+03  0.53224550224E+03  0.00000000000E+00 0. -1.
          5    1    4    4  502    0  0.18272210199E+02  0.20162114367E+02  0.75978835570E+01  0.28639175195E+02  0.47000000000E+01 0. -1.
         -5    1    4    4    0  502  0.65002221504E+02 -0.12990656009E+03 -0.79079532903E+02  0.16545895466E+03  0.47000000000E+01 0. -1.
<mgrwt>
<rscale>  0 0.99947608E+03</rscale>
<asrwt>0</asrwt>
<pdfrwt beam="1">  1        1 0.41277537E-01 0.99947608E+03</pdfrwt>
<pdfrwt beam="2">  1       -1 0.14320043E+00 0.99947608E+03</pdfrwt>
<totfact> 0.47448596E+01</totfact>
</mgrwt>
</event>
<event>
 9    1  0.4246427E-036  0.9998794E+03  0.7818608E-02  0.8681153E-01
          2   -1    0    0  501    0  0.00000000000E+00  0.00000000000E+00  0.41159429932E+03  0.41159429932E+03  0.00000000000E+00 0.  1.
         -2   -1    0    0    0  501 -0.00000000000E+00 -0.00000000000E+00 -0.60724775923E+03  0.60724775923E+03  0.00000000000E+00 0.  1.
         36    2    1    2    0    0  0.00000000000E+00  0.28421709430E-13 -0.19565345990E+03  0.10188420586E+04  0.99987942468E+03 0.  0.
         25    2    3    3    0    0  0.78568417271E+02  0.10016934015E+03  0.22731154838E+02  0.18014307484E+03  0.12541104064E+03 0.  0.
         35    2    3    3    0    0 -0.78568417271E+02 -0.10016934015E+03 -0.21838461474E+03  0.83869898371E+03  0.79969822585E+03 0.  0.
         22    1    5    5    0    0 -0.18038286115E+03  0.18966264525E+03  0.19304821238E+03  0.32523454291E+03  0.00000000000E+00 0.  1.
         22    1    5    5    0    0  0.10181444388E+03 -0.28983198539E+03 -0.41143282712E+03  0.51346444081E+03  0.00000000000E+00 0.  1.
          5    1    4    4  502    0  0.53314137817E+02  0.10409636612E+03 -0.30456330605E+02  0.12094680155E+03  0.47000000000E+01 0.  1.
         -5    1    4    4    0  502  0.25254279454E+02 -0.39270259728E+01  0.53187485443E+02  0.59196273290E+02  0.47000000000E+01 0.  1.
<mgrwt>
<rscale>  0 0.99987942E+03</rscale>
<asrwt>0</asrwt>
<pdfrwt beam="1">  1        2 0.63322200E-01 0.99987942E+03</pdfrwt>
<pdfrwt beam="2">  1       -2 0.93422732E-01 0.99987942E+03</pdfrwt>
<totfact> 0.89009376E+01</totfact>
</mgrwt>
</event>
<event>
 9    1  0.4246427E-036  0.9997339E+03  0.7818608E-02  0.8681291E-01
         -2   -1    0    0    0  501 -0.00000000000E+00  0.00000000000E+00  0.35592106983E+03  0.35592106983E+03  0.00000000000E+00 0. -1.
          2   -1    0    0  501    0  0.00000000000E+00 -0.00000000000E+00 -0.70202919112E+03  0.70202919112E+03  0.00000000000E+00 0. -1.
         36    2    1    2    0    0 -0.14210854715E-13 -0.21316282073E-13 -0.34610812129E+03  0.10579502610E+04  0.99973392612E+03 0.  0.
         25    2    3    3    0    0 -0.12221218340E+03  0.23659204578E+01  0.69557495928E+01  0.17445365054E+03  0.12427501109E+03 0.  0.
         35    2    3    3    0    0  0.12221218340E+03 -0.23659204578E+01 -0.35306387089E+03  0.88349661042E+03  0.80060648782E+03 0.  0.
         22    1    5    5    0    0  0.16305509929E+03  0.35432335521E+03 -0.35062081686E+03  0.52446826659E+03  0.00000000000E+00 0.  1.
         22    1    5    5    0    0 -0.40842915888E+02 -0.35668927567E+03 -0.24430540290E+01  0.35902834382E+03  0.00000000000E+00 0.  1.
          5    1    4    4  502    0 -0.11285701157E+03  0.15740183863E+02  0.52717863798E+02  0.12564124168E+03  0.47000000000E+01 0. -1.
         -5    1    4    4    0  502 -0.93551718309E+01 -0.13374263406E+02 -0.45762114205E+02  0.48812408854E+02  0.47000000000E+01 0. -1.
<mgrwt>
<rscale>  0 0.99973393E+03</rscale>
<asrwt>0</asrwt>
<pdfrwt beam="1">  1        2 0.10800449E+00 0.99973393E+03</pdfrwt>
<pdfrwt beam="2">  1       -2 0.54757089E-01 0.99973393E+03</pdfrwt>
<totfact> 0.15502035E+02</totfact>
</mgrwt>
</event>
<event>
 9    1  0.4246427E-036  0.9999036E+03  0.7818608E-02  0.8681130E-01
          2   -1    0    0  501    0  0.00000000000E+00  0.00000000000E+00  0.81043826364E+03  0.81043826364E+03  0.00000000000E+00 0.  1.
         -2   -1    0    0    0  501 -0.00000000000E+00 -0.00000000000E+00 -0.30841556929E+03  0.30841556929E+03  0.00000000000E+00 0.  1.
         36    2    1    2    0    0 -0.14210854715E-13 -0.28421709430E-13  0.50202269434E+03  0.11188538329E+04  0.99990355226E+03 0.  0.
         25    2    3    3    0    0  0.53684446135E+02  0.13864268807E+02  0.23822175601E+03  0.27454615314E+03  0.12470664560E+03 0.  0.
         35    2    3    3    0    0 -0.53684446135E+02 -0.13864268807E+02  0.26380093833E+03  0.84430767979E+03  0.80011891953E+03 0.  0.
         22    1    5    5    0    0 -0.58376208718E+02 -0.32376279561E+03 -0.12071685533E+03  0.35043214568E+03  0.00000000000E+00 0.  1.
         22    1    5    5    0    0  0.46917625830E+01  0.30989852681E+03  0.38451779365E+03  0.49387553411E+03  0.00000000000E+00 0.  1.
          5    1    4    4  502    0  0.90757517181E+02  0.19702889477E+02  0.12946570360E+03  0.15940071891E+03  0.47000000000E+01 0. -1.
         -5    1    4    4    0  502 -0.37073071046E+02 -0.58386206702E+01  0.10875605241E+03  0.11514543423E+03  0.47000000000E+01 0. -1.
<mgrwt>
<rscale>  0 0.99990355E+03</rscale>
<asrwt>0</asrwt>
<pdfrwt beam="1">  1        2 0.12468281E+00 0.99990355E+03</pdfrwt>
<pdfrwt beam="2">  1       -2 0.47448550E-01 0.99990355E+03</pdfrwt>
<totfact> 0.17247343E+02</totfact>
</mgrwt>
</event>
<event>
 9    1  0.4246427E-036  0.1001631E+04  0.7818608E-02  0.8679487E-01
         -2   -1    0    0    0  501 -0.00000000000E+00  0.00000000000E+00  0.40971275826E+03  0.40971275826E+03  0.00000000000E+00 0.  1.
          2   -1    0    0  501    0  0.00000000000E+00 -0.00000000000E+00 -0.61217525434E+03  0.61217525434E+03  0.00000000000E+00 0.  1.
         36    2    1    2    0    0 -0.28421709430E-13  0.14210854715E-13 -0.20246249609E+03  0.10218880126E+04  0.10016306944E+04 0.  0.
         25    2    3    3    0    0  0.98338902977E+02 -0.73453202063E+02 -0.10863256959E+03  0.20651074272E+03  0.12561743092E+03 0.  0.
         35    2    3    3    0    0 -0.98338902977E+02  0.73453202063E+02 -0.93829926500E+02  0.81537726988E+03  0.80060609816E+03 0.  0.
         22    1    5    5    0    0  0.10412173541E+03 -0.57448545118E+02 -0.40479392901E+03  0.42190022053E+03  0.00000000000E+00 0.  1.
         22    1    5    5    0    0 -0.20246063839E+03  0.13090174718E+03  0.31096400251E+03  0.39347704935E+03  0.00000000000E+00 0.  1.
          5    1    4    4  502    0 -0.24333592354E+02 -0.29381011478E+01 -0.44648161938E+02  0.51149824239E+02  0.47000000000E+01 0.  1.
         -5    1    4    4    0  502  0.12267249533E+03 -0.70515100916E+02 -0.63984407648E+02  0.15536091848E+03  0.47000000000E+01 0.  1.
<mgrwt>
<rscale>  0 0.10016307E+04</rscale>
<asrwt>0</asrwt>
<pdfrwt beam="1">  1        2 0.94180809E-01 0.10016307E+04</pdfrwt>
<pdfrwt beam="2">  1       -2 0.63032732E-01 0.10016307E+04</pdfrwt>
<totfact> 0.13656943E+02</totfact>
</mgrwt>
</event>
<event>
 9    1  0.4246427E-036  0.1000123E+04  0.7818608E-02  0.8680921E-01
         -2   -1    0    0    0  501 -0.00000000000E+00  0.00000000000E+00  0.84966712459E+02  0.84966712459E+02  0.00000000000E+00 0. -1.
          2   -1    0    0  501    0  0.00000000000E+00 -0.00000000000E+00 -0.29430523197E+04  0.29430523197E+04  0.00000000000E+00 0. -1.
         36    2    1    2    0    0 -0.71054273576E-14  0.00000000000E+00 -0.28580856072E+04  0.30280190322E+04  0.10001229528E+04 0.  0.
         25    2    3    3    0    0  0.30037921372E+01  0.34423547125E+02 -0.12802559496E+03  0.18284028875E+03  0.12588095511E+03 0.  0.
         35    2    3    3    0    0 -0.30037921372E+01 -0.34423547125E+02 -0.27300600123E+04  0.28451787434E+04  0.80038766105E+03 0.  0.
         22    1    5    5    0    0  0.31619730682E+02 -0.25898290708E+02 -0.27819324012E+04  0.27822326311E+04  0.00000000000E+00 0. -1.
         22    1    5    5    0    0 -0.34623522819E+02 -0.85252564160E+01  0.51872388881E+02  0.62946112331E+02  0.00000000000E+00 0. -1.
          5    1    4    4  502    0 -0.39000340527E+02 -0.31533669013E+02 -0.65376440488E+02  0.82532222881E+02  0.47000000000E+01 0.  1.
         -5    1    4    4    0  502  0.42004132664E+02  0.65957216138E+02 -0.62649154475E+02  0.10030806587E+03  0.47000000000E+01 0.  1.
<mgrwt>
<rscale>  0 0.10001230E+04</rscale>
<asrwt>0</asrwt>
<pdfrwt beam="1">  1        2 0.45277719E+00 0.10001230E+04</pdfrwt>
<pdfrwt beam="2">  1       -2 0.13071804E-01 0.10001230E+04</pdfrwt>
<totfact> 0.91819974E+01</totfact>
</mgrwt>
</event>
<event>
 9    1  0.4246427E-036  0.9999845E+03  0.7818608E-02  0.8681053E-01
         -1   -1    0    0    0  501 -0.00000000000E+00  0.00000000000E+00  0.92069810626E+02  0.92069810626E+02  0.00000000000E+00 0. -1.
          1   -1    0    0  501    0  0.00000000000E+00 -0.00000000000E+00 -0.27152464829E+04  0.27152464829E+04  0.00000000000E+00 0. -1.
         36    2    1    2    0    0  0.28421709430E-13  0.00000000000E+00 -0.26231766723E+04  0.28073162936E+04  0.99998445885E+03 0.  0.
         25    2    3    3    0    0 -0.85410128827E+02 -0.10049164094E+03 -0.60940724255E+03  0.63604752336E+03  0.12564157231E+03 0.  0.
         35    2    3    3    0    0  0.85410128827E+02  0.10049164094E+03 -0.20137694298E+04  0.21712687702E+04  0.80109131578E+03 0.  0.
         22    1    5    5    0    0  0.25735516522E+03 -0.28363825199E+03 -0.80827654374E+03  0.89442345130E+03  0.00000000000E+00 0.  1.
         22    1    5    5    0    0 -0.17194503640E+03  0.38412989293E+03 -0.12054928860E+04  0.12768453189E+04  0.00000000000E+00 0.  1.
          5    1    4    4  502    0 -0.17684076972E+02 -0.10681885997E+03 -0.44615235035E+03  0.45912634987E+03  0.47000000000E+01 0.  1.
         -5    1    4    4    0  502 -0.67726051854E+02  0.63272190349E+01 -0.16325489220E+03  0.17692117349E+03  0.47000000000E+01 0.  1.
<mgrwt>
<rscale>  0 0.99998446E+03</rscale>
<asrwt>0</asrwt>
<pdfrwt beam="1">  1        1 0.41773023E+00 0.99998446E+03</pdfrwt>
<pdfrwt beam="2">  1       -1 0.14164586E-01 0.99998446E+03</pdfrwt>
<totfact> 0.35137921E+01</totfact>
</mgrwt>
</event>
<event>
 9    1  0.4246427E-036  0.9969270E+03  0.7818608E-02  0.8683970E-01
         -1   -1    0    0    0  501 -0.00000000000E+00  0.00000000000E+00  0.47191814032E+03  0.47191814032E+03  0.00000000000E+00 0. -1.
          1   -1    0    0  501    0  0.00000000000E+00 -0.00000000000E+00 -0.52650203117E+03  0.52650203117E+03  0.00000000000E+00 0. -1.
         36    2    1    2    0    0 -0.28421709430E-13 -0.14210854715E-13 -0.54583890849E+02  0.99842017150E+03  0.99692699718E+03 0.  0.
         25    2    3    3    0    0 -0.47291342824E+02 -0.80389352607E+02  0.90248299276E+02  0.18006803094E+03  0.12482315942E+03 0.  0.
         35    2    3    3    0    0  0.47291342824E+02  0.80389352607E+02 -0.14483219012E+03  0.81835214055E+03  0.80001558956E+03 0.  0.
         22    1    5    5    0    0  0.32266651969E+03  0.28650733652E+03 -0.18988931564E+03  0.47144256172E+03  0.00000000000E+00 0. -1.
         22    1    5    5    0    0 -0.27537517687E+03 -0.20611798391E+03  0.45057125518E+02  0.34690957883E+03  0.00000000000E+00 0. -1.
          5    1    4    4  502    0  0.15962147467E+02  0.14637970300E+02 -0.13323915514E+02  0.25858790592E+02  0.47000000000E+01 0.  1.
         -5    1    4    4    0  502 -0.63253490291E+02 -0.95027322907E+02  0.10357221479E+03  0.15420924035E+03  0.47000000000E+01 0.  1.
<mgrwt>
<rscale>  0 0.99692700E+03</rscale>
<asrwt>0</asrwt>
<pdfrwt beam="1">  1        1 0.81000312E-01 0.99692700E+03</pdfrwt>
<pdfrwt beam="2">  1       -1 0.72602791E-01 0.99692700E+03</pdfrwt>
<totfact> 0.92802337E+01</totfact>
</mgrwt>
</event>
<event>
 9    1  0.4246427E-036  0.9996574E+03  0.7818608E-02  0.8681364E-01
          3   -1    0    0  501    0  0.00000000000E+00  0.00000000000E+00  0.29291631972E+03  0.29291631972E+03  0.00000000000E+00 0.  1.
         -3   -1    0    0    0  501 -0.00000000000E+00 -0.00000000000E+00 -0.85290134549E+03  0.85290134549E+03  0.00000000000E+00 0.  1.
         36    2    1    2    0    0 -0.14210854715E-13  0.00000000000E+00 -0.55998502577E+03  0.11458176652E+04  0.99965738772E+03 0.  0.
         25    2    3    3    0    0 -0.22914498086E+02  0.13317232213E+03 -0.11861995707E+03  0.21925063572E+03  0.12545997546E+03 0.  0.
         35    2    3    3    0    0  0.22914498086E+02 -0.13317232213E+03 -0.44136506871E+03  0.92656702949E+03  0.80340736533E+03 0.  0.
         22    1    5    5    0    0 -0.35467325190E+03 -0.18769216836E+03 -0.97467819959E+02  0.41294241923E+03  0.00000000000E+00 0. -1.
         22    1    5    5    0    0  0.37758774998E+03  0.54519846226E+02 -0.34389724875E+03  0.51362461026E+03  0.00000000000E+00 0. -1.
          5    1    4    4  502    0  0.45476830962E+02  0.60411933236E+02 -0.84807283810E+02  0.11371943202E+03  0.47000000000E+01 0.  1.
         -5    1    4    4    0  502 -0.68391329048E+02  0.72760388894E+02 -0.33812673256E+02  0.10553120370E+03  0.47000000000E+01 0.  1.
<mgrwt>
<rscale>  0 0.99965739E+03</rscale>
<asrwt>0</asrwt>
<pdfrwt beam="1">  1        3 0.45064049E-01 0.99965739E+03</pdfrwt>
<pdfrwt beam="2">  1       -3 0.13121559E+00 0.99965739E+03</pdfrwt>
<totfact> 0.75368052E+00</totfact>
</mgrwt>
</event>
<event>
 9    1  0.4246427E-036  0.1000331E+04  0.7818608E-02  0.8680723E-01
         -2   -1    0    0    0  501 -0.00000000000E+00  0.00000000000E+00  0.16941399446E+03  0.16941399446E+03  0.00000000000E+00 0. -1.
          2   -1    0    0  501    0  0.00000000000E+00 -0.00000000000E+00 -0.14766525530E+04  0.14766525530E+04  0.00000000000E+00 0. -1.
         36    2    1    2    0    0  0.14210854715E-13  0.14210854715E-13 -0.13072385585E+04  0.16460665474E+04  0.10003311600E+04 0.  0.
         25    2    3    3    0    0  0.79655759890E+02 -0.21532527024E+02 -0.42992627369E+03  0.45541401723E+03  0.12552544156E+03 0.  0.
         35    2    3    3    0    0 -0.79655759890E+02  0.21532527024E+02 -0.87731228484E+03  0.11906525302E+04  0.80072961277E+03 0.  0.
         22    1    5    5    0    0  0.32233303692E+03  0.16630623812E+03 -0.29011289890E+03  0.46445865869E+03  0.00000000000E+00 0. -1.
         22    1    5    5    0    0 -0.40198879681E+03 -0.14477371110E+03 -0.58719938594E+03  0.72619387152E+03  0.00000000000E+00 0. -1.
          5    1    4    4  502    0  0.55479415203E+02 -0.57869335641E+02 -0.38230100343E+03  0.39064430463E+03  0.47000000000E+01 0. -1.
         -5    1    4    4    0  502  0.24176344687E+02  0.36336808617E+02 -0.47625270261E+02  0.64769712601E+02  0.47000000000E+01 0. -1.
<mgrwt>
<rscale>  0 0.10003312E+04</rscale>
<asrwt>0</asrwt>
<pdfrwt beam="1">  1        2 0.22717732E+00 0.10003312E+04</pdfrwt>
<pdfrwt beam="2">  1       -2 0.26063691E-01 0.10003312E+04</pdfrwt>
<totfact> 0.20805055E+02</totfact>
</mgrwt>
</event>
<event>
 9    1  0.4246427E-036  0.1000683E+04  0.7818608E-02  0.8680388E-01
         -1   -1    0    0    0  501 -0.00000000000E+00  0.00000000000E+00  0.13185103491E+03  0.13185103491E+03  0.00000000000E+00 0.  1.
          1   -1    0    0  501    0  0.00000000000E+00 -0.00000000000E+00 -0.18986682371E+04  0.18986682371E+04  0.00000000000E+00 0.  1.
         36    2    1    2    0    0 -0.71054273576E-14  0.00000000000E+00 -0.17668172022E+04  0.20305192720E+04  0.10006825111E+04 0.  0.
         25    2    3    3    0    0  0.23421948401E+02 -0.12662109042E+03 -0.31584820869E+03  0.36863964960E+03  0.13983423085E+03 0.  0.
         35    2    3    3    0    0 -0.23421948401E+02  0.12662109042E+03 -0.14509689935E+04  0.16618796224E+04  0.79996960635E+03 0.  0.
         22    1    5    5    0    0 -0.39179164609E+03  0.51781562194E+01 -0.95497693130E+03  0.10322346858E+04  0.00000000000E+00 0.  1.
         22    1    5    5    0    0  0.36836969769E+03  0.12144293420E+03 -0.49599206223E+03  0.62964493665E+03  0.00000000000E+00 0.  1.
          5    1    4    4  502    0 -0.43986764005E+02 -0.64263708412E+02 -0.65255582516E+02  0.10171057308E+03  0.47000000000E+01 0. -1.
         -5    1    4    4    0  502  0.67408712405E+02 -0.62357382007E+02 -0.25059262618E+03  0.26692907652E+03  0.47000000000E+01 0. -1.
<mgrwt>
<rscale>  0 0.10006825E+04</rscale>
<asrwt>0</asrwt>
<pdfrwt beam="1">  1        1 0.29210280E+00 0.10006825E+04</pdfrwt>
<pdfrwt beam="2">  1       -1 0.20284775E-01 0.10006825E+04</pdfrwt>
<totfact> 0.73276734E+01</totfact>
</mgrwt>
</event>
<event>
 9    1  0.4246427E-036  0.1000746E+04  0.7818608E-02  0.8680328E-01
          2   -1    0    0  501    0  0.00000000000E+00  0.00000000000E+00  0.17016565080E+04  0.17016565080E+04  0.00000000000E+00 0. -1.
         -2   -1    0    0    0  501 -0.00000000000E+00 -0.00000000000E+00 -0.14713505495E+03  0.14713505495E+03  0.00000000000E+00 0. -1.
         36    2    1    2    0    0  0.14210854715E-13 -0.28421709430E-13  0.15545214531E+04  0.18487915630E+04  0.10007463691E+04 0.  0.
         25    2    3    3    0    0 -0.86004513806E+02  0.11148875424E+03  0.25013151977E+03  0.31239576962E+03  0.12328349841E+03 0.  0.
         35    2    3    3    0    0  0.86004513806E+02 -0.11148875424E+03  0.13043899333E+04  0.15363957933E+04  0.79953262408E+03 0.  0.
         22    1    5    5    0    0  0.79632282609E+02 -0.23285183801E+03  0.13743220123E+04  0.13961813179E+04  0.00000000000E+00 0. -1.
         22    1    5    5    0    0  0.63722311971E+01  0.12136308377E+03 -0.69932079053E+02  0.14021447541E+03  0.00000000000E+00 0. -1.
          5    1    4    4  502    0 -0.29084631805E+02  0.11545519404E+03  0.11483204641E+03  0.16548204289E+03  0.47000000000E+01 0. -1.
         -5    1    4    4    0  502 -0.56919882001E+02 -0.39664397964E+01  0.13529947335E+03  0.14691372673E+03  0.47000000000E+01 0. -1.
<mgrwt>
<rscale>  0 0.10007464E+04</rscale>
<asrwt>0</asrwt>
<pdfrwt beam="1">  1        2 0.26179330E+00 0.10007464E+04</pdfrwt>
<pdfrwt beam="2">  1       -2 0.22636163E-01 0.10007464E+04</pdfrwt>
<totfact> 0.19926598E+02</totfact>
</mgrwt>
</event>
<event>
 9    1  0.4246427E-036  0.9999501E+03  0.7818608E-02  0.8681085E-01
          1   -1    0    0  501    0  0.00000000000E+00  0.00000000000E+00  0.87389393060E+03  0.87389393060E+03  0.00000000000E+00 0. -1.
         -1   -1    0    0    0  501 -0.00000000000E+00 -0.00000000000E+00 -0.28604735945E+03  0.28604735945E+03  0.00000000000E+00 0. -1.
         36    2    1    2    0    0  0.28421709430E-13  0.71054273576E-14  0.58784657115E+03  0.11599412901E+04  0.99995010134E+03 0.  0.
         25    2    3    3    0    0  0.13663749927E+03 -0.31028503018E+01  0.69245316861E+02  0.19659744525E+03  0.12319175168E+03 0.  0.
         35    2    3    3    0    0 -0.13663749927E+03  0.31028503018E+01  0.51860125429E+03  0.96334384481E+03  0.80025287784E+03 0.  0.
         22    1    5    5    0    0 -0.53159687212E+02 -0.82358302522E+02 -0.20643757736E+03  0.22852858833E+03  0.00000000000E+00 0.  1.
         22    1    5    5    0    0 -0.83477812062E+02  0.85461152824E+02  0.72503883165E+03  0.73481525648E+03  0.00000000000E+00 0.  1.
          5    1    4    4  502    0  0.84787229631E+02  0.38705727438E+02  0.86914336184E+02  0.12752724995E+03  0.47000000000E+01 0. -1.
         -5    1    4    4    0  502  0.51850269643E+02 -0.41808577740E+02 -0.17669019323E+02  0.69070195298E+02  0.47000000000E+01 0. -1.
<mgrwt>
<rscale>  0 0.99995010E+03</rscale>
<asrwt>0</asrwt>
<pdfrwt beam="1">  1        1 0.13444522E+00 0.99995010E+03</pdfrwt>
<pdfrwt beam="2">  1       -1 0.44007287E-01 0.99995010E+03</pdfrwt>
<totfact> 0.11044396E+02</totfact>
</mgrwt>
</event>
<event>
 9    1  0.4246427E-036  0.1003226E+04  0.7818608E-02  0.8677972E-01
          1   -1    0    0  501    0  0.00000000000E+00  0.00000000000E+00  0.25447118113E+04  0.25447118113E+04  0.00000000000E+00 0.  1.
         -1   -1    0    0    0  501 -0.00000000000E+00 -0.00000000000E+00 -0.98877905738E+02  0.98877905738E+02  0.00000000000E+00 0.  1.
         36    2    1    2    0    0 -0.28421709430E-13  0.10658141036E-13  0.24458339056E+04  0.26435897171E+04  0.10032263446E+04 0.  0.
         25    2    3    3    0    0 -0.12220964371E+03  0.37902175712E+01  0.26533444011E+03  0.31778112035E+03  0.12503164631E+03 0.  0.
         35    2    3    3    0    0  0.12220964371E+03 -0.37902175712E+01  0.21804994655E+04  0.23258085967E+04  0.79991133685E+03 0.  0.
         22    1    5    5    0    0 -0.13042199049E+03  0.20453285404E+03  0.18305513508E+04  0.18465540425E+04  0.00000000000E+00 0.  1.
         22    1    5    5    0    0  0.25263163420E+03 -0.20832307161E+03  0.34994811470E+03  0.47925455423E+03  0.00000000000E+00 0.  1.
          5    1    4    4  502    0  0.24709227953E+02  0.89070002917E+01  0.54887948421E+02  0.61029971998E+02  0.47000000000E+01 0.  1.
         -5    1    4    4    0  502 -0.14691887167E+03 -0.51167827206E+01  0.21044649169E+03  0.25675114836E+03  0.47000000000E+01 0.  1.
<mgrwt>
<rscale>  0 0.10032263E+04</rscale>
<asrwt>0</asrwt>
<pdfrwt beam="1">  1        1 0.39149408E+00 0.10032263E+04</pdfrwt>
<pdfrwt beam="2">  1       -1 0.15211987E-01 0.10032263E+04</pdfrwt>
<totfact> 0.41283816E+01</totfact>
</mgrwt>
</event>
<event>
 9    1  0.4246427E-036  0.9997106E+03  0.7818608E-02  0.8681314E-01
         -2   -1    0    0    0  501 -0.00000000000E+00  0.00000000000E+00  0.15431019589E+03  0.15431019589E+03  0.00000000000E+00 0. -1.
          2   -1    0    0  501    0  0.00000000000E+00 -0.00000000000E+00 -0.16191756078E+04  0.16191756078E+04  0.00000000000E+00 0. -1.
         36    2    1    2    0    0 -0.14210854715E-13  0.42632564146E-13 -0.14648654119E+04  0.17734858037E+04  0.99971056856E+03 0.  0.
         25    2    3    3    0    0 -0.11594367085E+03  0.78783128203E+02 -0.28907300154E+03  0.34456642712E+03  0.12455162137E+03 0.  0.
         35    2    3    3    0    0  0.11594367085E+03 -0.78783128203E+02 -0.11757924104E+04  0.14289193766E+04  0.79979564661E+03 0.  0.
         22    1    5    5    0    0  0.90102382349E+02  0.28238263150E+03 -0.13268111483E+03  0.32475016260E+03  0.00000000000E+00 0. -1.
         22    1    5    5    0    0  0.25841288500E+02 -0.36116575970E+03 -0.10431112956E+04  0.11041692140E+04  0.00000000000E+00 0. -1.
          5    1    4    4  502    0 -0.73501358200E+02  0.10911195402E+03 -0.17447839801E+03  0.21856959885E+03  0.47000000000E+01 0.  1.
         -5    1    4    4    0  502 -0.42442312650E+02 -0.30328825822E+02 -0.11459460352E+03  0.12599682827E+03  0.47000000000E+01 0.  1.
<mgrwt>
<rscale>  0 0.99971057E+03</rscale>
<asrwt>0</asrwt>
<pdfrwt beam="1">  1        2 0.24910392E+00 0.99971057E+03</pdfrwt>
<pdfrwt beam="2">  1       -2 0.23740032E-01 0.99971057E+03</pdfrwt>
<totfact> 0.20396653E+02</totfact>
</mgrwt>
</event>
<event>
 9    1  0.4246427E-036  0.9993592E+03  0.7818608E-02  0.8681648E-01
          2   -1    0    0  501    0  0.00000000000E+00  0.00000000000E+00  0.18418073213E+04  0.18418073213E+04  0.00000000000E+00 0. -1.
         -2   -1    0    0    0  501 -0.00000000000E+00 -0.00000000000E+00 -0.13556233298E+03  0.13556233298E+03  0.00000000000E+00 0. -1.
         36    2    1    2    0    0  0.71054273576E-14  0.35527136788E-14  0.17062449883E+04  0.19773696542E+04  0.99935918942E+03 0.  0.
         25    2    3    3    0    0  0.23840011610E+02  0.19017469085E+02  0.58830539930E+03  0.60214013719E+03  0.12465749749E+03 0.  0.
         35    2    3    3    0    0 -0.23840011610E+02 -0.19017469085E+02  0.11179395890E+04  0.13752295171E+04  0.80033573561E+03 0.  0.
         22    1    5    5    0    0  0.96490749757E+02 -0.28634616480E+03  0.10235901767E+04  0.10672588443E+04  0.00000000000E+00 0.  1.
         22    1    5    5    0    0 -0.12033076137E+03  0.26732869572E+03  0.94349412278E+02  0.30797067276E+03  0.00000000000E+00 0.  1.
          5    1    4    4  502    0 -0.38342850757E+02 -0.94941681369E+01  0.81205028951E+02  0.90424886838E+02  0.47000000000E+01 0.  1.
         -5    1    4    4    0  502  0.62182862367E+02  0.28511637222E+02  0.50710037035E+03  0.51171525035E+03  0.47000000000E+01 0.  1.
<mgrwt>
<rscale>  0 0.99935919E+03</rscale>
<asrwt>0</asrwt>
<pdfrwt beam="1">  1        2 0.28335495E+00 0.99935919E+03</pdfrwt>
<pdfrwt beam="2">  1       -2 0.20855745E-01 0.99935919E+03</pdfrwt>
<totfact> 0.19165310E+02</totfact>
</mgrwt>
</event>
<event>
 9    1  0.4246427E-036  0.1003937E+04  0.7818608E-02  0.8677298E-01
          2   -1    0    0  501    0  0.00000000000E+00  0.00000000000E+00  0.63211628818E+03  0.63211628818E+03  0.00000000000E+00 0. -1.
         -2   -1    0    0    0  501 -0.00000000000E+00 -0.00000000000E+00 -0.39861703477E+03  0.39861703477E+03  0.00000000000E+00 0. -1.
         36    2    1    2    0    0 -0.17763568394E-13  0.00000000000E+00  0.23349925341E+03  0.10307333229E+04  0.10039368913E+04 0.  0.
         25    2    3    3    0    0  0.90449424682E+01 -0.11924188680E+03  0.10715711558E+03  0.20347619369E+03  0.12497789976E+03 0.  0.
         35    2    3    3    0    0 -0.90449424682E+01  0.11924188680E+03  0.12634213784E+03  0.82725712926E+03  0.80875928654E+03 0.  0.
         22    1    5    5    0    0  0.21542395192E+03  0.19568900119E+03 -0.24917793035E+03  0.38313353445E+03  0.00000000000E+00 0.  1.
         22    1    5    5    0    0 -0.22446889439E+03 -0.76447114391E+02  0.37552006819E+03  0.44412359480E+03  0.00000000000E+00 0.  1.
          5    1    4    4  502    0 -0.21985221766E+02 -0.72934734138E+02  0.12351569488E+03  0.14519312071E+03  0.47000000000E+01 0.  1.
         -5    1    4    4    0  502  0.31030164234E+02 -0.46307152658E+02 -0.16358579300E+02  0.58283072984E+02  0.47000000000E+01 0.  1.
<mgrwt>
<rscale>  0 0.10039369E+04</rscale>
<asrwt>0</asrwt>
<pdfrwt beam="1">  1        2 0.97248660E-01 0.10039369E+04</pdfrwt>
<pdfrwt beam="2">  1       -2 0.61325698E-01 0.10039369E+04</pdfrwt>
<totfact> 0.13924480E+02</totfact>
</mgrwt>
</event>
<event>
 9    1  0.4246427E-036  0.1000226E+04  0.7818608E-02  0.8680823E-01
          2   -1    0    0  501    0  0.00000000000E+00  0.00000000000E+00  0.13605387992E+04  0.13605387992E+04  0.00000000000E+00 0.  1.
         -2   -1    0    0    0  501 -0.00000000000E+00 -0.00000000000E+00 -0.18383363552E+03  0.18383363552E+03  0.00000000000E+00 0.  1.
         36    2    1    2    0    0  0.00000000000E+00  0.33750779949E-13  0.11767051637E+04  0.15443724348E+04  0.10002255620E+04 0.  0.
         25    2    3    3    0    0 -0.41202164836E+02 -0.10744036708E+02  0.43071205811E+03  0.45049984670E+03  0.12499672863E+03 0.  0.
         35    2    3    3    0    0  0.41202164836E+02  0.10744036708E+02  0.74599310561E+03  0.10938725881E+04  0.79889828676E+03 0.  0.
         22    1    5    5    0    0 -0.97546293827E+02  0.33215413091E+03  0.64079851898E+03  0.72832986211E+03  0.00000000000E+00 0. -1.
         22    1    5    5    0    0  0.13874845866E+03 -0.32141009421E+03  0.10519458663E+03  0.36554272595E+03  0.00000000000E+00 0. -1.
          5    1    4    4  502    0 -0.29585744186E+02  0.27320445054E+00  0.43266444725E+03  0.43370036294E+03  0.47000000000E+01 0. -1.
         -5    1    4    4    0  502 -0.11616420650E+02 -0.11017241158E+02 -0.19523891388E+01  0.16799483766E+02  0.47000000000E+01 0. -1.
<mgrwt>
<rscale>  0 0.10002256E+04</rscale>
<asrwt>0</asrwt>
<pdfrwt beam="1">  1        2 0.20931366E+00 0.10002256E+04</pdfrwt>
<pdfrwt beam="2">  1       -2 0.28282099E-01 0.10002256E+04</pdfrwt>
<totfact> 0.20927167E+02</totfact>
</mgrwt>
</event>
<event>
 9    1  0.4246427E-036  0.1001215E+04  0.7818608E-02  0.8679882E-01
         -2   -1    0    0    0  501 -0.00000000000E+00  0.00000000000E+00  0.36442081005E+03  0.36442081005E+03  0.00000000000E+00 0.  1.
          2   -1    0    0  501    0  0.00000000000E+00 -0.00000000000E+00 -0.68768800959E+03  0.68768800959E+03  0.00000000000E+00 0.  1.
         36    2    1    2    0    0 -0.28421709430E-13 -0.42632564146E-13 -0.32326719954E+03  0.10521088196E+04  0.10012149050E+04 0.  0.
         25    2    3    3    0    0  0.87696026453E+02  0.10395258153E+03 -0.10639216820E+03  0.21244624116E+03  0.12376340197E+03 0.  0.
         35    2    3    3    0    0 -0.87696026453E+02 -0.10395258153E+03 -0.21687503134E+03  0.83966257848E+03  0.79968852326E+03 0.  0.
         22    1    5    5    0    0 -0.36299000883E+03  0.14339050994E+03 -0.25715645712E+03  0.46738851964E+03  0.00000000000E+00 0. -1.
         22    1    5    5    0    0  0.27529398237E+03 -0.24734309147E+03  0.40281425783E+02  0.37227405885E+03  0.00000000000E+00 0. -1.
          5    1    4    4  502    0 -0.21538345521E+02  0.23965880426E+02  0.97649713577E+01  0.33995711759E+02  0.47000000000E+01 0.  1.
         -5    1    4    4    0  502  0.10923437197E+03  0.79986701100E+02 -0.11615713956E+03  0.17845052940E+03  0.47000000000E+01 0.  1.
<mgrwt>
<rscale>  0 0.10012149E+04</rscale>
<asrwt>0</asrwt>
<pdfrwt beam="1">  1        2 0.10579815E+00 0.10012149E+04</pdfrwt>
<pdfrwt beam="2">  1       -2 0.56064741E-01 0.10012149E+04</pdfrwt>
<totfact> 0.15148165E+02</totfact>
</mgrwt>
</event>
<event>
 9    1  0.4246427E-036  0.9983123E+03  0.7818608E-02  0.8682647E-01
          2   -1    0    0  501    0  0.00000000000E+00  0.00000000000E+00  0.30317730850E+03  0.30317730850E+03  0.00000000000E+00 0.  1.
         -2   -1    0    0    0  501 -0.00000000000E+00 -0.00000000000E+00 -0.82181901730E+03  0.82181901730E+03  0.00000000000E+00 0.  1.
         36    2    1    2    0    0  0.00000000000E+00 -0.28421709430E-13 -0.51864170880E+03  0.11249963258E+04  0.99831233137E+03 0.  0.
         25    2    3    3    0    0 -0.64352212920E+01  0.11541271926E+03 -0.11135730474E+02  0.17020245180E+03  0.12443215929E+03 0.  0.
         35    2    3    3    0    0  0.64352212920E+01 -0.11541271926E+03 -0.50750597833E+03  0.95479387401E+03  0.80044207533E+03 0.  0.
         22    1    5    5    0    0  0.10479434331E+03  0.30824598222E+03 -0.60558437279E+02  0.33115670652E+03  0.00000000000E+00 0. -1.
         22    1    5    5    0    0 -0.98359122016E+02 -0.42365870148E+03 -0.44694754105E+03  0.62363716749E+03  0.00000000000E+00 0. -1.
          5    1    4    4  502    0  0.48525674630E+02  0.75713594519E+02 -0.37174121179E+02  0.97423276371E+02  0.47000000000E+01 0.  1.
         -5    1    4    4    0  502 -0.54960895922E+02  0.39699124736E+02  0.26038390705E+02  0.72779175427E+02  0.47000000000E+01 0.  1.
<mgrwt>
<rscale>  0 0.99831233E+03</rscale>
<asrwt>0</asrwt>
<pdfrwt beam="1">  1        2 0.46642664E-01 0.99831233E+03</pdfrwt>
<pdfrwt beam="2">  1       -2 0.12643369E+00 0.99831233E+03</pdfrwt>
<totfact> 0.58589653E+01</totfact>
</mgrwt>
</event>
<event>
 9    1  0.4246427E-036  0.1000336E+04  0.7818608E-02  0.8680718E-01
         -2   -1    0    0    0  501 -0.00000000000E+00  0.00000000000E+00  0.17835230497E+03  0.17835230497E+03  0.00000000000E+00 0. -1.
          2   -1    0    0  501    0  0.00000000000E+00 -0.00000000000E+00 -0.14026624879E+04  0.14026624879E+04  0.00000000000E+00 0. -1.
         36    2    1    2    0    0  0.00000000000E+00  0.14210854715E-13 -0.12243101830E+04  0.15810147929E+04  0.10003361191E+04 0.  0.
         25    2    3    3    0    0 -0.96414551112E+02  0.75444349348E+02 -0.32800263205E+03  0.37304056768E+03  0.12878634630E+03 0.  0.
         35    2    3    3    0    0  0.96414551112E+02 -0.75444349348E+02 -0.89630755093E+03  0.12079742252E+04  0.80052912966E+03 0.  0.
         22    1    5    5    0    0  0.27559850777E+03 -0.17506830717E+03 -0.94281453581E+03  0.99774881538E+03  0.00000000000E+00 0.  1.
         22    1    5    5    0    0 -0.17918395666E+03  0.99623957826E+02  0.46506984886E+02  0.21022540984E+03  0.00000000000E+00 0.  1.
          5    1    4    4  502    0 -0.89138919483E+02  0.52245006371E+02 -0.10056621442E+03  0.14425997761E+03  0.47000000000E+01 0.  1.
         -5    1    4    4    0  502 -0.72756316291E+01  0.23199342977E+02 -0.22743641763E+03  0.22878059008E+03  0.47000000000E+01 0.  1.
<mgrwt>
<rscale>  0 0.10003361E+04</rscale>
<asrwt>0</asrwt>
<pdfrwt beam="1">  1        2 0.21579424E+00 0.10003361E+04</pdfrwt>
<pdfrwt beam="2">  1       -2 0.27438815E-01 0.10003361E+04</pdfrwt>
<totfact> 0.20906823E+02</totfact>
</mgrwt>
</event>
<event>
 9    1  0.4246427E-036  0.9998829E+03  0.7818608E-02  0.8681149E-01
         -3   -1    0    0    0  501 -0.00000000000E+00  0.00000000000E+00  0.95728697874E+02  0.95728697874E+02  0.00000000000E+00 0.  1.
          3   -1    0    0  501    0  0.00000000000E+00 -0.00000000000E+00 -0.26109353877E+04  0.26109353877E+04  0.00000000000E+00 0.  1.
         36    2    1    2    0    0  0.28421709430E-13  0.28421709430E-13 -0.25152066898E+04  0.27066640856E+04  0.99988288294E+03 0.  0.
         25    2    3    3    0    0  0.89588795379E+02  0.10346593666E+03 -0.44614610916E+03  0.48333057080E+03  0.12582025926E+03 0.  0.
         35    2    3    3    0    0 -0.89588795379E+02 -0.10346593666E+03 -0.20690605807E+04  0.22233335148E+04  0.80216511964E+03 0.  0.
         22    1    5    5    0    0 -0.29335184113E+03 -0.32922285068E+03 -0.16344533610E+04  0.16928912480E+04  0.00000000000E+00 0. -1.
         22    1    5    5    0    0  0.20376304575E+03  0.22575691402E+03 -0.43460721962E+03  0.53044226678E+03  0.00000000000E+00 0. -1.
          5    1    4    4  502    0  0.73339113988E+02  0.20029534439E+02 -0.33375068232E+03  0.34233231784E+03  0.47000000000E+01 0.  1.
         -5    1    4    4    0  502  0.16249681392E+02  0.83436402224E+02 -0.11239542684E+03  0.14099825295E+03  0.47000000000E+01 0.  1.
<mgrwt>
<rscale>  0 0.99988288E+03</rscale>
<asrwt>0</asrwt>
<pdfrwt beam="1">  1        3 0.40168231E+00 0.99988288E+03</pdfrwt>
<pdfrwt beam="2">  1       -3 0.14727494E-01 0.99988288E+03</pdfrwt>
<totfact> 0.34240553E+00</totfact>
</mgrwt>
</event>
<event>
 9    1  0.4246427E-036  0.1000233E+04  0.7818608E-02  0.8680816E-01
          2   -1    0    0  501    0  0.00000000000E+00  0.00000000000E+00  0.10536560993E+04  0.10536560993E+04  0.00000000000E+00 0. -1.
         -2   -1    0    0    0  501 -0.00000000000E+00 -0.00000000000E+00 -0.23737954418E+03  0.23737954418E+03  0.00000000000E+00 0. -1.
         36    2    1    2    0    0  0.00000000000E+00 -0.28421709430E-13  0.81627655510E+03  0.12910356435E+04  0.10002327820E+04 0.  0.
         25    2    3    3    0    0  0.11487475745E+03 -0.26996667431E+02  0.55465189281E+02  0.18050760530E+03  0.12482619275E+03 0.  0.
         35    2    3    3    0    0 -0.11487475745E+03  0.26996667431E+02  0.76081136582E+03  0.11105280382E+04  0.80032091016E+03 0.  0.
         22    1    5    5    0    0  0.22218290110E+03  0.24483322072E+03  0.11475139351E+03  0.34996632669E+03  0.00000000000E+00 0. -1.
         22    1    5    5    0    0 -0.33705765855E+03 -0.21783655329E+03  0.64605997231E+03  0.76056171147E+03  0.00000000000E+00 0. -1.
          5    1    4    4  502    0  0.62696939888E+02  0.30975505285E+02  0.72171952896E+02  0.10060451771E+03  0.47000000000E+01 0.  1.
         -5    1    4    4    0  502  0.52177817566E+02 -0.57972172716E+02 -0.16706763615E+02  0.79903087586E+02  0.47000000000E+01 0.  1.
<mgrwt>
<rscale>  0 0.10002328E+04</rscale>
<asrwt>0</asrwt>
<pdfrwt beam="1">  1        2 0.16210094E+00 0.10002328E+04</pdfrwt>
<pdfrwt beam="2">  1       -2 0.36519931E-01 0.10002328E+04</pdfrwt>
<totfact> 0.19853388E+02</totfact>
</mgrwt>
</event>
<event>
 9    1  0.4246427E-036  0.9998208E+03  0.7818608E-02  0.8681209E-01
          1   -1    0    0  501    0  0.00000000000E+00  0.00000000000E+00  0.17171842590E+04  0.17171842590E+04  0.00000000000E+00 0.  1.
         -1   -1    0    0    0  501 -0.00000000000E+00 -0.00000000000E+00 -0.14553499721E+03  0.14553499721E+03  0.00000000000E+00 0.  1.
         36    2    1    2    0    0  0.00000000000E+00 -0.28421709430E-13  0.15716492618E+04  0.18627192562E+04  0.99982079663E+03 0.  0.
         25    2    3    3    0    0  0.72116349324E+02  0.90127252574E+02  0.15489746174E+03  0.23076501750E+03  0.12623620777E+03 0.  0.
         35    2    3    3    0    0 -0.72116349324E+02 -0.90127252574E+02  0.14167518000E+04  0.16319542387E+04  0.80172644013E+03 0.  0.
         22    1    5    5    0    0  0.16222881111E+03  0.61331493716E+02  0.13278150758E+04  0.13390939530E+04  0.00000000000E+00 0. -1.
         22    1    5    5    0    0 -0.23434516043E+03 -0.15145874629E+03  0.88936724203E+02  0.29286028573E+03  0.00000000000E+00 0. -1.
          5    1    4    4  502    0  0.77311440308E+02 -0.44785656173E+00  0.50931789824E+02  0.92700574931E+02  0.47000000000E+01 0.  1.
         -5    1    4    4    0  502 -0.51950909841E+01  0.90575109135E+02  0.10396567192E+03  0.13806444257E+03  0.47000000000E+01 0.  1.
<mgrwt>
<rscale>  0 0.99982080E+03</rscale>
<asrwt>0</asrwt>
<pdfrwt beam="1">  1        1 0.26418218E+00 0.99982080E+03</pdfrwt>
<pdfrwt beam="2">  1       -1 0.22390001E-01 0.99982080E+03</pdfrwt>
<totfact> 0.83417619E+01</totfact>
</mgrwt>
</event>
<event>
 9    1  0.4246427E-036  0.9929706E+03  0.7818608E-02  0.8687761E-01
          2   -1    0    0  501    0  0.00000000000E+00  0.00000000000E+00  0.12352927675E+04  0.12352927675E+04  0.00000000000E+00 0. -1.
         -2   -1    0    0    0  501 -0.00000000000E+00 -0.00000000000E+00 -0.19954592642E+03  0.19954592642E+03  0.00000000000E+00 0. -1.
         36    2    1    2    0    0  0.00000000000E+00  0.14210854715E-13  0.10357468411E+04  0.14348386940E+04  0.99297057298E+03 0.  0.
         25    2    3    3    0    0  0.10910550380E+03  0.68420358506E+02  0.17850078879E+03  0.25357759803E+03  0.12591151737E+03 0.  0.
         35    2    3    3    0    0 -0.10910550380E+03 -0.68420358506E+02  0.85724605233E+03  0.11812610959E+04  0.80244727311E+03 0.  0.
         22    1    5    5    0    0 -0.34902958906E+03 -0.15164349352E+03  0.84532437305E+03  0.92703327817E+03  0.00000000000E+00 0.  1.
         22    1    5    5    0    0  0.23992408526E+03  0.83223135010E+02  0.11921679276E+02  0.25422781776E+03  0.00000000000E+00 0.  1.
          5    1    4    4  502    0  0.65129162188E+02  0.36157748926E+02  0.18399535885E+03  0.19855873854E+03  0.47000000000E+01 0.  1.
         -5    1    4    4    0  502  0.43976341615E+02  0.32262609580E+02 -0.54945700629E+01  0.55018859484E+02  0.47000000000E+01 0.  1.
<mgrwt>
<rscale>  0 0.99297057E+03</rscale>
<asrwt>0</asrwt>
<pdfrwt beam="1">  1        2 0.19004504E+00 0.99297057E+03</pdfrwt>
<pdfrwt beam="2">  1       -2 0.30699374E-01 0.99297057E+03</pdfrwt>
<totfact> 0.21312931E+02</totfact>
</mgrwt>
</event>
<event>
 9    1  0.4246427E-036  0.9993776E+03  0.7818608E-02  0.8681631E-01
          2   -1    0    0  501    0  0.00000000000E+00  0.00000000000E+00  0.48776195694E+03  0.48776195694E+03  0.00000000000E+00 0.  1.
         -2   -1    0    0    0  501 -0.00000000000E+00 -0.00000000000E+00 -0.51190732350E+03  0.51190732350E+03  0.00000000000E+00 0.  1.
         36    2    1    2    0    0 -0.14210854715E-13  0.28421709430E-13 -0.24145366553E+02  0.99966928044E+03  0.99937764210E+03 0.  0.
         25    2    3    3    0    0  0.27676811682E+02  0.12641172371E+03  0.51057385540E+02  0.18581117664E+03  0.12317876015E+03 0.  0.
         35    2    3    3    0    0 -0.27676811682E+02 -0.12641172371E+03 -0.75202752093E+02  0.81385810380E+03  0.79997726805E+03 0.  0.
         22    1    5    5    0    0 -0.94410440231E+02  0.77355780378E+02 -0.40360461032E+03  0.42165617445E+03  0.00000000000E+00 0.  1.
         22    1    5    5    0    0  0.66733628549E+02 -0.20376750409E+03  0.32840185822E+03  0.39220192935E+03  0.00000000000E+00 0.  1.
          5    1    4    4  502    0  0.71686643893E+02  0.41679891003E+02  0.24595194014E+02  0.86621023979E+02  0.47000000000E+01 0.  1.
         -5    1    4    4    0  502 -0.44009832211E+02  0.84731832706E+02  0.26462191526E+02  0.99190152663E+02  0.47000000000E+01 0.  1.
<mgrwt>
<rscale>  0 0.99937764E+03</rscale>
<asrwt>0</asrwt>
<pdfrwt beam="1">  1        2 0.75040301E-01 0.99937764E+03</pdfrwt>
<pdfrwt beam="2">  1       -2 0.78754973E-01 0.99937764E+03</pdfrwt>
<totfact> 0.10942841E+02</totfact>
</mgrwt>
</event>
<event>
 9    1  0.4246427E-036  0.9992366E+03  0.7818608E-02  0.8681765E-01
          2   -1    0    0  501    0  0.00000000000E+00  0.00000000000E+00  0.61311317981E+03  0.61311317981E+03  0.00000000000E+00 0.  1.
         -2   -1    0    0    0  501 -0.00000000000E+00 -0.00000000000E+00 -0.40713277320E+03  0.40713277320E+03  0.00000000000E+00 0.  1.
         36    2    1    2    0    0  0.14210854715E-13  0.14210854715E-13  0.20598040661E+03  0.10202459530E+04  0.99923664701E+03 0.  0.
         25    2    3    3    0    0  0.95373455682E+02  0.91255019160E+02  0.86579409436E+02  0.20107550821E+03  0.12454634195E+03 0.  0.
         35    2    3    3    0    0 -0.95373455682E+02 -0.91255019160E+02  0.11940099717E+03  0.81917044480E+03  0.79959992805E+03 0.  0.
         22    1    5    5    0    0  0.16519864326E+03  0.59551841898E+02  0.38151627740E+03  0.41999009932E+03  0.00000000000E+00 0.  1.
         22    1    5    5    0    0 -0.26057209894E+03 -0.15080686106E+03 -0.26211528023E+03  0.39918034548E+03  0.00000000000E+00 0.  1.
          5    1    4    4  502    0 -0.78474248753E+01  0.66369023676E+02  0.51672882653E+01  0.67195388598E+02  0.47000000000E+01 0. -1.
         -5    1    4    4    0  502  0.10322088056E+03  0.24885995484E+02  0.81412121171E+02  0.13388011961E+03  0.47000000000E+01 0. -1.
<mgrwt>
<rscale>  0 0.99923665E+03</rscale>
<asrwt>0</asrwt>
<pdfrwt beam="1">  1        2 0.94325104E-01 0.99923665E+03</pdfrwt>
<pdfrwt beam="2">  1       -2 0.62635811E-01 0.99923665E+03</pdfrwt>
<totfact> 0.13815775E+02</totfact>
</mgrwt>
</event>
<event>
 9    1  0.4246427E-036  0.9993824E+03  0.7818608E-02  0.8681626E-01
         -1   -1    0    0    0  501 -0.00000000000E+00  0.00000000000E+00  0.16576975857E+03  0.16576975857E+03  0.00000000000E+00 0.  1.
          1   -1    0    0  501    0  0.00000000000E+00 -0.00000000000E+00 -0.15062534861E+04  0.15062534861E+04  0.00000000000E+00 0.  1.
         36    2    1    2    0    0  0.14210854715E-13  0.28421709430E-13 -0.13404837275E+04  0.16720232447E+04  0.99938236275E+03 0.  0.
         25    2    3    3    0    0 -0.87616674100E+02 -0.95862224785E+02 -0.33539056473E+03  0.38069307013E+03  0.12479637420E+03 0.  0.
         35    2    3    3    0    0  0.87616674100E+02  0.95862224785E+02 -0.10050931628E+04  0.12913301745E+04  0.80028439074E+03 0.  0.
         22    1    5    5    0    0 -0.96783031480E+02  0.34620525645E+03 -0.16498624127E+03  0.39553191349E+03  0.00000000000E+00 0. -1.
         22    1    5    5    0    0  0.18439970558E+03 -0.25034303167E+03 -0.84010692152E+03  0.89579826106E+03  0.00000000000E+00 0. -1.
          5    1    4    4  502    0 -0.98132536568E+02 -0.16139864614E+02 -0.18552293548E+03  0.21055008799E+03  0.47000000000E+01 0.  1.
         -5    1    4    4    0  502  0.10515862469E+02 -0.79722360172E+02 -0.14986762926E+03  0.17014298215E+03  0.47000000000E+01 0.  1.
<mgrwt>
<rscale>  0 0.99938236E+03</rscale>
<asrwt>0</asrwt>
<pdfrwt beam="1">  1        1 0.23173129E+00 0.99938236E+03</pdfrwt>
<pdfrwt beam="2">  1       -1 0.25503041E-01 0.99938236E+03</pdfrwt>
<totfact> 0.94606578E+01</totfact>
</mgrwt>
</event>
<event>
 9    1  0.4246427E-036  0.1001849E+04  0.7818608E-02  0.8679279E-01
          1   -1    0    0  501    0  0.00000000000E+00  0.00000000000E+00  0.12343241105E+04  0.12343241105E+04  0.00000000000E+00 0.  1.
         -1   -1    0    0    0  501 -0.00000000000E+00 -0.00000000000E+00 -0.20328955954E+03  0.20328955954E+03  0.00000000000E+00 0.  1.
         36    2    1    2    0    0  0.28421709430E-13 -0.35527136788E-14  0.10310345510E+04  0.14376136701E+04  0.10018487007E+04 0.  0.
         25    2    3    3    0    0 -0.13402974692E+03 -0.25254371199E+02  0.26190525865E+03  0.32021760881E+03  0.12386765584E+03 0.  0.
         35    2    3    3    0    0  0.13402974692E+03  0.25254371199E+02  0.76912929234E+03  0.11173960612E+04  0.79900709198E+03 0.  0.
         22    1    5    5    0    0  0.28176097962E+03  0.47410488904E+02 -0.45378395239E+02  0.28930296032E+03  0.00000000000E+00 0.  1.
         22    1    5    5    0    0 -0.14773123271E+03 -0.22156117705E+02  0.81450768758E+03  0.82809310093E+03  0.00000000000E+00 0.  1.
          5    1    4    4  502    0  0.24007921288E+01 -0.13623625997E+02 -0.86299646645E+01  0.16968596827E+02  0.47000000000E+01 0.  1.
         -5    1    4    4    0  502 -0.13643053905E+03 -0.11630745202E+02  0.27053522331E+03  0.30324901199E+03  0.47000000000E+01 0.  1.
<mgrwt>
<rscale>  0 0.10018487E+04</rscale>
<asrwt>0</asrwt>
<pdfrwt beam="1">  1        1 0.18989601E+00 0.10018487E+04</pdfrwt>
<pdfrwt beam="2">  1       -1 0.31275318E-01 0.10018487E+04</pdfrwt>
<totfact> 0.10517411E+02</totfact>
</mgrwt>
</event>
<event>
 9    1  0.4246427E-036  0.9962862E+03  0.7818608E-02  0.8684583E-01
         -2   -1    0    0    0  501 -0.00000000000E+00  0.00000000000E+00  0.15650834276E+03  0.15650834276E+03  0.00000000000E+00 0. -1.
          2   -1    0    0  501    0  0.00000000000E+00 -0.00000000000E+00 -0.15855164866E+04  0.15855164866E+04  0.00000000000E+00 0. -1.
         36    2    1    2    0    0  0.00000000000E+00  0.00000000000E+00 -0.14290081439E+04  0.17420248294E+04  0.99628621941E+03 0.  0.
         25    2    3    3    0    0  0.89345910030E+02 -0.10432242283E+03 -0.24076215897E+03  0.30307632926E+03  0.12256828553E+03 0.  0.
         35    2    3    3    0    0 -0.89345910030E+02  0.10432242283E+03 -0.11882459849E+04  0.14389485002E+04  0.79986149168E+03 0.  0.
         22    1    5    5    0    0  0.64229477955E+02  0.15732666138E+03 -0.12526940357E+04  0.12641674933E+04  0.00000000000E+00 0.  1.
         22    1    5    5    0    0 -0.15357538798E+03 -0.53004238551E+02  0.64448050747E+02  0.17478100682E+03  0.00000000000E+00 0.  1.
          5    1    4    4  502    0  0.59441953928E+02  0.11983835935E+02 -0.56049481580E+02  0.82707875053E+02  0.47000000000E+01 0. -1.
         -5    1    4    4    0  502  0.29903956102E+02 -0.11630625876E+03 -0.18471267739E+03  0.22036845420E+03  0.47000000000E+01 0. -1.
<mgrwt>
<rscale>  0 0.99628622E+03</rscale>
<asrwt>0</asrwt>
<pdfrwt beam="1">  1        2 0.24392560E+00 0.99628622E+03</pdfrwt>
<pdfrwt beam="2">  1       -2 0.24078207E-01 0.99628622E+03</pdfrwt>
<totfact> 0.20782008E+02</totfact>
</mgrwt>
</event>
<event>
 9    1  0.4246427E-036  0.1001411E+04  0.7818608E-02  0.8679696E-01
          2   -1    0    0  501    0  0.00000000000E+00  0.00000000000E+00  0.32319754903E+04  0.32319754903E+04  0.00000000000E+00 0. -1.
         -2   -1    0    0    0  501 -0.00000000000E+00 -0.00000000000E+00 -0.77570440744E+02  0.77570440744E+02  0.00000000000E+00 0. -1.
         36    2    1    2    0    0 -0.28421709430E-13  0.00000000000E+00  0.31544050496E+04  0.33095459311E+04  0.10014105317E+04 0.  0.
         25    2    3    3    0    0  0.79021458452E+02  0.56623137365E+02  0.25119533191E+03  0.29677423430E+03  0.12460048472E+03 0.  0.
         35    2    3    3    0    0 -0.79021458452E+02 -0.56623137365E+02  0.29032097177E+04  0.30127716968E+04  0.79919713554E+03 0.  0.
         22    1    5    5    0    0  0.32692688494E+03 -0.18937158437E+03  0.13938953009E+04  0.14441907405E+04  0.00000000000E+00 0.  1.
         22    1    5    5    0    0 -0.40594834340E+03  0.13274844700E+03  0.15093144168E+04  0.15685809563E+04  0.00000000000E+00 0.  1.
          5    1    4    4  502    0  0.22545807668E+02 -0.37395423684E+02  0.10609583050E+03  0.11482659277E+03  0.47000000000E+01 0.  1.
         -5    1    4    4    0  502  0.56475650784E+02  0.94018561049E+02  0.14509950140E+03  0.18194764153E+03  0.47000000000E+01 0.  1.
<mgrwt>
<rscale>  0 0.10014105E+04</rscale>
<asrwt>0</asrwt>
<pdfrwt beam="1">  1        2 0.49722689E+00 0.10014105E+04</pdfrwt>
<pdfrwt beam="2">  1       -2 0.11933916E-01 0.10014105E+04</pdfrwt>
<totfact> 0.67817899E+01</totfact>
</mgrwt>
</event>
<event>
 9    1  0.4246427E-036  0.9992131E+03  0.7818608E-02  0.8681788E-01
          2   -1    0    0  501    0  0.00000000000E+00  0.00000000000E+00  0.21606279668E+04  0.21606279668E+04  0.00000000000E+00 0.  1.
         -2   -1    0    0    0  501 -0.00000000000E+00 -0.00000000000E+00 -0.11552508060E+03  0.11552508060E+03  0.00000000000E+00 0.  1.
         36    2    1    2    0    0  0.00000000000E+00  0.00000000000E+00  0.20451028862E+04  0.22761530474E+04  0.99921313043E+03 0.  0.
         25    2    3    3    0    0  0.10457668727E+03 -0.87652701803E+02  0.45985007919E+03  0.49554530330E+03  0.12443380825E+03 0.  0.
         35    2    3    3    0    0 -0.10457668727E+03  0.87652701803E+02  0.15852528070E+04  0.17806077441E+04  0.79932358688E+03 0.  0.
         22    1    5    5    0    0 -0.93918494346E+02 -0.46536362811E+02 -0.66008553215E+02  0.12386866327E+03  0.00000000000E+00 0. -1.
         22    1    5    5    0    0 -0.10658192922E+02  0.13418906461E+03  0.16512613603E+04  0.16567390809E+04  0.00000000000E+00 0. -1.
          5    1    4    4  502    0  0.12844670462E+03 -0.53808532054E+02  0.30752469000E+03  0.33762025859E+03  0.47000000000E+01 0.  1.
         -5    1    4    4    0  502 -0.23870017353E+02 -0.33844169749E+02  0.15232538919E+03  0.15792504471E+03  0.47000000000E+01 0.  1.
<mgrwt>
<rscale>  0 0.99921313E+03</rscale>
<asrwt>0</asrwt>
<pdfrwt beam="1">  1        2 0.33240427E+00 0.99921313E+03</pdfrwt>
<pdfrwt beam="2">  1       -2 0.17773091E-01 0.99921313E+03</pdfrwt>
<totfact> 0.16607191E+02</totfact>
</mgrwt>
</event>
<event>
 9    1  0.4246427E-036  0.1000154E+04  0.7818608E-02  0.8680892E-01
          2   -1    0    0  501    0  0.00000000000E+00  0.00000000000E+00  0.11289039461E+04  0.11289039461E+04  0.00000000000E+00 0. -1.
         -2   -1    0    0    0  501 -0.00000000000E+00 -0.00000000000E+00 -0.22152174876E+03  0.22152174876E+03  0.00000000000E+00 0. -1.
         36    2    1    2    0    0 -0.28421709430E-13 -0.71054273576E-14  0.90738219731E+03  0.13504256948E+04  0.10001535408E+04 0.  0.
         25    2    3    3    0    0 -0.62651147285E+02 -0.60726684466E+02  0.31927450855E+03  0.35376208911E+03  0.12489398473E+03 0.  0.
         35    2    3    3    0    0  0.62651147285E+02  0.60726684466E+02  0.58810768876E+03  0.99666360571E+03  0.79990924042E+03 0.  0.
         22    1    5    5    0    0 -0.33404467760E+03  0.18879183390E+03  0.33217101914E+03  0.50750939808E+03  0.00000000000E+00 0.  1.
         22    1    5    5    0    0  0.39669582489E+03 -0.12806514944E+03  0.25593666962E+03  0.48915420763E+03  0.00000000000E+00 0.  1.
          5    1    4    4  502    0 -0.53249647756E+02 -0.83326066067E+02  0.13285784086E+03  0.16568661428E+03  0.47000000000E+01 0.  1.
         -5    1    4    4    0  502 -0.94014995284E+01  0.22599381601E+02  0.18641666769E+03  0.18807547483E+03  0.47000000000E+01 0.  1.
<mgrwt>
<rscale>  0 0.10001535E+04</rscale>
<asrwt>0</asrwt>
<pdfrwt beam="1">  1        2 0.17367753E+00 0.10001535E+04</pdfrwt>
<pdfrwt beam="2">  1       -2 0.34080270E-01 0.10001535E+04</pdfrwt>
<totfact> 0.20332084E+02</totfact>
</mgrwt>
</event>
<event>
 9    1  0.4246427E-036  0.1000486E+04  0.7818608E-02  0.8680575E-01
          4   -1    0    0  501    0  0.00000000000E+00  0.00000000000E+00  0.58640077824E+03  0.58640077824E+03  0.00000000000E+00 0. -1.
         -4   -1    0    0    0  501 -0.00000000000E+00 -0.00000000000E+00 -0.42674431432E+03  0.42674431432E+03  0.00000000000E+00 0. -1.
         36    2    1    2    0    0  0.14210854715E-13  0.00000000000E+00  0.15965646392E+03  0.10131450926E+04  0.10004862778E+04 0.  0.
         25    2    3    3    0    0 -0.58980521725E+02  0.12911242797E+03  0.24643101833E+02  0.18971255576E+03  0.12342953596E+03 0.  0.
         35    2    3    3    0    0  0.58980521725E+02 -0.12911242797E+03  0.13501336209E+03  0.82343253680E+03  0.79978985597E+03 0.  0.
         22    1    5    5    0    0 -0.20724871979E+03 -0.19756738727E+03  0.36578004004E+03  0.46452119657E+03  0.00000000000E+00 0.  1.
         22    1    5    5    0    0  0.26622924152E+03  0.68454959295E+02 -0.23076667795E+03  0.35891134023E+03  0.00000000000E+00 0.  1.
          5    1    4    4  502    0  0.31750579230E+01  0.18366028018E+02 -0.42018655004E+02  0.46206594186E+02  0.47000000000E+01 0.  1.
         -5    1    4    4    0  502 -0.62155579648E+02  0.11074639995E+03  0.66661756837E+02  0.14350596158E+03  0.47000000000E+01 0.  1.
<mgrwt>
<rscale>  0 0.10004863E+04</rscale>
<asrwt>0</asrwt>
<pdfrwt beam="1">  1        4 0.90215504E-01 0.10004863E+04</pdfrwt>
<pdfrwt beam="2">  1       -4 0.65652972E-01 0.10004863E+04</pdfrwt>
<totfact> 0.51521731E+00</totfact>
</mgrwt>
</event>
<event>
 9    1  0.4246427E-036  0.9997493E+03  0.7818608E-02  0.8681277E-01
         -2   -1    0    0    0  501 -0.00000000000E+00  0.00000000000E+00  0.15238810148E+03  0.15238810148E+03  0.00000000000E+00 0. -1.
          2   -1    0    0  501    0  0.00000000000E+00 -0.00000000000E+00 -0.16397254821E+04  0.16397254821E+04  0.00000000000E+00 0. -1.
         36    2    1    2    0    0 -0.35527136788E-14  0.14210854715E-13 -0.14873373807E+04  0.17921135836E+04  0.99974927490E+03 0.  0.
         25    2    3    3    0    0 -0.14752242508E+02  0.11643965918E+03 -0.14022784611E+03  0.22147363723E+03  0.12494358836E+03 0.  0.
         35    2    3    3    0    0  0.14752242508E+02 -0.11643965918E+03 -0.13471095346E+04  0.15706399464E+04  0.79901809756E+03 0.  0.
         22    1    5    5    0    0 -0.29574372682E+03  0.19760783246E+03 -0.47859961016E+03  0.59629757190E+03  0.00000000000E+00 0. -1.
         22    1    5    5    0    0  0.31049596932E+03 -0.31404749165E+03 -0.86850992439E+03  0.97434237450E+03  0.00000000000E+00 0. -1.
          5    1    4    4  502    0  0.16394282184E+01  0.13583777722E+03 -0.14070873789E+03  0.19564158138E+03  0.47000000000E+01 0.  1.
         -5    1    4    4    0  502 -0.16391670726E+02 -0.19398118036E+02  0.48089177866E+00  0.25832055850E+02  0.47000000000E+01 0.  1.
<mgrwt>
<rscale>  0 0.99974927E+03</rscale>
<asrwt>0</asrwt>
<pdfrwt beam="1">  1        2 0.25226544E+00 0.99974927E+03</pdfrwt>
<pdfrwt beam="2">  1       -2 0.23444325E-01 0.99974927E+03</pdfrwt>
<totfact> 0.20303379E+02</totfact>
</mgrwt>
</event>
<event>
 9    1  0.4246427E-036  0.9998191E+03  0.7818608E-02  0.8681210E-01
          2   -1    0    0  501    0  0.00000000000E+00  0.00000000000E+00  0.66771022172E+03  0.66771022172E+03  0.00000000000E+00 0.  1.
         -2   -1    0    0    0  501 -0.00000000000E+00 -0.00000000000E+00 -0.37427849157E+03  0.37427849157E+03  0.00000000000E+00 0.  1.
         36    2    1    2    0    0 -0.28421709430E-13  0.14210854715E-13  0.29343173014E+03  0.10419887133E+04  0.99981913283E+03 0.  0.
         25    2    3    3    0    0 -0.67389570829E+02  0.81371528895E+02 -0.41012789207E+02  0.16908415458E+03  0.12547797607E+03 0.  0.
         35    2    3    3    0    0  0.67389570829E+02 -0.81371528895E+02  0.33444451935E+03  0.87290455871E+03  0.79934132392E+03 0.  0.
         22    1    5    5    0    0  0.31864737624E+03 -0.20294325603E+03  0.43506557123E+03  0.57619802744E+03  0.00000000000E+00 0. -1.
         22    1    5    5    0    0 -0.25125780541E+03  0.12157172713E+03 -0.10062105188E+03  0.29670653127E+03  0.00000000000E+00 0. -1.
          5    1    4    4  502    0 -0.48500667279E+02  0.36362410887E+02 -0.84120608453E+02  0.10379261254E+03  0.47000000000E+01 0.  1.
         -5    1    4    4    0  502 -0.18888903550E+02  0.45009118008E+02  0.43107819246E+02  0.65291542035E+02  0.47000000000E+01 0.  1.
<mgrwt>
<rscale>  0 0.99981913E+03</rscale>
<asrwt>0</asrwt>
<pdfrwt beam="1">  1        2 0.10272465E+00 0.99981913E+03</pdfrwt>
<pdfrwt beam="2">  1       -2 0.57581307E-01 0.99981913E+03</pdfrwt>
<totfact> 0.14861890E+02</totfact>
</mgrwt>
</event>
<event>
 9    1  0.4246427E-036  0.1001195E+04  0.7818608E-02  0.8679901E-01
         -2   -1    0    0    0  501 -0.00000000000E+00  0.00000000000E+00  0.12181785643E+03  0.12181785643E+03  0.00000000000E+00 0. -1.
          2   -1    0    0  501    0  0.00000000000E+00 -0.00000000000E+00 -0.20571527131E+04  0.20571527131E+04  0.00000000000E+00 0. -1.
         36    2    1    2    0    0 -0.28421709430E-13  0.28421709430E-13 -0.19353348567E+04  0.21789705695E+04  0.10011951535E+04 0.  0.
         25    2    3    3    0    0  0.10339446341E+03  0.77224848577E+02 -0.48540405504E+03  0.51762988870E+03  0.12517792427E+03 0.  0.
         35    2    3    3    0    0 -0.10339446341E+03 -0.77224848577E+02 -0.14499308016E+04  0.16613406808E+04  0.80068685261E+03 0.  0.
         22    1    5    5    0    0  0.18977762276E+03 -0.10529157095E+03 -0.39632061624E+02  0.22061858789E+03  0.00000000000E+00 0.  1.
         22    1    5    5    0    0 -0.29317208617E+03  0.28066722371E+02 -0.14102987400E+04  0.14407220929E+04  0.00000000000E+00 0.  1.
          5    1    4    4  502    0  0.12210663331E+03  0.76559069137E+02 -0.31861014035E+03  0.34972250785E+03  0.47000000000E+01 0.  1.
         -5    1    4    4    0  502 -0.18712169904E+02  0.66577944015E+00 -0.16679391469E+03  0.16790738084E+03  0.47000000000E+01 0.  1.
<mgrwt>
<rscale>  0 0.10011952E+04</rscale>
<asrwt>0</asrwt>
<pdfrwt beam="1">  1        2 0.31648501E+00 0.10011952E+04</pdfrwt>
<pdfrwt beam="2">  1       -2 0.18741210E-01 0.10011952E+04</pdfrwt>
<totfact> 0.17393235E+02</totfact>
</mgrwt>
</event>
<event>
 9    1  0.4246427E-036  0.9990800E+03  0.7818608E-02  0.8681915E-01
          2   -1    0    0  501    0  0.00000000000E+00  0.00000000000E+00  0.10367262658E+04  0.10367262658E+04  0.00000000000E+00 0. -1.
         -2   -1    0    0    0  501 -0.00000000000E+00 -0.00000000000E+00 -0.24070021487E+03  0.24070021487E+03  0.00000000000E+00 0. -1.
         36    2    1    2    0    0  0.00000000000E+00  0.00000000000E+00  0.79602605090E+03  0.12774264806E+04  0.99908004672E+03 0.  0.
         25    2    3    3    0    0 -0.12897583632E+03 -0.45548575426E+02  0.16845005936E+03  0.25070487634E+03  0.12557098966E+03 0.  0.
         35    2    3    3    0    0  0.12897583632E+03  0.45548575426E+02  0.62757599154E+03  0.10267216043E+04  0.80099699658E+03 0.  0.
         22    1    5    5    0    0  0.83264538613E+02  0.27142076140E+03  0.72341948756E+03  0.77713445947E+03  0.00000000000E+00 0.  1.
         22    1    5    5    0    0  0.45711297705E+02 -0.22587218598E+03 -0.95843496028E+02  0.24958714484E+03  0.00000000000E+00 0.  1.
          5    1    4    4  502    0 -0.51708141845E+02 -0.84107433808E+02  0.97565485074E+02  0.13888450681E+03  0.47000000000E+01 0. -1.
         -5    1    4    4    0  502 -0.77267694473E+02  0.38558858382E+02  0.70884574288E+02  0.11182036953E+03  0.47000000000E+01 0. -1.
<mgrwt>
<rscale>  0 0.99908005E+03</rscale>
<asrwt>0</asrwt>
<pdfrwt beam="1">  1        2 0.15949635E+00 0.99908005E+03</pdfrwt>
<pdfrwt beam="2">  1       -2 0.37030803E-01 0.99908005E+03</pdfrwt>
<totfact> 0.19812430E+02</totfact>
</mgrwt>
</event>
<event>
 9    1  0.4246427E-036  0.9999754E+03  0.7818608E-02  0.8681061E-01
          1   -1    0    0  501    0  0.00000000000E+00  0.00000000000E+00  0.10107144814E+04  0.10107144814E+04  0.00000000000E+00 0.  1.
         -1   -1    0    0    0  501 -0.00000000000E+00 -0.00000000000E+00 -0.24733761965E+03  0.24733761965E+03  0.00000000000E+00 0.  1.
         36    2    1    2    0    0  0.35527136788E-13  0.00000000000E+00  0.76337686172E+03  0.12580521010E+04  0.99997542763E+03 0.  0.
         25    2    3    3    0    0  0.54533017632E+02  0.75915640489E+01 -0.17201216916E+02  0.13827632393E+03  0.12567011594E+03 0.  0.
         35    2    3    3    0    0 -0.54533017632E+02 -0.75915640489E+01  0.78057807864E+03  0.11197757771E+04  0.80097701105E+03 0.  0.
         22    1    5    5    0    0  0.36721262710E+03 -0.61242568573E+02  0.29985261534E+03  0.47802443100E+03  0.00000000000E+00 0.  1.
         22    1    5    5    0    0 -0.42174564473E+03  0.53651004524E+02  0.48072546329E+03  0.64175134608E+03  0.00000000000E+00 0.  1.
          5    1    4    4  502    0  0.16511649559E+02 -0.58279961064E+02 -0.35372203197E+01  0.60858773898E+02  0.47000000000E+01 0.  1.
         -5    1    4    4    0  502  0.38021368073E+02  0.65871525113E+02 -0.13663996597E+02  0.77417550037E+02  0.47000000000E+01 0.  1.
<mgrwt>
<rscale>  0 0.99997543E+03</rscale>
<asrwt>0</asrwt>
<pdfrwt beam="1">  1        1 0.15549453E+00 0.99997543E+03</pdfrwt>
<pdfrwt beam="2">  1       -1 0.38051942E-01 0.99997543E+03</pdfrwt>
<totfact> 0.11075300E+02</totfact>
</mgrwt>
</event>
<event>
 9    1  0.4246427E-036  0.1000042E+04  0.7818608E-02  0.8680998E-01
         -2   -1    0    0    0  501 -0.00000000000E+00  0.00000000000E+00  0.84288385902E+03  0.84288385902E+03  0.00000000000E+00 0. -1.
          2   -1    0    0  501    0  0.00000000000E+00 -0.00000000000E+00 -0.29662565144E+03  0.29662565144E+03  0.00000000000E+00 0. -1.
         36    2    1    2    0    0  0.21316282073E-13  0.00000000000E+00  0.54625820757E+03  0.11395095105E+04  0.10000419467E+04 0.  0.
         25    2    3    3    0    0  0.81081984598E+01  0.67919491068E+02 -0.36137289484E+02  0.14705077551E+03  0.12505689400E+03 0.  0.
         35    2    3    3    0    0 -0.81081984598E+01 -0.67919491068E+02  0.58239549706E+03  0.99245873495E+03  0.80069408980E+03 0.  0.
         22    1    5    5    0    0  0.16400076829E+03  0.20709589471E+03 -0.61692218192E+02  0.27127641141E+03  0.00000000000E+00 0. -1.
         22    1    5    5    0    0 -0.17210896675E+03 -0.27501538578E+03  0.64408771525E+03  0.72118232354E+03  0.00000000000E+00 0. -1.
          5    1    4    4  502    0  0.58324215992E+02  0.70995119105E+02 -0.24220026187E+02  0.95135276193E+02  0.47000000000E+01 0.  1.
         -5    1    4    4    0  502 -0.50216017532E+02 -0.30756280363E+01 -0.11917263297E+02  0.51915499315E+02  0.47000000000E+01 0.  1.
<mgrwt>
<rscale>  0 0.10000419E+04</rscale>
<asrwt>0</asrwt>
<pdfrwt beam="1">  1        2 0.45634716E-01 0.10000419E+04</pdfrwt>
<pdfrwt beam="2">  1       -2 0.12967444E+00 0.10000419E+04</pdfrwt>
<totfact> 0.56132851E+01</totfact>
</mgrwt>
</event>
<event>
 9    1  0.4246427E-036  0.9999005E+03  0.7818608E-02  0.8681133E-01
         -1   -1    0    0    0  501 -0.00000000000E+00  0.00000000000E+00  0.17783763353E+04  0.17783763353E+04  0.00000000000E+00 0. -1.
          1   -1    0    0  501    0  0.00000000000E+00 -0.00000000000E+00 -0.14054969580E+03  0.14054969580E+03  0.00000000000E+00 0. -1.
         36    2    1    2    0    0 -0.28421709430E-13 -0.71054273576E-14  0.16378266395E+04  0.19189260311E+04  0.99990050093E+03 0.  0.
         25    2    3    3    0    0 -0.12745857504E+03 -0.61376253895E+02  0.29469505036E+03  0.34936262504E+03  0.12327342849E+03 0.  0.
         35    2    3    3    0    0  0.12745857504E+03  0.61376253895E+02  0.13431315891E+04  0.15695634060E+04  0.79969624671E+03 0.  0.
         22    1    5    5    0    0  0.43763367003E+03  0.86908076678E+02  0.49641662510E+03  0.66746214021E+03  0.00000000000E+00 0.  1.
         22    1    5    5    0    0 -0.31017509499E+03 -0.25531822784E+02  0.84671496402E+03  0.90210126584E+03  0.00000000000E+00 0.  1.
          5    1    4    4  502    0 -0.15476069340E+02  0.31976174916E+02  0.28356020693E+02  0.45696152946E+02  0.47000000000E+01 0. -1.
         -5    1    4    4    0  502 -0.11198250570E+03 -0.93352428811E+02  0.26633902967E+03  0.30366647209E+03  0.47000000000E+01 0. -1.
<mgrwt>
<rscale>  0 0.99990050E+03</rscale>
<asrwt>0</asrwt>
<pdfrwt beam="1">  1        1 0.21623031E-01 0.99990050E+03</pdfrwt>
<pdfrwt beam="2">  1       -1 0.27359634E+00 0.99990050E+03</pdfrwt>
<totfact> 0.77314187E+00</totfact>
</mgrwt>
</event>
<event>
 9    1  0.4246427E-036  0.1000279E+04  0.7818608E-02  0.8680772E-01
          2   -1    0    0  501    0  0.00000000000E+00  0.00000000000E+00  0.19021604473E+04  0.19021604473E+04  0.00000000000E+00 0.  1.
         -2   -1    0    0    0  501 -0.00000000000E+00 -0.00000000000E+00 -0.13150281205E+03  0.13150281205E+03  0.00000000000E+00 0.  1.
         36    2    1    2    0    0  0.00000000000E+00  0.56843418861E-13  0.17706576352E+04  0.20336632593E+04  0.10002788567E+04 0.  0.
         25    2    3    3    0    0 -0.10058604645E+03 -0.93913975814E+02  0.27377270869E+03  0.33093623183E+03  0.12501962212E+03 0.  0.
         35    2    3    3    0    0  0.10058604645E+03  0.93913975814E+02  0.14968849266E+04  0.17027270275E+04  0.79979838667E+03 0.  0.
         22    1    5    5    0    0 -0.17050014763E+03 -0.27244695104E+03  0.38792606515E+03  0.50377006014E+03  0.00000000000E+00 0.  1.
         22    1    5    5    0    0  0.27108619408E+03  0.36636092686E+03  0.11089588614E+04  0.11989569674E+04  0.00000000000E+00 0.  1.
          5    1    4    4  502    0 -0.10877940572E+03 -0.61401235177E+02  0.11928946694E+03  0.17278639331E+03  0.47000000000E+01 0. -1.
         -5    1    4    4    0  502  0.81933592681E+01 -0.32512740637E+02  0.15448324176E+03  0.15814983852E+03  0.47000000000E+01 0. -1.
<mgrwt>
<rscale>  0 0.10002789E+04</rscale>
<asrwt>0</asrwt>
<pdfrwt beam="1">  1        2 0.29264005E+00 0.10002789E+04</pdfrwt>
<pdfrwt beam="2">  1       -2 0.20231203E-01 0.10002789E+04</pdfrwt>
<totfact> 0.18676105E+02</totfact>
</mgrwt>
</event>
<event>
 9    1  0.4246427E-036  0.1000459E+04  0.7818608E-02  0.8680601E-01
         -1   -1    0    0    0  501 -0.00000000000E+00  0.00000000000E+00  0.16548107204E+03  0.16548107204E+03  0.00000000000E+00 0.  1.
          1   -1    0    0  501    0  0.00000000000E+00 -0.00000000000E+00 -0.15121328777E+04  0.15121328777E+04  0.00000000000E+00 0.  1.
         36    2    1    2    0    0 -0.21316282073E-13  0.28421709430E-13 -0.13466518057E+04  0.16776139498E+04  0.10004586342E+04 0.  0.
         25    2    3    3    0    0 -0.45075465311E+00 -0.13697475593E+03 -0.31054180489E+03  0.36160595641E+03  0.12474120482E+03 0.  0.
         35    2    3    3    0    0  0.45075465311E+00  0.13697475593E+03 -0.10361100008E+04  0.13160079934E+04  0.79974422029E+03 0.  0.
         22    1    5    5    0    0  0.17033862562E+03 -0.22141623099E+03 -0.81580923175E+03  0.86231380445E+03  0.00000000000E+00 0.  1.
         22    1    5    5    0    0 -0.16988787097E+03  0.35839098692E+03 -0.22030076905E+03  0.45369418891E+03  0.00000000000E+00 0.  1.
          5    1    4    4  502    0 -0.37771601394E+02 -0.11123542872E+03 -0.12946465053E+03  0.17488053126E+03  0.47000000000E+01 0.  1.
         -5    1    4    4    0  502  0.37320846741E+02 -0.25739327207E+02 -0.18107715436E+03  0.18672542515E+03  0.47000000000E+01 0.  1.
<mgrwt>
<rscale>  0 0.10004586E+04</rscale>
<asrwt>0</asrwt>
<pdfrwt beam="1">  1        1 0.23263582E+00 0.10004586E+04</pdfrwt>
<pdfrwt beam="2">  1       -1 0.25458627E-01 0.10004586E+04</pdfrwt>
<totfact> 0.93966455E+01</totfact>
</mgrwt>
</event>
<event>
 9    1  0.4246427E-036  0.9992359E+03  0.7818608E-02  0.8681766E-01
          1   -1    0    0  501    0  0.00000000000E+00  0.00000000000E+00  0.72978928869E+03  0.72978928869E+03  0.00000000000E+00 0.  1.
         -1   -1    0    0    0  501 -0.00000000000E+00 -0.00000000000E+00 -0.34204132462E+03  0.34204132462E+03  0.00000000000E+00 0.  1.
         36    2    1    2    0    0  0.00000000000E+00 -0.14210854715E-13  0.38774796408E+03  0.10718306133E+04  0.99923589806E+03 0.  0.
         25    2    3    3    0    0  0.10626019444E+03  0.86327881671E+02  0.95395088766E+02  0.20898209295E+03  0.12581557986E+03 0.  0.
         35    2    3    3    0    0 -0.10626019444E+03 -0.86327881671E+02  0.29235287531E+03  0.86284852036E+03  0.80018349978E+03 0.  0.
         22    1    5    5    0    0 -0.12195079059E+03  0.26743477727E+03 -0.12161039122E+03  0.31809187772E+03  0.00000000000E+00 0. -1.
         22    1    5    5    0    0  0.15690596157E+02 -0.35376265894E+03  0.41396326653E+03  0.54475664264E+03  0.00000000000E+00 0. -1.
          5    1    4    4  502    0 -0.62559622505E+01  0.51214440348E+01 -0.24068154097E+02  0.25821159817E+02  0.47000000000E+01 0.  1.
         -5    1    4    4    0  502  0.11251615669E+03  0.81206437637E+02  0.11946324286E+03  0.18316093313E+03  0.47000000000E+01 0.  1.
<mgrwt>
<rscale>  0 0.99923590E+03</rscale>
<asrwt>0</asrwt>
<pdfrwt beam="1">  1        1 0.11227527E+00 0.99923590E+03</pdfrwt>
<pdfrwt beam="2">  1       -1 0.52621742E-01 0.99923590E+03</pdfrwt>
<totfact> 0.10665001E+02</totfact>
</mgrwt>
</event>
<event>
 9    1  0.4246427E-036  0.9980875E+03  0.7818608E-02  0.8682861E-01
          1   -1    0    0  501    0  0.00000000000E+00  0.00000000000E+00  0.86761364674E+03  0.86761364674E+03  0.00000000000E+00 0. -1.
         -1   -1    0    0    0  501 -0.00000000000E+00 -0.00000000000E+00 -0.28704556686E+03  0.28704556686E+03  0.00000000000E+00 0. -1.
         36    2    1    2    0    0  0.00000000000E+00  0.28421709430E-13  0.58056807988E+03  0.11546592136E+04  0.99808747320E+03 0.  0.
         25    2    3    3    0    0  0.13846353330E+03  0.10734796076E+02  0.12155121756E+03  0.22273382200E+03  0.12469270657E+03 0.  0.
         35    2    3    3    0    0 -0.13846353330E+03 -0.10734796076E+02  0.45901686232E+03  0.93192539159E+03  0.79906261938E+03 0.  0.
         22    1    5    5    0    0 -0.42664720989E+03 -0.17016011007E+03  0.15799591457E+03  0.48574171509E+03  0.00000000000E+00 0.  1.
         22    1    5    5    0    0  0.28818367658E+03  0.15942531399E+03  0.30102094775E+03  0.44618367650E+03  0.00000000000E+00 0.  1.
          5    1    4    4  502    0  0.35211945289E+02 -0.54035050842E+02  0.41815397420E+02  0.77008345469E+02  0.47000000000E+01 0.  1.
         -5    1    4    4    0  502  0.10325158801E+03  0.64769846918E+02  0.79735820139E+02  0.14572547653E+03  0.47000000000E+01 0.  1.
<mgrwt>
<rscale>  0 0.99808747E+03</rscale>
<asrwt>0</asrwt>
<pdfrwt beam="1">  1        1 0.13347902E+00 0.99808747E+03</pdfrwt>
<pdfrwt beam="2">  1       -1 0.44160857E-01 0.99808747E+03</pdfrwt>
<totfact> 0.11111869E+02</totfact>
</mgrwt>
</event>
<event>
 9    1  0.4246427E-036  0.1000151E+04  0.7818608E-02  0.8680894E-01
         -1   -1    0    0    0  501 -0.00000000000E+00  0.00000000000E+00  0.76893026036E+02  0.76893026036E+02  0.00000000000E+00 0.  1.
          1   -1    0    0  501    0  0.00000000000E+00 -0.00000000000E+00 -0.32522529221E+04  0.32522529221E+04  0.00000000000E+00 0.  1.
         36    2    1    2    0    0  0.00000000000E+00  0.00000000000E+00 -0.31753598961E+04  0.33291459481E+04  0.10001511258E+04 0.  0.
         25    2    3    3    0    0 -0.14593355632E+03  0.21587256183E+02 -0.54497543345E+03  0.57578723499E+03  0.11300488673E+03 0.  0.
         35    2    3    3    0    0  0.14593355632E+03 -0.21587256183E+02 -0.26303844626E+04  0.27533587131E+04  0.80018695916E+03 0.  0.
         22    1    5    5    0    0 -0.16938644304E+03  0.29586380613E+03 -0.81060300149E+03  0.87937727108E+03  0.00000000000E+00 0.  1.
         22    1    5    5    0    0  0.31531999936E+03 -0.31745106231E+03 -0.18197814611E+04  0.18739814421E+04  0.00000000000E+00 0.  1.
          5    1    4    4  502    0 -0.35686783028E+02  0.41808830032E+02 -0.78084287944E+02  0.95607378247E+02  0.47000000000E+01 0.  1.
         -5    1    4    4    0  502 -0.11024677329E+03 -0.20221573849E+02 -0.46689114550E+03  0.48017985674E+03  0.47000000000E+01 0.  1.
<mgrwt>
<rscale>  0 0.10001511E+04</rscale>
<asrwt>0</asrwt>
<pdfrwt beam="1">  1        1 0.50034658E+00 0.10001511E+04</pdfrwt>
<pdfrwt beam="2">  1       -1 0.11829697E-01 0.10001511E+04</pdfrwt>
<totfact> 0.19152929E+01</totfact>
</mgrwt>
</event>
<event>
 9    1  0.4246427E-036  0.9991127E+03  0.7818608E-02  0.8681883E-01
         -2   -1    0    0    0  501 -0.00000000000E+00  0.00000000000E+00  0.35784513910E+03  0.35784513910E+03  0.00000000000E+00 0. -1.
          2   -1    0    0  501    0  0.00000000000E+00 -0.00000000000E+00 -0.69738703997E+03  0.69738703997E+03  0.00000000000E+00 0. -1.
         36    2    1    2    0    0 -0.14210854715E-13  0.00000000000E+00 -0.33954190087E+03  0.10552321791E+04  0.99911273102E+03 0.  0.
         25    2    3    3    0    0  0.12215663085E+03 -0.48386120516E+02 -0.10461728847E+03  0.20951797774E+03  0.12525792124E+03 0.  0.
         35    2    3    3    0    0 -0.12215663085E+03  0.48386120516E+02 -0.23492461241E+03  0.84571420132E+03  0.80173529153E+03 0.  0.
         22    1    5    5    0    0 -0.38920070725E+03  0.10510224862E+03 -0.36452861279E+03  0.54351152953E+03  0.00000000000E+00 0.  1.
         22    1    5    5    0    0  0.26704407640E+03 -0.56716128109E+02  0.12960400038E+03  0.30220267180E+03  0.00000000000E+00 0.  1.
          5    1    4    4  502    0  0.63135022469E+02  0.70155255828E+01 -0.11121429554E+03  0.12816379439E+03  0.47000000000E+01 0.  1.
         -5    1    4    4    0  502  0.59021608379E+02 -0.55401646099E+02  0.65970070736E+01  0.81354183349E+02  0.47000000000E+01 0.  1.
<mgrwt>
<rscale>  0 0.99911273E+03</rscale>
<asrwt>0</asrwt>
<pdfrwt beam="1">  1        2 0.10729031E+00 0.99911273E+03</pdfrwt>
<pdfrwt beam="2">  1       -2 0.55053099E-01 0.99911273E+03</pdfrwt>
<totfact> 0.15457868E+02</totfact>
</mgrwt>
</event>
<event>
 9    1  0.4246427E-036  0.9995798E+03  0.7818608E-02  0.8681438E-01
         -2   -1    0    0    0  501 -0.00000000000E+00  0.00000000000E+00  0.19083142201E+03  0.19083142201E+03  0.00000000000E+00 0. -1.
          2   -1    0    0  501    0  0.00000000000E+00 -0.00000000000E+00 -0.13089560819E+04  0.13089560819E+04  0.00000000000E+00 0. -1.
         36    2    1    2    0    0  0.42632564146E-13 -0.28421709430E-13 -0.11181246599E+04  0.14997875039E+04  0.99957981264E+03 0.  0.
         25    2    3    3    0    0 -0.95794949984E+02 -0.94456667436E+02 -0.19018191330E+03  0.26435897599E+03  0.12497109096E+03 0.  0.
         35    2    3    3    0    0  0.95794949984E+02  0.94456667436E+02 -0.92794274657E+03  0.12354285279E+04  0.80442971860E+03 0.  0.
         22    1    5    5    0    0  0.44187524286E+03 -0.41399808178E+02 -0.50531794598E+03  0.67254286175E+03  0.00000000000E+00 0. -1.
         22    1    5    5    0    0 -0.34608029287E+03  0.13585647561E+03 -0.42262480059E+03  0.56288566615E+03  0.00000000000E+00 0. -1.
          5    1    4    4  502    0  0.18866423534E+02 -0.51003521003E+02 -0.29081343273E+02  0.61847519096E+02  0.47000000000E+01 0. -1.
         -5    1    4    4    0  502 -0.11466137352E+03 -0.43453146433E+02 -0.16110057002E+03  0.20251145690E+03  0.47000000000E+01 0. -1.
<mgrwt>
<rscale>  0 0.99957981E+03</rscale>
<asrwt>0</asrwt>
<pdfrwt beam="1">  1        2 0.20137786E+00 0.99957981E+03</pdfrwt>
<pdfrwt beam="2">  1       -2 0.29358681E-01 0.99957981E+03</pdfrwt>
<totfact> 0.20944138E+02</totfact>
</mgrwt>
</event>
<event>
 9    1  0.4246427E-036  0.1004068E+04  0.7818608E-02  0.8677174E-01
          4   -1    0    0  501    0  0.00000000000E+00  0.00000000000E+00  0.36154412460E+03  0.36154412460E+03  0.00000000000E+00 0.  1.
         -4   -1    0    0    0  501 -0.00000000000E+00 -0.00000000000E+00 -0.69711570716E+03  0.69711570716E+03  0.00000000000E+00 0.  1.
         36    2    1    2    0    0  0.14210854715E-13 -0.14210854715E-13 -0.33557158255E+03  0.10586598318E+04  0.10040679023E+04 0.  0.
         25    2    3    3    0    0 -0.12535973934E+03  0.41959928619E+02 -0.12527947172E+03  0.22114321966E+03  0.12543395757E+03 0.  0.
         35    2    3    3    0    0  0.12535973934E+03 -0.41959928619E+02 -0.21029211084E+03  0.83751661209E+03  0.79983473530E+03 0.  0.
         22    1    5    5    0    0 -0.20751134795E+03 -0.81817653639E+02 -0.39582845108E+03  0.45435146160E+03  0.00000000000E+00 0. -1.
         22    1    5    5    0    0  0.33287108729E+03  0.39857725021E+02  0.18553634025E+03  0.38316515049E+03  0.00000000000E+00 0. -1.
          5    1    4    4  502    0 -0.96483130872E+02 -0.99448723767E-01 -0.12668061184E+02  0.97424710454E+02  0.47000000000E+01 0.  1.
         -5    1    4    4    0  502 -0.28876608471E+02  0.42059377342E+02 -0.11261141053E+03  0.12371850921E+03  0.47000000000E+01 0.  1.
<mgrwt>
<rscale>  0 0.10040679E+04</rscale>
<asrwt>0</asrwt>
<pdfrwt beam="1">  1        4 0.55622174E-01 0.10040679E+04</pdfrwt>
<pdfrwt beam="2">  1       -4 0.10724857E+00 0.10040679E+04</pdfrwt>
<totfact> 0.47617611E+00</totfact>
</mgrwt>
</event>
<event>
 9    1  0.4246427E-036  0.1001321E+04  0.7818608E-02  0.8679781E-01
          2   -1    0    0  501    0  0.00000000000E+00  0.00000000000E+00  0.18742738579E+04  0.18742738579E+04  0.00000000000E+00 0.  1.
         -2   -1    0    0    0  501 -0.00000000000E+00 -0.00000000000E+00 -0.13373775873E+03  0.13373775873E+03  0.00000000000E+00 0.  1.
         36    2    1    2    0    0  0.14210854715E-13 -0.14210854715E-13  0.17405360992E+04  0.20080116166E+04  0.10013214968E+04 0.  0.
         25    2    3    3    0    0 -0.42620787827E+02 -0.85570020385E+02  0.53629477267E+03  0.55954111458E+03  0.12781007695E+03 0.  0.
         35    2    3    3    0    0  0.42620787827E+02  0.85570020385E+02  0.12042413265E+04  0.14484705020E+04  0.79920639570E+03 0.  0.
         22    1    5    5    0    0  0.10807049847E+03 -0.26217148372E+03  0.10010363157E+04  0.10404262707E+04  0.00000000000E+00 0. -1.
         22    1    5    5    0    0 -0.65449710643E+02  0.34774150410E+03  0.20320501083E+03  0.40804423133E+03  0.00000000000E+00 0. -1.
          5    1    4    4  502    0  0.56643061501E+01 -0.10414932258E+03  0.30145583124E+03  0.31902487983E+03  0.47000000000E+01 0. -1.
         -5    1    4    4    0  502 -0.48285093977E+02  0.18579302194E+02  0.23483894142E+03  0.24051623475E+03  0.47000000000E+01 0. -1.
<mgrwt>
<rscale>  0 0.10013215E+04</rscale>
<asrwt>0</asrwt>
<pdfrwt beam="1">  1        2 0.28834981E+00 0.10013215E+04</pdfrwt>
<pdfrwt beam="2">  1       -2 0.20575041E-01 0.10013215E+04</pdfrwt>
<totfact> 0.18810005E+02</totfact>
</mgrwt>
</event>
<event>
 9    1  0.4246427E-036  0.9996589E+03  0.7818608E-02  0.8681363E-01
         -1   -1    0    0    0  501 -0.00000000000E+00  0.00000000000E+00  0.50154076181E+03  0.50154076181E+03  0.00000000000E+00 0.  1.
          1   -1    0    0  501    0  0.00000000000E+00 -0.00000000000E+00 -0.49812398596E+03  0.49812398596E+03  0.00000000000E+00 0.  1.
         36    2    1    2    0    0 -0.28421709430E-13  0.00000000000E+00  0.34167758511E+01  0.99966474777E+03  0.99965890862E+03 0.  0.
         25    2    3    3    0    0 -0.10396224477E+03  0.89863792300E+02  0.27723656900E+02  0.18779117515E+03  0.12495309043E+03 0.  0.
         35    2    3    3    0    0  0.10396224477E+03 -0.89863792300E+02 -0.24306881049E+02  0.81187357263E+03  0.79979011244E+03 0.  0.
         22    1    5    5    0    0 -0.18258722752E+03 -0.12004705280E+03  0.30442982047E+03  0.37473578176E+03  0.00000000000E+00 0. -1.
         22    1    5    5    0    0  0.28654947229E+03  0.30183260504E+02 -0.32873670152E+03  0.43713779087E+03  0.00000000000E+00 0. -1.
          5    1    4    4  502    0 -0.45382925024E+02  0.11255392742E+03  0.77173844636E+01  0.12169488274E+03  0.47000000000E+01 0. -1.
         -5    1    4    4    0  502 -0.58579319747E+02 -0.22690135119E+02  0.20006272437E+02  0.66096292411E+02  0.47000000000E+01 0. -1.
<mgrwt>
<rscale>  0 0.99965891E+03</rscale>
<asrwt>0</asrwt>
<pdfrwt beam="1">  1        1 0.76634459E-01 0.99965891E+03</pdfrwt>
<pdfrwt beam="2">  1       -1 0.77160117E-01 0.99965891E+03</pdfrwt>
<totfact> 0.88588586E+01</totfact>
</mgrwt>
</event>
<event>
 9    1  0.4246427E-036  0.1001734E+04  0.7818608E-02  0.8679388E-01
         -1   -1    0    0    0  501 -0.00000000000E+00  0.00000000000E+00  0.51477362311E+03  0.51477362311E+03  0.00000000000E+00 0.  1.
          1   -1    0    0  501    0  0.00000000000E+00 -0.00000000000E+00 -0.48733643446E+03  0.48733643446E+03  0.00000000000E+00 0.  1.
         36    2    1    2    0    0  0.71054273576E-14  0.00000000000E+00  0.27437188651E+02  0.10021100576E+04  0.10017343800E+04 0.  0.
         25    2    3    3    0    0  0.53243808320E+02  0.12555325113E+03  0.40199743880E+02  0.18862438019E+03  0.12395408586E+03 0.  0.
         35    2    3    3    0    0 -0.53243808320E+02 -0.12555325113E+03 -0.12762555229E+02  0.81348567737E+03  0.80187127551E+03 0.  0.
         22    1    5    5    0    0  0.18885160022E+03 -0.38827329308E+03 -0.10533961512E+03  0.44442942245E+03  0.00000000000E+00 0. -1.
         22    1    5    5    0    0 -0.24209540854E+03  0.26272004195E+03  0.92577059888E+02  0.36905625492E+03  0.00000000000E+00 0. -1.
          5    1    4    4  502    0  0.31354872035E+02 -0.13971044415E+02  0.31861138347E+02  0.47069525376E+02  0.47000000000E+01 0. -1.
         -5    1    4    4    0  502  0.21888936285E+02  0.13952429555E+03  0.83386055335E+01  0.14155485482E+03  0.47000000000E+01 0. -1.
<mgrwt>
<rscale>  0 0.10017344E+04</rscale>
<asrwt>0</asrwt>
<pdfrwt beam="1">  1        1 0.74974836E-01 0.10017344E+04</pdfrwt>
<pdfrwt beam="2">  1       -1 0.79195943E-01 0.10017344E+04</pdfrwt>
<totfact> 0.86516875E+01</totfact>
</mgrwt>
</event>
<event>
 9    1  0.4246427E-036  0.1000208E+04  0.7818608E-02  0.8680839E-01
          1   -1    0    0  501    0  0.00000000000E+00  0.00000000000E+00  0.36801852411E+03  0.36801852411E+03  0.00000000000E+00 0. -1.
         -1   -1    0    0    0  501 -0.00000000000E+00 -0.00000000000E+00 -0.67959682882E+03  0.67959682882E+03  0.00000000000E+00 0. -1.
         36    2    1    2    0    0  0.00000000000E+00  0.28421709430E-13 -0.31157830471E+03  0.10476153529E+04  0.10002084221E+04 0.  0.
         25    2    3    3    0    0 -0.16147645327E+02 -0.12877645576E+03 -0.11623897488E+03  0.21441651665E+03  0.12497528284E+03 0.  0.
         35    2    3    3    0    0  0.16147645327E+02  0.12877645576E+03 -0.19533932983E+03  0.83319883628E+03  0.79951155401E+03 0.  0.
         22    1    5    5    0    0 -0.11898266148E+03  0.22354594049E+03 -0.45778937370E+03  0.52316419212E+03  0.00000000000E+00 0. -1.
         22    1    5    5    0    0  0.13513030681E+03 -0.94769484731E+02  0.26245004387E+03  0.31003464416E+03  0.00000000000E+00 0. -1.
          5    1    4    4  502    0 -0.66082220745E+02 -0.73427469117E+02 -0.37182822129E+02  0.10565559796E+03  0.47000000000E+01 0.  1.
         -5    1    4    4    0  502  0.49934575418E+02 -0.55348986646E+02 -0.79056152752E+02  0.10876091868E+03  0.47000000000E+01 0.  1.
<mgrwt>
<rscale>  0 0.10002084E+04</rscale>
<asrwt>0</asrwt>
<pdfrwt beam="1">  1        1 0.56618235E-01 0.10002084E+04</pdfrwt>
<pdfrwt beam="2">  1       -1 0.10455336E+00 0.10002084E+04</pdfrwt>
<totfact> 0.69192203E+01</totfact>
</mgrwt>
</event>
<event>
 9    1  0.4246427E-036  0.1000015E+04  0.7818608E-02  0.8681024E-01
          2   -1    0    0  501    0  0.00000000000E+00  0.00000000000E+00  0.53446318586E+03  0.53446318586E+03  0.00000000000E+00 0. -1.
         -2   -1    0    0    0  501 -0.00000000000E+00 -0.00000000000E+00 -0.46777283358E+03  0.46777283358E+03  0.00000000000E+00 0. -1.
         36    2    1    2    0    0 -0.56843418861E-13  0.35527136788E-14  0.66690352281E+02  0.10022360194E+04  0.10000147177E+04 0.  0.
         25    2    3    3    0    0 -0.13443233513E+03  0.29919505510E+02  0.40643232553E+02  0.19042037105E+03  0.12506324728E+03 0.  0.
         35    2    3    3    0    0  0.13443233513E+03 -0.29919505510E+02  0.26047119728E+02  0.81181564839E+03  0.79962426488E+03 0.  0.
         22    1    5    5    0    0  0.29500950459E+03 -0.12991909237E+02  0.34512198202E+03  0.45421204296E+03  0.00000000000E+00 0. -1.
         22    1    5    5    0    0 -0.16057716946E+03 -0.16927596273E+02 -0.31907486229E+03  0.35760360542E+03  0.00000000000E+00 0. -1.
          5    1    4    4  502    0 -0.15044768164E+03  0.15660692476E+01  0.45284438265E+02  0.15719328177E+03  0.47000000000E+01 0.  1.
         -5    1    4    4    0  502  0.16015346512E+02  0.28353436262E+02 -0.46412057123E+01  0.33227089283E+02  0.47000000000E+01 0.  1.
<mgrwt>
<rscale>  0 0.10000147E+04</rscale>
<asrwt>0</asrwt>
<pdfrwt beam="1">  1        2 0.82225106E-01 0.10000147E+04</pdfrwt>
<pdfrwt beam="2">  1       -2 0.71965051E-01 0.10000147E+04</pdfrwt>
<totfact> 0.12046483E+02</totfact>
</mgrwt>
</event>
<event>
 9    1  0.4246427E-036  0.1000152E+04  0.7818608E-02  0.8680893E-01
         -1   -1    0    0    0  501 -0.00000000000E+00  0.00000000000E+00  0.12335588005E+04  0.12335588005E+04  0.00000000000E+00 0.  1.
          1   -1    0    0  501    0  0.00000000000E+00 -0.00000000000E+00 -0.20272727897E+03  0.20272727897E+03  0.00000000000E+00 0.  1.
         36    2    1    2    0    0  0.71054273576E-14  0.00000000000E+00  0.10308315215E+04  0.14362860795E+04  0.10001520266E+04 0.  0.
         25    2    3    3    0    0 -0.14406517054E+01  0.13200180657E+03  0.26044611499E+03  0.31752856953E+03  0.12476241916E+03 0.  0.
         35    2    3    3    0    0  0.14406517054E+01 -0.13200180657E+03  0.77038540654E+03  0.11187575099E+04  0.80043621797E+03 0.  0.
         22    1    5    5    0    0 -0.36184303609E+03  0.17471791050E+02  0.16733602031E+03  0.39904509763E+03  0.00000000000E+00 0. -1.
         22    1    5    5    0    0  0.36328368780E+03 -0.14947359762E+03  0.60304938622E+03  0.71971241231E+03  0.00000000000E+00 0. -1.
          5    1    4    4  502    0  0.48383488409E+02  0.98084133058E+01  0.70420574058E+02  0.86129635857E+02  0.47000000000E+01 0.  1.
         -5    1    4    4    0  502 -0.49824140115E+02  0.12219339327E+03  0.19002554094E+03  0.23139893367E+03  0.47000000000E+01 0.  1.
<mgrwt>
<rscale>  0 0.10001520E+04</rscale>
<asrwt>0</asrwt>
<pdfrwt beam="1">  1        1 0.31188813E-01 0.10001520E+04</pdfrwt>
<pdfrwt beam="2">  1       -1 0.18977827E+00 0.10001520E+04</pdfrwt>
<totfact> 0.27773391E+01</totfact>
</mgrwt>
</event>
<event>
 9    1  0.4246427E-036  0.9961481E+03  0.7818608E-02  0.8684715E-01
         -2   -1    0    0    0  501 -0.00000000000E+00  0.00000000000E+00  0.21115176547E+03  0.21115176547E+03  0.00000000000E+00 0.  1.
          2   -1    0    0  501    0  0.00000000000E+00 -0.00000000000E+00 -0.11748789503E+04  0.11748789503E+04  0.00000000000E+00 0.  1.
         36    2    1    2    0    0  0.47961634664E-13 -0.28421709430E-13 -0.96372718484E+03  0.13860307158E+04  0.99614811062E+03 0.  0.
         25    2    3    3    0    0 -0.63562561732E+01  0.13355424091E+03 -0.14203019556E+03  0.23184687157E+03  0.12531264161E+03 0.  0.
         35    2    3    3    0    0  0.63562561732E+01 -0.13355424091E+03 -0.82169698928E+03  0.11541838442E+04  0.79942308373E+03 0.  0.
         22    1    5    5    0    0 -0.26202791749E+03  0.71353223257E+02 -0.76502577459E+03  0.81179698682E+03  0.00000000000E+00 0.  1.
         22    1    5    5    0    0  0.26838417366E+03 -0.20490746416E+03 -0.56671214682E+02  0.34238685739E+03  0.00000000000E+00 0.  1.
          5    1    4    4  502    0 -0.34280703177E+00 -0.13483861156E+02 -0.63283262885E+02  0.64875213986E+02  0.47000000000E+01 0.  1.
         -5    1    4    4    0  502 -0.60134491415E+01  0.14703810206E+03 -0.78746932676E+02  0.16697165758E+03  0.47000000000E+01 0.  1.
<mgrwt>
<rscale>  0 0.99614811E+03</rscale>
<asrwt>0</asrwt>
<pdfrwt beam="1">  1        2 0.18075060E+00 0.99614811E+03</pdfrwt>
<pdfrwt beam="2">  1       -2 0.32484888E-01 0.99614811E+03</pdfrwt>
<totfact> 0.20856448E+02</totfact>
</mgrwt>
</event>
<event>
 9    1  0.4246427E-036  0.9993922E+03  0.7818608E-02  0.8681617E-01
         -1   -1    0    0    0  501 -0.00000000000E+00  0.00000000000E+00  0.17365894467E+03  0.17365894467E+03  0.00000000000E+00 0. -1.
          1   -1    0    0  501    0  0.00000000000E+00 -0.00000000000E+00 -0.14378537858E+04  0.14378537858E+04  0.00000000000E+00 0. -1.
         36    2    1    2    0    0  0.00000000000E+00 -0.14210854715E-13 -0.12641948412E+04  0.16115127305E+04  0.99939215733E+03 0.  0.
         25    2    3    3    0    0  0.99142941993E+02 -0.12988800531E+02 -0.80736598928E+02  0.17903843614E+03  0.12465284323E+03 0.  0.
         35    2    3    3    0    0 -0.99142941993E+02  0.12988800531E+02 -0.11834582422E+04  0.14324742944E+04  0.80088148998E+03 0.  0.
         22    1    5    5    0    0 -0.14451455091E+03 -0.32671401719E+03 -0.24444716473E+03  0.43287517924E+03  0.00000000000E+00 0.  1.
         22    1    5    5    0    0  0.45371608922E+02  0.33970281772E+03 -0.93901107750E+03  0.99959911512E+03  0.00000000000E+00 0.  1.
          5    1    4    4  502    0  0.20004499160E+02  0.34352722020E+02 -0.76813032501E+02  0.86617674056E+02  0.47000000000E+01 0.  1.
         -5    1    4    4    0  502  0.79138442833E+02 -0.47341522551E+02 -0.39235664261E+01  0.92420762088E+02  0.47000000000E+01 0.  1.
<mgrwt>
<rscale>  0 0.99939216E+03</rscale>
<asrwt>0</asrwt>
<pdfrwt beam="1">  1        1 0.22120828E+00 0.99939216E+03</pdfrwt>
<pdfrwt beam="2">  1       -1 0.26716761E-01 0.99939216E+03</pdfrwt>
<totfact> 0.97879076E+01</totfact>
</mgrwt>
</event>
<event>
 9    1  0.4246427E-036  0.9995706E+03  0.7818608E-02  0.8681447E-01
         -2   -1    0    0    0  501 -0.00000000000E+00  0.00000000000E+00  0.10331575594E+03  0.10331575594E+03  0.00000000000E+00 0.  1.
          2   -1    0    0  501    0  0.00000000000E+00 -0.00000000000E+00 -0.24176888130E+04  0.24176888130E+04  0.00000000000E+00 0.  1.
         36    2    1    2    0    0  0.28421709430E-13 -0.14210854715E-13 -0.23143730571E+04  0.25210045690E+04  0.99957060249E+03 0.  0.
         25    2    3    3    0    0 -0.10932178148E+03  0.83919178813E+02 -0.37330964611E+03  0.41715745924E+03  0.12516618330E+03 0.  0.
         35    2    3    3    0    0  0.10932178148E+03 -0.83919178813E+02 -0.19410634110E+04  0.21038471097E+04  0.79965731108E+03 0.  0.
         22    1    5    5    0    0 -0.13680011881E+03  0.68442373466E+02 -0.12273995191E+02  0.15345775299E+03  0.00000000000E+00 0.  1.
         22    1    5    5    0    0  0.24612190030E+03 -0.15236155228E+03 -0.19287894158E+04  0.19503893567E+04  0.00000000000E+00 0.  1.
          5    1    4    4  502    0 -0.10390326757E+03  0.85277526507E+02 -0.38247801828E+03  0.40543762776E+03  0.47000000000E+01 0.  1.
         -5    1    4    4    0  502 -0.54185139079E+01 -0.13583476939E+01  0.91683721741E+01  0.11719831473E+02  0.47000000000E+01 0.  1.
<mgrwt>
<rscale>  0 0.99957060E+03</rscale>
<asrwt>0</asrwt>
<pdfrwt beam="1">  1        2 0.37195215E+00 0.99957060E+03</pdfrwt>
<pdfrwt beam="2">  1       -2 0.15894731E-01 0.99957060E+03</pdfrwt>
<totfact> 0.14165586E+02</totfact>
</mgrwt>
</event>
<event>
 9    1  0.4246427E-036  0.9993603E+03  0.7818608E-02  0.8681647E-01
          2   -1    0    0  501    0  0.00000000000E+00  0.00000000000E+00  0.32171214606E+04  0.32171214606E+04  0.00000000000E+00 0. -1.
         -2   -1    0    0    0  501 -0.00000000000E+00 -0.00000000000E+00 -0.77609831935E+02  0.77609831935E+02  0.00000000000E+00 0. -1.
         36    2    1    2    0    0  0.00000000000E+00  0.12434497876E-13  0.31395116287E+04  0.32947312926E+04  0.99936030715E+03 0.  0.
         25    2    3    3    0    0 -0.17482623444E+02 -0.13896537567E+02  0.10444430431E+04  0.10521230482E+04  0.12491149795E+03 0.  0.
         35    2    3    3    0    0  0.17482623444E+02  0.13896537567E+02  0.20950685856E+04  0.22426082444E+04  0.79967531138E+03 0.  0.
         22    1    5    5    0    0 -0.37180623414E+02 -0.16307158145E+03  0.30826830371E+02  0.17007361026E+03  0.00000000000E+00 0. -1.
         22    1    5    5    0    0  0.54663246859E+02  0.17696811902E+03  0.20642417552E+04  0.20725346342E+04  0.00000000000E+00 0. -1.
          5    1    4    4  502    0 -0.25146775428E+02 -0.18754043225E+02  0.62148539560E+02  0.69775392662E+02  0.47000000000E+01 0.  1.
         -5    1    4    4    0  502  0.76641519837E+01  0.48575056583E+01  0.98229450353E+03  0.98234765550E+03  0.47000000000E+01 0.  1.
<mgrwt>
<rscale>  0 0.99936031E+03</rscale>
<asrwt>0</asrwt>
<pdfrwt beam="1">  1        2 0.49494166E+00 0.99936031E+03</pdfrwt>
<pdfrwt beam="2">  1       -2 0.11939977E-01 0.99936031E+03</pdfrwt>
<totfact> 0.69417913E+01</totfact>
</mgrwt>
</event>
<event>
 9    1  0.4246427E-036  0.1000077E+04  0.7818608E-02  0.8680965E-01
          2   -1    0    0  501    0  0.00000000000E+00  0.00000000000E+00  0.74727488587E+03  0.74727488587E+03  0.00000000000E+00 0.  1.
         -2   -1    0    0    0  501 -0.00000000000E+00 -0.00000000000E+00 -0.33460017649E+03  0.33460017649E+03  0.00000000000E+00 0.  1.
         36    2    1    2    0    0  0.14210854715E-13 -0.28421709430E-13  0.41267470938E+03  0.10818750624E+04  0.10000766145E+04 0.  0.
         25    2    3    3    0    0  0.12318947592E+03 -0.37736289999E+02  0.12612157249E+03  0.22172200991E+03  0.12905163336E+03 0.  0.
         35    2    3    3    0    0 -0.12318947592E+03  0.37736289999E+02  0.28655313689E+03  0.86015305244E+03  0.80071898866E+03 0.  0.
         22    1    5    5    0    0  0.13216633865E+03 -0.32717658680E+03  0.20271121615E+03  0.40694507881E+03  0.00000000000E+00 0. -1.
         22    1    5    5    0    0 -0.25535581456E+03  0.36491287679E+03  0.83841920742E+02  0.45320797362E+03  0.00000000000E+00 0. -1.
          5    1    4    4  502    0  0.61374719987E+02 -0.43892421254E+02 -0.58075508205E+01  0.75823601494E+02  0.47000000000E+01 0. -1.
         -5    1    4    4    0  502  0.61814755931E+02  0.61561312549E+01  0.13192912331E+03  0.14589840842E+03  0.47000000000E+01 0. -1.
<mgrwt>
<rscale>  0 0.10000766E+04</rscale>
<asrwt>0</asrwt>
<pdfrwt beam="1">  1        2 0.11496537E+00 0.10000766E+04</pdfrwt>
<pdfrwt beam="2">  1       -2 0.51476950E-01 0.10000766E+04</pdfrwt>
<totfact> 0.16258968E+02</totfact>
</mgrwt>
</event>
<event>
 9    1  0.4246427E-036  0.9983967E+03  0.7818608E-02  0.8682566E-01
          1   -1    0    0  501    0  0.00000000000E+00  0.00000000000E+00  0.26843513974E+04  0.26843513974E+04  0.00000000000E+00 0. -1.
         -1   -1    0    0    0  501 -0.00000000000E+00 -0.00000000000E+00 -0.92833970694E+02  0.92833970694E+02  0.00000000000E+00 0. -1.
         36    2    1    2    0    0  0.00000000000E+00 -0.10658141036E-13  0.25915174267E+04  0.27771853681E+04  0.99839671265E+03 0.  0.
         25    2    3    3    0    0  0.66599702600E+02  0.94229564194E+01  0.14822830813E+03  0.20543390621E+03  0.12532815325E+03 0.  0.
         35    2    3    3    0    0 -0.66599702600E+02 -0.94229564194E+01  0.24432891186E+04  0.25717514619E+04  0.79982470095E+03 0.  0.
         22    1    5    5    0    0 -0.15741201697E+03 -0.38265623835E+03  0.11268016421E+04  0.12003692267E+04  0.00000000000E+00 0. -1.
         22    1    5    5    0    0  0.90812314371E+02  0.37323328193E+03  0.13164874765E+04  0.13713822351E+04  0.00000000000E+00 0. -1.
          5    1    4    4  502    0  0.18428887405E+02  0.29112103619E+02  0.14917476487E+03  0.15317421109E+03  0.47000000000E+01 0.  1.
         -5    1    4    4    0  502  0.48170815195E+02 -0.19689147200E+02 -0.94645673995E+00  0.52259695123E+02  0.47000000000E+01 0.  1.
<mgrwt>
<rscale>  0 0.99839671E+03</rscale>
<asrwt>0</asrwt>
<pdfrwt beam="1">  1        1 0.41297708E+00 0.99839671E+03</pdfrwt>
<pdfrwt beam="2">  1       -1 0.14282151E-01 0.99839671E+03</pdfrwt>
<totfact> 0.36465848E+01</totfact>
</mgrwt>
</event>
<event>
 9    1  0.4246427E-036  0.1000021E+04  0.7818608E-02  0.8681018E-01
         -1   -1    0    0    0  501 -0.00000000000E+00  0.00000000000E+00  0.30721165203E+03  0.30721165203E+03  0.00000000000E+00 0. -1.
          1   -1    0    0  501    0  0.00000000000E+00 -0.00000000000E+00 -0.81380481560E+03  0.81380481560E+03  0.00000000000E+00 0. -1.
         36    2    1    2    0    0 -0.14210854715E-13 -0.14210854715E-13 -0.50659316358E+03  0.11210164676E+04  0.10000206434E+04 0.  0.
         25    2    3    3    0    0  0.10647572002E+03 -0.37091854422E+01  0.69683421156E+01  0.16388913904E+03  0.12433927413E+03 0.  0.
         35    2    3    3    0    0 -0.10647572002E+03  0.37091854422E+01 -0.51356150569E+03  0.95712732859E+03  0.80062254902E+03 0.  0.
         22    1    5    5    0    0  0.24068802134E+03  0.21103106587E+03 -0.44317556553E+03  0.54668950627E+03  0.00000000000E+00 0.  1.
         22    1    5    5    0    0 -0.34716374136E+03 -0.20732188043E+03 -0.70385940157E+02  0.41043782232E+03  0.00000000000E+00 0.  1.
          5    1    4    4  502    0  0.67633347580E+01  0.44203423431E+02 -0.21088221773E+02  0.49663753761E+02  0.47000000000E+01 0. -1.
         -5    1    4    4    0  502  0.99712385264E+02 -0.47912608873E+02  0.28056563889E+02  0.11422538528E+03  0.47000000000E+01 0. -1.
<mgrwt>
<rscale>  0 0.10000206E+04</rscale>
<asrwt>0</asrwt>
<pdfrwt beam="1">  1        1 0.12520074E+00 0.10000206E+04</pdfrwt>
<pdfrwt beam="2">  1       -1 0.47263331E-01 0.10000206E+04</pdfrwt>
<totfact> 0.10924614E+02</totfact>
</mgrwt>
</event>
<event>
 9    1  0.4246427E-036  0.9965139E+03  0.7818608E-02  0.8684365E-01
          2   -1    0    0  501    0  0.00000000000E+00  0.00000000000E+00  0.39857272923E+03  0.39857272923E+03  0.00000000000E+00 0. -1.
         -2   -1    0    0    0  501 -0.00000000000E+00 -0.00000000000E+00 -0.62287247739E+03  0.62287247739E+03  0.00000000000E+00 0. -1.
         36    2    1    2    0    0  0.00000000000E+00  0.00000000000E+00 -0.22429974816E+03  0.10214452066E+04  0.99651389007E+03 0.  0.
         25    2    3    3    0    0  0.48554359764E+01  0.13603752243E+03 -0.22305167636E+02  0.18556066520E+03  0.12411872219E+03 0.  0.
         35    2    3    3    0    0 -0.48554359764E+01 -0.13603752243E+03 -0.20199458053E+03  0.83588454143E+03  0.79960701177E+03 0.  0.
         22    1    5    5    0    0 -0.12333375306E+03  0.89306423212E+02  0.26406371656E+03  0.30482207642E+03  0.00000000000E+00 0.  1.
         22    1    5    5    0    0  0.11847831709E+03 -0.22534394564E+03 -0.46605829708E+03  0.53106246500E+03  0.00000000000E+00 0.  1.
          5    1    4    4  502    0  0.38274230925E+02  0.14437452382E+03 -0.17097849480E+02  0.15041059250E+03  0.47000000000E+01 0. -1.
         -5    1    4    4    0  502 -0.33418794948E+02 -0.83370013898E+01 -0.52073181565E+01  0.35150072693E+02  0.47000000000E+01 0. -1.
<mgrwt>
<rscale>  0 0.99651389E+03</rscale>
<asrwt>0</asrwt>
<pdfrwt beam="1">  1        2 0.61318882E-01 0.99651389E+03</pdfrwt>
<pdfrwt beam="2">  1       -2 0.95826535E-01 0.99651389E+03</pdfrwt>
<totfact> 0.86883325E+01</totfact>
</mgrwt>
</event>
<event>
 9    1  0.4246427E-036  0.1000118E+04  0.7818608E-02  0.8680925E-01
          1   -1    0    0  501    0  0.00000000000E+00  0.00000000000E+00  0.11422248900E+04  0.11422248900E+04  0.00000000000E+00 0.  1.
         -1   -1    0    0    0  501 -0.00000000000E+00 -0.00000000000E+00 -0.21892285124E+03  0.21892285124E+03  0.00000000000E+00 0.  1.
         36    2    1    2    0    0  0.28421709430E-13 -0.14210854715E-13  0.92330203871E+03  0.13611477412E+04  0.10001182523E+04 0.  0.
         25    2    3    3    0    0 -0.99768360227E+02 -0.10272907753E+03  0.22662524030E+03  0.29103130836E+03  0.11328386396E+03 0.  0.
         35    2    3    3    0    0  0.99768360227E+02  0.10272907753E+03  0.69667679841E+03  0.10701164328E+04  0.79955214295E+03 0.  0.
         22    1    5    5    0    0 -0.30563763704E+03 -0.14092305696E+03  0.24687855707E+03  0.41739992226E+03  0.00000000000E+00 0.  1.
         22    1    5    5    0    0  0.40540599727E+03  0.24365213449E+03  0.44979824134E+03  0.65271651058E+03  0.00000000000E+00 0.  1.
          5    1    4    4  502    0  0.94744788758E+00 -0.21944510585E+02 -0.74521907136E+01  0.23666101258E+02  0.47000000000E+01 0.  1.
         -5    1    4    4    0  502 -0.10071580811E+03 -0.80784566945E+02  0.23407743101E+03  0.26736520711E+03  0.47000000000E+01 0.  1.
<mgrwt>
<rscale>  0 0.10001183E+04</rscale>
<asrwt>0</asrwt>
<pdfrwt beam="1">  1        1 0.17572690E+00 0.10001183E+04</pdfrwt>
<pdfrwt beam="2">  1       -1 0.33680439E-01 0.10001183E+04</pdfrwt>
<totfact> 0.10849214E+02</totfact>
</mgrwt>
</event>
<event>
 9    1  0.4246427E-036  0.9996897E+03  0.7818608E-02  0.8681334E-01
          1   -1    0    0  501    0  0.00000000000E+00  0.00000000000E+00  0.17965913271E+04  0.17965913271E+04  0.00000000000E+00 0.  1.
         -1   -1    0    0    0  501 -0.00000000000E+00 -0.00000000000E+00 -0.13906605054E+03  0.13906605054E+03  0.00000000000E+00 0.  1.
         36    2    1    2    0    0 -0.35527136788E-14  0.28421709430E-13  0.16575252766E+04  0.19356573776E+04  0.99968967244E+03 0.  0.
         25    2    3    3    0    0 -0.13598708475E+02 -0.11196127425E+03  0.46669733014E+03  0.49610227394E+03  0.12486319094E+03 0.  0.
         35    2    3    3    0    0  0.13598708475E+02  0.11196127425E+03  0.11908279464E+04  0.14395551037E+04  0.80095408532E+03 0.  0.
         22    1    5    5    0    0 -0.30251967402E+02 -0.33103731108E+03  0.71190967376E+03  0.78569476672E+03  0.00000000000E+00 0.  1.
         22    1    5    5    0    0  0.43850675877E+02  0.44299858533E+03  0.47891827266E+03  0.65386033697E+03  0.00000000000E+00 0.  1.
          5    1    4    4  502    0 -0.37281276631E+02 -0.12359571352E+03  0.29116486936E+03  0.31853550059E+03  0.47000000000E+01 0.  1.
         -5    1    4    4    0  502  0.23682568156E+02  0.11634439275E+02  0.17553246078E+03  0.17756677335E+03  0.47000000000E+01 0.  1.
<mgrwt>
<rscale>  0 0.99968967E+03</rscale>
<asrwt>0</asrwt>
<pdfrwt beam="1">  1        1 0.27639865E+00 0.99968967E+03</pdfrwt>
<pdfrwt beam="2">  1       -1 0.21394778E-01 0.99968967E+03</pdfrwt>
<totfact> 0.79116526E+01</totfact>
</mgrwt>
</event>
<event>
 9    1  0.4246427E-036  0.1000234E+04  0.7818608E-02  0.8680815E-01
          1   -1    0    0  501    0  0.00000000000E+00  0.00000000000E+00  0.52605570916E+03  0.52605570916E+03  0.00000000000E+00 0. -1.
         -1   -1    0    0    0  501 -0.00000000000E+00 -0.00000000000E+00 -0.47545694347E+03  0.47545694347E+03  0.00000000000E+00 0. -1.
         36    2    1    2    0    0 -0.14210854715E-13  0.00000000000E+00  0.50598765700E+02  0.10015126526E+04  0.10002336518E+04 0.  0.
         25    2    3    3    0    0 -0.83135736141E+02 -0.71166848876E+02  0.93769342717E+02  0.19093850801E+03  0.12525395485E+03 0.  0.
         35    2    3    3    0    0  0.83135736141E+02  0.71166848876E+02 -0.43170577017E+02  0.81057414462E+03  0.80199156741E+03 0.  0.
         22    1    5    5    0    0 -0.29302181852E+03 -0.16461865353E+03 -0.12605059785E+03  0.35895659965E+03  0.00000000000E+00 0. -1.
         22    1    5    5    0    0  0.37615755466E+03  0.23578550240E+03  0.82880020832E+02  0.45161754497E+03  0.00000000000E+00 0. -1.
          5    1    4    4  502    0  0.30679195025E+02 -0.99205161584E+00  0.81822247747E+01  0.32112863093E+02  0.47000000000E+01 0. -1.
         -5    1    4    4    0  502 -0.11381493117E+03 -0.70174797260E+02  0.85587117942E+02  0.15882564492E+03  0.47000000000E+01 0. -1.
<mgrwt>
<rscale>  0 0.10002337E+04</rscale>
<asrwt>0</asrwt>
<pdfrwt beam="1">  1        1 0.80931648E-01 0.10002337E+04</pdfrwt>
<pdfrwt beam="2">  1       -1 0.73147222E-01 0.10002337E+04</pdfrwt>
<totfact> 0.91499059E+01</totfact>
</mgrwt>
</event>
<event>
 9    1  0.4246427E-036  0.1000388E+04  0.7818608E-02  0.8680669E-01
         -1   -1    0    0    0  501 -0.00000000000E+00  0.00000000000E+00  0.18966031087E+03  0.18966031087E+03  0.00000000000E+00 0.  1.
          1   -1    0    0  501    0  0.00000000000E+00 -0.00000000000E+00 -0.13191687978E+04  0.13191687978E+04  0.00000000000E+00 0.  1.
         36    2    1    2    0    0  0.14210854715E-13 -0.42632564146E-13 -0.11295084869E+04  0.15088291087E+04  0.10003878534E+04 0.  0.
         25    2    3    3    0    0 -0.86681489183E+02 -0.61161431334E+02 -0.72494242224E+02  0.17942015766E+03  0.12522690035E+03 0.  0.
         35    2    3    3    0    0  0.86681489183E+02  0.61161431334E+02 -0.10570142447E+04  0.13294089510E+04  0.79924629763E+03 0.  0.
         22    1    5    5    0    0  0.31864763743E+03 -0.25219279184E+03 -0.43477122562E+03  0.59511640855E+03  0.00000000000E+00 0. -1.
         22    1    5    5    0    0 -0.23196614825E+03  0.31335422317E+03 -0.62224301908E+03  0.73429254246E+03  0.00000000000E+00 0. -1.
          5    1    4    4  502    0 -0.35396597499E+02 -0.83990721189E+02 -0.81515705148E+02  0.12236936114E+03  0.47000000000E+01 0. -1.
         -5    1    4    4    0  502 -0.51284891685E+02  0.22829289855E+02  0.90214629244E+01  0.57050796521E+02  0.47000000000E+01 0. -1.
<mgrwt>
<rscale>  0 0.10003879E+04</rscale>
<asrwt>0</asrwt>
<pdfrwt beam="1">  1        1 0.20294904E+00 0.10003879E+04</pdfrwt>
<pdfrwt beam="2">  1       -1 0.29178510E-01 0.10003879E+04</pdfrwt>
<totfact> 0.10263613E+02</totfact>
</mgrwt>
</event>
<event>
 9    1  0.4246427E-036  0.9995455E+03  0.7818608E-02  0.8681471E-01
         -2   -1    0    0    0  501 -0.00000000000E+00  0.00000000000E+00  0.42201700827E+03  0.42201700827E+03  0.00000000000E+00 0.  1.
          2   -1    0    0  501    0  0.00000000000E+00 -0.00000000000E+00 -0.59185483500E+03  0.59185483500E+03  0.00000000000E+00 0.  1.
         36    2    1    2    0    0  0.17763568394E-14 -0.14210854715E-13 -0.16983782673E+03  0.10138718433E+04  0.99954551032E+03 0.  0.
         25    2    3    3    0    0  0.11821357222E+02 -0.47196954566E+02 -0.16401141913E+03  0.21160072097E+03  0.12453040795E+03 0.  0.
         35    2    3    3    0    0 -0.11821357222E+02  0.47196954566E+02 -0.58264075987E+01  0.80227112230E+03  0.80077319488E+03 0.  0.
         22    1    5    5    0    0 -0.14606591514E+03  0.39180148178E+03  0.72119181840E+02  0.42431689700E+03  0.00000000000E+00 0.  1.
         22    1    5    5    0    0  0.13424455792E+03 -0.34460452721E+03 -0.77945589439E+02  0.37795422530E+03  0.00000000000E+00 0.  1.
          5    1    4    4  502    0  0.18950199863E+02 -0.46325558374E+02 -0.30006142608E+01  0.50361305775E+02  0.47000000000E+01 0. -1.
         -5    1    4    4    0  502 -0.71288426405E+01 -0.87139619243E+00 -0.16101080487E+03  0.16123941520E+03  0.47000000000E+01 0. -1.
<mgrwt>
<rscale>  0 0.99954551E+03</rscale>
<asrwt>0</asrwt>
<pdfrwt beam="1">  1        2 0.91054590E-01 0.99954551E+03</pdfrwt>
<pdfrwt beam="2">  1       -2 0.64925694E-01 0.99954551E+03</pdfrwt>
<totfact> 0.13351634E+02</totfact>
</mgrwt>
</event>
<event>
 9    1  0.4246427E-036  0.9998580E+03  0.7818608E-02  0.8681173E-01
          2   -1    0    0  501    0  0.00000000000E+00  0.00000000000E+00  0.17013263403E+04  0.17013263403E+04  0.00000000000E+00 0. -1.
         -2   -1    0    0    0  501 -0.00000000000E+00 -0.00000000000E+00 -0.14690245698E+03  0.14690245698E+03  0.00000000000E+00 0. -1.
         36    2    1    2    0    0 -0.88817841970E-15  0.00000000000E+00  0.15544238833E+04  0.18482287973E+04  0.99985802896E+03 0.  0.
         25    2    3    3    0    0 -0.42388493724E+01 -0.69232995494E+02  0.52757586520E+03  0.54653136963E+03  0.12469590585E+03 0.  0.
         35    2    3    3    0    0  0.42388493724E+01  0.69232995494E+02  0.10268480181E+04  0.13016974277E+04  0.79698692922E+03 0.  0.
         22    1    5    5    0    0  0.15958664044E+03  0.25455226238E+03  0.10161585313E+04  0.10596428223E+04  0.00000000000E+00 0.  1.
         22    1    5    5    0    0 -0.15534779107E+03 -0.18531926689E+03  0.10689486860E+02  0.24205460541E+03  0.00000000000E+00 0.  1.
          5    1    4    4  502    0  0.35514632931E+01  0.33640466635E+02  0.20503635256E+03  0.20786122716E+03  0.47000000000E+01 0.  1.
         -5    1    4    4    0  502 -0.77903126655E+01 -0.10287346213E+03  0.32253951264E+03  0.33867014247E+03  0.47000000000E+01 0.  1.
<mgrwt>
<rscale>  0 0.99985803E+03</rscale>
<asrwt>0</asrwt>
<pdfrwt beam="1">  1        2 0.26174250E+00 0.99985803E+03</pdfrwt>
<pdfrwt beam="2">  1       -2 0.22600379E-01 0.99985803E+03</pdfrwt>
<totfact> 0.19990508E+02</totfact>
</mgrwt>
</event>
<event>
 9    1  0.4246427E-036  0.1001102E+04  0.7818608E-02  0.8679989E-01
          2   -1    0    0  501    0  0.00000000000E+00  0.00000000000E+00  0.93556962882E+03  0.93556962882E+03  0.00000000000E+00 0.  1.
         -2   -1    0    0    0  501 -0.00000000000E+00 -0.00000000000E+00 -0.26780631522E+03  0.26780631522E+03  0.00000000000E+00 0.  1.
         36    2    1    2    0    0  0.14210854715E-13  0.00000000000E+00  0.66776331359E+03  0.12033759440E+04  0.10011023023E+04 0.  0.
         25    2    3    3    0    0  0.54001038193E+02  0.31638945287E+02  0.27647676012E+03  0.30976928706E+03  0.12490187084E+03 0.  0.
         35    2    3    3    0    0 -0.54001038193E+02 -0.31638945287E+02  0.39128655348E+03  0.89360665697E+03  0.80094354075E+03 0.  0.
         22    1    5    5    0    0 -0.16988540273E+03 -0.23807432500E+03 -0.13077316880E+03  0.32037798920E+03  0.00000000000E+00 0.  1.
         22    1    5    5    0    0  0.11588436454E+03  0.20643537971E+03  0.52205972227E+03  0.57322866778E+03  0.00000000000E+00 0.  1.
          5    1    4    4  502    0  0.35282213253E+02  0.79808512943E+02  0.16154510858E+03  0.18366585262E+03  0.47000000000E+01 0. -1.
         -5    1    4    4    0  502  0.18718824940E+02 -0.48169567656E+02  0.11493165153E+03  0.12610343445E+03  0.47000000000E+01 0. -1.
<mgrwt>
<rscale>  0 0.10011023E+04</rscale>
<asrwt>0</asrwt>
<pdfrwt beam="1">  1        2 0.14393379E+00 0.10011023E+04</pdfrwt>
<pdfrwt beam="2">  1       -2 0.41200972E-01 0.10011023E+04</pdfrwt>
<totfact> 0.18732145E+02</totfact>
</mgrwt>
</event>
<event>
 9    1  0.4246427E-036  0.1000723E+04  0.7818608E-02  0.8680350E-01
         -2   -1    0    0    0  501 -0.00000000000E+00  0.00000000000E+00  0.16106566794E+03  0.16106566794E+03  0.00000000000E+00 0.  1.
          2   -1    0    0  501    0  0.00000000000E+00 -0.00000000000E+00 -0.15544067426E+04  0.15544067426E+04  0.00000000000E+00 0.  1.
         36    2    1    2    0    0 -0.14210854715E-13  0.00000000000E+00 -0.13933410747E+04  0.17154724105E+04  0.10007228592E+04 0.  0.
         25    2    3    3    0    0  0.55768125651E+02  0.89716424090E+02 -0.42397219017E+03  0.45446945040E+03  0.12502376861E+03 0.  0.
         35    2    3    3    0    0 -0.55768125651E+02 -0.89716424090E+02 -0.96936888448E+03  0.12610029601E+04  0.79955819718E+03 0.  0.
         22    1    5    5    0    0 -0.16871323896E+03 -0.42218540411E+03 -0.57341078371E+03  0.73178179761E+03  0.00000000000E+00 0.  1.
         22    1    5    5    0    0  0.11294511331E+03  0.33246898002E+03 -0.39595810077E+03  0.52922116253E+03  0.00000000000E+00 0.  1.
          5    1    4    4  502    0 -0.28138943075E+02 -0.12661834115E+02 -0.82975396308E+02  0.88651726170E+02  0.47000000000E+01 0. -1.
         -5    1    4    4    0  502  0.83907068726E+02  0.10237825820E+03 -0.34099679386E+03  0.36581772423E+03  0.47000000000E+01 0. -1.
<mgrwt>
<rscale>  0 0.10007229E+04</rscale>
<asrwt>0</asrwt>
<pdfrwt beam="1">  1        2 0.23913949E+00 0.10007229E+04</pdfrwt>
<pdfrwt beam="2">  1       -2 0.24779334E-01 0.10007229E+04</pdfrwt>
<totfact> 0.20568116E+02</totfact>
</mgrwt>
</event>
<event>
 9    1  0.4246427E-036  0.1002722E+04  0.7818608E-02  0.8678450E-01
          2   -1    0    0  501    0  0.00000000000E+00  0.00000000000E+00  0.87578712178E+03  0.87578712178E+03  0.00000000000E+00 0. -1.
         -2   -1    0    0    0  501 -0.00000000000E+00 -0.00000000000E+00 -0.28701357703E+03  0.28701357703E+03  0.00000000000E+00 0. -1.
         36    2    1    2    0    0  0.00000000000E+00  0.00000000000E+00  0.58877354475E+03  0.11628006988E+04  0.10027218847E+04 0.  0.
         25    2    3    3    0    0 -0.50495203202E+02 -0.78034649948E+02 -0.15475672888E+02  0.15584049729E+03  0.12412732175E+03 0.  0.
         35    2    3    3    0    0  0.50495203202E+02  0.78034649948E+02  0.60424921764E+03  0.10069602015E+04  0.80013283790E+03 0.  0.
         22    1    5    5    0    0  0.22515026402E+03  0.21304258479E+03  0.70059240863E+03  0.76610019407E+03  0.00000000000E+00 0. -1.
         22    1    5    5    0    0 -0.17465506082E+03 -0.13500793484E+03 -0.96343190992E+02  0.24086000745E+03  0.00000000000E+00 0. -1.
          5    1    4    4  502    0  0.58023976725E+01 -0.74720152297E+01 -0.55851351530E+02  0.56841554324E+02  0.47000000000E+01 0.  1.
         -5    1    4    4    0  502 -0.56297600875E+02 -0.70562634718E+02  0.40375678642E+02  0.98998942966E+02  0.47000000000E+01 0.  1.
<mgrwt>
<rscale>  0 0.10027219E+04</rscale>
<asrwt>0</asrwt>
<pdfrwt beam="1">  1        2 0.13473648E+00 0.10027219E+04</pdfrwt>
<pdfrwt beam="2">  1       -2 0.44155935E-01 0.10027219E+04</pdfrwt>
<totfact> 0.17928934E+02</totfact>
</mgrwt>
</event>
<event>
 9    1  0.4246427E-036  0.1000498E+04  0.7818608E-02  0.8680564E-01
          4   -1    0    0  501    0  0.00000000000E+00  0.00000000000E+00  0.30126478774E+03  0.30126478774E+03  0.00000000000E+00 0.  1.
         -4   -1    0    0    0  501 -0.00000000000E+00 -0.00000000000E+00 -0.83066169097E+03  0.83066169097E+03  0.00000000000E+00 0.  1.
         36    2    1    2    0    0  0.28421709430E-13 -0.21316282073E-13 -0.52939690323E+03  0.11319264787E+04  0.10004981120E+04 0.  0.
         25    2    3    3    0    0  0.13164923743E+03  0.17772748273E+01 -0.45086193722E+02  0.18727664048E+03  0.12531996961E+03 0.  0.
         35    2    3    3    0    0 -0.13164923743E+03 -0.17772748273E+01 -0.48431070951E+03  0.94464983824E+03  0.80029480388E+03 0.  0.
         22    1    5    5    0    0 -0.37551815879E+03 -0.23330170970E+03 -0.40409810302E+03  0.59894812146E+03  0.00000000000E+00 0. -1.
         22    1    5    5    0    0  0.24386892136E+03  0.23152443487E+03 -0.80212606487E+02  0.34570171678E+03  0.00000000000E+00 0. -1.
          5    1    4    4  502    0  0.13487191911E+03  0.37511973644E+02 -0.53815149427E+02  0.15005246762E+03  0.47000000000E+01 0. -1.
         -5    1    4    4    0  502 -0.32226816843E+01 -0.35734698817E+02  0.87289557056E+01  0.37224172852E+02  0.47000000000E+01 0. -1.
<mgrwt>
<rscale>  0 0.10004981E+04</rscale>
<asrwt>0</asrwt>
<pdfrwt beam="1">  1        4 0.46348429E-01 0.10004981E+04</pdfrwt>
<pdfrwt beam="2">  1       -4 0.12779411E+00 0.10004981E+04</pdfrwt>
<totfact> 0.43254001E+00</totfact>
</mgrwt>
</event>
<event>
 9    1  0.4246427E-036  0.1000518E+04  0.7818608E-02  0.8680545E-01
          2   -1    0    0  501    0  0.00000000000E+00  0.00000000000E+00  0.84580382831E+03  0.84580382831E+03  0.00000000000E+00 0.  1.
         -2   -1    0    0    0  501 -0.00000000000E+00 -0.00000000000E+00 -0.29588328898E+03  0.29588328898E+03  0.00000000000E+00 0.  1.
         36    2    1    2    0    0  0.00000000000E+00 -0.14210854715E-13  0.54992053933E+03  0.11416871173E+04  0.10005183028E+04 0.  0.
         25    2    3    3    0    0  0.60220723034E+02  0.23895442603E+02 -0.39077054615E+02  0.14593556563E+03  0.12479040611E+03 0.  0.
         35    2    3    3    0    0 -0.60220723034E+02 -0.23895442603E+02  0.58899759394E+03  0.99575155166E+03  0.80025337195E+03 0.  0.
         22    1    5    5    0    0 -0.32543228631E+02 -0.41224334551E+03  0.30055035286E+03  0.51120852130E+03  0.00000000000E+00 0.  1.
         22    1    5    5    0    0 -0.27677494403E+02  0.38834790290E+03  0.28844724109E+03  0.48454303037E+03  0.00000000000E+00 0.  1.
          5    1    4    4  502    0 -0.22528376720E+02  0.34675954511E+02 -0.46043828934E+02  0.62065076829E+02  0.47000000000E+01 0.  1.
         -5    1    4    4    0  502  0.82749099754E+02 -0.10780511908E+02  0.69667743196E+01  0.83870488800E+02  0.47000000000E+01 0.  1.
<mgrwt>
<rscale>  0 0.10005183E+04</rscale>
<asrwt>0</asrwt>
<pdfrwt beam="1">  1        2 0.13012366E+00 0.10005183E+04</pdfrwt>
<pdfrwt beam="2">  1       -2 0.45520506E-01 0.10005183E+04</pdfrwt>
<totfact> 0.17697097E+02</totfact>
</mgrwt>
</event>
<event>
 9    1  0.4246427E-036  0.9997380E+03  0.7818608E-02  0.8681287E-01
         -1   -1    0    0    0  501 -0.00000000000E+00  0.00000000000E+00  0.13610324903E+03  0.13610324903E+03  0.00000000000E+00 0. -1.
          1   -1    0    0  501    0  0.00000000000E+00 -0.00000000000E+00 -0.18358784491E+04  0.18358784491E+04  0.00000000000E+00 0. -1.
         36    2    1    2    0    0  0.14210854715E-13 -0.28421709430E-13 -0.16997752000E+04  0.19719816981E+04  0.99973800917E+03 0.  0.
         25    2    3    3    0    0 -0.59663700329E+02 -0.90707907643E+02 -0.50176822345E+03  0.52824754886E+03  0.12444453050E+03 0.  0.
         35    2    3    3    0    0  0.59663700329E+02  0.90707907643E+02 -0.11980069766E+04  0.14437341492E+04  0.79834822983E+03 0.  0.
         22    1    5    5    0    0 -0.20802950988E+03 -0.23522562068E+03 -0.81731285228E+03  0.87556134457E+03  0.00000000000E+00 0.  1.
         22    1    5    5    0    0  0.26769321021E+03  0.32593352832E+03 -0.38069412429E+03  0.56817280465E+03  0.00000000000E+00 0.  1.
          5    1    4    4  502    0 -0.63158331958E+02 -0.62763180119E+01 -0.33760766188E+03  0.34355405750E+03  0.47000000000E+01 0. -1.
         -5    1    4    4    0  502  0.34946316291E+01 -0.84431589631E+02 -0.16416056157E+03  0.18469349137E+03  0.47000000000E+01 0. -1.
<mgrwt>
<rscale>  0 0.99973801E+03</rscale>
<asrwt>0</asrwt>
<pdfrwt beam="1">  1        1 0.28244282E+00 0.99973801E+03</pdfrwt>
<pdfrwt beam="2">  1       -1 0.20938963E-01 0.99973801E+03</pdfrwt>
<totfact> 0.76948674E+01</totfact>
</mgrwt>
</event>
<event>
 9    1  0.4246427E-036  0.9968218E+03  0.7818608E-02  0.8684070E-01
          3   -1    0    0  501    0  0.00000000000E+00  0.00000000000E+00  0.27853714445E+03  0.27853714445E+03  0.00000000000E+00 0.  1.
         -3   -1    0    0    0  501 -0.00000000000E+00 -0.00000000000E+00 -0.89185027020E+03  0.89185027020E+03  0.00000000000E+00 0.  1.
         36    2    1    2    0    0  0.00000000000E+00  0.00000000000E+00 -0.61331312576E+03  0.11703874146E+04  0.99682180461E+03 0.  0.
         25    2    3    3    0    0  0.10613487032E+03 -0.76040456216E+02 -0.16198040330E+03  0.24277603724E+03  0.12512310548E+03 0.  0.
         35    2    3    3    0    0 -0.10613487032E+03  0.76040456216E+02 -0.45133272246E+03  0.92761137741E+03  0.79982177981E+03 0.  0.
         22    1    5    5    0    0  0.32506902083E+03 -0.10571930723E+03 -0.17245192547E+03  0.38286565114E+03  0.00000000000E+00 0. -1.
         22    1    5    5    0    0 -0.43120389116E+03  0.18175976345E+03 -0.27888079699E+03  0.54474572627E+03  0.00000000000E+00 0. -1.
          5    1    4    4  502    0  0.10734850550E+03 -0.18990392447E+02 -0.14793230184E+03  0.18382163248E+03  0.47000000000E+01 0. -1.
         -5    1    4    4    0  502 -0.12136351780E+01 -0.57050063769E+02 -0.14048101459E+02  0.58954404763E+02  0.47000000000E+01 0. -1.
<mgrwt>
<rscale>  0 0.99682180E+03</rscale>
<asrwt>0</asrwt>
<pdfrwt beam="1">  1        3 0.42851869E-01 0.99682180E+03</pdfrwt>
<pdfrwt beam="2">  1       -3 0.13720773E+00 0.99682180E+03</pdfrwt>
<totfact> 0.73196723E+00</totfact>
</mgrwt>
</event>
<event>
 9    1  0.4246427E-036  0.9886903E+03  0.7818608E-02  0.8691883E-01
         -1   -1    0    0    0  501 -0.00000000000E+00  0.00000000000E+00  0.22631392974E+03  0.22631392974E+03  0.00000000000E+00 0.  1.
          1   -1    0    0  501    0  0.00000000000E+00 -0.00000000000E+00 -0.10798148767E+04  0.10798148767E+04  0.00000000000E+00 0.  1.
         36    2    1    2    0    0 -0.14210854715E-13 -0.56843418861E-13 -0.85350094698E+03  0.13061288065E+04  0.98869034211E+03 0.  0.
         25    2    3    3    0    0 -0.97471231773E+02 -0.82215743368E+02 -0.14330454605E+03  0.22860754809E+03  0.12435895080E+03 0.  0.
         35    2    3    3    0    0  0.97471231773E+02  0.82215743368E+02 -0.71019640093E+03  0.10775212584E+04  0.80025812390E+03 0.  0.
         22    1    5    5    0    0 -0.64007557495E+02  0.42525594848E+03 -0.34859454727E+03  0.55358626024E+03  0.00000000000E+00 0.  1.
         22    1    5    5    0    0  0.16147878927E+03 -0.34304020511E+03 -0.36160185366E+03  0.52393499814E+03  0.00000000000E+00 0.  1.
          5    1    4    4  502    0 -0.93326886413E+02 -0.69659855633E+02 -0.16545548765E+03  0.20238579893E+03  0.47000000000E+01 0.  1.
         -5    1    4    4    0  502 -0.41443453610E+01 -0.12555887735E+02  0.22150941600E+02  0.26221749160E+02  0.47000000000E+01 0.  1.
<mgrwt>
<rscale>  0 0.98869034E+03</rscale>
<asrwt>0</asrwt>
<pdfrwt beam="1">  1        1 0.16612537E+00 0.98869034E+03</pdfrwt>
<pdfrwt beam="2">  1       -1 0.34817527E-01 0.98869034E+03</pdfrwt>
<totfact> 0.11441266E+02</totfact>
</mgrwt>
</event>
<event>
 9    1  0.4246427E-036  0.9970734E+03  0.7818608E-02  0.8683830E-01
          2   -1    0    0  501    0  0.00000000000E+00  0.00000000000E+00  0.10605654718E+04  0.10605654718E+04  0.00000000000E+00 0. -1.
         -2   -1    0    0    0  501 -0.00000000000E+00 -0.00000000000E+00 -0.23434559671E+03  0.23434559671E+03  0.00000000000E+00 0. -1.
         36    2    1    2    0    0  0.71054273576E-14  0.28421709430E-13  0.82621987513E+03  0.12949110686E+04  0.99707341425E+03 0.  0.
         25    2    3    3    0    0 -0.44793734650E+02 -0.97676004291E+02  0.42205853318E+02  0.17013961411E+03  0.12497629278E+03 0.  0.
         35    2    3    3    0    0  0.44793734650E+02  0.97676004291E+02  0.78401402181E+03  0.11247714544E+04  0.79930329529E+03 0.  0.
         22    1    5    5    0    0  0.42107571252E+02  0.34378818137E+03  0.80639310172E+03  0.87762930427E+03  0.00000000000E+00 0.  1.
         22    1    5    5    0    0  0.26861633983E+01 -0.24611217708E+03 -0.22379079906E+02  0.24714215018E+03  0.00000000000E+00 0.  1.
          5    1    4    4  502    0 -0.63589878385E+02 -0.63582368772E+02 -0.24001052588E+02  0.93190829897E+02  0.47000000000E+01 0.  1.
         -5    1    4    4    0  502  0.18796143735E+02 -0.34093635519E+02  0.66206905906E+02  0.76948784213E+02  0.47000000000E+01 0.  1.
<mgrwt>
<rscale>  0 0.99707341E+03</rscale>
<asrwt>0</asrwt>
<pdfrwt beam="1">  1        2 0.16316392E+00 0.99707341E+03</pdfrwt>
<pdfrwt beam="2">  1       -2 0.36053169E-01 0.99707341E+03</pdfrwt>
<totfact> 0.20141314E+02</totfact>
</mgrwt>
</event>
<event>
 9    1  0.4246427E-036  0.9999033E+03  0.7818608E-02  0.8681130E-01
         -1   -1    0    0    0  501 -0.00000000000E+00  0.00000000000E+00  0.15212783548E+03  0.15212783548E+03  0.00000000000E+00 0.  1.
          1   -1    0    0  501    0  0.00000000000E+00 -0.00000000000E+00 -0.16430370726E+04  0.16430370726E+04  0.00000000000E+00 0.  1.
         36    2    1    2    0    0  0.35527136788E-13 -0.28421709430E-13 -0.14909092371E+04  0.17951649081E+04  0.99990334225E+03 0.  0.
         25    2    3    3    0    0  0.34362948782E+02 -0.96759353185E+02 -0.45281185216E+03  0.48085096566E+03  0.12504356455E+03 0.  0.
         35    2    3    3    0    0 -0.34362948782E+02  0.96759353185E+02 -0.10380973850E+04  0.13143139424E+04  0.79951971452E+03 0.  0.
         22    1    5    5    0    0  0.32935611631E+03  0.18485880725E+03 -0.75793956575E+03  0.84682974399E+03  0.00000000000E+00 0. -1.
         22    1    5    5    0    0 -0.36371906509E+03 -0.88099454067E+02 -0.28015781921E+03  0.46748419844E+03  0.00000000000E+00 0. -1.
          5    1    4    4  502    0 -0.26467837450E+02  0.16525747477E+02 -0.11859433115E+03  0.12272062634E+03  0.47000000000E+01 0.  1.
         -5    1    4    4    0  502  0.60830786231E+02 -0.11328510066E+03 -0.33421752102E+03  0.35813033932E+03  0.47000000000E+01 0.  1.
<mgrwt>
<rscale>  0 0.99990334E+03</rscale>
<asrwt>0</asrwt>
<pdfrwt beam="1">  1        1 0.25277494E+00 0.99990334E+03</pdfrwt>
<pdfrwt beam="2">  1       -1 0.23404282E-01 0.99990334E+03</pdfrwt>
<totfact> 0.87391000E+01</totfact>
</mgrwt>
</event>
<event>
 9    1  0.4246427E-036  0.1000577E+04  0.7818608E-02  0.8680488E-01
         -2   -1    0    0    0  501 -0.00000000000E+00  0.00000000000E+00  0.51186634619E+03  0.51186634619E+03  0.00000000000E+00 0. -1.
          2   -1    0    0  501    0  0.00000000000E+00 -0.00000000000E+00 -0.48897288519E+03  0.48897288519E+03  0.00000000000E+00 0. -1.
         36    2    1    2    0    0 -0.14210854715E-13  0.14210854715E-13  0.22893461001E+02  0.10008392314E+04  0.10005773616E+04 0.  0.
         25    2    3    3    0    0  0.72452038804E+02  0.11409340400E+03 -0.20125864933E+02  0.18506708747E+03  0.12481255410E+03 0.  0.
         35    2    3    3    0    0 -0.72452038804E+02 -0.11409340400E+03  0.43019325934E+02  0.81577214392E+03  0.80334732565E+03 0.  0.
         22    1    5    5    0    0 -0.71774078598E+02 -0.37629379021E+03 -0.22217314828E+03  0.44284245813E+03  0.00000000000E+00 0.  1.
         22    1    5    5    0    0 -0.67796020660E+00  0.26220038621E+03  0.26519247421E+03  0.37292968579E+03  0.00000000000E+00 0.  1.
          5    1    4    4  502    0  0.40910730090E+02  0.17296413282E+02  0.45573326496E+02  0.63811220305E+02  0.47000000000E+01 0. -1.
         -5    1    4    4    0  502  0.31541308715E+02  0.96796990715E+02 -0.65699191429E+02  0.12125586716E+03  0.47000000000E+01 0. -1.
<mgrwt>
<rscale>  0 0.10005774E+04</rscale>
<asrwt>0</asrwt>
<pdfrwt beam="1">  1        2 0.75226598E-01 0.10005774E+04</pdfrwt>
<pdfrwt beam="2">  1       -2 0.78748669E-01 0.10005774E+04</pdfrwt>
<totfact> 0.10913323E+02</totfact>
</mgrwt>
</event>
<event>
 9    1  0.4246427E-036  0.1000055E+04  0.7818608E-02  0.8680986E-01
         -1   -1    0    0    0  501 -0.00000000000E+00  0.00000000000E+00  0.37562856382E+03  0.37562856382E+03  0.00000000000E+00 0.  1.
          1   -1    0    0  501    0  0.00000000000E+00 -0.00000000000E+00 -0.66562403882E+03  0.66562403882E+03  0.00000000000E+00 0.  1.
         36    2    1    2    0    0  0.14210854715E-13  0.28421709430E-13 -0.28999547499E+03  0.10412526026E+04  0.10000548020E+04 0.  0.
         25    2    3    3    0    0 -0.20853909492E+02 -0.12946106081E+03 -0.56203283632E+02  0.19066532412E+03  0.12648875414E+03 0.  0.
         35    2    3    3    0    0  0.20853909492E+02  0.12946106081E+03 -0.23379219136E+03  0.85058727852E+03  0.80724524020E+03 0.  0.
         22    1    5    5    0    0 -0.17743875479E+03  0.42469559017E+03 -0.16061695502E+03  0.48749221763E+03  0.00000000000E+00 0.  1.
         22    1    5    5    0    0  0.19829266428E+03 -0.29523452936E+03 -0.73175236344E+02  0.36309506089E+03  0.00000000000E+00 0.  1.
          5    1    4    4  502    0 -0.43566342754E+02  0.63962528913E+01 -0.16209595971E+02  0.47156964211E+02  0.47000000000E+01 0. -1.
         -5    1    4    4    0  502  0.22712433262E+02 -0.13585731370E+03 -0.39993687660E+02  0.14350835991E+03  0.47000000000E+01 0. -1.
<mgrwt>
<rscale>  0 0.10000548E+04</rscale>
<asrwt>0</asrwt>
<pdfrwt beam="1">  1        1 0.10240370E+00 0.10000548E+04</pdfrwt>
<pdfrwt beam="2">  1       -1 0.57789011E-01 0.10000548E+04</pdfrwt>
<totfact> 0.10293182E+02</totfact>
</mgrwt>
</event>
<event>
 9    1  0.4246427E-036  0.9994669E+03  0.7818608E-02  0.8681546E-01
          2   -1    0    0  501    0  0.00000000000E+00  0.00000000000E+00  0.58982410722E+03  0.58982410722E+03  0.00000000000E+00 0. -1.
         -2   -1    0    0    0  501 -0.00000000000E+00 -0.00000000000E+00 -0.42340338999E+03  0.42340338999E+03  0.00000000000E+00 0. -1.
         36    2    1    2    0    0 -0.28421709430E-13  0.00000000000E+00  0.16642071723E+03  0.10132274972E+04  0.99946691090E+03 0.  0.
         25    2    3    3    0    0  0.83273783559E+02  0.11075081217E+03  0.13792417909E+02  0.18693306339E+03  0.12471356771E+03 0.  0.
         35    2    3    3    0    0 -0.83273783559E+02 -0.11075081217E+03  0.15262829932E+03  0.82629443382E+03  0.80016675023E+03 0.  0.
         22    1    5    5    0    0 -0.32550415001E+03 -0.79450420778E+02 -0.20531315696E+03  0.39296159285E+03  0.00000000000E+00 0.  1.
         22    1    5    5    0    0  0.24223036645E+03 -0.31300391395E+02  0.35794145628E+03  0.43333284096E+03  0.00000000000E+00 0.  1.
          5    1    4    4  502    0 -0.20350289264E+02 -0.10154362203E+02 -0.11022940972E+02  0.25706819573E+02  0.47000000000E+01 0.  1.
         -5    1    4    4    0  502  0.10362407282E+03  0.12090517438E+03  0.24815358881E+02  0.16122624382E+03  0.47000000000E+01 0.  1.
<mgrwt>
<rscale>  0 0.99946691E+03</rscale>
<asrwt>0</asrwt>
<pdfrwt beam="1">  1        2 0.90742171E-01 0.99946691E+03</pdfrwt>
<pdfrwt beam="2">  1       -2 0.65138982E-01 0.99946691E+03</pdfrwt>
<totfact> 0.13312742E+02</totfact>
</mgrwt>
</event>
<event>
 9    1  0.4246427E-036  0.1004693E+04  0.7818608E-02  0.8676581E-01
          2   -1    0    0  501    0  0.00000000000E+00  0.00000000000E+00  0.16454672284E+03  0.16454672284E+03  0.00000000000E+00 0. -1.
         -2   -1    0    0    0  501 -0.00000000000E+00 -0.00000000000E+00 -0.15336198180E+04  0.15336198180E+04  0.00000000000E+00 0. -1.
         36    2    1    2    0    0 -0.28421709430E-13  0.00000000000E+00 -0.13690730951E+04  0.16981665408E+04  0.10046932171E+04 0.  0.
         25    2    3    3    0    0 -0.11843827532E+03  0.70479208929E+02 -0.21609146061E+03  0.28565231004E+03  0.12612207949E+03 0.  0.
         35    2    3    3    0    0  0.11843827532E+03 -0.70479208929E+02 -0.11529816345E+04  0.14125142308E+04  0.80426044205E+03 0.  0.
         22    1    5    5    0    0  0.43288009998E+03 -0.17720469649E+03 -0.80843933862E+03  0.93400259617E+03  0.00000000000E+00 0.  1.
         22    1    5    5    0    0 -0.31444182466E+03  0.10672548756E+03 -0.34454229592E+03  0.47851163462E+03  0.00000000000E+00 0.  1.
          5    1    4    4  502    0 -0.12136327401E+03  0.82070024531E+02 -0.22603808034E+03  0.26940645310E+03  0.47000000000E+01 0. -1.
         -5    1    4    4    0  502  0.29249986959E+01 -0.11590815602E+02  0.99466197376E+01  0.16245856946E+02  0.47000000000E+01 0. -1.
<mgrwt>
<rscale>  0 0.10046932E+04</rscale>
<asrwt>0</asrwt>
<pdfrwt beam="1">  1        2 0.25314880E-01 0.10046932E+04</pdfrwt>
<pdfrwt beam="2">  1       -2 0.23594151E+00 0.10046932E+04</pdfrwt>
<totfact> 0.18205267E+01</totfact>
</mgrwt>
</event>
<event>
 9    1  0.4246427E-036  0.9999049E+03  0.7818608E-02  0.8681129E-01
          1   -1    0    0  501    0  0.00000000000E+00  0.00000000000E+00  0.22368210821E+04  0.22368210821E+04  0.00000000000E+00 0.  1.
         -1   -1    0    0    0  501 -0.00000000000E+00 -0.00000000000E+00 -0.11174449612E+03  0.11174449612E+03  0.00000000000E+00 0.  1.
         36    2    1    2    0    0  0.00000000000E+00 -0.71054273576E-14  0.21250765859E+04  0.23485655782E+04  0.99990488491E+03 0.  0.
         25    2    3    3    0    0 -0.62786792239E+02 -0.37737280179E+01  0.10544237816E+03  0.17467509555E+03  0.12424520751E+03 0.  0.
         35    2    3    3    0    0  0.62786792239E+02  0.37737280179E+01  0.20196342078E+04  0.21738904826E+04  0.80182359339E+03 0.  0.
         22    1    5    5    0    0  0.78819090056E+02  0.20582088206E+03  0.97330756517E+02  0.24093144380E+03  0.00000000000E+00 0. -1.
         22    1    5    5    0    0 -0.16032297817E+02 -0.20204715404E+03  0.19223034513E+04  0.19329590388E+04  0.00000000000E+00 0. -1.
          5    1    4    4  502    0 -0.47330823867E+02 -0.38535354325E+02 -0.13310878530E+01  0.61229422795E+02  0.47000000000E+01 0.  1.
         -5    1    4    4    0  502 -0.15455968372E+02  0.34761626307E+02  0.10677346601E+03  0.11344567275E+03  0.47000000000E+01 0.  1.
<mgrwt>
<rscale>  0 0.99990488E+03</rscale>
<asrwt>0</asrwt>
<pdfrwt beam="1">  1        1 0.34412629E+00 0.99990488E+03</pdfrwt>
<pdfrwt beam="2">  1       -1 0.17191463E-01 0.99990488E+03</pdfrwt>
<totfact> 0.55703628E+01</totfact>
</mgrwt>
</event>
<event>
 9    1  0.4246427E-036  0.9987811E+03  0.7818608E-02  0.8682200E-01
         -2   -1    0    0    0  501 -0.00000000000E+00  0.00000000000E+00  0.19220025780E+03  0.19220025780E+03  0.00000000000E+00 0. -1.
          2   -1    0    0  501    0  0.00000000000E+00 -0.00000000000E+00 -0.12975576440E+04  0.12975576440E+04  0.00000000000E+00 0. -1.
         36    2    1    2    0    0  0.71054273576E-14  0.14210854715E-13 -0.11053573862E+04  0.14897579018E+04  0.99878108448E+03 0.  0.
         25    2    3    3    0    0  0.25288606918E+02  0.12740952531E+03 -0.13013322531E+03  0.22224649938E+03  0.12484450079E+03 0.  0.
         35    2    3    3    0    0 -0.25288606918E+02 -0.12740952531E+03 -0.97522416089E+03  0.12675114024E+04  0.79915598633E+03 0.  0.
         22    1    5    5    0    0  0.10705785101E+03  0.39431072252E+02  0.11185222451E+03  0.15977206592E+03  0.00000000000E+00 0.  1.
         22    1    5    5    0    0 -0.13234645792E+03 -0.16684059756E+03 -0.10870763854E+04  0.11077393365E+04  0.00000000000E+00 0.  1.
          5    1    4    4  502    0 -0.28499801970E+02  0.11033323237E+03 -0.11843398884E+03  0.16442128995E+03  0.47000000000E+01 0.  1.
         -5    1    4    4    0  502  0.53788408888E+02  0.17076292934E+02 -0.11699236474E+02  0.57825209426E+02  0.47000000000E+01 0.  1.
<mgrwt>
<rscale>  0 0.99878108E+03</rscale>
<asrwt>0</asrwt>
<pdfrwt beam="1">  1        2 0.19962426E+00 0.99878108E+03</pdfrwt>
<pdfrwt beam="2">  1       -2 0.29569270E-01 0.99878108E+03</pdfrwt>
<totfact> 0.20990868E+02</totfact>
</mgrwt>
</event>
<event>
 9    1  0.4246427E-036  0.1000092E+04  0.7818608E-02  0.8680950E-01
         -1   -1    0    0    0  501 -0.00000000000E+00  0.00000000000E+00  0.13458980800E+04  0.13458980800E+04  0.00000000000E+00 0.  1.
          1   -1    0    0  501    0  0.00000000000E+00 -0.00000000000E+00 -0.18578374808E+03  0.18578374808E+03  0.00000000000E+00 0.  1.
         36    2    1    2    0    0  0.00000000000E+00  0.42632564146E-13  0.11601143319E+04  0.15316818281E+04  0.10000919754E+04 0.  0.
         25    2    3    3    0    0 -0.10301706355E+03  0.20693826799E+02  0.69113603952E+02  0.17474454239E+03  0.12131865065E+03 0.  0.
         35    2    3    3    0    0  0.10301706355E+03 -0.20693826799E+02  0.10910007280E+04  0.13569372857E+04  0.79997216138E+03 0.  0.
         22    1    5    5    0    0 -0.91958935024E+01 -0.39137551908E+03  0.72562184161E+03  0.82449161209E+03  0.00000000000E+00 0. -1.
         22    1    5    5    0    0  0.11221295705E+03  0.37068169228E+03  0.36537888636E+03  0.53244567359E+03  0.00000000000E+00 0. -1.
          5    1    4    4  502    0 -0.85137527751E+02  0.66399532947E+02  0.31006174342E+02  0.11243117652E+03  0.47000000000E+01 0. -1.
         -5    1    4    4    0  502 -0.17879535796E+02 -0.45705706148E+02  0.38107429610E+02  0.62313365871E+02  0.47000000000E+01 0. -1.
<mgrwt>
<rscale>  0 0.10000920E+04</rscale>
<asrwt>0</asrwt>
<pdfrwt beam="1">  1        1 0.28582116E-01 0.10000920E+04</pdfrwt>
<pdfrwt beam="2">  1       -1 0.20706124E+00 0.10000920E+04</pdfrwt>
<totfact> 0.22205105E+01</totfact>
</mgrwt>
</event>
<event>
 9    1  0.4246427E-036  0.9996168E+03  0.7818608E-02  0.8681403E-01
         -1   -1    0    0    0  501 -0.00000000000E+00  0.00000000000E+00  0.80595063792E+03  0.80595063792E+03  0.00000000000E+00 0.  1.
          1   -1    0    0  501    0  0.00000000000E+00 -0.00000000000E+00 -0.30995503343E+03  0.30995503343E+03  0.00000000000E+00 0.  1.
         36    2    1    2    0    0  0.00000000000E+00  0.00000000000E+00  0.49599560449E+03  0.11159056714E+04  0.99961684043E+03 0.  0.
         25    2    3    3    0    0 -0.11087771444E+03 -0.91112264574E+02  0.11189348046E+03  0.21886556865E+03  0.12160046815E+03 0.  0.
         35    2    3    3    0    0  0.11087771444E+03  0.91112264574E+02  0.38410212403E+03  0.89704010270E+03  0.79784158319E+03 0.  0.
         22    1    5    5    0    0  0.15693642289E+01 -0.34993172525E+03  0.11205418618E+03  0.36743817967E+03  0.00000000000E+00 0. -1.
         22    1    5    5    0    0  0.10930835021E+03  0.44104398983E+03  0.27204793785E+03  0.52960192303E+03  0.00000000000E+00 0. -1.
          5    1    4    4  502    0 -0.18039292276E+02 -0.47348986068E+02 -0.17346464686E+02  0.53761811582E+02  0.47000000000E+01 0.  1.
         -5    1    4    4    0  502 -0.92838422163E+02 -0.43763278505E+02  0.12923994515E+03  0.16510375707E+03  0.47000000000E+01 0.  1.
<mgrwt>
<rscale>  0 0.99961684E+03</rscale>
<asrwt>0</asrwt>
<pdfrwt beam="1">  1        1 0.47685390E-01 0.99961684E+03</pdfrwt>
<pdfrwt beam="2">  1       -1 0.12399241E+00 0.99961684E+03</pdfrwt>
<totfact> 0.57603846E+01</totfact>
</mgrwt>
</event>
<event>
 9    1  0.4246427E-036  0.9905457E+03  0.7818608E-02  0.8690094E-01
         -1   -1    0    0    0  501 -0.00000000000E+00  0.00000000000E+00  0.61313899784E+02  0.61313899784E+02  0.00000000000E+00 0. -1.
          1   -1    0    0  501    0  0.00000000000E+00 -0.00000000000E+00 -0.40006461097E+04  0.40006461097E+04  0.00000000000E+00 0. -1.
         36    2    1    2    0    0 -0.42632564146E-13  0.14210854715E-13 -0.39393322099E+04  0.40619600094E+04  0.99054573774E+03 0.  0.
         25    2    3    3    0    0  0.31776380597E+02  0.10593158270E+03 -0.74684434272E+03  0.76555157037E+03  0.12673395780E+03 0.  0.
         35    2    3    3    0    0 -0.31776380597E+02 -0.10593158270E+03 -0.31924878671E+04  0.32964084391E+04  0.81369440007E+03 0.  0.
         22    1    5    5    0    0 -0.33187067281E+03 -0.59709352975E+02 -0.26769240687E+04  0.26980781716E+04  0.00000000000E+00 0. -1.
         22    1    5    5    0    0  0.30009429221E+03 -0.46222229727E+02 -0.51556379842E+03  0.59833026748E+03  0.00000000000E+00 0. -1.
          5    1    4    4  502    0 -0.46520964974E+02  0.34399789175E+02 -0.18965740808E+03  0.19834204828E+03  0.47000000000E+01 0. -1.
         -5    1    4    4    0  502  0.78297345572E+02  0.71531793527E+02 -0.55718693464E+03  0.56720952208E+03  0.47000000000E+01 0. -1.
<mgrwt>
<rscale>  0 0.99054574E+03</rscale>
<asrwt>0</asrwt>
<pdfrwt beam="1">  1        1 0.61548410E+00 0.99054574E+03</pdfrwt>
<pdfrwt beam="2">  1       -1 0.94329064E-02 0.99054574E+03</pdfrwt>
<totfact> 0.76317156E+00</totfact>
</mgrwt>
</event>
<event>
 9    1  0.4246427E-036  0.1000309E+04  0.7818608E-02  0.8680743E-01
          2   -1    0    0  501    0  0.00000000000E+00  0.00000000000E+00  0.51878124839E+03  0.51878124839E+03  0.00000000000E+00 0.  1.
         -2   -1    0    0    0  501 -0.00000000000E+00 -0.00000000000E+00 -0.48219697984E+03  0.48219697984E+03  0.00000000000E+00 0.  1.
         36    2    1    2    0    0  0.00000000000E+00 -0.28421709430E-13  0.36584268553E+02  0.10009782282E+04  0.10003094545E+04 0.  0.
         25    2    3    3    0    0 -0.87367189559E+02 -0.10103631308E+03 -0.44713919848E+02  0.18557544353E+03  0.12082031385E+03 0.  0.
         35    2    3    3    0    0  0.87367189559E+02  0.10103631308E+03  0.81298188401E+02  0.81540278470E+03  0.80026929436E+03 0.  0.
         22    1    5    5    0    0 -0.26781360588E+03  0.24524186152E+03  0.19940430238E+03  0.41428223947E+03  0.00000000000E+00 0.  1.
         22    1    5    5    0    0  0.35518079544E+03 -0.14420554844E+03 -0.11810611398E+03  0.40112054523E+03  0.00000000000E+00 0.  1.
          5    1    4    4  502    0 -0.30898786830E+02  0.26162189090E+02 -0.12731457882E+02  0.42700997475E+02  0.47000000000E+01 0. -1.
         -5    1    4    4    0  502 -0.56468402729E+02 -0.12719850217E+03 -0.31982461966E+02  0.14287444605E+03  0.47000000000E+01 0. -1.
<mgrwt>
<rscale>  0 0.10003095E+04</rscale>
<asrwt>0</asrwt>
<pdfrwt beam="1">  1        2 0.79812500E-01 0.10003095E+04</pdfrwt>
<pdfrwt beam="2">  1       -2 0.74184151E-01 0.10003095E+04</pdfrwt>
<totfact> 0.11660464E+02</totfact>
</mgrwt>
</event>
<event>
 9    1  0.4246427E-036  0.9998493E+03  0.7818608E-02  0.8681181E-01
          2   -1    0    0  501    0  0.00000000000E+00  0.00000000000E+00  0.11341169930E+04  0.11341169930E+04  0.00000000000E+00 0.  1.
         -2   -1    0    0    0  501 -0.00000000000E+00 -0.00000000000E+00 -0.22036937256E+03  0.22036937256E+03  0.00000000000E+00 0.  1.
         36    2    1    2    0    0  0.35527136788E-14 -0.28421709430E-13  0.91374762046E+03  0.13544863656E+04  0.99984928895E+03 0.  0.
         25    2    3    3    0    0 -0.24905819911E+02 -0.71833423943E+02  0.11925630957E+02  0.14628753316E+03  0.12440852473E+03 0.  0.
         35    2    3    3    0    0  0.24905819911E+02  0.71833423943E+02  0.90182198950E+03  0.12081988324E+04  0.80042562254E+03 0.  0.
         22    1    5    5    0    0  0.85082294495E+02  0.11947773733E+03 -0.11629941823E+03  0.18718835764E+03  0.00000000000E+00 0.  1.
         22    1    5    5    0    0 -0.60176474584E+02 -0.47644313392E+02  0.10181214077E+04  0.10210104748E+04  0.00000000000E+00 0.  1.
          5    1    4    4  502    0 -0.44490194587E+02 -0.96535536308E+02  0.28795764011E+02  0.11022600968E+03  0.47000000000E+01 0. -1.
         -5    1    4    4    0  502  0.19584374676E+02  0.24702112366E+02 -0.16870133053E+02  0.36061523485E+02  0.47000000000E+01 0. -1.
<mgrwt>
<rscale>  0 0.99984929E+03</rscale>
<asrwt>0</asrwt>
<pdfrwt beam="1">  1        2 0.17447953E+00 0.99984929E+03</pdfrwt>
<pdfrwt beam="2">  1       -2 0.33902981E-01 0.99984929E+03</pdfrwt>
<totfact> 0.20382542E+02</totfact>
</mgrwt>
</event>
<event>
 9    1  0.4246427E-036  0.1000791E+04  0.7818608E-02  0.8680285E-01
         -2   -1    0    0    0  501 -0.00000000000E+00  0.00000000000E+00  0.11359061781E+03  0.11359061781E+03  0.00000000000E+00 0.  1.
          2   -1    0    0  501    0  0.00000000000E+00 -0.00000000000E+00 -0.22043703544E+04  0.22043703544E+04  0.00000000000E+00 0.  1.
         36    2    1    2    0    0  0.71054273576E-14  0.00000000000E+00 -0.20907797366E+04  0.23179609722E+04  0.10007912678E+04 0.  0.
         25    2    3    3    0    0 -0.18256341490E+02 -0.33777712305E+02 -0.70702855019E+03  0.71912390083E+03  0.12560090012E+03 0.  0.
         35    2    3    3    0    0  0.18256341490E+02  0.33777712305E+02 -0.13837511864E+04  0.15988370714E+04  0.80002400408E+03 0.  0.
         22    1    5    5    0    0 -0.27249571937E+03 -0.99779331509E+02 -0.11898130209E+04  0.12246896982E+04  0.00000000000E+00 0.  1.
         22    1    5    5    0    0  0.29075206086E+03  0.13355704381E+03 -0.19393816548E+03  0.37414737320E+03  0.00000000000E+00 0.  1.
          5    1    4    4  502    0 -0.19216521466E+02  0.43258918703E+02 -0.38731722783E+03  0.39022728469E+03  0.47000000000E+01 0.  1.
         -5    1    4    4    0  502  0.96017997588E+00 -0.77036631008E+02 -0.31971132236E+03  0.32889661614E+03  0.47000000000E+01 0.  1.
<mgrwt>
<rscale>  0 0.10007913E+04</rscale>
<asrwt>0</asrwt>
<pdfrwt beam="1">  1        2 0.33913391E+00 0.10007913E+04</pdfrwt>
<pdfrwt beam="2">  1       -2 0.17475479E-01 0.10007913E+04</pdfrwt>
<totfact> 0.16122086E+02</totfact>
</mgrwt>
</event>
<event>
 9    1  0.4246427E-036  0.1000578E+04  0.7818608E-02  0.8680488E-01
          2   -1    0    0  501    0  0.00000000000E+00  0.00000000000E+00  0.16905656287E+04  0.16905656287E+04  0.00000000000E+00 0. -1.
         -2   -1    0    0    0  501 -0.00000000000E+00 -0.00000000000E+00 -0.14805054178E+03  0.14805054178E+03  0.00000000000E+00 0. -1.
         36    2    1    2    0    0  0.00000000000E+00  0.00000000000E+00  0.15425150869E+04  0.18386161704E+04  0.10005781473E+04 0.  0.
         25    2    3    3    0    0  0.58318854856E+02  0.10625171575E+03  0.41411026506E+03  0.44935072768E+03  0.12545217777E+03 0.  0.
         35    2    3    3    0    0 -0.58318854856E+02 -0.10625171575E+03  0.11284048218E+04  0.13892654428E+04  0.80129302542E+03 0.  0.
         22    1    5    5    0    0  0.98128484114E+02  0.12642651307E+02 -0.10268363286E+03  0.14259370422E+03  0.00000000000E+00 0.  1.
         22    1    5    5    0    0 -0.15644733897E+03 -0.11889436706E+03  0.12310884547E+04  0.12466717385E+04  0.00000000000E+00 0.  1.
          5    1    4    4  502    0  0.36839296109E+02  0.13267614829E+03  0.35738193020E+03  0.38301961843E+03  0.47000000000E+01 0. -1.
         -5    1    4    4    0  502  0.21479558747E+02 -0.26424432544E+02  0.56728334854E+02  0.66331109252E+02  0.47000000000E+01 0. -1.
<mgrwt>
<rscale>  0 0.10005781E+04</rscale>
<asrwt>0</asrwt>
<pdfrwt beam="1">  1        2 0.26008701E+00 0.10005781E+04</pdfrwt>
<pdfrwt beam="2">  1       -2 0.22777008E-01 0.10005781E+04</pdfrwt>
<totfact> 0.19996580E+02</totfact>
</mgrwt>
</event>
<event>
 9    1  0.4246427E-036  0.9997728E+03  0.7818608E-02  0.8681254E-01
          3   -1    0    0  501    0  0.00000000000E+00  0.00000000000E+00  0.31519081950E+04  0.31519081950E+04  0.00000000000E+00 0.  1.
         -3   -1    0    0    0  501 -0.00000000000E+00 -0.00000000000E+00 -0.79280999180E+02  0.79280999180E+02  0.00000000000E+00 0.  1.
         36    2    1    2    0    0  0.00000000000E+00  0.00000000000E+00  0.30726271958E+04  0.32311891942E+04  0.99977283624E+03 0.  0.
         25    2    3    3    0    0 -0.65580715808E+02  0.74799756541E+02  0.84297023743E+03  0.86005933199E+03  0.13859076261E+03 0.  0.
         35    2    3    3    0    0  0.65580715808E+02 -0.74799756541E+02  0.22296569584E+04  0.23711298622E+04  0.80061903388E+03 0.  0.
         22    1    5    5    0    0 -0.60288912830E+02 -0.23072404008E+03  0.14974749856E+03  0.28158950443E+03  0.00000000000E+00 0. -1.
         22    1    5    5    0    0  0.12586962864E+03  0.15592428354E+03  0.20799094598E+04  0.20895403578E+04  0.00000000000E+00 0. -1.
          5    1    4    4  502    0 -0.60024196790E+02 -0.27819798926E+01  0.13537003719E+03  0.14818157976E+03  0.47000000000E+01 0.  1.
         -5    1    4    4    0  502 -0.55565190180E+01  0.77581736433E+02  0.70760020024E+03  0.71187775223E+03  0.47000000000E+01 0.  1.
<mgrwt>
<rscale>  0 0.99977284E+03</rscale>
<asrwt>0</asrwt>
<pdfrwt beam="1">  1        3 0.48490886E+00 0.99977284E+03</pdfrwt>
<pdfrwt beam="2">  1       -3 0.12197079E-01 0.99977284E+03</pdfrwt>
<totfact> 0.28655069E+00</totfact>
</mgrwt>
</event>
<event>
 9    1  0.4246427E-036  0.9984515E+03  0.7818608E-02  0.8682514E-01
          1   -1    0    0  501    0  0.00000000000E+00  0.00000000000E+00  0.10188138868E+04  0.10188138868E+04  0.00000000000E+00 0. -1.
         -1   -1    0    0    0  501 -0.00000000000E+00 -0.00000000000E+00 -0.24462402232E+03  0.24462402232E+03  0.00000000000E+00 0. -1.
         36    2    1    2    0    0 -0.56843418861E-13  0.00000000000E+00  0.77418986448E+03  0.12634379091E+04  0.99845150305E+03 0.  0.
         25    2    3    3    0    0 -0.12279179582E+03 -0.65940663849E+02  0.20045168343E+03  0.27429956227E+03  0.12503350031E+03 0.  0.
         35    2    3    3    0    0  0.12279179582E+03  0.65940663849E+02  0.57373818105E+03  0.98913834686E+03  0.79359509359E+03 0.  0.
         22    1    5    5    0    0  0.45000954862E+03  0.12760157547E+03  0.28024270061E+03  0.54527674364E+03  0.00000000000E+00 0. -1.
         22    1    5    5    0    0 -0.32721775281E+03 -0.61660911622E+02  0.29349548044E+03  0.44386160322E+03  0.00000000000E+00 0. -1.
          5    1    4    4  502    0 -0.62575170021E+02  0.30497745001E+02  0.10342446484E+03  0.12475766221E+03  0.47000000000E+01 0. -1.
         -5    1    4    4    0  502 -0.60216625795E+02 -0.96438408850E+02  0.97027218593E+02  0.14954190005E+03  0.47000000000E+01 0. -1.
<mgrwt>
<rscale>  0 0.99845150E+03</rscale>
<asrwt>0</asrwt>
<pdfrwt beam="1">  1        1 0.15674060E+00 0.99845150E+03</pdfrwt>
<pdfrwt beam="2">  1       -1 0.37634466E-01 0.99845150E+03</pdfrwt>
<totfact> 0.11129535E+02</totfact>
</mgrwt>
</event>
<event>
 9    1  0.4246427E-036  0.9997123E+03  0.7818608E-02  0.8681312E-01
          2   -1    0    0  501    0  0.00000000000E+00  0.00000000000E+00  0.22409398416E+03  0.22409398416E+03  0.00000000000E+00 0.  1.
         -2   -1    0    0    0  501 -0.00000000000E+00 -0.00000000000E+00 -0.11149616037E+04  0.11149616037E+04  0.00000000000E+00 0.  1.
         36    2    1    2    0    0  0.00000000000E+00  0.00000000000E+00 -0.89086761949E+03  0.13390555878E+04  0.99971233452E+03 0.  0.
         25    2    3    3    0    0 -0.11928444846E+03 -0.66816231359E+02 -0.16622755637E+03  0.24887684894E+03  0.12495958156E+03 0.  0.
         35    2    3    3    0    0  0.11928444846E+03  0.66816231359E+02 -0.72464006312E+03  0.10901787389E+04  0.80292793774E+03 0.  0.
         22    1    5    5    0    0  0.13971207146E+02 -0.51471673254E+01  0.17797450703E+03  0.17859622928E+03  0.00000000000E+00 0. -1.
         22    1    5    5    0    0  0.10531324132E+03  0.71963398684E+02 -0.90261457015E+03  0.91158250959E+03  0.00000000000E+00 0. -1.
          5    1    4    4  502    0 -0.62494966720E+01 -0.57735051292E+02 -0.15670635473E+02  0.60332836602E+02  0.47000000000E+01 0. -1.
         -5    1    4    4    0  502 -0.11303495179E+03 -0.90811800668E+01 -0.15055692090E+03  0.18854401234E+03  0.47000000000E+01 0. -1.
<mgrwt>
<rscale>  0 0.99971233E+03</rscale>
<asrwt>0</asrwt>
<pdfrwt beam="1">  1        2 0.34475998E-01 0.99971233E+03</pdfrwt>
<pdfrwt beam="2">  1       -2 0.17153255E+00 0.99971233E+03</pdfrwt>
<totfact> 0.35148414E+01</totfact>
</mgrwt>
</event>
<event>
 9    1  0.4246427E-036  0.1000873E+04  0.7818608E-02  0.8680207E-01
          1   -1    0    0  501    0  0.00000000000E+00  0.00000000000E+00  0.27222798436E+04  0.27222798436E+04  0.00000000000E+00 0.  1.
         -1   -1    0    0    0  501 -0.00000000000E+00 -0.00000000000E+00 -0.91995224521E+02  0.91995224521E+02  0.00000000000E+00 0.  1.
         36    2    1    2    0    0  0.28421709430E-13 -0.14210854715E-13  0.26302846191E+04  0.28142750681E+04  0.10008731097E+04 0.  0.
         25    2    3    3    0    0  0.13922454533E+03  0.74006751761E+01  0.55207032172E+03  0.58287292004E+03  0.12458313198E+03 0.  0.
         35    2    3    3    0    0 -0.13922454533E+03 -0.74006751761E+01  0.20782142974E+04  0.22314021481E+04  0.80046401337E+03 0.  0.
         22    1    5    5    0    0  0.26705331567E+03 -0.19810193970E+03  0.59303774727E+03  0.67989383113E+03  0.00000000000E+00 0. -1.
         22    1    5    5    0    0 -0.40627786100E+03  0.19070126453E+03  0.14851765501E+04  0.15515083170E+04  0.00000000000E+00 0. -1.
          5    1    4    4  502    0  0.13778387936E+02  0.29705999215E+02  0.28516794023E+03  0.28708036244E+03  0.47000000000E+01 0.  1.
         -5    1    4    4    0  502  0.12544615740E+03 -0.22305324039E+02  0.26690238149E+03  0.29579255760E+03  0.47000000000E+01 0.  1.
<mgrwt>
<rscale>  0 0.10008731E+04</rscale>
<asrwt>0</asrwt>
<pdfrwt beam="1">  1        1 0.41881222E+00 0.10008731E+04</pdfrwt>
<pdfrwt beam="2">  1       -1 0.14153114E-01 0.10008731E+04</pdfrwt>
<totfact> 0.34780752E+01</totfact>
</mgrwt>
</event>
<event>
 9    1  0.4246427E-036  0.1000012E+04  0.7818608E-02  0.8681027E-01
          2   -1    0    0  501    0  0.00000000000E+00  0.00000000000E+00  0.89606512527E+03  0.89606512527E+03  0.00000000000E+00 0. -1.
         -2   -1    0    0    0  501 -0.00000000000E+00 -0.00000000000E+00 -0.27900419079E+03  0.27900419079E+03  0.00000000000E+00 0. -1.
         36    2    1    2    0    0  0.24868995752E-13  0.00000000000E+00  0.61706093448E+03  0.11750693161E+04  0.10000118503E+04 0.  0.
         25    2    3    3    0    0 -0.12786143020E+02  0.70275379367E+02 -0.24918331911E+02  0.14613203562E+03  0.12502613395E+03 0.  0.
         35    2    3    3    0    0  0.12786143020E+02 -0.70275379367E+02  0.64197926639E+03  0.10289372804E+04  0.80091974267E+03 0.  0.
         22    1    5    5    0    0 -0.34938152436E+03 -0.13400942211E+03  0.12502797106E+03  0.39453512940E+03  0.00000000000E+00 0. -1.
         22    1    5    5    0    0  0.36216766738E+03  0.63734042748E+02  0.51695129533E+03  0.63440215104E+03  0.00000000000E+00 0. -1.
          5    1    4    4  502    0 -0.40188595018E+02  0.97104992014E+02 -0.21237254062E+02  0.10732014538E+03  0.47000000000E+01 0.  1.
         -5    1    4    4    0  502  0.27402451998E+02 -0.26829612647E+02 -0.36810778493E+01  0.38811890245E+02  0.47000000000E+01 0.  1.
<mgrwt>
<rscale>  0 0.10000119E+04</rscale>
<asrwt>0</asrwt>
<pdfrwt beam="1">  1        2 0.13785617E+00 0.10000119E+04</pdfrwt>
<pdfrwt beam="2">  1       -2 0.42923722E-01 0.10000119E+04</pdfrwt>
<totfact> 0.18366386E+02</totfact>
</mgrwt>
</event>
<event>
 9    1  0.4246427E-036  0.9986268E+03  0.7818608E-02  0.8682347E-01
          1   -1    0    0  501    0  0.00000000000E+00  0.00000000000E+00  0.17738648082E+04  0.17738648082E+04  0.00000000000E+00 0.  1.
         -1   -1    0    0    0  501 -0.00000000000E+00 -0.00000000000E+00 -0.14054841811E+03  0.14054841811E+03  0.00000000000E+00 0.  1.
         36    2    1    2    0    0  0.00000000000E+00  0.28421709430E-13  0.16333163901E+04  0.19144132263E+04  0.99862684269E+03 0.  0.
         25    2    3    3    0    0  0.11859871275E+03  0.68311200098E+02  0.34099026586E+03  0.38841286561E+03  0.12592901984E+03 0.  0.
         35    2    3    3    0    0 -0.11859871275E+03 -0.68311200098E+02  0.12923261242E+04  0.15260003607E+04  0.79989887783E+03 0.  0.
         22    1    5    5    0    0  0.65671467121E+02 -0.33876560726E+03  0.10850966301E+04  0.11386437437E+04  0.00000000000E+00 0.  1.
         22    1    5    5    0    0 -0.18427017987E+03  0.27045440716E+03  0.20722949412E+03  0.38735661706E+03  0.00000000000E+00 0.  1.
          5    1    4    4  502    0  0.13301098737E+03  0.83813180209E+02  0.25394997227E+03  0.29871265516E+03  0.47000000000E+01 0.  1.
         -5    1    4    4    0  502 -0.14412274619E+02 -0.15501980111E+02  0.87040293590E+02  0.89700210453E+02  0.47000000000E+01 0.  1.
<mgrwt>
<rscale>  0 0.99862684E+03</rscale>
<asrwt>0</asrwt>
<pdfrwt beam="1">  1        1 0.27290226E+00 0.99862684E+03</pdfrwt>
<pdfrwt beam="2">  1       -1 0.21622835E-01 0.99862684E+03</pdfrwt>
<totfact> 0.80653091E+01</totfact>
</mgrwt>
</event>
<event>
 9    1  0.4246427E-036  0.9994856E+03  0.7818608E-02  0.8681528E-01
          3   -1    0    0  501    0  0.00000000000E+00  0.00000000000E+00  0.67999960654E+03  0.67999960654E+03  0.00000000000E+00 0.  1.
         -3   -1    0    0    0  501 -0.00000000000E+00 -0.00000000000E+00 -0.36726911695E+03  0.36726911695E+03  0.00000000000E+00 0.  1.
         36    2    1    2    0    0 -0.14210854715E-13  0.28421709430E-13  0.31273048960E+03  0.10472687235E+04  0.99948557772E+03 0.  0.
         25    2    3    3    0    0 -0.17198294294E+02 -0.11403649485E+03 -0.22433908857E+02  0.17238424893E+03  0.12614652405E+03 0.  0.
         35    2    3    3    0    0  0.17198294294E+02  0.11403649485E+03  0.33516439846E+03  0.87488447456E+03  0.79986721795E+03 0.  0.
         22    1    5    5    0    0 -0.15754341038E+03 -0.30893234668E+03  0.10322021573E+03  0.36181975335E+03  0.00000000000E+00 0. -1.
         22    1    5    5    0    0  0.17474170468E+03  0.42296884152E+03  0.23194418272E+03  0.51306472121E+03  0.00000000000E+00 0. -1.
          5    1    4    4  502    0 -0.41295349090E+02 -0.30878619803E+02 -0.58811380562E+02  0.78356004881E+02  0.47000000000E+01 0. -1.
         -5    1    4    4    0  502  0.24097054796E+02 -0.83157875043E+02  0.36377471705E+02  0.94028244051E+02  0.47000000000E+01 0. -1.
<mgrwt>
<rscale>  0 0.99948558E+03</rscale>
<asrwt>0</asrwt>
<pdfrwt beam="1">  1        3 0.10461532E+00 0.99948558E+03</pdfrwt>
<pdfrwt beam="2">  1       -3 0.56502941E-01 0.99948558E+03</pdfrwt>
<totfact> 0.10071696E+01</totfact>
</mgrwt>
</event>
<event>
 9    1  0.4246427E-036  0.9981143E+03  0.7818608E-02  0.8682836E-01
          2   -1    0    0  501    0  0.00000000000E+00  0.00000000000E+00  0.18174816242E+04  0.18174816242E+04  0.00000000000E+00 0.  1.
         -2   -1    0    0    0  501 -0.00000000000E+00 -0.00000000000E+00 -0.13703469097E+03  0.13703469097E+03  0.00000000000E+00 0.  1.
         36    2    1    2    0    0  0.00000000000E+00  0.14210854715E-13  0.16804469332E+04  0.19545163152E+04  0.99811428747E+03 0.  0.
         25    2    3    3    0    0 -0.33436930651E+02 -0.12245015715E+03  0.41219735742E+03  0.44899000373E+03  0.12479299927E+03 0.  0.
         35    2    3    3    0    0  0.33436930651E+02  0.12245015715E+03  0.12682495758E+04  0.15055263114E+04  0.80127424679E+03 0.  0.
         22    1    5    5    0    0 -0.84470145156E+02  0.87013084015E+02  0.13514835634E+04  0.13569135213E+04  0.00000000000E+00 0.  1.
         22    1    5    5    0    0  0.11790707581E+03  0.35437073137E+02 -0.83233987628E+02  0.14861279008E+03  0.00000000000E+00 0.  1.
          5    1    4    4  502    0  0.25235123849E+02 -0.11354285407E+03  0.23887810792E+03  0.26573225553E+03  0.47000000000E+01 0.  1.
         -5    1    4    4    0  502 -0.58672054500E+02 -0.89073030828E+01  0.17331924950E+03  0.18325774820E+03  0.47000000000E+01 0.  1.
<mgrwt>
<rscale>  0 0.99811429E+03</rscale>
<asrwt>0</asrwt>
<pdfrwt beam="1">  1        2 0.27961254E+00 0.99811429E+03</pdfrwt>
<pdfrwt beam="2">  1       -2 0.21082261E-01 0.99811429E+03</pdfrwt>
<totfact> 0.19412798E+02</totfact>
</mgrwt>
</event>
<event>
 9    1  0.4246427E-036  0.9992330E+03  0.7818608E-02  0.8681769E-01
          2   -1    0    0  501    0  0.00000000000E+00  0.00000000000E+00  0.65148656863E+03  0.65148656863E+03  0.00000000000E+00 0.  1.
         -2   -1    0    0    0  501 -0.00000000000E+00 -0.00000000000E+00 -0.38314937460E+03  0.38314937460E+03  0.00000000000E+00 0.  1.
         36    2    1    2    0    0  0.14210854715E-13  0.00000000000E+00  0.26833719403E+03  0.10346359432E+04  0.99923304856E+03 0.  0.
         25    2    3    3    0    0  0.42582005106E+02  0.10362291452E+03  0.13509418949E+03  0.21611040149E+03  0.12610444096E+03 0.  0.
         35    2    3    3    0    0 -0.42582005106E+02 -0.10362291452E+03  0.13324300455E+03  0.81852554174E+03  0.79979961781E+03 0.  0.
         22    1    5    5    0    0 -0.39126465237E+03  0.23569832629E+02 -0.65654451669E+02  0.39743436216E+03  0.00000000000E+00 0. -1.
         22    1    5    5    0    0  0.34868264726E+03 -0.12719274715E+03  0.19889745621E+03  0.42109117958E+03  0.00000000000E+00 0. -1.
          5    1    4    4  502    0  0.85057395794E+01 -0.44526216913E+01  0.95324676943E+02  0.95922142804E+02  0.47000000000E+01 0.  1.
         -5    1    4    4    0  502  0.34076265527E+02  0.10807553621E+03  0.39769512542E+02  0.12018825869E+03  0.47000000000E+01 0.  1.
<mgrwt>
<rscale>  0 0.99923305E+03</rscale>
<asrwt>0</asrwt>
<pdfrwt beam="1">  1        2 0.10022870E+00 0.99923305E+03</pdfrwt>
<pdfrwt beam="2">  1       -2 0.58946058E-01 0.99923305E+03</pdfrwt>
<totfact> 0.14585755E+02</totfact>
</mgrwt>
</event>
<event>
 9    1  0.4246427E-036  0.1000470E+04  0.7818608E-02  0.8680591E-01
          1   -1    0    0  501    0  0.00000000000E+00  0.00000000000E+00  0.10431733776E+04  0.10431733776E+04  0.00000000000E+00 0. -1.
         -1   -1    0    0    0  501 -0.00000000000E+00 -0.00000000000E+00 -0.23987851673E+03  0.23987851673E+03  0.00000000000E+00 0. -1.
         36    2    1    2    0    0 -0.28421709430E-13  0.00000000000E+00  0.80329486086E+03  0.12830518943E+04  0.10004696547E+04 0.  0.
         25    2    3    3    0    0 -0.86275083227E+02 -0.85578839666E+02  0.24241521618E+03  0.29868742733E+03  0.12522745077E+03 0.  0.
         35    2    3    3    0    0  0.86275083227E+02  0.85578839666E+02  0.56087964468E+03  0.98436446700E+03  0.79976265247E+03 0.  0.
         22    1    5    5    0    0  0.39573162529E+03 -0.12027552362E+03  0.41257197627E+03  0.58419633381E+03  0.00000000000E+00 0.  1.
         22    1    5    5    0    0 -0.30945654206E+03  0.20585436329E+03  0.14830766842E+03  0.40016813319E+03  0.00000000000E+00 0.  1.
          5    1    4    4  502    0 -0.68926799465E+02 -0.43054807760E+02  0.23889868601E+03  0.25238718734E+03  0.47000000000E+01 0.  1.
         -5    1    4    4    0  502 -0.17348283762E+02 -0.42524031906E+02  0.35165301695E+01  0.46300239994E+02  0.47000000000E+01 0.  1.
<mgrwt>
<rscale>  0 0.10004697E+04</rscale>
<asrwt>0</asrwt>
<pdfrwt beam="1">  1        1 0.16048821E+00 0.10004697E+04</pdfrwt>
<pdfrwt beam="2">  1       -1 0.36904388E-01 0.10004697E+04</pdfrwt>
<totfact> 0.11021686E+02</totfact>
</mgrwt>
</event>
<event>
 9    1  0.4246427E-036  0.9999168E+03  0.7818608E-02  0.8681117E-01
          2   -1    0    0  501    0  0.00000000000E+00  0.00000000000E+00  0.64295900072E+03  0.64295900072E+03  0.00000000000E+00 0. -1.
         -2   -1    0    0    0  501 -0.00000000000E+00 -0.00000000000E+00 -0.38876254882E+03  0.38876254882E+03  0.00000000000E+00 0. -1.
         36    2    1    2    0    0  0.00000000000E+00  0.14210854715E-13  0.25419645190E+03  0.10317215495E+04  0.99991675635E+03 0.  0.
         25    2    3    3    0    0  0.61233100518E+02  0.92300472230E+02 -0.38836287612E+02  0.17260780909E+03  0.12655563500E+03 0.  0.
         35    2    3    3    0    0 -0.61233100518E+02 -0.92300472230E+02  0.29303273951E+03  0.85911374045E+03  0.79996210087E+03 0.  0.
         22    1    5    5    0    0 -0.16512218135E+03 -0.18180555106E+03  0.53067149210E+03  0.58474851491E+03  0.00000000000E+00 0. -1.
         22    1    5    5    0    0  0.10388908083E+03  0.89505078832E+02 -0.23763875259E+03  0.27436522554E+03  0.00000000000E+00 0. -1.
          5    1    4    4  502    0 -0.26862038205E+02  0.45303509224E+02  0.20099547531E+02  0.56569062707E+02  0.47000000000E+01 0.  1.
         -5    1    4    4    0  502  0.88095138723E+02  0.46996963006E+02 -0.58935835143E+02  0.11603874638E+03  0.47000000000E+01 0.  1.
<mgrwt>
<rscale>  0 0.99991676E+03</rscale>
<asrwt>0</asrwt>
<pdfrwt beam="1">  1        2 0.98916769E-01 0.99991676E+03</pdfrwt>
<pdfrwt beam="2">  1       -2 0.59809623E-01 0.99991676E+03</pdfrwt>
<totfact> 0.14377310E+02</totfact>
</mgrwt>
</event>
<event>
 9    1  0.4246427E-036  0.1000286E+04  0.7818608E-02  0.8680765E-01
         -2   -1    0    0    0  501 -0.00000000000E+00  0.00000000000E+00  0.36793982826E+03  0.36793982826E+03  0.00000000000E+00 0.  1.
          2   -1    0    0  501    0  0.00000000000E+00 -0.00000000000E+00 -0.67984783146E+03  0.67984783146E+03  0.00000000000E+00 0.  1.
         36    2    1    2    0    0  0.14210854715E-13  0.14210854715E-13 -0.31190800320E+03  0.10477876597E+04  0.10002861478E+04 0.  0.
         25    2    3    3    0    0 -0.10557522344E+03 -0.83732375464E+02 -0.13079364337E+02  0.18422802353E+03  0.12494661411E+03 0.  0.
         35    2    3    3    0    0  0.10557522344E+03  0.83732375464E+02 -0.29882863887E+03  0.86355963620E+03  0.79892393340E+03 0.  0.
         22    1    5    5    0    0  0.31823099345E+03  0.31887028028E+03 -0.30912053912E+03  0.54635586255E+03  0.00000000000E+00 0.  1.
         22    1    5    5    0    0 -0.21265577001E+03 -0.23513790482E+03  0.10291900256E+02  0.31720377364E+03  0.00000000000E+00 0.  1.
          5    1    4    4  502    0 -0.12047044723E+03 -0.32207625592E+02 -0.28937103564E+02  0.12810115443E+03  0.47000000000E+01 0. -1.
         -5    1    4    4    0  502  0.14895223797E+02 -0.51524749872E+02  0.15857739228E+02  0.56126869098E+02  0.47000000000E+01 0. -1.
<mgrwt>
<rscale>  0 0.10002861E+04</rscale>
<asrwt>0</asrwt>
<pdfrwt beam="1">  1        2 0.10459197E+00 0.10002861E+04</pdfrwt>
<pdfrwt beam="2">  1       -2 0.56606128E-01 0.10002861E+04</pdfrwt>
<totfact> 0.15061358E+02</totfact>
</mgrwt>
</event>
<event>
 9    1  0.4246427E-036  0.1000053E+04  0.7818608E-02  0.8680988E-01
         -2   -1    0    0    0  501 -0.00000000000E+00  0.00000000000E+00  0.45668892710E+03  0.45668892710E+03  0.00000000000E+00 0. -1.
          2   -1    0    0  501    0  0.00000000000E+00 -0.00000000000E+00 -0.54747642148E+03  0.54747642148E+03  0.00000000000E+00 0. -1.
         36    2    1    2    0    0  0.00000000000E+00  0.14210854715E-13 -0.90787494384E+02  0.10041653486E+04  0.10000528377E+04 0.  0.
         25    2    3    3    0    0 -0.88718801754E+02 -0.34680513728E+02 -0.11898330404E+03  0.19785508371E+03  0.12615801082E+03 0.  0.
         35    2    3    3    0    0  0.88718801754E+02  0.34680513728E+02  0.28195809655E+02  0.80631026486E+03  0.80016715487E+03 0.  0.
         22    1    5    5    0    0  0.38804767481E+03  0.19584722042E+03  0.12599769085E+03  0.45256220542E+03  0.00000000000E+00 0.  1.
         22    1    5    5    0    0 -0.29932887306E+03 -0.16116670669E+03 -0.97801881192E+02  0.35374805944E+03  0.00000000000E+00 0.  1.
          5    1    4    4  502    0 -0.80358461465E+02 -0.46421756979E+02 -0.14235403327E+03  0.16999771363E+03  0.47000000000E+01 0.  1.
         -5    1    4    4    0  502 -0.83603402895E+01  0.11741243251E+02  0.23370729235E+02  0.27857370081E+02  0.47000000000E+01 0.  1.
<mgrwt>
<rscale>  0 0.10000528E+04</rscale>
<asrwt>0</asrwt>
<pdfrwt beam="1">  1        2 0.84227142E-01 0.10000528E+04</pdfrwt>
<pdfrwt beam="2">  1       -2 0.70259835E-01 0.10000528E+04</pdfrwt>
<totfact> 0.12344478E+02</totfact>
</mgrwt>
</event>
<event>
 9    1  0.4246427E-036  0.9989952E+03  0.7818608E-02  0.8681995E-01
          2   -1    0    0  501    0  0.00000000000E+00  0.00000000000E+00  0.44384423419E+03  0.44384423419E+03  0.00000000000E+00 0.  1.
         -2   -1    0    0    0  501 -0.00000000000E+00 -0.00000000000E+00 -0.56212928682E+03  0.56212928682E+03  0.00000000000E+00 0.  1.
         36    2    1    2    0    0  0.00000000000E+00  0.00000000000E+00 -0.11828505263E+03  0.10059735210E+04  0.99899518082E+03 0.  0.
         25    2    3    3    0    0  0.13953676396E+03 -0.38587355248E+02 -0.47576620628E+02  0.19726914462E+03  0.12526806499E+03 0.  0.
         35    2    3    3    0    0 -0.13953676396E+03  0.38587355248E+02 -0.70708432006E+02  0.80870437639E+03  0.79249201482E+03 0.  0.
         22    1    5    5    0    0  0.32443905627E+03 -0.57296293491E+02 -0.59518607905E+02  0.33479251959E+03  0.00000000000E+00 0.  1.
         22    1    5    5    0    0 -0.46397582023E+03  0.95883648739E+02 -0.11189824101E+02  0.47391185680E+03  0.00000000000E+00 0.  1.
          5    1    4    4  502    0  0.12928759389E+03  0.16307396781E+02 -0.53440028747E+02  0.14092246022E+03  0.47000000000E+01 0.  1.
         -5    1    4    4    0  502  0.10249170070E+02 -0.54894752029E+02  0.58634081197E+01  0.56346684394E+02  0.47000000000E+01 0.  1.
<mgrwt>
<rscale>  0 0.99899518E+03</rscale>
<asrwt>0</asrwt>
<pdfrwt beam="1">  1        2 0.68283729E-01 0.99899518E+03</pdfrwt>
<pdfrwt beam="2">  1       -2 0.86481428E-01 0.99899518E+03</pdfrwt>
<totfact> 0.98036194E+01</totfact>
</mgrwt>
</event>
<event>
 9    1  0.4246427E-036  0.9996869E+03  0.7818608E-02  0.8681336E-01
         -2   -1    0    0    0  501 -0.00000000000E+00  0.00000000000E+00  0.56512604941E+03  0.56512604941E+03  0.00000000000E+00 0.  1.
          2   -1    0    0  501    0  0.00000000000E+00 -0.00000000000E+00 -0.44210217896E+03  0.44210217896E+03  0.00000000000E+00 0.  1.
         36    2    1    2    0    0  0.00000000000E+00 -0.28421709430E-13  0.12302387045E+03  0.10072282284E+04  0.99968686664E+03 0.  0.
         25    2    3    3    0    0 -0.45813668391E+02 -0.11993829925E+03  0.71856240647E+02  0.19263695606E+03  0.12434464074E+03 0.  0.
         35    2    3    3    0    0  0.45813668391E+02  0.11993829925E+03  0.51167629807E+02  0.81459127232E+03  0.80278062181E+03 0.  0.
         22    1    5    5    0    0  0.64193181017E+01 -0.28547940370E+03 -0.18833733770E+03  0.34206819547E+03  0.00000000000E+00 0. -1.
         22    1    5    5    0    0  0.39394350289E+02  0.40541770294E+03  0.23950496751E+03  0.47252307685E+03  0.00000000000E+00 0. -1.
          5    1    4    4  502    0  0.35357821440E+02 -0.56839801007E+02  0.58178423338E+02  0.88813047789E+02  0.47000000000E+01 0. -1.
         -5    1    4    4    0  502 -0.81171489831E+02 -0.63098498238E+02  0.13677817309E+02  0.10382390827E+03  0.47000000000E+01 0. -1.
<mgrwt>
<rscale>  0 0.99968687E+03</rscale>
<asrwt>0</asrwt>
<pdfrwt beam="1">  1        2 0.68015720E-01 0.99968687E+03</pdfrwt>
<pdfrwt beam="2">  1       -2 0.86942469E-01 0.99968687E+03</pdfrwt>
<totfact> 0.97251898E+01</totfact>
</mgrwt>
</event>
<event>
 9    1  0.4246427E-036  0.1000484E+04  0.7818608E-02  0.8680577E-01
         -1   -1    0    0    0  501 -0.00000000000E+00  0.00000000000E+00  0.31158919075E+03  0.31158919075E+03  0.00000000000E+00 0. -1.
          1   -1    0    0  501    0  0.00000000000E+00 -0.00000000000E+00 -0.80311549944E+03  0.80311549944E+03  0.00000000000E+00 0. -1.
         36    2    1    2    0    0  0.14210854715E-13 -0.10658141036E-13 -0.49152630869E+03  0.11147046902E+04  0.10004840999E+04 0.  0.
         25    2    3    3    0    0  0.71678703380E+02  0.12013162868E+02  0.42313535068E+02  0.15026808183E+03  0.12453075349E+03 0.  0.
         35    2    3    3    0    0 -0.71678703380E+02 -0.12013162868E+02 -0.53383984376E+03  0.96443660836E+03  0.79991927102E+03 0.  0.
         22    1    5    5    0    0  0.34788683254E+03 -0.10477098928E+03 -0.32147236206E+03  0.48512543534E+03  0.00000000000E+00 0.  1.
         22    1    5    5    0    0 -0.41956553592E+03  0.92757826409E+02 -0.21236748170E+03  0.47931117301E+03  0.00000000000E+00 0.  1.
          5    1    4    4  502    0 -0.75720807765E+01  0.41433315574E+02  0.49657650305E+02  0.65284211572E+02  0.47000000000E+01 0. -1.
         -5    1    4    4    0  502  0.79250784156E+02 -0.29420152706E+02 -0.73441152377E+01  0.84983870253E+02  0.47000000000E+01 0. -1.
<mgrwt>
<rscale>  0 0.10004841E+04</rscale>
<asrwt>0</asrwt>
<pdfrwt beam="1">  1        1 0.12355623E+00 0.10004841E+04</pdfrwt>
<pdfrwt beam="2">  1       -1 0.47936799E-01 0.10004841E+04</pdfrwt>
<totfact> 0.10877352E+02</totfact>
</mgrwt>
</event>
<event>
 9    1  0.4246427E-036  0.9999998E+03  0.7818608E-02  0.8681038E-01
         -1   -1    0    0    0  501 -0.00000000000E+00  0.00000000000E+00  0.10249882217E+04  0.10249882217E+04  0.00000000000E+00 0. -1.
          1   -1    0    0  501    0  0.00000000000E+00 -0.00000000000E+00 -0.24390514539E+03  0.24390514539E+03  0.00000000000E+00 0. -1.
         36    2    1    2    0    0  0.14210854715E-13  0.00000000000E+00  0.78108307628E+03  0.12688933671E+04  0.99999980246E+03 0.  0.
         25    2    3    3    0    0  0.13217778932E+02 -0.10030907863E+03  0.27005658163E+02  0.16375622519E+03  0.12589747726E+03 0.  0.
         35    2    3    3    0    0 -0.13217778932E+02  0.10030907863E+03  0.75407741812E+03  0.11051371419E+04  0.80153523247E+03 0.  0.
         22    1    5    5    0    0  0.67153577132E+02  0.19273949976E+03  0.89525746787E+03  0.91822875770E+03  0.00000000000E+00 0. -1.
         22    1    5    5    0    0 -0.80371356064E+02 -0.92430421134E+02 -0.14118004975E+03  0.18690838417E+03  0.00000000000E+00 0. -1.
          5    1    4    4  502    0  0.47971699348E+02  0.55475809259E+01  0.18466468340E+02  0.51914930853E+02  0.47000000000E+01 0.  1.
         -5    1    4    4    0  502 -0.34753920416E+02 -0.10585665955E+03  0.85391898225E+01  0.11184129434E+03  0.47000000000E+01 0.  1.
<mgrwt>
<rscale>  0 0.99999980E+03</rscale>
<asrwt>0</asrwt>
<pdfrwt beam="1">  1        1 0.37523869E-01 0.99999980E+03</pdfrwt>
<pdfrwt beam="2">  1       -1 0.15769049E+00 0.99999980E+03</pdfrwt>
<totfact> 0.40567300E+01</totfact>
</mgrwt>
</event>
<event>
 9    1  0.4246427E-036  0.1001284E+04  0.7818608E-02  0.8679816E-01
          2   -1    0    0  501    0  0.00000000000E+00  0.00000000000E+00  0.10522038297E+04  0.10522038297E+04  0.00000000000E+00 0. -1.
         -2   -1    0    0    0  501 -0.00000000000E+00 -0.00000000000E+00 -0.23820728043E+03  0.23820728043E+03  0.00000000000E+00 0. -1.
         36    2    1    2    0    0  0.56843418861E-13  0.00000000000E+00  0.81399654928E+03  0.12904111101E+04  0.10012844006E+04 0.  0.
         25    2    3    3    0    0 -0.14182744188E+03  0.23798722897E+02  0.15747185224E+03  0.24632901100E+03  0.12328501502E+03 0.  0.
         35    2    3    3    0    0  0.14182744188E+03 -0.23798722897E+02  0.65652469704E+03  0.10440820991E+04  0.79900021868E+03 0.  0.
         22    1    5    5    0    0  0.47597431085E+03 -0.26828967765E+02  0.36100420199E+03  0.59799278587E+03  0.00000000000E+00 0.  1.
         22    1    5    5    0    0 -0.33414686897E+03  0.30302448682E+01  0.29552049505E+03  0.44608931327E+03  0.00000000000E+00 0.  1.
          5    1    4    4  502    0 -0.16829892013E+02  0.54697298636E+02  0.70276400846E+02  0.90751871932E+02  0.47000000000E+01 0.  1.
         -5    1    4    4    0  502 -0.12499754987E+03 -0.30898575739E+02  0.87195451393E+02  0.15557713907E+03  0.47000000000E+01 0.  1.
<mgrwt>
<rscale>  0 0.10012844E+04</rscale>
<asrwt>0</asrwt>
<pdfrwt beam="1">  1        2 0.16187751E+00 0.10012844E+04</pdfrwt>
<pdfrwt beam="2">  1       -2 0.36647274E-01 0.10012844E+04</pdfrwt>
<totfact> 0.19764311E+02</totfact>
</mgrwt>
</event>
<event>
 9    1  0.4246427E-036  0.1000344E+04  0.7818608E-02  0.8680710E-01
          2   -1    0    0  501    0  0.00000000000E+00  0.00000000000E+00  0.11238776550E+04  0.11238776550E+04  0.00000000000E+00 0.  1.
         -2   -1    0    0    0  501 -0.00000000000E+00 -0.00000000000E+00 -0.22259722610E+03  0.22259722610E+03  0.00000000000E+00 0.  1.
         36    2    1    2    0    0 -0.35527136788E-14  0.28421709430E-13  0.90128042886E+03  0.13464748811E+04  0.10003440378E+04 0.  0.
         25    2    3    3    0    0  0.22601469695E+02 -0.12533272602E+03  0.24951326560E+03  0.30667392108E+03  0.12479144810E+03 0.  0.
         35    2    3    3    0    0 -0.22601469695E+02  0.12533272602E+03  0.65176716326E+03  0.10398009600E+04  0.80010404487E+03 0.  0.
         22    1    5    5    0    0 -0.14431807328E+03  0.39431417675E+03  0.61156489553E+03  0.74183758176E+03  0.00000000000E+00 0. -1.
         22    1    5    5    0    0  0.12171660358E+03 -0.26898145073E+03  0.40202267727E+02  0.29796337821E+03  0.00000000000E+00 0. -1.
          5    1    4    4  502    0 -0.19427242522E+02 -0.62574444638E+02  0.25915252966E+02  0.70616352285E+02  0.47000000000E+01 0. -1.
         -5    1    4    4    0  502  0.42028712217E+02 -0.62758281382E+02  0.22359801264E+03  0.23605756880E+03  0.47000000000E+01 0. -1.
<mgrwt>
<rscale>  0 0.10003440E+04</rscale>
<asrwt>0</asrwt>
<pdfrwt beam="1">  1        2 0.17290425E+00 0.10003440E+04</pdfrwt>
<pdfrwt beam="2">  1       -2 0.34245728E-01 0.10003440E+04</pdfrwt>
<totfact> 0.20290585E+02</totfact>
</mgrwt>
</event>
<event>
 9    1  0.4246427E-036  0.1002227E+04  0.7818608E-02  0.8678920E-01
          2   -1    0    0  501    0  0.00000000000E+00  0.00000000000E+00  0.16339063045E+04  0.16339063045E+04  0.00000000000E+00 0.  1.
         -2   -1    0    0    0  501 -0.00000000000E+00 -0.00000000000E+00 -0.15368984901E+03  0.15368984901E+03  0.00000000000E+00 0.  1.
         36    2    1    2    0    0  0.00000000000E+00  0.21316282073E-13  0.14802164555E+04  0.17875961535E+04  0.10022271464E+04 0.  0.
         25    2    3    3    0    0 -0.12886376206E+03  0.27122432941E+02  0.38353509797E+03  0.42434506887E+03  0.12501228162E+03 0.  0.
         35    2    3    3    0    0  0.12886376206E+03 -0.27122432941E+02  0.10966813575E+04  0.13632510847E+04  0.79900064101E+03 0.  0.
         22    1    5    5    0    0 -0.26992696584E+03  0.10733783756E+03  0.79227872860E+03  0.84385280828E+03  0.00000000000E+00 0. -1.
         22    1    5    5    0    0  0.39879072790E+03 -0.13446027050E+03  0.30440262894E+03  0.51939827638E+03  0.00000000000E+00 0. -1.
          5    1    4    4  502    0 -0.63619450354E+02 -0.37023905733E+02  0.87410174225E+02  0.11437146767E+03  0.47000000000E+01 0. -1.
         -5    1    4    4    0  502 -0.65244311709E+02  0.64146338674E+02  0.29612492375E+03  0.30997360120E+03  0.47000000000E+01 0. -1.
<mgrwt>
<rscale>  0 0.10022271E+04</rscale>
<asrwt>0</asrwt>
<pdfrwt beam="1">  1        2 0.25137019E+00 0.10022271E+04</pdfrwt>
<pdfrwt beam="2">  1       -2 0.23644593E-01 0.10022271E+04</pdfrwt>
<totfact> 0.20153032E+02</totfact>
</mgrwt>
</event>
<event>
 9    1  0.4246427E-036  0.1001098E+04  0.7818608E-02  0.8679993E-01
          2   -1    0    0  501    0  0.00000000000E+00  0.00000000000E+00  0.69550277274E+03  0.69550277274E+03  0.00000000000E+00 0.  1.
         -2   -1    0    0    0  501 -0.00000000000E+00 -0.00000000000E+00 -0.36024183379E+03  0.36024183379E+03  0.00000000000E+00 0.  1.
         36    2    1    2    0    0 -0.28421709430E-13  0.00000000000E+00  0.33526093895E+03  0.10557446065E+04  0.10010977860E+04 0.  0.
         25    2    3    3    0    0  0.80689002856E+02  0.66788868273E+02 -0.35497565443E+02  0.16732152453E+03  0.12555854138E+03 0.  0.
         35    2    3    3    0    0 -0.80689002856E+02 -0.66788868273E+02  0.37075850440E+03  0.88842308200E+03  0.80053871608E+03 0.  0.
         22    1    5    5    0    0  0.28748259380E+03 -0.83939340423E+02 -0.76269447843E+02  0.30904543887E+03  0.00000000000E+00 0.  1.
         22    1    5    5    0    0 -0.36817159666E+03  0.17150472150E+02  0.44702795224E+03  0.57937764314E+03  0.00000000000E+00 0.  1.
          5    1    4    4  502    0 -0.31712810118E+02  0.29227021650E+01  0.30494960733E+01  0.32336263542E+02  0.47000000000E+01 0. -1.
         -5    1    4    4    0  502  0.11240181297E+03  0.63866166108E+02 -0.38547061517E+02  0.13498526099E+03  0.47000000000E+01 0. -1.
<mgrwt>
<rscale>  0 0.10010978E+04</rscale>
<asrwt>0</asrwt>
<pdfrwt beam="1">  1        2 0.10700043E+00 0.10010978E+04</pdfrwt>
<pdfrwt beam="2">  1       -2 0.55421821E-01 0.10010978E+04</pdfrwt>
<totfact> 0.15297870E+02</totfact>
</mgrwt>
</event>
<event>
 9    1  0.4246427E-036  0.9999843E+03  0.7818608E-02  0.8681053E-01
         -2   -1    0    0    0  501 -0.00000000000E+00  0.00000000000E+00  0.59738183035E+02  0.59738183035E+02  0.00000000000E+00 0. -1.
          2   -1    0    0  501    0  0.00000000000E+00 -0.00000000000E+00 -0.41847966685E+04  0.41847966685E+04  0.00000000000E+00 0. -1.
         36    2    1    2    0    0  0.00000000000E+00  0.71054273576E-14 -0.41250584854E+04  0.42445348515E+04  0.99998429857E+03 0.  0.
         25    2    3    3    0    0  0.11085029783E+03  0.35189724172E+02 -0.10878549077E+04  0.11015234345E+04  0.12806042044E+03 0.  0.
         35    2    3    3    0    0 -0.11085029783E+03 -0.35189724172E+02 -0.30372035777E+04  0.31430114170E+04  0.80024314413E+03 0.  0.
         22    1    5    5    0    0  0.30675391782E+02 -0.16002246426E+03 -0.83132079701E+02  0.18291831894E+03  0.00000000000E+00 0. -1.
         22    1    5    5    0    0 -0.14152568961E+03  0.12483274009E+03 -0.29540714980E+04  0.29600930980E+04  0.00000000000E+00 0. -1.
          5    1    4    4  502    0  0.11701658255E+03  0.67206256253E+02 -0.74920562881E+03  0.76127572253E+03  0.47000000000E+01 0.  1.
         -5    1    4    4    0  502 -0.61662847231E+01 -0.32016532081E+02 -0.33864927893E+03  0.34024771199E+03  0.47000000000E+01 0.  1.
<mgrwt>
<rscale>  0 0.99998430E+03</rscale>
<asrwt>0</asrwt>
<pdfrwt beam="1">  1        2 0.64381482E+00 0.99998430E+03</pdfrwt>
<pdfrwt beam="2">  1       -2 0.91904904E-02 0.99998430E+03</pdfrwt>
<totfact> 0.17792042E+01</totfact>
</mgrwt>
</event>
<event>
 9    1  0.4246427E-036  0.1000344E+04  0.7818608E-02  0.8680710E-01
         -2   -1    0    0    0  501 -0.00000000000E+00  0.00000000000E+00  0.26282020175E+03  0.26282020175E+03  0.00000000000E+00 0. -1.
          2   -1    0    0  501    0  0.00000000000E+00 -0.00000000000E+00 -0.95187579185E+03  0.95187579185E+03  0.00000000000E+00 0. -1.
         36    2    1    2    0    0 -0.21316282073E-13  0.14210854715E-13 -0.68905559010E+03  0.12146959936E+04  0.10003443160E+04 0.  0.
         25    2    3    3    0    0 -0.54209991477E+02 -0.11619337563E+03 -0.19849739933E+03  0.26673129950E+03  0.12371234732E+03 0.  0.
         35    2    3    3    0    0  0.54209991477E+02  0.11619337563E+03 -0.49055819077E+03  0.94796469410E+03  0.80096822597E+03 0.  0.
         22    1    5    5    0    0 -0.16115772568E+03  0.10007802875E+03  0.16892795138E+03  0.25401589939E+03  0.00000000000E+00 0.  1.
         22    1    5    5    0    0  0.21536771716E+03  0.16115346884E+02 -0.65948614215E+03  0.69394879472E+03  0.00000000000E+00 0.  1.
          5    1    4    4  502    0 -0.30344039433E+02 -0.75192833889E+01  0.75615342749E+01  0.32504878901E+02  0.47000000000E+01 0.  1.
         -5    1    4    4    0  502 -0.23865952044E+02 -0.10867409224E+03 -0.20605893360E+03  0.23422642060E+03  0.47000000000E+01 0.  1.
<mgrwt>
<rscale>  0 0.10003443E+04</rscale>
<asrwt>0</asrwt>
<pdfrwt beam="1">  1        2 0.14644243E+00 0.10003443E+04</pdfrwt>
<pdfrwt beam="2">  1       -2 0.40433876E-01 0.10003443E+04</pdfrwt>
<totfact> 0.18957029E+02</totfact>
</mgrwt>
</event>
<event>
 9    1  0.4246427E-036  0.9936699E+03  0.7818608E-02  0.8687090E-01
          1   -1    0    0  501    0  0.00000000000E+00  0.00000000000E+00  0.28863548055E+04  0.28863548055E+04  0.00000000000E+00 0. -1.
         -1   -1    0    0    0  501 -0.00000000000E+00 -0.00000000000E+00 -0.85521347667E+02  0.85521347667E+02  0.00000000000E+00 0. -1.
         36    2    1    2    0    0 -0.14210854715E-13  0.28421709430E-13  0.28008334579E+04  0.29718761532E+04  0.99366987035E+03 0.  0.
         25    2    3    3    0    0  0.60681414364E+02  0.60776080842E+02  0.78193675449E+03  0.79656027680E+03  0.12532845048E+03 0.  0.
         35    2    3    3    0    0 -0.60681414364E+02 -0.60776080842E+02  0.20188967034E+04  0.21753158764E+04  0.80540629322E+03 0.  0.
         22    1    5    5    0    0  0.20623186393E+03 -0.34454561828E+03  0.79078463204E+03  0.88689548372E+03  0.00000000000E+00 0.  1.
         22    1    5    5    0    0 -0.26691327829E+03  0.28376953744E+03  0.12281120713E+04  0.12884203927E+04  0.00000000000E+00 0.  1.
          5    1    4    4  502    0  0.10202369924E+02 -0.31947008245E+02  0.82416323639E+02  0.89102413491E+02  0.47000000000E+01 0.  1.
         -5    1    4    4    0  502  0.50479044440E+02  0.92723089087E+02  0.69952043085E+03  0.70745786331E+03  0.47000000000E+01 0.  1.
<mgrwt>
<rscale>  0 0.99366987E+03</rscale>
<asrwt>0</asrwt>
<pdfrwt beam="1">  1        1 0.44405451E+00 0.99366987E+03</pdfrwt>
<pdfrwt beam="2">  1       -1 0.13157133E-01 0.99366987E+03</pdfrwt>
<totfact> 0.29884117E+01</totfact>
</mgrwt>
</event>
<event>
 9    1  0.4246427E-036  0.9985111E+03  0.7818608E-02  0.8682457E-01
         -2   -1    0    0    0  501 -0.00000000000E+00  0.00000000000E+00  0.13886250347E+03  0.13886250347E+03  0.00000000000E+00 0.  1.
          2   -1    0    0  501    0  0.00000000000E+00 -0.00000000000E+00 -0.17949850207E+04  0.17949850207E+04  0.00000000000E+00 0.  1.
         36    2    1    2    0    0  0.00000000000E+00 -0.71054273576E-14 -0.16561225172E+04  0.19338475242E+04  0.99851111895E+03 0.  0.
         25    2    3    3    0    0 -0.79077035878E+02  0.10431945832E+02 -0.54557795850E+03  0.56536205965E+03  0.12496778222E+03 0.  0.
         35    2    3    3    0    0  0.79077035878E+02 -0.10431945832E+02 -0.11105445587E+04  0.13684854645E+04  0.79566402871E+03 0.  0.
         22    1    5    5    0    0 -0.27743037234E+03 -0.28853924901E+02 -0.92504694145E+03  0.96618424970E+03  0.00000000000E+00 0. -1.
         22    1    5    5    0    0  0.35650740822E+03  0.18421979069E+02 -0.18549761728E+03  0.40230121482E+03  0.00000000000E+00 0. -1.
          5    1    4    4  502    0  0.59774158244E+01  0.42849425247E+02 -0.81225875861E+02  0.92149528774E+02  0.47000000000E+01 0. -1.
         -5    1    4    4    0  502 -0.85054451702E+02 -0.32417479415E+02 -0.46435208264E+03  0.47321253088E+03  0.47000000000E+01 0. -1.
<mgrwt>
<rscale>  0 0.99851112E+03</rscale>
<asrwt>0</asrwt>
<pdfrwt beam="1">  1        2 0.27615153E+00 0.99851112E+03</pdfrwt>
<pdfrwt beam="2">  1       -2 0.21363463E-01 0.99851112E+03</pdfrwt>
<totfact> 0.19532880E+02</totfact>
</mgrwt>
</event>
<event>
 9    1  0.4246427E-036  0.1000661E+04  0.7818608E-02  0.8680409E-01
          2   -1    0    0  501    0  0.00000000000E+00  0.00000000000E+00  0.61778154096E+03  0.61778154096E+03  0.00000000000E+00 0. -1.
         -2   -1    0    0    0  501 -0.00000000000E+00 -0.00000000000E+00 -0.40520900372E+03  0.40520900372E+03  0.00000000000E+00 0. -1.
         36    2    1    2    0    0  0.00000000000E+00 -0.14210854715E-13  0.21257253724E+03  0.10229905447E+04  0.10006610670E+04 0.  0.
         25    2    3    3    0    0 -0.10722653429E+02  0.78226863593E+02  0.15938803038E+03  0.21737045671E+03  0.12494380231E+03 0.  0.
         35    2    3    3    0    0  0.10722653429E+02 -0.78226863593E+02  0.53184506864E+02  0.80562008798E+03  0.79997544769E+03 0.  0.
         22    1    5    5    0    0  0.19939788350E+02 -0.38328073699E+03 -0.17769091163E+03  0.42293708585E+03  0.00000000000E+00 0.  1.
         22    1    5    5    0    0 -0.92171349216E+01  0.30505387340E+03  0.23087541850E+03  0.38268300213E+03  0.00000000000E+00 0.  1.
          5    1    4    4  502    0 -0.17491980395E+02  0.96636379596E+02  0.58331351925E+02  0.11432058370E+03  0.47000000000E+01 0. -1.
         -5    1    4    4    0  502  0.67693269660E+01 -0.18409516003E+02  0.10105667845E+03  0.10304987301E+03  0.47000000000E+01 0. -1.
<mgrwt>
<rscale>  0 0.10006611E+04</rscale>
<asrwt>0</asrwt>
<pdfrwt beam="1">  1        2 0.95043314E-01 0.10006611E+04</pdfrwt>
<pdfrwt beam="2">  1       -2 0.62339847E-01 0.10006611E+04</pdfrwt>
<totfact> 0.13828215E+02</totfact>
</mgrwt>
</event>
<event>
 9    1  0.4246427E-036  0.9995924E+03  0.7818608E-02  0.8681426E-01
         -2   -1    0    0    0  501 -0.00000000000E+00  0.00000000000E+00  0.14803631940E+03  0.14803631940E+03  0.00000000000E+00 0.  1.
          2   -1    0    0  501    0  0.00000000000E+00 -0.00000000000E+00 -0.16873982070E+04  0.16873982070E+04  0.00000000000E+00 0.  1.
         36    2    1    2    0    0  0.71054273576E-14  0.00000000000E+00 -0.15393618876E+04  0.18354345264E+04  0.99959235677E+03 0.  0.
         25    2    3    3    0    0  0.24022295046E+02  0.12841848185E+03 -0.36468100281E+03  0.40691518270E+03  0.12457670313E+03 0.  0.
         35    2    3    3    0    0 -0.24022295046E+02 -0.12841848185E+03 -0.11746808848E+04  0.14285193437E+04  0.80232409729E+03 0.  0.
         22    1    5    5    0    0  0.40771007061E+02 -0.33449753129E+03 -0.12910224821E+03  0.36085767825E+03  0.00000000000E+00 0.  1.
         22    1    5    5    0    0 -0.64793302107E+02  0.20607904944E+03 -0.10455786366E+04  0.10676616654E+04  0.00000000000E+00 0.  1.
          5    1    4    4  502    0  0.14371006407E+02 -0.18547045215E+02 -0.11092383884E+03  0.11347557770E+03  0.47000000000E+01 0.  1.
         -5    1    4    4    0  502  0.96512886382E+01  0.14696552707E+03 -0.25375716397E+03  0.29343960500E+03  0.47000000000E+01 0.  1.
<mgrwt>
<rscale>  0 0.99959236E+03</rscale>
<asrwt>0</asrwt>
<pdfrwt beam="1">  1        2 0.25959972E+00 0.99959236E+03</pdfrwt>
<pdfrwt beam="2">  1       -2 0.22774819E-01 0.99959236E+03</pdfrwt>
<totfact> 0.20082308E+02</totfact>
</mgrwt>
</event>
<event>
 9    1  0.4246427E-036  0.9989508E+03  0.7818608E-02  0.8682038E-01
         -2   -1    0    0    0  501 -0.00000000000E+00  0.00000000000E+00  0.30928650343E+03  0.30928650343E+03  0.00000000000E+00 0.  1.
          2   -1    0    0  501    0  0.00000000000E+00 -0.00000000000E+00 -0.80661671664E+03  0.80661671664E+03  0.00000000000E+00 0.  1.
         36    2    1    2    0    0 -0.14210854715E-13  0.00000000000E+00 -0.49733021321E+03  0.11159032201E+04  0.99895077735E+03 0.  0.
         25    2    3    3    0    0 -0.26467657377E+02 -0.23425844518E+02  0.67906175574E+02  0.14542994891E+03  0.12364996676E+03 0.  0.
         35    2    3    3    0    0  0.26467657377E+02  0.23425844518E+02 -0.56523638879E+03  0.97047327116E+03  0.78808431512E+03 0.  0.
         22    1    5    5    0    0 -0.11536954513E+03 -0.35616309726E+03 -0.34581659062E+03  0.50965811888E+03  0.00000000000E+00 0. -1.
         22    1    5    5    0    0  0.14183720250E+03  0.37958894178E+03 -0.21941979817E+03  0.46081515227E+03  0.00000000000E+00 0. -1.
          5    1    4    4  502    0 -0.41489538314E+02 -0.74268395037E+01 -0.25418682184E+02  0.49444303398E+02  0.47000000000E+01 0. -1.
         -5    1    4    4    0  502  0.15021880937E+02 -0.15999005014E+02  0.93324857759E+02  0.95985645510E+02  0.47000000000E+01 0. -1.
<mgrwt>
<rscale>  0 0.99895078E+03</rscale>
<asrwt>0</asrwt>
<pdfrwt beam="1">  1        2 0.12409488E+00 0.99895078E+03</pdfrwt>
<pdfrwt beam="2">  1       -2 0.47582539E-01 0.99895078E+03</pdfrwt>
<totfact> 0.17257172E+02</totfact>
</mgrwt>
</event>
<event>
 9    1  0.4246427E-036  0.1000861E+04  0.7818608E-02  0.8680218E-01
         -2   -1    0    0    0  501 -0.00000000000E+00  0.00000000000E+00  0.79952101965E+02  0.79952101965E+02  0.00000000000E+00 0.  1.
          2   -1    0    0  501    0  0.00000000000E+00 -0.00000000000E+00 -0.31322587091E+04  0.31322587091E+04  0.00000000000E+00 0.  1.
         36    2    1    2    0    0 -0.71054273576E-14  0.14210854715E-13 -0.30523066071E+04  0.32122108111E+04  0.10008609648E+04 0.  0.
         25    2    3    3    0    0 -0.11626639910E+02  0.76849721408E+02 -0.95970762515E+03  0.97092118312E+03  0.12493262030E+03 0.  0.
         35    2    3    3    0    0  0.11626639910E+02 -0.76849721408E+02 -0.20925989820E+04  0.22412896280E+04  0.79897912270E+03 0.  0.
         22    1    5    5    0    0  0.11387174308E+03 -0.99417590674E+02 -0.21260136915E+04  0.21313809720E+04  0.00000000000E+00 0.  1.
         22    1    5    5    0    0 -0.10224510317E+03  0.22567869266E+02  0.33414709527E+02  0.10990865597E+03  0.00000000000E+00 0.  1.
          5    1    4    4  502    0 -0.51133135857E+02  0.75392490924E+02 -0.42222081064E+03  0.43196195227E+03  0.47000000000E+01 0.  1.
         -5    1    4    4    0  502  0.39506495947E+02  0.14572304845E+01 -0.53748681451E+03  0.53895923084E+03  0.47000000000E+01 0.  1.
<mgrwt>
<rscale>  0 0.10008610E+04</rscale>
<asrwt>0</asrwt>
<pdfrwt beam="1">  1        2 0.48188591E+00 0.10008610E+04</pdfrwt>
<pdfrwt beam="2">  1       -2 0.12300325E-01 0.10008610E+04</pdfrwt>
<totfact> 0.75710304E+01</totfact>
</mgrwt>
</event>
<event>
 9    1  0.4246427E-036  0.9978767E+03  0.7818608E-02  0.8683063E-01
          2   -1    0    0  501    0  0.00000000000E+00  0.00000000000E+00  0.27016126420E+04  0.27016126420E+04  0.00000000000E+00 0.  1.
         -2   -1    0    0    0  501 -0.00000000000E+00 -0.00000000000E+00 -0.92144766364E+02  0.92144766364E+02  0.00000000000E+00 0.  1.
         36    2    1    2    0    0 -0.35527136788E-13  0.28421709430E-13  0.26094678756E+04  0.27937574084E+04  0.99787667716E+03 0.  0.
         25    2    3    3    0    0 -0.20194273296E+02  0.12182260341E+03  0.31595034159E+03  0.36147743542E+03  0.12487098378E+03 0.  0.
         35    2    3    3    0    0  0.20194273296E+02 -0.12182260341E+03  0.22935175340E+04  0.24322799729E+04  0.80032158065E+03 0.  0.
         22    1    5    5    0    0 -0.28097467562E+03 -0.26094607799E+03  0.64222586703E+03  0.74799310708E+03  0.00000000000E+00 0. -1.
         22    1    5    5    0    0  0.30116894892E+03  0.13912347458E+03  0.16512916670E+04  0.16842868659E+04  0.00000000000E+00 0. -1.
          5    1    4    4  502    0 -0.26648911762E+02  0.11478995293E+03  0.32610104507E+03  0.34677208565E+03  0.47000000000E+01 0. -1.
         -5    1    4    4    0  502  0.64546384665E+01  0.70326504780E+01 -0.10150703482E+02  0.14705349763E+02  0.47000000000E+01 0. -1.
<mgrwt>
<rscale>  0 0.99787668E+03</rscale>
<asrwt>0</asrwt>
<pdfrwt beam="1">  1        2 0.41563265E+00 0.99787668E+03</pdfrwt>
<pdfrwt beam="2">  1       -2 0.14176120E-01 0.99787668E+03</pdfrwt>
<totfact> 0.11482315E+02</totfact>
</mgrwt>
</event>
<event>
 9    1  0.4246427E-036  0.1000000E+04  0.7818608E-02  0.8681038E-01
          2   -1    0    0  501    0  0.00000000000E+00  0.00000000000E+00  0.97358987933E+03  0.97358987933E+03  0.00000000000E+00 0.  1.
         -2   -1    0    0    0  501 -0.00000000000E+00 -0.00000000000E+00 -0.25678165296E+03  0.25678165296E+03  0.00000000000E+00 0.  1.
         36    2    1    2    0    0  0.14210854715E-13  0.00000000000E+00  0.71680822637E+03  0.12303715323E+04  0.10000000370E+04 0.  0.
         25    2    3    3    0    0 -0.14917295612E+02 -0.69700085563E+02  0.28248771283E+03  0.31718067542E+03  0.12539396047E+03 0.  0.
         35    2    3    3    0    0  0.14917295612E+02  0.69700085563E+02  0.43432051354E+03  0.91319085688E+03  0.80012661809E+03 0.  0.
         22    1    5    5    0    0 -0.12998149877E+03 -0.84797304325E+02 -0.19497712779E+03  0.24920243418E+03  0.00000000000E+00 0.  1.
         22    1    5    5    0    0  0.14489879438E+03  0.15449738989E+03  0.62929764133E+03  0.66398842270E+03  0.00000000000E+00 0.  1.
          5    1    4    4  502    0  0.50866810116E+02 -0.57462363339E+02  0.16056725697E+03  0.17802609242E+03  0.47000000000E+01 0.  1.
         -5    1    4    4    0  502 -0.65784105728E+02 -0.12237722224E+02  0.12192045586E+03  0.13915458300E+03  0.47000000000E+01 0.  1.
<mgrwt>
<rscale>  0 0.10000000E+04</rscale>
<asrwt>0</asrwt>
<pdfrwt beam="1">  1        2 0.14978306E+00 0.10000000E+04</pdfrwt>
<pdfrwt beam="2">  1       -2 0.39504870E-01 0.10000000E+04</pdfrwt>
<totfact> 0.19196782E+02</totfact>
</mgrwt>
</event>
<event>
 9    1  0.4246427E-036  0.9998021E+03  0.7818608E-02  0.8681226E-01
          2   -1    0    0  501    0  0.00000000000E+00  0.00000000000E+00  0.10108780391E+04  0.10108780391E+04  0.00000000000E+00 0.  1.
         -2   -1    0    0    0  501 -0.00000000000E+00 -0.00000000000E+00 -0.24721190368E+03  0.24721190368E+03  0.00000000000E+00 0.  1.
         36    2    1    2    0    0 -0.14210854715E-13  0.00000000000E+00  0.76366613538E+03  0.12580899427E+04  0.99980214928E+03 0.  0.
         25    2    3    3    0    0 -0.74874708731E+02  0.65959760036E+02  0.20240758575E+02  0.16107447608E+03  0.12481340707E+03 0.  0.
         35    2    3    3    0    0  0.74874708731E+02 -0.65959760036E+02  0.74342537681E+03  0.10970154667E+04  0.80050279904E+03 0.  0.
         22    1    5    5    0    0 -0.30788186404E+03 -0.56347469558E+02  0.67514124153E+02  0.32019437298E+03  0.00000000000E+00 0.  1.
         22    1    5    5    0    0  0.38275657277E+03 -0.96122904776E+01  0.67591125266E+03  0.77682109368E+03  0.00000000000E+00 0.  1.
          5    1    4    4  502    0 -0.49090012502E+02  0.96040076864E+02  0.41745424006E+02  0.11575100914E+03  0.47000000000E+01 0.  1.
         -5    1    4    4    0  502 -0.25784696229E+02 -0.30080316828E+02 -0.21504665431E+02  0.45323466939E+02  0.47000000000E+01 0.  1.
<mgrwt>
<rscale>  0 0.99980215E+03</rscale>
<asrwt>0</asrwt>
<pdfrwt beam="1">  1        2 0.15551970E+00 0.99980215E+03</pdfrwt>
<pdfrwt beam="2">  1       -2 0.38032601E-01 0.99980215E+03</pdfrwt>
<totfact> 0.19548373E+02</totfact>
</mgrwt>
</event>
<event>
 9    1  0.4246427E-036  0.9999963E+03  0.7818608E-02  0.8681041E-01
         -3   -1    0    0    0  501 -0.00000000000E+00  0.00000000000E+00  0.24626827642E+03  0.24626827642E+03  0.00000000000E+00 0.  1.
          3   -1    0    0  501    0  0.00000000000E+00 -0.00000000000E+00 -0.10151455494E+04  0.10151455494E+04  0.00000000000E+00 0.  1.
         36    2    1    2    0    0  0.00000000000E+00 -0.14210854715E-13 -0.76887727297E+03  0.12614138258E+04  0.99999628951E+03 0.  0.
         25    2    3    3    0    0 -0.99805877099E+02  0.90170905316E+02 -0.91703410014E+02  0.20498086244E+03  0.12456176496E+03 0.  0.
         35    2    3    3    0    0  0.99805877099E+02 -0.90170905316E+02 -0.67717386295E+03  0.10564329634E+04  0.79962126044E+03 0.  0.
         22    1    5    5    0    0  0.40373331411E+03  0.60065492236E+02 -0.16080213378E+03  0.43870921863E+03  0.00000000000E+00 0. -1.
         22    1    5    5    0    0 -0.30392743701E+03 -0.15023639755E+03 -0.51637172917E+03  0.61772374474E+03  0.00000000000E+00 0. -1.
          5    1    4    4  502    0  0.50069502888E+01  0.71311134888E+01  0.25342773378E+02  0.27207875575E+02  0.47000000000E+01 0. -1.
         -5    1    4    4    0  502 -0.10481282739E+03  0.83039791827E+02 -0.11704618339E+03  0.17777298686E+03  0.47000000000E+01 0. -1.
<mgrwt>
<rscale>  0 0.99999629E+03</rscale>
<asrwt>0</asrwt>
<pdfrwt beam="1">  1        3 0.15617624E+00 0.99999629E+03</pdfrwt>
<pdfrwt beam="2">  1       -3 0.37887427E-01 0.99999629E+03</pdfrwt>
<totfact> 0.83481097E+00</totfact>
</mgrwt>
</event>
<event>
 9    1  0.4246427E-036  0.1002212E+04  0.7818608E-02  0.8678934E-01
          2   -1    0    0  501    0  0.00000000000E+00  0.00000000000E+00  0.13800825722E+04  0.13800825722E+04  0.00000000000E+00 0. -1.
         -2   -1    0    0    0  501 -0.00000000000E+00 -0.00000000000E+00 -0.18195102892E+03  0.18195102892E+03  0.00000000000E+00 0. -1.
         36    2    1    2    0    0  0.00000000000E+00  0.14210854715E-13  0.11981315433E+04  0.15620336011E+04  0.10022124406E+04 0.  0.
         25    2    3    3    0    0  0.10874653188E+03  0.18019797255E+02  0.36899440938E+03  0.40489736624E+03  0.12503792122E+03 0.  0.
         35    2    3    3    0    0 -0.10874653188E+03 -0.18019797255E+02  0.82913713388E+03  0.11571362349E+04  0.79959074406E+03 0.  0.
         22    1    5    5    0    0  0.13533621305E+03  0.24206212109E+03  0.73888750983E+03  0.78921778567E+03  0.00000000000E+00 0.  1.
         22    1    5    5    0    0 -0.24408274493E+03 -0.26008191835E+03  0.90249624049E+02  0.36791844920E+03  0.00000000000E+00 0.  1.
          5    1    4    4  502    0  0.24206150742E+02 -0.38075343614E+02  0.21967081065E+03  0.22430564990E+03  0.47000000000E+01 0.  1.
         -5    1    4    4    0  502  0.84540381142E+02  0.56095140869E+02  0.14932359873E+03  0.18059171634E+03  0.47000000000E+01 0.  1.
<mgrwt>
<rscale>  0 0.10022124E+04</rscale>
<asrwt>0</asrwt>
<pdfrwt beam="1">  1        2 0.21232039E+00 0.10022124E+04</pdfrwt>
<pdfrwt beam="2">  1       -2 0.27992467E-01 0.10022124E+04</pdfrwt>
<totfact> 0.20776625E+02</totfact>
</mgrwt>
</event>
<event>
 9    1  0.4246427E-036  0.1000182E+04  0.7818608E-02  0.8680865E-01
          1   -1    0    0  501    0  0.00000000000E+00  0.00000000000E+00  0.36431352905E+03  0.36431352905E+03  0.00000000000E+00 0.  1.
         -1   -1    0    0    0  501 -0.00000000000E+00 -0.00000000000E+00 -0.68647187729E+03  0.68647187729E+03  0.00000000000E+00 0.  1.
         36    2    1    2    0    0  0.00000000000E+00  0.00000000000E+00 -0.32215834824E+03  0.10507854063E+04  0.10001819679E+04 0.  0.
         25    2    3    3    0    0  0.12240364325E+03 -0.56947591495E+02 -0.23982820947E+02  0.18547191595E+03  0.12489586001E+03 0.  0.
         35    2    3    3    0    0 -0.12240364325E+03  0.56947591495E+02 -0.29817552729E+03  0.86531349040E+03  0.80102004440E+03 0.  0.
         22    1    5    5    0    0 -0.60563575469E+02  0.18587131942E+03  0.23938260661E+03  0.30906330485E+03  0.00000000000E+00 0. -1.
         22    1    5    5    0    0 -0.61840067782E+02 -0.12892372792E+03 -0.53755813390E+03  0.55625018555E+03  0.00000000000E+00 0. -1.
          5    1    4    4  502    0  0.57609364166E+02  0.22854000514E+02  0.30281711857E+02  0.69139107979E+02  0.47000000000E+01 0.  1.
         -5    1    4    4    0  502  0.64794279086E+02 -0.79801592009E+02 -0.54264532804E+02  0.11633280797E+03  0.47000000000E+01 0.  1.
<mgrwt>
<rscale>  0 0.10001820E+04</rscale>
<asrwt>0</asrwt>
<pdfrwt beam="1">  1        1 0.56048236E-01 0.10001820E+04</pdfrwt>
<pdfrwt beam="2">  1       -1 0.10561106E+00 0.10001820E+04</pdfrwt>
<totfact> 0.68526250E+01</totfact>
</mgrwt>
</event>
<event>
 9    1  0.4246427E-036  0.1002013E+04  0.7818608E-02  0.8679123E-01
         -2   -1    0    0    0  501 -0.00000000000E+00  0.00000000000E+00  0.64899918233E+03  0.64899918233E+03  0.00000000000E+00 0.  1.
          2   -1    0    0  501    0  0.00000000000E+00 -0.00000000000E+00 -0.38676085481E+03  0.38676085481E+03  0.00000000000E+00 0.  1.
         36    2    1    2    0    0  0.00000000000E+00 -0.21316282073E-13  0.26223832752E+03  0.10357600371E+04  0.10020129311E+04 0.  0.
         25    2    3    3    0    0  0.14434242196E+03  0.53377823017E+01  0.74439577955E+02  0.20495454658E+03  0.12490752060E+03 0.  0.
         35    2    3    3    0    0 -0.14434242196E+03 -0.53377823017E+01  0.18779874956E+03  0.83080549055E+03  0.79630783376E+03 0.  0.
         22    1    5    5    0    0  0.43521932604E+02 -0.37013045461E+03  0.19459124092E+03  0.42042414665E+03  0.00000000000E+00 0. -1.
         22    1    5    5    0    0 -0.18786435456E+03  0.36479267231E+03 -0.67924913543E+01  0.41038134390E+03  0.00000000000E+00 0. -1.
          5    1    4    4  502    0  0.53715407852E+02  0.46056825333E+02  0.78011226875E+02  0.10542493879E+03  0.47000000000E+01 0.  1.
         -5    1    4    4    0  502  0.90627014108E+02 -0.40719043032E+02 -0.35716489200E+01  0.99529607794E+02  0.47000000000E+01 0.  1.
<mgrwt>
<rscale>  0 0.10020129E+04</rscale>
<asrwt>0</asrwt>
<pdfrwt beam="1">  1        2 0.59501670E-01 0.10020129E+04</pdfrwt>
<pdfrwt beam="2">  1       -2 0.99846028E-01 0.10020129E+04</pdfrwt>
<totfact> 0.81344041E+01</totfact>
</mgrwt>
</event>
<event>
 9    1  0.4246427E-036  0.1000555E+04  0.7818608E-02  0.8680509E-01
         -2   -1    0    0    0  501 -0.00000000000E+00  0.00000000000E+00  0.20621930587E+03  0.20621930587E+03  0.00000000000E+00 0. -1.
          2   -1    0    0  501    0  0.00000000000E+00 -0.00000000000E+00 -0.12136479884E+04  0.12136479884E+04  0.00000000000E+00 0. -1.
         36    2    1    2    0    0 -0.14210854715E-13 -0.39079850467E-13 -0.10074286825E+04  0.14198672942E+04  0.10005551374E+04 0.  0.
         25    2    3    3    0    0 -0.11784230876E+03 -0.29709459618E+02 -0.29001386154E+03  0.33862294697E+03  0.12565030283E+03 0.  0.
         35    2    3    3    0    0  0.11784230876E+03  0.29709459618E+02 -0.71741482095E+03  0.10812443473E+04  0.79977237476E+03 0.  0.
         22    1    5    5    0    0  0.93819674465E+02  0.29317691225E+03 -0.75376649064E+03  0.81419822869E+03  0.00000000000E+00 0. -1.
         22    1    5    5    0    0  0.24022634299E+02 -0.26346745263E+03  0.36351669688E+02  0.26704611857E+03  0.00000000000E+00 0. -1.
          5    1    4    4  502    0 -0.19819821576E+02  0.40015748002E+01  0.86187000682E+01  0.22476875207E+02  0.47000000000E+01 0. -1.
         -5    1    4    4    0  502 -0.98022487187E+02 -0.33711034418E+02 -0.29863256161E+03  0.31614607176E+03  0.47000000000E+01 0. -1.
<mgrwt>
<rscale>  0 0.10005551E+04</rscale>
<asrwt>0</asrwt>
<pdfrwt beam="1">  1        2 0.18671507E+00 0.10005551E+04</pdfrwt>
<pdfrwt beam="2">  1       -2 0.31726047E-01 0.10005551E+04</pdfrwt>
<totfact> 0.20662016E+02</totfact>
</mgrwt>
</event>
<event>
 9    1  0.4246427E-036  0.1001069E+04  0.7818608E-02  0.8680021E-01
          3   -1    0    0  501    0  0.00000000000E+00  0.00000000000E+00  0.58314735603E+03  0.58314735603E+03  0.00000000000E+00 0.  1.
         -3   -1    0    0    0  501 -0.00000000000E+00 -0.00000000000E+00 -0.42962523559E+03  0.42962523559E+03  0.00000000000E+00 0.  1.
         36    2    1    2    0    0  0.00000000000E+00 -0.71054273576E-14  0.15352212043E+03  0.10127725916E+04  0.10010690690E+04 0.  0.
         25    2    3    3    0    0 -0.11473211709E+03 -0.39089551528E+01  0.11290338964E+03  0.20355717342E+03  0.12453758001E+03 0.  0.
         35    2    3    3    0    0  0.11473211709E+03  0.39089551528E+01  0.40618730790E+02  0.80921541820E+03  0.80000060821E+03 0.  0.
         22    1    5    5    0    0 -0.23736513639E+03  0.27145375694E+03  0.64667755658E+02  0.36634856183E+03  0.00000000000E+00 0.  1.
         22    1    5    5    0    0  0.35209725348E+03 -0.26754480179E+03 -0.24049024868E+02  0.44286685637E+03  0.00000000000E+00 0.  1.
          5    1    4    4  502    0 -0.33361867166E+02  0.48515482079E+02  0.83510028306E+02  0.10228773636E+03  0.47000000000E+01 0.  1.
         -5    1    4    4    0  502 -0.81370249922E+02 -0.52424437232E+02  0.29393361336E+02  0.10126943706E+03  0.47000000000E+01 0.  1.
<mgrwt>
<rscale>  0 0.10010691E+04</rscale>
<asrwt>0</asrwt>
<pdfrwt beam="1">  1        3 0.89714978E-01 0.10010691E+04</pdfrwt>
<pdfrwt beam="2">  1       -3 0.66096190E-01 0.10010691E+04</pdfrwt>
<totfact> 0.10112841E+01</totfact>
</mgrwt>
</event>
<event>
 9    1  0.4246427E-036  0.1000317E+04  0.7818608E-02  0.8680736E-01
          2   -1    0    0  501    0  0.00000000000E+00  0.00000000000E+00  0.87097789827E+03  0.87097789827E+03  0.00000000000E+00 0.  1.
         -2   -1    0    0    0  501 -0.00000000000E+00 -0.00000000000E+00 -0.28721581084E+03  0.28721581084E+03  0.00000000000E+00 0.  1.
         36    2    1    2    0    0  0.00000000000E+00 -0.28421709430E-13  0.58376208743E+03  0.11581937091E+04  0.10003171962E+04 0.  0.
         25    2    3    3    0    0 -0.64116273505E+02  0.12523595311E+03  0.12411941302E+03  0.22512920590E+03  0.12442905682E+03 0.  0.
         35    2    3    3    0    0  0.64116273505E+02 -0.12523595311E+03  0.45964267441E+03  0.93306450321E+03  0.79971434808E+03 0.  0.
         22    1    5    5    0    0  0.15116456471E+03  0.16931925154E+03  0.56456908471E+03  0.60848827924E+03  0.00000000000E+00 0. -1.
         22    1    5    5    0    0 -0.87048291201E+02 -0.29455520465E+03 -0.10492641030E+03  0.32457622397E+03  0.00000000000E+00 0. -1.
          5    1    4    4  502    0  0.14718126139E+02  0.10505387319E+03  0.74305901817E+02  0.12960091263E+03  0.47000000000E+01 0. -1.
         -5    1    4    4    0  502 -0.78834399644E+02  0.20182079920E+02  0.49813511203E+02  0.95528293272E+02  0.47000000000E+01 0. -1.
<mgrwt>
<rscale>  0 0.10003172E+04</rscale>
<asrwt>0</asrwt>
<pdfrwt beam="1">  1        2 0.13399660E+00 0.10003172E+04</pdfrwt>
<pdfrwt beam="2">  1       -2 0.44187048E-01 0.10003172E+04</pdfrwt>
<totfact> 0.18038027E+02</totfact>
</mgrwt>
</event>
<event>
 9    1  0.4246427E-036  0.9997801E+03  0.7818608E-02  0.8681247E-01
          1   -1    0    0  501    0  0.00000000000E+00  0.00000000000E+00  0.11121540828E+04  0.11121540828E+04  0.00000000000E+00 0. -1.
         -1   -1    0    0    0  501 -0.00000000000E+00 -0.00000000000E+00 -0.22469012904E+03  0.22469012904E+03  0.00000000000E+00 0. -1.
         36    2    1    2    0    0 -0.71054273576E-14 -0.14210854715E-13  0.88746395377E+03  0.13368442118E+04  0.99978006456E+03 0.  0.
         25    2    3    3    0    0  0.57921434692E+02 -0.16681639333E+02  0.42788801151E+00  0.13861969119E+03  0.12482814590E+03 0.  0.
         35    2    3    3    0    0 -0.57921434692E+02  0.16681639333E+02  0.88703606575E+03  0.11982245206E+04  0.80329063872E+03 0.  0.
         22    1    5    5    0    0  0.18044025687E+03 -0.14385715107E+03  0.88105929098E+03  0.91077935881E+03  0.00000000000E+00 0. -1.
         22    1    5    5    0    0 -0.23836169156E+03  0.16053879040E+03  0.59767747730E+01  0.28744516184E+03  0.00000000000E+00 0. -1.
          5    1    4    4  502    0 -0.13572066189E+01  0.36042986346E+02 -0.36017336166E+02  0.51188645020E+02  0.47000000000E+01 0. -1.
         -5    1    4    4    0  502  0.59278641311E+02 -0.52724625679E+02  0.36445224177E+02  0.87431046168E+02  0.47000000000E+01 0. -1.
<mgrwt>
<rscale>  0 0.99978006E+03</rscale>
<asrwt>0</asrwt>
<pdfrwt beam="1">  1        1 0.17110062E+00 0.99978006E+03</pdfrwt>
<pdfrwt beam="2">  1       -1 0.34567713E-01 0.99978006E+03</pdfrwt>
<totfact> 0.10930674E+02</totfact>
</mgrwt>
</event>
<event>
 9    1  0.4246427E-036  0.1000410E+04  0.7818608E-02  0.8680647E-01
          2   -1    0    0  501    0  0.00000000000E+00  0.00000000000E+00  0.55169976270E+03  0.55169976270E+03  0.00000000000E+00 0. -1.
         -2   -1    0    0    0  501 -0.00000000000E+00 -0.00000000000E+00 -0.45351689690E+03  0.45351689690E+03  0.00000000000E+00 0. -1.
         36    2    1    2    0    0  0.00000000000E+00  0.17763568394E-13  0.98182865801E+02  0.10052166596E+04  0.10004102447E+04 0.  0.
         25    2    3    3    0    0 -0.39176342741E+02  0.27637393425E+01  0.15203252399E+03  0.20064840086E+03  0.12491384362E+03 0.  0.
         35    2    3    3    0    0  0.39176342741E+02 -0.27637393425E+01 -0.53849658194E+02  0.80456825875E+03  0.80180288925E+03 0.  0.
         22    1    5    5    0    0 -0.29140690659E+03 -0.23324480488E+03  0.76496457336E+02  0.38101552750E+03  0.00000000000E+00 0. -1.
         22    1    5    5    0    0  0.33058324933E+03  0.23048106554E+03 -0.13034611553E+03  0.42355273124E+03  0.00000000000E+00 0. -1.
          5    1    4    4  502    0 -0.82214356604E+02 -0.11410812907E+02  0.11520334576E+03  0.14206796950E+03  0.47000000000E+01 0.  1.
         -5    1    4    4    0  502  0.43038013863E+02  0.14174552250E+02  0.36829178235E+02  0.58580431359E+02  0.47000000000E+01 0.  1.
<mgrwt>
<rscale>  0 0.10004102E+04</rscale>
<asrwt>0</asrwt>
<pdfrwt beam="1">  1        2 0.84876886E-01 0.10004102E+04</pdfrwt>
<pdfrwt beam="2">  1       -2 0.69771831E-01 0.10004102E+04</pdfrwt>
<totfact> 0.12421085E+02</totfact>
</mgrwt>
</event>
<event>
 9    1  0.4246427E-036  0.9997677E+03  0.7818608E-02  0.8681259E-01
          2   -1    0    0  501    0  0.00000000000E+00  0.00000000000E+00  0.88611724650E+03  0.88611724650E+03  0.00000000000E+00 0.  1.
         -2   -1    0    0    0  501 -0.00000000000E+00 -0.00000000000E+00 -0.28199864401E+03  0.28199864401E+03  0.00000000000E+00 0.  1.
         36    2    1    2    0    0  0.00000000000E+00  0.00000000000E+00  0.60411860249E+03  0.11681158905E+04  0.99976769692E+03 0.  0.
         25    2    3    3    0    0 -0.13002083715E+03 -0.38576893736E+02  0.81286439879E+02  0.20138291200E+03  0.12471566507E+03 0.  0.
         35    2    3    3    0    0  0.13002083715E+03  0.38576893736E+02  0.52283216261E+03  0.96673297852E+03  0.80176404676E+03 0.  0.
         22    1    5    5    0    0  0.56630275247E+02  0.33301293007E+03 -0.26846924677E+02  0.33885890431E+03  0.00000000000E+00 0.  1.
         22    1    5    5    0    0  0.73390561900E+02 -0.29443603633E+03  0.54967908729E+03  0.62787407421E+03  0.00000000000E+00 0.  1.
          5    1    4    4  502    0 -0.13397869016E+03 -0.11045840165E+01  0.91190574359E+02  0.16213981737E+03  0.47000000000E+01 0. -1.
         -5    1    4    4    0  502  0.39578530171E+01 -0.37472309719E+02 -0.99041344799E+01  0.39243094628E+02  0.47000000000E+01 0. -1.
<mgrwt>
<rscale>  0 0.99976770E+03</rscale>
<asrwt>0</asrwt>
<pdfrwt beam="1">  1        2 0.13632573E+00 0.99976770E+03</pdfrwt>
<pdfrwt beam="2">  1       -2 0.43384407E-01 0.99976770E+03</pdfrwt>
<totfact> 0.18264427E+02</totfact>
</mgrwt>
</event>
<event>
 9    1  0.4246427E-036  0.9992372E+03  0.7818608E-02  0.8681765E-01
         -1   -1    0    0    0  501 -0.00000000000E+00  0.00000000000E+00  0.37392240969E+03  0.37392240969E+03  0.00000000000E+00 0.  1.
          1   -1    0    0  501    0  0.00000000000E+00 -0.00000000000E+00 -0.66756823801E+03  0.66756823801E+03  0.00000000000E+00 0.  1.
         36    2    1    2    0    0  0.28421709430E-13  0.71054273576E-14 -0.29364582832E+03  0.10414906477E+04  0.99923715742E+03 0.  0.
         25    2    3    3    0    0 -0.10474106889E+03  0.52161557511E+02 -0.14138025194E+03  0.22216156609E+03  0.12520329954E+03 0.  0.
         35    2    3    3    0    0  0.10474106889E+03 -0.52161557511E+02 -0.15226557638E+03  0.81932908161E+03  0.79650726213E+03 0.  0.
         22    1    5    5    0    0 -0.25795145390E+03  0.11556547161E+03  0.14840640378E+03  0.31924722627E+03  0.00000000000E+00 0. -1.
         22    1    5    5    0    0  0.36269252279E+03 -0.16772702912E+03 -0.30067198016E+03  0.50008185534E+03  0.00000000000E+00 0. -1.
          5    1    4    4  502    0 -0.69219837869E+02 -0.26772341395E+02 -0.28050512008E+02  0.79479968811E+02  0.47000000000E+01 0.  1.
         -5    1    4    4    0  502 -0.35521231018E+02  0.78933898906E+02 -0.11332973993E+03  0.14268159728E+03  0.47000000000E+01 0.  1.
<mgrwt>
<rscale>  0 0.99923716E+03</rscale>
<asrwt>0</asrwt>
<pdfrwt beam="1">  1        1 0.10270281E+00 0.99923716E+03</pdfrwt>
<pdfrwt beam="2">  1       -1 0.57526525E-01 0.99923716E+03</pdfrwt>
<totfact> 0.10337958E+02</totfact>
</mgrwt>
</event>
<event>
 9    1  0.4246427E-036  0.9995170E+03  0.7818608E-02  0.8681498E-01
          2   -1    0    0  501    0  0.00000000000E+00  0.00000000000E+00  0.11577074162E+04  0.11577074162E+04  0.00000000000E+00 0. -1.
         -2   -1    0    0    0  501 -0.00000000000E+00 -0.00000000000E+00 -0.21573547959E+03  0.21573547959E+03  0.00000000000E+00 0. -1.
         36    2    1    2    0    0 -0.28421709430E-13 -0.28421709430E-13  0.94197193659E+03  0.13734428958E+04  0.99951701268E+03 0.  0.
         25    2    3    3    0    0  0.10700432481E+03 -0.87991449974E+02  0.15229329830E+03  0.24110452021E+03  0.12548195155E+03 0.  0.
         35    2    3    3    0    0 -0.10700432481E+03  0.87991449974E+02  0.78967863830E+03  0.11323383756E+04  0.79962830378E+03 0.  0.
         22    1    5    5    0    0 -0.43599352855E+03 -0.52438402525E+02  0.32701679483E+03  0.54752180514E+03  0.00000000000E+00 0. -1.
         22    1    5    5    0    0  0.32898920374E+03  0.14042985250E+03  0.46266184346E+03  0.58481657043E+03  0.00000000000E+00 0. -1.
          5    1    4    4  502    0  0.36335749197E+02 -0.10603575264E+03  0.76338579588E+02  0.13569648574E+03  0.47000000000E+01 0.  1.
         -5    1    4    4    0  502  0.70668575612E+02  0.18044302670E+02  0.75954718708E+02  0.10540803448E+03  0.47000000000E+01 0.  1.
<mgrwt>
<rscale>  0 0.99951701E+03</rscale>
<asrwt>0</asrwt>
<pdfrwt beam="1">  1        2 0.17810883E+00 0.99951701E+03</pdfrwt>
<pdfrwt beam="2">  1       -2 0.33190074E-01 0.99951701E+03</pdfrwt>
<totfact> 0.20522967E+02</totfact>
</mgrwt>
</event>
<event>
 9    1  0.4246427E-036  0.1001251E+04  0.7818608E-02  0.8679848E-01
          1   -1    0    0  501    0  0.00000000000E+00  0.00000000000E+00  0.28811186638E+03  0.28811186638E+03  0.00000000000E+00 0.  1.
         -1   -1    0    0    0  501 -0.00000000000E+00 -0.00000000000E+00 -0.86989087026E+03  0.86989087026E+03  0.00000000000E+00 0.  1.
         36    2    1    2    0    0  0.00000000000E+00 -0.14210854715E-13 -0.58177900388E+03  0.11580027366E+04  0.10012509819E+04 0.  0.
         25    2    3    3    0    0  0.36112849104E+02  0.90143672838E+02 -0.22276396829E+03  0.27315077991E+03  0.12472988164E+03 0.  0.
         35    2    3    3    0    0 -0.36112849104E+02 -0.90143672838E+02 -0.35901503559E+03  0.88485195674E+03  0.80289549129E+03 0.  0.
         22    1    5    5    0    0 -0.45453072315E+02 -0.60464807072E+02  0.25707691941E+03  0.26797484429E+03  0.00000000000E+00 0.  1.
         22    1    5    5    0    0  0.93402232114E+01 -0.29678865766E+02 -0.61609195500E+03  0.61687711245E+03  0.00000000000E+00 0.  1.
          5    1    4    4  502    0  0.86413100394E+01  0.52057787165E+02 -0.21954492378E+03  0.22584673786E+03  0.47000000000E+01 0.  1.
         -5    1    4    4    0  502  0.27471539064E+02  0.38085885673E+02 -0.32190445017E+01  0.47304042042E+02  0.47000000000E+01 0.  1.
<mgrwt>
<rscale>  0 0.10012510E+04</rscale>
<asrwt>0</asrwt>
<pdfrwt beam="1">  1        1 0.44324903E-01 0.10012510E+04</pdfrwt>
<pdfrwt beam="2">  1       -1 0.13382936E+00 0.10012510E+04</pdfrwt>
<totfact> 0.51997299E+01</totfact>
</mgrwt>
</event>
<event>
 9    1  0.4246427E-036  0.9986304E+03  0.7818608E-02  0.8682343E-01
          2   -1    0    0  501    0  0.00000000000E+00  0.00000000000E+00  0.82839034276E+03  0.82839034276E+03  0.00000000000E+00 0. -1.
         -2   -1    0    0    0  501 -0.00000000000E+00 -0.00000000000E+00 -0.30096396840E+03  0.30096396840E+03  0.00000000000E+00 0. -1.
         36    2    1    2    0    0 -0.14210854715E-13 -0.71054273576E-14  0.52742637436E+03  0.11293543112E+04  0.99863035191E+03 0.  0.
         25    2    3    3    0    0 -0.57312657664E+02 -0.59332417373E+02 -0.27848752634E+02  0.15265125544E+03  0.12538650758E+03 0.  0.
         35    2    3    3    0    0  0.57312657664E+02  0.59332417373E+02  0.55527512699E+03  0.97670305572E+03  0.79925797832E+03 0.  0.
         22    1    5    5    0    0 -0.35455746097E+03  0.17586183092E+02  0.11688992803E+03  0.37374258821E+03  0.00000000000E+00 0.  1.
         22    1    5    5    0    0  0.41187011864E+03  0.41746234280E+02  0.43838519897E+03  0.60296046751E+03  0.00000000000E+00 0.  1.
          5    1    4    4  502    0  0.18451071419E+02  0.25465201619E+02 -0.22048348965E+02  0.38692870430E+02  0.47000000000E+01 0.  1.
         -5    1    4    4    0  502 -0.75763729084E+02 -0.84797618992E+02 -0.58004036681E+01  0.11395838501E+03  0.47000000000E+01 0.  1.
<mgrwt>
<rscale>  0 0.99863035E+03</rscale>
<asrwt>0</asrwt>
<pdfrwt beam="1">  1        2 0.12744467E+00 0.99863035E+03</pdfrwt>
<pdfrwt beam="2">  1       -2 0.46302149E-01 0.99863035E+03</pdfrwt>
<totfact> 0.17590754E+02</totfact>
</mgrwt>
</event>
<event>
 9    1  0.4246427E-036  0.1001762E+04  0.7818608E-02  0.8679362E-01
          1   -1    0    0  501    0  0.00000000000E+00  0.00000000000E+00  0.14581819286E+04  0.14581819286E+04  0.00000000000E+00 0.  1.
         -1   -1    0    0    0  501 -0.00000000000E+00 -0.00000000000E+00 -0.17205102814E+03  0.17205102814E+03  0.00000000000E+00 0.  1.
         36    2    1    2    0    0  0.14210854715E-13  0.14210854715E-13  0.12861309005E+04  0.16302329568E+04  0.10017618480E+04 0.  0.
         25    2    3    3    0    0 -0.70494774259E+02  0.94687816210E+02  0.11511785335E+03  0.20721953282E+03  0.12550903905E+03 0.  0.
         35    2    3    3    0    0  0.70494774259E+02 -0.94687816210E+02  0.11710130471E+04  0.14230134240E+04  0.79985020626E+03 0.  0.
         22    1    5    5    0    0 -0.23197082129E+03  0.10515970287E+01  0.24323175185E+02  0.23324490270E+03  0.00000000000E+00 0.  1.
         22    1    5    5    0    0  0.30246559554E+03 -0.95739413239E+02  0.11466898720E+04  0.11897685213E+04  0.00000000000E+00 0.  1.
          5    1    4    4  502    0 -0.49807983847E+02  0.11372623551E+03  0.12576997796E+03  0.17678990144E+03  0.47000000000E+01 0.  1.
         -5    1    4    4    0  502 -0.20686790412E+02 -0.19038419298E+02 -0.10652124602E+02  0.30429631373E+02  0.47000000000E+01 0.  1.
<mgrwt>
<rscale>  0 0.10017618E+04</rscale>
<asrwt>0</asrwt>
<pdfrwt beam="1">  1        1 0.22433567E+00 0.10017618E+04</pdfrwt>
<pdfrwt beam="2">  1       -1 0.26469390E-01 0.10017618E+04</pdfrwt>
<totfact> 0.96134838E+01</totfact>
</mgrwt>
</event>
<event>
 9    1  0.4246427E-036  0.9998724E+03  0.7818608E-02  0.8681160E-01
         -3   -1    0    0    0  501 -0.00000000000E+00  0.00000000000E+00  0.93595675499E+03  0.93595675499E+03  0.00000000000E+00 0.  1.
          3   -1    0    0  501    0  0.00000000000E+00 -0.00000000000E+00 -0.26703817009E+03  0.26703817009E+03  0.00000000000E+00 0.  1.
         36    2    1    2    0    0  0.35527136788E-14 -0.28421709430E-13  0.66891858489E+03  0.12029949251E+04  0.99987235013E+03 0.  0.
         25    2    3    3    0    0  0.29961287191E+02 -0.96740370091E+02  0.70176038015E+01  0.16072526550E+03  0.12460732832E+03 0.  0.
         35    2    3    3    0    0 -0.29961287191E+02  0.96740370091E+02  0.66190098109E+03  0.10422696596E+04  0.79872195198E+03 0.  0.
         22    1    5    5    0    0 -0.16978439287E+03  0.25880662364E+03 -0.36622453472E+02  0.31168704272E+03  0.00000000000E+00 0. -1.
         22    1    5    5    0    0  0.13982310568E+03 -0.16206625355E+03  0.69852343456E+03  0.73058261686E+03  0.00000000000E+00 0. -1.
          5    1    4    4  502    0  0.20067445064E+02 -0.47480426373E+02  0.65498473518E+02  0.83481933813E+02  0.47000000000E+01 0.  1.
         -5    1    4    4    0  502  0.98938421274E+01 -0.49259943717E+02 -0.58480869717E+02  0.77243331686E+02  0.47000000000E+01 0.  1.
<mgrwt>
<rscale>  0 0.99987235E+03</rscale>
<asrwt>0</asrwt>
<pdfrwt beam="1">  1        3 0.41082796E-01 0.99987235E+03</pdfrwt>
<pdfrwt beam="2">  1       -3 0.14399334E+00 0.99987235E+03</pdfrwt>
<totfact> 0.68986227E+00</totfact>
</mgrwt>
</event>
<event>
 9    1  0.4246427E-036  0.9999189E+03  0.7818608E-02  0.8681115E-01
          2   -1    0    0  501    0  0.00000000000E+00  0.00000000000E+00  0.17564187021E+04  0.17564187021E+04  0.00000000000E+00 0.  1.
         -2   -1    0    0    0  501 -0.00000000000E+00 -0.00000000000E+00 -0.14231198459E+03  0.14231198459E+03  0.00000000000E+00 0.  1.
         36    2    1    2    0    0 -0.14210854715E-13  0.17763568394E-13  0.16141067175E+04  0.18987306867E+04  0.99991885925E+03 0.  0.
         25    2    3    3    0    0 -0.65438109828E+02  0.54622106964E-01  0.67033577316E+02  0.15592461992E+03  0.12464685077E+03 0.  0.
         35    2    3    3    0    0  0.65438109828E+02 -0.54622106964E-01  0.15470731402E+04  0.17428060668E+04  0.79978468107E+03 0.  0.
         22    1    5    5    0    0  0.29033475158E+03  0.30013265842E+03  0.94949926293E+03  0.10372669526E+04  0.00000000000E+00 0. -1.
         22    1    5    5    0    0 -0.22489664175E+03 -0.30018728053E+03  0.59757387726E+03  0.70553911419E+03  0.00000000000E+00 0. -1.
          5    1    4    4  502    0 -0.86975365233E+02  0.17530539669E+02  0.63951345273E+01  0.89078738901E+02  0.47000000000E+01 0. -1.
         -5    1    4    4    0  502  0.21537255405E+02 -0.17475917562E+02  0.60638442789E+02  0.66845881016E+02  0.47000000000E+01 0. -1.
<mgrwt>
<rscale>  0 0.99991886E+03</rscale>
<asrwt>0</asrwt>
<pdfrwt beam="1">  1        2 0.27021825E+00 0.99991886E+03</pdfrwt>
<pdfrwt beam="2">  1       -2 0.21894153E-01 0.99991886E+03</pdfrwt>
<totfact> 0.19675630E+02</totfact>
</mgrwt>
</event>
<event>
 9    1  0.4246427E-036  0.9998739E+03  0.7818608E-02  0.8681158E-01
         -2   -1    0    0    0  501 -0.00000000000E+00  0.00000000000E+00  0.92109113950E+03  0.92109113950E+03  0.00000000000E+00 0.  1.
          2   -1    0    0  501    0  0.00000000000E+00 -0.00000000000E+00 -0.27134875745E+03  0.27134875745E+03  0.00000000000E+00 0.  1.
         36    2    1    2    0    0  0.00000000000E+00  0.00000000000E+00  0.64974238206E+03  0.11924398969E+04  0.99987386444E+03 0.  0.
         25    2    3    3    0    0  0.10200353509E+03 -0.88598578225E+02  0.78402501092E+02  0.20021822248E+03  0.12524358348E+03 0.  0.
         35    2    3    3    0    0 -0.10200353509E+03  0.88598578225E+02  0.57133988097E+03  0.99222167446E+03  0.79988759364E+03 0.  0.
         22    1    5    5    0    0 -0.24112825124E+03 -0.28813615551E+03  0.13509875348E+03  0.39927052339E+03  0.00000000000E+00 0.  1.
         22    1    5    5    0    0  0.13912471616E+03  0.37673473373E+03  0.43624112748E+03  0.59295115107E+03  0.00000000000E+00 0.  1.
          5    1    4    4  502    0  0.29604890379E+02 -0.10084532618E+03  0.21930889382E+02  0.10746759165E+03  0.47000000000E+01 0.  1.
         -5    1    4    4    0  502  0.72398644708E+02  0.12246747952E+02  0.56471611710E+02  0.92750630834E+02  0.47000000000E+01 0.  1.
<mgrwt>
<rscale>  0 0.99987386E+03</rscale>
<asrwt>0</asrwt>
<pdfrwt beam="1">  1        2 0.41745963E-01 0.99987386E+03</pdfrwt>
<pdfrwt beam="2">  1       -2 0.14170633E+00 0.99987386E+03</pdfrwt>
<totfact> 0.48759195E+01</totfact>
</mgrwt>
</event>
<event>
 9    1  0.4246427E-036  0.9999774E+03  0.7818608E-02  0.8681059E-01
         -1   -1    0    0    0  501 -0.00000000000E+00  0.00000000000E+00  0.26036598059E+03  0.26036598059E+03  0.00000000000E+00 0. -1.
          1   -1    0    0  501    0  0.00000000000E+00 -0.00000000000E+00 -0.96014349643E+03  0.96014349643E+03  0.00000000000E+00 0. -1.
         36    2    1    2    0    0  0.21316282073E-13  0.00000000000E+00 -0.69977751584E+03  0.12205094770E+04  0.99997740566E+03 0.  0.
         25    2    3    3    0    0 -0.32505441990E+02 -0.13147715139E+03 -0.16830534164E+03  0.24846769288E+03  0.12274632900E+03 0.  0.
         35    2    3    3    0    0  0.32505441990E+02  0.13147715139E+03 -0.53147217420E+03  0.97204178414E+03  0.80253330964E+03 0.  0.
         22    1    5    5    0    0  0.39764532771E+03  0.16761652970E+02 -0.40778351307E+03  0.56981589411E+03  0.00000000000E+00 0. -1.
         22    1    5    5    0    0 -0.36513988572E+03  0.11471549842E+03 -0.12368866113E+03  0.40222589003E+03  0.00000000000E+00 0. -1.
          5    1    4    4  502    0  0.30215540445E+02  0.62796482695E+01 -0.25323016559E+02  0.40196492812E+02  0.47000000000E+01 0. -1.
         -5    1    4    4    0  502 -0.62720982435E+02 -0.13775679966E+03 -0.14298232508E+03  0.20827120007E+03  0.47000000000E+01 0. -1.
<mgrwt>
<rscale>  0 0.99997741E+03</rscale>
<asrwt>0</asrwt>
<pdfrwt beam="1">  1        1 0.14771438E+00 0.99997741E+03</pdfrwt>
<pdfrwt beam="2">  1       -1 0.40056305E-01 0.99997741E+03</pdfrwt>
<totfact> 0.11097736E+02</totfact>
</mgrwt>
</event>
<event>
 9    1  0.4246427E-036  0.1001062E+04  0.7818608E-02  0.8680027E-01
          2   -1    0    0  501    0  0.00000000000E+00  0.00000000000E+00  0.40274588467E+03  0.40274588467E+03  0.00000000000E+00 0.  1.
         -2   -1    0    0    0  501 -0.00000000000E+00 -0.00000000000E+00 -0.62205798205E+03  0.62205798205E+03  0.00000000000E+00 0.  1.
         36    2    1    2    0    0 -0.14210854715E-13  0.00000000000E+00 -0.21931209738E+03  0.10248038667E+04  0.10010620206E+04 0.  0.
         25    2    3    3    0    0 -0.66461638262E+02 -0.11856320887E+03  0.17342194304E+01  0.18460703761E+03  0.12490943503E+03 0.  0.
         35    2    3    3    0    0  0.66461638262E+02  0.11856320887E+03 -0.22104631681E+03  0.84019682911E+03  0.79912130093E+03 0.  0.
         22    1    5    5    0    0 -0.31736639611E+03  0.23737655027E+03 -0.18322523751E+03  0.43662403010E+03  0.00000000000E+00 0.  1.
         22    1    5    5    0    0  0.38382803437E+03 -0.11881334140E+03 -0.37821079301E+02  0.40357279901E+03  0.00000000000E+00 0.  1.
          5    1    4    4  502    0 -0.54547446669E+02 -0.13082219390E+03 -0.33003827839E+02  0.14560636321E+03  0.47000000000E+01 0. -1.
         -5    1    4    4    0  502 -0.11914191593E+02  0.12258985033E+02  0.34738047269E+02  0.39000674397E+02  0.47000000000E+01 0. -1.
<mgrwt>
<rscale>  0 0.10010620E+04</rscale>
<asrwt>0</asrwt>
<pdfrwt beam="1">  1        2 0.61960906E-01 0.10010620E+04</pdfrwt>
<pdfrwt beam="2">  1       -2 0.95701228E-01 0.10010620E+04</pdfrwt>
<totfact> 0.86117341E+01</totfact>
</mgrwt>
</event>
<event>
 9    1  0.4246427E-036  0.9995623E+03  0.7818608E-02  0.8681455E-01
          2   -1    0    0  501    0  0.00000000000E+00  0.00000000000E+00  0.70174634029E+03  0.70174634029E+03  0.00000000000E+00 0. -1.
         -2   -1    0    0    0  501 -0.00000000000E+00 -0.00000000000E+00 -0.35594229446E+03  0.35594229446E+03  0.00000000000E+00 0. -1.
         36    2    1    2    0    0  0.24868995752E-13  0.10658141036E-13  0.34580404582E+03  0.10576886347E+04  0.99956230919E+03 0.  0.
         25    2    3    3    0    0 -0.78500413743E+00 -0.59357765154E+01  0.21380579366E+03  0.24733213550E+03  0.12419508112E+03 0.  0.
         35    2    3    3    0    0  0.78500413743E+00  0.59357765154E+01  0.13199825216E+03  0.81035649925E+03  0.79951126798E+03 0.  0.
         22    1    5    5    0    0  0.31857951477E+03  0.24370974122E+03  0.91365154358E+02  0.41138174075E+03  0.00000000000E+00 0.  1.
         22    1    5    5    0    0 -0.31779451063E+03 -0.23777396470E+03  0.40633097807E+02  0.39897475849E+03  0.00000000000E+00 0.  1.
          5    1    4    4  502    0  0.27822672492E+02  0.42460003173E+01  0.21470401523E+03  0.21659185991E+03  0.47000000000E+01 0. -1.
         -5    1    4    4    0  502 -0.28607676629E+02 -0.10181776833E+02 -0.89822156732E+00  0.30740275594E+02  0.47000000000E+01 0. -1.
<mgrwt>
<rscale>  0 0.99956231E+03</rscale>
<asrwt>0</asrwt>
<pdfrwt beam="1">  1        2 0.10796097E+00 0.99956231E+03</pdfrwt>
<pdfrwt beam="2">  1       -2 0.54760353E-01 0.99956231E+03</pdfrwt>
<totfact> 0.15507906E+02</totfact>
</mgrwt>
</event>
<event>
 9    1  0.4246427E-036  0.9997298E+03  0.7818608E-02  0.8681295E-01
         -1   -1    0    0    0  501 -0.00000000000E+00  0.00000000000E+00  0.87750525571E+03  0.87750525571E+03  0.00000000000E+00 0. -1.
          1   -1    0    0  501    0  0.00000000000E+00 -0.00000000000E+00 -0.28474462388E+03  0.28474462388E+03  0.00000000000E+00 0. -1.
         36    2    1    2    0    0  0.71054273576E-14  0.56843418861E-13  0.59276063183E+03  0.11622498796E+04  0.99972977146E+03 0.  0.
         25    2    3    3    0    0 -0.31970147321E+02 -0.13160379962E+03  0.13760401210E+03  0.23071296068E+03  0.12630105180E+03 0.  0.
         35    2    3    3    0    0  0.31970147321E+02  0.13160379962E+03  0.45515661973E+03  0.93153691890E+03  0.80140615945E+03 0.  0.
         22    1    5    5    0    0 -0.28683292899E+03 -0.12547235892E+03  0.41526345072E+03  0.52005785785E+03  0.00000000000E+00 0.  1.
         22    1    5    5    0    0  0.31880307631E+03  0.25707615854E+03  0.39893169006E+02  0.41147906105E+03  0.00000000000E+00 0.  1.
          5    1    4    4  502    0  0.16922656134E+02  0.19519317098E+02  0.18268316510E+02  0.31987519734E+02  0.47000000000E+01 0. -1.
         -5    1    4    4    0  502 -0.48892803456E+02 -0.15112311672E+03  0.11933569559E+03  0.19872544095E+03  0.47000000000E+01 0. -1.
<mgrwt>
<rscale>  0 0.99972977E+03</rscale>
<asrwt>0</asrwt>
<pdfrwt beam="1">  1        1 0.43806865E-01 0.99972977E+03</pdfrwt>
<pdfrwt beam="2">  1       -1 0.13500081E+00 0.99972977E+03</pdfrwt>
<totfact> 0.51596517E+01</totfact>
</mgrwt>
</event>
<event>
 9    1  0.4246427E-036  0.9980165E+03  0.7818608E-02  0.8682929E-01
          2   -1    0    0  501    0  0.00000000000E+00  0.00000000000E+00  0.28822554923E+04  0.28822554923E+04  0.00000000000E+00 0.  1.
         -2   -1    0    0    0  501 -0.00000000000E+00 -0.00000000000E+00 -0.86393878046E+02  0.86393878046E+02  0.00000000000E+00 0.  1.
         36    2    1    2    0    0  0.71054273576E-14  0.00000000000E+00  0.27958616142E+04  0.29686493703E+04  0.99801649184E+03 0.  0.
         25    2    3    3    0    0 -0.38801004051E+02  0.57182756742E+02  0.87667000398E+03  0.88822451334E+03  0.12496841459E+03 0.  0.
         35    2    3    3    0    0  0.38801004051E+02 -0.57182756742E+02  0.19191916102E+04  0.20804248570E+04  0.80005984969E+03 0.  0.
         22    1    5    5    0    0 -0.42911545799E+01 -0.19911121332E+03  0.49974209564E+02  0.20533170944E+03  0.00000000000E+00 0. -1.
         22    1    5    5    0    0  0.43092158631E+02  0.14192845658E+03  0.18692174007E+04  0.18750931475E+04  0.00000000000E+00 0. -1.
          5    1    4    4  502    0  0.30930960388E+02 -0.18729830095E+02  0.15600443455E+03  0.16020925206E+03  0.47000000000E+01 0. -1.
         -5    1    4    4    0  502 -0.69731964440E+02  0.75912586838E+02  0.72066556943E+03  0.72801526128E+03  0.47000000000E+01 0. -1.
<mgrwt>
<rscale>  0 0.99801649E+03</rscale>
<asrwt>0</asrwt>
<pdfrwt beam="1">  1        2 0.44342385E+00 0.99801649E+03</pdfrwt>
<pdfrwt beam="2">  1       -2 0.13291368E-01 0.99801649E+03</pdfrwt>
<totfact> 0.97912903E+01</totfact>
</mgrwt>
</event>
<event>
 9    1  0.4246427E-036  0.1000085E+04  0.7818608E-02  0.8680957E-01
         -2   -1    0    0    0  501 -0.00000000000E+00  0.00000000000E+00  0.24161720943E+03  0.24161720943E+03  0.00000000000E+00 0. -1.
          2   -1    0    0  501    0  0.00000000000E+00 -0.00000000000E+00 -0.10348694054E+04  0.10348694054E+04  0.00000000000E+00 0. -1.
         36    2    1    2    0    0  0.14210854715E-13 -0.28421709430E-13 -0.79325219596E+03  0.12764866148E+04  0.10000845121E+04 0.  0.
         25    2    3    3    0    0 -0.89274398082E+02 -0.88166287705E+02 -0.75049990836E+02  0.19301374606E+03  0.12601028769E+03 0.  0.
         35    2    3    3    0    0  0.89274398082E+02  0.88166287705E+02 -0.71820220512E+03  0.10834728687E+04  0.80147104591E+03 0.  0.
         22    1    5    5    0    0  0.10642223384E+02  0.44148433316E+03 -0.32012312288E+03  0.54543605230E+03  0.00000000000E+00 0. -1.
         22    1    5    5    0    0  0.78632174697E+02 -0.35331804545E+03 -0.39807908224E+03  0.53803681645E+03  0.00000000000E+00 0. -1.
          5    1    4    4  502    0 -0.10879792446E+03 -0.25578815283E+02 -0.42488237026E+02  0.11966037124E+03  0.47000000000E+01 0. -1.
         -5    1    4    4    0  502  0.19523526383E+02 -0.62587472422E+02 -0.32561753810E+02  0.73353374822E+02  0.47000000000E+01 0. -1.
<mgrwt>
<rscale>  0 0.10000845E+04</rscale>
<asrwt>0</asrwt>
<pdfrwt beam="1">  1        2 0.15921068E+00 0.10000845E+04</pdfrwt>
<pdfrwt beam="2">  1       -2 0.37171878E-01 0.10000845E+04</pdfrwt>
<totfact> 0.19722873E+02</totfact>
</mgrwt>
</event>
<event>
 9    1  0.4246427E-036  0.1000363E+04  0.7818608E-02  0.8680692E-01
         -2   -1    0    0    0  501 -0.00000000000E+00  0.00000000000E+00  0.21965311279E+03  0.21965311279E+03  0.00000000000E+00 0.  1.
          2   -1    0    0  501    0  0.00000000000E+00 -0.00000000000E+00 -0.11389856758E+04  0.11389856758E+04  0.00000000000E+00 0.  1.
         36    2    1    2    0    0  0.00000000000E+00  0.00000000000E+00 -0.91933256298E+03  0.13586387886E+04  0.10003634322E+04 0.  0.
         25    2    3    3    0    0 -0.50342292011E+02 -0.77115405747E+02 -0.29202837832E+02  0.15823552137E+03  0.12531776536E+03 0.  0.
         35    2    3    3    0    0  0.50342292011E+02  0.77115405747E+02 -0.89012972515E+03  0.12004032672E+04  0.80009745914E+03 0.  0.
         22    1    5    5    0    0  0.27757637604E+03 -0.24431759492E+03 -0.62367414408E+03  0.72505804575E+03  0.00000000000E+00 0. -1.
         22    1    5    5    0    0 -0.22723408403E+03  0.32143300066E+03 -0.26645558108E+03  0.47534522144E+03  0.00000000000E+00 0. -1.
          5    1    4    4  502    0 -0.41550313429E+02 -0.10928244918E+03 -0.56607403413E+01  0.11714613192E+03  0.47000000000E+01 0.  1.
         -5    1    4    4    0  502 -0.87919785820E+01  0.32167043428E+02 -0.23542097491E+02  0.41089389440E+02  0.47000000000E+01 0.  1.
<mgrwt>
<rscale>  0 0.10003634E+04</rscale>
<asrwt>0</asrwt>
<pdfrwt beam="1">  1        2 0.17522856E+00 0.10003634E+04</pdfrwt>
<pdfrwt beam="2">  1       -2 0.33792787E-01 0.10003634E+04</pdfrwt>
<totfact> 0.20368541E+02</totfact>
</mgrwt>
</event>
<event>
 9    1  0.4246427E-036  0.1000799E+04  0.7818608E-02  0.8680277E-01
          2   -1    0    0  501    0  0.00000000000E+00  0.00000000000E+00  0.15704844009E+04  0.15704844009E+04  0.00000000000E+00 0.  1.
         -2   -1    0    0    0  501 -0.00000000000E+00 -0.00000000000E+00 -0.15944103491E+03  0.15944103491E+03  0.00000000000E+00 0.  1.
         36    2    1    2    0    0 -0.71054273576E-14  0.35527136788E-13  0.14110433660E+04  0.17299254359E+04  0.10007989972E+04 0.  0.
         25    2    3    3    0    0  0.54642725506E+02 -0.62854472382E+02  0.65362717413E+02  0.16319603565E+03  0.12419399774E+03 0.  0.
         35    2    3    3    0    0 -0.54642725506E+02  0.62854472382E+02  0.13456806486E+04  0.15667294002E+04  0.79802762688E+03 0.  0.
         22    1    5    5    0    0 -0.14841089154E+03  0.37727364744E+03  0.41611523381E+03  0.58095876410E+03  0.00000000000E+00 0.  1.
         22    1    5    5    0    0  0.93768166034E+02 -0.31441917505E+03  0.92956541481E+03  0.98577063610E+03  0.00000000000E+00 0.  1.
          5    1    4    4  502    0  0.15672549153E+02  0.97370644566E+01 -0.30966123727E+02  0.36351479198E+02  0.47000000000E+01 0. -1.
         -5    1    4    4    0  502  0.38970176353E+02 -0.72591536838E+02  0.96328841140E+02  0.12684455645E+03  0.47000000000E+01 0. -1.
<mgrwt>
<rscale>  0 0.10007990E+04</rscale>
<asrwt>0</asrwt>
<pdfrwt beam="1">  1        2 0.24161297E+00 0.10007990E+04</pdfrwt>
<pdfrwt beam="2">  1       -2 0.24529391E-01 0.10007990E+04</pdfrwt>
<totfact> 0.20507466E+02</totfact>
</mgrwt>
</event>
<event>
 9    1  0.4246427E-036  0.1004283E+04  0.7818608E-02  0.8676970E-01
         -2   -1    0    0    0  501 -0.00000000000E+00  0.00000000000E+00  0.19814453857E+03  0.19814453857E+03  0.00000000000E+00 0.  1.
          2   -1    0    0  501    0  0.00000000000E+00 -0.00000000000E+00 -0.12725349066E+04  0.12725349066E+04  0.00000000000E+00 0.  1.
         36    2    1    2    0    0 -0.35527136788E-14  0.00000000000E+00 -0.10743903680E+04  0.14706794452E+04  0.10042825138E+04 0.  0.
         25    2    3    3    0    0  0.13239010198E+02 -0.65482588579E+02 -0.39208032060E+03  0.41723822560E+03  0.12608536115E+03 0.  0.
         35    2    3    3    0    0 -0.13239010198E+02  0.65482588579E+02 -0.68231004741E+03  0.10534412196E+04  0.79983008289E+03 0.  0.
         22    1    5    5    0    0  0.29689591061E+02 -0.31179966660E+01 -0.85878102929E+03  0.85929974397E+03  0.00000000000E+00 0.  1.
         22    1    5    5    0    0 -0.42928601258E+02  0.68600585245E+02  0.17647098188E+03  0.19414147560E+03  0.00000000000E+00 0.  1.
          5    1    4    4  502    0 -0.29328221743E+02  0.25910385357E+02 -0.78921932872E+02  0.88217085354E+02  0.47000000000E+01 0.  1.
         -5    1    4    4    0  502  0.42567231941E+02 -0.91392973936E+02 -0.31315838773E+03  0.32902114024E+03  0.47000000000E+01 0.  1.
<mgrwt>
<rscale>  0 0.10042825E+04</rscale>
<asrwt>0</asrwt>
<pdfrwt beam="1">  1        2 0.19577460E+00 0.10042825E+04</pdfrwt>
<pdfrwt beam="2">  1       -2 0.30483775E-01 0.10042825E+04</pdfrwt>
<totfact> 0.20533567E+02</totfact>
</mgrwt>
</event>
<event>
 9    1  0.4246427E-036  0.1000180E+04  0.7818608E-02  0.8680867E-01
          2   -1    0    0  501    0  0.00000000000E+00  0.00000000000E+00  0.31160435962E+04  0.31160435962E+04  0.00000000000E+00 0.  1.
         -2   -1    0    0    0  501 -0.00000000000E+00 -0.00000000000E+00 -0.80258822505E+02  0.80258822505E+02  0.00000000000E+00 0.  1.
         36    2    1    2    0    0  0.00000000000E+00  0.28421709430E-13  0.30357847737E+04  0.31963024187E+04  0.10001799636E+04 0.  0.
         25    2    3    3    0    0 -0.11635719778E+03 -0.78886589623E+02  0.56071102806E+03  0.59139362321E+03  0.12484978609E+03 0.  0.
         35    2    3    3    0    0  0.11635719778E+03  0.78886589623E+02  0.24750737456E+04  0.26049087955E+04  0.79987354939E+03 0.  0.
         22    1    5    5    0    0 -0.70343637984E+02  0.36052991182E+03  0.19219495208E+04  0.19567370813E+04  0.00000000000E+00 0.  1.
         22    1    5    5    0    0  0.18670083576E+03 -0.28164332220E+03  0.55312422481E+03  0.64817171420E+03  0.00000000000E+00 0.  1.
          5    1    4    4  502    0  0.23642265701E+02 -0.30998788058E+02  0.13970406714E+03  0.14511787610E+03  0.47000000000E+01 0.  1.
         -5    1    4    4    0  502 -0.13999946348E+03 -0.47887801565E+02  0.42100696093E+03  0.44627574712E+03  0.47000000000E+01 0.  1.
<mgrwt>
<rscale>  0 0.10001800E+04</rscale>
<asrwt>0</asrwt>
<pdfrwt beam="1">  1        2 0.47939123E+00 0.10001800E+04</pdfrwt>
<pdfrwt beam="2">  1       -2 0.12347514E-01 0.10001800E+04</pdfrwt>
<totfact> 0.77190165E+01</totfact>
</mgrwt>
</event>
<event>
 9    1  0.4246427E-036  0.9999279E+03  0.7818608E-02  0.8681107E-01
         -2   -1    0    0    0  501 -0.00000000000E+00  0.00000000000E+00  0.24976769812E+03  0.24976769812E+03  0.00000000000E+00 0. -1.
          2   -1    0    0  501    0  0.00000000000E+00 -0.00000000000E+00 -0.10007856477E+04  0.10007856477E+04  0.00000000000E+00 0. -1.
         36    2    1    2    0    0  0.71054273576E-14  0.14210854715E-13 -0.75101794959E+03  0.12505533458E+04  0.99992785249E+03 0.  0.
         25    2    3    3    0    0 -0.45933407566E+02 -0.12327415558E+03 -0.78134587666E+02  0.19686644101E+03  0.12387488220E+03 0.  0.
         35    2    3    3    0    0  0.45933407566E+02  0.12327415558E+03 -0.67288336193E+03  0.10536869048E+04  0.80011104185E+03 0.  0.
         22    1    5    5    0    0 -0.29424543851E+03 -0.11993656907E+03 -0.79133876657E+02  0.32745584301E+03  0.00000000000E+00 0.  1.
         22    1    5    5    0    0  0.34017884608E+03  0.24321072465E+03 -0.59374948527E+03  0.72623106183E+03  0.00000000000E+00 0.  1.
          5    1    4    4  502    0  0.17680484272E+02 -0.93826580762E+02 -0.82783328673E+02  0.12645630189E+03  0.47000000000E+01 0.  1.
         -5    1    4    4    0  502 -0.63613891837E+02 -0.29447574821E+02  0.46487410073E+01  0.70410139117E+02  0.47000000000E+01 0.  1.
<mgrwt>
<rscale>  0 0.99992785E+03</rscale>
<asrwt>0</asrwt>
<pdfrwt beam="1">  1        2 0.15396702E+00 0.99992785E+03</pdfrwt>
<pdfrwt beam="2">  1       -2 0.38425800E-01 0.99992785E+03</pdfrwt>
<totfact> 0.19451776E+02</totfact>
</mgrwt>
</event>
<event>
 9    1  0.4246427E-036  0.9998740E+03  0.7818608E-02  0.8681158E-01
         -1   -1    0    0    0  501 -0.00000000000E+00  0.00000000000E+00  0.76769808058E+03  0.76769808058E+03  0.00000000000E+00 0. -1.
          1   -1    0    0  501    0  0.00000000000E+00 -0.00000000000E+00 -0.32556680317E+03  0.32556680317E+03  0.00000000000E+00 0. -1.
         36    2    1    2    0    0  0.14210854715E-13  0.14210854715E-13  0.44213127742E+03  0.10932648838E+04  0.99987401185E+03 0.  0.
         25    2    3    3    0    0  0.78069204104E+02 -0.11127275664E+03  0.57210926401E+02  0.19355203107E+03  0.12535099374E+03 0.  0.
         35    2    3    3    0    0 -0.78069204104E+02  0.11127275664E+03  0.38492035101E+03  0.89971285269E+03  0.80177497695E+03 0.  0.
         22    1    5    5    0    0 -0.19277229115E+03  0.14290071145E+03 -0.19407338281E+03  0.30861990779E+03  0.00000000000E+00 0.  1.
         22    1    5    5    0    0  0.11470308705E+03 -0.31627954815E+02  0.57899373382E+03  0.59109294490E+03  0.00000000000E+00 0.  1.
          5    1    4    4  502    0 -0.22750602750E+02 -0.72359305614E+02  0.32138771621E+02  0.82513330291E+02  0.47000000000E+01 0.  1.
         -5    1    4    4    0  502  0.10081980685E+03 -0.38913451022E+02  0.25072154780E+02  0.11103870077E+03  0.47000000000E+01 0.  1.
<mgrwt>
<rscale>  0 0.99987401E+03</rscale>
<asrwt>0</asrwt>
<pdfrwt beam="1">  1        1 0.50087201E-01 0.99987401E+03</pdfrwt>
<pdfrwt beam="2">  1       -1 0.11810740E+00 0.99987401E+03</pdfrwt>
<totfact> 0.60959591E+01</totfact>
</mgrwt>
</event>
<event>
 9    1  0.4246427E-036  0.1000153E+04  0.7818608E-02  0.8680892E-01
         -2   -1    0    0    0  501 -0.00000000000E+00  0.00000000000E+00  0.16701244653E+03  0.16701244653E+03  0.00000000000E+00 0. -1.
          2   -1    0    0  501    0  0.00000000000E+00 -0.00000000000E+00 -0.14973524269E+04  0.14973524269E+04  0.00000000000E+00 0. -1.
         36    2    1    2    0    0 -0.14210854715E-13  0.00000000000E+00 -0.13303399803E+04  0.16643648734E+04  0.10001529726E+04 0.  0.
         25    2    3    3    0    0 -0.32893648520E+02 -0.13765040666E+03 -0.26261936319E+03  0.32256010369E+03  0.12266402897E+03 0.  0.
         35    2    3    3    0    0  0.32893648520E+02  0.13765040666E+03 -0.10677206172E+04  0.13418047697E+04  0.80023939992E+03 0.  0.
         22    1    5    5    0    0  0.20321307551E+03  0.16745986169E+03 -0.11282783534E+04  0.11585984646E+04  0.00000000000E+00 0. -1.
         22    1    5    5    0    0 -0.17031942699E+03 -0.29809455031E+02  0.60557736265E+02  0.18320630514E+03  0.00000000000E+00 0. -1.
          5    1    4    4  502    0  0.22252879924E+02 -0.12932680300E+03 -0.18297014670E+03  0.22521273770E+03  0.47000000000E+01 0.  1.
         -5    1    4    4    0  502 -0.55146528444E+02 -0.83236036552E+01 -0.79649216490E+02  0.97347365988E+02  0.47000000000E+01 0.  1.
<mgrwt>
<rscale>  0 0.10001530E+04</rscale>
<asrwt>0</asrwt>
<pdfrwt beam="1">  1        2 0.23036191E+00 0.10001530E+04</pdfrwt>
<pdfrwt beam="2">  1       -2 0.25694222E-01 0.10001530E+04</pdfrwt>
<totfact> 0.20772963E+02</totfact>
</mgrwt>
</event>
<event>
 9    1  0.4246427E-036  0.9982615E+03  0.7818608E-02  0.8682695E-01
         -1   -1    0    0    0  501 -0.00000000000E+00  0.00000000000E+00  0.32878454832E+03  0.32878454832E+03  0.00000000000E+00 0.  1.
          1   -1    0    0  501    0  0.00000000000E+00 -0.00000000000E+00 -0.75773485870E+03  0.75773485870E+03  0.00000000000E+00 0.  1.
         36    2    1    2    0    0  0.14210854715E-13  0.28421709430E-13 -0.42895031038E+03  0.10865194070E+04  0.99826151536E+03 0.  0.
         25    2    3    3    0    0 -0.71315168380E+02 -0.10905058580E+03 -0.14346324283E+03  0.23013038464E+03  0.12409838189E+03 0.  0.
         35    2    3    3    0    0  0.71315168380E+02  0.10905058580E+03 -0.28548706756E+03  0.85638902237E+03  0.79681955824E+03 0.  0.
         22    1    5    5    0    0  0.35237779099E+03  0.30239473929E+03 -0.13531150301E+03  0.48365472062E+03  0.00000000000E+00 0. -1.
         22    1    5    5    0    0 -0.28106262261E+03 -0.19334415349E+03 -0.15017556455E+03  0.37273430175E+03  0.00000000000E+00 0. -1.
          5    1    4    4  502    0 -0.51949315388E+02 -0.10375890391E+03 -0.37288250605E+02  0.12197190309E+03  0.47000000000E+01 0. -1.
         -5    1    4    4    0  502 -0.19365852992E+02 -0.52916818926E+01 -0.10617499222E+03  0.10815848156E+03  0.47000000000E+01 0. -1.
<mgrwt>
<rscale>  0 0.99826152E+03</rscale>
<asrwt>0</asrwt>
<pdfrwt beam="1">  1        1 0.11657459E+00 0.99826152E+03</pdfrwt>
<pdfrwt beam="2">  1       -1 0.50582238E-01 0.99826152E+03</pdfrwt>
<totfact> 0.10820051E+02</totfact>
</mgrwt>
</event>
<event>
 9    1  0.4246427E-036  0.9988459E+03  0.7818608E-02  0.8682138E-01
          2   -1    0    0  501    0  0.00000000000E+00  0.00000000000E+00  0.14762139179E+04  0.14762139179E+04  0.00000000000E+00 0.  1.
         -2   -1    0    0    0  501 -0.00000000000E+00 -0.00000000000E+00 -0.16896147264E+03  0.16896147264E+03  0.00000000000E+00 0.  1.
         36    2    1    2    0    0  0.28421709430E-13  0.14210854715E-13  0.13072524453E+04  0.16451753905E+04  0.99884588900E+03 0.  0.
         25    2    3    3    0    0  0.10269535503E+03  0.78002272792E+02  0.16165934773E+03  0.24174474008E+03  0.12520416983E+03 0.  0.
         35    2    3    3    0    0 -0.10269535503E+03 -0.78002272792E+02  0.11455930975E+04  0.14034306505E+04  0.80037700805E+03 0.  0.
         22    1    5    5    0    0 -0.34147079268E+03 -0.31941228323E+03  0.72787485067E+03  0.86511751061E+03  0.00000000000E+00 0.  1.
         22    1    5    5    0    0  0.23877543765E+03  0.24141001044E+03  0.41771824686E+03  0.53831313984E+03  0.00000000000E+00 0.  1.
          5    1    4    4  502    0  0.51329388054E+02 -0.88707425152E+01  0.14291075769E+01  0.52321396189E+02  0.47000000000E+01 0.  1.
         -5    1    4    4    0  502  0.51365966976E+02  0.86873015307E+02  0.16023024015E+03  0.18942334389E+03  0.47000000000E+01 0.  1.
<mgrwt>
<rscale>  0 0.99884589E+03</rscale>
<asrwt>0</asrwt>
<pdfrwt beam="1">  1        2 0.22710982E+00 0.99884589E+03</pdfrwt>
<pdfrwt beam="2">  1       -2 0.25994074E-01 0.99884589E+03</pdfrwt>
<totfact> 0.20916689E+02</totfact>
</mgrwt>
</event>
<event>
 9    1  0.4246427E-036  0.1000440E+04  0.7818608E-02  0.8680619E-01
         -1   -1    0    0    0  501 -0.00000000000E+00  0.00000000000E+00  0.21901243002E+03  0.21901243002E+03  0.00000000000E+00 0. -1.
          1   -1    0    0  501    0  0.00000000000E+00 -0.00000000000E+00 -0.11424923775E+04  0.11424923775E+04  0.00000000000E+00 0. -1.
         36    2    1    2    0    0  0.00000000000E+00  0.00000000000E+00 -0.92347994748E+03  0.13615048075E+04  0.10004399670E+04 0.  0.
         25    2    3    3    0    0 -0.41299934125E+02 -0.12931078846E+03 -0.19937919150E+03  0.27175368303E+03  0.12518401524E+03 0.  0.
         35    2    3    3    0    0  0.41299934125E+02  0.12931078846E+03 -0.72410075598E+03  0.10897511245E+04  0.80299977830E+03 0.  0.
         22    1    5    5    0    0 -0.28366085175E+03 -0.14010761307E+03 -0.54716773164E+03  0.63204916629E+03  0.00000000000E+00 0.  1.
         22    1    5    5    0    0  0.32496078588E+03  0.26941840153E+03 -0.17693302434E+03  0.45770195821E+03  0.00000000000E+00 0.  1.
          5    1    4    4  502    0 -0.72286344936E+02 -0.90839484481E+02 -0.76172230146E+02  0.13892957299E+03  0.47000000000E+01 0.  1.
         -5    1    4    4    0  502  0.30986410811E+02 -0.38471303975E+02 -0.12320696135E+03  0.13282411005E+03  0.47000000000E+01 0.  1.
<mgrwt>
<rscale>  0 0.10004400E+04</rscale>
<asrwt>0</asrwt>
<pdfrwt beam="1">  1        1 0.17576806E+00 0.10004400E+04</pdfrwt>
<pdfrwt beam="2">  1       -1 0.33694219E-01 0.10004400E+04</pdfrwt>
<totfact> 0.10836147E+02</totfact>
</mgrwt>
</event>
<event>
 9    1  0.4246427E-036  0.9999820E+03  0.7818608E-02  0.8681055E-01
         -1   -1    0    0    0  501 -0.00000000000E+00  0.00000000000E+00  0.65349770977E+03  0.65349770977E+03  0.00000000000E+00 0.  1.
          1   -1    0    0  501    0  0.00000000000E+00 -0.00000000000E+00 -0.38254301137E+03  0.38254301137E+03  0.00000000000E+00 0.  1.
         36    2    1    2    0    0  0.00000000000E+00  0.00000000000E+00  0.27095469840E+03  0.10360407211E+04  0.99998196348E+03 0.  0.
         25    2    3    3    0    0  0.79975923052E+02 -0.11096082261E+03  0.40378841991E+02  0.19185676237E+03  0.12833594182E+03 0.  0.
         35    2    3    3    0    0 -0.79975923052E+02  0.11096082261E+03  0.23057585641E+03  0.84418395877E+03  0.80048290317E+03 0.  0.
         22    1    5    5    0    0 -0.59883489361E+02 -0.31901321726E+03  0.25540973583E+03  0.41302493658E+03  0.00000000000E+00 0. -1.
         22    1    5    5    0    0 -0.20092433691E+02  0.42997403987E+03 -0.24833879419E+02  0.43115902219E+03  0.00000000000E+00 0. -1.
          5    1    4    4  502    0  0.22029998739E+01  0.12507689510E+02 -0.27649987916E+02  0.30788103824E+02  0.47000000000E+01 0.  1.
         -5    1    4    4    0  502  0.77772923178E+02 -0.12346851212E+03  0.68028829907E+02  0.16106865854E+03  0.47000000000E+01 0.  1.
<mgrwt>
<rscale>  0 0.99998196E+03</rscale>
<asrwt>0</asrwt>
<pdfrwt beam="1">  1        1 0.58852771E-01 0.99998196E+03</pdfrwt>
<pdfrwt beam="2">  1       -1 0.10053811E+00 0.99998196E+03</pdfrwt>
<totfact> 0.71831462E+01</totfact>
</mgrwt>
</event>
<event>
 9    1  0.4246427E-036  0.9997597E+03  0.7818608E-02  0.8681267E-01
          2   -1    0    0  501    0  0.00000000000E+00  0.00000000000E+00  0.11034654456E+04  0.11034654456E+04  0.00000000000E+00 0.  1.
         -2   -1    0    0    0  501 -0.00000000000E+00 -0.00000000000E+00 -0.22645011247E+03  0.22645011247E+03  0.00000000000E+00 0.  1.
         36    2    1    2    0    0  0.28421709430E-13  0.00000000000E+00  0.87701533310E+03  0.13299155580E+04  0.99975971964E+03 0.  0.
         25    2    3    3    0    0  0.36785147070E+02 -0.14956743331E+02 -0.13359153335E+02  0.13201130775E+03  0.12518652954E+03 0.  0.
         35    2    3    3    0    0 -0.36785147070E+02  0.14956743331E+02  0.89037448643E+03  0.11979042503E+04  0.80039428756E+03 0.  0.
         22    1    5    5    0    0 -0.40082123920E+03 -0.10735233261E+03  0.41605582373E+03  0.58760925586E+03  0.00000000000E+00 0.  1.
         22    1    5    5    0    0  0.36403609213E+03  0.12230907594E+03  0.47431866271E+03  0.61029499443E+03  0.00000000000E+00 0.  1.
          5    1    4    4  502    0  0.18398689021E+02 -0.11668346941E+02  0.55870675528E+02  0.60152177533E+02  0.47000000000E+01 0.  1.
         -5    1    4    4    0  502  0.18386458049E+02 -0.32883963900E+01 -0.69229828863E+02  0.71859130212E+02  0.47000000000E+01 0.  1.
<mgrwt>
<rscale>  0 0.99975972E+03</rscale>
<asrwt>0</asrwt>
<pdfrwt beam="1">  1        2 0.16976391E+00 0.99975972E+03</pdfrwt>
<pdfrwt beam="2">  1       -2 0.34838479E-01 0.99975972E+03</pdfrwt>
<totfact> 0.20218260E+02</totfact>
</mgrwt>
</event>
<event>
 9    1  0.4246427E-036  0.9981427E+03  0.7818608E-02  0.8682809E-01
          2   -1    0    0  501    0  0.00000000000E+00  0.00000000000E+00  0.28082274733E+04  0.28082274733E+04  0.00000000000E+00 0. -1.
         -2   -1    0    0    0  501 -0.00000000000E+00 -0.00000000000E+00 -0.88693742386E+02  0.88693742386E+02  0.00000000000E+00 0. -1.
         36    2    1    2    0    0  0.28421709430E-13  0.14210854715E-13  0.27195337309E+04  0.28969212157E+04  0.99814268335E+03 0.  0.
         25    2    3    3    0    0  0.12331836519E+03  0.51041476047E+02  0.40405916963E+03  0.44347902478E+03  0.12488867598E+03 0.  0.
         35    2    3    3    0    0 -0.12331836519E+03 -0.51041476047E+02  0.23154745613E+04  0.24534421909E+04  0.80008967541E+03 0.  0.
         22    1    5    5    0    0 -0.38240914323E+03 -0.14467864856E+03  0.66876153784E+03  0.78384351669E+03  0.00000000000E+00 0.  1.
         22    1    5    5    0    0  0.25909077804E+03  0.93637172516E+02  0.16467130235E+04  0.16695986742E+04  0.00000000000E+00 0.  1.
          5    1    4    4  502    0  0.98996911771E+02 -0.67862105700E+01  0.33783306882E+03  0.35213593055E+03  0.47000000000E+01 0.  1.
         -5    1    4    4    0  502  0.24321453418E+02  0.57827686617E+02  0.66226100814E+02  0.91343094238E+02  0.47000000000E+01 0.  1.
<mgrwt>
<rscale>  0 0.99814268E+03</rscale>
<asrwt>0</asrwt>
<pdfrwt beam="1">  1        2 0.43203493E+00 0.99814268E+03</pdfrwt>
<pdfrwt beam="2">  1       -2 0.13645193E-01 0.99814268E+03</pdfrwt>
<totfact> 0.10466370E+02</totfact>
</mgrwt>
</event>
<event>
 9    1  0.4246427E-036  0.1000191E+04  0.7818608E-02  0.8680856E-01
          2   -1    0    0  501    0  0.00000000000E+00  0.00000000000E+00  0.15085674483E+04  0.15085674483E+04  0.00000000000E+00 0. -1.
         -2   -1    0    0    0  501 -0.00000000000E+00 -0.00000000000E+00 -0.16578349182E+03  0.16578349182E+03  0.00000000000E+00 0. -1.
         36    2    1    2    0    0  0.00000000000E+00 -0.56843418861E-13  0.13427839565E+04  0.16743509401E+04  0.10001911402E+04 0.  0.
         25    2    3    3    0    0 -0.10275209096E+03 -0.63764697707E+02  0.13487124218E+03  0.22040571843E+03  0.12555675961E+03 0.  0.
         35    2    3    3    0    0  0.10275209096E+03  0.63764697707E+02  0.12079127143E+04  0.14539452217E+04  0.80017476429E+03 0.  0.
         22    1    5    5    0    0  0.65203397438E+02  0.36459394442E+03  0.24411146970E+03  0.44358836435E+03  0.00000000000E+00 0.  1.
         22    1    5    5    0    0  0.37548693517E+02 -0.30082924671E+03  0.96380124458E+03  0.10103568573E+04  0.00000000000E+00 0.  1.
          5    1    4    4  502    0  0.56869038783E+01 -0.40178116448E+02  0.93222772726E+02  0.10178014183E+03  0.47000000000E+01 0.  1.
         -5    1    4    4    0  502 -0.10843899483E+03 -0.23586581259E+02  0.41648469451E+02  0.11862557660E+03  0.47000000000E+01 0.  1.
<mgrwt>
<rscale>  0 0.10001911E+04</rscale>
<asrwt>0</asrwt>
<pdfrwt beam="1">  1        2 0.23208729E+00 0.10001911E+04</pdfrwt>
<pdfrwt beam="2">  1       -2 0.25505154E-01 0.10001911E+04</pdfrwt>
<totfact> 0.20742387E+02</totfact>
</mgrwt>
</event>
<event>
 9    1  0.4246427E-036  0.9998807E+03  0.7818608E-02  0.8681152E-01
          4   -1    0    0  501    0  0.00000000000E+00  0.00000000000E+00  0.57392305462E+03  0.57392305462E+03  0.00000000000E+00 0.  1.
         -4   -1    0    0    0  501 -0.00000000000E+00 -0.00000000000E+00 -0.43549455710E+03  0.43549455710E+03  0.00000000000E+00 0.  1.
         36    2    1    2    0    0  0.00000000000E+00 -0.14210854715E-13  0.13842849752E+03  0.10094176117E+04  0.99988072585E+03 0.  0.
         25    2    3    3    0    0  0.66803857794E+02 -0.10791829360E+03  0.78410980796E+02  0.19834792516E+03  0.13070770443E+03 0.  0.
         35    2    3    3    0    0 -0.66803857794E+02  0.10791829360E+03  0.60017516729E+02  0.81106968656E+03  0.79882590133E+03 0.  0.
         22    1    5    5    0    0  0.37029463399E+02  0.32377145636E+03 -0.25608766497E+03  0.41446354395E+03  0.00000000000E+00 0. -1.
         22    1    5    5    0    0 -0.10383332119E+03 -0.21585316275E+03  0.31610518170E+03  0.39660614261E+03  0.00000000000E+00 0. -1.
          5    1    4    4  502    0  0.90815445106E+02 -0.70990179933E+02  0.86220275350E+01  0.11568699182E+03  0.47000000000E+01 0. -1.
         -5    1    4    4    0  502 -0.24011587312E+02 -0.36928113672E+02  0.69788953261E+02  0.82660933347E+02  0.47000000000E+01 0. -1.
<mgrwt>
<rscale>  0 0.99988073E+03</rscale>
<asrwt>0</asrwt>
<pdfrwt beam="1">  1        4 0.88295855E-01 0.99988073E+03</pdfrwt>
<pdfrwt beam="2">  1       -4 0.66999162E-01 0.99988073E+03</pdfrwt>
<totfact> 0.51946011E+00</totfact>
</mgrwt>
</event>
<event>
 9    1  0.4246427E-036  0.9985585E+03  0.7818608E-02  0.8682412E-01
          1   -1    0    0  501    0  0.00000000000E+00  0.00000000000E+00  0.10779511851E+04  0.10779511851E+04  0.00000000000E+00 0. -1.
         -1   -1    0    0    0  501 -0.00000000000E+00 -0.00000000000E+00 -0.23125329616E+03  0.23125329616E+03  0.00000000000E+00 0. -1.
         36    2    1    2    0    0  0.14210854715E-13  0.56843418861E-13  0.84669788894E+03  0.13092044813E+04  0.99855849032E+03 0.  0.
         25    2    3    3    0    0 -0.76382214255E+02 -0.11319267827E+03  0.19849892573E+03  0.27107827047E+03  0.12423679059E+03 0.  0.
         35    2    3    3    0    0  0.76382214255E+02  0.11319267827E+03  0.64819896321E+03  0.10381262108E+04  0.79931052072E+03 0.  0.
         22    1    5    5    0    0 -0.18358459637E+03  0.39002632173E+03  0.35066622832E+03  0.55568933708E+03  0.00000000000E+00 0.  1.
         22    1    5    5    0    0  0.25996681063E+03 -0.27683364345E+03  0.29753273489E+03  0.48243687370E+03  0.00000000000E+00 0.  1.
          5    1    4    4  502    0 -0.62824592001E+00 -0.97090676925E+02  0.65872480603E+02  0.11742345566E+03  0.47000000000E+01 0. -1.
         -5    1    4    4    0  502 -0.75753968335E+02 -0.16102001346E+02  0.13262644513E+03  0.15365481481E+03  0.47000000000E+01 0. -1.
<mgrwt>
<rscale>  0 0.99855849E+03</rscale>
<asrwt>0</asrwt>
<pdfrwt beam="1">  1        1 0.16583864E+00 0.99855849E+03</pdfrwt>
<pdfrwt beam="2">  1       -1 0.35577431E-01 0.99855849E+03</pdfrwt>
<totfact> 0.11044913E+02</totfact>
</mgrwt>
</event>
<event>
 9    1  0.4246427E-036  0.9991440E+03  0.7818608E-02  0.8681854E-01
         -2   -1    0    0    0  501 -0.00000000000E+00  0.00000000000E+00  0.44193008880E+03  0.44193008880E+03  0.00000000000E+00 0. -1.
          2   -1    0    0  501    0  0.00000000000E+00 -0.00000000000E+00 -0.56473221980E+03  0.56473221980E+03  0.00000000000E+00 0. -1.
         36    2    1    2    0    0  0.00000000000E+00  0.71054273576E-14 -0.12280213100E+03  0.10066623086E+04  0.99914395368E+03 0.  0.
         25    2    3    3    0    0  0.14197472216E+03  0.90626920100E+01 -0.29441900690E+02  0.19112180825E+03  0.12418440302E+03 0.  0.
         35    2    3    3    0    0 -0.14197472216E+03 -0.90626920100E+01 -0.93360230307E+02  0.81554050034E+03  0.79759088571E+03 0.  0.
         22    1    5    5    0    0 -0.73031132180E+02  0.12870660116E+03 -0.42491274028E+03  0.44994418798E+03  0.00000000000E+00 0. -1.
         22    1    5    5    0    0 -0.68943589985E+02 -0.13776929317E+03  0.33155250997E+03  0.36559631236E+03  0.00000000000E+00 0. -1.
          5    1    4    4  502    0  0.14469211527E+03 -0.18017822481E+02  0.62168394665E+01  0.14601777030E+03  0.47000000000E+01 0.  1.
         -5    1    4    4    0  502 -0.27173931095E+01  0.27080514491E+02 -0.35658740156E+02  0.45104037956E+02  0.47000000000E+01 0.  1.
<mgrwt>
<rscale>  0 0.99914395E+03</rscale>
<asrwt>0</asrwt>
<pdfrwt beam="1">  1        2 0.86881880E-01 0.99914395E+03</pdfrwt>
<pdfrwt beam="2">  1       -2 0.67989245E-01 0.99914395E+03</pdfrwt>
<totfact> 0.12783199E+02</totfact>
</mgrwt>
</event>
<event>
 9    1  0.4246427E-036  0.9999714E+03  0.7818608E-02  0.8681065E-01
         -2   -1    0    0    0  501 -0.00000000000E+00  0.00000000000E+00  0.41560795694E+03  0.41560795694E+03  0.00000000000E+00 0. -1.
          2   -1    0    0  501    0  0.00000000000E+00 -0.00000000000E+00 -0.60149398634E+03  0.60149398634E+03  0.00000000000E+00 0. -1.
         36    2    1    2    0    0 -0.71054273576E-14 -0.14210854715E-13 -0.18588602940E+03  0.10171019433E+04  0.99997137314E+03 0.  0.
         25    2    3    3    0    0  0.17830629138E+02 -0.88574719921E+02 -0.14328603972E+03  0.21061936743E+03  0.12516475708E+03 0.  0.
         35    2    3    3    0    0 -0.17830629138E+02  0.88574719921E+02 -0.42599989680E+02  0.80648257585E+03  0.80027243717E+03 0.  0.
         22    1    5    5    0    0 -0.14343313470E+03 -0.24906913811E+03 -0.25844009353E+03  0.38652267932E+03  0.00000000000E+00 0. -1.
         22    1    5    5    0    0  0.12560250556E+03  0.33764385803E+03  0.21584010385E+03  0.41995989653E+03  0.00000000000E+00 0. -1.
          5    1    4    4  502    0  0.58452178853E+02 -0.31291442096E+02 -0.21320061897E+02  0.69802912550E+02  0.47000000000E+01 0.  1.
         -5    1    4    4    0  502 -0.40621549715E+02 -0.57283277825E+02 -0.12196597782E+03  0.14081645488E+03  0.47000000000E+01 0.  1.
<mgrwt>
<rscale>  0 0.99997137E+03</rscale>
<asrwt>0</asrwt>
<pdfrwt beam="1">  1        2 0.92537536E-01 0.99997137E+03</pdfrwt>
<pdfrwt beam="2">  1       -2 0.63939686E-01 0.99997137E+03</pdfrwt>
<totfact> 0.13531101E+02</totfact>
</mgrwt>
</event>
<event>
 9    1  0.4246427E-036  0.1001413E+04  0.7818608E-02  0.8679694E-01
          1   -1    0    0  501    0  0.00000000000E+00  0.00000000000E+00  0.84995811741E+03  0.84995811741E+03  0.00000000000E+00 0. -1.
         -1   -1    0    0    0  501 -0.00000000000E+00 -0.00000000000E+00 -0.29496385997E+03  0.29496385997E+03  0.00000000000E+00 0. -1.
         36    2    1    2    0    0  0.28421709430E-13 -0.28421709430E-13  0.55499425744E+03  0.11449219774E+04  0.10014128562E+04 0.  0.
         25    2    3    3    0    0 -0.13849637415E+03  0.24976914391E+02  0.11664150873E+03  0.22130447008E+03  0.12476111179E+03 0.  0.
         35    2    3    3    0    0  0.13849637415E+03 -0.24976914391E+02  0.43835274871E+03  0.92361750729E+03  0.80069412110E+03 0.  0.
         22    1    5    5    0    0 -0.16409189706E+03 -0.33915206911E+03  0.20086247676E+03  0.42696136972E+03  0.00000000000E+00 0. -1.
         22    1    5    5    0    0  0.30258827121E+03  0.31417515472E+03  0.23749027195E+03  0.49665613757E+03  0.00000000000E+00 0. -1.
          5    1    4    4  502    0 -0.53708097222E+02 -0.65398803232E+01 -0.19568874859E+02  0.57726602231E+02  0.47000000000E+01 0. -1.
         -5    1    4    4    0  502 -0.84788276927E+02  0.31516794714E+02  0.13621038359E+03  0.16357786785E+03  0.47000000000E+01 0. -1.
<mgrwt>
<rscale>  0 0.10014129E+04</rscale>
<asrwt>0</asrwt>
<pdfrwt beam="1">  1        1 0.13076279E+00 0.10014129E+04</pdfrwt>
<pdfrwt beam="2">  1       -1 0.45379056E-01 0.10014129E+04</pdfrwt>
<totfact> 0.10946354E+02</totfact>
</mgrwt>
</event>
<event>
 9    1  0.4246427E-036  0.9980709E+03  0.7818608E-02  0.8682877E-01
          2   -1    0    0  501    0  0.00000000000E+00  0.00000000000E+00  0.10953677721E+04  0.10953677721E+04  0.00000000000E+00 0.  1.
         -2   -1    0    0    0  501 -0.00000000000E+00 -0.00000000000E+00 -0.22735411214E+03  0.22735411214E+03  0.00000000000E+00 0.  1.
         36    2    1    2    0    0  0.71054273576E-14  0.14210854715E-13  0.86801366000E+03  0.13227218843E+04  0.99807087385E+03 0.  0.
         25    2    3    3    0    0 -0.41625861307E+02 -0.12327613804E+03  0.81491247721E+02  0.19395622593E+03  0.11852626537E+03 0.  0.
         35    2    3    3    0    0  0.41625861307E+02  0.12327613804E+03  0.78652241228E+03  0.11287656584E+04  0.79910242643E+03 0.  0.
         22    1    5    5    0    0  0.35702667260E+03  0.10476083980E+03  0.71320278010E+03  0.80442593447E+03  0.00000000000E+00 0.  1.
         22    1    5    5    0    0 -0.31540081129E+03  0.18515298242E+02  0.73319632181E+02  0.32433972389E+03  0.00000000000E+00 0.  1.
          5    1    4    4  502    0  0.12267446884E+02 -0.95047086702E+02  0.49634558552E+01  0.96078951064E+02  0.47000000000E+01 0.  1.
         -5    1    4    4    0  502 -0.53893308191E+02 -0.28229051339E+02  0.76527791866E+02  0.97877274866E+02  0.47000000000E+01 0.  1.
<mgrwt>
<rscale>  0 0.99807087E+03</rscale>
<asrwt>0</asrwt>
<pdfrwt beam="1">  1        2 0.16851811E+00 0.99807087E+03</pdfrwt>
<pdfrwt beam="2">  1       -2 0.34977557E-01 0.99807087E+03</pdfrwt>
<totfact> 0.20297077E+02</totfact>
</mgrwt>
</event>
<event>
 9    1  0.4246427E-036  0.9995855E+03  0.7818608E-02  0.8681433E-01
          2   -1    0    0  501    0  0.00000000000E+00  0.00000000000E+00  0.24862140348E+03  0.24862140348E+03  0.00000000000E+00 0. -1.
         -2   -1    0    0    0  501 -0.00000000000E+00 -0.00000000000E+00 -0.10047115131E+04  0.10047115131E+04  0.00000000000E+00 0. -1.
         36    2    1    2    0    0  0.00000000000E+00  0.00000000000E+00 -0.75609010959E+03  0.12533329165E+04  0.99958548703E+03 0.  0.
         25    2    3    3    0    0 -0.11452785405E+03 -0.57109653314E+01 -0.24155627986E+03  0.29536342372E+03  0.12546262891E+03 0.  0.
         35    2    3    3    0    0  0.11452785405E+03  0.57109653314E+01 -0.51453382973E+03  0.95796949283E+03  0.79988201803E+03 0.  0.
         22    1    5    5    0    0  0.43708634379E+03 -0.56744334394E+02 -0.43641662785E+03  0.62026112604E+03  0.00000000000E+00 0.  1.
         22    1    5    5    0    0 -0.32255848974E+03  0.62455299725E+02 -0.78117201883E+02  0.33770836679E+03  0.00000000000E+00 0.  1.
          5    1    4    4  502    0 -0.26671195162E+02  0.55486126254E+02 -0.10453321816E+03  0.12140571056E+03  0.47000000000E+01 0.  1.
         -5    1    4    4    0  502 -0.87856658884E+02 -0.61197091585E+02 -0.13702306170E+03  0.17395771316E+03  0.47000000000E+01 0.  1.
<mgrwt>
<rscale>  0 0.99958549E+03</rscale>
<asrwt>0</asrwt>
<pdfrwt beam="1">  1        2 0.38249446E-01 0.99958549E+03</pdfrwt>
<pdfrwt beam="2">  1       -2 0.15457100E+00 0.99958549E+03</pdfrwt>
<totfact> 0.42230966E+01</totfact>
</mgrwt>
</event>
<event>
 9    1  0.4246427E-036  0.9999843E+03  0.7818608E-02  0.8681053E-01
          2   -1    0    0  501    0  0.00000000000E+00  0.00000000000E+00  0.99701261455E+03  0.99701261455E+03  0.00000000000E+00 0. -1.
         -2   -1    0    0    0  501 -0.00000000000E+00 -0.00000000000E+00 -0.25074122532E+03  0.25074122532E+03  0.00000000000E+00 0. -1.
         36    2    1    2    0    0  0.00000000000E+00  0.00000000000E+00  0.74627138923E+03  0.12477538399E+04  0.99998432914E+03 0.  0.
         25    2    3    3    0    0  0.51708339349E+02  0.47236183617E+02 -0.11924150124E+02  0.14410532052E+03  0.12537602899E+03 0.  0.
         35    2    3    3    0    0 -0.51708339349E+02 -0.47236183617E+02  0.75819553935E+03  0.11036485193E+04  0.79892087778E+03 0.  0.
         22    1    5    5    0    0 -0.10841121587E+03  0.11497301546E+02  0.91786608207E+03  0.92431776153E+03  0.00000000000E+00 0. -1.
         22    1    5    5    0    0  0.56702876520E+02 -0.58733485164E+02 -0.15967054272E+03  0.17933075781E+03  0.00000000000E+00 0. -1.
          5    1    4    4  502    0  0.66999473666E+02  0.60483368287E+02 -0.48103795143E+02  0.10238765755E+03  0.47000000000E+01 0. -1.
         -5    1    4    4    0  502 -0.15291134317E+02 -0.13247184670E+02  0.36179645019E+02  0.41717662975E+02  0.47000000000E+01 0. -1.
<mgrwt>
<rscale>  0 0.99998433E+03</rscale>
<asrwt>0</asrwt>
<pdfrwt beam="1">  1        2 0.15338655E+00 0.99998433E+03</pdfrwt>
<pdfrwt beam="2">  1       -2 0.38575574E-01 0.99998433E+03</pdfrwt>
<totfact> 0.19414228E+02</totfact>
</mgrwt>
</event>
<event>
 9    1  0.4246427E-036  0.9987294E+03  0.7818608E-02  0.8682249E-01
          3   -1    0    0  501    0  0.00000000000E+00  0.00000000000E+00  0.42356365742E+03  0.42356365742E+03  0.00000000000E+00 0.  1.
         -3   -1    0    0    0  501 -0.00000000000E+00 -0.00000000000E+00 -0.58873112835E+03  0.58873112835E+03  0.00000000000E+00 0.  1.
         36    2    1    2    0    0 -0.17763568394E-13  0.35527136788E-14 -0.16516747093E+03  0.10122947858E+04  0.99872941272E+03 0.  0.
         25    2    3    3    0    0  0.16036484258E+02  0.22381178943E+02  0.99447191504E+02  0.16786933917E+03  0.13240953568E+03 0.  0.
         35    2    3    3    0    0 -0.16036484258E+02 -0.22381178943E+02 -0.26461466243E+03  0.84442544659E+03  0.80142081909E+03 0.  0.
         22    1    5    5    0    0  0.33983294135E+03 -0.20726348334E+03 -0.96481805647E+02  0.40957699932E+03  0.00000000000E+00 0. -1.
         22    1    5    5    0    0 -0.35586942561E+03  0.18488230440E+03 -0.16813285679E+03  0.43484844727E+03  0.00000000000E+00 0. -1.
          5    1    4    4  502    0  0.30685240171E+02  0.24168991738E+02  0.12880351458E+03  0.13467798444E+03  0.47000000000E+01 0.  1.
         -5    1    4    4    0  502 -0.14648755912E+02 -0.17878127945E+01 -0.29356323074E+02  0.33191354730E+02  0.47000000000E+01 0.  1.
<mgrwt>
<rscale>  0 0.99872941E+03</rscale>
<asrwt>0</asrwt>
<pdfrwt beam="1">  1        3 0.65163640E-01 0.99872941E+03</pdfrwt>
<pdfrwt beam="2">  1       -3 0.90574019E-01 0.99872941E+03</pdfrwt>
<totfact> 0.95110086E+00</totfact>
</mgrwt>
</event>
<event>
 9    1  0.4246427E-036  0.9972212E+03  0.7818608E-02  0.8683689E-01
         -1   -1    0    0    0  501 -0.00000000000E+00  0.00000000000E+00  0.14506999294E+03  0.14506999294E+03  0.00000000000E+00 0. -1.
          1   -1    0    0  501    0  0.00000000000E+00 -0.00000000000E+00 -0.17137420637E+04  0.17137420637E+04  0.00000000000E+00 0. -1.
         36    2    1    2    0    0  0.00000000000E+00 -0.39079850467E-13 -0.15686720708E+04  0.18588120567E+04  0.99722123741E+03 0.  0.
         25    2    3    3    0    0 -0.13586472770E+03 -0.25152800833E+02 -0.29765152436E+03  0.35077222933E+03  0.12390657486E+03 0.  0.
         35    2    3    3    0    0  0.13586472770E+03  0.25152800833E+02 -0.12710205464E+04  0.15080398274E+04  0.79974933809E+03 0.  0.
         22    1    5    5    0    0  0.26249679605E+02 -0.37462171869E+03 -0.43347466964E+03  0.57352486172E+03  0.00000000000E+00 0.  1.
         22    1    5    5    0    0  0.10961504810E+03  0.39977451952E+03 -0.83754587681E+03  0.93451496563E+03  0.00000000000E+00 0.  1.
          5    1    4    4  502    0 -0.15067941463E+03 -0.31999696111E+02 -0.20440540498E+03  0.25599204310E+03  0.47000000000E+01 0. -1.
         -5    1    4    4    0  502  0.14814686922E+02  0.68468952776E+01 -0.93246119379E+02  0.94780186236E+02  0.47000000000E+01 0. -1.
<mgrwt>
<rscale>  0 0.99722124E+03</rscale>
<asrwt>0</asrwt>
<pdfrwt beam="1">  1        1 0.26365262E+00 0.99722124E+03</pdfrwt>
<pdfrwt beam="2">  1       -1 0.22318461E-01 0.99722124E+03</pdfrwt>
<totfact> 0.84347402E+01</totfact>
</mgrwt>
</event>
<event>
 9    1  0.4246427E-036  0.9991316E+03  0.7818608E-02  0.8681865E-01
         -2   -1    0    0    0  501 -0.00000000000E+00  0.00000000000E+00  0.43093051297E+03  0.43093051297E+03  0.00000000000E+00 0. -1.
          2   -1    0    0  501    0  0.00000000000E+00 -0.00000000000E+00 -0.57913281493E+03  0.57913281493E+03  0.00000000000E+00 0. -1.
         36    2    1    2    0    0  0.14210854715E-13  0.00000000000E+00 -0.14820230197E+03  0.10100633279E+04  0.99913162499E+03 0.  0.
         25    2    3    3    0    0 -0.55967888333E+02  0.82273131022E+02  0.70422359677E+02  0.17492956116E+03  0.12545824011E+03 0.  0.
         35    2    3    3    0    0  0.55967888333E+02 -0.82273131022E+02 -0.21862466164E+03  0.83513376674E+03  0.79984398045E+03 0.  0.
         22    1    5    5    0    0  0.37551563861E+03  0.14781231300E+03 -0.49493630156E+02  0.40658344056E+03  0.00000000000E+00 0.  1.
         22    1    5    5    0    0 -0.31954775028E+03 -0.23008544402E+03 -0.16913103149E+03  0.42855032618E+03  0.00000000000E+00 0.  1.
          5    1    4    4  502    0 -0.56419524040E+02  0.56217634406E+02 -0.18707780778E+02  0.81949107211E+02  0.47000000000E+01 0. -1.
         -5    1    4    4    0  502  0.45163570657E+00  0.26055496616E+02  0.89130140454E+02  0.92980453947E+02  0.47000000000E+01 0. -1.
<mgrwt>
<rscale>  0 0.99913162E+03</rscale>
<asrwt>0</asrwt>
<pdfrwt beam="1">  1        2 0.89097356E-01 0.99913162E+03</pdfrwt>
<pdfrwt beam="2">  1       -2 0.66297002E-01 0.99913162E+03</pdfrwt>
<totfact> 0.13100981E+02</totfact>
</mgrwt>
</event>
<event>
 9    1  0.4246427E-036  0.1001047E+04  0.7818608E-02  0.8680042E-01
          2   -1    0    0  501    0  0.00000000000E+00  0.00000000000E+00  0.90619277563E+03  0.90619277563E+03  0.00000000000E+00 0.  1.
         -2   -1    0    0    0  501 -0.00000000000E+00 -0.00000000000E+00 -0.27645722662E+03  0.27645722662E+03  0.00000000000E+00 0.  1.
         36    2    1    2    0    0  0.00000000000E+00  0.28421709430E-13  0.62973554900E+03  0.11826500022E+04  0.10010465355E+04 0.  0.
         25    2    3    3    0    0  0.22646745501E+02 -0.13873697095E+03  0.83951452519E+02  0.20456386418E+03  0.12262832445E+03 0.  0.
         35    2    3    3    0    0 -0.22646745501E+02  0.13873697095E+03  0.54578409649E+03  0.97808613807E+03  0.79938188078E+03 0.  0.
         22    1    5    5    0    0  0.20543092070E+03  0.40783034694E+03  0.27161942093E+03  0.53132340894E+03  0.00000000000E+00 0.  1.
         22    1    5    5    0    0 -0.22807766620E+03 -0.26909337599E+03  0.27416467555E+03  0.44676272913E+03  0.00000000000E+00 0.  1.
          5    1    4    4  502    0  0.70410113055E+02 -0.10948932900E+03  0.61386064794E+02  0.14399943103E+03  0.47000000000E+01 0.  1.
         -5    1    4    4    0  502 -0.47763367554E+02 -0.29247641949E+02  0.22565387725E+02  0.60564433151E+02  0.47000000000E+01 0.  1.
<mgrwt>
<rscale>  0 0.10010465E+04</rscale>
<asrwt>0</asrwt>
<pdfrwt beam="1">  1        2 0.13941427E+00 0.10010465E+04</pdfrwt>
<pdfrwt beam="2">  1       -2 0.42531882E-01 0.10010465E+04</pdfrwt>
<totfact> 0.18410704E+02</totfact>
</mgrwt>
</event>
<event>
 9    1  0.4246427E-036  0.1000449E+04  0.7818608E-02  0.8680610E-01
         -2   -1    0    0    0  501 -0.00000000000E+00  0.00000000000E+00  0.38593650111E+03  0.38593650111E+03  0.00000000000E+00 0. -1.
          2   -1    0    0  501    0  0.00000000000E+00 -0.00000000000E+00 -0.64835739796E+03  0.64835739796E+03  0.00000000000E+00 0. -1.
         36    2    1    2    0    0  0.00000000000E+00 -0.28421709430E-13 -0.26242089685E+03  0.10342938991E+04  0.10004494703E+04 0.  0.
         25    2    3    3    0    0  0.19658462424E+02  0.10866771124E+03  0.38779050943E+02  0.17249710397E+03  0.12671349366E+03 0.  0.
         35    2    3    3    0    0 -0.19658462424E+02 -0.10866771124E+03 -0.30119994779E+03  0.86179679510E+03  0.79986072593E+03 0.  0.
         22    1    5    5    0    0  0.16436813468E+03 -0.37261446692E+03  0.19207951121E+02  0.40770990918E+03  0.00000000000E+00 0. -1.
         22    1    5    5    0    0 -0.18402659711E+03  0.26394675568E+03 -0.32040789891E+03  0.45408688592E+03  0.00000000000E+00 0. -1.
          5    1    4    4  502    0  0.52386059239E+02  0.41234273280E+02 -0.27558255707E+02  0.72291852605E+02  0.47000000000E+01 0.  1.
         -5    1    4    4    0  502 -0.32727596815E+02  0.67433437955E+02  0.66337306650E+02  0.10020525137E+03  0.47000000000E+01 0.  1.
<mgrwt>
<rscale>  0 0.10004495E+04</rscale>
<asrwt>0</asrwt>
<pdfrwt beam="1">  1        2 0.99747291E-01 0.10004495E+04</pdfrwt>
<pdfrwt beam="2">  1       -2 0.59374847E-01 0.10004495E+04</pdfrwt>
<totfact> 0.14450843E+02</totfact>
</mgrwt>
</event>
<event>
 9    1  0.4246427E-036  0.1000026E+04  0.7818608E-02  0.8681014E-01
          2   -1    0    0  501    0  0.00000000000E+00  0.00000000000E+00  0.13328784461E+04  0.13328784461E+04  0.00000000000E+00 0.  1.
         -2   -1    0    0    0  501 -0.00000000000E+00 -0.00000000000E+00 -0.18757356166E+03  0.18757356166E+03  0.00000000000E+00 0.  1.
         36    2    1    2    0    0 -0.14210854715E-13  0.00000000000E+00  0.11453048845E+04  0.15204520078E+04  0.10000255145E+04 0.  0.
         25    2    3    3    0    0 -0.12048193977E+03  0.66735669179E+02  0.16377934223E+03  0.24770976719E+03  0.12476741749E+03 0.  0.
         35    2    3    3    0    0  0.12048193977E+03 -0.66735669179E+02  0.98152554224E+03  0.12727422406E+04  0.79844278042E+03 0.  0.
         22    1    5    5    0    0  0.43104950902E+03  0.12034530819E+03  0.53052543542E+03  0.69407774065E+03  0.00000000000E+00 0. -1.
         22    1    5    5    0    0 -0.31056756925E+03 -0.18708097737E+03  0.45100010682E+03  0.57866449996E+03  0.00000000000E+00 0. -1.
          5    1    4    4  502    0 -0.56313888491E+02  0.49341310685E+02  0.46233305458E+01  0.75161720060E+02  0.47000000000E+01 0.  1.
         -5    1    4    4    0  502 -0.64168051280E+02  0.17394358494E+02  0.15915601169E+03  0.17254804713E+03  0.47000000000E+01 0.  1.
<mgrwt>
<rscale>  0 0.10000255E+04</rscale>
<asrwt>0</asrwt>
<pdfrwt beam="1">  1        2 0.20505822E+00 0.10000255E+04</pdfrwt>
<pdfrwt beam="2">  1       -2 0.28857472E-01 0.10000255E+04</pdfrwt>
<totfact> 0.20931534E+02</totfact>
</mgrwt>
</event>
<event>
 9    1  0.4246427E-036  0.1000125E+04  0.7818608E-02  0.8680919E-01
          2   -1    0    0  501    0  0.00000000000E+00  0.00000000000E+00  0.28088331395E+03  0.28088331395E+03  0.00000000000E+00 0. -1.
         -2   -1    0    0    0  501 -0.00000000000E+00 -0.00000000000E+00 -0.89027232178E+03  0.89027232178E+03  0.00000000000E+00 0. -1.
         36    2    1    2    0    0  0.71054273576E-14  0.14210854715E-13 -0.60938900783E+03  0.11711556357E+04  0.10001252723E+04 0.  0.
         25    2    3    3    0    0  0.51377080145E+02  0.12254850266E+03 -0.16670100110E+03  0.24687976793E+03  0.12450966299E+03 0.  0.
         35    2    3    3    0    0 -0.51377080145E+02 -0.12254850266E+03 -0.44268800673E+03  0.92427586779E+03  0.80040956304E+03 0.  0.
         22    1    5    5    0    0 -0.44195181580E+02 -0.39598143142E+03 -0.50547992774E+03  0.64363379763E+03  0.00000000000E+00 0.  1.
         22    1    5    5    0    0 -0.71818985654E+01  0.27343292876E+03  0.62791921008E+02  0.28064207016E+03  0.00000000000E+00 0.  1.
          5    1    4    4  502    0 -0.84072147782E+00  0.12829303858E+03 -0.10617977289E+03  0.16660145477E+03  0.47000000000E+01 0.  1.
         -5    1    4    4    0  502  0.52217801623E+02 -0.57445359289E+01 -0.60521228211E+02  0.80278313158E+02  0.47000000000E+01 0.  1.
<mgrwt>
<rscale>  0 0.10001253E+04</rscale>
<asrwt>0</asrwt>
<pdfrwt beam="1">  1        2 0.43212817E-01 0.10001253E+04</pdfrwt>
<pdfrwt beam="2">  1       -2 0.13696497E+00 0.10001253E+04</pdfrwt>
<totfact> 0.51485883E+01</totfact>
</mgrwt>
</event>
<event>
 9    1  0.4246427E-036  0.9985815E+03  0.7818608E-02  0.8682390E-01
         -2   -1    0    0    0  501 -0.00000000000E+00  0.00000000000E+00  0.48256313035E+03  0.48256313035E+03  0.00000000000E+00 0.  1.
          2   -1    0    0  501    0  0.00000000000E+00 -0.00000000000E+00 -0.51659821387E+03  0.51659821387E+03  0.00000000000E+00 0.  1.
         36    2    1    2    0    0  0.00000000000E+00  0.14210854715E-13 -0.34035083512E+02  0.99916134422E+03  0.99858149636E+03 0.  0.
         25    2    3    3    0    0  0.40632698795E+02 -0.12068716750E+03 -0.59764108926E+02  0.18804467154E+03  0.12479038893E+03 0.  0.
         35    2    3    3    0    0 -0.40632698795E+02  0.12068716750E+03  0.25729025413E+02  0.81111667267E+03  0.80064465609E+03 0.  0.
         22    1    5    5    0    0  0.77415146112E+02 -0.32443432214E+03 -0.69887830002E+02  0.34078591962E+03  0.00000000000E+00 0.  1.
         22    1    5    5    0    0 -0.11804784491E+03  0.44512148964E+03  0.95616855415E+02  0.47033075305E+03  0.00000000000E+00 0.  1.
          5    1    4    4  502    0 -0.34887127454E+02 -0.84370403052E+02 -0.14112848567E+02  0.92502643571E+02  0.47000000000E+01 0.  1.
         -5    1    4    4    0  502  0.75519826249E+02 -0.36316764449E+02 -0.45651260359E+02  0.95542027972E+02  0.47000000000E+01 0.  1.
<mgrwt>
<rscale>  0 0.99858150E+03</rscale>
<asrwt>0</asrwt>
<pdfrwt beam="1">  1        2 0.79476648E-01 0.99858150E+03</pdfrwt>
<pdfrwt beam="2">  1       -2 0.74240481E-01 0.99858150E+03</pdfrwt>
<totfact> 0.11698317E+02</totfact>
</mgrwt>
</event>
<event>
 9    1  0.4246427E-036  0.9998667E+03  0.7818608E-02  0.8681165E-01
          1   -1    0    0  501    0  0.00000000000E+00  0.00000000000E+00  0.14525506446E+04  0.14525506446E+04  0.00000000000E+00 0. -1.
         -1   -1    0    0    0  501 -0.00000000000E+00 -0.00000000000E+00 -0.17206514951E+03  0.17206514951E+03  0.00000000000E+00 0. -1.
         36    2    1    2    0    0 -0.28421709430E-13 -0.71054273576E-14  0.12804854951E+04  0.16246157941E+04  0.99986667878E+03 0.  0.
         25    2    3    3    0    0 -0.12662466018E+03 -0.48997123018E+02  0.17432480526E+03  0.25286766730E+03  0.12295689004E+03 0.  0.
         35    2    3    3    0    0  0.12662466018E+03  0.48997123018E+02  0.11061606898E+04  0.13717481268E+04  0.79979180356E+03 0.  0.
         22    1    5    5    0    0 -0.30019190889E+03 -0.63699170834E+02  0.20728498327E+03  0.37032395388E+03  0.00000000000E+00 0.  1.
         22    1    5    5    0    0  0.42681656907E+03  0.11269629385E+03  0.89887570657E+03  0.10014241729E+04  0.00000000000E+00 0.  1.
          5    1    4    4  502    0 -0.57745474738E+02 -0.19845885920E+02 -0.20041445318E+01  0.61274020889E+02  0.47000000000E+01 0. -1.
         -5    1    4    4    0  502 -0.68879185437E+02 -0.29151237098E+02  0.17632894979E+03  0.19159364641E+03  0.47000000000E+01 0. -1.
<mgrwt>
<rscale>  0 0.99986668E+03</rscale>
<asrwt>0</asrwt>
<pdfrwt beam="1">  1        1 0.22346932E+00 0.99986668E+03</pdfrwt>
<pdfrwt beam="2">  1       -1 0.26471563E-01 0.99986668E+03</pdfrwt>
<totfact> 0.97032240E+01</totfact>
</mgrwt>
</event>
<event>
 9    1  0.4246427E-036  0.9996720E+03  0.7818608E-02  0.8681350E-01
         -2   -1    0    0    0  501 -0.00000000000E+00  0.00000000000E+00  0.66711964364E+03  0.66711964364E+03  0.00000000000E+00 0. -1.
          2   -1    0    0  501    0  0.00000000000E+00 -0.00000000000E+00 -0.37449959148E+03  0.37449959148E+03  0.00000000000E+00 0. -1.
         36    2    1    2    0    0  0.42632564146E-13  0.00000000000E+00  0.29262005215E+03  0.10416192351E+04  0.99967201424E+03 0.  0.
         25    2    3    3    0    0 -0.70655502331E+02  0.10426005105E+03  0.18619496637E+02  0.17739254371E+03  0.12352761090E+03 0.  0.
         35    2    3    3    0    0  0.70655502331E+02 -0.10426005105E+03  0.27400055552E+03  0.86422669141E+03  0.80990685358E+03 0.  0.
         22    1    5    5    0    0 -0.23070872956E+03 -0.63848411268E+02  0.45230230850E+03  0.51174262651E+03  0.00000000000E+00 0.  1.
         22    1    5    5    0    0  0.30136423189E+03 -0.40411639783E+02 -0.17830175298E+03  0.35248406490E+03  0.00000000000E+00 0.  1.
          5    1    4    4  502    0 -0.58790035059E+02  0.12869788667E+03  0.34315902319E+02  0.14566772260E+03  0.47000000000E+01 0. -1.
         -5    1    4    4    0  502 -0.11865467272E+02 -0.24437835618E+02 -0.15696405682E+02  0.31724821112E+02  0.47000000000E+01 0. -1.
<mgrwt>
<rscale>  0 0.99967201E+03</rscale>
<asrwt>0</asrwt>
<pdfrwt beam="1">  1        2 0.57615322E-01 0.99967201E+03</pdfrwt>
<pdfrwt beam="2">  1       -2 0.10263379E+00 0.99967201E+03</pdfrwt>
<totfact> 0.78840303E+01</totfact>
</mgrwt>
</event>
<event>
 9    1  0.4246427E-036  0.1000566E+04  0.7818608E-02  0.8680499E-01
          2   -1    0    0  501    0  0.00000000000E+00  0.00000000000E+00  0.19602303491E+03  0.19602303491E+03  0.00000000000E+00 0.  1.
         -2   -1    0    0    0  501 -0.00000000000E+00 -0.00000000000E+00 -0.12768038887E+04  0.12768038887E+04  0.00000000000E+00 0.  1.
         36    2    1    2    0    0  0.00000000000E+00 -0.14210854715E-13 -0.10807808538E+04  0.14728269236E+04  0.10005657864E+04 0.  0.
         25    2    3    3    0    0  0.19835584279E+02 -0.80420296545E+02 -0.36818646298E+03  0.39878944908E+03  0.12888319781E+03 0.  0.
         35    2    3    3    0    0 -0.19835584279E+02  0.80420296545E+02 -0.71259439082E+03  0.10740374745E+04  0.79931524217E+03 0.  0.
         22    1    5    5    0    0  0.43250458322E+02 -0.31243741028E+03 -0.77832042473E+02  0.32487776828E+03  0.00000000000E+00 0.  1.
         22    1    5    5    0    0 -0.63086042602E+02  0.39285770683E+03 -0.63476234834E+03  0.74915970624E+03  0.00000000000E+00 0.  1.
          5    1    4    4  502    0  0.25269673279E+02 -0.32625026552E+02 -0.17971283861E+02  0.45254897953E+02  0.47000000000E+01 0.  1.
         -5    1    4    4    0  502 -0.54340889995E+01 -0.47795269993E+02 -0.35021517912E+03  0.35353455113E+03  0.47000000000E+01 0.  1.
<mgrwt>
<rscale>  0 0.10005658E+04</rscale>
<asrwt>0</asrwt>
<pdfrwt beam="1">  1        2 0.30157389E-01 0.10005658E+04</pdfrwt>
<pdfrwt beam="2">  1       -2 0.19643137E+00 0.10005658E+04</pdfrwt>
<totfact> 0.27125118E+01</totfact>
</mgrwt>
</event>
<event>
 9    1  0.4246427E-036  0.9999010E+03  0.7818608E-02  0.8681132E-01
          1   -1    0    0  501    0  0.00000000000E+00  0.00000000000E+00  0.20366945830E+04  0.20366945830E+04  0.00000000000E+00 0.  1.
         -1   -1    0    0    0  501 -0.00000000000E+00 -0.00000000000E+00 -0.12272361225E+03  0.12272361225E+03  0.00000000000E+00 0.  1.
         36    2    1    2    0    0  0.71054273576E-14  0.28421709430E-13  0.19139709707E+04  0.21594181952E+04  0.99990102767E+03 0.  0.
         25    2    3    3    0    0  0.59508691180E+01 -0.94574909869E+02  0.58298397419E+03  0.60352295830E+03  0.12405571576E+03 0.  0.
         35    2    3    3    0    0 -0.59508691180E+01  0.94574909869E+02  0.13309869965E+04  0.15558952369E+04  0.80018983807E+03 0.  0.
         22    1    5    5    0    0 -0.13311533324E+03  0.14144929382E+03 -0.22594529217E+02  0.19554566581E+03  0.00000000000E+00 0. -1.
         22    1    5    5    0    0  0.12716446412E+03 -0.46874383952E+02  0.13535815257E+04  0.13603495711E+04  0.00000000000E+00 0. -1.
          5    1    4    4  502    0  0.32839804193E+02 -0.10989624509E+03  0.34755552216E+03  0.36602263373E+03  0.47000000000E+01 0. -1.
         -5    1    4    4    0  502 -0.26888935075E+02  0.15321335218E+02  0.23542845203E+03  0.23750032456E+03  0.47000000000E+01 0. -1.
<mgrwt>
<rscale>  0 0.99990103E+03</rscale>
<asrwt>0</asrwt>
<pdfrwt beam="1">  1        1 0.31333760E+00 0.99990103E+03</pdfrwt>
<pdfrwt beam="2">  1       -1 0.18880557E-01 0.99990103E+03</pdfrwt>
<totfact> 0.66012882E+01</totfact>
</mgrwt>
</event>
<event>
 9    1  0.4246427E-036  0.1000105E+04  0.7818608E-02  0.8680938E-01
         -2   -1    0    0    0  501 -0.00000000000E+00  0.00000000000E+00  0.22395116532E+03  0.22395116532E+03  0.00000000000E+00 0. -1.
          2   -1    0    0  501    0  0.00000000000E+00 -0.00000000000E+00 -0.11165496981E+04  0.11165496981E+04  0.00000000000E+00 0. -1.
         36    2    1    2    0    0 -0.28421709430E-13 -0.39079850467E-13 -0.89259853280E+03  0.13405008634E+04  0.10001052065E+04 0.  0.
         25    2    3    3    0    0  0.14225002500E+03 -0.81611630916E+01 -0.19283536134E+03  0.26891610550E+03  0.12177323604E+03 0.  0.
         35    2    3    3    0    0 -0.14225002500E+03  0.81611630916E+01 -0.69976317146E+03  0.10715847579E+04  0.79895164004E+03 0.  0.
         22    1    5    5    0    0 -0.27563882995E+03 -0.33840514229E+03 -0.42910525994E+03  0.61206709519E+03  0.00000000000E+00 0.  1.
         22    1    5    5    0    0  0.13338880495E+03  0.34656630538E+03 -0.27065791152E+03  0.45951766275E+03  0.00000000000E+00 0.  1.
          5    1    4    4  502    0  0.15983852301E+03  0.52721140451E+01 -0.14467528765E+03  0.21570622958E+03  0.47000000000E+01 0. -1.
         -5    1    4    4    0  502 -0.17588498007E+02 -0.13433277137E+02 -0.48160073690E+02  0.53209875912E+02  0.47000000000E+01 0. -1.
<mgrwt>
<rscale>  0 0.10001052E+04</rscale>
<asrwt>0</asrwt>
<pdfrwt beam="1">  1        2 0.17177687E+00 0.10001052E+04</pdfrwt>
<pdfrwt beam="2">  1       -2 0.34454026E-01 0.10001052E+04</pdfrwt>
<totfact> 0.20268022E+02</totfact>
</mgrwt>
</event>
<event>
 9    1  0.4246427E-036  0.1001040E+04  0.7818608E-02  0.8680048E-01
         -2   -1    0    0    0  501 -0.00000000000E+00  0.00000000000E+00  0.22897936192E+03  0.22897936192E+03  0.00000000000E+00 0.  1.
          2   -1    0    0  501    0  0.00000000000E+00 -0.00000000000E+00 -0.10940745370E+04  0.10940745370E+04  0.00000000000E+00 0.  1.
         36    2    1    2    0    0 -0.28421709430E-13  0.00000000000E+00 -0.86509517509E+03  0.13230538989E+04  0.10010404375E+04 0.  0.
         25    2    3    3    0    0  0.54444883969E+02  0.12982955048E+03 -0.11493824379E+03  0.22052385239E+03  0.12490000809E+03 0.  0.
         35    2    3    3    0    0 -0.54444883969E+02 -0.12982955048E+03 -0.75015693131E+03  0.11025300466E+04  0.79562373293E+03 0.  0.
         22    1    5    5    0    0  0.36572035816E+03  0.79427741968E+01 -0.34006505590E+03  0.49945841696E+03  0.00000000000E+00 0. -1.
         22    1    5    5    0    0 -0.42016524213E+03 -0.13777232467E+03 -0.41009187541E+03  0.60307162959E+03  0.00000000000E+00 0. -1.
          5    1    4    4  502    0  0.53165183674E+02  0.48528569316E+02 -0.11879960862E+03  0.13898559567E+03  0.47000000000E+01 0.  1.
         -5    1    4    4    0  502  0.12797002955E+01  0.81300981161E+02  0.38613648343E+01  0.81538256720E+02  0.47000000000E+01 0.  1.
<mgrwt>
<rscale>  0 0.10010404E+04</rscale>
<asrwt>0</asrwt>
<pdfrwt beam="1">  1        2 0.16831916E+00 0.10010404E+04</pdfrwt>
<pdfrwt beam="2">  1       -2 0.35227594E-01 0.10010404E+04</pdfrwt>
<totfact> 0.20064727E+02</totfact>
</mgrwt>
</event>
<event>
 9    1  0.4246427E-036  0.9995941E+03  0.7818608E-02  0.8681425E-01
         -2   -1    0    0    0  501 -0.00000000000E+00  0.00000000000E+00  0.22585667341E+03  0.22585667341E+03  0.00000000000E+00 0.  1.
          2   -1    0    0  501    0  0.00000000000E+00 -0.00000000000E+00 -0.11059981960E+04  0.11059981960E+04  0.00000000000E+00 0.  1.
         36    2    1    2    0    0  0.00000000000E+00  0.28421709430E-13 -0.88014152263E+03  0.13318548695E+04  0.99959406432E+03 0.  0.
         25    2    3    3    0    0 -0.30430071383E+02  0.10924111956E+03 -0.54660409905E+02  0.17738071877E+03  0.12496618557E+03 0.  0.
         35    2    3    3    0    0  0.30430071383E+02 -0.10924111956E+03 -0.82548111273E+03  0.11544741507E+04  0.79908190173E+03 0.  0.
         22    1    5    5    0    0 -0.83069117989E+02 -0.39154944780E+03 -0.73519432013E+03  0.83709147456E+03  0.00000000000E+00 0.  1.
         22    1    5    5    0    0  0.11349918937E+03  0.28230832824E+03 -0.90286792596E+02  0.31738267612E+03  0.00000000000E+00 0.  1.
          5    1    4    4  502    0  0.37214933698E+02  0.54832236593E+02 -0.61026032870E+02  0.90209712048E+02  0.47000000000E+01 0. -1.
         -5    1    4    4    0  502 -0.67645005082E+02  0.54408882964E+02  0.63656229651E+01  0.87171006726E+02  0.47000000000E+01 0. -1.
<mgrwt>
<rscale>  0 0.99959406E+03</rscale>
<asrwt>0</asrwt>
<pdfrwt beam="1">  1        2 0.17015357E+00 0.99959406E+03</pdfrwt>
<pdfrwt beam="2">  1       -2 0.34747180E-01 0.99959406E+03</pdfrwt>
<totfact> 0.20245815E+02</totfact>
</mgrwt>
</event>
<event>
 9    1  0.4246427E-036  0.1001549E+04  0.7818608E-02  0.8679565E-01
          2   -1    0    0  501    0  0.00000000000E+00  0.00000000000E+00  0.16765161088E+04  0.16765161088E+04  0.00000000000E+00 0.  1.
         -2   -1    0    0    0  501 -0.00000000000E+00 -0.00000000000E+00 -0.14958095960E+03  0.14958095960E+03  0.00000000000E+00 0.  1.
         36    2    1    2    0    0 -0.28421709430E-13  0.71054273576E-14  0.15269351492E+04  0.18260970684E+04  0.10015485776E+04 0.  0.
         25    2    3    3    0    0 -0.10049872933E+03  0.56092335437E+02  0.42822143013E+03  0.46080786112E+03  0.12539516319E+03 0.  0.
         35    2    3    3    0    0  0.10049872933E+03 -0.56092335437E+02  0.10987137190E+04  0.13652892073E+04  0.80224462502E+03 0.  0.
         22    1    5    5    0    0 -0.25507118590E+03 -0.19289950235E+02  0.54442548883E+02  0.26152897198E+03  0.00000000000E+00 0.  1.
         22    1    5    5    0    0  0.35556991523E+03 -0.36802385203E+02  0.10442711702E+04  0.11037602353E+04  0.00000000000E+00 0.  1.
          5    1    4    4  502    0 -0.50678404006E+02 -0.24302686723E+02  0.67994127029E+02  0.88341454170E+02  0.47000000000E+01 0.  1.
         -5    1    4    4    0  502 -0.49820325321E+02  0.80395022160E+02  0.36022730310E+03  0.37246640695E+03  0.47000000000E+01 0.  1.
<mgrwt>
<rscale>  0 0.10015486E+04</rscale>
<asrwt>0</asrwt>
<pdfrwt beam="1">  1        2 0.25792554E+00 0.10015486E+04</pdfrwt>
<pdfrwt beam="2">  1       -2 0.23012456E-01 0.10015486E+04</pdfrwt>
<totfact> 0.20000045E+02</totfact>
</mgrwt>
</event>
<event>
 9    1  0.4246427E-036  0.9998274E+03  0.7818608E-02  0.8681202E-01
          2   -1    0    0  501    0  0.00000000000E+00  0.00000000000E+00  0.13330848467E+04  0.13330848467E+04  0.00000000000E+00 0.  1.
         -2   -1    0    0    0  501 -0.00000000000E+00 -0.00000000000E+00 -0.18747022510E+03  0.18747022510E+03  0.00000000000E+00 0.  1.
         36    2    1    2    0    0  0.00000000000E+00  0.00000000000E+00  0.11456146216E+04  0.15205550718E+04  0.99982741766E+03 0.  0.
         25    2    3    3    0    0  0.11416627648E+03  0.98957412301E+00  0.33374724264E+03  0.37433864839E+03  0.12532870288E+03 0.  0.
         35    2    3    3    0    0 -0.11416627648E+03 -0.98957412301E+00  0.81186737892E+03  0.11462164234E+04  0.80102966880E+03 0.  0.
         22    1    5    5    0    0 -0.15517363739E+02 -0.23411324519E+03 -0.56810953389E+02  0.24140688594E+03  0.00000000000E+00 0. -1.
         22    1    5    5    0    0 -0.98648912740E+02  0.23312367107E+03  0.86867833231E+03  0.90480953743E+03  0.00000000000E+00 0. -1.
          5    1    4    4  502    0  0.93608381797E+02  0.53889334325E+02  0.25662579479E+03  0.27846988715E+03  0.47000000000E+01 0.  1.
         -5    1    4    4    0  502  0.20557894682E+02 -0.52899760202E+02  0.77121447853E+02  0.95868761242E+02  0.47000000000E+01 0.  1.
<mgrwt>
<rscale>  0 0.99982742E+03</rscale>
<asrwt>0</asrwt>
<pdfrwt beam="1">  1        2 0.20508997E+00 0.99982742E+03</pdfrwt>
<pdfrwt beam="2">  1       -2 0.28841574E-01 0.99982742E+03</pdfrwt>
<totfact> 0.20946714E+02</totfact>
</mgrwt>
</event>
<event>
 9    1  0.4246427E-036  0.9995614E+03  0.7818608E-02  0.8681456E-01
          1   -1    0    0  501    0  0.00000000000E+00  0.00000000000E+00  0.23820286328E+03  0.23820286328E+03  0.00000000000E+00 0.  1.
         -1   -1    0    0    0  501 -0.00000000000E+00 -0.00000000000E+00 -0.10486051795E+04  0.10486051795E+04  0.00000000000E+00 0.  1.
         36    2    1    2    0    0 -0.56843418861E-13  0.00000000000E+00 -0.81040231626E+03  0.12868080428E+04  0.99956141626E+03 0.  0.
         25    2    3    3    0    0 -0.10733590550E+03  0.67560611989E+02 -0.79923647059E+02  0.19606682293E+03  0.12636841691E+03 0.  0.
         35    2    3    3    0    0  0.10733590550E+03 -0.67560611989E+02 -0.73047866920E+03  0.10907412199E+04  0.80001993083E+03 0.  0.
         22    1    5    5    0    0  0.26832104473E+03 -0.37560134268E+03 -0.44121840446E+03  0.63855010148E+03  0.00000000000E+00 0. -1.
         22    1    5    5    0    0 -0.16098513922E+03  0.30804073069E+03 -0.28926026474E+03  0.45219111842E+03  0.00000000000E+00 0. -1.
          5    1    4    4  502    0 -0.13018054190E+02  0.26404300111E+02 -0.87828769627E+02  0.92750415489E+02  0.47000000000E+01 0.  1.
         -5    1    4    4    0  502 -0.94317851311E+02  0.41156311878E+02  0.79051225674E+01  0.10331640744E+03  0.47000000000E+01 0.  1.
<mgrwt>
<rscale>  0 0.99956142E+03</rscale>
<asrwt>0</asrwt>
<pdfrwt beam="1">  1        1 0.36646596E-01 0.99956142E+03</pdfrwt>
<pdfrwt beam="2">  1       -1 0.16132387E+00 0.99956142E+03</pdfrwt>
<totfact> 0.39007022E+01</totfact>
</mgrwt>
</event>
<event>
 9    1  0.4246427E-036  0.9997129E+03  0.7818608E-02  0.8681311E-01
          1   -1    0    0  501    0  0.00000000000E+00  0.00000000000E+00  0.22728279874E+03  0.22728279874E+03  0.00000000000E+00 0.  1.
         -1   -1    0    0    0  501 -0.00000000000E+00 -0.00000000000E+00 -0.10993198482E+04  0.10993198482E+04  0.00000000000E+00 0.  1.
         36    2    1    2    0    0  0.14210854715E-13  0.00000000000E+00 -0.87203704951E+03  0.13266026470E+04  0.99971294243E+03 0.  0.
         25    2    3    3    0    0  0.71552778157E+02 -0.84812263119E+02 -0.50088152909E+02  0.17417109192E+03  0.12455451080E+03 0.  0.
         35    2    3    3    0    0 -0.71552778157E+02  0.84812263119E+02 -0.82194889660E+03  0.11524315551E+04  0.80011597937E+03 0.  0.
         22    1    5    5    0    0 -0.45653385255E+02  0.71053805566E+02  0.15421510652E+03  0.17582711380E+03  0.00000000000E+00 0. -1.
         22    1    5    5    0    0 -0.25899392903E+02  0.13758457554E+02 -0.97616400312E+03  0.97660444126E+03  0.00000000000E+00 0. -1.
          5    1    4    4  502    0  0.97706451622E+02 -0.79521227941E+02 -0.66464270043E+02  0.14251233481E+03  0.47000000000E+01 0. -1.
         -5    1    4    4    0  502 -0.26153673465E+02 -0.52910351777E+01  0.16376117134E+02  0.31658757103E+02  0.47000000000E+01 0. -1.
<mgrwt>
<rscale>  0 0.99971294E+03</rscale>
<asrwt>0</asrwt>
<pdfrwt beam="1">  1        1 0.34966585E-01 0.99971294E+03</pdfrwt>
<pdfrwt beam="2">  1       -1 0.16912613E+00 0.99971294E+03</pdfrwt>
<totfact> 0.35675536E+01</totfact>
</mgrwt>
</event>
<event>
 9    1  0.4246427E-036  0.1000164E+04  0.7818608E-02  0.8680881E-01
         -3   -1    0    0    0  501 -0.00000000000E+00  0.00000000000E+00  0.12393019032E+04  0.12393019032E+04  0.00000000000E+00 0. -1.
          3   -1    0    0  501    0  0.00000000000E+00 -0.00000000000E+00 -0.20179279910E+03  0.20179279910E+03  0.00000000000E+00 0. -1.
         36    2    1    2    0    0 -0.14210854715E-13  0.00000000000E+00  0.10375091041E+04  0.14410947023E+04  0.10001643864E+04 0.  0.
         25    2    3    3    0    0 -0.90612134098E+02 -0.71780061272E+02  0.31068240778E+03  0.35423986580E+03  0.12489750988E+03 0.  0.
         35    2    3    3    0    0  0.90612134098E+02  0.71780061272E+02  0.72682669627E+03  0.10868548365E+04  0.79975837168E+03 0.  0.
         22    1    5    5    0    0  0.40596325420E+03  0.11000168698E+03  0.18655964471E+03  0.46012067540E+03  0.00000000000E+00 0.  1.
         22    1    5    5    0    0 -0.31535112010E+03 -0.38221625708E+02  0.54026705156E+03  0.62673416105E+03  0.00000000000E+00 0.  1.
          5    1    4    4  502    0 -0.39356924508E+02  0.34096966250E+02  0.88277932991E+02  0.10259948376E+03  0.47000000000E+01 0.  1.
         -5    1    4    4    0  502 -0.51255209590E+02 -0.10587702752E+03  0.22240447479E+03  0.25164038204E+03  0.47000000000E+01 0.  1.
<mgrwt>
<rscale>  0 0.10001644E+04</rscale>
<asrwt>0</asrwt>
<pdfrwt beam="1">  1        3 0.31045047E-01 0.10001644E+04</pdfrwt>
<pdfrwt beam="2">  1       -3 0.19066183E+00 0.10001644E+04</pdfrwt>
<totfact> 0.48571471E+00</totfact>
</mgrwt>
</event>
<event>
 9    1  0.4246427E-036  0.1000128E+04  0.7818608E-02  0.8680916E-01
         -1   -1    0    0    0  501 -0.00000000000E+00  0.00000000000E+00  0.25486379636E+03  0.25486379636E+03  0.00000000000E+00 0.  1.
          1   -1    0    0  501    0  0.00000000000E+00 -0.00000000000E+00 -0.98116706662E+03  0.98116706662E+03  0.00000000000E+00 0.  1.
         36    2    1    2    0    0  0.00000000000E+00  0.00000000000E+00 -0.72630327026E+03  0.12360308630E+04  0.10001279187E+04 0.  0.
         25    2    3    3    0    0  0.12931869078E+03 -0.36535775228E+02 -0.17192020042E+03  0.25454966153E+03  0.13107550577E+03 0.  0.
         35    2    3    3    0    0 -0.12931869078E+03  0.36535775228E+02 -0.55438306983E+03  0.98148120145E+03  0.79869053709E+03 0.  0.
         22    1    5    5    0    0 -0.13909848672E+03 -0.35148329910E+03 -0.43303630119E+03  0.57481243610E+03  0.00000000000E+00 0. -1.
         22    1    5    5    0    0  0.97797959425E+01  0.38801907433E+03 -0.12134676865E+03  0.40666876535E+03  0.00000000000E+00 0. -1.
          5    1    4    4  502    0 -0.18052842823E+02  0.21756986764E+02 -0.33409392055E+02  0.44017599714E+02  0.47000000000E+01 0.  1.
         -5    1    4    4    0  502  0.14737153360E+03 -0.58292761992E+02 -0.13851080837E+03  0.21053206181E+03  0.47000000000E+01 0.  1.
<mgrwt>
<rscale>  0 0.10001279E+04</rscale>
<asrwt>0</asrwt>
<pdfrwt beam="1">  1        1 0.15094878E+00 0.10001279E+04</pdfrwt>
<pdfrwt beam="2">  1       -1 0.39209815E-01 0.10001279E+04</pdfrwt>
<totfact> 0.11086750E+02</totfact>
</mgrwt>
</event>
<event>
 9    1  0.4246427E-036  0.9995848E+03  0.7818608E-02  0.8681433E-01
         -2   -1    0    0    0  501 -0.00000000000E+00  0.00000000000E+00  0.65521173571E+03  0.65521173571E+03  0.00000000000E+00 0.  1.
          2   -1    0    0  501    0  0.00000000000E+00 -0.00000000000E+00 -0.38123930353E+03  0.38123930353E+03  0.00000000000E+00 0.  1.
         36    2    1    2    0    0  0.14210854715E-13 -0.28421709430E-13  0.27397243218E+03  0.10364510392E+04  0.99958484539E+03 0.  0.
         25    2    3    3    0    0  0.40509990359E+02  0.13569484809E+03  0.42270809287E+02  0.19288252790E+03  0.12394634781E+03 0.  0.
         35    2    3    3    0    0 -0.40509990359E+02 -0.13569484809E+03  0.23170162290E+03  0.84356851134E+03  0.79866641356E+03 0.  0.
         22    1    5    5    0    0 -0.28746262366E+03 -0.26033116148E+03  0.36849388395E+03  0.53497179005E+03  0.00000000000E+00 0.  1.
         22    1    5    5    0    0  0.24695263330E+03  0.12463631339E+03 -0.13679226105E+03  0.30859672129E+03  0.00000000000E+00 0.  1.
          5    1    4    4  502    0  0.72813150314E+02  0.69796188033E+02 -0.11721234914E+02  0.10165008643E+03  0.47000000000E+01 0.  1.
         -5    1    4    4    0  502 -0.32303159955E+02  0.65898660055E+02  0.53992044201E+02  0.91232441472E+02  0.47000000000E+01 0.  1.
<mgrwt>
<rscale>  0 0.99958485E+03</rscale>
<asrwt>0</asrwt>
<pdfrwt beam="1">  1        2 0.58652201E-01 0.99958485E+03</pdfrwt>
<pdfrwt beam="2">  1       -2 0.10080181E+00 0.99958485E+03</pdfrwt>
<totfact> 0.80775332E+01</totfact>
</mgrwt>
</event>
<event>
 9    1  0.4246427E-036  0.1000272E+04  0.7818608E-02  0.8680779E-01
         -1   -1    0    0    0  501 -0.00000000000E+00  0.00000000000E+00  0.18073154996E+03  0.18073154996E+03  0.00000000000E+00 0.  1.
          1   -1    0    0  501    0  0.00000000000E+00 -0.00000000000E+00 -0.13840203713E+04  0.13840203713E+04  0.00000000000E+00 0.  1.
         36    2    1    2    0    0 -0.28421709430E-13  0.00000000000E+00 -0.12032888213E+04  0.15647519212E+04  0.10002722567E+04 0.  0.
         25    2    3    3    0    0  0.10272066582E+03  0.74468010669E+02 -0.12716430223E+03  0.21843174195E+03  0.12427649145E+03 0.  0.
         35    2    3    3    0    0 -0.10272066582E+03 -0.74468010669E+02 -0.10761245191E+04  0.13463201793E+04  0.79902254336E+03 0.  0.
         22    1    5    5    0    0 -0.20683982746E+03 -0.14325447920E+03  0.11204898729E+02  0.25185334977E+03  0.00000000000E+00 0. -1.
         22    1    5    5    0    0  0.10411916164E+03  0.68786468532E+02 -0.10873294178E+04  0.10944668295E+04  0.00000000000E+00 0. -1.
          5    1    4    4  502    0  0.78805598378E+02 -0.17757299833E+01 -0.11188082397E+03  0.13694117104E+03  0.47000000000E+01 0. -1.
         -5    1    4    4    0  502  0.23915067443E+02  0.76243740652E+02 -0.15283478260E+02  0.81490570910E+02  0.47000000000E+01 0. -1.
<mgrwt>
<rscale>  0 0.10002723E+04</rscale>
<asrwt>0</asrwt>
<pdfrwt beam="1">  1        1 0.21292621E+00 0.10002723E+04</pdfrwt>
<pdfrwt beam="2">  1       -1 0.27804853E-01 0.10002723E+04</pdfrwt>
<totfact> 0.99994673E+01</totfact>
</mgrwt>
</event>
<event>
 9    1  0.4246427E-036  0.9970989E+03  0.7818608E-02  0.8683806E-01
          2   -1    0    0  501    0  0.00000000000E+00  0.00000000000E+00  0.34449643581E+03  0.34449643581E+03  0.00000000000E+00 0.  1.
         -2   -1    0    0    0  501 -0.00000000000E+00 -0.00000000000E+00 -0.72149232398E+03  0.72149232398E+03  0.00000000000E+00 0.  1.
         36    2    1    2    0    0  0.00000000000E+00 -0.14210854715E-13 -0.37699588816E+03  0.10659887598E+04  0.99709885985E+03 0.  0.
         25    2    3    3    0    0 -0.79694115720E+02 -0.28300096736E+02 -0.18635414176E+03  0.23866649307E+03  0.12280790370E+03 0.  0.
         35    2    3    3    0    0  0.79694115720E+02  0.28300096736E+02 -0.19064174641E+03  0.82732226672E+03  0.80060340368E+03 0.  0.
         22    1    5    5    0    0 -0.72683271494E+02  0.27763119117E+03  0.19242585474E+03  0.34552806809E+03  0.00000000000E+00 0. -1.
         22    1    5    5    0    0  0.15237738721E+03 -0.24933109444E+03 -0.38306760115E+03  0.48179419863E+03  0.00000000000E+00 0. -1.
          5    1    4    4  502    0  0.14973703790E+02  0.32506250544E+02 -0.53002945051E+02  0.64126985846E+02  0.47000000000E+01 0. -1.
         -5    1    4    4    0  502 -0.94667819510E+02 -0.60806347280E+02 -0.13335119671E+03  0.17453950723E+03  0.47000000000E+01 0. -1.
<mgrwt>
<rscale>  0 0.99709886E+03</rscale>
<asrwt>0</asrwt>
<pdfrwt beam="1">  1        2 0.52999452E-01 0.99709886E+03</pdfrwt>
<pdfrwt beam="2">  1       -2 0.11099882E+00 0.99709886E+03</pdfrwt>
<totfact> 0.71199883E+01</totfact>
</mgrwt>
</event>
<event>
 9    1  0.4246427E-036  0.1000385E+04  0.7818608E-02  0.8680672E-01
         -2   -1    0    0    0  501 -0.00000000000E+00  0.00000000000E+00  0.14943753429E+03  0.14943753429E+03  0.00000000000E+00 0.  1.
          2   -1    0    0  501    0  0.00000000000E+00 -0.00000000000E+00 -0.16742273481E+04  0.16742273481E+04  0.00000000000E+00 0.  1.
         36    2    1    2    0    0 -0.56843418861E-13  0.00000000000E+00 -0.15247898138E+04  0.18236648824E+04  0.10003847395E+04 0.  0.
         25    2    3    3    0    0 -0.65481044187E+02  0.12410431042E+03 -0.20737544689E+03  0.27918301441E+03  0.12348656830E+03 0.  0.
         35    2    3    3    0    0  0.65481044187E+02 -0.12410431042E+03 -0.13174143669E+04  0.15444818680E+04  0.79382238527E+03 0.  0.
         22    1    5    5    0    0  0.33304508563E+03  0.96451878945E+02 -0.26496217896E+03  0.43637936511E+03  0.00000000000E+00 0.  1.
         22    1    5    5    0    0 -0.26756404144E+03 -0.22055618936E+03 -0.10524521879E+04  0.11081025029E+04  0.00000000000E+00 0.  1.
          5    1    4    4  502    0 -0.14178340909E+01 -0.20114221176E+02 -0.29855160070E+01  0.20918782298E+02  0.47000000000E+01 0.  1.
         -5    1    4    4    0  502 -0.64063210096E+02  0.14421853159E+03 -0.20438993088E+03  0.25826423211E+03  0.47000000000E+01 0.  1.
<mgrwt>
<rscale>  0 0.10003847E+04</rscale>
<asrwt>0</asrwt>
<pdfrwt beam="1">  1        2 0.25757346E+00 0.10003847E+04</pdfrwt>
<pdfrwt beam="2">  1       -2 0.22990388E-01 0.10003847E+04</pdfrwt>
<totfact> 0.20093376E+02</totfact>
</mgrwt>
</event>
<event>
 9    1  0.4246427E-036  0.9997087E+03  0.7818608E-02  0.8681315E-01
          2   -1    0    0  501    0  0.00000000000E+00  0.00000000000E+00  0.11563358233E+04  0.11563358233E+04  0.00000000000E+00 0.  1.
         -2   -1    0    0    0  501 -0.00000000000E+00 -0.00000000000E+00 -0.21607422923E+03  0.21607422923E+03  0.00000000000E+00 0.  1.
         36    2    1    2    0    0  0.00000000000E+00 -0.14210854715E-13  0.94026159409E+03  0.13724100525E+04  0.99970870108E+03 0.  0.
         25    2    3    3    0    0 -0.50827206965E+02 -0.12284934352E+03  0.11595229067E+03  0.21622268038E+03  0.12502778742E+03 0.  0.
         35    2    3    3    0    0  0.50827206965E+02  0.12284934352E+03  0.82430930342E+03  0.11561873722E+04  0.79975499104E+03 0.  0.
         22    1    5    5    0    0 -0.68457888785E+02  0.19075668964E+02 -0.15166508089E+03  0.16748928457E+03  0.00000000000E+00 0. -1.
         22    1    5    5    0    0  0.11928509575E+03  0.10377367456E+03  0.97597438431E+03  0.98869808760E+03  0.00000000000E+00 0. -1.
          5    1    4    4  502    0 -0.75483841759E+02 -0.12950634148E+03  0.74873469688E+02  0.16762407140E+03  0.47000000000E+01 0.  1.
         -5    1    4    4    0  502  0.24656634794E+02  0.66569979603E+01  0.41078820979E+02  0.48598608974E+02  0.47000000000E+01 0.  1.
<mgrwt>
<rscale>  0 0.99970870E+03</rscale>
<asrwt>0</asrwt>
<pdfrwt beam="1">  1        2 0.17789782E+00 0.99970870E+03</pdfrwt>
<pdfrwt beam="2">  1       -2 0.33242190E-01 0.99970870E+03</pdfrwt>
<totfact> 0.20502084E+02</totfact>
</mgrwt>
</event>
<event>
 9    1  0.4246427E-036  0.1000616E+04  0.7818608E-02  0.8680451E-01
          2   -1    0    0  501    0  0.00000000000E+00  0.00000000000E+00  0.97436316847E+03  0.97436316847E+03  0.00000000000E+00 0.  1.
         -2   -1    0    0    0  501 -0.00000000000E+00 -0.00000000000E+00 -0.25689407592E+03  0.25689407592E+03  0.00000000000E+00 0.  1.
         36    2    1    2    0    0  0.00000000000E+00  0.14210854715E-13  0.71746909256E+03  0.12312572444E+04  0.10006160618E+04 0.  0.
         25    2    3    3    0    0 -0.71727429810E+02  0.11972440242E+03  0.14965361625E+03  0.24022355647E+03  0.12582684731E+03 0.  0.
         35    2    3    3    0    0  0.71727429810E+02 -0.11972440242E+03  0.56781547631E+03  0.99103368792E+03  0.80015910839E+03 0.  0.
         22    1    5    5    0    0  0.33110919424E+02  0.26411603671E+03 -0.41961965890E+02  0.26947062997E+03  0.00000000000E+00 0. -1.
         22    1    5    5    0    0  0.38616510386E+02 -0.38384043914E+03  0.60977744220E+03  0.72156305796E+03  0.00000000000E+00 0. -1.
          5    1    4    4  502    0 -0.30772165770E+02  0.11545728617E+03  0.45181285413E+02  0.12783094175E+03  0.47000000000E+01 0.  1.
         -5    1    4    4    0  502 -0.40955264040E+02  0.42671162501E+01  0.10447233083E+03  0.11239261472E+03  0.47000000000E+01 0.  1.
<mgrwt>
<rscale>  0 0.10006161E+04</rscale>
<asrwt>0</asrwt>
<pdfrwt beam="1">  1        2 0.14990202E+00 0.10006161E+04</pdfrwt>
<pdfrwt beam="2">  1       -2 0.39522166E-01 0.10006161E+04</pdfrwt>
<totfact> 0.19158941E+02</totfact>
</mgrwt>
</event>
<event>
 9    1  0.4246427E-036  0.9995873E+03  0.7818608E-02  0.8681431E-01
          2   -1    0    0  501    0  0.00000000000E+00  0.00000000000E+00  0.13582239070E+04  0.13582239070E+04  0.00000000000E+00 0.  1.
         -2   -1    0    0    0  501 -0.00000000000E+00 -0.00000000000E+00 -0.18391200591E+03  0.18391200591E+03  0.00000000000E+00 0.  1.
         36    2    1    2    0    0  0.14210854715E-13  0.00000000000E+00  0.11743119011E+04  0.15421359129E+04  0.99958728125E+03 0.  0.
         25    2    3    3    0    0  0.65507078954E+02  0.98184959440E+02  0.10180498303E+03  0.19906750624E+03  0.12382307465E+03 0.  0.
         35    2    3    3    0    0 -0.65507078954E+02 -0.98184959440E+02  0.10725069180E+04  0.13430684067E+04  0.79976883664E+03 0.  0.
         22    1    5    5    0    0 -0.22419951544E+03 -0.36996544807E+03  0.35513413779E+03  0.55969644569E+03  0.00000000000E+00 0. -1.
         22    1    5    5    0    0  0.15869243649E+03  0.27178048863E+03  0.71737278025E+03  0.78337196097E+03  0.00000000000E+00 0. -1.
          5    1    4    4  502    0  0.23725840159E+02 -0.28585942184E+02  0.20143206307E+02  0.42519528950E+02  0.47000000000E+01 0. -1.
         -5    1    4    4    0  502  0.41781238795E+02  0.12677090162E+03  0.81661776727E+02  0.15654797729E+03  0.47000000000E+01 0. -1.
<mgrwt>
<rscale>  0 0.99958728E+03</rscale>
<asrwt>0</asrwt>
<pdfrwt beam="1">  1        2 0.20895752E+00 0.99958728E+03</pdfrwt>
<pdfrwt beam="2">  1       -2 0.28294156E-01 0.99958728E+03</pdfrwt>
<totfact> 0.20975191E+02</totfact>
</mgrwt>
</event>
<event>
 9    1  0.4246427E-036  0.1005994E+04  0.7818608E-02  0.8675351E-01
          2   -1    0    0  501    0  0.00000000000E+00  0.00000000000E+00  0.17746194501E+04  0.17746194501E+04  0.00000000000E+00 0.  1.
         -2   -1    0    0    0  501 -0.00000000000E+00 -0.00000000000E+00 -0.14256917918E+03  0.14256917918E+03  0.00000000000E+00 0.  1.
         36    2    1    2    0    0  0.00000000000E+00 -0.71054273576E-14  0.16320502709E+04  0.19171886293E+04  0.10059941120E+04 0.  0.
         25    2    3    3    0    0  0.12468789097E+03 -0.47908013285E+02  0.19615759878E+03  0.26796509448E+03  0.12443970592E+03 0.  0.
         35    2    3    3    0    0 -0.12468789097E+03  0.47908013285E+02  0.14358926722E+04  0.16492235348E+04  0.80019263554E+03 0.  0.
         22    1    5    5    0    0  0.18464531233E+03  0.10909344589E+03  0.40006151359E+02  0.21816453297E+03  0.00000000000E+00 0. -1.
         22    1    5    5    0    0 -0.30933320330E+03 -0.61185432607E+02  0.13958865208E+04  0.14310590018E+04  0.00000000000E+00 0. -1.
          5    1    4    4  502    0  0.11573517306E+03 -0.51042910610E+01  0.19133091507E+03  0.22371922835E+03  0.47000000000E+01 0.  1.
         -5    1    4    4    0  502  0.89527179121E+01 -0.42803722224E+02  0.48266837097E+01  0.44245866133E+02  0.47000000000E+01 0.  1.
<mgrwt>
<rscale>  0 0.10059941E+04</rscale>
<asrwt>0</asrwt>
<pdfrwt beam="1">  1        2 0.27301836E+00 0.10059941E+04</pdfrwt>
<pdfrwt beam="2">  1       -2 0.21933721E-01 0.10059941E+04</pdfrwt>
<totfact> 0.19155483E+02</totfact>
</mgrwt>
</event>
<event>
 9    1  0.4246427E-036  0.9974942E+03  0.7818608E-02  0.8683428E-01
          2   -1    0    0  501    0  0.00000000000E+00  0.00000000000E+00  0.33891135002E+03  0.33891135002E+03  0.00000000000E+00 0. -1.
         -2   -1    0    0    0  501 -0.00000000000E+00 -0.00000000000E+00 -0.73396384961E+03  0.73396384961E+03  0.00000000000E+00 0. -1.
         36    2    1    2    0    0  0.28421709430E-13 -0.14210854715E-13 -0.39505249959E+03  0.10728751996E+04  0.99749421880E+03 0.  0.
         25    2    3    3    0    0 -0.36179380532E+02 -0.71377567907E+02 -0.19394548770E+03  0.24465457598E+03  0.12584635304E+03 0.  0.
         35    2    3    3    0    0  0.36179380532E+02  0.71377567907E+02 -0.20110701189E+03  0.82822062365E+03  0.79943834436E+03 0.  0.
         22    1    5    5    0    0 -0.36036753423E+03  0.16440089589E+03 -0.95860665669E+02  0.40753120312E+03  0.00000000000E+00 0.  1.
         22    1    5    5    0    0  0.39654691476E+03 -0.93023327980E+02 -0.10524634622E+03  0.42068942053E+03  0.00000000000E+00 0.  1.
          5    1    4    4  502    0 -0.76482444796E+02 -0.18704686610E+02 -0.77594021910E+02  0.11064516211E+03  0.47000000000E+01 0.  1.
         -5    1    4    4    0  502  0.40303064264E+02 -0.52672881297E+02 -0.11635146579E+03  0.13400941387E+03  0.47000000000E+01 0.  1.
<mgrwt>
<rscale>  0 0.99749422E+03</rscale>
<asrwt>0</asrwt>
<pdfrwt beam="1">  1        2 0.52140208E-01 0.99749422E+03</pdfrwt>
<pdfrwt beam="2">  1       -2 0.11291752E+00 0.99749422E+03</pdfrwt>
<totfact> 0.69420455E+01</totfact>
</mgrwt>
</event>
<event>
 9    1  0.4246427E-036  0.1000033E+04  0.7818608E-02  0.8681007E-01
          1   -1    0    0  501    0  0.00000000000E+00  0.00000000000E+00  0.77026599038E+03  0.77026599038E+03  0.00000000000E+00 0.  1.
         -1   -1    0    0    0  501 -0.00000000000E+00 -0.00000000000E+00 -0.32458435293E+03  0.32458435293E+03  0.00000000000E+00 0.  1.
         36    2    1    2    0    0  0.00000000000E+00  0.00000000000E+00  0.44568163745E+03  0.10948503433E+04  0.10000325756E+04 0.  0.
         25    2    3    3    0    0  0.81537194666E+02 -0.11430880810E+03  0.71617608378E+02  0.20133017668E+03  0.12525949261E+03 0.  0.
         35    2    3    3    0    0 -0.81537194666E+02  0.11430880810E+03  0.37406402907E+03  0.89352016663E+03  0.79921184464E+03 0.  0.
         22    1    5    5    0    0 -0.32395673372E+03  0.90342804483E+02  0.51275038546E+03  0.61320693524E+03  0.00000000000E+00 0. -1.
         22    1    5    5    0    0  0.24241953905E+03  0.23966003622E+02 -0.13868635639E+03  0.28031323139E+03  0.00000000000E+00 0. -1.
          5    1    4    4  502    0  0.59138388351E+02 -0.13167831910E+03  0.87136537661E+02  0.16867541283E+03  0.47000000000E+01 0.  1.
         -5    1    4    4    0  502  0.22398806315E+02  0.17369510990E+02 -0.15518929283E+02  0.32654763856E+02  0.47000000000E+01 0.  1.
<mgrwt>
<rscale>  0 0.10000326E+04</rscale>
<asrwt>0</asrwt>
<pdfrwt beam="1">  1        1 0.11850246E+00 0.10000326E+04</pdfrwt>
<pdfrwt beam="2">  1       -1 0.49936055E-01 0.10000326E+04</pdfrwt>
<totfact> 0.10793143E+02</totfact>
</mgrwt>
</event>
<event>
 9    1  0.4246427E-036  0.1000956E+04  0.7818608E-02  0.8680128E-01
          2   -1    0    0  501    0  0.00000000000E+00  0.00000000000E+00  0.58471773907E+03  0.58471773907E+03  0.00000000000E+00 0.  1.
         -2   -1    0    0    0  501 -0.00000000000E+00 -0.00000000000E+00 -0.42837436756E+03  0.42837436756E+03  0.00000000000E+00 0.  1.
         36    2    1    2    0    0  0.00000000000E+00  0.14210854715E-13  0.15634337151E+03  0.10130921066E+04  0.10009557267E+04 0.  0.
         25    2    3    3    0    0  0.81410147182E+02  0.92511160610E+02  0.98334896844E+02  0.20129149162E+03  0.12515025274E+03 0.  0.
         35    2    3    3    0    0 -0.81410147182E+02 -0.92511160610E+02  0.58008474662E+02  0.81180061501E+03  0.80029327656E+03 0.  0.
         22    1    5    5    0    0 -0.83267538073E+02  0.19699327716E+02 -0.36462007326E+03  0.37452549211E+03  0.00000000000E+00 0.  1.
         22    1    5    5    0    0  0.18573908909E+01 -0.11221048833E+03  0.42262854793E+03  0.43727512291E+03  0.00000000000E+00 0.  1.
          5    1    4    4  502    0  0.81371965612E+02  0.40831190159E+02  0.11503447629E+03  0.14677739476E+03  0.47000000000E+01 0. -1.
         -5    1    4    4    0  502  0.38181570012E-01  0.51679970452E+02 -0.16699579441E+02  0.54514096867E+02  0.47000000000E+01 0. -1.
<mgrwt>
<rscale>  0 0.10009557E+04</rscale>
<asrwt>0</asrwt>
<pdfrwt beam="1">  1        2 0.89956575E-01 0.10009557E+04</pdfrwt>
<pdfrwt beam="2">  1       -2 0.65903749E-01 0.10009557E+04</pdfrwt>
<totfact> 0.13118885E+02</totfact>
</mgrwt>
</event>
<event>
 9    1  0.4246427E-036  0.1000599E+04  0.7818608E-02  0.8680468E-01
          1   -1    0    0  501    0  0.00000000000E+00  0.00000000000E+00  0.93981144980E+03  0.93981144980E+03  0.00000000000E+00 0. -1.
         -1   -1    0    0    0  501 -0.00000000000E+00 -0.00000000000E+00 -0.26632968086E+03  0.26632968086E+03  0.00000000000E+00 0. -1.
         36    2    1    2    0    0 -0.28421709430E-13  0.71054273576E-14  0.67348176894E+03  0.12061411307E+04  0.10005991875E+04 0.  0.
         25    2    3    3    0    0  0.13345396888E+03  0.22635588857E+02  0.57917350673E+02  0.18742982552E+03  0.11598787994E+03 0.  0.
         35    2    3    3    0    0 -0.13345396888E+03 -0.22635588857E+02  0.61556441827E+03  0.10187113051E+04  0.80033170529E+03 0.  0.
         22    1    5    5    0    0 -0.63853758184E+02 -0.14283566366E+03  0.78453278757E+03  0.79998188980E+03  0.00000000000E+00 0. -1.
         22    1    5    5    0    0 -0.69600210694E+02  0.12020007480E+03 -0.16896836930E+03  0.21872941534E+03  0.00000000000E+00 0. -1.
          5    1    4    4  502    0  0.90494645983E+02  0.34739566812E+02  0.89925827374E+02  0.13230594425E+03  0.47000000000E+01 0.  1.
         -5    1    4    4    0  502  0.42959322895E+02 -0.12103977956E+02 -0.32008476701E+02  0.55123881274E+02  0.47000000000E+01 0.  1.
<mgrwt>
<rscale>  0 0.10005992E+04</rscale>
<asrwt>0</asrwt>
<pdfrwt beam="1">  1        1 0.14458638E+00 0.10005992E+04</pdfrwt>
<pdfrwt beam="2">  1       -1 0.40973798E-01 0.10005992E+04</pdfrwt>
<totfact> 0.11070939E+02</totfact>
</mgrwt>
</event>
<event>
 9    1  0.4246427E-036  0.1002944E+04  0.7818608E-02  0.8678240E-01
         -2   -1    0    0    0  501 -0.00000000000E+00  0.00000000000E+00  0.42544830908E+03  0.42544830908E+03  0.00000000000E+00 0.  1.
          2   -1    0    0  501    0  0.00000000000E+00 -0.00000000000E+00 -0.59108017911E+03  0.59108017911E+03  0.00000000000E+00 0.  1.
         36    2    1    2    0    0  0.00000000000E+00 -0.10658141036E-13 -0.16563187002E+03  0.10165284882E+04  0.10029437925E+04 0.  0.
         25    2    3    3    0    0  0.11494144935E+03 -0.25755199656E+01  0.54944581717E+02  0.17868735529E+03  0.12526808771E+03 0.  0.
         35    2    3    3    0    0 -0.11494144935E+03  0.25755199656E+01 -0.22057645174E+03  0.83784113290E+03  0.80006601154E+03 0.  0.
         22    1    5    5    0    0  0.13131736026E+03 -0.34920997734E+03 -0.15257138892E+03  0.40307553399E+03  0.00000000000E+00 0. -1.
         22    1    5    5    0    0 -0.24625880962E+03  0.35178549730E+03 -0.68005062816E+02  0.43476559891E+03  0.00000000000E+00 0. -1.
          5    1    4    4  502    0 -0.26930075012E+01 -0.24332703013E+02 -0.24541484756E+02  0.34981526544E+02  0.47000000000E+01 0. -1.
         -5    1    4    4    0  502  0.11763445685E+03  0.21757183048E+02  0.79486066473E+02  0.14370582875E+03  0.47000000000E+01 0. -1.
<mgrwt>
<rscale>  0 0.10029438E+04</rscale>
<asrwt>0</asrwt>
<pdfrwt beam="1">  1        2 0.90935412E-01 0.10029438E+04</pdfrwt>
<pdfrwt beam="2">  1       -2 0.65453586E-01 0.10029438E+04</pdfrwt>
<totfact> 0.13142538E+02</totfact>
</mgrwt>
</event>
<event>
 9    1  0.4246427E-036  0.1000206E+04  0.7818608E-02  0.8680842E-01
         -2   -1    0    0    0  501 -0.00000000000E+00  0.00000000000E+00  0.22990880608E+03  0.22990880608E+03  0.00000000000E+00 0.  1.
          2   -1    0    0  501    0  0.00000000000E+00 -0.00000000000E+00 -0.10878352132E+04  0.10878352132E+04  0.00000000000E+00 0.  1.
         36    2    1    2    0    0  0.00000000000E+00 -0.28421709430E-13 -0.85792640711E+03  0.13177440193E+04  0.10002057690E+04 0.  0.
         25    2    3    3    0    0 -0.78030562303E+02 -0.96860432887E+02 -0.24468947807E+03  0.30159116098E+03  0.12495429400E+03 0.  0.
         35    2    3    3    0    0  0.78030562303E+02  0.96860432887E+02 -0.61323692904E+03  0.10161528583E+04  0.80064748058E+03 0.  0.
         22    1    5    5    0    0 -0.54725294893E+02  0.41981327128E+03 -0.18083044256E+03  0.46036690759E+03  0.00000000000E+00 0. -1.
         22    1    5    5    0    0  0.13275585720E+03 -0.32295283839E+03 -0.43240648648E+03  0.55578595070E+03  0.00000000000E+00 0. -1.
          5    1    4    4  502    0 -0.49915318006E+02 -0.12396855602E+03 -0.16230288364E+03  0.21029516850E+03  0.47000000000E+01 0. -1.
         -5    1    4    4    0  502 -0.28115244298E+02  0.27108123134E+02 -0.82386594428E+02  0.91295992482E+02  0.47000000000E+01 0. -1.
<mgrwt>
<rscale>  0 0.10002058E+04</rscale>
<asrwt>0</asrwt>
<pdfrwt beam="1">  1        2 0.16735926E+00 0.10002058E+04</pdfrwt>
<pdfrwt beam="2">  1       -2 0.35370585E-01 0.10002058E+04</pdfrwt>
<totfact> 0.20088301E+02</totfact>
</mgrwt>
</event>
<event>
 9    1  0.4246427E-036  0.1000461E+04  0.7818608E-02  0.8680599E-01
         -1   -1    0    0    0  501 -0.00000000000E+00  0.00000000000E+00  0.11208868465E+04  0.11208868465E+04  0.00000000000E+00 0. -1.
          1   -1    0    0  501    0  0.00000000000E+00 -0.00000000000E+00 -0.22324321843E+03  0.22324321843E+03  0.00000000000E+00 0. -1.
         36    2    1    2    0    0  0.00000000000E+00 -0.14210854715E-13  0.89764362803E+03  0.13441300649E+04  0.10004606681E+04 0.  0.
         25    2    3    3    0    0  0.12702562647E+03 -0.51434359499E+02  0.11664869500E+03  0.21934824510E+03  0.12540227857E+03 0.  0.
         35    2    3    3    0    0 -0.12702562647E+03  0.51434359499E+02  0.78099493303E+03  0.11247818198E+04  0.79774686058E+03 0.  0.
         22    1    5    5    0    0  0.20632129416E+02  0.31141150230E+03  0.76403328903E+03  0.82531792376E+03  0.00000000000E+00 0.  1.
         22    1    5    5    0    0 -0.14765775588E+03 -0.25997714280E+03  0.16961644003E+02  0.29946389602E+03  0.00000000000E+00 0.  1.
          5    1    4    4  502    0 -0.11666894869E+02 -0.12007258530E+02  0.63122820795E+02  0.65474202541E+02  0.47000000000E+01 0. -1.
         -5    1    4    4    0  502  0.13869252134E+03 -0.39427100969E+02  0.53525874200E+02  0.15387404256E+03  0.47000000000E+01 0. -1.
<mgrwt>
<rscale>  0 0.10004607E+04</rscale>
<asrwt>0</asrwt>
<pdfrwt beam="1">  1        1 0.34345111E-01 0.10004607E+04</pdfrwt>
<pdfrwt beam="2">  1       -1 0.17244413E+00 0.10004607E+04</pdfrwt>
<totfact> 0.34253347E+01</totfact>
</mgrwt>
</event>
<event>
 9    1  0.4246427E-036  0.9989957E+03  0.7818608E-02  0.8681995E-01
          2   -1    0    0  501    0  0.00000000000E+00  0.00000000000E+00  0.16231292470E+04  0.16231292470E+04  0.00000000000E+00 0. -1.
         -2   -1    0    0    0  501 -0.00000000000E+00 -0.00000000000E+00 -0.15371425330E+03  0.15371425330E+03  0.00000000000E+00 0. -1.
         36    2    1    2    0    0 -0.14210854715E-13  0.28421709430E-13  0.14694149937E+04  0.17768435003E+04  0.99899569611E+03 0.  0.
         25    2    3    3    0    0  0.75990680810E+02 -0.69030605375E+02  0.44112286016E+03  0.46968557042E+03  0.12439995684E+03 0.  0.
         35    2    3    3    0    0 -0.75990680810E+02  0.69030605375E+02  0.10282921336E+04  0.13071579299E+04  0.80046070090E+03 0.  0.
         22    1    5    5    0    0 -0.29579204786E+03 -0.91052777051E+02  0.78613499844E+02  0.31931743790E+03  0.00000000000E+00 0.  1.
         22    1    5    5    0    0  0.21980136705E+03  0.16008338243E+03  0.94967863372E+03  0.98784049200E+03  0.00000000000E+00 0.  1.
          5    1    4    4  502    0  0.59463678194E+02 -0.97162729739E+02  0.23792532194E+03  0.26383152559E+03  0.47000000000E+01 0.  1.
         -5    1    4    4    0  502  0.16527002615E+02  0.28132124364E+02  0.20319753822E+03  0.20585404483E+03  0.47000000000E+01 0.  1.
<mgrwt>
<rscale>  0 0.99899570E+03</rscale>
<asrwt>0</asrwt>
<pdfrwt beam="1">  1        2 0.24971218E+00 0.99899570E+03</pdfrwt>
<pdfrwt beam="2">  1       -2 0.23648348E-01 0.99899570E+03</pdfrwt>
<totfact> 0.20431185E+02</totfact>
</mgrwt>
</event>
<event>
 9    1  0.4246427E-036  0.1008367E+04  0.7818608E-02  0.8673110E-01
          2   -1    0    0  501    0  0.00000000000E+00  0.00000000000E+00  0.16101818613E+04  0.16101818613E+04  0.00000000000E+00 0. -1.
         -2   -1    0    0    0  501 -0.00000000000E+00 -0.00000000000E+00 -0.15787113389E+03  0.15787113389E+03  0.00000000000E+00 0. -1.
         36    2    1    2    0    0  0.00000000000E+00  0.24868995752E-13  0.14523107274E+04  0.17680529952E+04  0.10083674652E+04 0.  0.
         25    2    3    3    0    0 -0.83839137189E+02  0.13170216906E+02  0.49542365294E+03  0.51815234691E+03  0.12583641432E+03 0.  0.
         35    2    3    3    0    0  0.83839137189E+02 -0.13170216906E+02  0.95688707446E+03  0.12499006483E+04  0.79963510539E+03 0.  0.
         22    1    5    5    0    0 -0.20827325411E+03 -0.29003787936E+03  0.65779579188E+03  0.74846177167E+03  0.00000000000E+00 0.  1.
         22    1    5    5    0    0  0.29211239130E+03  0.27686766245E+03  0.29909128259E+03  0.50143887662E+03  0.00000000000E+00 0.  1.
          5    1    4    4  502    0 -0.11366980980E+03  0.22387717304E+02  0.33090319301E+03  0.35062950346E+03  0.47000000000E+01 0. -1.
         -5    1    4    4    0  502  0.29830672613E+02 -0.92175003983E+01  0.16452045993E+03  0.16752284345E+03  0.47000000000E+01 0. -1.
<mgrwt>
<rscale>  0 0.10083675E+04</rscale>
<asrwt>0</asrwt>
<pdfrwt beam="1">  1        2 0.24772027E+00 0.10083675E+04</pdfrwt>
<pdfrwt beam="2">  1       -2 0.24287868E-01 0.10083675E+04</pdfrwt>
<totfact> 0.19820958E+02</totfact>
</mgrwt>
</event>
<event>
 9    1  0.4246427E-036  0.1000585E+04  0.7818608E-02  0.8680481E-01
          2   -1    0    0  501    0  0.00000000000E+00  0.00000000000E+00  0.26180426945E+03  0.26180426945E+03  0.00000000000E+00 0.  1.
         -2   -1    0    0    0  501 -0.00000000000E+00 -0.00000000000E+00 -0.95602897840E+03  0.95602897840E+03  0.00000000000E+00 0.  1.
         36    2    1    2    0    0 -0.21316282073E-13  0.71054273576E-14 -0.69422470896E+03  0.12178332479E+04  0.10005847655E+04 0.  0.
         25    2    3    3    0    0  0.51770649004E+01  0.55705479476E+02 -0.28654388851E+03  0.31822713160E+03  0.12661439414E+03 0.  0.
         35    2    3    3    0    0 -0.51770649004E+01 -0.55705479476E+02 -0.40768082045E+03  0.89960611625E+03  0.79997350618E+03 0.  0.
         22    1    5    5    0    0  0.25355922103E+03 -0.29037068612E+03 -0.39223883519E+03  0.54996246941E+03  0.00000000000E+00 0.  1.
         22    1    5    5    0    0 -0.25873628593E+03  0.23466520665E+03 -0.15441985263E+02  0.34964364684E+03  0.00000000000E+00 0.  1.
          5    1    4    4  502    0  0.20294763932E+02  0.58176770095E+02 -0.45715243232E+02  0.76866035968E+02  0.47000000000E+01 0. -1.
         -5    1    4    4    0  502 -0.15117699032E+02 -0.24712906186E+01 -0.24082864527E+03  0.24136109563E+03  0.47000000000E+01 0. -1.
<mgrwt>
<rscale>  0 0.10005848E+04</rscale>
<asrwt>0</asrwt>
<pdfrwt beam="1">  1        2 0.40277579E-01 0.10005848E+04</pdfrwt>
<pdfrwt beam="2">  1       -2 0.14708138E+00 0.10005848E+04</pdfrwt>
<totfact> 0.45799896E+01</totfact>
</mgrwt>
</event>
<event>
 9    1  0.4246427E-036  0.9996619E+03  0.7818608E-02  0.8681360E-01
          2   -1    0    0  501    0  0.00000000000E+00  0.00000000000E+00  0.16564541066E+04  0.16564541066E+04  0.00000000000E+00 0.  1.
         -2   -1    0    0    0  501 -0.00000000000E+00 -0.00000000000E+00 -0.15082276386E+03  0.15082276386E+03  0.00000000000E+00 0.  1.
         36    2    1    2    0    0 -0.14210854715E-13  0.35527136788E-14  0.15056313427E+04  0.18072768704E+04  0.99966191598E+03 0.  0.
         25    2    3    3    0    0 -0.41997643944E+02  0.14078650554E+01  0.52313024536E+03  0.53957093415E+03  0.12532260447E+03 0.  0.
         35    2    3    3    0    0  0.41997643944E+02 -0.14078650554E+01  0.98250109734E+03  0.12677059363E+04  0.80000259400E+03 0.  0.
         22    1    5    5    0    0 -0.99508966499E+02 -0.55352761671E+02 -0.11380515380E+03  0.16098936508E+03  0.00000000000E+00 0.  1.
         22    1    5    5    0    0  0.14150661044E+03  0.53944896616E+02  0.10963062511E+04  0.11067165712E+04  0.00000000000E+00 0.  1.
          5    1    4    4  502    0  0.33005699021E+02 -0.16811586928E+02  0.32083242791E+03  0.32299774368E+03  0.47000000000E+01 0.  1.
         -5    1    4    4    0  502 -0.75003342966E+02  0.18219451984E+02  0.20229781745E+03  0.21657319047E+03  0.47000000000E+01 0.  1.
<mgrwt>
<rscale>  0 0.99966192E+03</rscale>
<asrwt>0</asrwt>
<pdfrwt beam="1">  1        2 0.25483908E+00 0.99966192E+03</pdfrwt>
<pdfrwt beam="2">  1       -2 0.23203503E-01 0.99966192E+03</pdfrwt>
<totfact> 0.20231517E+02</totfact>
</mgrwt>
</event>
<event>
 9    1  0.4246427E-036  0.9991059E+03  0.7818608E-02  0.8681890E-01
         -2   -1    0    0    0  501 -0.00000000000E+00  0.00000000000E+00  0.69591621375E+02  0.69591621375E+02  0.00000000000E+00 0. -1.
          2   -1    0    0  501    0  0.00000000000E+00 -0.00000000000E+00 -0.35859654500E+04  0.35859654500E+04  0.00000000000E+00 0. -1.
         36    2    1    2    0    0  0.42632564146E-13 -0.14210854715E-13 -0.35163738286E+04  0.36555570714E+04  0.99910590001E+03 0.  0.
         25    2    3    3    0    0  0.10563756336E+03 -0.88699431440E+02 -0.73200663163E+03  0.75537237250E+03  0.12540665235E+03 0.  0.
         35    2    3    3    0    0 -0.10563756336E+03  0.88699431440E+02 -0.27843671970E+04  0.29001846989E+04  0.79958971727E+03 0.  0.
         22    1    5    5    0    0  0.23609111334E+03  0.26273456186E+03 -0.19522821696E+04  0.19839793682E+04  0.00000000000E+00 0. -1.
         22    1    5    5    0    0 -0.34172867670E+03 -0.17403513042E+03 -0.83208502738E+03  0.91620533063E+03  0.00000000000E+00 0. -1.
          5    1    4    4  502    0  0.21663403724E+02 -0.45723930795E+02 -0.69106226121E+02  0.85777277859E+02  0.47000000000E+01 0.  1.
         -5    1    4    4    0  502  0.83974159632E+02 -0.42975500646E+02 -0.66290040551E+03  0.66959509464E+03  0.47000000000E+01 0.  1.
<mgrwt>
<rscale>  0 0.99910590E+03</rscale>
<asrwt>0</asrwt>
<pdfrwt beam="1">  1        2 0.55168678E+00 0.99910590E+03</pdfrwt>
<pdfrwt beam="2">  1       -2 0.10706407E-01 0.99910590E+03</pdfrwt>
<totfact> 0.44386335E+01</totfact>
</mgrwt>
</event>
<event>
 9    1  0.4246427E-036  0.9997284E+03  0.7818608E-02  0.8681297E-01
          1   -1    0    0  501    0  0.00000000000E+00  0.00000000000E+00  0.14591576344E+04  0.14591576344E+04  0.00000000000E+00 0.  1.
         -1   -1    0    0    0  501 -0.00000000000E+00 -0.00000000000E+00 -0.17123866183E+03  0.17123866183E+03  0.00000000000E+00 0.  1.
         36    2    1    2    0    0 -0.14210854715E-13  0.28421709430E-13  0.12879189726E+04  0.16303962962E+04  0.99972836453E+03 0.  0.
         25    2    3    3    0    0  0.79697877869E+01  0.10109438764E+03  0.40021107648E+03  0.43099226502E+03  0.12370058221E+03 0.  0.
         35    2    3    3    0    0 -0.79697877869E+01 -0.10109438764E+03  0.88770789607E+03  0.11994040312E+04  0.80016318870E+03 0.  0.
         22    1    5    5    0    0  0.23899317142E+03  0.26447511740E+03  0.48625966495E+03  0.60292062949E+03  0.00000000000E+00 0. -1.
         22    1    5    5    0    0 -0.24696295921E+03 -0.36556950504E+03  0.40144823111E+03  0.59648340170E+03  0.00000000000E+00 0. -1.
          5    1    4    4  502    0 -0.57052541162E+02  0.59799586394E+02  0.20641652795E+03  0.22239796761E+03  0.47000000000E+01 0.  1.
         -5    1    4    4    0  502  0.65022328949E+02  0.41294801247E+02  0.19379454854E+03  0.20859429742E+03  0.47000000000E+01 0.  1.
<mgrwt>
<rscale>  0 0.99972836E+03</rscale>
<asrwt>0</asrwt>
<pdfrwt beam="1">  1        1 0.22448578E+00 0.99972836E+03</pdfrwt>
<pdfrwt beam="2">  1       -1 0.26344411E-01 0.99972836E+03</pdfrwt>
<totfact> 0.96767033E+01</totfact>
</mgrwt>
</event>
<event>
 9    1  0.4246427E-036  0.1001678E+04  0.7818608E-02  0.8679441E-01
         -1   -1    0    0    0  501 -0.00000000000E+00  0.00000000000E+00  0.14643471865E+03  0.14643471865E+03  0.00000000000E+00 0.  1.
          1   -1    0    0  501    0  0.00000000000E+00 -0.00000000000E+00 -0.17129811972E+04  0.17129811972E+04  0.00000000000E+00 0.  1.
         36    2    1    2    0    0  0.14210854715E-13  0.00000000000E+00 -0.15665464786E+04  0.18594159159E+04  0.10016784308E+04 0.  0.
         25    2    3    3    0    0 -0.11340720759E+03  0.71221345719E+02 -0.38165579064E+03  0.42326106643E+03  0.12472013876E+03 0.  0.
         35    2    3    3    0    0  0.11340720759E+03 -0.71221345719E+02 -0.11848906880E+04  0.14361548495E+04  0.80040060871E+03 0.  0.
         22    1    5    5    0    0  0.39881446206E+03  0.16839152478E+03 -0.54945053538E+03  0.69950308905E+03  0.00000000000E+00 0. -1.
         22    1    5    5    0    0 -0.28540725447E+03 -0.23961287050E+03 -0.63544015257E+03  0.73665176041E+03  0.00000000000E+00 0. -1.
          5    1    4    4  502    0 -0.30848476359E+02  0.67862215351E+02 -0.75844312709E+02  0.10644885409E+03  0.47000000000E+01 0. -1.
         -5    1    4    4    0  502 -0.82558731231E+02  0.33591303680E+01 -0.30581147793E+03  0.31681221235E+03  0.47000000000E+01 0. -1.
<mgrwt>
<rscale>  0 0.10016784E+04</rscale>
<asrwt>0</asrwt>
<pdfrwt beam="1">  1        1 0.26353558E+00 0.10016784E+04</pdfrwt>
<pdfrwt beam="2">  1       -1 0.22528417E-01 0.10016784E+04</pdfrwt>
<totfact> 0.83119312E+01</totfact>
</mgrwt>
</event>
<event>
 9    1  0.4246427E-036  0.1000206E+04  0.7818608E-02  0.8680841E-01
          2   -1    0    0  501    0  0.00000000000E+00  0.00000000000E+00  0.23751399330E+04  0.23751399330E+04  0.00000000000E+00 0.  1.
         -2   -1    0    0    0  501 -0.00000000000E+00 -0.00000000000E+00 -0.10530039876E+03  0.10530039876E+03  0.00000000000E+00 0.  1.
         36    2    1    2    0    0  0.00000000000E+00  0.14210854715E-13  0.22698395343E+04  0.24804403318E+04  0.10002063428E+04 0.  0.
         25    2    3    3    0    0  0.10029931175E+03 -0.98500557845E+02  0.41432946885E+03  0.45483008771E+03  0.12425452949E+03 0.  0.
         35    2    3    3    0    0 -0.10029931175E+03  0.98500557845E+02  0.18555100654E+04  0.20256102441E+04  0.80026054894E+03 0.  0.
         22    1    5    5    0    0  0.31737312023E+01 -0.23052110628E+03  0.15431668724E+04  0.15602929370E+04  0.00000000000E+00 0.  1.
         22    1    5    5    0    0 -0.10347304295E+03  0.32902166413E+03  0.31234319301E+03  0.46531730712E+03  0.00000000000E+00 0.  1.
          5    1    4    4  502    0  0.93925893351E+02 -0.51881640415E+02  0.38379792437E+03  0.39854324083E+03  0.47000000000E+01 0.  1.
         -5    1    4    4    0  502  0.63734184012E+01 -0.46618917431E+02  0.30531544472E+02  0.56286846886E+02  0.47000000000E+01 0.  1.
<mgrwt>
<rscale>  0 0.10002063E+04</rscale>
<asrwt>0</asrwt>
<pdfrwt beam="1">  1        2 0.36540611E+00 0.10002063E+04</pdfrwt>
<pdfrwt beam="2">  1       -2 0.16200063E-01 0.10002063E+04</pdfrwt>
<totfact> 0.14545799E+02</totfact>
</mgrwt>
</event>
<event>
 9    1  0.4246427E-036  0.1000166E+04  0.7818608E-02  0.8680880E-01
          1   -1    0    0  501    0  0.00000000000E+00  0.00000000000E+00  0.11619600954E+04  0.11619600954E+04  0.00000000000E+00 0. -1.
         -1   -1    0    0    0  501 -0.00000000000E+00 -0.00000000000E+00 -0.21522493636E+03  0.21522493636E+03  0.00000000000E+00 0. -1.
         36    2    1    2    0    0  0.00000000000E+00 -0.14210854715E-13  0.94673515900E+03  0.13771850317E+04  0.10001655614E+04 0.  0.
         25    2    3    3    0    0  0.14133406798E+03 -0.34114291928E+02  0.15247184083E+03  0.24481615173E+03  0.12469235027E+03 0.  0.
         35    2    3    3    0    0 -0.14133406798E+03  0.34114291928E+02  0.79426331817E+03  0.11323688800E+04  0.79389291349E+03 0.  0.
         22    1    5    5    0    0 -0.14403279100E+03  0.40296535876E+03  0.33589104423E+03  0.54401224144E+03  0.00000000000E+00 0.  1.
         22    1    5    5    0    0  0.26987230136E+01 -0.36885106683E+03  0.45837227394E+03  0.58835663855E+03  0.00000000000E+00 0.  1.
          5    1    4    4  502    0  0.49703085076E+02 -0.75785440563E+02  0.73838348563E+02  0.11699581781E+03  0.47000000000E+01 0. -1.
         -5    1    4    4    0  502  0.91630982908E+02  0.41671148634E+02  0.78633492267E+02  0.12782033392E+03  0.47000000000E+01 0. -1.
<mgrwt>
<rscale>  0 0.10001656E+04</rscale>
<asrwt>0</asrwt>
<pdfrwt beam="1">  1        1 0.17876309E+00 0.10001656E+04</pdfrwt>
<pdfrwt beam="2">  1       -1 0.33111529E-01 0.10001656E+04</pdfrwt>
<totfact> 0.10797036E+02</totfact>
</mgrwt>
</event>
<event>
 9    1  0.4246427E-036  0.9997547E+03  0.7818608E-02  0.8681272E-01
         -2   -1    0    0    0  501 -0.00000000000E+00  0.00000000000E+00  0.55795963002E+03  0.55795963002E+03  0.00000000000E+00 0. -1.
          2   -1    0    0  501    0  0.00000000000E+00 -0.00000000000E+00 -0.44784130913E+03  0.44784130913E+03  0.00000000000E+00 0. -1.
         36    2    1    2    0    0 -0.10658141036E-13 -0.14210854715E-13  0.11011832089E+03  0.10058009391E+04  0.99975471221E+03 0.  0.
         25    2    3    3    0    0  0.22361252461E+02 -0.89749992406E+02 -0.76515228906E+02  0.17908012007E+03  0.13289101701E+03 0.  0.
         35    2    3    3    0    0 -0.22361252461E+02  0.89749992406E+02  0.18663354979E+03  0.82672081907E+03  0.80005008845E+03 0.  0.
         22    1    5    5    0    0 -0.25471336464E+03  0.27227135394E+03 -0.12885264187E+03  0.39447888615E+03  0.00000000000E+00 0.  1.
         22    1    5    5    0    0  0.23235211218E+03 -0.18252136153E+03  0.31548619166E+03  0.43224193293E+03  0.00000000000E+00 0.  1.
          5    1    4    4  502    0  0.29176349658E+02 -0.77696113243E+02  0.16647114981E+02  0.84777130345E+02  0.47000000000E+01 0. -1.
         -5    1    4    4    0  502 -0.68150971963E+01 -0.12053879163E+02 -0.93162343887E+02  0.94302989726E+02  0.47000000000E+01 0. -1.
<mgrwt>
<rscale>  0 0.99975471E+03</rscale>
<asrwt>0</asrwt>
<pdfrwt beam="1">  1        2 0.68898663E-01 0.99975471E+03</pdfrwt>
<pdfrwt beam="2">  1       -2 0.85839943E-01 0.99975471E+03</pdfrwt>
<totfact> 0.98748313E+01</totfact>
</mgrwt>
</event>
<event>
 9    1  0.4246427E-036  0.1000862E+04  0.7818608E-02  0.8680218E-01
          2   -1    0    0  501    0  0.00000000000E+00  0.00000000000E+00  0.12784823779E+04  0.12784823779E+04  0.00000000000E+00 0.  1.
         -2   -1    0    0    0  501 -0.00000000000E+00 -0.00000000000E+00 -0.19588154312E+03  0.19588154312E+03  0.00000000000E+00 0.  1.
         36    2    1    2    0    0 -0.14210854715E-13  0.21316282073E-13  0.10826008348E+04  0.14743639211E+04  0.10008618307E+04 0.  0.
         25    2    3    3    0    0 -0.79598345888E+02  0.86729072869E+01  0.38206006419E+03  0.40806709590E+03  0.11890225448E+03 0.  0.
         35    2    3    3    0    0  0.79598345888E+02 -0.86729072869E+01  0.70054077064E+03  0.10662968252E+04  0.79988776215E+03 0.  0.
         22    1    5    5    0    0 -0.17762009335E+03 -0.32671907900E+03  0.46092944712E+03  0.59224168155E+03  0.00000000000E+00 0. -1.
         22    1    5    5    0    0  0.25721843924E+03  0.31804617171E+03  0.23961132352E+03  0.47405514361E+03  0.00000000000E+00 0. -1.
          5    1    4    4  502    0 -0.64449096213E+02  0.44437814506E+02  0.12167741114E+03  0.14476148570E+03  0.47000000000E+01 0. -1.
         -5    1    4    4    0  502 -0.15149249675E+02 -0.35764907220E+02  0.26038265305E+03  0.26330561020E+03  0.47000000000E+01 0. -1.
<mgrwt>
<rscale>  0 0.10008618E+04</rscale>
<asrwt>0</asrwt>
<pdfrwt beam="1">  1        2 0.19668959E+00 0.10008618E+04</pdfrwt>
<pdfrwt beam="2">  1       -2 0.30135623E-01 0.10008618E+04</pdfrwt>
<totfact> 0.20802256E+02</totfact>
</mgrwt>
</event>
<event>
 9    1  0.4246427E-036  0.1000036E+04  0.7818608E-02  0.8681004E-01
         -1   -1    0    0    0  501 -0.00000000000E+00  0.00000000000E+00  0.11652484150E+03  0.11652484150E+03  0.00000000000E+00 0.  1.
          1   -1    0    0  501    0  0.00000000000E+00 -0.00000000000E+00 -0.21456182314E+04  0.21456182314E+04  0.00000000000E+00 0.  1.
         36    2    1    2    0    0  0.42632564146E-13  0.00000000000E+00 -0.20290933899E+04  0.22621430729E+04  0.10000356480E+04 0.  0.
         25    2    3    3    0    0  0.11167992925E+03  0.52022313088E+02 -0.24628883318E+03  0.30302756903E+03  0.12644678953E+03 0.  0.
         35    2    3    3    0    0 -0.11167992925E+03 -0.52022313088E+02 -0.17828045567E+04  0.19591155039E+04  0.80284664935E+03 0.  0.
         22    1    5    5    0    0  0.25013585075E+03  0.12755976147E+03 -0.25663280138E+03  0.38039431031E+03  0.00000000000E+00 0. -1.
         22    1    5    5    0    0 -0.36181578001E+03 -0.17958207456E+03 -0.15261717554E+04  0.15787211936E+04  0.00000000000E+00 0. -1.
          5    1    4    4  502    0  0.13531841439E+03  0.43773495370E+02 -0.16522956445E+03  0.21805983385E+03  0.47000000000E+01 0.  1.
         -5    1    4    4    0  502 -0.23638485139E+02  0.82488177177E+01 -0.81059268729E+02  0.84967735172E+02  0.47000000000E+01 0.  1.
<mgrwt>
<rscale>  0 0.10000356E+04</rscale>
<asrwt>0</asrwt>
<pdfrwt beam="1">  1        1 0.33009508E+00 0.10000356E+04</pdfrwt>
<pdfrwt beam="2">  1       -1 0.17926900E-01 0.10000356E+04</pdfrwt>
<totfact> 0.60280754E+01</totfact>
</mgrwt>
</event>
<event>
 9    1  0.4246427E-036  0.9990084E+03  0.7818608E-02  0.8681983E-01
         -2   -1    0    0    0  501 -0.00000000000E+00  0.00000000000E+00  0.14567831973E+03  0.14567831973E+03  0.00000000000E+00 0. -1.
          2   -1    0    0  501    0  0.00000000000E+00 -0.00000000000E+00 -0.17127082408E+04  0.17127082408E+04  0.00000000000E+00 0. -1.
         36    2    1    2    0    0  0.14210854715E-13  0.00000000000E+00 -0.15670299211E+04  0.18583865605E+04  0.99900842579E+03 0.  0.
         25    2    3    3    0    0  0.65765566243E+02 -0.11510574700E+03 -0.39551087110E+03  0.43530620874E+03  0.12445161113E+03 0.  0.
         35    2    3    3    0    0 -0.65765566243E+02  0.11510574700E+03 -0.11715190500E+04  0.14230803518E+04  0.79694815420E+03 0.  0.
         22    1    5    5    0    0  0.83780941912E+01 -0.33890096641E+03 -0.39499931074E+03  0.52052714913E+03  0.00000000000E+00 0. -1.
         22    1    5    5    0    0 -0.74143660435E+02  0.45400671341E+03 -0.77651973923E+03  0.90255320265E+03  0.00000000000E+00 0. -1.
          5    1    4    4  502    0  0.56047415263E+02 -0.87593886398E+01 -0.23961582566E+03  0.24628413175E+03  0.47000000000E+01 0.  1.
         -5    1    4    4    0  502  0.97181509801E+01 -0.10634635836E+03 -0.15589504544E+03  0.18902207699E+03  0.47000000000E+01 0.  1.
<mgrwt>
<rscale>  0 0.99900843E+03</rscale>
<asrwt>0</asrwt>
<pdfrwt beam="1">  1        2 0.26349360E+00 0.99900843E+03</pdfrwt>
<pdfrwt beam="2">  1       -2 0.22412047E-01 0.99900843E+03</pdfrwt>
<totfact> 0.19988609E+02</totfact>
</mgrwt>
</event>
<event>
 9    1  0.4246427E-036  0.1001917E+04  0.7818608E-02  0.8679215E-01
          2   -1    0    0  501    0  0.00000000000E+00  0.00000000000E+00  0.32620854361E+04  0.32620854361E+04  0.00000000000E+00 0. -1.
         -2   -1    0    0    0  501 -0.00000000000E+00 -0.00000000000E+00 -0.76932205068E+02  0.76932205068E+02  0.00000000000E+00 0. -1.
         36    2    1    2    0    0  0.14210854715E-13  0.21316282073E-13  0.31851532310E+04  0.33390176412E+04  0.10019170140E+04 0.  0.
         25    2    3    3    0    0 -0.31531404101E+02  0.28837855154E+02  0.10626041662E+04  0.10702869790E+04  0.12066794164E+03 0.  0.
         35    2    3    3    0    0  0.31531404101E+02 -0.28837855154E+02  0.21225490649E+04  0.22687306622E+04  0.80006151848E+03 0.  0.
         22    1    5    5    0    0  0.29605298872E+03  0.23124564799E+03  0.65558086780E+03  0.75558467168E+03  0.00000000000E+00 0. -1.
         22    1    5    5    0    0 -0.26452158462E+03 -0.26008350314E+03  0.14669681971E+04  0.15131459905E+04  0.00000000000E+00 0. -1.
          5    1    4    4  502    0 -0.22361278561E+02  0.75867414205E+02  0.71118822717E+03  0.71558834240E+03  0.47000000000E+01 0.  1.
         -5    1    4    4    0  502 -0.91701255398E+01 -0.47029559050E+02  0.35141593900E+03  0.35469863660E+03  0.47000000000E+01 0.  1.
<mgrwt>
<rscale>  0 0.10019170E+04</rscale>
<asrwt>0</asrwt>
<pdfrwt beam="1">  1        2 0.50185919E+00 0.10019170E+04</pdfrwt>
<pdfrwt beam="2">  1       -2 0.11835726E-01 0.10019170E+04</pdfrwt>
<totfact> 0.65453610E+01</totfact>
</mgrwt>
</event>
<event>
 9    1  0.4246427E-036  0.9993827E+03  0.7818608E-02  0.8681626E-01
          2   -1    0    0  501    0  0.00000000000E+00  0.00000000000E+00  0.13488564350E+04  0.13488564350E+04  0.00000000000E+00 0. -1.
         -2   -1    0    0    0  501 -0.00000000000E+00 -0.00000000000E+00 -0.18511343445E+03  0.18511343445E+03  0.00000000000E+00 0. -1.
         36    2    1    2    0    0 -0.14210854715E-13  0.00000000000E+00  0.11637430006E+04  0.15339698695E+04  0.99938270401E+03 0.  0.
         25    2    3    3    0    0  0.47638972002E+02 -0.14365272977E+02  0.22053832122E+02  0.13838139348E+03  0.12722895043E+03 0.  0.
         35    2    3    3    0    0 -0.47638972002E+02  0.14365272977E+02  0.11416891685E+04  0.13955884760E+04  0.80108501687E+03 0.  0.
         22    1    5    5    0    0  0.62212059929E+02  0.11119338716E+03 -0.89509581207E+02  0.15571215391E+03  0.00000000000E+00 0.  1.
         22    1    5    5    0    0 -0.10985103193E+03 -0.96828114179E+02  0.12311987497E+04  0.12398763221E+04  0.00000000000E+00 0.  1.
          5    1    4    4  502    0  0.84782632374E+01  0.54432823985E+02 -0.25563229430E+01  0.55348333864E+02  0.47000000000E+01 0.  1.
         -5    1    4    4    0  502  0.39160708764E+02 -0.68798096963E+02  0.24610155065E+02  0.83033059614E+02  0.47000000000E+01 0.  1.
<mgrwt>
<rscale>  0 0.99938270E+03</rscale>
<asrwt>0</asrwt>
<pdfrwt beam="1">  1        2 0.20751637E+00 0.99938270E+03</pdfrwt>
<pdfrwt beam="2">  1       -2 0.28478991E-01 0.99938270E+03</pdfrwt>
<totfact> 0.20988323E+02</totfact>
</mgrwt>
</event>
<event>
 9    1  0.4246427E-036  0.1000055E+04  0.7818608E-02  0.8680985E-01
         -2   -1    0    0    0  501 -0.00000000000E+00  0.00000000000E+00  0.14891836067E+03  0.14891836067E+03  0.00000000000E+00 0. -1.
          2   -1    0    0  501    0  0.00000000000E+00 -0.00000000000E+00 -0.16789576839E+04  0.16789576839E+04  0.00000000000E+00 0. -1.
         36    2    1    2    0    0  0.21316282073E-13  0.00000000000E+00 -0.15300393232E+04  0.18278760446E+04  0.10000552503E+04 0.  0.
         25    2    3    3    0    0 -0.41593683956E+02  0.11846470252E+03 -0.17012949598E+03  0.24538464630E+03  0.12452172080E+03 0.  0.
         35    2    3    3    0    0  0.41593683956E+02 -0.11846470252E+03 -0.13599098272E+04  0.15824913983E+04  0.79947505718E+03 0.  0.
         22    1    5    5    0    0 -0.33090847911E+03 -0.18818563562E+03 -0.40848076110E+03  0.55836438568E+03  0.00000000000E+00 0.  1.
         22    1    5    5    0    0  0.37250216307E+03  0.69720933104E+02 -0.95142906614E+03  0.10241270126E+04  0.00000000000E+00 0.  1.
          5    1    4    4  502    0 -0.48166915313E+02  0.12153339803E+03 -0.76876049407E+02  0.15173145863E+03  0.47000000000E+01 0. -1.
         -5    1    4    4    0  502  0.65732313569E+01 -0.30686955070E+01 -0.93253446574E+02  0.93653187669E+02  0.47000000000E+01 0. -1.
<mgrwt>
<rscale>  0 0.10000553E+04</rscale>
<asrwt>0</asrwt>
<pdfrwt beam="1">  1        2 0.25830117E+00 0.10000553E+04</pdfrwt>
<pdfrwt beam="2">  1       -2 0.22910518E-01 0.10000553E+04</pdfrwt>
<totfact> 0.20092845E+02</totfact>
</mgrwt>
</event>
<event>
 9    1  0.4246427E-036  0.1001385E+04  0.7818608E-02  0.8679720E-01
         -2   -1    0    0    0  501 -0.00000000000E+00  0.00000000000E+00  0.11850794191E+03  0.11850794191E+03  0.00000000000E+00 0.  1.
          2   -1    0    0  501    0  0.00000000000E+00 -0.00000000000E+00 -0.21154128906E+04  0.21154128906E+04  0.00000000000E+00 0.  1.
         36    2    1    2    0    0  0.00000000000E+00  0.28421709430E-13 -0.19969049487E+04  0.22339208325E+04  0.10013854961E+04 0.  0.
         25    2    3    3    0    0 -0.10922623101E+03 -0.53788421799E+02 -0.54336170969E+03  0.57077045894E+03  0.12535312276E+03 0.  0.
         35    2    3    3    0    0  0.10922623101E+03  0.53788421799E+02 -0.14535432390E+04  0.16631503736E+04  0.79903545202E+03 0.  0.
         22    1    5    5    0    0  0.30757773936E+03  0.33968390827E+03 -0.88428251432E+03  0.99596425057E+03  0.00000000000E+00 0. -1.
         22    1    5    5    0    0 -0.19835150835E+03 -0.28589548647E+03 -0.56926072471E+03  0.66718612302E+03  0.00000000000E+00 0. -1.
          5    1    4    4  502    0 -0.70729404122E+02 -0.50196272300E+02 -0.13482532248E+03  0.16038164466E+03  0.47000000000E+01 0. -1.
         -5    1    4    4    0  502 -0.38496826883E+02 -0.35921494991E+01 -0.40853638721E+03  0.41038881428E+03  0.47000000000E+01 0. -1.
<mgrwt>
<rscale>  0 0.10013855E+04</rscale>
<asrwt>0</asrwt>
<pdfrwt beam="1">  1        2 0.32544812E+00 0.10013855E+04</pdfrwt>
<pdfrwt beam="2">  1       -2 0.18231992E-01 0.10013855E+04</pdfrwt>
<totfact> 0.16883746E+02</totfact>
</mgrwt>
</event>
<event>
 9    1  0.4246427E-036  0.1000492E+04  0.7818608E-02  0.8680569E-01
         -2   -1    0    0    0  501 -0.00000000000E+00  0.00000000000E+00  0.17187309562E+03  0.17187309562E+03  0.00000000000E+00 0. -1.
          2   -1    0    0  501    0  0.00000000000E+00 -0.00000000000E+00 -0.14559946415E+04  0.14559946415E+04  0.00000000000E+00 0. -1.
         36    2    1    2    0    0  0.28421709430E-13  0.28421709430E-13 -0.12841215459E+04  0.16278677371E+04  0.10004924912E+04 0.  0.
         25    2    3    3    0    0 -0.12520618926E+03 -0.51673342698E+02 -0.31351636569E+03  0.36331520362E+03  0.12393022815E+03 0.  0.
         35    2    3    3    0    0  0.12520618926E+03  0.51673342698E+02 -0.97060518016E+03  0.12645525335E+04  0.79916955022E+03 0.  0.
         22    1    5    5    0    0  0.39871658377E+03  0.24251440864E+03 -0.46451946520E+03  0.65845765704E+03  0.00000000000E+00 0. -1.
         22    1    5    5    0    0 -0.27351039451E+03 -0.19084106594E+03 -0.50608571496E+03  0.60609487644E+03  0.00000000000E+00 0. -1.
          5    1    4    4  502    0 -0.10915550626E+03 -0.78182176456E+02 -0.30089474364E+03  0.32952558931E+03  0.47000000000E+01 0.  1.
         -5    1    4    4    0  502 -0.16050682993E+02  0.26508833758E+02 -0.12621622057E+02  0.33789614309E+02  0.47000000000E+01 0.  1.
<mgrwt>
<rscale>  0 0.10004925E+04</rscale>
<asrwt>0</asrwt>
<pdfrwt beam="1">  1        2 0.22399918E+00 0.10004925E+04</pdfrwt>
<pdfrwt beam="2">  1       -2 0.26442015E-01 0.10004925E+04</pdfrwt>
<totfact> 0.20831198E+02</totfact>
</mgrwt>
</event>
<event>
 9    1  0.4246427E-036  0.9993143E+03  0.7818608E-02  0.8681691E-01
          2   -1    0    0  501    0  0.00000000000E+00  0.00000000000E+00  0.23508716229E+03  0.23508716229E+03  0.00000000000E+00 0.  1.
         -2   -1    0    0    0  501 -0.00000000000E+00 -0.00000000000E+00 -0.10619774726E+04  0.10619774726E+04  0.00000000000E+00 0.  1.
         36    2    1    2    0    0  0.00000000000E+00  0.00000000000E+00 -0.82689031033E+03  0.12970646349E+04  0.99931430583E+03 0.  0.
         25    2    3    3    0    0 -0.85375112649E+02  0.60129001744E+02 -0.27344431967E+03  0.31777193620E+03  0.12370448967E+03 0.  0.
         35    2    3    3    0    0  0.85375112649E+02 -0.60129001744E+02 -0.55344599067E+03  0.97929269873E+03  0.80112877771E+03 0.  0.
         22    1    5    5    0    0  0.26362222536E+03 -0.16152035452E+03  0.75083883449E+02  0.31815576717E+03  0.00000000000E+00 0. -1.
         22    1    5    5    0    0 -0.17824711271E+03  0.10139135278E+03 -0.62852987412E+03  0.66113693155E+03  0.00000000000E+00 0. -1.
          5    1    4    4  502    0 -0.22506503820E+02  0.49029573037E+02 -0.22243689874E+02  0.58543261658E+02  0.47000000000E+01 0. -1.
         -5    1    4    4    0  502 -0.62868608830E+02  0.11099428707E+02 -0.25120062979E+03  0.25922867454E+03  0.47000000000E+01 0. -1.
<mgrwt>
<rscale>  0 0.99931431E+03</rscale>
<asrwt>0</asrwt>
<pdfrwt beam="1">  1        2 0.36167256E-01 0.99931431E+03</pdfrwt>
<pdfrwt beam="2">  1       -2 0.16338115E+00 0.99931431E+03</pdfrwt>
<totfact> 0.38379588E+01</totfact>
</mgrwt>
</event>
<event>
 9    1  0.4246427E-036  0.1000321E+04  0.7818608E-02  0.8680732E-01
          1   -1    0    0  501    0  0.00000000000E+00  0.00000000000E+00  0.11683362779E+04  0.11683362779E+04  0.00000000000E+00 0. -1.
         -1   -1    0    0    0  501 -0.00000000000E+00 -0.00000000000E+00 -0.21411707029E+03  0.21411707029E+03  0.00000000000E+00 0. -1.
         36    2    1    2    0    0  0.00000000000E+00  0.00000000000E+00  0.95421920762E+03  0.13824533482E+04  0.10003214302E+04 0.  0.
         25    2    3    3    0    0  0.41559644275E+02  0.13819182166E+03  0.14651499440E+03  0.23635060250E+03  0.11649369130E+03 0.  0.
         35    2    3    3    0    0 -0.41559644275E+02 -0.13819182166E+03  0.80770421323E+03  0.11461027457E+04  0.80021323662E+03 0.  0.
         22    1    5    5    0    0 -0.16857010187E+03  0.26634423961E+03  0.11815920145E+03  0.33662550424E+03  0.00000000000E+00 0.  1.
         22    1    5    5    0    0  0.12701045759E+03 -0.40453606127E+03  0.68954501177E+03  0.80947724148E+03  0.00000000000E+00 0.  1.
          5    1    4    4  502    0 -0.63062904581E+01  0.12429935753E+03  0.64486790445E+02  0.14025240006E+03  0.47000000000E+01 0.  1.
         -5    1    4    4    0  502  0.47865934733E+02  0.13892464127E+02  0.82028203953E+02  0.96098202434E+02  0.47000000000E+01 0.  1.
<mgrwt>
<rscale>  0 0.10003214E+04</rscale>
<asrwt>0</asrwt>
<pdfrwt beam="1">  1        1 0.17974404E+00 0.10003214E+04</pdfrwt>
<pdfrwt beam="2">  1       -1 0.32941088E-01 0.10003214E+04</pdfrwt>
<totfact> 0.10773911E+02</totfact>
</mgrwt>
</event>
<event>
 9    1  0.4246427E-036  0.1000412E+04  0.7818608E-02  0.8680646E-01
         -1   -1    0    0    0  501 -0.00000000000E+00  0.00000000000E+00  0.48763012966E+03  0.48763012966E+03  0.00000000000E+00 0. -1.
          1   -1    0    0  501    0  0.00000000000E+00 -0.00000000000E+00 -0.51310636439E+03  0.51310636439E+03  0.00000000000E+00 0. -1.
         36    2    1    2    0    0  0.71054273576E-14  0.14210854715E-13 -0.25476234733E+02  0.10007364940E+04  0.10004121611E+04 0.  0.
         25    2    3    3    0    0  0.14270995789E+02  0.79732924030E+02 -0.11968137437E+03  0.19122149061E+03  0.12522390589E+03 0.  0.
         35    2    3    3    0    0 -0.14270995789E+02 -0.79732924030E+02  0.94205139639E+02  0.80951500344E+03  0.79992432889E+03 0.  0.
         22    1    5    5    0    0  0.32142050664E+03  0.18985471129E+03  0.52025944586E+02  0.37691199556E+03  0.00000000000E+00 0. -1.
         22    1    5    5    0    0 -0.33569150243E+03 -0.26958763533E+03  0.42179195053E+02  0.43260300787E+03  0.00000000000E+00 0. -1.
          5    1    4    4  502    0  0.50382339577E+02  0.92509006972E+02 -0.10791028607E+03  0.15087417391E+03  0.47000000000E+01 0.  1.
         -5    1    4    4    0  502 -0.36111343789E+02 -0.12776082942E+02 -0.11771088303E+02  0.40347316706E+02  0.47000000000E+01 0.  1.
<mgrwt>
<rscale>  0 0.10004122E+04</rscale>
<asrwt>0</asrwt>
<pdfrwt beam="1">  1        1 0.78939441E-01 0.10004122E+04</pdfrwt>
<pdfrwt beam="2">  1       -1 0.75020020E-01 0.10004122E+04</pdfrwt>
<totfact> 0.90027537E+01</totfact>
</mgrwt>
</event>
<event>
 9    1  0.4246427E-036  0.9997772E+03  0.7818608E-02  0.8681250E-01
          1   -1    0    0  501    0  0.00000000000E+00  0.00000000000E+00  0.49278968211E+03  0.49278968211E+03  0.00000000000E+00 0. -1.
         -1   -1    0    0    0  501 -0.00000000000E+00 -0.00000000000E+00 -0.50708981977E+03  0.50708981977E+03  0.00000000000E+00 0. -1.
         36    2    1    2    0    0  0.14210854715E-13 -0.14210854715E-13 -0.14300137654E+02  0.99987950188E+03  0.99977723736E+03 0.  0.
         25    2    3    3    0    0 -0.10504967428E+03  0.82864511129E+02  0.41579609765E+00  0.18241886748E+03  0.12399398798E+03 0.  0.
         35    2    3    3    0    0  0.10504967428E+03 -0.82864511129E+02 -0.14715933752E+02  0.81746063440E+03  0.80630228129E+03 0.  0.
         22    1    5    5    0    0 -0.28769498477E+03 -0.13785735049E+03 -0.20333956084E+03  0.37831208063E+03  0.00000000000E+00 0.  1.
         22    1    5    5    0    0  0.39274465904E+03  0.54992839363E+02  0.18862362709E+03  0.43914855377E+03  0.00000000000E+00 0.  1.
          5    1    4    4  502    0 -0.18568994161E+02 -0.26396056364E+02 -0.24494582046E+02  0.40787668300E+02  0.47000000000E+01 0. -1.
         -5    1    4    4    0  502 -0.86480680114E+02  0.10926056749E+03  0.24910378144E+02  0.14163119918E+03  0.47000000000E+01 0. -1.
<mgrwt>
<rscale>  0 0.99977724E+03</rscale>
<asrwt>0</asrwt>
<pdfrwt beam="1">  1        1 0.75813797E-01 0.99977724E+03</pdfrwt>
<pdfrwt beam="2">  1       -1 0.78013818E-01 0.99977724E+03</pdfrwt>
<totfact> 0.87905947E+01</totfact>
</mgrwt>
</event>
<event>
 9    1  0.4246427E-036  0.1001322E+04  0.7818608E-02  0.8679780E-01
          2   -1    0    0  501    0  0.00000000000E+00  0.00000000000E+00  0.67253879923E+03  0.67253879923E+03  0.00000000000E+00 0. -1.
         -2   -1    0    0    0  501 -0.00000000000E+00 -0.00000000000E+00 -0.37270927852E+03  0.37270927852E+03  0.00000000000E+00 0. -1.
         36    2    1    2    0    0  0.00000000000E+00 -0.46185277824E-13  0.29982952072E+03  0.10452480778E+04  0.10013220274E+04 0.  0.
         25    2    3    3    0    0  0.14300140755E+03 -0.61023454933E+01  0.69159635560E+02  0.20065919128E+03  0.12245168302E+03 0.  0.
         35    2    3    3    0    0 -0.14300140755E+03  0.61023454933E+01  0.23066988516E+03  0.84458888647E+03  0.79977193627E+03 0.  0.
         22    1    5    5    0    0  0.18949989823E+03 -0.27792447992E+03  0.22963830408E+03  0.40729102453E+03  0.00000000000E+00 0.  1.
         22    1    5    5    0    0 -0.33250130578E+03  0.28402682541E+03  0.10315810801E+01  0.43729786194E+03  0.00000000000E+00 0.  1.
          5    1    4    4  502    0 -0.18146800028E+02  0.16820008990E+02  0.52392340679E+01  0.25724669624E+02  0.47000000000E+01 0.  1.
         -5    1    4    4    0  502  0.16114820758E+03 -0.22922354483E+02  0.63920401492E+02  0.17493452166E+03  0.47000000000E+01 0.  1.
<mgrwt>
<rscale>  0 0.10013220E+04</rscale>
<asrwt>0</asrwt>
<pdfrwt beam="1">  1        2 0.10346751E+00 0.10013220E+04</pdfrwt>
<pdfrwt beam="2">  1       -2 0.57339889E-01 0.10013220E+04</pdfrwt>
<totfact> 0.14860218E+02</totfact>
</mgrwt>
</event>
<event>
 9    1  0.4246427E-036  0.1000197E+04  0.7818608E-02  0.8680850E-01
          2   -1    0    0  501    0  0.00000000000E+00  0.00000000000E+00  0.22712961027E+03  0.22712961027E+03  0.00000000000E+00 0.  1.
         -2   -1    0    0    0  501 -0.00000000000E+00 -0.00000000000E+00 -0.11011278726E+04  0.11011278726E+04  0.00000000000E+00 0.  1.
         36    2    1    2    0    0  0.00000000000E+00 -0.28421709430E-13 -0.87399826232E+03  0.13282574829E+04  0.10001974696E+04 0.  0.
         25    2    3    3    0    0  0.36057379349E+02  0.12717946460E+03 -0.22667013207E+03  0.29114021331E+03  0.12612899828E+03 0.  0.
         35    2    3    3    0    0 -0.36057379349E+02 -0.12717946460E+03 -0.64732813024E+03  0.10371172696E+04  0.79943966113E+03 0.  0.
         22    1    5    5    0    0  0.29567024779E+03 -0.26127378460E+03 -0.14496429787E+03  0.42035643638E+03  0.00000000000E+00 0. -1.
         22    1    5    5    0    0 -0.33172762714E+03  0.13409431999E+03 -0.50236383238E+03  0.61676083318E+03  0.00000000000E+00 0. -1.
          5    1    4    4  502    0  0.55253791065E+02  0.13295736350E+03 -0.13583205588E+03  0.19799767509E+03  0.47000000000E+01 0.  1.
         -5    1    4    4    0  502 -0.19196411716E+02 -0.57778989011E+01 -0.90838076199E+02  0.93142538219E+02  0.47000000000E+01 0.  1.
<mgrwt>
<rscale>  0 0.10001975E+04</rscale>
<asrwt>0</asrwt>
<pdfrwt beam="1">  1        2 0.34943017E-01 0.10001975E+04</pdfrwt>
<pdfrwt beam="2">  1       -2 0.16940429E+00 0.10001975E+04</pdfrwt>
<totfact> 0.35911380E+01</totfact>
</mgrwt>
</event>
<event>
 9    1  0.4246427E-036  0.9998603E+03  0.7818608E-02  0.8681171E-01
         -2   -1    0    0    0  501 -0.00000000000E+00  0.00000000000E+00  0.15388138123E+03  0.15388138123E+03  0.00000000000E+00 0.  1.
          2   -1    0    0  501    0  0.00000000000E+00 -0.00000000000E+00 -0.16241740945E+04  0.16241740945E+04  0.00000000000E+00 0.  1.
         36    2    1    2    0    0  0.14210854715E-13  0.00000000000E+00 -0.14702927132E+04  0.17780554757E+04  0.99986029626E+03 0.  0.
         25    2    3    3    0    0  0.12405260866E+03  0.49895261037E+02 -0.34418873309E+03  0.38985051424E+03  0.12505579825E+03 0.  0.
         35    2    3    3    0    0 -0.12405260866E+03 -0.49895261037E+02 -0.11261039801E+04  0.13882049614E+04  0.80070235051E+03 0.  0.
         22    1    5    5    0    0  0.18052399398E+03 -0.34290742463E+03 -0.58264467880E+03  0.69974940944E+03  0.00000000000E+00 0.  1.
         22    1    5    5    0    0 -0.30457660264E+03  0.29301216359E+03 -0.54345930134E+03  0.68845555201E+03  0.00000000000E+00 0.  1.
          5    1    4    4  502    0  0.59777013071E+02  0.63981585631E+02 -0.29445782719E+03  0.30723677609E+03  0.47000000000E+01 0. -1.
         -5    1    4    4    0  502  0.64275595588E+02 -0.14086324594E+02 -0.49730905908E+02  0.82613738150E+02  0.47000000000E+01 0. -1.
<mgrwt>
<rscale>  0 0.99986030E+03</rscale>
<asrwt>0</asrwt>
<pdfrwt beam="1">  1        2 0.24987292E+00 0.99986030E+03</pdfrwt>
<pdfrwt beam="2">  1       -2 0.23674061E-01 0.99986030E+03</pdfrwt>
<totfact> 0.20364455E+02</totfact>
</mgrwt>
</event>
<event>
 9    1  0.4246427E-036  0.1002097E+04  0.7818608E-02  0.8679043E-01
         -1   -1    0    0    0  501 -0.00000000000E+00  0.00000000000E+00  0.15005200176E+04  0.15005200176E+04  0.00000000000E+00 0.  1.
          1   -1    0    0  501    0  0.00000000000E+00 -0.00000000000E+00 -0.16730852023E+03  0.16730852023E+03  0.00000000000E+00 0.  1.
         36    2    1    2    0    0  0.28421709430E-13  0.14210854715E-13  0.13332114974E+04  0.16678285378E+04  0.10020973680E+04 0.  0.
         25    2    3    3    0    0  0.13260822091E+03 -0.57379442779E+02  0.27324181508E+03  0.33325538438E+03  0.12458218573E+03 0.  0.
         35    2    3    3    0    0 -0.13260822091E+03  0.57379442779E+02  0.10599696823E+04  0.13345731535E+04  0.79791756081E+03 0.  0.
         22    1    5    5    0    0  0.33145297224E+03 -0.36726704528E+02  0.50334200966E+03  0.60379061133E+03  0.00000000000E+00 0.  1.
         22    1    5    5    0    0 -0.46406119315E+03  0.94106147307E+02  0.55662767263E+03  0.73078254213E+03  0.00000000000E+00 0.  1.
          5    1    4    4  502    0  0.90113798542E+02  0.26519222537E+02  0.16378091061E+03  0.18886514377E+03  0.47000000000E+01 0.  1.
         -5    1    4    4    0  502  0.42494422368E+02 -0.83898665316E+02  0.10946090447E+03  0.14439024061E+03  0.47000000000E+01 0.  1.
<mgrwt>
<rscale>  0 0.10020974E+04</rscale>
<asrwt>0</asrwt>
<pdfrwt beam="1">  1        1 0.25739773E-01 0.10020974E+04</pdfrwt>
<pdfrwt beam="2">  1       -1 0.23084922E+00 0.10020974E+04</pdfrwt>
<totfact> 0.15789793E+01</totfact>
</mgrwt>
</event>
<event>
 9    1  0.4246427E-036  0.1003239E+04  0.7818608E-02  0.8677960E-01
         -2   -1    0    0    0  501 -0.00000000000E+00  0.00000000000E+00  0.88956783258E+03  0.88956783258E+03  0.00000000000E+00 0.  1.
          2   -1    0    0  501    0  0.00000000000E+00 -0.00000000000E+00 -0.28285878570E+03  0.28285878570E+03  0.00000000000E+00 0.  1.
         36    2    1    2    0    0 -0.28421709430E-13  0.00000000000E+00  0.60670904688E+03  0.11724266183E+04  0.10032389086E+04 0.  0.
         25    2    3    3    0    0 -0.12176890927E+03  0.56931354554E+02  0.16808327593E+03  0.24847167542E+03  0.12416657940E+03 0.  0.
         35    2    3    3    0    0  0.12176890927E+03 -0.56931354554E+02  0.43862577095E+03  0.92395494286E+03  0.80201703417E+03 0.  0.
         22    1    5    5    0    0  0.44794142469E+03 -0.96217855978E+02  0.36864361546E+03  0.58805400346E+03  0.00000000000E+00 0.  1.
         22    1    5    5    0    0 -0.32617251541E+03  0.39286501424E+02  0.69982155489E+02  0.33590093940E+03  0.00000000000E+00 0.  1.
          5    1    4    4  502    0 -0.10174039302E+03  0.87131158562E+02  0.87709221526E+02  0.16018097236E+03  0.47000000000E+01 0.  1.
         -5    1    4    4    0  502 -0.20028516255E+02 -0.30199804008E+02  0.80374054405E+02  0.88290703062E+02  0.47000000000E+01 0.  1.
<mgrwt>
<rscale>  0 0.10032389E+04</rscale>
<asrwt>0</asrwt>
<pdfrwt beam="1">  1        2 0.43516737E-01 0.10032389E+04</pdfrwt>
<pdfrwt beam="2">  1       -2 0.13685659E+00 0.10032389E+04</pdfrwt>
<totfact> 0.51181663E+01</totfact>
</mgrwt>
</event>
<event>
 9    1  0.4246427E-036  0.9994086E+03  0.7818608E-02  0.8681601E-01
         -2   -1    0    0    0  501 -0.00000000000E+00  0.00000000000E+00  0.13305937333E+03  0.13305937333E+03  0.00000000000E+00 0. -1.
          2   -1    0    0  501    0  0.00000000000E+00 -0.00000000000E+00 -0.18766388814E+04  0.18766388814E+04  0.00000000000E+00 0. -1.
         36    2    1    2    0    0  0.00000000000E+00 -0.28421709430E-13 -0.17435795081E+04  0.20096982547E+04  0.99940861220E+03 0.  0.
         25    2    3    3    0    0 -0.13071381524E+02 -0.12827584324E+03 -0.44973552214E+03  0.48431906804E+03  0.12520929204E+03 0.  0.
         35    2    3    3    0    0  0.13071381524E+02  0.12827584324E+03 -0.12938439859E+04  0.15253791867E+04  0.79757372721E+03 0.  0.
         22    1    5    5    0    0 -0.22300839493E+03  0.37173759257E+03 -0.49772307485E+03  0.66003775739E+03  0.00000000000E+00 0. -1.
         22    1    5    5    0    0  0.23607977645E+03 -0.24346174933E+03 -0.79612091108E+03  0.86534142932E+03  0.00000000000E+00 0. -1.
          5    1    4    4  502    0  0.11654508124E+02 -0.29357733586E+02 -0.10859566622E+02  0.33730168516E+02  0.47000000000E+01 0. -1.
         -5    1    4    4    0  502 -0.24725889648E+02 -0.98918109658E+02 -0.43887595552E+03  0.45058889952E+03  0.47000000000E+01 0. -1.
<mgrwt>
<rscale>  0 0.99940861E+03</rscale>
<asrwt>0</asrwt>
<pdfrwt beam="1">  1        2 0.28871368E+00 0.99940861E+03</pdfrwt>
<pdfrwt beam="2">  1       -2 0.20470672E-01 0.99940861E+03</pdfrwt>
<totfact> 0.18918378E+02</totfact>
</mgrwt>
</event>
<event>
 9    1  0.4246427E-036  0.1000413E+04  0.7818608E-02  0.8680645E-01
          2   -1    0    0  501    0  0.00000000000E+00  0.00000000000E+00  0.19215309421E+04  0.19215309421E+04  0.00000000000E+00 0.  1.
         -2   -1    0    0    0  501 -0.00000000000E+00 -0.00000000000E+00 -0.13021196985E+03  0.13021196985E+03  0.00000000000E+00 0.  1.
         36    2    1    2    0    0  0.14210854715E-13 -0.14210854715E-13  0.17913189722E+04  0.20517429119E+04  0.10004125731E+04 0.  0.
         25    2    3    3    0    0  0.16803267980E+02 -0.57276439295E+02  0.60799897355E+03  0.62319724861E+03  0.12308175549E+03 0.  0.
         35    2    3    3    0    0 -0.16803267980E+02  0.57276439295E+02  0.11833199987E+04  0.14285456633E+04  0.79808116916E+03 0.  0.
         22    1    5    5    0    0 -0.29001737054E+03 -0.24920579118E+03  0.47448180486E+03  0.60938213357E+03  0.00000000000E+00 0.  1.
         22    1    5    5    0    0  0.27321410256E+03  0.30648223048E+03  0.70883819382E+03  0.81916352974E+03  0.00000000000E+00 0.  1.
          5    1    4    4  502    0  0.65399384597E+02 -0.22289269912E+02  0.42466342773E+03  0.43027317823E+03  0.47000000000E+01 0.  1.
         -5    1    4    4    0  502 -0.48596116617E+02 -0.34987169383E+02  0.18333554582E+03  0.19292407038E+03  0.47000000000E+01 0.  1.
<mgrwt>
<rscale>  0 0.10004126E+04</rscale>
<asrwt>0</asrwt>
<pdfrwt beam="1">  1        2 0.29562012E+00 0.10004126E+04</pdfrwt>
<pdfrwt beam="2">  1       -2 0.20032612E-01 0.10004126E+04</pdfrwt>
<totfact> 0.18523331E+02</totfact>
</mgrwt>
</event>
<event>
 9    1  0.4246427E-036  0.9997836E+03  0.7818608E-02  0.8681244E-01
          2   -1    0    0  501    0  0.00000000000E+00  0.00000000000E+00  0.21877614241E+04  0.21877614241E+04  0.00000000000E+00 0.  1.
         -2   -1    0    0    0  501 -0.00000000000E+00 -0.00000000000E+00 -0.11422259979E+03  0.11422259979E+03  0.00000000000E+00 0.  1.
         36    2    1    2    0    0  0.00000000000E+00 -0.21316282073E-13  0.20735388243E+04  0.23019840239E+04  0.99978357176E+03 0.  0.
         25    2    3    3    0    0  0.13806239038E+03 -0.60485962746E+01  0.34293200525E+03  0.39040326753E+03  0.12535765601E+03 0.  0.
         35    2    3    3    0    0 -0.13806239038E+03  0.60485962746E+01  0.17306068191E+04  0.19115807564E+04  0.80002701003E+03 0.  0.
         22    1    5    5    0    0 -0.11130777351E+03 -0.33694150734E+03  0.38887043845E+03  0.52644013687E+03  0.00000000000E+00 0. -1.
         22    1    5    5    0    0 -0.26754616876E+02  0.34299010362E+03  0.13417363806E+04  0.13851406195E+04  0.00000000000E+00 0. -1.
          5    1    4    4  502    0  0.10611290622E+03 -0.61067220509E+02  0.21549536549E+03  0.24789009023E+03  0.47000000000E+01 0. -1.
         -5    1    4    4    0  502  0.31949484160E+02  0.55018624235E+02  0.12743663976E+03  0.14251317730E+03  0.47000000000E+01 0. -1.
<mgrwt>
<rscale>  0 0.99978357E+03</rscale>
<asrwt>0</asrwt>
<pdfrwt beam="1">  1        2 0.33657865E+00 0.99978357E+03</pdfrwt>
<pdfrwt beam="2">  1       -2 0.17572709E-01 0.99978357E+03</pdfrwt>
<totfact> 0.16329229E+02</totfact>
</mgrwt>
</event>
<event>
 9    1  0.4246427E-036  0.9987299E+03  0.7818608E-02  0.8682248E-01
         -2   -1    0    0    0  501 -0.00000000000E+00  0.00000000000E+00  0.19234820101E+03  0.19234820101E+03  0.00000000000E+00 0. -1.
          2   -1    0    0  501    0  0.00000000000E+00 -0.00000000000E+00 -0.12964266518E+04  0.12964266518E+04  0.00000000000E+00 0. -1.
         36    2    1    2    0    0  0.00000000000E+00  0.00000000000E+00 -0.11040784508E+04  0.14887748528E+04  0.99872986181E+03 0.  0.
         25    2    3    3    0    0  0.35686982495E+02  0.10453136435E+03 -0.76705338078E+02  0.18180132138E+03  0.12234232593E+03 0.  0.
         35    2    3    3    0    0 -0.35686982495E+02 -0.10453136435E+03 -0.10273731128E+04  0.13069735315E+04  0.80030240052E+03 0.  0.
         22    1    5    5    0    0 -0.47915050862E+02  0.82506286013E+02  0.11494276670E+03  0.14938199004E+03  0.00000000000E+00 0.  1.
         22    1    5    5    0    0  0.12228068366E+02 -0.18703765036E+03 -0.11423158795E+04  0.11575915414E+04  0.00000000000E+00 0.  1.
          5    1    4    4  502    0  0.19034810863E+02  0.97149309227E+02  0.37470966749E+01  0.99178843719E+02  0.47000000000E+01 0. -1.
         -5    1    4    4    0  502  0.16652171633E+02  0.73820551229E+01 -0.80452434753E+02  0.82622477665E+02  0.47000000000E+01 0. -1.
<mgrwt>
<rscale>  0 0.99872986E+03</rscale>
<asrwt>0</asrwt>
<pdfrwt beam="1">  1        2 0.19945025E+00 0.99872986E+03</pdfrwt>
<pdfrwt beam="2">  1       -2 0.29592031E-01 0.99872986E+03</pdfrwt>
<totfact> 0.20993225E+02</totfact>
</mgrwt>
</event>
<event>
 9    1  0.4246427E-036  0.1000043E+04  0.7818608E-02  0.8680997E-01
         -1   -1    0    0    0  501 -0.00000000000E+00  0.00000000000E+00  0.25036150774E+03  0.25036150774E+03  0.00000000000E+00 0.  1.
          1   -1    0    0  501    0  0.00000000000E+00 -0.00000000000E+00 -0.99864120194E+03  0.99864120194E+03  0.00000000000E+00 0.  1.
         36    2    1    2    0    0  0.14210854715E-13  0.21316282073E-13 -0.74827969419E+03  0.12490027097E+04  0.10000426331E+04 0.  0.
         25    2    3    3    0    0 -0.76638276432E+02 -0.17913722345E+02  0.44796951440E+01  0.14749475892E+03  0.12466077723E+03 0.  0.
         35    2    3    3    0    0  0.76638276432E+02  0.17913722345E+02 -0.75275938934E+03  0.11015079508E+04  0.80029915687E+03 0.  0.
         22    1    5    5    0    0 -0.56178231336E+02  0.37954859040E+03 -0.53689233951E+03  0.65989886375E+03  0.00000000000E+00 0.  1.
         22    1    5    5    0    0  0.13281650777E+03 -0.36163486805E+03 -0.21586704983E+03  0.44160908701E+03  0.00000000000E+00 0.  1.
          5    1    4    4  502    0 -0.21411789485E+02 -0.15854603107E+02  0.61965618197E+02  0.67614059242E+02  0.47000000000E+01 0. -1.
         -5    1    4    4    0  502 -0.55226486947E+02 -0.20591192377E+01 -0.57485923053E+02  0.79880699682E+02  0.47000000000E+01 0. -1.
<mgrwt>
<rscale>  0 0.10000426E+04</rscale>
<asrwt>0</asrwt>
<pdfrwt beam="1">  1        1 0.15363711E+00 0.10000426E+04</pdfrwt>
<pdfrwt beam="2">  1       -1 0.38517155E-01 0.10000426E+04</pdfrwt>
<totfact> 0.11081253E+02</totfact>
</mgrwt>
</event>
<event>
 9    1  0.4246427E-036  0.9994454E+03  0.7818608E-02  0.8681566E-01
          1   -1    0    0  501    0  0.00000000000E+00  0.00000000000E+00  0.83229937502E+03  0.83229937502E+03  0.00000000000E+00 0. -1.
         -1   -1    0    0    0  501 -0.00000000000E+00 -0.00000000000E+00 -0.30003958786E+03  0.30003958786E+03  0.00000000000E+00 0. -1.
         36    2    1    2    0    0  0.00000000000E+00  0.14210854715E-13  0.53225978716E+03  0.11323389629E+04  0.99944536910E+03 0.  0.
         25    2    3    3    0    0  0.70643976402E+02  0.34188109354E+02 -0.30875647614E+02  0.14984846348E+03  0.12386225482E+03 0.  0.
         35    2    3    3    0    0 -0.70643976402E+02 -0.34188109354E+02  0.56313543478E+03  0.98249049939E+03  0.80125318425E+03 0.  0.
         22    1    5    5    0    0 -0.31293785466E+03 -0.26902293360E+03  0.12843737568E+03  0.43220319197E+03  0.00000000000E+00 0. -1.
         22    1    5    5    0    0  0.24229387826E+03  0.23483482424E+03  0.43469805910E+03  0.55028730742E+03  0.00000000000E+00 0. -1.
          5    1    4    4  502    0  0.74449192325E+02  0.46025870102E+02 -0.67664121153E+02  0.11073204707E+03  0.47000000000E+01 0.  1.
         -5    1    4    4    0  502 -0.38052159236E+01 -0.11837760749E+02  0.36788473539E+02  0.39116416414E+02  0.47000000000E+01 0.  1.
<mgrwt>
<rscale>  0 0.99944537E+03</rscale>
<asrwt>0</asrwt>
<pdfrwt beam="1">  1        1 0.12804606E+00 0.99944537E+03</pdfrwt>
<pdfrwt beam="2">  1       -1 0.46159937E-01 0.99944537E+03</pdfrwt>
<totfact> 0.10991613E+02</totfact>
</mgrwt>
</event>
<event>
 9    1  0.4246427E-036  0.9991737E+03  0.7818608E-02  0.8681825E-01
         -2   -1    0    0    0  501 -0.00000000000E+00  0.00000000000E+00  0.37951984306E+03  0.37951984306E+03  0.00000000000E+00 0.  1.
          2   -1    0    0  501    0  0.00000000000E+00 -0.00000000000E+00 -0.65763893087E+03  0.65763893087E+03  0.00000000000E+00 0.  1.
         36    2    1    2    0    0 -0.14210854715E-13  0.14210854715E-13 -0.27811908782E+03  0.10371587739E+04  0.99917370628E+03 0.  0.
         25    2    3    3    0    0 -0.56415907534E+02  0.98736494797E+01  0.78989216179E+02  0.15870403025E+03  0.12516960241E+03 0.  0.
         35    2    3    3    0    0  0.56415907534E+02 -0.98736494797E+01 -0.35710830400E+03  0.87845474368E+03  0.80054740792E+03 0.  0.
         22    1    5    5    0    0  0.37970676404E+02 -0.27180465903E+03  0.14606158870E+03  0.31089151264E+03  0.00000000000E+00 0. -1.
         22    1    5    5    0    0  0.18445231130E+02  0.26193100955E+03 -0.50316989270E+03  0.56756323104E+03  0.00000000000E+00 0. -1.
          5    1    4    4  502    0 -0.46689860729E+02  0.22722915196E+02 -0.21810551970E+02  0.56516052119E+02  0.47000000000E+01 0. -1.
         -5    1    4    4    0  502 -0.97260468049E+01 -0.12849265717E+02  0.10079976815E+03  0.10218797813E+03  0.47000000000E+01 0. -1.
<mgrwt>
<rscale>  0 0.99917371E+03</rscale>
<asrwt>0</asrwt>
<pdfrwt beam="1">  1        2 0.10117522E+00 0.99917371E+03</pdfrwt>
<pdfrwt beam="2">  1       -2 0.58387669E-01 0.99917371E+03</pdfrwt>
<totfact> 0.14708710E+02</totfact>
</mgrwt>
</event>
<event>
 9    1  0.4246427E-036  0.1001023E+04  0.7818608E-02  0.8680064E-01
          2   -1    0    0  501    0  0.00000000000E+00  0.00000000000E+00  0.24111026377E+03  0.24111026377E+03  0.00000000000E+00 0.  1.
         -2   -1    0    0    0  501 -0.00000000000E+00 -0.00000000000E+00 -0.10389932147E+04  0.10389932147E+04  0.00000000000E+00 0.  1.
         36    2    1    2    0    0 -0.28421709430E-13 -0.28421709430E-13 -0.79788295093E+03  0.12801034785E+04  0.10010233325E+04 0.  0.
         25    2    3    3    0    0 -0.24847957749E+02 -0.13763207609E+03 -0.10812812535E+03  0.21660022555E+03  0.12515573038E+03 0.  0.
         35    2    3    3    0    0  0.24847957749E+02  0.13763207609E+03 -0.68975482559E+03  0.10635032529E+04  0.79731890744E+03 0.  0.
         22    1    5    5    0    0  0.40167075657E+03  0.70437282271E+02 -0.24103792097E+03  0.47370886288E+03  0.00000000000E+00 0.  1.
         22    1    5    5    0    0 -0.37682279882E+03  0.67194793815E+02 -0.44871690461E+03  0.58979439004E+03  0.00000000000E+00 0.  1.
          5    1    4    4  502    0  0.40969143048E+02 -0.18126864399E+02 -0.52533564674E+02  0.69202018124E+02  0.47000000000E+01 0. -1.
         -5    1    4    4    0  502 -0.65817100797E+02 -0.11950521169E+03 -0.55594560672E+02  0.14739820743E+03  0.47000000000E+01 0. -1.
<mgrwt>
<rscale>  0 0.10010233E+04</rscale>
<asrwt>0</asrwt>
<pdfrwt beam="1">  1        2 0.37093886E-01 0.10010233E+04</pdfrwt>
<pdfrwt beam="2">  1       -2 0.15984511E+00 0.10010233E+04</pdfrwt>
<totfact> 0.39717086E+01</totfact>
</mgrwt>
</event>
<event>
 9    1  0.4246427E-036  0.1000123E+04  0.7818608E-02  0.8680921E-01
         -2   -1    0    0    0  501 -0.00000000000E+00  0.00000000000E+00  0.56467644074E+03  0.56467644074E+03  0.00000000000E+00 0.  1.
          2   -1    0    0  501    0  0.00000000000E+00 -0.00000000000E+00 -0.44283997763E+03  0.44283997763E+03  0.00000000000E+00 0.  1.
         36    2    1    2    0    0  0.56843418861E-13  0.00000000000E+00  0.12183646312E+03  0.10075164184E+04  0.10001225973E+04 0.  0.
         25    2    3    3    0    0  0.18323909097E+02 -0.57152293851E+02 -0.10479787289E+03  0.17351264880E+03  0.12458689656E+03 0.  0.
         35    2    3    3    0    0 -0.18323909097E+02  0.57152293851E+02  0.22663433601E+03  0.83400376957E+03  0.80037304744E+03 0.  0.
         22    1    5    5    0    0 -0.34712124514E+03  0.14164932786E+03 -0.72121527919E+02  0.38178423972E+03  0.00000000000E+00 0.  1.
         22    1    5    5    0    0  0.32879733604E+03 -0.84497034007E+02  0.29875586393E+03  0.45221952985E+03  0.00000000000E+00 0.  1.
          5    1    4    4  502    0  0.66495564846E+02 -0.60161803090E+02 -0.68284089457E+02  0.11280917325E+03  0.47000000000E+01 0. -1.
         -5    1    4    4    0  502 -0.48171655750E+02  0.30095092398E+01 -0.36513783434E+02  0.60703475553E+02  0.47000000000E+01 0. -1.
<mgrwt>
<rscale>  0 0.10001226E+04</rscale>
<asrwt>0</asrwt>
<pdfrwt beam="1">  1        2 0.68129227E-01 0.10001226E+04</pdfrwt>
<pdfrwt beam="2">  1       -2 0.86873299E-01 0.10001226E+04</pdfrwt>
<totfact> 0.97247597E+01</totfact>
</mgrwt>
</event>
<event>
 9    1  0.4246427E-036  0.9990817E+03  0.7818608E-02  0.8681913E-01
         -2   -1    0    0    0  501 -0.00000000000E+00  0.00000000000E+00  0.10033092599E+04  0.10033092599E+04  0.00000000000E+00 0. -1.
          2   -1    0    0  501    0  0.00000000000E+00 -0.00000000000E+00 -0.24871800873E+03  0.24871800873E+03  0.00000000000E+00 0. -1.
         36    2    1    2    0    0  0.00000000000E+00  0.14210854715E-13  0.75459125120E+03  0.12520272687E+04  0.99908174094E+03 0.  0.
         25    2    3    3    0    0 -0.78522006973E+02  0.71370258131E+02  0.25221747131E+03  0.30033786059E+03  0.12381340131E+03 0.  0.
         35    2    3    3    0    0  0.78522006973E+02 -0.71370258131E+02  0.50237377989E+03  0.95168940807E+03  0.80129513626E+03 0.  0.
         22    1    5    5    0    0  0.30805798540E+03 -0.31070771644E+02 -0.83906680944E+02  0.32078878772E+03  0.00000000000E+00 0. -1.
         22    1    5    5    0    0 -0.22953597843E+03 -0.40299486486E+02  0.58628046083E+03  0.63090062035E+03  0.00000000000E+00 0. -1.
          5    1    4    4  502    0 -0.50164762838E+02  0.88222113832E+02  0.93207805116E+02  0.13787468852E+03  0.47000000000E+01 0. -1.
         -5    1    4    4    0  502 -0.28357244135E+02 -0.16851855701E+02  0.15900966619E+03  0.16246317207E+03  0.47000000000E+01 0. -1.
<mgrwt>
<rscale>  0 0.99908174E+03</rscale>
<asrwt>0</asrwt>
<pdfrwt beam="1">  1        2 0.38264310E-01 0.99908174E+03</pdfrwt>
<pdfrwt beam="2">  1       -2 0.15435527E+00 0.99908174E+03</pdfrwt>
<totfact> 0.42382214E+01</totfact>
</mgrwt>
</event>
<event>
 9    1  0.4246427E-036  0.1003658E+04  0.7818608E-02  0.8677563E-01
         -1   -1    0    0    0  501 -0.00000000000E+00  0.00000000000E+00  0.11798775233E+04  0.11798775233E+04  0.00000000000E+00 0. -1.
          1   -1    0    0  501    0  0.00000000000E+00 -0.00000000000E+00 -0.21343925418E+03  0.21343925418E+03  0.00000000000E+00 0. -1.
         36    2    1    2    0    0  0.00000000000E+00  0.28421709430E-13  0.96643826912E+03  0.13933167775E+04  0.10036576679E+04 0.  0.
         25    2    3    3    0    0 -0.10396025904E+03  0.75801174106E+02  0.26229982711E+03  0.31787478246E+03  0.12525823153E+03 0.  0.
         35    2    3    3    0    0  0.10396025904E+03 -0.75801174106E+02  0.70413844201E+03  0.10754419950E+04  0.80262755104E+03 0.  0.
         22    1    5    5    0    0 -0.15604514098E+03  0.30718979179E+03  0.36244366030E+03  0.50008105453E+03  0.00000000000E+00 0.  1.
         22    1    5    5    0    0  0.26000540002E+03 -0.38299096590E+03  0.34169478171E+03  0.57536094050E+03  0.00000000000E+00 0.  1.
          5    1    4    4  502    0  0.90201714609E+01  0.49515692421E+02  0.31607047701E+02  0.59617637940E+02  0.47000000000E+01 0. -1.
         -5    1    4    4    0  502 -0.11298043050E+03  0.26285481684E+02  0.23069277941E+03  0.25825714452E+03  0.47000000000E+01 0. -1.
<mgrwt>
<rscale>  0 0.10036577E+04</rscale>
<asrwt>0</asrwt>
<pdfrwt beam="1">  1        1 0.32836809E-01 0.10036577E+04</pdfrwt>
<pdfrwt beam="2">  1       -1 0.18151961E+00 0.10036577E+04</pdfrwt>
<totfact> 0.30467093E+01</totfact>
</mgrwt>
</event>
<event>
 9    1  0.4246427E-036  0.9976896E+03  0.7818608E-02  0.8683241E-01
          1   -1    0    0  501    0  0.00000000000E+00  0.00000000000E+00  0.57170655597E+03  0.57170655597E+03  0.00000000000E+00 0.  1.
         -1   -1    0    0    0  501 -0.00000000000E+00 -0.00000000000E+00 -0.43526897518E+03  0.43526897518E+03  0.00000000000E+00 0.  1.
         36    2    1    2    0    0 -0.35527136788E-14  0.35527136788E-14  0.13643758079E+03  0.10069755312E+04  0.99768958443E+03 0.  0.
         25    2    3    3    0    0 -0.24053387241E+02 -0.26320568771E+02  0.15168908653E+03  0.20603558360E+03  0.13479519635E+03 0.  0.
         35    2    3    3    0    0  0.24053387241E+02  0.26320568771E+02 -0.15251505735E+02  0.80093994755E+03  0.80000053336E+03 0.  0.
         22    1    5    5    0    0  0.33600406153E+02  0.25269864000E+03  0.31200228913E+03  0.40290323699E+03  0.00000000000E+00 0.  1.
         22    1    5    5    0    0 -0.95470189119E+01 -0.22637807123E+03 -0.32725379487E+03  0.39803671057E+03  0.00000000000E+00 0.  1.
          5    1    4    4  502    0  0.36668998321E+02 -0.21626818684E+02  0.13654077366E+03  0.14310069041E+03  0.47000000000E+01 0.  1.
         -5    1    4    4    0  502 -0.60722385562E+02 -0.46937500872E+01  0.15148312868E+02  0.62934893191E+02  0.47000000000E+01 0.  1.
<mgrwt>
<rscale>  0 0.99768958E+03</rscale>
<asrwt>0</asrwt>
<pdfrwt beam="1">  1        1 0.87954855E-01 0.99768958E+03</pdfrwt>
<pdfrwt beam="2">  1       -1 0.66964457E-01 0.99768958E+03</pdfrwt>
<totfact> 0.96898808E+01</totfact>
</mgrwt>
</event>
<event>
 9    1  0.4246427E-036  0.9974637E+03  0.7818608E-02  0.8683457E-01
          1   -1    0    0  501    0  0.00000000000E+00  0.00000000000E+00  0.11052770470E+04  0.11052770470E+04  0.00000000000E+00 0.  1.
         -1   -1    0    0    0  501 -0.00000000000E+00 -0.00000000000E+00 -0.22504173909E+03  0.22504173909E+03  0.00000000000E+00 0.  1.
         36    2    1    2    0    0  0.00000000000E+00  0.00000000000E+00  0.88023530794E+03  0.13303187861E+04  0.99746372132E+03 0.  0.
         25    2    3    3    0    0 -0.10890269333E+03 -0.42257091635E+02  0.67610016222E+02  0.18384681734E+03  0.12483220556E+03 0.  0.
         35    2    3    3    0    0  0.10890269333E+03  0.42257091635E+02  0.81262529172E+03  0.11464719688E+04  0.80024536990E+03 0.  0.
         22    1    5    5    0    0  0.31639672936E+03 -0.71023511293E+02  0.26249972709E+02  0.32533104766E+03  0.00000000000E+00 0. -1.
         22    1    5    5    0    0 -0.20749403603E+03  0.11328060293E+03  0.78637531901E+03  0.82114092112E+03  0.00000000000E+00 0. -1.
          5    1    4    4  502    0 -0.44485679229E+02  0.43604453578E+02  0.34790203012E+02  0.71503652032E+02  0.47000000000E+01 0. -1.
         -5    1    4    4    0  502 -0.64417014101E+02 -0.85861545213E+02  0.32819813209E+02  0.11234316531E+03  0.47000000000E+01 0. -1.
<mgrwt>
<rscale>  0 0.99746372E+03</rscale>
<asrwt>0</asrwt>
<pdfrwt beam="1">  1        1 0.17004262E+00 0.99746372E+03</pdfrwt>
<pdfrwt beam="2">  1       -1 0.34621807E-01 0.99746372E+03</pdfrwt>
<totfact> 0.11036076E+02</totfact>
</mgrwt>
</event>
<event>
 9    1  0.4246427E-036  0.1000230E+04  0.7818608E-02  0.8680819E-01
          2   -1    0    0  501    0  0.00000000000E+00  0.00000000000E+00  0.28749048914E+03  0.28749048914E+03  0.00000000000E+00 0.  1.
         -2   -1    0    0    0  501 -0.00000000000E+00 -0.00000000000E+00 -0.86999365461E+03  0.86999365461E+03  0.00000000000E+00 0.  1.
         36    2    1    2    0    0  0.35527136788E-14  0.00000000000E+00 -0.58250316547E+03  0.11574841437E+04  0.10002297762E+04 0.  0.
         25    2    3    3    0    0 -0.30225776694E+02 -0.13589299625E+03 -0.13776668930E+03  0.23159837359E+03  0.12360275872E+03 0.  0.
         35    2    3    3    0    0  0.30225776694E+02  0.13589299625E+03 -0.44473647618E+03  0.92588577015E+03  0.80005838670E+03 0.  0.
         22    1    5    5    0    0  0.20716987234E+03 -0.79914541932E+02  0.15065628540E+03  0.26833375924E+03  0.00000000000E+00 0. -1.
         22    1    5    5    0    0 -0.17694409565E+03  0.21580753819E+03 -0.59539276157E+03  0.65755201091E+03  0.00000000000E+00 0. -1.
          5    1    4    4  502    0  0.19544202323E+02  0.38512044782E+01  0.94578551360E+01  0.22546588304E+02  0.47000000000E+01 0.  1.
         -5    1    4    4    0  502 -0.49769979017E+02 -0.13974420073E+03 -0.14722454443E+03  0.20905178529E+03  0.47000000000E+01 0.  1.
<mgrwt>
<rscale>  0 0.10002298E+04</rscale>
<asrwt>0</asrwt>
<pdfrwt beam="1">  1        2 0.44229307E-01 0.10002298E+04</pdfrwt>
<pdfrwt beam="2">  1       -2 0.13384517E+00 0.10002298E+04</pdfrwt>
<totfact> 0.53400430E+01</totfact>
</mgrwt>
</event>
<event>
 9    1  0.4246427E-036  0.1002643E+04  0.7818608E-02  0.8678525E-01
          2   -1    0    0  501    0  0.00000000000E+00  0.00000000000E+00  0.60499505754E+03  0.60499505754E+03  0.00000000000E+00 0. -1.
         -2   -1    0    0    0  501 -0.00000000000E+00 -0.00000000000E+00 -0.41541351946E+03  0.41541351946E+03  0.00000000000E+00 0. -1.
         36    2    1    2    0    0 -0.42632564146E-13  0.00000000000E+00  0.18958153808E+03  0.10204085770E+04  0.10026427601E+04 0.  0.
         25    2    3    3    0    0  0.59261761477E+02  0.12801376726E+03  0.80539898504E+02  0.20449455906E+03  0.12422507177E+03 0.  0.
         35    2    3    3    0    0 -0.59261761477E+02 -0.12801376726E+03  0.10904163957E+03  0.81591401793E+03  0.79619477800E+03 0.  0.
         22    1    5    5    0    0 -0.34694629863E+03  0.61146398253E+02  0.26212580983E+03  0.43911337526E+03  0.00000000000E+00 0. -1.
         22    1    5    5    0    0  0.28768453716E+03 -0.18916016551E+03 -0.15308417026E+03  0.37680064267E+03  0.00000000000E+00 0. -1.
          5    1    4    4  502    0 -0.24049182740E+02  0.87726750142E+02  0.61487958425E+02  0.10989633712E+03  0.47000000000E+01 0. -1.
         -5    1    4    4    0  502  0.83310944217E+02  0.40287017115E+02  0.19051940079E+02  0.94598221945E+02  0.47000000000E+01 0. -1.
<mgrwt>
<rscale>  0 0.10026428E+04</rscale>
<asrwt>0</asrwt>
<pdfrwt beam="1">  1        2 0.93076163E-01 0.10026428E+04</pdfrwt>
<pdfrwt beam="2">  1       -2 0.63909772E-01 0.10026428E+04</pdfrwt>
<totfact> 0.13450651E+02</totfact>
</mgrwt>
</event>
<event>
 9    1  0.4246427E-036  0.9996147E+03  0.7818608E-02  0.8681405E-01
         -2   -1    0    0    0  501 -0.00000000000E+00  0.00000000000E+00  0.97407951954E+02  0.97407951954E+02  0.00000000000E+00 0. -1.
          2   -1    0    0  501    0  0.00000000000E+00 -0.00000000000E+00 -0.25645479545E+04  0.25645479545E+04  0.00000000000E+00 0. -1.
         36    2    1    2    0    0  0.14210854715E-13  0.00000000000E+00 -0.24671400025E+04  0.26619559064E+04  0.99961465362E+03 0.  0.
         25    2    3    3    0    0  0.43467196324E+02 -0.12761946159E+03 -0.55468459692E+03  0.58452924010E+03  0.12579072435E+03 0.  0.
         35    2    3    3    0    0 -0.43467196324E+02  0.12761946159E+03 -0.19124554056E+04  0.20774266663E+04  0.80002484427E+03 0.  0.
         22    1    5    5    0    0 -0.22736001104E+03  0.33549013017E+03 -0.52895380475E+03  0.66636201093E+03  0.00000000000E+00 0.  1.
         22    1    5    5    0    0  0.18389281472E+03 -0.20787066858E+03 -0.13835016009E+04  0.14110646554E+04  0.00000000000E+00 0.  1.
          5    1    4    4  502    0  0.28454058721E+02 -0.15040048067E+03 -0.42048715371E+03  0.44750583736E+03  0.47000000000E+01 0.  1.
         -5    1    4    4    0  502  0.15013137603E+02  0.22781019077E+02 -0.13419744322E+03  0.13702340274E+03  0.47000000000E+01 0.  1.
<mgrwt>
<rscale>  0 0.99961465E+03</rscale>
<asrwt>0</asrwt>
<pdfrwt beam="1">  1        2 0.39454584E+00 0.99961465E+03</pdfrwt>
<pdfrwt beam="2">  1       -2 0.14985839E-01 0.99961465E+03</pdfrwt>
<totfact> 0.12735539E+02</totfact>
</mgrwt>
</event>
<event>
 9    1  0.4246427E-036  0.9997976E+03  0.7818608E-02  0.8681231E-01
          2   -1    0    0  501    0  0.00000000000E+00  0.00000000000E+00  0.14501078174E+04  0.14501078174E+04  0.00000000000E+00 0.  1.
         -2   -1    0    0    0  501 -0.00000000000E+00 -0.00000000000E+00 -0.17233120468E+03  0.17233120468E+03  0.00000000000E+00 0.  1.
         36    2    1    2    0    0 -0.21316282073E-13  0.00000000000E+00  0.12777766127E+04  0.16224390220E+04  0.99979763369E+03 0.  0.
         25    2    3    3    0    0  0.60852493552E+01 -0.13272000158E+03  0.27528787017E+03  0.33040830147E+03  0.12543765438E+03 0.  0.
         35    2    3    3    0    0 -0.60852493552E+01  0.13272000158E+03  0.10024887425E+04  0.12920307206E+04  0.80418161815E+03 0.  0.
         22    1    5    5    0    0 -0.20870694209E+03 -0.41516561658E+02  0.10024601793E+04  0.10247968695E+04  0.00000000000E+00 0. -1.
         22    1    5    5    0    0  0.20262169274E+03  0.17423656324E+03  0.28563155152E-01  0.26723385106E+03  0.00000000000E+00 0. -1.
          5    1    4    4  502    0  0.60700020720E+02 -0.10100364876E+03  0.19830315484E+03  0.23072160887E+03  0.47000000000E+01 0. -1.
         -5    1    4    4    0  502 -0.54614771365E+02 -0.31716352823E+02  0.76984715331E+02  0.99686692604E+02  0.47000000000E+01 0. -1.
<mgrwt>
<rscale>  0 0.99979763E+03</rscale>
<asrwt>0</asrwt>
<pdfrwt beam="1">  1        2 0.22309350E+00 0.99979763E+03</pdfrwt>
<pdfrwt beam="2">  1       -2 0.26512494E-01 0.99979763E+03</pdfrwt>
<totfact> 0.20892712E+02</totfact>
</mgrwt>
</event>
<event>
 9    1  0.4246427E-036  0.1000897E+04  0.7818608E-02  0.8680185E-01
          2   -1    0    0  501    0  0.00000000000E+00  0.00000000000E+00  0.89605279753E+03  0.89605279753E+03  0.00000000000E+00 0.  1.
         -2   -1    0    0    0  501 -0.00000000000E+00 -0.00000000000E+00 -0.27950189824E+03  0.27950189824E+03  0.00000000000E+00 0.  1.
         36    2    1    2    0    0 -0.14210854715E-13 -0.28421709430E-13  0.61655089930E+03  0.11755546958E+04  0.10008965138E+04 0.  0.
         25    2    3    3    0    0  0.35888740578E+02 -0.13361182713E+03  0.13955427699E+03  0.23391225549E+03  0.12688350954E+03 0.  0.
         35    2    3    3    0    0 -0.35888740578E+02  0.13361182713E+03  0.47699662231E+03  0.94164244028E+03  0.80001536586E+03 0.  0.
         22    1    5    5    0    0 -0.35704621998E+03  0.28329194403E+03  0.29918210495E+03  0.54520295366E+03  0.00000000000E+00 0.  1.
         22    1    5    5    0    0  0.32115747940E+03 -0.14968011691E+03  0.17781451736E+03  0.39643948663E+03  0.00000000000E+00 0.  1.
          5    1    4    4  502    0 -0.10878743833E+02 -0.58342193314E+02  0.13205685119E+03  0.14485599930E+03  0.47000000000E+01 0.  1.
         -5    1    4    4    0  502  0.46767484410E+02 -0.75269633811E+02  0.74974258056E+01  0.89056256186E+02  0.47000000000E+01 0.  1.
<mgrwt>
<rscale>  0 0.10008965E+04</rscale>
<asrwt>0</asrwt>
<pdfrwt beam="1">  1        2 0.13785428E+00 0.10008965E+04</pdfrwt>
<pdfrwt beam="2">  1       -2 0.43000292E-01 0.10008965E+04</pdfrwt>
<totfact> 0.18303096E+02</totfact>
</mgrwt>
</event>
<event>
 9    1  0.4246427E-036  0.1000161E+04  0.7818608E-02  0.8680885E-01
         -2   -1    0    0    0  501 -0.00000000000E+00  0.00000000000E+00  0.12689538987E+03  0.12689538987E+03  0.00000000000E+00 0. -1.
          2   -1    0    0  501    0  0.00000000000E+00 -0.00000000000E+00 -0.19707613549E+04  0.19707613549E+04  0.00000000000E+00 0. -1.
         36    2    1    2    0    0  0.00000000000E+00 -0.28421709430E-13 -0.18438659650E+04  0.20976567448E+04  0.10001610480E+04 0.  0.
         25    2    3    3    0    0  0.86883000452E+02 -0.10501907862E+03 -0.38415332972E+03  0.42652486288E+03  0.12558668432E+03 0.  0.
         35    2    3    3    0    0 -0.86883000452E+02  0.10501907862E+03 -0.14597126353E+04  0.16711318819E+04  0.80208673245E+03 0.  0.
         22    1    5    5    0    0  0.24524507129E+03 -0.86773541377E+02 -0.13715165628E+03  0.29408394941E+03  0.00000000000E+00 0.  1.
         22    1    5    5    0    0 -0.33212807175E+03  0.19179262000E+03 -0.13225609790E+04  0.13770479325E+04  0.00000000000E+00 0.  1.
          5    1    4    4  502    0 -0.10904132243E+02 -0.27932122540E+02 -0.96696034167E+01  0.31854274435E+02  0.47000000000E+01 0.  1.
         -5    1    4    4    0  502  0.97787132695E+02 -0.77086956083E+02 -0.37448372630E+03  0.39467058845E+03  0.47000000000E+01 0.  1.
<mgrwt>
<rscale>  0 0.10001610E+04</rscale>
<asrwt>0</asrwt>
<pdfrwt beam="1">  1        2 0.30319406E+00 0.10001610E+04</pdfrwt>
<pdfrwt beam="2">  1       -2 0.19522368E-01 0.10001610E+04</pdfrwt>
<totfact> 0.18160830E+02</totfact>
</mgrwt>
</event>
<event>
 9    1  0.4246427E-036  0.1004030E+04  0.7818608E-02  0.8677210E-01
          1   -1    0    0  501    0  0.00000000000E+00  0.00000000000E+00  0.44627596683E+03  0.44627596683E+03  0.00000000000E+00 0.  1.
         -1   -1    0    0    0  501 -0.00000000000E+00 -0.00000000000E+00 -0.56471586051E+03  0.56471586051E+03  0.00000000000E+00 0.  1.
         36    2    1    2    0    0 -0.14210854715E-13  0.00000000000E+00 -0.11843989368E+03  0.10109918273E+04  0.10040301124E+04 0.  0.
         25    2    3    3    0    0  0.71618883345E+02 -0.33936818775E+02 -0.14222148876E+03  0.20691905028E+03  0.12770109391E+03 0.  0.
         35    2    3    3    0    0 -0.71618883345E+02  0.33936818775E+02  0.23781595078E+02  0.80407277706E+03  0.79980403501E+03 0.  0.
         22    1    5    5    0    0 -0.70022310493E+01 -0.15936416141E+03  0.36966016659E+03  0.40260974398E+03  0.00000000000E+00 0. -1.
         22    1    5    5    0    0 -0.64616652296E+02  0.19330098019E+03 -0.34587857151E+03  0.40146303308E+03  0.00000000000E+00 0. -1.
          5    1    4    4  502    0 -0.61935945638E+01 -0.54985479371E+01  0.21419834264E+02  0.23441287143E+02  0.47000000000E+01 0. -1.
         -5    1    4    4    0  502  0.77812477909E+02 -0.28438270837E+02 -0.16364132302E+03  0.18347776314E+03  0.47000000000E+01 0. -1.
<mgrwt>
<rscale>  0 0.10040301E+04</rscale>
<asrwt>0</asrwt>
<pdfrwt beam="1">  1        1 0.68657841E-01 0.10040301E+04</pdfrwt>
<pdfrwt beam="2">  1       -1 0.86879363E-01 0.10040301E+04</pdfrwt>
<totfact> 0.80240254E+01</totfact>
</mgrwt>
</event>
<event>
 9    1  0.4246427E-036  0.1000365E+04  0.7818608E-02  0.8680691E-01
         -1   -1    0    0    0  501 -0.00000000000E+00  0.00000000000E+00  0.53802433631E+03  0.53802433631E+03  0.00000000000E+00 0. -1.
          1   -1    0    0  501    0  0.00000000000E+00 -0.00000000000E+00 -0.46500204856E+03  0.46500204856E+03  0.00000000000E+00 0. -1.
         36    2    1    2    0    0  0.14210854715E-13  0.00000000000E+00  0.73022287753E+02  0.10030263849E+04  0.10003647706E+04 0.  0.
         25    2    3    3    0    0  0.64870622289E+02 -0.77816974310E+02 -0.82836462374E+02  0.18130226110E+03  0.12547888769E+03 0.  0.
         35    2    3    3    0    0 -0.64870622289E+02  0.77816974310E+02  0.15585875013E+03  0.82172412376E+03  0.80042170539E+03 0.  0.
         22    1    5    5    0    0 -0.21152255894E+03  0.18990689686E+03  0.41533105834E+03  0.50329545044E+03  0.00000000000E+00 0. -1.
         22    1    5    5    0    0  0.14665193665E+03 -0.11208992255E+03 -0.25947230822E+03  0.31842867332E+03  0.00000000000E+00 0. -1.
          5    1    4    4  502    0  0.78537352956E+02 -0.10422344029E+03 -0.73155514083E+02  0.14968119640E+03  0.47000000000E+01 0.  1.
         -5    1    4    4    0  502 -0.13666730666E+02  0.26406465984E+02 -0.96809482910E+01  0.31621064699E+02  0.47000000000E+01 0.  1.
<mgrwt>
<rscale>  0 0.10003648E+04</rscale>
<asrwt>0</asrwt>
<pdfrwt beam="1">  1        1 0.71538777E-01 0.10003648E+04</pdfrwt>
<pdfrwt beam="2">  1       -1 0.82772975E-01 0.10003648E+04</pdfrwt>
<totfact> 0.84125664E+01</totfact>
</mgrwt>
</event>
<event>
 9    1  0.4246427E-036  0.9966054E+03  0.7818608E-02  0.8684277E-01
          1   -1    0    0  501    0  0.00000000000E+00  0.00000000000E+00  0.62400402541E+03  0.62400402541E+03  0.00000000000E+00 0. -1.
         -1   -1    0    0    0  501 -0.00000000000E+00 -0.00000000000E+00 -0.39792302405E+03  0.39792302405E+03  0.00000000000E+00 0. -1.
         36    2    1    2    0    0  0.00000000000E+00  0.00000000000E+00  0.22608100136E+03  0.10219270495E+04  0.99660537589E+03 0.  0.
         25    2    3    3    0    0 -0.74612698463E+02  0.77796043554E+02  0.12682700531E+03  0.20799001661E+03  0.12472160426E+03 0.  0.
         35    2    3    3    0    0  0.74612698463E+02 -0.77796043554E+02  0.99253996052E+02  0.81393703285E+03  0.80063903137E+03 0.  0.
         22    1    5    5    0    0 -0.31626160853E+02 -0.18711849842E+03  0.41885627231E+03  0.45984141109E+03  0.00000000000E+00 0. -1.
         22    1    5    5    0    0  0.10623885932E+03  0.10932245487E+03 -0.31960227625E+03  0.35409562177E+03  0.00000000000E+00 0. -1.
          5    1    4    4  502    0  0.19901494146E+02  0.49586650278E+02  0.92187387146E+01  0.54424080135E+02  0.47000000000E+01 0. -1.
         -5    1    4    4    0  502 -0.94514192609E+02  0.28209393275E+02  0.11760826660E+03  0.15356593648E+03  0.47000000000E+01 0. -1.
<mgrwt>
<rscale>  0 0.99660538E+03</rscale>
<asrwt>0</asrwt>
<pdfrwt beam="1">  1        1 0.96000620E-01 0.99660538E+03</pdfrwt>
<pdfrwt beam="2">  1       -1 0.61218927E-01 0.99660538E+03</pdfrwt>
<totfact> 0.10153575E+02</totfact>
</mgrwt>
</event>
<event>
 9    1  0.4246427E-036  0.1000108E+04  0.7818608E-02  0.8680935E-01
         -2   -1    0    0    0  501 -0.00000000000E+00  0.00000000000E+00  0.94942433296E+03  0.94942433296E+03  0.00000000000E+00 0. -1.
          2   -1    0    0  501    0  0.00000000000E+00 -0.00000000000E+00 -0.26337418478E+03  0.26337418478E+03  0.00000000000E+00 0. -1.
         36    2    1    2    0    0 -0.21316282073E-13  0.14210854715E-13  0.68605014818E+03  0.12127985177E+04  0.10001077136E+04 0.  0.
         25    2    3    3    0    0 -0.23889464457E+02 -0.72196995818E+02  0.27488999470E+03  0.31158119904E+03  0.12544011195E+03 0.  0.
         35    2    3    3    0    0  0.23889464457E+02  0.72196995818E+02  0.41116015348E+03  0.90121731871E+03  0.79834633525E+03 0.  0.
         22    1    5    5    0    0  0.39206739566E+03 -0.27786983702E+02  0.91674826706E+02  0.40360033828E+03  0.00000000000E+00 0. -1.
         22    1    5    5    0    0 -0.36817793121E+03  0.99983979521E+02  0.31948532677E+03  0.49761698043E+03  0.00000000000E+00 0. -1.
          5    1    4    4  502    0 -0.47899021427E+02 -0.95493534996E+02  0.24133500725E+03  0.26396592054E+03  0.47000000000E+01 0. -1.
         -5    1    4    4    0  502  0.24009556970E+02  0.23296539178E+02  0.33554987451E+02  0.47615278498E+02  0.47000000000E+01 0. -1.
<mgrwt>
<rscale>  0 0.10001077E+04</rscale>
<asrwt>0</asrwt>
<pdfrwt beam="1">  1        2 0.40519106E-01 0.10001077E+04</pdfrwt>
<pdfrwt beam="2">  1       -2 0.14606528E+00 0.10001077E+04</pdfrwt>
<totfact> 0.46378057E+01</totfact>
</mgrwt>
</event>
<event>
 9    1  0.4246427E-036  0.1000372E+04  0.7818608E-02  0.8680684E-01
         -1   -1    0    0    0  501 -0.00000000000E+00  0.00000000000E+00  0.20355359068E+03  0.20355359068E+03  0.00000000000E+00 0. -1.
          1   -1    0    0  501    0  0.00000000000E+00 -0.00000000000E+00 -0.12290915755E+04  0.12290915755E+04  0.00000000000E+00 0. -1.
         36    2    1    2    0    0  0.00000000000E+00  0.28421709430E-13 -0.10255379848E+04  0.14326451662E+04  0.10003719378E+04 0.  0.
         25    2    3    3    0    0  0.72726857605E+02  0.80029166201E+02 -0.65685971562E+02  0.17831845928E+03  0.12565413961E+03 0.  0.
         35    2    3    3    0    0 -0.72726857605E+02 -0.80029166201E+02 -0.95985201325E+03  0.12543267069E+04  0.80020355973E+03 0.  0.
         22    1    5    5    0    0  0.86944309541E+02  0.17619531451E+03 -0.93047952035E+03  0.95099749716E+03  0.00000000000E+00 0. -1.
         22    1    5    5    0    0 -0.15967116715E+03 -0.25622448071E+03 -0.29372492901E+02  0.30332920973E+03  0.00000000000E+00 0. -1.
          5    1    4    4  502    0  0.27194525337E+02 -0.26095499842E+02  0.11087931614E+02  0.39567026017E+02  0.47000000000E+01 0.  1.
         -5    1    4    4    0  502  0.45532332268E+02  0.10612466604E+03 -0.76773903176E+02  0.13875143327E+03  0.47000000000E+01 0.  1.
<mgrwt>
<rscale>  0 0.10003719E+04</rscale>
<asrwt>0</asrwt>
<pdfrwt beam="1">  1        1 0.18909101E+00 0.10003719E+04</pdfrwt>
<pdfrwt beam="2">  1       -1 0.31315937E-01 0.10003719E+04</pdfrwt>
<totfact> 0.10589419E+02</totfact>
</mgrwt>
</event>
<event>
 9    1  0.4246427E-036  0.1000279E+04  0.7818608E-02  0.8680773E-01
          4   -1    0    0  501    0  0.00000000000E+00  0.00000000000E+00  0.23373085804E+03  0.23373085804E+03  0.00000000000E+00 0.  1.
         -4   -1    0    0    0  501 -0.00000000000E+00 -0.00000000000E+00 -0.10702022906E+04  0.10702022906E+04  0.00000000000E+00 0.  1.
         36    2    1    2    0    0  0.53290705182E-13 -0.71054273576E-14 -0.83647143253E+03  0.13039331486E+04  0.10002785605E+04 0.  0.
         25    2    3    3    0    0  0.31654791333E+02  0.10999363597E+02  0.21380930408E+02  0.13044930423E+03  0.12424518089E+03 0.  0.
         35    2    3    3    0    0 -0.31654791333E+02 -0.10999363597E+02 -0.85785236294E+03  0.11734838444E+04  0.80001915265E+03 0.  0.
         22    1    5    5    0    0 -0.29585319618E+03 -0.28819494484E+03 -0.50883137343E+03  0.65535853280E+03  0.00000000000E+00 0.  1.
         22    1    5    5    0    0  0.26419840485E+03  0.27719558125E+03 -0.34902098951E+03  0.51812531158E+03  0.00000000000E+00 0.  1.
          5    1    4    4  502    0 -0.14960495682E+02 -0.14618759638E+02  0.60544978411E+02  0.64228568217E+02  0.47000000000E+01 0. -1.
         -5    1    4    4    0  502  0.46615287015E+02  0.25618123235E+02 -0.39164048004E+02  0.66220736009E+02  0.47000000000E+01 0. -1.
<mgrwt>
<rscale>  0 0.10002786E+04</rscale>
<asrwt>0</asrwt>
<pdfrwt beam="1">  1        4 0.35958595E-01 0.10002786E+04</pdfrwt>
<pdfrwt beam="2">  1       -4 0.16464650E+00 0.10002786E+04</pdfrwt>
<totfact> 0.33740133E+00</totfact>
</mgrwt>
</event>
<event>
 9    1  0.4246427E-036  0.1000128E+04  0.7818608E-02  0.8680916E-01
          2   -1    0    0  501    0  0.00000000000E+00  0.00000000000E+00  0.98395986655E+03  0.98395986655E+03  0.00000000000E+00 0. -1.
         -2   -1    0    0    0  501 -0.00000000000E+00 -0.00000000000E+00 -0.25414042270E+03  0.25414042270E+03  0.00000000000E+00 0. -1.
         36    2    1    2    0    0 -0.49737991503E-13  0.00000000000E+00  0.72981944384E+03  0.12381002893E+04  0.10001279446E+04 0.  0.
         25    2    3    3    0    0  0.46017912682E+02 -0.13257927344E+03  0.15193657149E+03  0.24202056549E+03  0.12567545636E+03 0.  0.
         35    2    3    3    0    0 -0.46017912682E+02  0.13257927344E+03  0.57788287235E+03  0.99607972376E+03  0.79908152894E+03 0.  0.
         22    1    5    5    0    0  0.36608364705E+03  0.12935298171E+03  0.19911211627E+03  0.43634283007E+03  0.00000000000E+00 0. -1.
         22    1    5    5    0    0 -0.41210155973E+03  0.32262917288E+01  0.37877075609E+03  0.55973689369E+03  0.00000000000E+00 0. -1.
          5    1    4    4  502    0  0.25268680800E+02 -0.14567397006E+03  0.15787046369E+03  0.21634367355E+03  0.47000000000E+01 0.  1.
         -5    1    4    4    0  502  0.20749231882E+02  0.13094696616E+02 -0.59338921966E+01  0.25676891941E+02  0.47000000000E+01 0.  1.
<mgrwt>
<rscale>  0 0.10001279E+04</rscale>
<asrwt>0</asrwt>
<pdfrwt beam="1">  1        2 0.15137844E+00 0.10001279E+04</pdfrwt>
<pdfrwt beam="2">  1       -2 0.39098527E-01 0.10001279E+04</pdfrwt>
<totfact> 0.19285068E+02</totfact>
</mgrwt>
</event>
<event>
 9    1  0.4246427E-036  0.1000233E+04  0.7818608E-02  0.8680816E-01
          1   -1    0    0  501    0  0.00000000000E+00  0.00000000000E+00  0.10660612558E+04  0.10660612558E+04  0.00000000000E+00 0.  1.
         -1   -1    0    0    0  501 -0.00000000000E+00 -0.00000000000E+00 -0.23461736404E+03  0.23461736404E+03  0.00000000000E+00 0.  1.
         36    2    1    2    0    0  0.00000000000E+00 -0.42632564146E-13  0.83144389174E+03  0.13006786198E+04  0.10002329363E+04 0.  0.
         25    2    3    3    0    0 -0.36735844067E+01  0.67237087491E+02  0.31529144828E+03  0.34565606081E+03  0.12463985662E+03 0.  0.
         35    2    3    3    0    0  0.36735844067E+01 -0.67237087491E+02  0.51615244346E+03  0.95502255901E+03  0.80069995765E+03 0.  0.
         22    1    5    5    0    0 -0.24430395465E+03 -0.27679993847E+03  0.51087164316E+03  0.63031140239E+03  0.00000000000E+00 0.  1.
         22    1    5    5    0    0  0.24797753905E+03  0.20956285098E+03  0.52808003002E+01  0.32471115663E+03  0.00000000000E+00 0.  1.
          5    1    4    4  502    0 -0.53604001781E+02  0.55295309931E+02  0.25454975266E+03  0.26598614041E+03  0.47000000000E+01 0.  1.
         -5    1    4    4    0  502  0.49930417374E+02  0.11941777560E+02  0.60741695617E+02  0.79669920402E+02  0.47000000000E+01 0.  1.
<mgrwt>
<rscale>  0 0.10002329E+04</rscale>
<asrwt>0</asrwt>
<pdfrwt beam="1">  1        1 0.16400942E+00 0.10002329E+04</pdfrwt>
<pdfrwt beam="2">  1       -1 0.36094980E-01 0.10002329E+04</pdfrwt>
<totfact> 0.10998368E+02</totfact>
</mgrwt>
</event>
<event>
 9    1  0.4246427E-036  0.1000353E+04  0.7818608E-02  0.8680702E-01
          2   -1    0    0  501    0  0.00000000000E+00  0.00000000000E+00  0.45643292116E+03  0.45643292116E+03  0.00000000000E+00 0.  1.
         -2   -1    0    0    0  501 -0.00000000000E+00 -0.00000000000E+00 -0.54811265159E+03  0.54811265159E+03  0.00000000000E+00 0.  1.
         36    2    1    2    0    0  0.14210854715E-13  0.71054273576E-14 -0.91679730426E+02  0.10045455727E+04  0.10003532550E+04 0.  0.
         25    2    3    3    0    0  0.10384339137E+03 -0.17831255822E+02 -0.11099096925E+03  0.19763560243E+03  0.12505771659E+03 0.  0.
         35    2    3    3    0    0 -0.10384339137E+03  0.17831255822E+02  0.19311238821E+02  0.80690997031E+03  0.79976832435E+03 0.  0.
         22    1    5    5    0    0 -0.45126131194E+03 -0.11012185673E+02 -0.40477683592E+02  0.45320688736E+03  0.00000000000E+00 0. -1.
         22    1    5    5    0    0  0.34741792056E+03  0.28843441495E+02  0.59788922413E+02  0.35370308295E+03  0.00000000000E+00 0. -1.
          5    1    4    4  502    0 -0.33168317438E+00 -0.52610549300E+02 -0.45224935197E+02  0.69536786487E+02  0.47000000000E+01 0. -1.
         -5    1    4    4    0  502  0.10417507455E+03  0.34779293478E+02 -0.65766034050E+02  0.12809881594E+03  0.47000000000E+01 0. -1.
<mgrwt>
<rscale>  0 0.10003533E+04</rscale>
<asrwt>0</asrwt>
<pdfrwt beam="1">  1        2 0.70220450E-01 0.10003533E+04</pdfrwt>
<pdfrwt beam="2">  1       -2 0.84325023E-01 0.10003533E+04</pdfrwt>
<totfact> 0.10075158E+02</totfact>
</mgrwt>
</event>
<event>
 9    1  0.4246427E-036  0.1001323E+04  0.7818608E-02  0.8679779E-01
         -1   -1    0    0    0  501 -0.00000000000E+00  0.00000000000E+00  0.74921612446E+02  0.74921612446E+02  0.00000000000E+00 0. -1.
          1   -1    0    0  501    0  0.00000000000E+00 -0.00000000000E+00 -0.33456567652E+04  0.33456567652E+04  0.00000000000E+00 0. -1.
         36    2    1    2    0    0  0.28421709430E-13 -0.71054273576E-14 -0.32707351527E+04  0.34205783776E+04  0.10013231237E+04 0.  0.
         25    2    3    3    0    0 -0.98697103623E+02  0.34516393795E+02 -0.29255798723E+03  0.33529312146E+03  0.12609045048E+03 0.  0.
         35    2    3    3    0    0  0.98697103623E+02 -0.34516393795E+02 -0.29781771655E+04  0.30852852562E+04  0.79907032424E+03 0.  0.
         22    1    5    5    0    0  0.39905843978E+03  0.34151732508E+02 -0.90941875643E+03  0.99370843497E+03  0.00000000000E+00 0. -1.
         22    1    5    5    0    0 -0.30036133616E+03 -0.68668126304E+02 -0.20687584091E+04  0.20915768212E+04  0.00000000000E+00 0. -1.
          5    1    4    4  502    0 -0.11211432414E+03 -0.84088129313E+01 -0.16298679819E+03  0.19805836563E+03  0.47000000000E+01 0.  1.
         -5    1    4    4    0  502  0.13417220514E+02  0.42925206727E+02 -0.12957118904E+03  0.13723475583E+03  0.47000000000E+01 0.  1.
<mgrwt>
<rscale>  0 0.10013231E+04</rscale>
<asrwt>0</asrwt>
<pdfrwt beam="1">  1        1 0.51471642E+00 0.10013231E+04</pdfrwt>
<pdfrwt beam="2">  1       -1 0.11526402E-01 0.10013231E+04</pdfrwt>
<totfact> 0.17033207E+01</totfact>
</mgrwt>
</event>
<event>
 9    1  0.4246427E-036  0.1000956E+04  0.7818608E-02  0.8680128E-01
         -2   -1    0    0    0  501 -0.00000000000E+00  0.00000000000E+00  0.25896091885E+03  0.25896091885E+03  0.00000000000E+00 0. -1.
          2   -1    0    0  501    0  0.00000000000E+00 -0.00000000000E+00 -0.96724321580E+03  0.96724321580E+03  0.00000000000E+00 0. -1.
         36    2    1    2    0    0  0.00000000000E+00  0.00000000000E+00 -0.70828229695E+03  0.12262041346E+04  0.10009559269E+04 0.  0.
         25    2    3    3    0    0  0.42236134132E+02  0.67348505581E+02  0.95758986710E+01  0.14896177859E+03  0.12561131085E+03 0.  0.
         35    2    3    3    0    0 -0.42236134132E+02 -0.67348505581E+02 -0.71785819562E+03  0.10772423561E+04  0.79925652480E+03 0.  0.
         22    1    5    5    0    0  0.86534113388E+02  0.33669859154E+03 -0.47477283708E+03  0.58844145091E+03  0.00000000000E+00 0.  1.
         22    1    5    5    0    0 -0.12877024752E+03 -0.40404709712E+03 -0.24308535854E+03  0.48880090515E+03  0.00000000000E+00 0.  1.
          5    1    4    4  502    0  0.63488284414E+02 -0.12968301249E+02 -0.16738664801E+01  0.64991006487E+02  0.47000000000E+01 0.  1.
         -5    1    4    4    0  502 -0.21252150283E+02  0.80316806830E+02  0.11249765151E+02  0.83970772099E+02  0.47000000000E+01 0.  1.
<mgrwt>
<rscale>  0 0.10009559E+04</rscale>
<asrwt>0</asrwt>
<pdfrwt beam="1">  1        2 0.14880664E+00 0.10009559E+04</pdfrwt>
<pdfrwt beam="2">  1       -2 0.39840142E-01 0.10009559E+04</pdfrwt>
<totfact> 0.19065462E+02</totfact>
</mgrwt>
</event>
<event>
 9    1  0.4246427E-036  0.1000051E+04  0.7818608E-02  0.8680990E-01
          1   -1    0    0  501    0  0.00000000000E+00  0.00000000000E+00  0.11492743691E+04  0.11492743691E+04  0.00000000000E+00 0. -1.
         -1   -1    0    0    0  501 -0.00000000000E+00 -0.00000000000E+00 -0.21755056837E+03  0.21755056837E+03  0.00000000000E+00 0. -1.
         36    2    1    2    0    0  0.00000000000E+00  0.28421709430E-13  0.93172380077E+03  0.13668249375E+04  0.10000505832E+04 0.  0.
         25    2    3    3    0    0  0.65104880869E+02 -0.11000850133E+03  0.25837249615E+03  0.31303167994E+03  0.12203265958E+03 0.  0.
         35    2    3    3    0    0 -0.65104880869E+02  0.11000850133E+03  0.67335130462E+03  0.10537932576E+04  0.80046095119E+03 0.  0.
         22    1    5    5    0    0 -0.12753879704E+03  0.13430632144E+03 -0.14343722586E+03  0.23426175635E+03  0.00000000000E+00 0. -1.
         22    1    5    5    0    0  0.62433916167E+02 -0.24297820109E+02  0.81678853048E+03  0.81953150121E+03  0.00000000000E+00 0. -1.
          5    1    4    4  502    0  0.67553870362E+02 -0.10651647509E+03  0.11886203586E+03  0.17337692590E+03  0.47000000000E+01 0.  1.
         -5    1    4    4    0  502 -0.24489894933E+01 -0.34920262387E+01  0.13951046029E+03  0.13965475404E+03  0.47000000000E+01 0.  1.
<mgrwt>
<rscale>  0 0.10000506E+04</rscale>
<asrwt>0</asrwt>
<pdfrwt beam="1">  1        1 0.17681144E+00 0.10000506E+04</pdfrwt>
<pdfrwt beam="2">  1       -1 0.33469319E-01 0.10000506E+04</pdfrwt>
<totfact> 0.10834327E+02</totfact>
</mgrwt>
</event>
<event>
 9    1  0.4246427E-036  0.9992140E+03  0.7818608E-02  0.8681787E-01
         -2   -1    0    0    0  501 -0.00000000000E+00  0.00000000000E+00  0.10955493630E+03  0.10955493630E+03  0.00000000000E+00 0. -1.
          2   -1    0    0  501    0  0.00000000000E+00 -0.00000000000E+00 -0.22783745189E+04  0.22783745189E+04  0.00000000000E+00 0. -1.
         36    2    1    2    0    0 -0.24868995752E-13  0.00000000000E+00 -0.21688195826E+04  0.23879294553E+04  0.99921404174E+03 0.  0.
         25    2    3    3    0    0 -0.19412874342E+02  0.29873840290E+02 -0.72977198353E+03  0.74102405400E+03  0.12361308436E+03 0.  0.
         35    2    3    3    0    0  0.19412874342E+02 -0.29873840290E+02 -0.14390475991E+04  0.16469054013E+04  0.80010630679E+03 0.  0.
         22    1    5    5    0    0 -0.22755881464E+03  0.19346113841E+03 -0.12010150512E+04  0.12375974222E+04  0.00000000000E+00 0. -1.
         22    1    5    5    0    0  0.24697168898E+03 -0.22333497870E+03 -0.23803254792E+03  0.40930797908E+03  0.00000000000E+00 0. -1.
          5    1    4    4  502    0 -0.33099473803E+02 -0.37215334082E+02 -0.17458593498E+03  0.18161193504E+03  0.47000000000E+01 0.  1.
         -5    1    4    4    0  502  0.13686599460E+02  0.67089174372E+02 -0.55518604856E+03  0.55941211895E+03  0.47000000000E+01 0.  1.
<mgrwt>
<rscale>  0 0.99921404E+03</rscale>
<asrwt>0</asrwt>
<pdfrwt beam="1">  1        2 0.35051912E+00 0.99921404E+03</pdfrwt>
<pdfrwt beam="2">  1       -2 0.16854607E-01 0.99921404E+03</pdfrwt>
<totfact> 0.15519213E+02</totfact>
</mgrwt>
</event>
<event>
 9    1  0.4246427E-036  0.1000625E+04  0.7818608E-02  0.8680443E-01
         -2   -1    0    0    0  501 -0.00000000000E+00  0.00000000000E+00  0.39945516874E+03  0.39945516874E+03  0.00000000000E+00 0.  1.
          2   -1    0    0  501    0  0.00000000000E+00 -0.00000000000E+00 -0.62663539893E+03  0.62663539893E+03  0.00000000000E+00 0.  1.
         36    2    1    2    0    0 -0.56843418861E-13  0.35527136788E-14 -0.22718023020E+03  0.10260905677E+04  0.10006253025E+04 0.  0.
         25    2    3    3    0    0  0.13102514454E+03 -0.31330927790E+02 -0.56019114857E+02  0.19566260524E+03  0.13037061909E+03 0.  0.
         35    2    3    3    0    0 -0.13102514454E+03  0.31330927790E+02 -0.17116111534E+03  0.83042796243E+03  0.80135214347E+03 0.  0.
         22    1    5    5    0    0 -0.46694891838E+03 -0.89570091392E+01 -0.44441632781E+02  0.46914451837E+03  0.00000000000E+00 0. -1.
         22    1    5    5    0    0  0.33592377384E+03  0.40287936929E+02 -0.12671948256E+03  0.36128344407E+03  0.00000000000E+00 0. -1.
          5    1    4    4  502    0  0.60775413964E+02 -0.59828445543E+02 -0.78960436029E+02  0.11631824576E+03  0.47000000000E+01 0. -1.
         -5    1    4    4    0  502  0.70249730574E+02  0.28497517754E+02  0.22941321172E+02  0.79344359478E+02  0.47000000000E+01 0. -1.
<mgrwt>
<rscale>  0 0.10006253E+04</rscale>
<asrwt>0</asrwt>
<pdfrwt beam="1">  1        2 0.96405445E-01 0.10006253E+04</pdfrwt>
<pdfrwt beam="2">  1       -2 0.61454642E-01 0.10006253E+04</pdfrwt>
<totfact> 0.14009906E+02</totfact>
</mgrwt>
</event>
<event>
 9    1  0.4246427E-036  0.1000908E+04  0.7818608E-02  0.8680174E-01
         -2   -1    0    0    0  501 -0.00000000000E+00  0.00000000000E+00  0.18084557158E+04  0.18084557158E+04  0.00000000000E+00 0. -1.
          2   -1    0    0  501    0  0.00000000000E+00 -0.00000000000E+00 -0.13849061201E+03  0.13849061201E+03  0.00000000000E+00 0. -1.
         36    2    1    2    0    0  0.00000000000E+00  0.28421709430E-13  0.16699651038E+04  0.19469463278E+04  0.10009078656E+04 0.  0.
         25    2    3    3    0    0  0.12076365787E+03  0.28936941184E+02  0.43736031576E+03  0.47152091435E+03  0.12500687675E+03 0.  0.
         35    2    3    3    0    0 -0.12076365787E+03 -0.28936941184E+02  0.12326047880E+04  0.14754254134E+04  0.80133911648E+03 0.  0.
         22    1    5    5    0    0 -0.23431219560E+03 -0.35121992749E+03  0.42766750018E+03  0.60096350404E+03  0.00000000000E+00 0. -1.
         22    1    5    5    0    0  0.11354853773E+03  0.32228298630E+03  0.80493728781E+03  0.87446190940E+03  0.00000000000E+00 0. -1.
          5    1    4    4  502    0  0.74485349273E+02 -0.37952007862E+01  0.79270803888E+02  0.10894228359E+03  0.47000000000E+01 0.  1.
         -5    1    4    4    0  502  0.46278308600E+02  0.32732141970E+02  0.35808951187E+03  0.36257863075E+03  0.47000000000E+01 0.  1.
<mgrwt>
<rscale>  0 0.10009079E+04</rscale>
<asrwt>0</asrwt>
<pdfrwt beam="1">  1        2 0.21306249E-01 0.10009079E+04</pdfrwt>
<pdfrwt beam="2">  1       -2 0.27822394E+00 0.10009079E+04</pdfrwt>
<totfact> 0.12270268E+01</totfact>
</mgrwt>
</event>
<event>
 9    1  0.4246427E-036  0.9994123E+03  0.7818608E-02  0.8681598E-01
         -2   -1    0    0    0  501 -0.00000000000E+00  0.00000000000E+00  0.34013914464E+03  0.34013914464E+03  0.00000000000E+00 0.  1.
          2   -1    0    0  501    0  0.00000000000E+00 -0.00000000000E+00 -0.73412967176E+03  0.73412967176E+03  0.00000000000E+00 0.  1.
         36    2    1    2    0    0  0.00000000000E+00  0.17763568394E-13 -0.39399052711E+03  0.10742688164E+04  0.99941230452E+03 0.  0.
         25    2    3    3    0    0 -0.13338561886E+03  0.16205045220E+02 -0.31978496442E+02  0.18607523396E+03  0.12468777666E+03 0.  0.
         35    2    3    3    0    0  0.13338561886E+03 -0.16205045220E+02 -0.36201203067E+03  0.88819358244E+03  0.79986298997E+03 0.  0.
         22    1    5    5    0    0  0.35981339361E+03 -0.28514222052E+03 -0.21895636535E+03  0.50863902138E+03  0.00000000000E+00 0. -1.
         22    1    5    5    0    0 -0.22642777475E+03  0.26893717530E+03 -0.14305566532E+03  0.37955456106E+03  0.00000000000E+00 0. -1.
          5    1    4    4  502    0 -0.10048243164E+03  0.28998979922E+02  0.34860052678E+02  0.11034026091E+03  0.47000000000E+01 0.  1.
         -5    1    4    4    0  502 -0.32903187220E+02 -0.12793934702E+02 -0.66838549120E+02  0.75734973050E+02  0.47000000000E+01 0.  1.
<mgrwt>
<rscale>  0 0.99941230E+03</rscale>
<asrwt>0</asrwt>
<pdfrwt beam="1">  1        2 0.11294303E+00 0.99941230E+03</pdfrwt>
<pdfrwt beam="2">  1       -2 0.52329100E-01 0.99941230E+03</pdfrwt>
<totfact> 0.16082988E+02</totfact>
</mgrwt>
</event>
<event>
 9    1  0.4246427E-036  0.9994155E+03  0.7818608E-02  0.8681595E-01
         -1   -1    0    0    0  501 -0.00000000000E+00  0.00000000000E+00  0.30062151617E+03  0.30062151617E+03  0.00000000000E+00 0.  1.
          1   -1    0    0  501    0  0.00000000000E+00 -0.00000000000E+00 -0.83063858785E+03  0.83063858785E+03  0.00000000000E+00 0.  1.
         36    2    1    2    0    0  0.71054273576E-14  0.28421709430E-13 -0.53001707168E+03  0.11312601040E+04  0.99941549252E+03 0.  0.
         25    2    3    3    0    0  0.54916009386E+02  0.10917139996E+03 -0.17952973692E+03  0.25091473422E+03  0.12567065988E+03 0.  0.
         35    2    3    3    0    0 -0.54916009386E+02 -0.10917139996E+03 -0.35048733476E+03  0.88034536980E+03  0.79826839825E+03 0.  0.
         22    1    5    5    0    0  0.11175604581E+03  0.17500457584E+03 -0.48261606974E+03  0.52538965170E+03  0.00000000000E+00 0. -1.
         22    1    5    5    0    0 -0.16667205520E+03 -0.28417597580E+03  0.13212873498E+03  0.35495571810E+03  0.00000000000E+00 0. -1.
          5    1    4    4  502    0 -0.73676890200E+01  0.94908614439E+01  0.17318991246E+02  0.21596220739E+02  0.47000000000E+01 0. -1.
         -5    1    4    4    0  502  0.62283698406E+02  0.99680538514E+02 -0.19684872817E+03  0.22931851348E+03  0.47000000000E+01 0. -1.
<mgrwt>
<rscale>  0 0.99941549E+03</rscale>
<asrwt>0</asrwt>
<pdfrwt beam="1">  1        1 0.12779055E+00 0.99941549E+03</pdfrwt>
<pdfrwt beam="2">  1       -1 0.46249465E-01 0.99941549E+03</pdfrwt>
<totfact> 0.10989222E+02</totfact>
</mgrwt>
</event>
<event>
 9    1  0.4246427E-036  0.9996782E+03  0.7818608E-02  0.8681345E-01
         -2   -1    0    0    0  501 -0.00000000000E+00  0.00000000000E+00  0.84462037436E+03  0.84462037436E+03  0.00000000000E+00 0. -1.
          2   -1    0    0  501    0  0.00000000000E+00 -0.00000000000E+00 -0.29580046753E+03  0.29580046753E+03  0.00000000000E+00 0. -1.
         36    2    1    2    0    0  0.00000000000E+00  0.71054273576E-14  0.54881990683E+03  0.11404208419E+04  0.99967815146E+03 0.  0.
         25    2    3    3    0    0  0.49157554498E+02  0.28992746687E+02 -0.35554483071E+02  0.14174738388E+03  0.12478443431E+03 0.  0.
         35    2    3    3    0    0 -0.49157554498E+02 -0.28992746687E+02  0.58437438990E+03  0.99867345802E+03  0.80783550532E+03 0.  0.
         22    1    5    5    0    0 -0.27915274423E+03 -0.11709758745E+03 -0.60201268178E+02  0.30864590114E+03  0.00000000000E+00 0. -1.
         22    1    5    5    0    0  0.22999518973E+03  0.88104840766E+02  0.64457565808E+03  0.69002755688E+03  0.00000000000E+00 0. -1.
          5    1    4    4  502    0  0.42346259283E+02 -0.45385488024E+02 -0.13099412508E+02  0.63613935631E+02  0.47000000000E+01 0. -1.
         -5    1    4    4    0  502  0.68112952143E+01  0.74378234711E+02 -0.22455070563E+02  0.78133448248E+02  0.47000000000E+01 0. -1.
<mgrwt>
<rscale>  0 0.99967815E+03</rscale>
<asrwt>0</asrwt>
<pdfrwt beam="1">  1        2 0.45507765E-01 0.99967815E+03</pdfrwt>
<pdfrwt beam="2">  1       -2 0.12994159E+00 0.99967815E+03</pdfrwt>
<totfact> 0.56001400E+01</totfact>
</mgrwt>
</event>
<event>
 9    1  0.4246427E-036  0.1000578E+04  0.7818608E-02  0.8680488E-01
         -2   -1    0    0    0  501 -0.00000000000E+00  0.00000000000E+00  0.65362804792E+03  0.65362804792E+03  0.00000000000E+00 0. -1.
          2   -1    0    0  501    0  0.00000000000E+00 -0.00000000000E+00 -0.38292255224E+03  0.38292255224E+03  0.00000000000E+00 0. -1.
         36    2    1    2    0    0  0.00000000000E+00  0.14210854715E-13  0.27070549567E+03  0.10365506002E+04  0.10005776738E+04 0.  0.
         25    2    3    3    0    0 -0.13249087822E+03 -0.38546914228E+02  0.81757061618E+02  0.20308332755E+03  0.12457497099E+03 0.  0.
         35    2    3    3    0    0  0.13249087822E+03  0.38546914228E+02  0.18894843406E+03  0.83346727261E+03  0.79995405266E+03 0.  0.
         22    1    5    5    0    0 -0.40883317330E+02 -0.36380286657E+03  0.29650652203E+02  0.36729161784E+03  0.00000000000E+00 0. -1.
         22    1    5    5    0    0  0.17337419555E+03  0.40234978080E+03  0.15929778185E+03  0.46617565476E+03  0.00000000000E+00 0. -1.
          5    1    4    4  502    0 -0.37151977198E+02 -0.39641163447E+02  0.92131078811E+02  0.10706034248E+03  0.47000000000E+01 0.  1.
         -5    1    4    4    0  502 -0.95338901021E+02  0.10942492198E+01 -0.10374017194E+02  0.96022985071E+02  0.47000000000E+01 0.  1.
<mgrwt>
<rscale>  0 0.10005777E+04</rscale>
<asrwt>0</asrwt>
<pdfrwt beam="1">  1        2 0.58911162E-01 0.10005777E+04</pdfrwt>
<pdfrwt beam="2">  1       -2 0.10055816E+00 0.10005777E+04</pdfrwt>
<totfact> 0.80849455E+01</totfact>
</mgrwt>
</event>
<event>
 9    1  0.4246427E-036  0.1000059E+04  0.7818608E-02  0.8680982E-01
          1   -1    0    0  501    0  0.00000000000E+00  0.00000000000E+00  0.78964130651E+03  0.78964130651E+03  0.00000000000E+00 0. -1.
         -1   -1    0    0    0  501 -0.00000000000E+00 -0.00000000000E+00 -0.31663687089E+03  0.31663687089E+03  0.00000000000E+00 0. -1.
         36    2    1    2    0    0 -0.28421709430E-13  0.00000000000E+00  0.47300443562E+03  0.11062781774E+04  0.10000591031E+04 0.  0.
         25    2    3    3    0    0  0.86260691189E+02  0.10504593677E+03  0.51717031803E+02  0.19155665846E+03  0.12467456173E+03 0.  0.
         35    2    3    3    0    0 -0.86260691189E+02 -0.10504593677E+03  0.42128740381E+03  0.91472151894E+03  0.80047287582E+03 0.  0.
         22    1    5    5    0    0 -0.32025187955E+03 -0.33363162251E+03  0.34988466078E+03  0.57990568349E+03  0.00000000000E+00 0.  1.
         22    1    5    5    0    0  0.23399118836E+03  0.22858568573E+03  0.71402743032E+02  0.33481583545E+03  0.00000000000E+00 0.  1.
          5    1    4    4  502    0  0.26925181145E+02 -0.27730256335E+02  0.10941295149E+02  0.40444213871E+02  0.47000000000E+01 0.  1.
         -5    1    4    4    0  502  0.59335510044E+02  0.13277619311E+03  0.40775736654E+02  0.15111244458E+03  0.47000000000E+01 0.  1.
<mgrwt>
<rscale>  0 0.10000591E+04</rscale>
<asrwt>0</asrwt>
<pdfrwt beam="1">  1        1 0.12148328E+00 0.10000591E+04</pdfrwt>
<pdfrwt beam="2">  1       -1 0.48713365E-01 0.10000591E+04</pdfrwt>
<totfact> 0.10855542E+02</totfact>
</mgrwt>
</event>
<event>
 9    1  0.4246427E-036  0.9993681E+03  0.7818608E-02  0.8681640E-01
         -1   -1    0    0    0  501 -0.00000000000E+00  0.00000000000E+00  0.20712451049E+03  0.20712451049E+03  0.00000000000E+00 0. -1.
          1   -1    0    0  501    0  0.00000000000E+00 -0.00000000000E+00 -0.12054785848E+04  0.12054785848E+04  0.00000000000E+00 0. -1.
         36    2    1    2    0    0  0.00000000000E+00  0.71054273576E-14 -0.99835407427E+03  0.14126030953E+04  0.99936812392E+03 0.  0.
         25    2    3    3    0    0 -0.12939439630E+03 -0.49849513660E+02 -0.16589500111E+03  0.24984837593E+03  0.12520054216E+03 0.  0.
         35    2    3    3    0    0  0.12939439630E+03  0.49849513660E+02 -0.83245907316E+03  0.11627547193E+04  0.79986407909E+03 0.  0.
         22    1    5    5    0    0  0.41609981485E+03  0.21704179652E+03 -0.39348331325E+03  0.61243392718E+03  0.00000000000E+00 0.  1.
         22    1    5    5    0    0 -0.28670541855E+03 -0.16719228286E+03 -0.43897575992E+03  0.55032079214E+03  0.00000000000E+00 0.  1.
          5    1    4    4  502    0 -0.12609894840E+03 -0.73912330016E+02 -0.17056420552E+03  0.22467357549E+03  0.47000000000E+01 0. -1.
         -5    1    4    4    0  502 -0.32954479047E+01  0.24062816356E+02  0.46692044110E+01  0.25174800450E+02  0.47000000000E+01 0. -1.
<mgrwt>
<rscale>  0 0.99936812E+03</rscale>
<asrwt>0</asrwt>
<pdfrwt beam="1">  1        1 0.18545824E+00 0.99936812E+03</pdfrwt>
<pdfrwt beam="2">  1       -1 0.31865309E-01 0.99936812E+03</pdfrwt>
<totfact> 0.10702121E+02</totfact>
</mgrwt>
</event>
<event>
 9    1  0.4246427E-036  0.9999037E+03  0.7818608E-02  0.8681130E-01
         -1   -1    0    0    0  501 -0.00000000000E+00  0.00000000000E+00  0.16171617536E+03  0.16171617536E+03  0.00000000000E+00 0. -1.
          1   -1    0    0  501    0  0.00000000000E+00 -0.00000000000E+00 -0.15456206563E+04  0.15456206563E+04  0.00000000000E+00 0. -1.
         36    2    1    2    0    0  0.00000000000E+00 -0.21316282073E-13 -0.13839044809E+04  0.17073368316E+04  0.99990371753E+03 0.  0.
         25    2    3    3    0    0  0.71091414343E+02 -0.12355530565E+02 -0.46992222266E+03  0.49130480197E+03  0.12388246350E+03 0.  0.
         35    2    3    3    0    0 -0.71091414343E+02  0.12355530565E+02 -0.91398225825E+03  0.12160320297E+04  0.79885147582E+03 0.  0.
         22    1    5    5    0    0 -0.11146102854E+03 -0.31483212240E+03 -0.11754582297E+03  0.35406192492E+03  0.00000000000E+00 0. -1.
         22    1    5    5    0    0  0.40369614200E+02  0.32718765297E+03 -0.79643643529E+03  0.86197010474E+03  0.00000000000E+00 0. -1.
          5    1    4    4  502    0  0.39604664492E+02 -0.67742842407E+02 -0.28581465544E+03  0.29642828713E+03  0.47000000000E+01 0. -1.
         -5    1    4    4    0  502  0.31486749852E+02  0.55387311841E+02 -0.18410756722E+03  0.19487651484E+03  0.47000000000E+01 0. -1.
<mgrwt>
<rscale>  0 0.99990372E+03</rscale>
<asrwt>0</asrwt>
<pdfrwt beam="1">  1        1 0.23778779E+00 0.99990372E+03</pdfrwt>
<pdfrwt beam="2">  1       -1 0.24879412E-01 0.99990372E+03</pdfrwt>
<totfact> 0.92465007E+01</totfact>
</mgrwt>
</event>
<event>
 9    1  0.4246427E-036  0.1001104E+04  0.7818608E-02  0.8679987E-01
         -1   -1    0    0    0  501 -0.00000000000E+00  0.00000000000E+00  0.49418533893E+03  0.49418533893E+03  0.00000000000E+00 0.  1.
          1   -1    0    0  501    0  0.00000000000E+00 -0.00000000000E+00 -0.50700107316E+03  0.50700107316E+03  0.00000000000E+00 0.  1.
         36    2    1    2    0    0  0.35527136788E-14 -0.14210854715E-13 -0.12815734232E+02  0.10011864121E+04  0.10011043845E+04 0.  0.
         25    2    3    3    0    0  0.30024606986E+02  0.10516572280E+03  0.87631998293E+02  0.18796698709E+03  0.12526338186E+03 0.  0.
         35    2    3    3    0    0 -0.30024606986E+02 -0.10516572280E+03 -0.10044773252E+03  0.81321942501E+03  0.79954660900E+03 0.  0.
         22    1    5    5    0    0  0.34528640661E+03 -0.87650779502E+02  0.12204490751E+03  0.37656383414E+03  0.00000000000E+00 0. -1.
         22    1    5    5    0    0 -0.37531101359E+03 -0.17514943295E+02 -0.22249264004E+03  0.43665559086E+03  0.00000000000E+00 0. -1.
          5    1    4    4  502    0  0.39751817479E+02 -0.12127801579E+02  0.11556358925E+01  0.41841558985E+02  0.47000000000E+01 0.  1.
         -5    1    4    4    0  502 -0.97272104921E+01  0.11729352438E+03  0.86476362400E+02  0.14612542810E+03  0.47000000000E+01 0.  1.
<mgrwt>
<rscale>  0 0.10011044E+04</rscale>
<asrwt>0</asrwt>
<pdfrwt beam="1">  1        1 0.78000165E-01 0.10011044E+04</pdfrwt>
<pdfrwt beam="2">  1       -1 0.76028514E-01 0.10011044E+04</pdfrwt>
<totfact> 0.89081743E+01</totfact>
</mgrwt>
</event>
<event>
 9    1  0.4246427E-036  0.9887655E+03  0.7818608E-02  0.8691811E-01
         -1   -1    0    0    0  501 -0.00000000000E+00  0.00000000000E+00  0.21325357295E+03  0.21325357295E+03  0.00000000000E+00 0.  1.
          1   -1    0    0  501    0  0.00000000000E+00 -0.00000000000E+00 -0.11461204624E+04  0.11461204624E+04  0.00000000000E+00 0.  1.
         36    2    1    2    0    0  0.00000000000E+00 -0.71054273576E-14 -0.93286688948E+03  0.13593740354E+04  0.98876545983E+03 0.  0.
         25    2    3    3    0    0 -0.10755354252E+03  0.91110585849E+01 -0.25987750355E+03  0.30826268607E+03  0.12585225812E+03 0.  0.
         35    2    3    3    0    0  0.10755354252E+03 -0.91110585849E+01 -0.67298938593E+03  0.10511113493E+04  0.80016846924E+03 0.  0.
         22    1    5    5    0    0  0.42234055586E+03  0.10366890826E+03 -0.21798452275E+03  0.48645250521E+03  0.00000000000E+00 0. -1.
         22    1    5    5    0    0 -0.31478701335E+03 -0.11277996685E+03 -0.45500486318E+03  0.56465884409E+03  0.00000000000E+00 0. -1.
          5    1    4    4  502    0  0.86213052266E+01  0.21266379938E+02 -0.13432783115E+00  0.23424215322E+02  0.47000000000E+01 0.  1.
         -5    1    4    4    0  502 -0.11617484774E+03 -0.12155321353E+02 -0.25974317572E+03  0.28483847075E+03  0.47000000000E+01 0.  1.
<mgrwt>
<rscale>  0 0.98876546E+03</rscale>
<asrwt>0</asrwt>
<pdfrwt beam="1">  1        1 0.17632623E+00 0.98876546E+03</pdfrwt>
<pdfrwt beam="2">  1       -1 0.32808242E-01 0.98876546E+03</pdfrwt>
<totfact> 0.11288172E+02</totfact>
</mgrwt>
</event>
<event>
 9    1  0.4246427E-036  0.9997054E+03  0.7818608E-02  0.8681319E-01
          2   -1    0    0  501    0  0.00000000000E+00  0.00000000000E+00  0.13656941168E+04  0.13656941168E+04  0.00000000000E+00 0. -1.
         -2   -1    0    0    0  501 -0.00000000000E+00 -0.00000000000E+00 -0.18294926338E+03  0.18294926338E+03  0.00000000000E+00 0. -1.
         36    2    1    2    0    0 -0.28421709430E-13 -0.35527136788E-14  0.11827448534E+04  0.15486433802E+04  0.99970542196E+03 0.  0.
         25    2    3    3    0    0 -0.13355529455E+03 -0.12533483820E+02  0.13391901819E+03  0.22522920379E+03  0.12165437061E+03 0.  0.
         35    2    3    3    0    0  0.13355529455E+03  0.12533483820E+02  0.10488258352E+04  0.13234141764E+04  0.79586138536E+03 0.  0.
         22    1    5    5    0    0  0.33382050556E+03  0.12796093422E+03  0.10314082517E+04  0.10916103299E+04  0.00000000000E+00 0.  1.
         22    1    5    5    0    0 -0.20026521101E+03 -0.11542745040E+03  0.17417583534E+02  0.23180384652E+03  0.00000000000E+00 0.  1.
          5    1    4    4  502    0  0.12430244904E+02 -0.29831790555E+02  0.35608225532E+02  0.48316482091E+02  0.47000000000E+01 0. -1.
         -5    1    4    4    0  502 -0.14598553945E+03  0.17298306735E+02  0.98310792659E+02  0.17691272170E+03  0.47000000000E+01 0. -1.
<mgrwt>
<rscale>  0 0.99970542E+03</rscale>
<asrwt>0</asrwt>
<pdfrwt beam="1">  1        2 0.21010678E+00 0.99970542E+03</pdfrwt>
<pdfrwt beam="2">  1       -2 0.28146041E-01 0.99970542E+03</pdfrwt>
<totfact> 0.20967004E+02</totfact>
</mgrwt>
</event>
<event>
 9    1  0.4246427E-036  0.9999907E+03  0.7818608E-02  0.8681047E-01
         -2   -1    0    0    0  501 -0.00000000000E+00  0.00000000000E+00  0.69706597098E+03  0.69706597098E+03  0.00000000000E+00 0. -1.
          2   -1    0    0  501    0  0.00000000000E+00 -0.00000000000E+00 -0.35863941197E+03  0.35863941197E+03  0.00000000000E+00 0. -1.
         36    2    1    2    0    0  0.71054273576E-14  0.28421709430E-13  0.33842655901E+03  0.10557053829E+04  0.99999065982E+03 0.  0.
         25    2    3    3    0    0 -0.68042268164E+01  0.11289096581E+03  0.15556965423E+03  0.22875052579E+03  0.12383140986E+03 0.  0.
         35    2    3    3    0    0  0.68042268164E+01 -0.11289096581E+03  0.18285690478E+03  0.82695485715E+03  0.79851551048E+03 0.  0.
         22    1    5    5    0    0  0.17141324849E+03 -0.41809359713E+03  0.46156437323E+02  0.45421930212E+03  0.00000000000E+00 0.  1.
         22    1    5    5    0    0 -0.16460902168E+03  0.30520263132E+03  0.13670046746E+03  0.37273555503E+03  0.00000000000E+00 0.  1.
          5    1    4    4  502    0 -0.41459673943E+02  0.12351632432E+03  0.11196657435E+03  0.17185398078E+03  0.47000000000E+01 0.  1.
         -5    1    4    4    0  502  0.34655447127E+02 -0.10625358513E+02  0.43603079882E+02  0.56896545012E+02  0.47000000000E+01 0.  1.
<mgrwt>
<rscale>  0 0.99999066E+03</rscale>
<asrwt>0</asrwt>
<pdfrwt beam="1">  1        2 0.55175294E-01 0.99999066E+03</pdfrwt>
<pdfrwt beam="2">  1       -2 0.10724092E+00 0.99999066E+03</pdfrwt>
<totfact> 0.74213711E+01</totfact>
</mgrwt>
</event>
<event>
 9    1  0.4246427E-036  0.1000047E+04  0.7818608E-02  0.8680993E-01
         -2   -1    0    0    0  501 -0.00000000000E+00  0.00000000000E+00  0.51253004968E+03  0.51253004968E+03  0.00000000000E+00 0.  1.
          2   -1    0    0  501    0  0.00000000000E+00 -0.00000000000E+00 -0.48782186974E+03  0.48782186974E+03  0.00000000000E+00 0.  1.
         36    2    1    2    0    0 -0.14210854715E-13  0.00000000000E+00  0.24708179943E+02  0.10003519194E+04  0.10000467332E+04 0.  0.
         25    2    3    3    0    0 -0.65251957499E+02  0.69566967216E+02  0.10505256650E+03  0.19104764604E+03  0.12792881006E+03 0.  0.
         35    2    3    3    0    0  0.65251957499E+02 -0.69566967216E+02 -0.80344386561E+02  0.80930427338E+03  0.79963792154E+03 0.  0.
         22    1    5    5    0    0 -0.35898911251E+03  0.45794038641E+02  0.25736238087E+01  0.36190730915E+03  0.00000000000E+00 0. -1.
         22    1    5    5    0    0  0.42424107001E+03 -0.11536100586E+03 -0.82918010370E+02  0.44739696423E+03  0.00000000000E+00 0. -1.
          5    1    4    4  502    0 -0.20090597781E+02  0.78193582383E+02  0.11799867720E+03  0.14305120156E+03  0.47000000000E+01 0.  1.
         -5    1    4    4    0  502 -0.45161359719E+02 -0.86266151670E+01 -0.12946110700E+02  0.47996444484E+02  0.47000000000E+01 0.  1.
<mgrwt>
<rscale>  0 0.10000467E+04</rscale>
<asrwt>0</asrwt>
<pdfrwt beam="1">  1        2 0.75049519E-01 0.10000467E+04</pdfrwt>
<pdfrwt beam="2">  1       -2 0.78850777E-01 0.10000467E+04</pdfrwt>
<totfact> 0.10910756E+02</totfact>
</mgrwt>
</event>
<event>
 9    1  0.4246427E-036  0.1001682E+04  0.7818608E-02  0.8679438E-01
         -2   -1    0    0    0  501 -0.00000000000E+00  0.00000000000E+00  0.26449749357E+03  0.26449749357E+03  0.00000000000E+00 0. -1.
          2   -1    0    0  501    0  0.00000000000E+00 -0.00000000000E+00 -0.94837020830E+03  0.94837020830E+03  0.00000000000E+00 0. -1.
         36    2    1    2    0    0  0.14210854715E-13  0.71054273576E-14 -0.68387271473E+03  0.12128677019E+04  0.10016816721E+04 0.  0.
         25    2    3    3    0    0  0.59516230898E+02 -0.58284361960E+02 -0.26719987840E+03  0.30683905718E+03  0.12575843273E+03 0.  0.
         35    2    3    3    0    0 -0.59516230898E+02  0.58284361960E+02 -0.41667283633E+03  0.90602864470E+03  0.80020772546E+03 0.  0.
         22    1    5    5    0    0  0.76002032712E+02 -0.30284368002E+03  0.32554546265E+02  0.31392738330E+03  0.00000000000E+00 0. -1.
         22    1    5    5    0    0 -0.13551826361E+03  0.36112804198E+03 -0.44922738259E+03  0.59210126140E+03  0.00000000000E+00 0. -1.
          5    1    4    4  502    0 -0.68542293808E+01 -0.19617506871E+02 -0.20968613700E+03  0.21076573034E+03  0.47000000000E+01 0.  1.
         -5    1    4    4    0  502  0.66370460279E+02 -0.38666855089E+02 -0.57513741405E+02  0.96073326842E+02  0.47000000000E+01 0.  1.
<mgrwt>
<rscale>  0 0.10016817E+04</rscale>
<asrwt>0</asrwt>
<pdfrwt beam="1">  1        2 0.14590311E+00 0.10016817E+04</pdfrwt>
<pdfrwt beam="2">  1       -2 0.40691923E-01 0.10016817E+04</pdfrwt>
<totfact> 0.18824031E+02</totfact>
</mgrwt>
</event>
<event>
 9    1  0.4246427E-036  0.9998044E+03  0.7818608E-02  0.8681224E-01
          2   -1    0    0  501    0  0.00000000000E+00  0.00000000000E+00  0.18482755701E+04  0.18482755701E+04  0.00000000000E+00 0. -1.
         -2   -1    0    0    0  501 -0.00000000000E+00 -0.00000000000E+00 -0.13520829402E+03  0.13520829402E+03  0.00000000000E+00 0. -1.
         36    2    1    2    0    0  0.00000000000E+00  0.00000000000E+00  0.17130672761E+04  0.19834838641E+04  0.99980435428E+03 0.  0.
         25    2    3    3    0    0 -0.13790187472E+03 -0.31594543077E+02  0.32418776498E+03  0.37525964117E+03  0.12532736782E+03 0.  0.
         35    2    3    3    0    0  0.13790187472E+03  0.31594543077E+02  0.13888795111E+04  0.16082242230E+04  0.79836314589E+03 0.  0.
         22    1    5    5    0    0  0.12085810682E+03 -0.29039656948E+03  0.11866093371E+04  0.12275905541E+04  0.00000000000E+00 0.  1.
         22    1    5    5    0    0  0.17043767899E+02  0.32199111255E+03  0.20227017398E+03  0.38063366886E+03  0.00000000000E+00 0.  1.
          5    1    4    4  502    0 -0.26014963387E+02  0.45633299392E+02  0.82395583563E+02  0.97827902585E+02  0.47000000000E+01 0. -1.
         -5    1    4    4    0  502 -0.11188691133E+03 -0.77227842469E+02  0.24179218142E+03  0.27743173859E+03  0.47000000000E+01 0. -1.
<mgrwt>
<rscale>  0 0.99980435E+03</rscale>
<asrwt>0</asrwt>
<pdfrwt beam="1">  1        2 0.28435007E+00 0.99980435E+03</pdfrwt>
<pdfrwt beam="2">  1       -2 0.20801277E-01 0.99980435E+03</pdfrwt>
<totfact> 0.19091422E+02</totfact>
</mgrwt>
</event>
<event>
 9    1  0.4246427E-036  0.9992959E+03  0.7818608E-02  0.8681709E-01
         -1   -1    0    0    0  501 -0.00000000000E+00  0.00000000000E+00  0.25133360804E+03  0.25133360804E+03  0.00000000000E+00 0. -1.
          1   -1    0    0  501    0  0.00000000000E+00 -0.00000000000E+00 -0.99329368190E+03  0.99329368190E+03  0.00000000000E+00 0. -1.
         36    2    1    2    0    0 -0.71054273576E-14 -0.42632564146E-13 -0.74196007386E+03  0.12446272899E+04  0.99929592196E+03 0.  0.
         25    2    3    3    0    0 -0.20395374723E+02 -0.75739257943E+02  0.33950046921E+01  0.14867951998E+03  0.12626031482E+03 0.  0.
         35    2    3    3    0    0  0.20395374723E+02  0.75739257943E+02 -0.74535507856E+03  0.10959477700E+04  0.79962173235E+03 0.  0.
         22    1    5    5    0    0  0.25768001507E+03  0.35019882371E+03 -0.34000552442E+03  0.55194380414E+03  0.00000000000E+00 0.  1.
         22    1    5    5    0    0 -0.23728464035E+03 -0.27445956577E+03 -0.40534955414E+03  0.54400396582E+03  0.00000000000E+00 0.  1.
          5    1    4    4  502    0  0.16684400899E+02 -0.63780598019E+02  0.53501733873E+02  0.85034460335E+02  0.47000000000E+01 0. -1.
         -5    1    4    4    0  502 -0.37079775622E+02 -0.11958659924E+02 -0.50106729181E+02  0.63645059640E+02  0.47000000000E+01 0. -1.
<mgrwt>
<rscale>  0 0.99929592E+03</rscale>
<asrwt>0</asrwt>
<pdfrwt beam="1">  1        1 0.15281441E+00 0.99929592E+03</pdfrwt>
<pdfrwt beam="2">  1       -1 0.38666710E-01 0.99929592E+03</pdfrwt>
<totfact> 0.11114573E+02</totfact>
</mgrwt>
</event>
<event>
 9    1  0.4246427E-036  0.9998202E+03  0.7818608E-02  0.8681209E-01
          1   -1    0    0  501    0  0.00000000000E+00  0.00000000000E+00  0.32962309710E+04  0.32962309710E+04  0.00000000000E+00 0.  1.
         -1   -1    0    0    0  501 -0.00000000000E+00 -0.00000000000E+00 -0.75816932108E+02  0.75816932108E+02  0.00000000000E+00 0.  1.
         36    2    1    2    0    0 -0.14210854715E-13 -0.24868995752E-13  0.32204140389E+04  0.33720479031E+04  0.99982022333E+03 0.  0.
         25    2    3    3    0    0 -0.10679912274E+03 -0.88556129588E+01  0.89041124609E+03  0.90561166952E+03  0.12576102060E+03 0.  0.
         35    2    3    3    0    0  0.10679912274E+03  0.88556129588E+01  0.23300027928E+04  0.24664362336E+04  0.80181681538E+03 0.  0.
         22    1    5    5    0    0  0.31866152091E+03 -0.29718629310E+03  0.11954840936E+04  0.12724178071E+04  0.00000000000E+00 0. -1.
         22    1    5    5    0    0 -0.21186239817E+03  0.30604190606E+03  0.11345186992E+04  0.11940184265E+04  0.00000000000E+00 0. -1.
          5    1    4    4  502    0  0.16877564734E+02 -0.29014965820E+02  0.10735133010E+03  0.11257494617E+03  0.47000000000E+01 0. -1.
         -5    1    4    4    0  502 -0.12367668747E+03  0.20159352861E+02  0.78305991600E+03  0.79303672335E+03  0.47000000000E+01 0. -1.
<mgrwt>
<rscale>  0 0.99982022E+03</rscale>
<asrwt>0</asrwt>
<pdfrwt beam="1">  1        1 0.50711235E+00 0.99982022E+03</pdfrwt>
<pdfrwt beam="2">  1       -1 0.11664146E-01 0.99982022E+03</pdfrwt>
<totfact> 0.18178703E+01</totfact>
</mgrwt>
</event>
<event>
 9    1  0.4246427E-036  0.9997626E+03  0.7818608E-02  0.8681264E-01
          2   -1    0    0  501    0  0.00000000000E+00  0.00000000000E+00  0.22228544868E+04  0.22228544868E+04  0.00000000000E+00 0.  1.
         -2   -1    0    0    0  501 -0.00000000000E+00 -0.00000000000E+00 -0.11241459624E+03  0.11241459624E+03  0.00000000000E+00 0.  1.
         36    2    1    2    0    0 -0.71054273576E-14  0.00000000000E+00  0.21104398906E+04  0.23352690830E+04  0.99976255109E+03 0.  0.
         25    2    3    3    0    0  0.34588792164E+02  0.10703064370E+03  0.58158833524E+03  0.60541847701E+03  0.12503838365E+03 0.  0.
         35    2    3    3    0    0 -0.34588792164E+02 -0.10703064370E+03  0.15288515553E+04  0.17298506060E+04  0.80146372204E+03 0.  0.
         22    1    5    5    0    0 -0.45155421564E+02  0.34467088780E+03  0.80079209764E+03  0.87298626371E+03  0.00000000000E+00 0. -1.
         22    1    5    5    0    0  0.10566629400E+02 -0.45170153150E+03  0.72805945768E+03  0.85686434231E+03  0.00000000000E+00 0. -1.
          5    1    4    4  502    0  0.60272196477E+02  0.12332413621E+02  0.13930064768E+03  0.15235349205E+03  0.47000000000E+01 0. -1.
         -5    1    4    4    0  502 -0.25683404314E+02  0.94698230077E+02  0.44228768756E+03  0.45306498497E+03  0.47000000000E+01 0. -1.
<mgrwt>
<rscale>  0 0.99976255E+03</rscale>
<asrwt>0</asrwt>
<pdfrwt beam="1">  1        2 0.34197758E+00 0.99976255E+03</pdfrwt>
<pdfrwt beam="2">  1       -2 0.17294555E-01 0.99976255E+03</pdfrwt>
<totfact> 0.16008858E+02</totfact>
</mgrwt>
</event>
<event>
 9    1  0.4246427E-036  0.9992890E+03  0.7818608E-02  0.8681715E-01
         -1   -1    0    0    0  501 -0.00000000000E+00  0.00000000000E+00  0.57055281699E+03  0.57055281699E+03  0.00000000000E+00 0.  1.
          1   -1    0    0  501    0  0.00000000000E+00 -0.00000000000E+00 -0.43754864920E+03  0.43754864920E+03  0.00000000000E+00 0.  1.
         36    2    1    2    0    0 -0.14210854715E-13  0.00000000000E+00  0.13300416779E+03  0.10081014662E+04  0.99928897596E+03 0.  0.
         25    2    3    3    0    0  0.36334422932E+02 -0.12272284142E+03 -0.28652515939E+02  0.18124193383E+03  0.12508631344E+03 0.  0.
         35    2    3    3    0    0 -0.36334422932E+02  0.12272284142E+03  0.16165668373E+03  0.82685953236E+03  0.80073885679E+03 0.  0.
         22    1    5    5    0    0 -0.27916361053E+03  0.27066450488E+03  0.31805009035E+03  0.50234197079E+03  0.00000000000E+00 0. -1.
         22    1    5    5    0    0  0.24282918759E+03 -0.14794166346E+03 -0.15639340662E+03  0.32451756157E+03  0.00000000000E+00 0. -1.
          5    1    4    4  502    0  0.70299953998E+02 -0.55287884927E+02  0.19376373141E+02  0.91631695324E+02  0.47000000000E+01 0. -1.
         -5    1    4    4    0  502 -0.33965531066E+02 -0.67434956495E+02 -0.48028889079E+02  0.89610238502E+02  0.47000000000E+01 0. -1.
<mgrwt>
<rscale>  0 0.99928898E+03</rscale>
<asrwt>0</asrwt>
<pdfrwt beam="1">  1        1 0.67315176E-01 0.99928898E+03</pdfrwt>
<pdfrwt beam="2">  1       -1 0.87777357E-01 0.99928898E+03</pdfrwt>
<totfact> 0.80670365E+01</totfact>
</mgrwt>
</event>
<event>
 9    1  0.4246427E-036  0.9999993E+03  0.7818608E-02  0.8681039E-01
         -2   -1    0    0    0  501 -0.00000000000E+00  0.00000000000E+00  0.96083951168E+03  0.96083951168E+03  0.00000000000E+00 0.  1.
          2   -1    0    0  501    0  0.00000000000E+00 -0.00000000000E+00 -0.26018874905E+03  0.26018874905E+03  0.00000000000E+00 0.  1.
         36    2    1    2    0    0 -0.21316282073E-13  0.00000000000E+00  0.70065076263E+03  0.12210282607E+04  0.99999926117E+03 0.  0.
         25    2    3    3    0    0 -0.32165563844E+02  0.12704296878E+03  0.71306393070E+02  0.19467089350E+03  0.12505045250E+03 0.  0.
         35    2    3    3    0    0  0.32165563844E+02 -0.12704296878E+03  0.62934436956E+03  0.10263573672E+04  0.80010035019E+03 0.  0.
         22    1    5    5    0    0 -0.15476874855E+03  0.43757223763E+02 -0.14197729219E+03  0.21453580507E+03  0.00000000000E+00 0.  1.
         22    1    5    5    0    0  0.18693431239E+03 -0.17080019254E+03  0.77132166175E+03  0.81182156217E+03  0.00000000000E+00 0.  1.
          5    1    4    4  502    0 -0.49074499892E+02  0.14194103962E+03  0.79798655911E+02  0.17013371434E+03  0.47000000000E+01 0.  1.
         -5    1    4    4    0  502  0.16908936048E+02 -0.14898070845E+02 -0.84922628404E+01  0.24537179164E+02  0.47000000000E+01 0.  1.
<mgrwt>
<rscale>  0 0.99999926E+03</rscale>
<asrwt>0</asrwt>
<pdfrwt beam="1">  1        2 0.40029039E-01 0.99999926E+03</pdfrwt>
<pdfrwt beam="2">  1       -2 0.14782146E+00 0.99999926E+03</pdfrwt>
<totfact> 0.45483293E+01</totfact>
</mgrwt>
</event>
<event>
 9    1  0.4246427E-036  0.9977361E+03  0.7818608E-02  0.8683197E-01
         -2   -1    0    0    0  501 -0.00000000000E+00  0.00000000000E+00  0.19914002659E+03  0.19914002659E+03  0.00000000000E+00 0.  1.
          2   -1    0    0  501    0  0.00000000000E+00 -0.00000000000E+00 -0.12497202705E+04  0.12497202705E+04  0.00000000000E+00 0.  1.
         36    2    1    2    0    0 -0.17763568394E-13  0.00000000000E+00 -0.10505802439E+04  0.14488602971E+04  0.99773609318E+03 0.  0.
         25    2    3    3    0    0 -0.11543867122E+02 -0.41156936683E+02 -0.38670387314E+03  0.40849874621E+03  0.12451580564E+03 0.  0.
         35    2    3    3    0    0  0.11543867122E+02  0.41156936683E+02 -0.66387637081E+03  0.10403615509E+04  0.79987071868E+03 0.  0.
         22    1    5    5    0    0 -0.28861866446E+03  0.76769957977E+02 -0.67475845296E+03  0.73789791283E+03  0.00000000000E+00 0. -1.
         22    1    5    5    0    0  0.30016253158E+03 -0.35613021294E+02  0.10882082151E+02  0.30246363808E+03  0.00000000000E+00 0. -1.
          5    1    4    4  502    0  0.22184368534E+01  0.38403200157E+02 -0.21790308720E+03  0.22132232751E+03  0.47000000000E+01 0. -1.
         -5    1    4    4    0  502 -0.13762303976E+02 -0.79560136839E+02 -0.16880078594E+03  0.18717641870E+03  0.47000000000E+01 0. -1.
<mgrwt>
<rscale>  0 0.99773609E+03</rscale>
<asrwt>0</asrwt>
<pdfrwt beam="1">  1        2 0.19226466E+00 0.99773609E+03</pdfrwt>
<pdfrwt beam="2">  1       -2 0.30636927E-01 0.99773609E+03</pdfrwt>
<totfact> 0.20980209E+02</totfact>
</mgrwt>
</event>
<event>
 9    1  0.4246427E-036  0.1000198E+04  0.7818608E-02  0.8680849E-01
         -2   -1    0    0    0  501 -0.00000000000E+00  0.00000000000E+00  0.19158059959E+03  0.19158059959E+03  0.00000000000E+00 0.  1.
          2   -1    0    0  501    0  0.00000000000E+00 -0.00000000000E+00 -0.13054514925E+04  0.13054514925E+04  0.00000000000E+00 0.  1.
         36    2    1    2    0    0  0.35527136788E-13 -0.28421709430E-13 -0.11138708929E+04  0.14970320921E+04  0.10001983397E+04 0.  0.
         25    2    3    3    0    0 -0.10767206181E+02  0.14187524998E+03 -0.20347036314E+03  0.27768887654E+03  0.12436399877E+03 0.  0.
         35    2    3    3    0    0  0.10767206181E+02 -0.14187524998E+03 -0.91040052975E+03  0.12193432155E+04  0.79857637919E+03 0.  0.
         22    1    5    5    0    0  0.31820862895E+03  0.42193648052E+01 -0.80084666596E+03  0.86175977915E+03  0.00000000000E+00 0.  1.
         22    1    5    5    0    0 -0.30744142277E+03 -0.14609461479E+03 -0.10955386379E+03  0.35758343638E+03  0.00000000000E+00 0.  1.
          5    1    4    4  502    0 -0.56625862611E+02  0.35153009897E+02 -0.42713776664E+02  0.79301823044E+02  0.47000000000E+01 0.  1.
         -5    1    4    4    0  502  0.45858656430E+02  0.10672224008E+03 -0.16075658648E+03  0.19838705349E+03  0.47000000000E+01 0.  1.
<mgrwt>
<rscale>  0 0.10001983E+04</rscale>
<asrwt>0</asrwt>
<pdfrwt beam="1">  1        2 0.20083869E+00 0.10001983E+04</pdfrwt>
<pdfrwt beam="2">  1       -2 0.29473938E-01 0.10001983E+04</pdfrwt>
<totfact> 0.20892975E+02</totfact>
</mgrwt>
</event>
<event>
 9    1  0.4246427E-036  0.1000760E+04  0.7818608E-02  0.8680314E-01
         -1   -1    0    0    0  501 -0.00000000000E+00  0.00000000000E+00  0.30945642150E+03  0.30945642150E+03  0.00000000000E+00 0.  1.
          1   -1    0    0  501    0  0.00000000000E+00 -0.00000000000E+00 -0.80909675374E+03  0.80909675374E+03  0.00000000000E+00 0.  1.
         36    2    1    2    0    0  0.14210854715E-13  0.14210854715E-13 -0.49964033224E+03  0.11185531752E+04  0.10007600833E+04 0.  0.
         25    2    3    3    0    0  0.11991345860E+03  0.74256647947E+02 -0.98754746570E+02  0.21287988748E+03  0.12518809531E+03 0.  0.
         35    2    3    3    0    0 -0.11991345860E+03 -0.74256647947E+02 -0.40088558567E+03  0.90567328777E+03  0.79977594616E+03 0.  0.
         22    1    5    5    0    0 -0.12901216269E+02 -0.10682381118E+03  0.23582448742E+03  0.25921218506E+03  0.00000000000E+00 0. -1.
         22    1    5    5    0    0 -0.10701224233E+03  0.32567163235E+02 -0.63671007309E+03  0.64646110270E+03  0.00000000000E+00 0. -1.
          5    1    4    4  502    0  0.10374969672E+03  0.84938536806E+02 -0.12263675736E+03  0.18177023646E+03  0.47000000000E+01 0.  1.
         -5    1    4    4    0  502  0.16163761873E+02 -0.10681888859E+02  0.23882010792E+02  0.31109651025E+02  0.47000000000E+01 0.  1.
<mgrwt>
<rscale>  0 0.10007601E+04</rscale>
<asrwt>0</asrwt>
<pdfrwt beam="1">  1        1 0.12447642E+00 0.10007601E+04</pdfrwt>
<pdfrwt beam="2">  1       -1 0.47608682E-01 0.10007601E+04</pdfrwt>
<totfact> 0.10882219E+02</totfact>
</mgrwt>
</event>
<event>
 9    1  0.4246427E-036  0.9999363E+03  0.7818608E-02  0.8681099E-01
         -2   -1    0    0    0  501 -0.00000000000E+00  0.00000000000E+00  0.21934960338E+03  0.21934960338E+03  0.00000000000E+00 0.  1.
          2   -1    0    0  501    0  0.00000000000E+00 -0.00000000000E+00 -0.11395879133E+04  0.11395879133E+04  0.00000000000E+00 0.  1.
         36    2    1    2    0    0 -0.14210854715E-13  0.00000000000E+00 -0.92023830989E+03  0.13589375167E+04  0.99993631156E+03 0.  0.
         25    2    3    3    0    0  0.52280097023E+02 -0.94003039328E+02 -0.27305089710E+03  0.31915557184E+03  0.12543407304E+03 0.  0.
         35    2    3    3    0    0 -0.52280097023E+02  0.94003039328E+02 -0.64718741279E+03  0.10397819448E+04  0.80667537804E+03 0.  0.
         22    1    5    5    0    0 -0.40697053554E+03  0.39695674510E+02 -0.51452661103E+03  0.65722020421E+03  0.00000000000E+00 0.  1.
         22    1    5    5    0    0  0.35469043851E+03  0.54307364818E+02 -0.13266080177E+03  0.38256174060E+03  0.00000000000E+00 0.  1.
          5    1    4    4  502    0 -0.37568896377E+02 -0.50035119841E+01 -0.74143266424E+02  0.83401265357E+02  0.47000000000E+01 0.  1.
         -5    1    4    4    0  502  0.89848993400E+02 -0.88999527344E+02 -0.19890763068E+03  0.23575430648E+03  0.47000000000E+01 0.  1.
<mgrwt>
<rscale>  0 0.99993631E+03</rscale>
<asrwt>0</asrwt>
<pdfrwt beam="1">  1        2 0.17532122E+00 0.99993631E+03</pdfrwt>
<pdfrwt beam="2">  1       -2 0.33746093E-01 0.99993631E+03</pdfrwt>
<totfact> 0.20403941E+02</totfact>
</mgrwt>
</event>
<event>
 9    1  0.4246427E-036  0.1000100E+04  0.7818608E-02  0.8680942E-01
          2   -1    0    0  501    0  0.00000000000E+00  0.00000000000E+00  0.30302371649E+03  0.30302371649E+03  0.00000000000E+00 0. -1.
         -2   -1    0    0    0  501 -0.00000000000E+00 -0.00000000000E+00 -0.82518359813E+03  0.82518359813E+03  0.00000000000E+00 0. -1.
         36    2    1    2    0    0  0.28421709430E-13 -0.71054273576E-14 -0.52215988165E+03  0.11282073146E+04  0.10001003963E+04 0.  0.
         25    2    3    3    0    0 -0.84711129932E+02  0.37636598591E+02 -0.21945209588E+03  0.26907274733E+03  0.12509369242E+03 0.  0.
         35    2    3    3    0    0  0.84711129932E+02 -0.37636598591E+02 -0.30270778577E+03  0.85913456729E+03  0.79867872894E+03 0.  0.
         22    1    5    5    0    0 -0.34480224688E+03  0.40440735192E+02 -0.23032660064E+03  0.41662259358E+03  0.00000000000E+00 0. -1.
         22    1    5    5    0    0  0.42951337682E+03 -0.78077333783E+02 -0.72381185130E+02  0.44251197371E+03  0.00000000000E+00 0. -1.
          5    1    4    4  502    0  0.25422817032E+02  0.93064394311E+01 -0.74809614834E+01  0.28477784771E+02  0.47000000000E+01 0. -1.
         -5    1    4    4    0  502 -0.11013394696E+03  0.28330159160E+02 -0.21197113440E+03  0.24059496256E+03  0.47000000000E+01 0. -1.
<mgrwt>
<rscale>  0 0.10001004E+04</rscale>
<asrwt>0</asrwt>
<pdfrwt beam="1">  1        2 0.46619034E-01 0.10001004E+04</pdfrwt>
<pdfrwt beam="2">  1       -2 0.12695132E+00 0.10001004E+04</pdfrwt>
<totfact> 0.57985838E+01</totfact>
</mgrwt>
</event>
<event>
 9    1  0.4246427E-036  0.9999184E+03  0.7818608E-02  0.8681116E-01
          2   -1    0    0  501    0  0.00000000000E+00  0.00000000000E+00  0.16993503910E+03  0.16993503910E+03  0.00000000000E+00 0. -1.
         -2   -1    0    0    0  501 -0.00000000000E+00 -0.00000000000E+00 -0.14709104169E+04  0.14709104169E+04  0.00000000000E+00 0. -1.
         36    2    1    2    0    0  0.00000000000E+00  0.28421709430E-13 -0.13009753778E+04  0.16408454560E+04  0.99991843509E+03 0.  0.
         25    2    3    3    0    0  0.13962191021E+03  0.93608700680E+01 -0.26996424765E+03  0.32894538620E+03  0.12546899375E+03 0.  0.
         35    2    3    3    0    0 -0.13962191021E+03 -0.93608700680E+01 -0.10310111301E+04  0.13119000698E+04  0.79907192351E+03 0.  0.
         22    1    5    5    0    0  0.20316420687E+03 -0.29944233652E+03 -0.47843173227E+03  0.59986526012E+03  0.00000000000E+00 0.  1.
         22    1    5    5    0    0 -0.34278611708E+03  0.29008146645E+03 -0.55257939786E+03  0.71203480967E+03  0.00000000000E+00 0.  1.
          5    1    4    4  502    0  0.13408639778E+03 -0.38368033872E+02 -0.20568131700E+03  0.24855213187E+03  0.47000000000E+01 0.  1.
         -5    1    4    4    0  502  0.55355124294E+01  0.47728903940E+02 -0.64282930650E+02  0.80393254332E+02  0.47000000000E+01 0.  1.
<mgrwt>
<rscale>  0 0.99991844E+03</rscale>
<asrwt>0</asrwt>
<pdfrwt beam="1">  1        2 0.26143853E-01 0.99991844E+03</pdfrwt>
<pdfrwt beam="2">  1       -2 0.22629390E+00 0.99991844E+03</pdfrwt>
<totfact> 0.20227877E+01</totfact>
</mgrwt>
</event>
<event>
 9    1  0.4246427E-036  0.1006259E+04  0.7818608E-02  0.8675100E-01
         -2   -1    0    0    0  501 -0.00000000000E+00  0.00000000000E+00  0.46634261952E+03  0.46634261952E+03  0.00000000000E+00 0.  1.
          2   -1    0    0  501    0  0.00000000000E+00 -0.00000000000E+00 -0.54281810022E+03  0.54281810022E+03  0.00000000000E+00 0.  1.
         36    2    1    2    0    0 -0.14210854715E-13  0.00000000000E+00 -0.76475480704E+02  0.10091607197E+04  0.10062588430E+04 0.  0.
         25    2    3    3    0    0 -0.10415866706E+03 -0.10353551845E+03 -0.75127613780E+01  0.19201273901E+03  0.12346586109E+03 0.  0.
         35    2    3    3    0    0  0.10415866706E+03  0.10353551845E+03 -0.68962719326E+02  0.81714798073E+03  0.80087847658E+03 0.  0.
         22    1    5    5    0    0  0.72547796648E+02  0.33640772718E+03 -0.32236660212E+03  0.47154381331E+03  0.00000000000E+00 0.  1.
         22    1    5    5    0    0  0.31610870412E+02 -0.23287220873E+03  0.25340388279E+03  0.34560416742E+03  0.00000000000E+00 0.  1.
          5    1    4    4  502    0 -0.21955600904E+00  0.23837323353E+02 -0.12797029488E+02  0.27461248209E+02  0.47000000000E+01 0. -1.
         -5    1    4    4    0  502 -0.10393911105E+03 -0.12737284181E+03  0.52842681102E+01  0.16455149080E+03  0.47000000000E+01 0. -1.
<mgrwt>
<rscale>  0 0.10062588E+04</rscale>
<asrwt>0</asrwt>
<pdfrwt beam="1">  1        2 0.83510477E-01 0.10062588E+04</pdfrwt>
<pdfrwt beam="2">  1       -2 0.71745018E-01 0.10062588E+04</pdfrwt>
<totfact> 0.11908630E+02</totfact>
</mgrwt>
</event>
<event>
 9    1  0.4246427E-036  0.1000202E+04  0.7818608E-02  0.8680845E-01
          2   -1    0    0  501    0  0.00000000000E+00  0.00000000000E+00  0.83001659311E+03  0.83001659311E+03  0.00000000000E+00 0. -1.
         -2   -1    0    0    0  501 -0.00000000000E+00 -0.00000000000E+00 -0.30132066360E+03  0.30132066360E+03  0.00000000000E+00 0. -1.
         36    2    1    2    0    0 -0.28421709430E-13  0.00000000000E+00  0.52869592951E+03  0.11313372567E+04  0.10002022808E+04 0.  0.
         25    2    3    3    0    0  0.13044411575E+03  0.47368025666E+01  0.39260873039E+02  0.18427687637E+03  0.12400986404E+03 0.  0.
         35    2    3    3    0    0 -0.13044411575E+03 -0.47368025666E+01  0.48943505647E+03  0.94706038033E+03  0.80021158756E+03 0.  0.
         22    1    5    5    0    0  0.13925737803E+03 -0.10603124363E+02 -0.17853637703E+03  0.22667218953E+03  0.00000000000E+00 0. -1.
         22    1    5    5    0    0 -0.26970149378E+03  0.58663217965E+01  0.66797143351E+03  0.72038819081E+03  0.00000000000E+00 0. -1.
          5    1    4    4  502    0  0.48458188558E+01 -0.44531433225E+02  0.10577576840E+02  0.46265598854E+02  0.47000000000E+01 0. -1.
         -5    1    4    4    0  502  0.12559829689E+03  0.49268235792E+02  0.28683296199E+02  0.13801127752E+03  0.47000000000E+01 0. -1.
<mgrwt>
<rscale>  0 0.10002023E+04</rscale>
<asrwt>0</asrwt>
<pdfrwt beam="1">  1        2 0.12769486E+00 0.10002023E+04</pdfrwt>
<pdfrwt beam="2">  1       -2 0.46357025E-01 0.10002023E+04</pdfrwt>
<totfact> 0.17504157E+02</totfact>
</mgrwt>
</event>
<event>
 9    1  0.4246427E-036  0.1000177E+04  0.7818608E-02  0.8680870E-01
         -2   -1    0    0    0  501 -0.00000000000E+00  0.00000000000E+00  0.61032618674E+03  0.61032618674E+03  0.00000000000E+00 0.  1.
          2   -1    0    0  501    0  0.00000000000E+00 -0.00000000000E+00 -0.40976189571E+03  0.40976189571E+03  0.00000000000E+00 0.  1.
         36    2    1    2    0    0 -0.14210854715E-13  0.24868995752E-13  0.20056429103E+03  0.10200880825E+04  0.10001768149E+04 0.  0.
         25    2    3    3    0    0  0.88058906025E+02 -0.18214942809E+02  0.14692949483E+03  0.21269673721E+03  0.12476165476E+03 0.  0.
         35    2    3    3    0    0 -0.88058906025E+02  0.18214942809E+02  0.53634796195E+02  0.80739134524E+03  0.80057350564E+03 0.  0.
         22    1    5    5    0    0  0.17224660704E+03  0.32059623185E+03 -0.10381920520E+03  0.37845642402E+03  0.00000000000E+00 0. -1.
         22    1    5    5    0    0 -0.26030551306E+03 -0.30238128904E+03  0.15745400140E+03  0.42893492123E+03  0.00000000000E+00 0. -1.
          5    1    4    4  502    0  0.78802295617E+02 -0.43123799081E+02  0.15935282997E+03  0.18298873807E+03  0.47000000000E+01 0. -1.
         -5    1    4    4    0  502  0.92566104076E+01  0.24908856273E+02 -0.12423335138E+02  0.29707999141E+02  0.47000000000E+01 0. -1.
<mgrwt>
<rscale>  0 0.10001768E+04</rscale>
<asrwt>0</asrwt>
<pdfrwt beam="1">  1        2 0.63040291E-01 0.10001768E+04</pdfrwt>
<pdfrwt beam="2">  1       -2 0.93896337E-01 0.10001768E+04</pdfrwt>
<totfact> 0.88388176E+01</totfact>
</mgrwt>
</event>
<event>
 9    1  0.4246427E-036  0.1000134E+04  0.7818608E-02  0.8680910E-01
         -2   -1    0    0    0  501 -0.00000000000E+00  0.00000000000E+00  0.57167208921E+03  0.57167208921E+03  0.00000000000E+00 0.  1.
          2   -1    0    0  501    0  0.00000000000E+00 -0.00000000000E+00 -0.43743105404E+03  0.43743105404E+03  0.00000000000E+00 0.  1.
         36    2    1    2    0    0  0.00000000000E+00 -0.28421709430E-13  0.13424103517E+03  0.10091031433E+04  0.10001342401E+04 0.  0.
         25    2    3    3    0    0  0.66112115303E+02 -0.87281149962E+02 -0.71026750772E+02  0.17579775569E+03  0.11777623127E+03 0.  0.
         35    2    3    3    0    0 -0.66112115303E+02  0.87281149962E+02  0.20526778594E+03  0.83330538756E+03  0.80017135294E+03 0.  0.
         22    1    5    5    0    0 -0.16634172285E+02 -0.46090050625E+02 -0.30226651784E+03  0.30621240383E+03  0.00000000000E+00 0. -1.
         22    1    5    5    0    0 -0.49477943018E+02  0.13337120059E+03  0.50753430378E+03  0.52709298373E+03  0.00000000000E+00 0. -1.
          5    1    4    4  502    0 -0.23341766534E+01 -0.70649040826E+02  0.62636978275E+01  0.71120034173E+02  0.47000000000E+01 0.  1.
         -5    1    4    4    0  502  0.68446291956E+02 -0.16632109136E+02 -0.77290448599E+02  0.10467772151E+03  0.47000000000E+01 0.  1.
<mgrwt>
<rscale>  0 0.10001342E+04</rscale>
<asrwt>0</asrwt>
<pdfrwt beam="1">  1        2 0.67297085E-01 0.10001342E+04</pdfrwt>
<pdfrwt beam="2">  1       -2 0.87949552E-01 0.10001342E+04</pdfrwt>
<totfact> 0.95804618E+01</totfact>
</mgrwt>
</event>
<event>
 9    1  0.4246427E-036  0.1000076E+04  0.7818608E-02  0.8680965E-01
         -2   -1    0    0    0  501 -0.00000000000E+00  0.00000000000E+00  0.10007818319E+03  0.10007818319E+03  0.00000000000E+00 0.  1.
          2   -1    0    0  501    0  0.00000000000E+00 -0.00000000000E+00 -0.24984282061E+04  0.24984282061E+04  0.00000000000E+00 0.  1.
         36    2    1    2    0    0  0.00000000000E+00 -0.14210854715E-13 -0.23983500229E+04  0.25985063893E+04  0.10000763085E+04 0.  0.
         25    2    3    3    0    0  0.12820355859E+03  0.54386170767E+02 -0.39724852384E+03  0.43921268829E+03  0.12532911817E+03 0.  0.
         35    2    3    3    0    0 -0.12820355859E+03 -0.54386170767E+02 -0.20011014990E+04  0.21592937010E+04  0.79921716047E+03 0.  0.
         22    1    5    5    0    0 -0.20080223930E+03  0.15999925239E+03 -0.18896227805E+04  0.19069859865E+04  0.00000000000E+00 0. -1.
         22    1    5    5    0    0  0.72598680704E+02 -0.21438542316E+03 -0.11147871854E+03  0.25230771449E+03  0.00000000000E+00 0. -1.
          5    1    4    4  502    0  0.14871355088E+02 -0.31432630665E+02 -0.14925979672E+03  0.15332887657E+03  0.47000000000E+01 0. -1.
         -5    1    4    4    0  502  0.11333220350E+03  0.85818801432E+02 -0.24798872712E+03  0.28588381173E+03  0.47000000000E+01 0. -1.
<mgrwt>
<rscale>  0 0.10000763E+04</rscale>
<asrwt>0</asrwt>
<pdfrwt beam="1">  1        2 0.38437353E+00 0.10000763E+04</pdfrwt>
<pdfrwt beam="2">  1       -2 0.15396645E-01 0.10000763E+04</pdfrwt>
<totfact> 0.13357987E+02</totfact>
</mgrwt>
</event>
<event>
 9    1  0.4246427E-036  0.1011449E+04  0.7818608E-02  0.8670211E-01
         -2   -1    0    0    0  501 -0.00000000000E+00  0.00000000000E+00  0.12159697555E+04  0.12159697555E+04  0.00000000000E+00 0. -1.
          2   -1    0    0  501    0  0.00000000000E+00 -0.00000000000E+00 -0.21033188938E+03  0.21033188938E+03  0.00000000000E+00 0. -1.
         36    2    1    2    0    0 -0.10658141036E-13  0.00000000000E+00  0.10056378661E+04  0.14263016448E+04  0.10114488936E+04 0.  0.
         25    2    3    3    0    0  0.25125007158E+02 -0.15440403837E+03  0.19559491916E+03  0.27696131001E+03  0.11822995300E+03 0.  0.
         35    2    3    3    0    0 -0.25125007158E+02  0.15440403837E+03  0.81004294691E+03  0.11493403348E+04  0.80021356922E+03 0.  0.
         22    1    5    5    0    0 -0.18140498765E+03  0.42111257865E+03  0.28446739375E+03  0.53959732352E+03  0.00000000000E+00 0. -1.
         22    1    5    5    0    0  0.15627998049E+03 -0.26670854027E+03  0.52557555316E+03  0.60974301130E+03  0.00000000000E+00 0. -1.
          5    1    4    4  502    0  0.47446976451E+02 -0.85768399399E+01  0.50831459293E+02  0.70218978998E+02  0.47000000000E+01 0. -1.
         -5    1    4    4    0  502 -0.22321969294E+02 -0.14582719843E+03  0.14476345987E+03  0.20674233101E+03  0.47000000000E+01 0. -1.
<mgrwt>
<rscale>  0 0.10114489E+04</rscale>
<asrwt>0</asrwt>
<pdfrwt beam="1">  1        2 0.32358753E-01 0.10114489E+04</pdfrwt>
<pdfrwt beam="2">  1       -2 0.18707226E+00 0.10114489E+04</pdfrwt>
<totfact> 0.29083731E+01</totfact>
</mgrwt>
</event>
<event>
 9    1  0.4246427E-036  0.9995411E+03  0.7818608E-02  0.8681475E-01
         -2   -1    0    0    0  501 -0.00000000000E+00  0.00000000000E+00  0.36983365551E+03  0.36983365551E+03  0.00000000000E+00 0. -1.
          2   -1    0    0  501    0  0.00000000000E+00 -0.00000000000E+00 -0.67535933467E+03  0.67535933467E+03  0.00000000000E+00 0. -1.
         36    2    1    2    0    0  0.00000000000E+00  0.28421709430E-13 -0.30552567917E+03  0.10451929902E+04  0.99954111776E+03 0.  0.
         25    2    3    3    0    0 -0.50251355752E+02 -0.10442609526E+03  0.23295397871E+02  0.17192825721E+03  0.12484647347E+03 0.  0.
         35    2    3    3    0    0  0.50251355752E+02  0.10442609526E+03 -0.32882107704E+03  0.87326473297E+03  0.80064847781E+03 0.  0.
         22    1    5    5    0    0 -0.15575033981E+03 -0.26717189025E+03  0.38468689645E+02  0.31163893752E+03  0.00000000000E+00 0.  1.
         22    1    5    5    0    0  0.20600169557E+03  0.37159798551E+03 -0.36728976668E+03  0.56162579545E+03  0.00000000000E+00 0.  1.
          5    1    4    4  502    0 -0.12909540765E+02 -0.82340272407E+01 -0.45223154428E+02  0.47975818323E+02  0.47000000000E+01 0.  1.
         -5    1    4    4    0  502 -0.37341814987E+02 -0.96192068017E+02  0.68518552299E+02  0.12395243888E+03  0.47000000000E+01 0.  1.
<mgrwt>
<rscale>  0 0.99954112E+03</rscale>
<asrwt>0</asrwt>
<pdfrwt beam="1">  1        2 0.10390144E+00 0.99954112E+03</pdfrwt>
<pdfrwt beam="2">  1       -2 0.56897486E-01 0.99954112E+03</pdfrwt>
<totfact> 0.15023868E+02</totfact>
</mgrwt>
</event>
<event>
 9    1  0.4246427E-036  0.1000492E+04  0.7818608E-02  0.8680570E-01
          2   -1    0    0  501    0  0.00000000000E+00  0.00000000000E+00  0.18860312159E+03  0.18860312159E+03  0.00000000000E+00 0.  1.
         -2   -1    0    0    0  501 -0.00000000000E+00 -0.00000000000E+00 -0.13268385470E+04  0.13268385470E+04  0.00000000000E+00 0.  1.
         36    2    1    2    0    0 -0.14210854715E-13  0.10658141036E-13 -0.11382354254E+04  0.15154416686E+04  0.10004916627E+04 0.  0.
         25    2    3    3    0    0  0.42134794744E+02  0.90190051224E+01 -0.41263740087E+03  0.43316063823E+03  0.12450634735E+03 0.  0.
         35    2    3    3    0    0 -0.42134794744E+02 -0.90190051224E+01 -0.72559802452E+03  0.10822810303E+04  0.80186224007E+03 0.  0.
         22    1    5    5    0    0  0.50728746009E+02 -0.27991066417E+03  0.18409248712E+02  0.28506540658E+03  0.00000000000E+00 0.  1.
         22    1    5    5    0    0 -0.92863540753E+02  0.27089165905E+03 -0.74400727323E+03  0.79721562376E+03  0.00000000000E+00 0.  1.
          5    1    4    4  502    0  0.77699930053E+02  0.26175322046E+02 -0.18984017590E+03  0.20684247388E+03  0.47000000000E+01 0. -1.
         -5    1    4    4    0  502 -0.35565135308E+02 -0.17156316924E+02 -0.22279722497E+03  0.22631816435E+03  0.47000000000E+01 0. -1.
<mgrwt>
<rscale>  0 0.10004917E+04</rscale>
<asrwt>0</asrwt>
<pdfrwt beam="1">  1        2 0.29015866E-01 0.10004917E+04</pdfrwt>
<pdfrwt beam="2">  1       -2 0.20412900E+00 0.10004917E+04</pdfrwt>
<totfact> 0.25118549E+01</totfact>
</mgrwt>
</event>
<event>
 9    1  0.4246427E-036  0.1000058E+04  0.7818608E-02  0.8680982E-01
         -1   -1    0    0    0  501 -0.00000000000E+00  0.00000000000E+00  0.42268692716E+03  0.42268692716E+03  0.00000000000E+00 0. -1.
          1   -1    0    0  501    0  0.00000000000E+00 -0.00000000000E+00 -0.59152341633E+03  0.59152341633E+03  0.00000000000E+00 0. -1.
         36    2    1    2    0    0  0.56843418861E-13  0.00000000000E+00 -0.16883648916E+03  0.10142103435E+04  0.10000584287E+04 0.  0.
         25    2    3    3    0    0  0.90775163484E+02  0.10671867099E+03 -0.48802125038E+02  0.19324162308E+03  0.12382113082E+03 0.  0.
         35    2    3    3    0    0 -0.90775163484E+02 -0.10671867099E+03 -0.12003436413E+03  0.82096872042E+03  0.79997024088E+03 0.  0.
         22    1    5    5    0    0  0.33854766260E+03  0.72632309111E+02 -0.67033491177E+02  0.35268039514E+03  0.00000000000E+00 0.  1.
         22    1    5    5    0    0 -0.42932282608E+03 -0.17935098010E+03 -0.53000872949E+02  0.46828832528E+03  0.00000000000E+00 0.  1.
          5    1    4    4  502    0 -0.24996441165E+02 -0.37289197998E+01 -0.14568301350E+02  0.29547458741E+02  0.47000000000E+01 0.  1.
         -5    1    4    4    0  502  0.11577160465E+03  0.11044759079E+03 -0.34233823687E+02  0.16369416434E+03  0.47000000000E+01 0.  1.
<mgrwt>
<rscale>  0 0.10000584E+04</rscale>
<asrwt>0</asrwt>
<pdfrwt beam="1">  1        1 0.91003602E-01 0.10000584E+04</pdfrwt>
<pdfrwt beam="2">  1       -1 0.65028758E-01 0.10000584E+04</pdfrwt>
<totfact> 0.97664550E+01</totfact>
</mgrwt>
</event>
<event>
 9    1  0.4246427E-036  0.1000295E+04  0.7818608E-02  0.8680757E-01
          4   -1    0    0  501    0  0.00000000000E+00  0.00000000000E+00  0.23880979398E+04  0.23880979398E+04  0.00000000000E+00 0. -1.
         -4   -1    0    0    0  501 -0.00000000000E+00 -0.00000000000E+00 -0.10474759373E+03  0.10474759373E+03  0.00000000000E+00 0. -1.
         36    2    1    2    0    0 -0.35527136788E-14 -0.71054273576E-14  0.22833503461E+04  0.24928455336E+04  0.10002949821E+04 0.  0.
         25    2    3    3    0    0 -0.20366373665E+02 -0.28509668303E+02  0.87666287384E+02  0.15542023696E+03  0.12346044610E+03 0.  0.
         35    2    3    3    0    0  0.20366373665E+02  0.28509668303E+02  0.21956840587E+04  0.23374252966E+04  0.80081267544E+03 0.  0.
         22    1    5    5    0    0 -0.11635115442E+03  0.13934879049E+03  0.21472083540E+04  0.21548687644E+04  0.00000000000E+00 0. -1.
         22    1    5    5    0    0  0.13671752808E+03 -0.11083912218E+03  0.48475704750E+02  0.18255653218E+03  0.00000000000E+00 0. -1.
          5    1    4    4  502    0 -0.46836992723E+01 -0.55675419462E+02  0.10517775195E+03  0.11918950825E+03  0.47000000000E+01 0. -1.
         -5    1    4    4    0  502 -0.15682674393E+02  0.27165751159E+02 -0.17511464564E+02  0.36230728716E+02  0.47000000000E+01 0. -1.
<mgrwt>
<rscale>  0 0.10002950E+04</rscale>
<asrwt>0</asrwt>
<pdfrwt beam="1">  1        4 0.36739964E+00 0.10002950E+04</pdfrwt>
<pdfrwt beam="2">  1       -4 0.16115016E-01 0.10002950E+04</pdfrwt>
<totfact> 0.61642556E-01</totfact>
</mgrwt>
</event>
<event>
 9    1  0.4246427E-036  0.9999710E+03  0.7818608E-02  0.8681066E-01
          1   -1    0    0  501    0  0.00000000000E+00  0.00000000000E+00  0.20004011365E+04  0.20004011365E+04  0.00000000000E+00 0.  1.
         -1   -1    0    0    0  501 -0.00000000000E+00 -0.00000000000E+00 -0.12496767559E+03  0.12496767559E+03  0.00000000000E+00 0.  1.
         36    2    1    2    0    0  0.00000000000E+00  0.00000000000E+00  0.18754334609E+04  0.21253688121E+04  0.99997096013E+03 0.  0.
         25    2    3    3    0    0  0.11558474514E+03 -0.62065540400E+02  0.24354583055E+03  0.30329028308E+03  0.12433205387E+03 0.  0.
         35    2    3    3    0    0 -0.11558474514E+03  0.62065540400E+02  0.16318876304E+04  0.18220785290E+04  0.79981308013E+03 0.  0.
         22    1    5    5    0    0 -0.35678965644E+03  0.51943132232E+02  0.30160246096E+03  0.47006488104E+03  0.00000000000E+00 0.  1.
         22    1    5    5    0    0  0.24120491130E+03  0.10122408168E+02  0.13302851694E+04  0.13520136480E+04  0.00000000000E+00 0.  1.
          5    1    4    4  502    0  0.13369085860E+03 -0.22155548679E+02  0.16880552708E+03  0.21652138459E+03  0.47000000000E+01 0.  1.
         -5    1    4    4    0  502 -0.18106113456E+02 -0.39909991721E+02  0.74740303463E+02  0.86768898491E+02  0.47000000000E+01 0.  1.
<mgrwt>
<rscale>  0 0.99997096E+03</rscale>
<asrwt>0</asrwt>
<pdfrwt beam="1">  1        1 0.30775400E+00 0.99997096E+03</pdfrwt>
<pdfrwt beam="2">  1       -1 0.19225798E-01 0.99997096E+03</pdfrwt>
<totfact> 0.67938690E+01</totfact>
</mgrwt>
</event>
<event>
 9    1  0.4246427E-036  0.9998715E+03  0.7818608E-02  0.8681160E-01
          2   -1    0    0  501    0  0.00000000000E+00  0.00000000000E+00  0.24340075699E+03  0.24340075699E+03  0.00000000000E+00 0.  1.
         -2   -1    0    0    0  501 -0.00000000000E+00 -0.00000000000E+00 -0.10268487793E+04  0.10268487793E+04  0.00000000000E+00 0.  1.
         36    2    1    2    0    0  0.28421709430E-13 -0.14210854715E-13 -0.78344802232E+03  0.12702495363E+04  0.99987153215E+03 0.  0.
         25    2    3    3    0    0  0.13515000350E+03 -0.18412774924E+01 -0.10516279475E+03  0.21297389817E+03  0.12660866540E+03 0.  0.
         35    2    3    3    0    0 -0.13515000350E+03  0.18412774924E+01 -0.67828522757E+03  0.10572756381E+04  0.79968244404E+03 0.  0.
         22    1    5    5    0    0  0.24270529553E+03  0.19412050977E+03 -0.74644814918E+02  0.31962553276E+03  0.00000000000E+00 0. -1.
         22    1    5    5    0    0 -0.37785529903E+03 -0.19227923228E+03 -0.60364041265E+03  0.73765010537E+03  0.00000000000E+00 0. -1.
          5    1    4    4  502    0 -0.19358582669E+02  0.85795217058E+01  0.57445410791E+01  0.22437750954E+02  0.47000000000E+01 0.  1.
         -5    1    4    4    0  502  0.15450858617E+03 -0.10420799198E+02 -0.11090733583E+03  0.19053614722E+03  0.47000000000E+01 0.  1.
<mgrwt>
<rscale>  0 0.99987153E+03</rscale>
<asrwt>0</asrwt>
<pdfrwt beam="1">  1        2 0.37446270E-01 0.99987153E+03</pdfrwt>
<pdfrwt beam="2">  1       -2 0.15797674E+00 0.99987153E+03</pdfrwt>
<totfact> 0.40645447E+01</totfact>
</mgrwt>
</event>
<event>
 9    1  0.4246427E-036  0.1000298E+04  0.7818608E-02  0.8680754E-01
          2   -1    0    0  501    0  0.00000000000E+00  0.00000000000E+00  0.26662520131E+04  0.26662520131E+04  0.00000000000E+00 0. -1.
         -2   -1    0    0    0  501 -0.00000000000E+00 -0.00000000000E+00 -0.93820507705E+02  0.93820507705E+02  0.00000000000E+00 0. -1.
         36    2    1    2    0    0  0.28421709430E-13  0.71054273576E-14  0.25724315054E+04  0.27600725208E+04  0.10002981906E+04 0.  0.
         25    2    3    3    0    0  0.12821133903E+03  0.52673156906E+02  0.40804091643E+03  0.44895262066E+03  0.12589065574E+03 0.  0.
         35    2    3    3    0    0 -0.12821133903E+03 -0.52673156906E+02  0.21643905890E+04  0.23111199002E+04  0.79842091802E+03 0.  0.
         22    1    5    5    0    0 -0.45358197056E+03  0.76891930434E+02  0.12116734783E+04  0.12960715995E+04  0.00000000000E+00 0. -1.
         22    1    5    5    0    0  0.32537063152E+03 -0.12956508734E+03  0.95271711070E+03  0.10150483007E+04  0.00000000000E+00 0. -1.
          5    1    4    4  502    0  0.13825548361E+03  0.57013758405E+02  0.25654356054E+03  0.29698793890E+03  0.47000000000E+01 0. -1.
         -5    1    4    4    0  502 -0.10044144582E+02 -0.43406014988E+01  0.15149735589E+03  0.15196468176E+03  0.47000000000E+01 0. -1.
<mgrwt>
<rscale>  0 0.10002982E+04</rscale>
<asrwt>0</asrwt>
<pdfrwt beam="1">  1        2 0.41019256E+00 0.10002982E+04</pdfrwt>
<pdfrwt beam="2">  1       -2 0.14433926E-01 0.10002982E+04</pdfrwt>
<totfact> 0.11725627E+02</totfact>
</mgrwt>
</event>
<event>
 9    1  0.4246427E-036  0.9993455E+03  0.7818608E-02  0.8681661E-01
          1   -1    0    0  501    0  0.00000000000E+00  0.00000000000E+00  0.27305141017E+04  0.27305141017E+04  0.00000000000E+00 0. -1.
         -1   -1    0    0    0  501 -0.00000000000E+00 -0.00000000000E+00 -0.91438038781E+02  0.91438038781E+02  0.00000000000E+00 0. -1.
         36    2    1    2    0    0 -0.14210854715E-13  0.42632564146E-13  0.26390760629E+04  0.28219521405E+04  0.99934549446E+03 0.  0.
         25    2    3    3    0    0 -0.11194329943E+03 -0.37746426661E+02  0.71417543374E+03  0.73425497801E+03  0.12299482741E+03 0.  0.
         35    2    3    3    0    0  0.11194329943E+03  0.37746426661E+02  0.19249006292E+04  0.20876971625E+04  0.79955044553E+03 0.  0.
         22    1    5    5    0    0  0.10101132744E+03  0.39994530573E+03  0.13159382758E+04  0.13790768948E+04  0.00000000000E+00 0. -1.
         22    1    5    5    0    0  0.10931971994E+02 -0.36219887907E+03  0.60896235333E+03  0.70862026769E+03  0.00000000000E+00 0. -1.
          5    1    4    4  502    0  0.99311928175E+01 -0.42025887237E+02  0.27617619741E+03  0.27957143238E+03  0.47000000000E+01 0.  1.
         -5    1    4    4    0  502 -0.12187449225E+03  0.42794605763E+01  0.43799923633E+03  0.45468354563E+03  0.47000000000E+01 0.  1.
<mgrwt>
<rscale>  0 0.99934549E+03</rscale>
<asrwt>0</asrwt>
<pdfrwt beam="1">  1        1 0.42007903E+00 0.99934549E+03</pdfrwt>
<pdfrwt beam="2">  1       -1 0.14067393E-01 0.99934549E+03</pdfrwt>
<totfact> 0.34657412E+01</totfact>
</mgrwt>
</event>
<event>
 9    1  0.4246427E-036  0.9996401E+03  0.7818608E-02  0.8681381E-01
         -2   -1    0    0    0  501 -0.00000000000E+00  0.00000000000E+00  0.92982782526E+02  0.92982782526E+02  0.00000000000E+00 0. -1.
          2   -1    0    0  501    0  0.00000000000E+00 -0.00000000000E+00 -0.26867349020E+04  0.26867349020E+04  0.00000000000E+00 0. -1.
         36    2    1    2    0    0  0.00000000000E+00  0.00000000000E+00 -0.25937521195E+04  0.27797176845E+04  0.99964010943E+03 0.  0.
         25    2    3    3    0    0 -0.91237832224E+02 -0.69569180583E+02 -0.26438211091E+03  0.31407958397E+03  0.12483537792E+03 0.  0.
         35    2    3    3    0    0  0.91237832224E+02  0.69569180583E+02 -0.23293700086E+04  0.24656381005E+04  0.80015148142E+03 0.  0.
         22    1    5    5    0    0  0.18472637079E+03 -0.43859735332E+02 -0.23095226901E+04  0.23173136526E+04  0.00000000000E+00 0.  1.
         22    1    5    5    0    0 -0.93488538561E+02  0.11342891591E+03 -0.19847318449E+02  0.14832444794E+03  0.00000000000E+00 0.  1.
          5    1    4    4  502    0 -0.86062270270E+02 -0.18233352473E+02 -0.68879998909E+02  0.11182894865E+03  0.47000000000E+01 0.  1.
         -5    1    4    4    0  502 -0.51755619546E+01 -0.51335828110E+02 -0.19550211200E+03  0.20225063532E+03  0.47000000000E+01 0.  1.
<mgrwt>
<rscale>  0 0.99964011E+03</rscale>
<asrwt>0</asrwt>
<pdfrwt beam="1">  1        2 0.41334384E+00 0.99964011E+03</pdfrwt>
<pdfrwt beam="2">  1       -2 0.14305043E-01 0.99964011E+03</pdfrwt>
<totfact> 0.11555949E+02</totfact>
</mgrwt>
</event>
<event>
 9    1  0.4246427E-036  0.1000598E+04  0.7818608E-02  0.8680469E-01
          1   -1    0    0  501    0  0.00000000000E+00  0.00000000000E+00  0.73385510566E+03  0.73385510566E+03  0.00000000000E+00 0.  1.
         -1   -1    0    0    0  501 -0.00000000000E+00 -0.00000000000E+00 -0.34107402343E+03  0.34107402343E+03  0.00000000000E+00 0.  1.
         36    2    1    2    0    0  0.42632564146E-13  0.28421709430E-13  0.39278108223E+03  0.10749291291E+04  0.10005976484E+04 0.  0.
         25    2    3    3    0    0 -0.65306962184E+02  0.85914909111E+02  0.17240168356E+03  0.23886215539E+03  0.12524543052E+03 0.  0.
         35    2    3    3    0    0  0.65306962184E+02 -0.85914909111E+02  0.22037939866E+03  0.83606697370E+03  0.79924622879E+03 0.  0.
         22    1    5    5    0    0 -0.34846259908E+03  0.81845959349E+02  0.12786448253E+03  0.38009771100E+03  0.00000000000E+00 0.  1.
         22    1    5    5    0    0  0.41376956126E+03 -0.16776086846E+03  0.92514916136E+02  0.45596926269E+03  0.00000000000E+00 0.  1.
          5    1    4    4  502    0  0.12401567536E+02  0.70226948468E+02  0.33656987055E+02  0.78996873015E+02  0.47000000000E+01 0.  1.
         -5    1    4    4    0  502 -0.77708529720E+02  0.15687960643E+02  0.13874469651E+03  0.15986528238E+03  0.47000000000E+01 0.  1.
<mgrwt>
<rscale>  0 0.10005976E+04</rscale>
<asrwt>0</asrwt>
<pdfrwt beam="1">  1        1 0.11290079E+00 0.10005976E+04</pdfrwt>
<pdfrwt beam="2">  1       -1 0.52472927E-01 0.10005976E+04</pdfrwt>
<totfact> 0.10627449E+02</totfact>
</mgrwt>
</event>
<event>
 9    1  0.4246427E-036  0.1001818E+04  0.7818608E-02  0.8679308E-01
          2   -1    0    0  501    0  0.00000000000E+00  0.00000000000E+00  0.89420969735E+03  0.89420969735E+03  0.00000000000E+00 0. -1.
         -2   -1    0    0    0  501 -0.00000000000E+00 -0.00000000000E+00 -0.28059417609E+03  0.28059417609E+03  0.00000000000E+00 0. -1.
         36    2    1    2    0    0  0.00000000000E+00  0.28421709430E-13  0.61361552126E+03  0.11748038734E+04  0.10018184132E+04 0.  0.
         25    2    3    3    0    0 -0.63071905940E+02  0.11542017967E+03  0.17685829438E+03  0.25374405826E+03  0.12572711569E+03 0.  0.
         35    2    3    3    0    0  0.63071905940E+02 -0.11542017967E+03  0.43675722689E+03  0.92105981518E+03  0.80018399428E+03 0.  0.
         22    1    5    5    0    0 -0.18236516125E+02  0.33265158477E+03  0.80145505197E+02  0.34265573010E+03  0.00000000000E+00 0. -1.
         22    1    5    5    0    0  0.81308422065E+02 -0.44807176444E+03  0.35661172169E+03  0.57840408508E+03  0.00000000000E+00 0. -1.
          5    1    4    4  502    0 -0.46451312110E+02  0.75695200496E+02  0.20191610329E+02  0.91199116786E+02  0.47000000000E+01 0.  1.
         -5    1    4    4    0  502 -0.16620593830E+02  0.39724979172E+02  0.15666668405E+03  0.16254494148E+03  0.47000000000E+01 0.  1.
<mgrwt>
<rscale>  0 0.10018184E+04</rscale>
<asrwt>0</asrwt>
<pdfrwt beam="1">  1        2 0.13757072E+00 0.10018184E+04</pdfrwt>
<pdfrwt beam="2">  1       -2 0.43168335E-01 0.10018184E+04</pdfrwt>
<totfact> 0.18215769E+02</totfact>
</mgrwt>
</event>
<event>
 9    1  0.4246427E-036  0.1000124E+04  0.7818608E-02  0.8680920E-01
         -3   -1    0    0    0  501 -0.00000000000E+00  0.00000000000E+00  0.24641467881E+03  0.24641467881E+03  0.00000000000E+00 0.  1.
          3   -1    0    0  501    0  0.00000000000E+00 -0.00000000000E+00 -0.10148012740E+04  0.10148012740E+04  0.00000000000E+00 0.  1.
         36    2    1    2    0    0  0.00000000000E+00  0.14210854715E-13 -0.76838659522E+03  0.12612159528E+04  0.10001238523E+04 0.  0.
         25    2    3    3    0    0  0.91654233949E+02  0.63811266885E+02 -0.29251656029E+02  0.16584614092E+03  0.11906681610E+03 0.  0.
         35    2    3    3    0    0 -0.91654233949E+02 -0.63811266885E+02 -0.73913493920E+03  0.10953698119E+04  0.80065110389E+03 0.  0.
         22    1    5    5    0    0  0.35055679586E+02 -0.26726242072E+03 -0.80324056838E+03  0.84726236367E+03  0.00000000000E+00 0.  1.
         22    1    5    5    0    0 -0.12670991354E+03  0.20345115384E+03  0.64105629185E+02  0.24810744825E+03  0.00000000000E+00 0.  1.
          5    1    4    4  502    0  0.87303635452E+02  0.79136951465E+02 -0.58933679540E+02  0.13183266073E+03  0.47000000000E+01 0.  1.
         -5    1    4    4    0  502  0.43505984975E+01 -0.15325684581E+02  0.29682023511E+02  0.34013480193E+02  0.47000000000E+01 0.  1.
<mgrwt>
<rscale>  0 0.10001239E+04</rscale>
<asrwt>0</asrwt>
<pdfrwt beam="1">  1        3 0.15612328E+00 0.10001239E+04</pdfrwt>
<pdfrwt beam="2">  1       -3 0.37909950E-01 0.10001239E+04</pdfrwt>
<totfact> 0.83458857E+00</totfact>
</mgrwt>
</event>
<event>
 9    1  0.4246427E-036  0.9988456E+03  0.7818608E-02  0.8682138E-01
         -1   -1    0    0    0  501 -0.00000000000E+00  0.00000000000E+00  0.27195332965E+03  0.27195332965E+03  0.00000000000E+00 0.  1.
          1   -1    0    0  501    0  0.00000000000E+00 -0.00000000000E+00 -0.91715426149E+03  0.91715426149E+03  0.00000000000E+00 0.  1.
         36    2    1    2    0    0 -0.14210854715E-13 -0.14210854715E-13 -0.64520093184E+03  0.11891075911E+04  0.99884564416E+03 0.  0.
         25    2    3    3    0    0  0.12160770370E+03 -0.63850592304E+02 -0.12954508346E+03  0.22623409005E+03  0.12463788797E+03 0.  0.
         35    2    3    3    0    0 -0.12160770370E+03  0.63850592304E+02 -0.51565584838E+03  0.96287350108E+03  0.80147307715E+03 0.  0.
         22    1    5    5    0    0 -0.42152382917E+03 -0.13994753751E+03 -0.22348724697E+03  0.49720639716E+03  0.00000000000E+00 0. -1.
         22    1    5    5    0    0  0.29991612547E+03  0.20379812982E+03 -0.29216860140E+03  0.46566710393E+03  0.00000000000E+00 0. -1.
          5    1    4    4  502    0  0.46382186494E+02 -0.17266087503E+02 -0.12832604149E+03  0.13761935883E+03  0.47000000000E+01 0.  1.
         -5    1    4    4    0  502  0.75225517203E+02 -0.46584504801E+02 -0.12190419757E+01  0.88614731221E+02  0.47000000000E+01 0.  1.
<mgrwt>
<rscale>  0 0.99884564E+03</rscale>
<asrwt>0</asrwt>
<pdfrwt beam="1">  1        1 0.14110066E+00 0.99884564E+03</pdfrwt>
<pdfrwt beam="2">  1       -1 0.41838974E-01 0.99884564E+03</pdfrwt>
<totfact> 0.11132865E+02</totfact>
</mgrwt>
</event>
<event>
 9    1  0.4246427E-036  0.9999078E+03  0.7818608E-02  0.8681126E-01
          1   -1    0    0  501    0  0.00000000000E+00  0.00000000000E+00  0.89051953686E+03  0.89051953686E+03  0.00000000000E+00 0. -1.
         -1   -1    0    0    0  501 -0.00000000000E+00 -0.00000000000E+00 -0.28068323457E+03  0.28068323457E+03  0.00000000000E+00 0. -1.
         36    2    1    2    0    0  0.00000000000E+00 -0.35527136788E-14  0.60983630230E+03  0.11712027714E+04  0.99990780386E+03 0.  0.
         25    2    3    3    0    0 -0.11455470135E+03 -0.15468080574E+02  0.23816226444E+02  0.17186099654E+03  0.12492777262E+03 0.  0.
         35    2    3    3    0    0  0.11455470135E+03  0.15468080574E+02  0.58602007585E+03  0.99934177489E+03  0.80118812561E+03 0.  0.
         22    1    5    5    0    0  0.85651064422E+02 -0.34129903181E+02 -0.19527143099E+03  0.21594417540E+03  0.00000000000E+00 0.  1.
         22    1    5    5    0    0  0.28903636933E+02  0.49597983756E+02  0.78129150684E+03  0.78339759949E+03  0.00000000000E+00 0.  1.
          5    1    4    4  502    0 -0.13630765617E+03 -0.12127854464E+02  0.41678515457E+02  0.14312948905E+03  0.47000000000E+01 0.  1.
         -5    1    4    4    0  502  0.21752954820E+02 -0.33402261105E+01 -0.17862289013E+02  0.28731507490E+02  0.47000000000E+01 0.  1.
<mgrwt>
<rscale>  0 0.99990780E+03</rscale>
<asrwt>0</asrwt>
<pdfrwt beam="1">  1        1 0.13700300E+00 0.99990780E+03</pdfrwt>
<pdfrwt beam="2">  1       -1 0.43182037E-01 0.99990780E+03</pdfrwt>
<totfact> 0.11066777E+02</totfact>
</mgrwt>
</event>
<event>
 9    1  0.4246427E-036  0.9985048E+03  0.7818608E-02  0.8682463E-01
          1   -1    0    0  501    0  0.00000000000E+00  0.00000000000E+00  0.11379633441E+04  0.11379633441E+04  0.00000000000E+00 0. -1.
         -1   -1    0    0    0  501 -0.00000000000E+00 -0.00000000000E+00 -0.21903424082E+03  0.21903424082E+03  0.00000000000E+00 0. -1.
         36    2    1    2    0    0  0.00000000000E+00  0.00000000000E+00  0.91892910328E+03  0.13569975849E+04  0.99850475643E+03 0.  0.
         25    2    3    3    0    0 -0.13163189929E+03 -0.48621237717E+02  0.17528553376E+03  0.25596168840E+03  0.12288362754E+03 0.  0.
         35    2    3    3    0    0  0.13163189929E+03  0.48621237717E+02  0.74364356951E+03  0.11010358965E+04  0.79973952338E+03 0.  0.
         22    1    5    5    0    0 -0.28916224507E+03  0.13405924602E+03  0.11314238780E+03  0.33821278115E+03  0.00000000000E+00 0.  1.
         22    1    5    5    0    0  0.42079414436E+03 -0.85438008302E+02  0.63050118171E+03  0.76282311536E+03  0.00000000000E+00 0.  1.
          5    1    4    4  502    0 -0.10085669728E+03  0.26569758380E+02  0.87118182937E+02  0.13597681142E+03  0.47000000000E+01 0. -1.
         -5    1    4    4    0  502 -0.30775202011E+02 -0.75190996097E+02  0.88167350823E+02  0.11998487698E+03  0.47000000000E+01 0. -1.
<mgrwt>
<rscale>  0 0.99850476E+03</rscale>
<asrwt>0</asrwt>
<pdfrwt beam="1">  1        1 0.17507128E+00 0.99850476E+03</pdfrwt>
<pdfrwt beam="2">  1       -1 0.33697576E-01 0.99850476E+03</pdfrwt>
<totfact> 0.10922122E+02</totfact>
</mgrwt>
</event>
<event>
 9    1  0.4246427E-036  0.1000070E+04  0.7818608E-02  0.8680971E-01
         -2   -1    0    0    0  501 -0.00000000000E+00  0.00000000000E+00  0.17187008856E+03  0.17187008856E+03  0.00000000000E+00 0. -1.
          2   -1    0    0  501    0  0.00000000000E+00 -0.00000000000E+00 -0.14547912176E+04  0.14547912176E+04  0.00000000000E+00 0. -1.
         36    2    1    2    0    0 -0.28421709430E-13  0.35527136788E-14 -0.12829211291E+04  0.16266613062E+04  0.10000701884E+04 0.  0.
         25    2    3    3    0    0  0.88723783554E+02 -0.23408724280E+02 -0.68698574737E+02  0.16971813464E+03  0.12515939004E+03 0.  0.
         35    2    3    3    0    0 -0.88723783554E+02  0.23408724280E+02 -0.12142225543E+04  0.14569431716E+04  0.79995444593E+03 0.  0.
         22    1    5    5    0    0  0.26522868124E+03  0.19008373738E+03 -0.89294774259E+03  0.95070171534E+03  0.00000000000E+00 0.  1.
         22    1    5    5    0    0 -0.35395246480E+03 -0.16667501310E+03 -0.32127481176E+03  0.50624145622E+03  0.00000000000E+00 0.  1.
          5    1    4    4  502    0  0.11287789000E+03 -0.37221346609E+02 -0.31541122492E+02  0.12306006298E+03  0.47000000000E+01 0.  1.
         -5    1    4    4    0  502 -0.24154106443E+02  0.13812622329E+02 -0.37157452245E+02  0.46658071660E+02  0.47000000000E+01 0.  1.
<mgrwt>
<rscale>  0 0.10000702E+04</rscale>
<asrwt>0</asrwt>
<pdfrwt beam="1">  1        2 0.22381403E+00 0.10000702E+04</pdfrwt>
<pdfrwt beam="2">  1       -2 0.26441552E-01 0.10000702E+04</pdfrwt>
<totfact> 0.20864730E+02</totfact>
</mgrwt>
</event>
<event>
 9    1  0.4246427E-036  0.1000368E+04  0.7818608E-02  0.8680688E-01
          1   -1    0    0  501    0  0.00000000000E+00  0.00000000000E+00  0.47030826077E+03  0.47030826077E+03  0.00000000000E+00 0. -1.
         -1   -1    0    0    0  501 -0.00000000000E+00 -0.00000000000E+00 -0.53195734879E+03  0.53195734879E+03  0.00000000000E+00 0. -1.
         36    2    1    2    0    0  0.00000000000E+00  0.00000000000E+00 -0.61649088024E+02  0.10022656096E+04  0.10003678034E+04 0.  0.
         25    2    3    3    0    0 -0.55420228491E+02  0.13052267432E+03 -0.11859146433E+02  0.18897068044E+03  0.12434511842E+03 0.  0.
         35    2    3    3    0    0  0.55420228491E+02 -0.13052267432E+03 -0.49789941591E+02  0.81329492911E+03  0.79928845431E+03 0.  0.
         22    1    5    5    0    0 -0.11143748710E+01  0.11931249356E+03  0.33242170001E+03  0.35318677720E+03  0.00000000000E+00 0.  1.
         22    1    5    5    0    0  0.56534603362E+02 -0.24983516788E+03 -0.38221164160E+03  0.46010815192E+03  0.00000000000E+00 0.  1.
          5    1    4    4  502    0  0.34832348189E+02  0.19237152227E+02 -0.21154540833E+02  0.45309657956E+02  0.47000000000E+01 0. -1.
         -5    1    4    4    0  502 -0.90252576680E+02  0.11128552209E+03  0.92953944006E+01  0.14366102249E+03  0.47000000000E+01 0. -1.
<mgrwt>
<rscale>  0 0.10003678E+04</rscale>
<asrwt>0</asrwt>
<pdfrwt beam="1">  1        1 0.72355117E-01 0.10003678E+04</pdfrwt>
<pdfrwt beam="2">  1       -1 0.81839592E-01 0.10003678E+04</pdfrwt>
<totfact> 0.84837463E+01</totfact>
</mgrwt>
</event>
<event>
 9    1  0.4246427E-036  0.9999671E+03  0.7818608E-02  0.8681069E-01
          2   -1    0    0  501    0  0.00000000000E+00  0.00000000000E+00  0.15493741062E+04  0.15493741062E+04  0.00000000000E+00 0.  1.
         -2   -1    0    0    0  501 -0.00000000000E+00 -0.00000000000E+00 -0.16134487300E+03  0.16134487300E+03  0.00000000000E+00 0.  1.
         36    2    1    2    0    0  0.14210854715E-13 -0.14210854715E-13  0.13880292332E+04  0.17107189792E+04  0.99996713623E+03 0.  0.
         25    2    3    3    0    0  0.11793767368E+03 -0.11944520598E+02  0.13288823127E+03  0.21733296336E+03  0.12458879767E+03 0.  0.
         35    2    3    3    0    0 -0.11793767368E+03  0.11944520598E+02  0.12551410019E+04  0.14933860158E+04  0.80048166195E+03 0.  0.
         22    1    5    5    0    0 -0.53769290240E+02 -0.20242062094E+03 -0.89612652659E+01  0.20963193609E+03  0.00000000000E+00 0.  1.
         22    1    5    5    0    0 -0.64168383442E+02  0.21436514154E+03  0.12641022672E+04  0.12837540797E+04  0.00000000000E+00 0.  1.
          5    1    4    4  502    0  0.10235118879E+03  0.27502645169E+02  0.13831618476E+03  0.17431471052E+03  0.47000000000E+01 0.  1.
         -5    1    4    4    0  502  0.15586484894E+02 -0.39447165766E+02 -0.54279534840E+01  0.43018252840E+02  0.47000000000E+01 0.  1.
<mgrwt>
<rscale>  0 0.99996714E+03</rscale>
<asrwt>0</asrwt>
<pdfrwt beam="1">  1        2 0.23836524E+00 0.99996714E+03</pdfrwt>
<pdfrwt beam="2">  1       -2 0.24822289E-01 0.99996714E+03</pdfrwt>
<totfact> 0.20639835E+02</totfact>
</mgrwt>
</event>
<event>
 9    1  0.4246427E-036  0.1000801E+04  0.7818608E-02  0.8680276E-01
          2   -1    0    0  501    0  0.00000000000E+00  0.00000000000E+00  0.13472573763E+04  0.13472573763E+04  0.00000000000E+00 0. -1.
         -2   -1    0    0    0  501 -0.00000000000E+00 -0.00000000000E+00 -0.18585954656E+03  0.18585954656E+03  0.00000000000E+00 0. -1.
         36    2    1    2    0    0  0.00000000000E+00 -0.14210854715E-13  0.11613978298E+04  0.15331169229E+04  0.10008009693E+04 0.  0.
         25    2    3    3    0    0 -0.18144794291E+02 -0.10254316738E+03  0.73942095759E+02  0.17847426662E+03  0.12466473272E+03 0.  0.
         35    2    3    3    0    0  0.18144794291E+02  0.10254316738E+03  0.10874557340E+04  0.13546426563E+04  0.80103209550E+03 0.  0.
         22    1    5    5    0    0  0.40687222777E+03  0.27008592511E+02  0.48423779472E+03  0.63305664489E+03  0.00000000000E+00 0. -1.
         22    1    5    5    0    0 -0.38872743348E+03  0.75534574866E+02  0.60321793928E+03  0.72158601138E+03  0.00000000000E+00 0. -1.
          5    1    4    4  502    0  0.18626805286E+01 -0.31864244471E+02 -0.34612949623E+02  0.47317501371E+02  0.47000000000E+01 0. -1.
         -5    1    4    4    0  502 -0.20007474820E+02 -0.70678922906E+02  0.10855504538E+03  0.13115676525E+03  0.47000000000E+01 0. -1.
<mgrwt>
<rscale>  0 0.10008010E+04</rscale>
<asrwt>0</asrwt>
<pdfrwt beam="1">  1        2 0.20727036E+00 0.10008010E+04</pdfrwt>
<pdfrwt beam="2">  1       -2 0.28593777E-01 0.10008010E+04</pdfrwt>
<totfact> 0.20880226E+02</totfact>
</mgrwt>
</event>
<event>
 9    1  0.4246427E-036  0.9999825E+03  0.7818608E-02  0.8681055E-01
         -2   -1    0    0    0  501 -0.00000000000E+00  0.00000000000E+00  0.65874652150E+03  0.65874652150E+03  0.00000000000E+00 0. -1.
          2   -1    0    0  501    0  0.00000000000E+00 -0.00000000000E+00 -0.37949533155E+03  0.37949533155E+03  0.00000000000E+00 0. -1.
         36    2    1    2    0    0 -0.21316282073E-13  0.00000000000E+00  0.27925118995E+03  0.10382418530E+04  0.99998245901E+03 0.  0.
         25    2    3    3    0    0  0.62714395949E+02  0.91524659655E+02  0.13302035409E+03  0.21377278295E+03  0.12527780867E+03 0.  0.
         35    2    3    3    0    0 -0.62714395949E+02 -0.91524659655E+02  0.14623083587E+03  0.82446907010E+03  0.80377604555E+03 0.  0.
         22    1    5    5    0    0 -0.43157475936E+03 -0.10243871262E+02  0.49167402437E+02  0.43448721877E+03  0.00000000000E+00 0. -1.
         22    1    5    5    0    0  0.36886036341E+03 -0.81280788393E+02  0.97063433431E+02  0.38998185133E+03  0.00000000000E+00 0. -1.
          5    1    4    4  502    0  0.93345315092E+02  0.98186634254E+02  0.10502755443E+03  0.17148422722E+03  0.47000000000E+01 0. -1.
         -5    1    4    4    0  502 -0.30630919142E+02 -0.66619745992E+01  0.27992799662E+02  0.42288555733E+02  0.47000000000E+01 0. -1.
<mgrwt>
<rscale>  0 0.99998246E+03</rscale>
<asrwt>0</asrwt>
<pdfrwt beam="1">  1        2 0.58383897E-01 0.99998246E+03</pdfrwt>
<pdfrwt beam="2">  1       -2 0.10134562E+00 0.99998246E+03</pdfrwt>
<totfact> 0.80125377E+01</totfact>
</mgrwt>
</event>
<event>
 9    1  0.4246427E-036  0.9998919E+03  0.7818608E-02  0.8681141E-01
          2   -1    0    0  501    0  0.00000000000E+00  0.00000000000E+00  0.63456174648E+03  0.63456174648E+03  0.00000000000E+00 0.  1.
         -2   -1    0    0    0  501 -0.00000000000E+00 -0.00000000000E+00 -0.39388753410E+03  0.39388753410E+03  0.00000000000E+00 0.  1.
         36    2    1    2    0    0  0.14210854715E-13 -0.71054273576E-14  0.24067421239E+03  0.10284492806E+04  0.99989191727E+03 0.  0.
         25    2    3    3    0    0  0.68329979652E+02 -0.36734888031E+02  0.16511780346E+03  0.22131648517E+03  0.12529429146E+03 0.  0.
         35    2    3    3    0    0 -0.68329979652E+02  0.36734888031E+02  0.75556408930E+02  0.80713279541E+03  0.79983507073E+03 0.  0.
         22    1    5    5    0    0 -0.26004520476E+03  0.85380514375E+02 -0.28546598673E+03  0.39547967120E+03  0.00000000000E+00 0. -1.
         22    1    5    5    0    0  0.19171522511E+03 -0.48645626344E+02  0.36102239566E+03  0.41165312421E+03  0.00000000000E+00 0. -1.
          5    1    4    4  502    0  0.94350320255E+02 -0.27640921311E+02  0.16639348083E+03  0.19332584909E+03  0.47000000000E+01 0. -1.
         -5    1    4    4    0  502 -0.26020340603E+02 -0.90939667202E+01 -0.12756773693E+01  0.27990636087E+02  0.47000000000E+01 0. -1.
<mgrwt>
<rscale>  0 0.99989192E+03</rscale>
<asrwt>0</asrwt>
<pdfrwt beam="1">  1        2 0.97624884E-01 0.99989192E+03</pdfrwt>
<pdfrwt beam="2">  1       -2 0.60598082E-01 0.99989192E+03</pdfrwt>
<totfact> 0.14212409E+02</totfact>
</mgrwt>
</event>
<event>
 9    1  0.4246427E-036  0.1000986E+04  0.7818608E-02  0.8680100E-01
         -2   -1    0    0    0  501 -0.00000000000E+00  0.00000000000E+00  0.18475125909E+03  0.18475125909E+03  0.00000000000E+00 0.  1.
          2   -1    0    0  501    0  0.00000000000E+00 -0.00000000000E+00 -0.13558396250E+04  0.13558396250E+04  0.00000000000E+00 0.  1.
         36    2    1    2    0    0  0.00000000000E+00  0.00000000000E+00 -0.11710883659E+04  0.15405908841E+04  0.10009856699E+04 0.  0.
         25    2    3    3    0    0 -0.14838080722E+03 -0.24414836983E+02 -0.23027393452E+03  0.30226797130E+03  0.12540691105E+03 0.  0.
         35    2    3    3    0    0  0.14838080722E+03  0.24414836983E+02 -0.94081443140E+03  0.12383229128E+04  0.79101131080E+03 0.  0.
         22    1    5    5    0    0 -0.24307431135E+03 -0.41579231608E+02 -0.34663281741E+02  0.24902910761E+03  0.00000000000E+00 0.  1.
         22    1    5    5    0    0  0.39145511857E+03  0.65994068591E+02 -0.90615114966E+03  0.98929380518E+03  0.00000000000E+00 0.  1.
          5    1    4    4  502    0 -0.13853963114E+03  0.25155719596E+02 -0.13947549471E+03  0.19824616831E+03  0.47000000000E+01 0.  1.
         -5    1    4    4    0  502 -0.98411760834E+01 -0.49570556579E+02 -0.90798439809E+02  0.10402180299E+03  0.47000000000E+01 0.  1.
<mgrwt>
<rscale>  0 0.10009857E+04</rscale>
<asrwt>0</asrwt>
<pdfrwt beam="1">  1        2 0.20859070E+00 0.10009857E+04</pdfrwt>
<pdfrwt beam="2">  1       -2 0.28423272E-01 0.10009857E+04</pdfrwt>
<totfact> 0.20868882E+02</totfact>
</mgrwt>
</event>
<event>
 9    1  0.4246427E-036  0.1000674E+04  0.7818608E-02  0.8680396E-01
          1   -1    0    0  501    0  0.00000000000E+00  0.00000000000E+00  0.41881445592E+03  0.41881445592E+03  0.00000000000E+00 0.  1.
         -1   -1    0    0    0  501 -0.00000000000E+00 -0.00000000000E+00 -0.59772812221E+03  0.59772812221E+03  0.00000000000E+00 0.  1.
         36    2    1    2    0    0  0.00000000000E+00 -0.56843418861E-13 -0.17891366629E+03  0.10165425781E+04  0.10006741294E+04 0.  0.
         25    2    3    3    0    0  0.12155370363E+03  0.66138892337E+02 -0.12621357747E+02  0.18660061108E+03  0.12454249652E+03 0.  0.
         35    2    3    3    0    0 -0.12155370363E+03 -0.66138892337E+02 -0.16629230854E+03  0.82994196704E+03  0.80124957462E+03 0.  0.
         22    1    5    5    0    0  0.97878367751E+02 -0.40091110503E+03 -0.76526249624E+02  0.41972152183E+03  0.00000000000E+00 0. -1.
         22    1    5    5    0    0 -0.21943207138E+03  0.33477221269E+03 -0.89766058920E+02  0.41022044521E+03  0.00000000000E+00 0. -1.
          5    1    4    4  502    0  0.40597173515E+02 -0.25814299533E+02  0.29894201096E+02  0.56835392292E+02  0.47000000000E+01 0.  1.
         -5    1    4    4    0  502  0.80956530113E+02  0.91953191871E+02 -0.42515558843E+02  0.12976521879E+03  0.47000000000E+01 0.  1.
<mgrwt>
<rscale>  0 0.10006741E+04</rscale>
<asrwt>0</asrwt>
<pdfrwt beam="1">  1        1 0.64432994E-01 0.10006741E+04</pdfrwt>
<pdfrwt beam="2">  1       -1 0.91958172E-01 0.10006741E+04</pdfrwt>
<totfact> 0.77432621E+01</totfact>
</mgrwt>
</event>
<event>
 9    1  0.4246427E-036  0.9987508E+03  0.7818608E-02  0.8682228E-01
         -1   -1    0    0    0  501 -0.00000000000E+00  0.00000000000E+00  0.92595064612E+03  0.92595064612E+03  0.00000000000E+00 0. -1.
          1   -1    0    0  501    0  0.00000000000E+00 -0.00000000000E+00 -0.26931866819E+03  0.26931866819E+03  0.00000000000E+00 0. -1.
         36    2    1    2    0    0  0.28421709430E-13  0.14210854715E-13  0.65663197793E+03  0.11952693143E+04  0.99875080941E+03 0.  0.
         25    2    3    3    0    0  0.11600139114E+03 -0.32802021720E+02  0.20578455671E+03  0.26915970796E+03  0.12476926397E+03 0.  0.
         35    2    3    3    0    0 -0.11600139114E+03  0.32802021720E+02  0.45084742122E+03  0.92610960636E+03  0.79992706567E+03 0.  0.
         22    1    5    5    0    0  0.31518909261E+03  0.16763865179E+03  0.18927738990E+03  0.40407030576E+03  0.00000000000E+00 0.  1.
         22    1    5    5    0    0 -0.43119048374E+03 -0.13483663007E+03  0.26157003132E+03  0.52203930059E+03  0.00000000000E+00 0.  1.
          5    1    4    4  502    0  0.74292125990E+02 -0.37293665964E+02  0.30193211873E+02  0.88565555090E+02  0.47000000000E+01 0.  1.
         -5    1    4    4    0  502  0.41709265149E+02  0.44916442434E+01  0.17559134484E+03  0.18059415287E+03  0.47000000000E+01 0.  1.
<mgrwt>
<rscale>  0 0.99875081E+03</rscale>
<asrwt>0</asrwt>
<pdfrwt beam="1">  1        1 0.41433642E-01 0.99875081E+03</pdfrwt>
<pdfrwt beam="2">  1       -1 0.14245394E+00 0.99875081E+03</pdfrwt>
<totfact> 0.47914089E+01</totfact>
</mgrwt>
</event>
<event>
 9    1  0.4246427E-036  0.9982487E+03  0.7818608E-02  0.8682708E-01
          2   -1    0    0  501    0  0.00000000000E+00  0.00000000000E+00  0.87542999944E+03  0.87542999944E+03  0.00000000000E+00 0.  1.
         -2   -1    0    0    0  501 -0.00000000000E+00 -0.00000000000E+00 -0.28457455083E+03  0.28457455083E+03  0.00000000000E+00 0.  1.
         36    2    1    2    0    0 -0.14210854715E-13  0.00000000000E+00  0.59085544860E+03  0.11600045503E+04  0.99824866417E+03 0.  0.
         25    2    3    3    0    0  0.10488688046E+03  0.79429329861E+02  0.56411217107E+02  0.19032553792E+03  0.12542451449E+03 0.  0.
         35    2    3    3    0    0 -0.10488688046E+03 -0.79429329861E+02  0.53444423150E+03  0.96967901235E+03  0.79833356079E+03 0.  0.
         22    1    5    5    0    0  0.19921517763E+03  0.27086521275E+03  0.15437427430E+03  0.36998117120E+03  0.00000000000E+00 0. -1.
         22    1    5    5    0    0 -0.30410205809E+03 -0.35029454261E+03  0.38006995720E+03  0.59969784115E+03  0.00000000000E+00 0. -1.
          5    1    4    4  502    0  0.82856619165E+01  0.13268505498E+02  0.70439846376E+02  0.72308833409E+02  0.47000000000E+01 0.  1.
         -5    1    4    4    0  502  0.96601218545E+02  0.66160824363E+02 -0.14028629269E+02  0.11801670451E+03  0.47000000000E+01 0.  1.
<mgrwt>
<rscale>  0 0.99824866E+03</rscale>
<asrwt>0</asrwt>
<pdfrwt beam="1">  1        2 0.13468154E+00 0.99824866E+03</pdfrwt>
<pdfrwt beam="2">  1       -2 0.43780701E-01 0.99824866E+03</pdfrwt>
<totfact> 0.18240924E+02</totfact>
</mgrwt>
</event>
<event>
 9    1  0.4246427E-036  0.9987927E+03  0.7818608E-02  0.8682189E-01
         -2   -1    0    0    0  501 -0.00000000000E+00  0.00000000000E+00  0.19740978140E+03  0.19740978140E+03  0.00000000000E+00 0.  1.
          2   -1    0    0  501    0  0.00000000000E+00 -0.00000000000E+00 -0.12633452844E+04  0.12633452844E+04  0.00000000000E+00 0.  1.
         36    2    1    2    0    0 -0.28421709430E-13  0.28421709430E-13 -0.10659355030E+04  0.14607550658E+04  0.99879270409E+03 0.  0.
         25    2    3    3    0    0  0.38044266702E+02  0.12993489627E+03 -0.25230710131E+03  0.31195124120E+03  0.12379119524E+03 0.  0.
         35    2    3    3    0    0 -0.38044266702E+02 -0.12993489627E+03 -0.81362840171E+03  0.11488038246E+04  0.79964280020E+03 0.  0.
         22    1    5    5    0    0  0.30108761241E+03  0.17976112597E+03 -0.32286941986E+03  0.47666809735E+03  0.00000000000E+00 0.  1.
         22    1    5    5    0    0 -0.33913187911E+03 -0.30969602223E+03 -0.49075898186E+03  0.67213572728E+03  0.00000000000E+00 0.  1.
          5    1    4    4  502    0 -0.33450820580E+02  0.57301673388E+02 -0.43291698751E+02  0.79364351892E+02  0.47000000000E+01 0.  1.
         -5    1    4    4    0  502  0.71495087282E+02  0.72633222878E+02 -0.20901540256E+03  0.23258688931E+03  0.47000000000E+01 0.  1.
<mgrwt>
<rscale>  0 0.99879270E+03</rscale>
<asrwt>0</asrwt>
<pdfrwt beam="1">  1        2 0.19436081E+00 0.99879270E+03</pdfrwt>
<pdfrwt beam="2">  1       -2 0.30370736E-01 0.99879270E+03</pdfrwt>
<totfact> 0.20930309E+02</totfact>
</mgrwt>
</event>
<event>
 9    1  0.4246427E-036  0.1000527E+04  0.7818608E-02  0.8680536E-01
         -1   -1    0    0    0  501 -0.00000000000E+00  0.00000000000E+00  0.50857315088E+03  0.50857315088E+03  0.00000000000E+00 0. -1.
          1   -1    0    0  501    0  0.00000000000E+00 -0.00000000000E+00 -0.49208985159E+03  0.49208985159E+03  0.00000000000E+00 0. -1.
         36    2    1    2    0    0  0.00000000000E+00 -0.35527136788E-14  0.16483299290E+02  0.10006630025E+04  0.10005272337E+04 0.  0.
         25    2    3    3    0    0  0.96317649766E+01 -0.93819827766E+00  0.13238734531E+03  0.19230667324E+03  0.13914667176E+03 0.  0.
         35    2    3    3    0    0 -0.96317649766E+01  0.93819827766E+00 -0.11590404602E+03  0.80835632923E+03  0.79994534564E+03 0.  0.
         22    1    5    5    0    0  0.21324186695E+03 -0.25307805056E+03 -0.27925373130E+03  0.43301644304E+03  0.00000000000E+00 0. -1.
         22    1    5    5    0    0 -0.22287363193E+03  0.25401624884E+03  0.16334968528E+03  0.37533988619E+03  0.00000000000E+00 0. -1.
          5    1    4    4  502    0  0.25509858738E+02  0.28006103044E+02  0.14987019374E+03  0.15465529306E+03  0.47000000000E+01 0. -1.
         -5    1    4    4    0  502 -0.15878093761E+02 -0.28944301321E+02 -0.17482848427E+02  0.37651380182E+02  0.47000000000E+01 0. -1.
<mgrwt>
<rscale>  0 0.10005272E+04</rscale>
<asrwt>0</asrwt>
<pdfrwt beam="1">  1        1 0.75706131E-01 0.10005272E+04</pdfrwt>
<pdfrwt beam="2">  1       -1 0.78242023E-01 0.10005272E+04</pdfrwt>
<totfact> 0.87543182E+01</totfact>
</mgrwt>
</event>
<event>
 9    1  0.4246427E-036  0.9999629E+03  0.7818608E-02  0.8681073E-01
          2   -1    0    0  501    0  0.00000000000E+00  0.00000000000E+00  0.10966953527E+03  0.10966953527E+03  0.00000000000E+00 0.  1.
         -2   -1    0    0    0  501 -0.00000000000E+00 -0.00000000000E+00 -0.22794064103E+04  0.22794064103E+04  0.00000000000E+00 0.  1.
         36    2    1    2    0    0  0.00000000000E+00 -0.35527136788E-14 -0.21697368751E+04  0.23890759456E+04  0.99996288272E+03 0.  0.
         25    2    3    3    0    0 -0.10907418219E+03 -0.16080307709E+02 -0.20254219883E+03  0.26258035776E+03  0.12557606642E+03 0.  0.
         35    2    3    3    0    0  0.10907418219E+03  0.16080307709E+02 -0.19671946762E+04  0.21264955878E+04  0.79998302318E+03 0.  0.
         22    1    5    5    0    0 -0.10072482538E+03  0.73382603240E+02  0.21054193742E+02  0.12638740436E+03  0.00000000000E+00 0. -1.
         22    1    5    5    0    0  0.20979900758E+03 -0.57302295531E+02 -0.19882488700E+04  0.20001081835E+04  0.00000000000E+00 0. -1.
          5    1    4    4  502    0  0.17832278642E+02 -0.75322968484E+01 -0.91582863742E+02  0.93724258271E+02  0.47000000000E+01 0.  1.
         -5    1    4    4    0  502 -0.12690646084E+03 -0.85480108602E+01 -0.11095933509E+03  0.16885609949E+03  0.47000000000E+01 0.  1.
<mgrwt>
<rscale>  0 0.99996288E+03</rscale>
<asrwt>0</asrwt>
<pdfrwt beam="1">  1        2 0.16872237E-01 0.99996288E+03</pdfrwt>
<pdfrwt beam="2">  1       -2 0.35067788E+00 0.99996288E+03</pdfrwt>
<totfact> 0.66011472E+00</totfact>
</mgrwt>
</event>
<event>
 9    1  0.4246427E-036  0.1000235E+04  0.7818608E-02  0.8680814E-01
         -1   -1    0    0    0  501 -0.00000000000E+00  0.00000000000E+00  0.50545834721E+03  0.50545834721E+03  0.00000000000E+00 0.  1.
          1   -1    0    0  501    0  0.00000000000E+00 -0.00000000000E+00 -0.49483315597E+03  0.49483315597E+03  0.00000000000E+00 0.  1.
         36    2    1    2    0    0  0.28421709430E-13  0.00000000000E+00  0.10625191239E+02  0.10002915032E+04  0.10002350707E+04 0.  0.
         25    2    3    3    0    0  0.11140567368E+03  0.57971777931E+02 -0.63763927497E+02  0.18738648091E+03  0.12359572653E+03 0.  0.
         35    2    3    3    0    0 -0.11140567368E+03 -0.57971777931E+02  0.74389118736E+02  0.81290502227E+03  0.79969299302E+03 0.  0.
         22    1    5    5    0    0 -0.38489667059E+03 -0.16919574894E+03 -0.14535692840E+03  0.44486097280E+03  0.00000000000E+00 0. -1.
         22    1    5    5    0    0  0.27349099691E+03  0.11122397101E+03  0.21974604714E+03  0.36804404947E+03  0.00000000000E+00 0. -1.
          5    1    4    4  502    0  0.32896429159E+02  0.71068092565E+02 -0.72946556649E+02  0.10712674250E+03  0.47000000000E+01 0.  1.
         -5    1    4    4    0  502  0.78509244519E+02 -0.13096314634E+02  0.91826291517E+01  0.80259738412E+02  0.47000000000E+01 0.  1.
<mgrwt>
<rscale>  0 0.10002351E+04</rscale>
<asrwt>0</asrwt>
<pdfrwt beam="1">  1        1 0.76128177E-01 0.10002351E+04</pdfrwt>
<pdfrwt beam="2">  1       -1 0.77762823E-01 0.10002351E+04</pdfrwt>
<totfact> 0.87982199E+01</totfact>
</mgrwt>
</event>
<event>
 9    1  0.4246427E-036  0.1002513E+04  0.7818608E-02  0.8678648E-01
          4   -1    0    0  501    0  0.00000000000E+00  0.00000000000E+00  0.29474989776E+03  0.29474989776E+03  0.00000000000E+00 0.  1.
         -4   -1    0    0    0  501 -0.00000000000E+00 -0.00000000000E+00 -0.85244515425E+03  0.85244515425E+03  0.00000000000E+00 0.  1.
         36    2    1    2    0    0  0.14210854715E-13 -0.28421709430E-13 -0.55769525649E+03  0.11471950520E+04  0.10025130863E+04 0.  0.
         25    2    3    3    0    0  0.79949100365E+02  0.10041474396E+03 -0.32070265600E+02  0.18168598673E+03  0.12452436061E+03 0.  0.
         35    2    3    3    0    0 -0.79949100365E+02 -0.10041474396E+03 -0.52562499089E+03  0.96550906528E+03  0.79965689183E+03 0.  0.
         22    1    5    5    0    0  0.21492504071E+03 -0.34188527246E+03 -0.38877278544E+03  0.56055560951E+03  0.00000000000E+00 0.  1.
         22    1    5    5    0    0 -0.29487414108E+03  0.24147052850E+03 -0.13685220544E+03  0.40495345578E+03  0.00000000000E+00 0.  1.
          5    1    4    4  502    0 -0.10687881729E+02 -0.21811799215E+02 -0.13872188882E+02  0.28363938818E+02  0.47000000000E+01 0. -1.
         -5    1    4    4    0  502  0.90636982094E+02  0.12222654318E+03 -0.18198076717E+02  0.15332204791E+03  0.47000000000E+01 0. -1.
<mgrwt>
<rscale>  0 0.10025131E+04</rscale>
<asrwt>0</asrwt>
<pdfrwt beam="1">  1        4 0.45346139E-01 0.10025131E+04</pdfrwt>
<pdfrwt beam="2">  1       -4 0.13114541E+00 0.10025131E+04</pdfrwt>
<totfact> 0.42008242E+00</totfact>
</mgrwt>
</event>
<event>
 9    1  0.4246427E-036  0.1000089E+04  0.7818608E-02  0.8680953E-01
          1   -1    0    0  501    0  0.00000000000E+00  0.00000000000E+00  0.29447596929E+04  0.29447596929E+04  0.00000000000E+00 0.  1.
         -1   -1    0    0    0  501 -0.00000000000E+00 -0.00000000000E+00 -0.84911696911E+02  0.84911696911E+02  0.00000000000E+00 0.  1.
         36    2    1    2    0    0  0.71054273576E-14  0.00000000000E+00  0.28598479960E+04  0.30296713898E+04  0.10000890811E+04 0.  0.
         25    2    3    3    0    0 -0.62695924611E+02 -0.31127315632E+02  0.90417692739E+03  0.91552796231E+03  0.12552228890E+03 0.  0.
         35    2    3    3    0    0  0.62695924611E+02  0.31127315632E+02  0.19556710686E+04  0.21141434275E+04  0.80003338352E+03 0.  0.
         22    1    5    5    0    0 -0.19340108966E+03  0.13068352726E+03  0.17634096177E+04  0.17787905007E+04  0.00000000000E+00 0. -1.
         22    1    5    5    0    0  0.25609701427E+03 -0.99556211625E+02  0.19226145097E+03  0.33535292681E+03  0.00000000000E+00 0. -1.
          5    1    4    4  502    0 -0.16608652676E+02 -0.61778310536E+02  0.22166629081E+03  0.23076057176E+03  0.47000000000E+01 0. -1.
         -5    1    4    4    0  502 -0.46087271935E+02  0.30650994904E+02  0.68251063658E+03  0.68476739055E+03  0.47000000000E+01 0. -1.
<mgrwt>
<rscale>  0 0.10000891E+04</rscale>
<asrwt>0</asrwt>
<pdfrwt beam="1">  1        1 0.45303988E+00 0.10000891E+04</pdfrwt>
<pdfrwt beam="2">  1       -1 0.13063340E-01 0.10000891E+04</pdfrwt>
<totfact> 0.27424814E+01</totfact>
</mgrwt>
</event>
<event>
 9    1  0.4246427E-036  0.1001930E+04  0.7818608E-02  0.8679203E-01
         -2   -1    0    0    0  501 -0.00000000000E+00  0.00000000000E+00  0.22156911190E+03  0.22156911190E+03  0.00000000000E+00 0. -1.
          2   -1    0    0  501    0  0.00000000000E+00 -0.00000000000E+00 -0.11326746933E+04  0.11326746933E+04  0.00000000000E+00 0. -1.
         36    2    1    2    0    0  0.14210854715E-13 -0.31974423109E-13 -0.91110558144E+03  0.13542438052E+04  0.10019295901E+04 0.  0.
         25    2    3    3    0    0 -0.86985409775E+02 -0.10438016145E+02 -0.23448129247E+02  0.15467229893E+03  0.12529282341E+03 0.  0.
         35    2    3    3    0    0  0.86985409775E+02  0.10438016145E+02 -0.88765745219E+03  0.11995715063E+04  0.80209764532E+03 0.  0.
         22    1    5    5    0    0  0.23342903567E+03  0.35653026464E+03 -0.40535487543E+03  0.58814583169E+03  0.00000000000E+00 0.  1.
         22    1    5    5    0    0 -0.14644362590E+03 -0.34609224850E+03 -0.48230257676E+03  0.61142567462E+03  0.00000000000E+00 0.  1.
          5    1    4    4  502    0  0.88786277586E+01 -0.39365131389E+02 -0.35183697892E+02  0.53744080581E+02  0.47000000000E+01 0. -1.
         -5    1    4    4    0  502 -0.95864037533E+02  0.28927115244E+02  0.11735568645E+02  0.10092821835E+03  0.47000000000E+01 0. -1.
<mgrwt>
<rscale>  0 0.10019296E+04</rscale>
<asrwt>0</asrwt>
<pdfrwt beam="1">  1        2 0.17425764E+00 0.10019296E+04</pdfrwt>
<pdfrwt beam="2">  1       -2 0.34087557E-01 0.10019296E+04</pdfrwt>
<totfact> 0.20218040E+02</totfact>
</mgrwt>
</event>
<event>
 9    1  0.4246427E-036  0.9997890E+03  0.7818608E-02  0.8681239E-01
         -1   -1    0    0    0  501 -0.00000000000E+00  0.00000000000E+00  0.10453281761E+04  0.10453281761E+04  0.00000000000E+00 0. -1.
          1   -1    0    0  501    0  0.00000000000E+00 -0.00000000000E+00 -0.23905844173E+03  0.23905844173E+03  0.00000000000E+00 0. -1.
         36    2    1    2    0    0  0.26645352591E-14  0.28421709430E-13  0.80626973434E+03  0.12843866178E+04  0.99978902747E+03 0.  0.
         25    2    3    3    0    0  0.47120298498E+01 -0.14000035620E+03  0.15732179618E+03  0.24480183896E+03  0.12472164946E+03 0.  0.
         35    2    3    3    0    0 -0.47120298498E+01  0.14000035620E+03  0.64894793816E+03  0.10395847788E+04  0.79998798927E+03 0.  0.
         22    1    5    5    0    0  0.38527163108E+02  0.36929642230E+03  0.23517325752E+02  0.37204469413E+03  0.00000000000E+00 0.  1.
         22    1    5    5    0    0 -0.43239192958E+02 -0.22929606611E+03  0.62543061241E+03  0.66754008469E+03  0.00000000000E+00 0.  1.
          5    1    4    4  502    0  0.71194827302E+01 -0.94820316371E+02  0.17234967032E+03  0.19689611040E+03  0.47000000000E+01 0. -1.
         -5    1    4    4    0  502 -0.24074528804E+01 -0.45180039827E+02 -0.15027874136E+02  0.47905728564E+02  0.47000000000E+01 0. -1.
<mgrwt>
<rscale>  0 0.99978903E+03</rscale>
<asrwt>0</asrwt>
<pdfrwt beam="1">  1        1 0.36778222E-01 0.99978903E+03</pdfrwt>
<pdfrwt beam="2">  1       -1 0.16081972E+00 0.99978903E+03</pdfrwt>
<totfact> 0.39203466E+01</totfact>
</mgrwt>
</event>
<event>
 9    1  0.4246427E-036  0.1000087E+04  0.7818608E-02  0.8680956E-01
          2   -1    0    0  501    0  0.00000000000E+00  0.00000000000E+00  0.32209716500E+03  0.32209716500E+03  0.00000000000E+00 0.  1.
         -2   -1    0    0    0  501 -0.00000000000E+00 -0.00000000000E+00 -0.77629768499E+03  0.77629768499E+03  0.00000000000E+00 0.  1.
         36    2    1    2    0    0  0.28421709430E-13  0.00000000000E+00 -0.45420051998E+03  0.10983948500E+04  0.10000865633E+04 0.  0.
         25    2    3    3    0    0  0.99439236437E+02 -0.81725979734E+02 -0.20915371930E+02  0.17977589973E+03  0.12375226799E+03 0.  0.
         35    2    3    3    0    0 -0.99439236437E+02  0.81725979734E+02 -0.43328514805E+03  0.91861895027E+03  0.79972336390E+03 0.  0.
         22    1    5    5    0    0 -0.40840406718E+03  0.22838317658E+03 -0.25693335797E+03  0.53382348007E+03  0.00000000000E+00 0. -1.
         22    1    5    5    0    0  0.30896483074E+03 -0.14665719684E+03 -0.17635179008E+03  0.38479547020E+03  0.00000000000E+00 0. -1.
          5    1    4    4  502    0  0.92489452229E+02 -0.69750495352E+01 -0.41601430987E+02  0.10176305395E+03  0.47000000000E+01 0.  1.
         -5    1    4    4    0  502  0.69497842079E+01 -0.74750930199E+02  0.20686059057E+02  0.78012845772E+02  0.47000000000E+01 0.  1.
<mgrwt>
<rscale>  0 0.10000866E+04</rscale>
<asrwt>0</asrwt>
<pdfrwt beam="1">  1        2 0.49553410E-01 0.10000866E+04</pdfrwt>
<pdfrwt beam="2">  1       -2 0.11943041E+00 0.10000866E+04</pdfrwt>
<totfact> 0.63574731E+01</totfact>
</mgrwt>
</event>
<event>
 9    1  0.4246427E-036  0.9996217E+03  0.7818608E-02  0.8681398E-01
          2   -1    0    0  501    0  0.00000000000E+00  0.00000000000E+00  0.54607955583E+03  0.54607955583E+03  0.00000000000E+00 0. -1.
         -2   -1    0    0    0  501 -0.00000000000E+00 -0.00000000000E+00 -0.45746244985E+03  0.45746244985E+03  0.00000000000E+00 0. -1.
         36    2    1    2    0    0  0.00000000000E+00  0.33750779949E-13  0.88617105976E+02  0.10035420057E+04  0.99962171129E+03 0.  0.
         25    2    3    3    0    0 -0.95482540903E+02  0.55252626942E+01  0.13032702061E+03  0.20347329421E+03  0.12356700615E+03 0.  0.
         35    2    3    3    0    0  0.95482540903E+02 -0.55252626942E+01 -0.41709914632E+02  0.80006871147E+03  0.79323564087E+03 0.  0.
         22    1    5    5    0    0 -0.13847681996E+03  0.26946193692E+03  0.20230302158E+03  0.36429668905E+03  0.00000000000E+00 0.  1.
         22    1    5    5    0    0  0.23395936086E+03 -0.27498719962E+03 -0.24401293621E+03  0.43577202242E+03  0.00000000000E+00 0.  1.
          5    1    4    4  502    0 -0.11603168509E+03 -0.89749827564E+01  0.13409038297E+03  0.17761256449E+03  0.47000000000E+01 0. -1.
         -5    1    4    4    0  502  0.20549144191E+02  0.14500245451E+02 -0.37633623587E+01  0.25860729714E+02  0.47000000000E+01 0. -1.
<mgrwt>
<rscale>  0 0.99962171E+03</rscale>
<asrwt>0</asrwt>
<pdfrwt beam="1">  1        2 0.84012240E-01 0.99962171E+03</pdfrwt>
<pdfrwt beam="2">  1       -2 0.70378838E-01 0.99962171E+03</pdfrwt>
<totfact> 0.12335889E+02</totfact>
</mgrwt>
</event>
<event>
 9    1  0.4246427E-036  0.9994305E+03  0.7818608E-02  0.8681580E-01
         -2   -1    0    0    0  501 -0.00000000000E+00  0.00000000000E+00  0.31479093477E+03  0.31479093477E+03  0.00000000000E+00 0.  1.
          2   -1    0    0  501    0  0.00000000000E+00 -0.00000000000E+00 -0.79327356559E+03  0.79327356559E+03  0.00000000000E+00 0.  1.
         36    2    1    2    0    0  0.00000000000E+00 -0.10658141036E-13 -0.47848263081E+03  0.11080645004E+04  0.99943049231E+03 0.  0.
         25    2    3    3    0    0 -0.13207256701E+03  0.31076145525E+02 -0.52119104153E+02  0.19119341630E+03  0.12421606837E+03 0.  0.
         35    2    3    3    0    0  0.13207256701E+03 -0.31076145525E+02 -0.42636352666E+03  0.91687108406E+03  0.80028609767E+03 0.  0.
         22    1    5    5    0    0  0.20356406853E+03  0.16429331881E+03  0.15177985715E+03  0.30243635634E+03  0.00000000000E+00 0. -1.
         22    1    5    5    0    0 -0.71491501513E+02 -0.19536946433E+03 -0.57814338381E+03  0.61443472772E+03  0.00000000000E+00 0. -1.
          5    1    4    4  502    0 -0.12008202940E+03 -0.24619027488E+02 -0.16336064807E+02  0.12375276688E+03  0.47000000000E+01 0.  1.
         -5    1    4    4    0  502 -0.11990537619E+02  0.55695173013E+02 -0.35783039346E+02  0.67440649420E+02  0.47000000000E+01 0.  1.
<mgrwt>
<rscale>  0 0.99943049E+03</rscale>
<asrwt>0</asrwt>
<pdfrwt beam="1">  1        2 0.12204209E+00 0.99943049E+03</pdfrwt>
<pdfrwt beam="2">  1       -2 0.48429375E-01 0.99943049E+03</pdfrwt>
<totfact> 0.17026439E+02</totfact>
</mgrwt>
</event>
<event>
 9    1  0.4246427E-036  0.1000488E+04  0.7818608E-02  0.8680573E-01
          1   -1    0    0  501    0  0.00000000000E+00  0.00000000000E+00  0.34177348416E+03  0.34177348416E+03  0.00000000000E+00 0.  1.
         -1   -1    0    0    0  501 -0.00000000000E+00 -0.00000000000E+00 -0.73219303063E+03  0.73219303063E+03  0.00000000000E+00 0.  1.
         36    2    1    2    0    0 -0.14210854715E-13  0.00000000000E+00 -0.39041954647E+03  0.10739665148E+04  0.10004882071E+04 0.  0.
         25    2    3    3    0    0 -0.89043049217E+02 -0.10397316316E+03 -0.11182053929E+03  0.21621246407E+03  0.12451872687E+03 0.  0.
         35    2    3    3    0    0  0.89043049217E+02  0.10397316316E+03 -0.27859900717E+03  0.85775405071E+03  0.79961585868E+03 0.  0.
         22    1    5    5    0    0  0.40070588468E+03  0.11614735943E+03  0.30916338731E+02  0.41834344159E+03  0.00000000000E+00 0. -1.
         22    1    5    5    0    0 -0.31166283546E+03 -0.12174196265E+02 -0.30951534590E+03  0.43941060913E+03  0.00000000000E+00 0. -1.
          5    1    4    4  502    0 -0.62707362567E+02 -0.51608156477E+02  0.89966604685E+01  0.81845250532E+02  0.47000000000E+01 0.  1.
         -5    1    4    4    0  502 -0.26335686650E+02 -0.52365006686E+02 -0.12081719976E+03  0.13436721354E+03  0.47000000000E+01 0.  1.
<mgrwt>
<rscale>  0 0.10004882E+04</rscale>
<asrwt>0</asrwt>
<pdfrwt beam="1">  1        1 0.52580537E-01 0.10004882E+04</pdfrwt>
<pdfrwt beam="2">  1       -1 0.11264508E+00 0.10004882E+04</pdfrwt>
<totfact> 0.64117759E+01</totfact>
</mgrwt>
</event>
<event>
 9    1  0.4246427E-036  0.1000101E+04  0.7818608E-02  0.8680942E-01
          2   -1    0    0  501    0  0.00000000000E+00  0.00000000000E+00  0.47450921217E+03  0.47450921217E+03  0.00000000000E+00 0.  1.
         -2   -1    0    0    0  501 -0.00000000000E+00 -0.00000000000E+00 -0.52696651068E+03  0.52696651068E+03  0.00000000000E+00 0.  1.
         36    2    1    2    0    0 -0.14210854715E-13 -0.14210854715E-13 -0.52457298508E+02  0.10014757229E+04  0.10001009226E+04 0.  0.
         25    2    3    3    0    0 -0.25491283828E+02  0.11196501489E+03  0.69898906577E+02  0.18339096407E+03  0.12474140632E+03 0.  0.
         35    2    3    3    0    0  0.25491283828E+02 -0.11196501489E+03 -0.12235620509E+03  0.81808475879E+03  0.80069074026E+03 0.  0.
         22    1    5    5    0    0  0.12232231603E+03  0.31673816444E+03  0.55341499048E+02  0.34401816134E+03  0.00000000000E+00 0.  1.
         22    1    5    5    0    0 -0.96831032203E+02 -0.42870317933E+03 -0.17769770413E+03  0.47406659745E+03  0.00000000000E+00 0.  1.
          5    1    4    4  502    0 -0.70734845754E+02  0.96397854721E+02  0.37425459832E+02  0.12537431891E+03  0.47000000000E+01 0. -1.
         -5    1    4    4    0  502  0.45243561926E+02  0.15567160168E+02  0.32473446745E+02  0.58016645154E+02  0.47000000000E+01 0. -1.
<mgrwt>
<rscale>  0 0.10001009E+04</rscale>
<asrwt>0</asrwt>
<pdfrwt beam="1">  1        2 0.73001417E-01 0.10001009E+04</pdfrwt>
<pdfrwt beam="2">  1       -2 0.81071771E-01 0.10001009E+04</pdfrwt>
<totfact> 0.10565645E+02</totfact>
</mgrwt>
</event>
<event>
 9    1  0.4246427E-036  0.9999057E+03  0.7818608E-02  0.8681128E-01
          2   -1    0    0  501    0  0.00000000000E+00  0.00000000000E+00  0.20740229820E+04  0.20740229820E+04  0.00000000000E+00 0. -1.
         -2   -1    0    0    0  501 -0.00000000000E+00 -0.00000000000E+00 -0.12051595759E+03  0.12051595759E+03  0.00000000000E+00 0. -1.
         36    2    1    2    0    0  0.00000000000E+00  0.28421709430E-13  0.19535070244E+04  0.21945389396E+04  0.99990572703E+03 0.  0.
         25    2    3    3    0    0 -0.93964571133E+02  0.79606234440E+02  0.21743438539E+03  0.27869246362E+03  0.12339077817E+03 0.  0.
         35    2    3    3    0    0  0.93964571133E+02 -0.79606234440E+02  0.17360726390E+04  0.19158464760E+04  0.80084518999E+03 0.  0.
         22    1    5    5    0    0  0.97930445892E+02  0.35578254880E+03  0.68302655815E+03  0.77633554177E+03  0.00000000000E+00 0. -1.
         22    1    5    5    0    0 -0.39658747589E+01 -0.43538878324E+03  0.10530460809E+04  0.11395109342E+04  0.00000000000E+00 0. -1.
          5    1    4    4  502    0 -0.55675302613E+02  0.18458842474E+02  0.10867607888E+02  0.59838642095E+02  0.47000000000E+01 0. -1.
         -5    1    4    4    0  502 -0.38289268520E+02  0.61147391966E+02  0.20656677751E+03  0.21885382153E+03  0.47000000000E+01 0. -1.
<mgrwt>
<rscale>  0 0.99990573E+03</rscale>
<asrwt>0</asrwt>
<pdfrwt beam="1">  1        2 0.31908043E+00 0.99990573E+03</pdfrwt>
<pdfrwt beam="2">  1       -2 0.18540918E-01 0.99990573E+03</pdfrwt>
<totfact> 0.17327528E+02</totfact>
</mgrwt>
</event>
<event>
 9    1  0.4246427E-036  0.1001586E+04  0.7818608E-02  0.8679529E-01
          2   -1    0    0  501    0  0.00000000000E+00  0.00000000000E+00  0.47892820996E+03  0.47892820996E+03  0.00000000000E+00 0.  1.
         -2   -1    0    0    0  501 -0.00000000000E+00 -0.00000000000E+00 -0.52365575653E+03  0.52365575653E+03  0.00000000000E+00 0.  1.
         36    2    1    2    0    0  0.14210854715E-13 -0.42632564146E-13 -0.44727546569E+02  0.10025839665E+04  0.10015857709E+04 0.  0.
         25    2    3    3    0    0  0.46069068474E+02  0.62019647636E+02  0.11086837162E+03  0.18431100746E+03  0.12533936286E+03 0.  0.
         35    2    3    3    0    0 -0.46069068474E+02 -0.62019647636E+02 -0.15559591819E+03  0.81827295902E+03  0.79961975335E+03 0.  0.
         22    1    5    5    0    0  0.49814856754E+02  0.33311992886E+03 -0.22599652986E+03  0.40561661513E+03  0.00000000000E+00 0.  1.
         22    1    5    5    0    0 -0.95883925228E+02 -0.39513957650E+03  0.70400611670E+02  0.41265634389E+03  0.00000000000E+00 0.  1.
          5    1    4    4  502    0  0.67115942823E+02  0.89704083045E+02  0.85481343755E+02  0.14099830647E+03  0.47000000000E+01 0.  1.
         -5    1    4    4    0  502 -0.21046874349E+02 -0.27684435409E+02  0.25387027867E+02  0.43312700997E+02  0.47000000000E+01 0.  1.
<mgrwt>
<rscale>  0 0.10015858E+04</rscale>
<asrwt>0</asrwt>
<pdfrwt beam="1">  1        2 0.73681263E-01 0.10015858E+04</pdfrwt>
<pdfrwt beam="2">  1       -2 0.80562424E-01 0.10015858E+04</pdfrwt>
<totfact> 0.10606982E+02</totfact>
</mgrwt>
</event>
<event>
 9    1  0.4246427E-036  0.1000197E+04  0.7818608E-02  0.8680851E-01
         -2   -1    0    0    0  501 -0.00000000000E+00  0.00000000000E+00  0.70586871082E+03  0.70586871082E+03  0.00000000000E+00 0.  1.
          2   -1    0    0  501    0  0.00000000000E+00 -0.00000000000E+00 -0.35431289178E+03  0.35431289178E+03  0.00000000000E+00 0.  1.
         36    2    1    2    0    0 -0.28421709430E-13 -0.71054273576E-14  0.35155581904E+03  0.10601816026E+04  0.10001967489E+04 0.  0.
         25    2    3    3    0    0 -0.33083725532E+02  0.58294740060E+02 -0.55279012552E+02  0.15255891374E+03  0.12540192710E+03 0.  0.
         35    2    3    3    0    0  0.33083725532E+02 -0.58294740060E+02  0.40683483159E+03  0.90762268886E+03  0.80856141110E+03 0.  0.
         22    1    5    5    0    0  0.27802106674E+03  0.11611561608E+03 -0.10072185673E+03  0.31768450115E+03  0.00000000000E+00 0. -1.
         22    1    5    5    0    0 -0.24493734121E+03 -0.17441035614E+03  0.50755668832E+03  0.58993818770E+03  0.00000000000E+00 0. -1.
          5    1    4    4  502    0  0.47096136725E+02  0.18711630955E+02 -0.87212736336E+01  0.51636439083E+02  0.47000000000E+01 0.  1.
         -5    1    4    4    0  502 -0.80179862257E+02  0.39583109106E+02 -0.46557738918E+02  0.10092247466E+03  0.47000000000E+01 0.  1.
<mgrwt>
<rscale>  0 0.10001967E+04</rscale>
<asrwt>0</asrwt>
<pdfrwt beam="1">  1        2 0.54509676E-01 0.10001967E+04</pdfrwt>
<pdfrwt beam="2">  1       -2 0.10859519E+00 0.10001967E+04</pdfrwt>
<totfact> 0.72898638E+01</totfact>
</mgrwt>
</event>
<event>
 9    1  0.4246427E-036  0.1000023E+04  0.7818608E-02  0.8681016E-01
         -2   -1    0    0    0  501 -0.00000000000E+00  0.00000000000E+00  0.17687909771E+03  0.17687909771E+03  0.00000000000E+00 0.  1.
          2   -1    0    0  501    0  0.00000000000E+00 -0.00000000000E+00 -0.14134610033E+04  0.14134610033E+04  0.00000000000E+00 0.  1.
         36    2    1    2    0    0  0.28421709430E-13  0.00000000000E+00 -0.12365819056E+04  0.15903401010E+04  0.10000234135E+04 0.  0.
         25    2    3    3    0    0 -0.10929542989E+03 -0.84051197303E+02 -0.27676982109E+03  0.33339156202E+03  0.12465273763E+03 0.  0.
         35    2    3    3    0    0  0.10929542989E+03  0.84051197303E+02 -0.95981208449E+03  0.12569485390E+04  0.79979390929E+03 0.  0.
         22    1    5    5    0    0  0.34337728364E+03 -0.14550199667E+03 -0.18641286734E+03  0.41692750816E+03  0.00000000000E+00 0. -1.
         22    1    5    5    0    0 -0.23408185375E+03  0.22955319397E+03 -0.77339921715E+03  0.84002103081E+03  0.00000000000E+00 0. -1.
          5    1    4    4  502    0 -0.10904849863E+03 -0.77500510605E+01 -0.16355181117E+03  0.19678140990E+03  0.47000000000E+01 0.  1.
         -5    1    4    4    0  502 -0.24693125945E+00 -0.76301146242E+02 -0.11321800991E+03  0.13661015212E+03  0.47000000000E+01 0.  1.
<mgrwt>
<rscale>  0 0.10000234E+04</rscale>
<asrwt>0</asrwt>
<pdfrwt beam="1">  1        2 0.21745553E+00 0.10000234E+04</pdfrwt>
<pdfrwt beam="2">  1       -2 0.27212170E-01 0.10000234E+04</pdfrwt>
<totfact> 0.20921651E+02</totfact>
</mgrwt>
</event>
<event>
 9    1  0.4246427E-036  0.1000354E+04  0.7818608E-02  0.8680701E-01
         -2   -1    0    0    0  501 -0.00000000000E+00  0.00000000000E+00  0.10472185716E+03  0.10472185716E+03  0.00000000000E+00 0. -1.
          2   -1    0    0  501    0  0.00000000000E+00 -0.00000000000E+00 -0.23889644831E+04  0.23889644831E+04  0.00000000000E+00 0. -1.
         36    2    1    2    0    0 -0.14210854715E-13 -0.71054273576E-14 -0.22842426260E+04  0.24936863403E+04  0.10003535322E+04 0.  0.
         25    2    3    3    0    0 -0.10056287171E+03  0.13437983000E+02 -0.19238805280E+03  0.25087609073E+03  0.12502871464E+03 0.  0.
         35    2    3    3    0    0  0.10056287171E+03 -0.13437983000E+02 -0.20918545732E+04  0.22428102496E+04  0.80252650406E+03 0.  0.
         22    1    5    5    0    0  0.27331737607E+03  0.60202259691E+02 -0.20238070610E+04  0.20430667440E+04  0.00000000000E+00 0.  1.
         22    1    5    5    0    0 -0.17275450435E+03 -0.73640242691E+02 -0.68047512167E+02  0.19974350560E+03  0.00000000000E+00 0.  1.
          5    1    4    4  502    0 -0.61978401839E+02  0.15993029676E+02 -0.10709295589E+02  0.65068258811E+02  0.47000000000E+01 0.  1.
         -5    1    4    4    0  502 -0.38584469874E+02 -0.25550466761E+01 -0.18167875721E+03  0.18580783192E+03  0.47000000000E+01 0.  1.
<mgrwt>
<rscale>  0 0.10003535E+04</rscale>
<asrwt>0</asrwt>
<pdfrwt beam="1">  1        2 0.36753296E+00 0.10003535E+04</pdfrwt>
<pdfrwt beam="2">  1       -2 0.16111056E-01 0.10003535E+04</pdfrwt>
<totfact> 0.14405381E+02</totfact>
</mgrwt>
</event>
<event>
 9    1  0.4246427E-036  0.9985099E+03  0.7818608E-02  0.8682458E-01
         -4   -1    0    0    0  501 -0.00000000000E+00  0.00000000000E+00  0.23934465380E+04  0.23934465380E+04  0.00000000000E+00 0. -1.
          4   -1    0    0  501    0  0.00000000000E+00 -0.00000000000E+00 -0.10414081931E+03  0.10414081931E+03  0.00000000000E+00 0. -1.
         36    2    1    2    0    0  0.00000000000E+00  0.00000000000E+00  0.22893057186E+04  0.24975873573E+04  0.99850985663E+03 0.  0.
         25    2    3    3    0    0  0.12184909022E+03  0.62657151902E+02  0.36494018644E+03  0.40946690933E+03  0.12533431569E+03 0.  0.
         35    2    3    3    0    0 -0.12184909022E+03 -0.62657151902E+02  0.19243655322E+04  0.20881204479E+04  0.79893127620E+03 0.  0.
         22    1    5    5    0    0 -0.65652946287E+01 -0.47855738707E+02  0.19645470581E+04  0.19651408139E+04  0.00000000000E+00 0. -1.
         22    1    5    5    0    0 -0.11528379559E+03 -0.14801413195E+02 -0.40181525944E+02  0.12297963403E+03  0.00000000000E+00 0. -1.
          5    1    4    4  502    0 -0.47270455733E+01 -0.28441053823E+02  0.68693573377E+02  0.74646738212E+02  0.47000000000E+01 0. -1.
         -5    1    4    4    0  502  0.12657613579E+03  0.91098205725E+02  0.29624661306E+03  0.33482017112E+03  0.47000000000E+01 0. -1.
<mgrwt>
<rscale>  0 0.99850986E+03</rscale>
<asrwt>0</asrwt>
<pdfrwt beam="1">  1        4 0.16021666E-01 0.99850986E+03</pdfrwt>
<pdfrwt beam="2">  1       -4 0.36822250E+00 0.99850986E+03</pdfrwt>
<totfact> 0.62053624E-01</totfact>
</mgrwt>
</event>
<event>
 9    1  0.4246427E-036  0.9996597E+03  0.7818608E-02  0.8681362E-01
          2   -1    0    0  501    0  0.00000000000E+00  0.00000000000E+00  0.20035394000E+04  0.20035394000E+04  0.00000000000E+00 0.  1.
         -2   -1    0    0    0  501 -0.00000000000E+00 -0.00000000000E+00 -0.12469425627E+03  0.12469425627E+03  0.00000000000E+00 0.  1.
         36    2    1    2    0    0  0.00000000000E+00  0.00000000000E+00  0.18788451437E+04  0.21282336562E+04  0.99965965284E+03 0.  0.
         25    2    3    3    0    0 -0.12740321601E+02 -0.11741623597E+03  0.19461287411E+03  0.25967844036E+03  0.12493931869E+03 0.  0.
         35    2    3    3    0    0  0.12740321601E+02  0.11741623597E+03  0.16842322696E+04  0.18685552159E+04  0.80056940272E+03 0.  0.
         22    1    5    5    0    0  0.14509764723E+02  0.10241099891E+03 -0.63097323199E+02  0.12116029946E+03  0.00000000000E+00 0.  1.
         22    1    5    5    0    0 -0.17694431220E+01  0.15005237062E+02  0.17473295928E+04  0.17473949164E+04  0.00000000000E+00 0.  1.
          5    1    4    4  502    0 -0.62568763053E+02 -0.95668485552E+02  0.10815195173E+03  0.15743647576E+03  0.47000000000E+01 0.  1.
         -5    1    4    4    0  502  0.49828441453E+02 -0.21747750423E+02  0.86460922375E+02  0.10224196459E+03  0.47000000000E+01 0.  1.
<mgrwt>
<rscale>  0 0.99965965E+03</rscale>
<asrwt>0</asrwt>
<pdfrwt beam="1">  1        2 0.30823681E+00 0.99965965E+03</pdfrwt>
<pdfrwt beam="2">  1       -2 0.19183733E-01 0.99965965E+03</pdfrwt>
<totfact> 0.17930016E+02</totfact>
</mgrwt>
</event>
<event>
 9    1  0.4246427E-036  0.9994967E+03  0.7818608E-02  0.8681517E-01
          2   -1    0    0  501    0  0.00000000000E+00  0.00000000000E+00  0.16062385932E+04  0.16062385932E+04  0.00000000000E+00 0. -1.
         -2   -1    0    0    0  501 -0.00000000000E+00 -0.00000000000E+00 -0.15548650422E+03  0.15548650422E+03  0.00000000000E+00 0. -1.
         36    2    1    2    0    0  0.14210854715E-13  0.00000000000E+00  0.14507520890E+04  0.17617250974E+04  0.99949672096E+03 0.  0.
         25    2    3    3    0    0 -0.61728391685E+02 -0.12367243018E+03  0.24591075042E+03  0.30841629804E+03  0.12467257678E+03 0.  0.
         35    2    3    3    0    0  0.61728391685E+02  0.12367243018E+03  0.12048413386E+04  0.14533087994E+04  0.80084864420E+03 0.  0.
         22    1    5    5    0    0 -0.21185870461E+03  0.27254223591E+03  0.19488085399E+03  0.39641131206E+03  0.00000000000E+00 0.  1.
         22    1    5    5    0    0  0.27358709630E+03 -0.14886980574E+03  0.10099604846E+04  0.10568974873E+04  0.00000000000E+00 0.  1.
          5    1    4    4  502    0 -0.81577251103E+02 -0.13326000962E+03  0.17816073884E+03  0.23701564701E+03  0.47000000000E+01 0. -1.
         -5    1    4    4    0  502  0.19848859418E+02  0.95875794425E+01  0.67750011575E+02  0.71400651035E+02  0.47000000000E+01 0. -1.
<mgrwt>
<rscale>  0 0.99949672E+03</rscale>
<asrwt>0</asrwt>
<pdfrwt beam="1">  1        2 0.24711362E+00 0.99949672E+03</pdfrwt>
<pdfrwt beam="2">  1       -2 0.23921002E-01 0.99949672E+03</pdfrwt>
<totfact> 0.20465830E+02</totfact>
</mgrwt>
</event>
<event>
 9    1  0.4246427E-036  0.1000004E+04  0.7818608E-02  0.8681034E-01
         -4   -1    0    0    0  501 -0.00000000000E+00  0.00000000000E+00  0.59744593415E+03  0.59744593415E+03  0.00000000000E+00 0. -1.
          4   -1    0    0  501    0  0.00000000000E+00 -0.00000000000E+00 -0.41845107887E+03  0.41845107887E+03  0.00000000000E+00 0. -1.
         36    2    1    2    0    0  0.00000000000E+00 -0.71054273576E-14  0.17899485529E+03  0.10158970130E+04  0.10000037914E+04 0.  0.
         25    2    3    3    0    0  0.14047871221E+03 -0.13036330946E+02  0.35728716632E+02  0.19138222923E+03  0.12428355468E+03 0.  0.
         35    2    3    3    0    0 -0.14047871221E+03  0.13036330946E+02  0.14326613865E+03  0.82451478379E+03  0.79962192798E+03 0.  0.
         22    1    5    5    0    0 -0.12821729747E+02 -0.32908812302E+03  0.28230684422E+03  0.43377476156E+03  0.00000000000E+00 0. -1.
         22    1    5    5    0    0 -0.12765698246E+03  0.34212445397E+03 -0.13904070557E+03  0.39074002224E+03  0.00000000000E+00 0. -1.
          5    1    4    4  502    0  0.11707716006E+03  0.44202341124E+02  0.15699537251E+02  0.12621201939E+03  0.47000000000E+01 0.  1.
         -5    1    4    4    0  502  0.23401552147E+02 -0.57238672070E+02  0.20029179382E+02  0.65170209835E+02  0.47000000000E+01 0.  1.
<mgrwt>
<rscale>  0 0.10000038E+04</rscale>
<asrwt>0</asrwt>
<pdfrwt beam="1">  1        4 0.64377089E-01 0.10000038E+04</pdfrwt>
<pdfrwt beam="2">  1       -4 0.91914759E-01 0.10000038E+04</pdfrwt>
<totfact> 0.51471954E+00</totfact>
</mgrwt>
</event>
<event>
 9    1  0.4246427E-036  0.1000671E+04  0.7818608E-02  0.8680399E-01
          2   -1    0    0  501    0  0.00000000000E+00  0.00000000000E+00  0.67598256459E+03  0.67598256459E+03  0.00000000000E+00 0.  1.
         -2   -1    0    0    0  501 -0.00000000000E+00 -0.00000000000E+00 -0.37032883148E+03  0.37032883148E+03  0.00000000000E+00 0.  1.
         36    2    1    2    0    0  0.00000000000E+00 -0.35527136788E-14  0.30565373311E+03  0.10463113961E+04  0.10006714411E+04 0.  0.
         25    2    3    3    0    0  0.25462444238E+02  0.16036376283E+02  0.20102070070E+03  0.23798434347E+03  0.12378095248E+03 0.  0.
         35    2    3    3    0    0 -0.25462444238E+02 -0.16036376283E+02  0.10463303241E+03  0.80832705261E+03  0.80096132933E+03 0.  0.
         22    1    5    5    0    0  0.16175739280E+03 -0.16001379531E+03 -0.27765052504E+03  0.35897030917E+03  0.00000000000E+00 0.  1.
         22    1    5    5    0    0 -0.18721983704E+03  0.14397741902E+03  0.38228355745E+03  0.44935674343E+03  0.00000000000E+00 0.  1.
          5    1    4    4  502    0 -0.41137901893E+02  0.32607546648E+02  0.12388392803E+03  0.13462873652E+03  0.47000000000E+01 0. -1.
         -5    1    4    4    0  502  0.66600346131E+02 -0.16571170365E+02  0.77136772662E+02  0.10335560695E+03  0.47000000000E+01 0. -1.
<mgrwt>
<rscale>  0 0.10006714E+04</rscale>
<asrwt>0</asrwt>
<pdfrwt beam="1">  1        2 0.10399732E+00 0.10006714E+04</pdfrwt>
<pdfrwt beam="2">  1       -2 0.56973667E-01 0.10006714E+04</pdfrwt>
<totfact> 0.14965149E+02</totfact>
</mgrwt>
</event>
<event>
 9    1  0.4246427E-036  0.1001979E+04  0.7818608E-02  0.8679156E-01
          1   -1    0    0  501    0  0.00000000000E+00  0.00000000000E+00  0.90579915216E+03  0.90579915216E+03  0.00000000000E+00 0.  1.
         -1   -1    0    0    0  501 -0.00000000000E+00 -0.00000000000E+00 -0.27709275472E+03  0.27709275472E+03  0.00000000000E+00 0.  1.
         36    2    1    2    0    0 -0.14210854715E-13  0.14210854715E-13  0.62870639745E+03  0.11828919069E+04  0.10019788068E+04 0.  0.
         25    2    3    3    0    0  0.56282633611E+02 -0.11477080108E+03  0.49516469206E+02  0.18593418682E+03  0.12561675636E+03 0.  0.
         35    2    3    3    0    0 -0.56282633611E+02  0.11477080108E+03  0.57918992824E+03  0.99695772006E+03  0.80132618264E+03 0.  0.
         22    1    5    5    0    0 -0.11760922401E+02  0.22174144981E+03  0.75467908547E+03  0.78666899768E+03  0.00000000000E+00 0. -1.
         22    1    5    5    0    0 -0.44521711210E+02 -0.10697064872E+03 -0.17548915723E+03  0.21028872239E+03  0.00000000000E+00 0. -1.
          5    1    4    4  502    0 -0.21850360246E+02  0.52320989553E+01 -0.16412870214E+02  0.28218529569E+02  0.47000000000E+01 0. -1.
         -5    1    4    4    0  502  0.78132993857E+02 -0.12000290004E+03  0.65929339420E+02  0.15771565726E+03  0.47000000000E+01 0. -1.
<mgrwt>
<rscale>  0 0.10019788E+04</rscale>
<asrwt>0</asrwt>
<pdfrwt beam="1">  1        1 0.13935371E+00 0.10019788E+04</pdfrwt>
<pdfrwt beam="2">  1       -1 0.42629655E-01 0.10019788E+04</pdfrwt>
<totfact> 0.10997194E+02</totfact>
</mgrwt>
</event>
<event>
 9    1  0.4246427E-036  0.1000470E+04  0.7818608E-02  0.8680591E-01
          3   -1    0    0  501    0  0.00000000000E+00  0.00000000000E+00  0.18587387686E+04  0.18587387686E+04  0.00000000000E+00 0. -1.
         -3   -1    0    0    0  501 -0.00000000000E+00 -0.00000000000E+00 -0.13462622185E+03  0.13462622185E+03  0.00000000000E+00 0. -1.
         36    2    1    2    0    0  0.14210854715E-13  0.14210854715E-13  0.17241125467E+04  0.19933649904E+04  0.10004698453E+04 0.  0.
         25    2    3    3    0    0  0.93258741085E+02  0.32704340481E+02  0.52493746543E+03  0.54845680022E+03  0.12441363437E+03 0.  0.
         35    2    3    3    0    0 -0.93258741085E+02 -0.32704340481E+02  0.11991750813E+04  0.14449081902E+04  0.79998252222E+03 0.  0.
         22    1    5    5    0    0  0.78947327879E+02 -0.29849789771E+03  0.10507014975E+04  0.10951289022E+04  0.00000000000E+00 0.  1.
         22    1    5    5    0    0 -0.17220606896E+03  0.26579355723E+03  0.14847358378E+03  0.34977928803E+03  0.00000000000E+00 0.  1.
          5    1    4    4  502    0  0.97340460495E+02 -0.22675316038E+02  0.38605430259E+03  0.39880991682E+03  0.47000000000E+01 0.  1.
         -5    1    4    4    0  502 -0.40817194101E+01  0.55379656519E+02  0.13888316284E+03  0.14964688339E+03  0.47000000000E+01 0.  1.
<mgrwt>
<rscale>  0 0.10004698E+04</rscale>
<asrwt>0</asrwt>
<pdfrwt beam="1">  1        3 0.28595979E+00 0.10004698E+04</pdfrwt>
<pdfrwt beam="2">  1       -3 0.20711728E-01 0.10004698E+04</pdfrwt>
<totfact> 0.42611627E+00</totfact>
</mgrwt>
</event>
<event>
 9    1  0.4246427E-036  0.1000562E+04  0.7818608E-02  0.8680503E-01
          2   -1    0    0  501    0  0.00000000000E+00  0.00000000000E+00  0.84012249175E+03  0.84012249175E+03  0.00000000000E+00 0.  1.
         -2   -1    0    0    0  501 -0.00000000000E+00 -0.00000000000E+00 -0.29791021459E+03  0.29791021459E+03  0.00000000000E+00 0.  1.
         36    2    1    2    0    0  0.71054273576E-14 -0.28421709430E-13  0.54221227716E+03  0.11380327063E+04  0.10005619857E+04 0.  0.
         25    2    3    3    0    0 -0.30909409382E+02 -0.41253581428E+02  0.25660540302E+03  0.29022423341E+03  0.12540543542E+03 0.  0.
         35    2    3    3    0    0  0.30909409382E+02  0.41253581428E+02  0.28560687414E+03  0.84780847293E+03  0.79658688832E+03 0.  0.
         22    1    5    5    0    0 -0.78057315027E+02  0.36321189752E+03 -0.44294092374E+02  0.37413606289E+03  0.00000000000E+00 0. -1.
         22    1    5    5    0    0  0.10896672441E+03 -0.32195831610E+03  0.32990096651E+03  0.47367241005E+03  0.00000000000E+00 0. -1.
          5    1    4    4  502    0  0.37562419266E+02  0.19747793984E+02  0.99107964690E+02  0.10791380530E+03  0.47000000000E+01 0. -1.
         -5    1    4    4    0  502 -0.68471828648E+02 -0.61001375412E+02  0.15749743833E+03  0.18231042812E+03  0.47000000000E+01 0. -1.
<mgrwt>
<rscale>  0 0.10005620E+04</rscale>
<asrwt>0</asrwt>
<pdfrwt beam="1">  1        2 0.12924961E+00 0.10005620E+04</pdfrwt>
<pdfrwt beam="2">  1       -2 0.45832341E-01 0.10005620E+04</pdfrwt>
<totfact> 0.17617637E+02</totfact>
</mgrwt>
</event>
<event>
 9    1  0.4246427E-036  0.9999533E+03  0.7818608E-02  0.8681082E-01
          2   -1    0    0  501    0  0.00000000000E+00  0.00000000000E+00  0.20034642399E+04  0.20034642399E+04  0.00000000000E+00 0. -1.
         -2   -1    0    0    0  501 -0.00000000000E+00 -0.00000000000E+00 -0.12477221563E+03  0.12477221563E+03  0.00000000000E+00 0. -1.
         36    2    1    2    0    0  0.00000000000E+00  0.00000000000E+00  0.18786920243E+04  0.21282364556E+04  0.99995334322E+03 0.  0.
         25    2    3    3    0    0  0.20768897172E+02  0.10161914380E+03  0.54443562794E+03  0.56927585472E+03  0.13002710608E+03 0.  0.
         35    2    3    3    0    0 -0.20768897172E+02 -0.10161914380E+03  0.13342563964E+04  0.15589606009E+04  0.79960004146E+03 0.  0.
         22    1    5    5    0    0  0.13882531821E+03  0.29686551847E+03  0.85456044148E+03  0.91524595229E+03  0.00000000000E+00 0. -1.
         22    1    5    5    0    0 -0.15959421539E+03 -0.39848466227E+03  0.47969595489E+03  0.64371464857E+03  0.00000000000E+00 0. -1.
          5    1    4    4  502    0  0.33860784508E+02 -0.18913692291E+02  0.76932264425E+02  0.86284087717E+02  0.47000000000E+01 0.  1.
         -5    1    4    4    0  502 -0.13091887337E+02  0.12053283609E+03  0.46750336352E+03  0.48299176700E+03  0.47000000000E+01 0.  1.
<mgrwt>
<rscale>  0 0.99995334E+03</rscale>
<asrwt>0</asrwt>
<pdfrwt beam="1">  1        2 0.30822524E+00 0.99995334E+03</pdfrwt>
<pdfrwt beam="2">  1       -2 0.19195727E-01 0.99995334E+03</pdfrwt>
<totfact> 0.17912454E+02</totfact>
</mgrwt>
</event>
<event>
 9    1  0.4246427E-036  0.9997314E+03  0.7818608E-02  0.8681294E-01
         -1   -1    0    0    0  501 -0.00000000000E+00  0.00000000000E+00  0.18554874165E+03  0.18554874165E+03  0.00000000000E+00 0. -1.
          1   -1    0    0  501    0  0.00000000000E+00 -0.00000000000E+00 -0.13466312841E+04  0.13466312841E+04  0.00000000000E+00 0. -1.
         36    2    1    2    0    0 -0.14210854715E-13  0.00000000000E+00 -0.11610825425E+04  0.15321800258E+04  0.99973144440E+03 0.  0.
         25    2    3    3    0    0  0.72872034566E+02 -0.67265558695E+02 -0.68062668337E+02  0.17396653455E+03  0.12568547854E+03 0.  0.
         35    2    3    3    0    0 -0.72872034566E+02  0.67265558695E+02 -0.10930198741E+04  0.13582134912E+04  0.80013527210E+03 0.  0.
         22    1    5    5    0    0 -0.16037399338E+03  0.12664416832E+03  0.49947488932E+02  0.21036471846E+03  0.00000000000E+00 0. -1.
         22    1    5    5    0    0  0.87501958813E+02 -0.59378609626E+02 -0.11429673631E+04  0.11478487728E+04  0.00000000000E+00 0. -1.
          5    1    4    4  502    0  0.71338159723E+02 -0.10050103339E+03 -0.66976281182E+02  0.14034779295E+03  0.47000000000E+01 0.  1.
         -5    1    4    4    0  502  0.15338748428E+01  0.33235474692E+02 -0.10863871553E+01  0.33618741605E+02  0.47000000000E+01 0.  1.
<mgrwt>
<rscale>  0 0.99973144E+03</rscale>
<asrwt>0</asrwt>
<pdfrwt beam="1">  1        1 0.20717405E+00 0.99973144E+03</pdfrwt>
<pdfrwt beam="2">  1       -1 0.28545959E-01 0.99973144E+03</pdfrwt>
<totfact> 0.10176289E+02</totfact>
</mgrwt>
</event>
<event>
 9    1  0.4246427E-036  0.9998739E+03  0.7818608E-02  0.8681158E-01
         -2   -1    0    0    0  501 -0.00000000000E+00  0.00000000000E+00  0.31120022976E+03  0.31120022976E+03  0.00000000000E+00 0.  1.
          2   -1    0    0  501    0  0.00000000000E+00 -0.00000000000E+00 -0.80313866723E+03  0.80313866723E+03  0.00000000000E+00 0.  1.
         36    2    1    2    0    0  0.00000000000E+00  0.00000000000E+00 -0.49193843748E+03  0.11143388970E+04  0.99987386758E+03 0.  0.
         25    2    3    3    0    0  0.29929921098E+02 -0.35352559657E+02  0.55769992156E+02  0.14357471895E+03  0.12392660830E+03 0.  0.
         35    2    3    3    0    0 -0.29929921098E+02  0.35352559657E+02 -0.54770842964E+03  0.97076417804E+03  0.80015808552E+03 0.  0.
         22    1    5    5    0    0 -0.31380023549E+03 -0.62030106381E+02 -0.58660001614E+03  0.66814511959E+03  0.00000000000E+00 0. -1.
         22    1    5    5    0    0  0.28387031439E+03  0.97382666038E+02  0.38891586507E+02  0.30261905845E+03  0.00000000000E+00 0. -1.
          5    1    4    4  502    0 -0.22318893916E+02  0.35622595951E+02  0.29218243290E+02  0.51409124762E+02  0.47000000000E+01 0.  1.
         -5    1    4    4    0  502  0.52248815014E+02 -0.70975155608E+02  0.26551748867E+02  0.92165594186E+02  0.47000000000E+01 0.  1.
<mgrwt>
<rscale>  0 0.99987387E+03</rscale>
<asrwt>0</asrwt>
<pdfrwt beam="1">  1        2 0.12355979E+00 0.99987387E+03</pdfrwt>
<pdfrwt beam="2">  1       -2 0.47876959E-01 0.99987387E+03</pdfrwt>
<totfact> 0.17142862E+02</totfact>
</mgrwt>
</event>
<event>
 9    1  0.4246427E-036  0.1000030E+04  0.7818608E-02  0.8681009E-01
          1   -1    0    0  501    0  0.00000000000E+00  0.00000000000E+00  0.27977554119E+03  0.27977554119E+03  0.00000000000E+00 0.  1.
         -1   -1    0    0    0  501 -0.00000000000E+00 -0.00000000000E+00 -0.89362775573E+03  0.89362775573E+03  0.00000000000E+00 0.  1.
         36    2    1    2    0    0 -0.14210854715E-13 -0.42632564146E-13 -0.61385221454E+03  0.11734032969E+04  0.10000303775E+04 0.  0.
         25    2    3    3    0    0 -0.12304125536E+03  0.33659906454E+01 -0.19835552414E+03  0.26434673684E+03  0.12403145935E+03 0.  0.
         35    2    3    3    0    0  0.12304125536E+03 -0.33659906454E+01 -0.41549669040E+03  0.90905656007E+03  0.79912192390E+03 0.  0.
         22    1    5    5    0    0  0.31193566674E+03  0.30079152597E+03 -0.13391487861E+03  0.45355550596E+03  0.00000000000E+00 0.  1.
         22    1    5    5    0    0 -0.18889441137E+03 -0.30415751661E+03 -0.28158181179E+03  0.45550105411E+03  0.00000000000E+00 0.  1.
          5    1    4    4  502    0 -0.78108541122E+02  0.10269265209E+02 -0.21663838132E+02  0.81840172817E+02  0.47000000000E+01 0.  1.
         -5    1    4    4    0  502 -0.44932714241E+02 -0.69032745638E+01 -0.17669168601E+03  0.18250656403E+03  0.47000000000E+01 0.  1.
<mgrwt>
<rscale>  0 0.10000304E+04</rscale>
<asrwt>0</asrwt>
<pdfrwt beam="1">  1        1 0.43042391E-01 0.10000304E+04</pdfrwt>
<pdfrwt beam="2">  1       -1 0.13748119E+00 0.10000304E+04</pdfrwt>
<totfact> 0.50264551E+01</totfact>
</mgrwt>
</event>
<event>
 9    1  0.4246427E-036  0.1002919E+04  0.7818608E-02  0.8678263E-01
          2   -1    0    0  501    0  0.00000000000E+00  0.00000000000E+00  0.23258366216E+04  0.23258366216E+04  0.00000000000E+00 0.  1.
         -2   -1    0    0    0  501 -0.00000000000E+00 -0.00000000000E+00 -0.10811658411E+03  0.10811658411E+03  0.00000000000E+00 0.  1.
         36    2    1    2    0    0  0.28421709430E-13  0.14210854715E-13  0.22177200375E+04  0.24339532058E+04  0.10029187619E+04 0.  0.
         25    2    3    3    0    0  0.64971365694E+02  0.10959748481E+03  0.26859846970E+03  0.32259936258E+03  0.12526900563E+03 0.  0.
         35    2    3    3    0    0 -0.64971365694E+02 -0.10959748481E+03  0.19491215678E+04  0.21113538432E+04  0.80156551691E+03 0.  0.
         22    1    5    5    0    0 -0.33001259264E+03  0.13830055899E+03  0.14545756445E+04  0.14979404732E+04  0.00000000000E+00 0. -1.
         22    1    5    5    0    0  0.26504122694E+03 -0.24789804380E+03  0.49454592336E+03  0.61341336993E+03  0.00000000000E+00 0. -1.
          5    1    4    4  502    0  0.87912715663E+02  0.78702555007E+02  0.25585438979E+03  0.28179122860E+03  0.47000000000E+01 0. -1.
         -5    1    4    4    0  502 -0.22941349969E+02  0.30894929801E+02  0.12744079911E+02  0.40808133976E+02  0.47000000000E+01 0. -1.
<mgrwt>
<rscale>  0 0.10029188E+04</rscale>
<asrwt>0</asrwt>
<pdfrwt beam="1">  1        2 0.35782098E+00 0.10029188E+04</pdfrwt>
<pdfrwt beam="2">  1       -2 0.16633322E-01 0.10029188E+04</pdfrwt>
<totfact> 0.14880069E+02</totfact>
</mgrwt>
</event>
<event>
 9    1  0.4246427E-036  0.9974296E+03  0.7818608E-02  0.8683490E-01
          2   -1    0    0  501    0  0.00000000000E+00  0.00000000000E+00  0.18868139326E+04  0.18868139326E+04  0.00000000000E+00 0.  1.
         -2   -1    0    0    0  501 -0.00000000000E+00 -0.00000000000E+00 -0.13181821023E+03  0.13181821023E+03  0.00000000000E+00 0.  1.
         36    2    1    2    0    0  0.00000000000E+00 -0.14210854715E-13  0.17549957224E+04  0.20186321429E+04  0.99742956770E+03 0.  0.
         25    2    3    3    0    0  0.10311770684E+03  0.91588831205E+02  0.34506327924E+03  0.39160618647E+03  0.12355145946E+03 0.  0.
         35    2    3    3    0    0 -0.10311770684E+03 -0.91588831205E+02  0.14099324432E+04  0.16270259564E+04  0.80017635119E+03 0.  0.
         22    1    5    5    0    0 -0.20315757252E+03 -0.25572363009E+03  0.13966718105E+04  0.14343499296E+04  0.00000000000E+00 0. -1.
         22    1    5    5    0    0  0.10003986568E+03  0.16413479889E+03  0.13260632682E+02  0.19267602682E+03  0.00000000000E+00 0. -1.
          5    1    4    4  502    0  0.28614970553E+02  0.52968035449E+02  0.27685057126E+03  0.28335976800E+03  0.47000000000E+01 0.  1.
         -5    1    4    4    0  502  0.74502736291E+02  0.38620795756E+02  0.68212707981E+02  0.10824641846E+03  0.47000000000E+01 0.  1.
<mgrwt>
<rscale>  0 0.99742957E+03</rscale>
<asrwt>0</asrwt>
<pdfrwt beam="1">  1        2 0.29027905E+00 0.99742957E+03</pdfrwt>
<pdfrwt beam="2">  1       -2 0.20279726E-01 0.99742957E+03</pdfrwt>
<totfact> 0.18974981E+02</totfact>
</mgrwt>
</event>
<event>
 9    1  0.4246427E-036  0.1002399E+04  0.7818608E-02  0.8678757E-01
         -1   -1    0    0    0  501 -0.00000000000E+00  0.00000000000E+00  0.11810760545E+03  0.11810760545E+03  0.00000000000E+00 0.  1.
          1   -1    0    0  501    0  0.00000000000E+00 -0.00000000000E+00 -0.21268813668E+04  0.21268813668E+04  0.00000000000E+00 0.  1.
         36    2    1    2    0    0  0.28421709430E-13  0.53290705182E-14 -0.20087737613E+04  0.22449889722E+04  0.10023988534E+04 0.  0.
         25    2    3    3    0    0 -0.14078535181E+03 -0.52325276404E+01 -0.43307477487E+03  0.47217401580E+03  0.12468618985E+03 0.  0.
         35    2    3    3    0    0  0.14078535181E+03  0.52325276404E+01 -0.15756989865E+04  0.17728149564E+04  0.80012353997E+03 0.  0.
         22    1    5    5    0    0  0.11240976864E+03  0.38169908825E+03 -0.54236721558E+03  0.67267551360E+03  0.00000000000E+00 0.  1.
         22    1    5    5    0    0  0.28375583168E+02 -0.37646656061E+03 -0.10333317709E+04  0.11001394428E+04  0.00000000000E+00 0.  1.
          5    1    4    4  502    0  0.20134855381E+02  0.13373488496E+02 -0.39595278976E+02  0.46627660385E+02  0.47000000000E+01 0. -1.
         -5    1    4    4    0  502 -0.16092020719E+03 -0.18606016137E+02 -0.39347949589E+03  0.42554635541E+03  0.47000000000E+01 0. -1.
<mgrwt>
<rscale>  0 0.10023989E+04</rscale>
<asrwt>0</asrwt>
<pdfrwt beam="1">  1        1 0.32721248E+00 0.10023989E+04</pdfrwt>
<pdfrwt beam="2">  1       -1 0.18170403E-01 0.10023989E+04</pdfrwt>
<totfact> 0.60766803E+01</totfact>
</mgrwt>
</event>
<event>
 9    1  0.4246427E-036  0.1000333E+04  0.7818608E-02  0.8680721E-01
         -2   -1    0    0    0  501 -0.00000000000E+00  0.00000000000E+00  0.20864543195E+03  0.20864543195E+03  0.00000000000E+00 0. -1.
          2   -1    0    0  501    0  0.00000000000E+00 -0.00000000000E+00 -0.11990035077E+04  0.11990035077E+04  0.00000000000E+00 0. -1.
         36    2    1    2    0    0  0.28421709430E-13  0.00000000000E+00 -0.99035807574E+03  0.14076489396E+04  0.10003331540E+04 0.  0.
         25    2    3    3    0    0  0.13251093835E+03  0.38911072821E+02 -0.23295202178E+03  0.29693755286E+03  0.12178688548E+03 0.  0.
         35    2    3    3    0    0 -0.13251093835E+03 -0.38911072821E+02 -0.75740605396E+03  0.11107113868E+04  0.80058892933E+03 0.  0.
         22    1    5    5    0    0  0.10018264816E+03 -0.37792645147E+03 -0.28151573093E+03  0.48178425926E+03  0.00000000000E+00 0.  1.
         22    1    5    5    0    0 -0.23269358652E+03  0.33901537865E+03 -0.47589032302E+03  0.62892712751E+03  0.00000000000E+00 0.  1.
          5    1    4    4  502    0  0.10162142768E+03  0.62516426844E+02 -0.92252217053E+02  0.15088995905E+03  0.47000000000E+01 0. -1.
         -5    1    4    4    0  502  0.30889510671E+02 -0.23605354023E+02 -0.14069980473E+03  0.14604759382E+03  0.47000000000E+01 0. -1.
<mgrwt>
<rscale>  0 0.10003332E+04</rscale>
<asrwt>0</asrwt>
<pdfrwt beam="1">  1        2 0.18446208E+00 0.10003332E+04</pdfrwt>
<pdfrwt beam="2">  1       -2 0.32099297E-01 0.10003332E+04</pdfrwt>
<totfact> 0.20628985E+02</totfact>
</mgrwt>
</event>
<event>
 9    1  0.4246427E-036  0.1000193E+04  0.7818608E-02  0.8680854E-01
          2   -1    0    0  501    0  0.00000000000E+00  0.00000000000E+00  0.51572723075E+03  0.51572723075E+03  0.00000000000E+00 0.  1.
         -2   -1    0    0    0  501 -0.00000000000E+00 -0.00000000000E+00 -0.48493996779E+03  0.48493996779E+03  0.00000000000E+00 0.  1.
         36    2    1    2    0    0  0.71054273576E-14  0.28421709430E-13  0.30787262955E+02  0.10006671985E+04  0.10001934746E+04 0.  0.
         25    2    3    3    0    0  0.49828761089E+02  0.12552139567E+03  0.43535972588E+02  0.18926297606E+03  0.12524602588E+03 0.  0.
         35    2    3    3    0    0 -0.49828761089E+02 -0.12552139567E+03 -0.12748709634E+02  0.81140422248E+03  0.79998484764E+03 0.  0.
         22    1    5    5    0    0  0.56731351221E+02  0.32263028182E+03  0.89416504543E+02  0.33956450970E+03  0.00000000000E+00 0. -1.
         22    1    5    5    0    0 -0.10656011231E+03 -0.44815167749E+03 -0.10216521418E+03  0.47183971278E+03  0.00000000000E+00 0. -1.
          5    1    4    4  502    0 -0.31496492320E+02  0.47534520492E+02  0.50445056805E+02  0.76278132009E+02  0.47000000000E+01 0. -1.
         -5    1    4    4    0  502  0.81325253409E+02  0.77986875174E+02 -0.69090842165E+01  0.11298484406E+03  0.47000000000E+01 0. -1.
<mgrwt>
<rscale>  0 0.10001935E+04</rscale>
<asrwt>0</asrwt>
<pdfrwt beam="1">  1        2 0.79342651E-01 0.10001935E+04</pdfrwt>
<pdfrwt beam="2">  1       -2 0.74606149E-01 0.10001935E+04</pdfrwt>
<totfact> 0.11593159E+02</totfact>
</mgrwt>
</event>
<event>
 9    1  0.4246427E-036  0.1000298E+04  0.7818608E-02  0.8680755E-01
          2   -1    0    0  501    0  0.00000000000E+00  0.00000000000E+00  0.99948137399E+03  0.99948137399E+03  0.00000000000E+00 0. -1.
         -2   -1    0    0    0  501 -0.00000000000E+00 -0.00000000000E+00 -0.25027861641E+03  0.25027861641E+03  0.00000000000E+00 0. -1.
         36    2    1    2    0    0  0.42632564146E-13 -0.14210854715E-13  0.74920275758E+03  0.12497599904E+04  0.10002975865E+04 0.  0.
         25    2    3    3    0    0  0.34223646378E+02  0.20584486177E+02 -0.29176496723E+02  0.13114344697E+03  0.12145927993E+03 0.  0.
         35    2    3    3    0    0 -0.34223646378E+02 -0.20584486177E+02  0.77837925431E+03  0.11186165434E+04  0.80239250285E+03 0.  0.
         22    1    5    5    0    0 -0.30674121607E+03 -0.28273907572E+03  0.48690748541E+03  0.64117895936E+03  0.00000000000E+00 0.  1.
         22    1    5    5    0    0  0.27251756969E+03  0.26215458954E+03  0.29147176890E+03  0.47743758406E+03  0.00000000000E+00 0.  1.
          5    1    4    4  502    0 -0.40546083918E+02 -0.15304252403E+02 -0.16208716625E+01  0.43622497494E+02  0.47000000000E+01 0.  1.
         -5    1    4    4    0  502  0.74769730296E+02  0.35888738580E+02 -0.27555625060E+02  0.87520949479E+02  0.47000000000E+01 0.  1.
<mgrwt>
<rscale>  0 0.10002976E+04</rscale>
<asrwt>0</asrwt>
<pdfrwt beam="1">  1        2 0.15376636E+00 0.10002976E+04</pdfrwt>
<pdfrwt beam="2">  1       -2 0.38504403E-01 0.10002976E+04</pdfrwt>
<totfact> 0.19412932E+02</totfact>
</mgrwt>
</event>
<event>
 9    1  0.4246427E-036  0.1000107E+04  0.7818608E-02  0.8680936E-01
         -1   -1    0    0    0  501 -0.00000000000E+00  0.00000000000E+00  0.12182250375E+03  0.12182250375E+03  0.00000000000E+00 0.  1.
          1   -1    0    0  501    0  0.00000000000E+00 -0.00000000000E+00 -0.20526053924E+04  0.20526053924E+04  0.00000000000E+00 0.  1.
         36    2    1    2    0    0  0.00000000000E+00  0.00000000000E+00 -0.19307828886E+04  0.21744278961E+04  0.10001070505E+04 0.  0.
         25    2    3    3    0    0 -0.63524002134E+02 -0.62255462238E+02 -0.59493603856E+03  0.61458977343E+03  0.12593910513E+03 0.  0.
         35    2    3    3    0    0  0.63524002134E+02  0.62255462238E+02 -0.13358468501E+04  0.15598381227E+04  0.80043558189E+03 0.  0.
         22    1    5    5    0    0 -0.24795047570E+03 -0.20436399858E+03 -0.27646285767E+03  0.42388181606E+03  0.00000000000E+00 0.  1.
         22    1    5    5    0    0  0.31147447784E+03  0.26661946082E+03 -0.10593839924E+04  0.11359563066E+04  0.00000000000E+00 0.  1.
          5    1    4    4  502    0 -0.90092454844E+02 -0.24831814953E+02 -0.25670423516E+03  0.27322595741E+03  0.47000000000E+01 0.  1.
         -5    1    4    4    0  502  0.26568452710E+02 -0.37423647285E+02 -0.33823180340E+03  0.34136381602E+03  0.47000000000E+01 0.  1.
<mgrwt>
<rscale>  0 0.10001071E+04</rscale>
<asrwt>0</asrwt>
<pdfrwt beam="1">  1        1 0.31578544E+00 0.10001071E+04</pdfrwt>
<pdfrwt beam="2">  1       -1 0.18741924E-01 0.10001071E+04</pdfrwt>
<totfact> 0.65122546E+01</totfact>
</mgrwt>
</event>
<event>
 9    1  0.4246427E-036  0.1000709E+04  0.7818608E-02  0.8680363E-01
          2   -1    0    0  501    0  0.00000000000E+00  0.00000000000E+00  0.11316601372E+04  0.11316601372E+04  0.00000000000E+00 0. -1.
         -2   -1    0    0    0  501 -0.00000000000E+00 -0.00000000000E+00 -0.22122793467E+03  0.22122793467E+03  0.00000000000E+00 0. -1.
         36    2    1    2    0    0  0.00000000000E+00  0.28421709430E-13  0.91043220249E+03  0.13528880718E+04  0.10007094182E+04 0.  0.
         25    2    3    3    0    0 -0.56168858622E+02  0.12859088863E+03  0.20088907862E+03  0.27483057810E+03  0.12443820729E+03 0.  0.
         35    2    3    3    0    0  0.56168858622E+02 -0.12859088863E+03  0.70954312387E+03  0.10780574937E+04  0.79941601051E+03 0.  0.
         22    1    5    5    0    0 -0.40658074402E+02  0.32947202255E+03  0.20700843184E+03  0.39122548934E+03  0.00000000000E+00 0. -1.
         22    1    5    5    0    0  0.96826933025E+02 -0.45806291119E+03  0.50253469203E+03  0.68683200439E+03  0.00000000000E+00 0. -1.
          5    1    4    4  502    0  0.83950435554E+01 -0.15977551459E+02  0.60025028617E+02  0.62855810928E+02  0.47000000000E+01 0.  1.
         -5    1    4    4    0  502 -0.64563902178E+02  0.14456844009E+03  0.14086405000E+03  0.21197476717E+03  0.47000000000E+01 0.  1.
<mgrwt>
<rscale>  0 0.10007094E+04</rscale>
<asrwt>0</asrwt>
<pdfrwt beam="1">  1        2 0.17410156E+00 0.10007094E+04</pdfrwt>
<pdfrwt beam="2">  1       -2 0.34035068E-01 0.10007094E+04</pdfrwt>
<totfact> 0.20304637E+02</totfact>
</mgrwt>
</event>
<event>
 9    1  0.4246427E-036  0.1000185E+04  0.7818608E-02  0.8680862E-01
          3   -1    0    0  501    0  0.00000000000E+00  0.00000000000E+00  0.26285334906E+04  0.26285334906E+04  0.00000000000E+00 0.  1.
         -3   -1    0    0    0  501 -0.00000000000E+00 -0.00000000000E+00 -0.95145234181E+02  0.95145234181E+02  0.00000000000E+00 0.  1.
         36    2    1    2    0    0  0.00000000000E+00 -0.14210854715E-13  0.25333882564E+04  0.27236787248E+04  0.10001848519E+04 0.  0.
         25    2    3    3    0    0 -0.12629966737E+03 -0.62345017922E+02  0.48297567226E+03  0.51820612022E+03  0.12423194355E+03 0.  0.
         35    2    3    3    0    0  0.12629966737E+03  0.62345017922E+02  0.20504125841E+04  0.22054726045E+04  0.80004945907E+03 0.  0.
         22    1    5    5    0    0 -0.13561044459E+02  0.24727619754E+03  0.19269286776E+04  0.19427772770E+04  0.00000000000E+00 0. -1.
         22    1    5    5    0    0  0.13986071183E+03 -0.18493117962E+03  0.12348390659E+03  0.26269532751E+03  0.00000000000E+00 0. -1.
          5    1    4    4  502    0 -0.37205714064E+02 -0.25650684826E+02  0.28564624756E+02  0.53667966036E+02  0.47000000000E+01 0.  1.
         -5    1    4    4    0  502 -0.89093953309E+02 -0.36694333097E+02  0.45441104750E+03  0.46453815418E+03  0.47000000000E+01 0.  1.
<mgrwt>
<rscale>  0 0.10001849E+04</rscale>
<asrwt>0</asrwt>
<pdfrwt beam="1">  1        3 0.40438971E+00 0.10001849E+04</pdfrwt>
<pdfrwt beam="2">  1       -3 0.14637730E-01 0.10001849E+04</pdfrwt>
<totfact> 0.34067588E+00</totfact>
</mgrwt>
</event>
<event>
 9    1  0.4246427E-036  0.9996361E+03  0.7818608E-02  0.8681385E-01
         -2   -1    0    0    0  501 -0.00000000000E+00  0.00000000000E+00  0.11582126139E+03  0.11582126139E+03  0.00000000000E+00 0. -1.
          2   -1    0    0  501    0  0.00000000000E+00 -0.00000000000E+00 -0.21569276714E+04  0.21569276714E+04  0.00000000000E+00 0. -1.
         36    2    1    2    0    0  0.00000000000E+00 -0.14210854715E-13 -0.20411064101E+04  0.22727489328E+04  0.99963610104E+03 0.  0.
         25    2    3    3    0    0  0.97569770167E+02  0.62357165123E+02 -0.21016415644E+03  0.27040204822E+03  0.12465961228E+03 0.  0.
         35    2    3    3    0    0 -0.97569770167E+02 -0.62357165123E+02 -0.18309422536E+04  0.20023468846E+04  0.80226880417E+03 0.  0.
         22    1    5    5    0    0  0.12360674560E+03 -0.76652457381E+02  0.12172837420E+02  0.14595343351E+03  0.00000000000E+00 0.  1.
         22    1    5    5    0    0 -0.22117651577E+03  0.14295292258E+02 -0.18431150910E+04  0.18563934511E+04  0.00000000000E+00 0.  1.
          5    1    4    4  502    0  0.42983682237E+02 -0.36120472099E+02 -0.85040829049E+02  0.10201136235E+03  0.47000000000E+01 0. -1.
         -5    1    4    4    0  502  0.54586087930E+02  0.98477637222E+02 -0.12512332739E+03  0.16839068587E+03  0.47000000000E+01 0. -1.
<mgrwt>
<rscale>  0 0.99963610E+03</rscale>
<asrwt>0</asrwt>
<pdfrwt beam="1">  1        2 0.33183501E+00 0.99963610E+03</pdfrwt>
<pdfrwt beam="2">  1       -2 0.17818656E-01 0.99963610E+03</pdfrwt>
<totfact> 0.16616421E+02</totfact>
</mgrwt>
</event>
<event>
 9    1  0.4246427E-036  0.1000055E+04  0.7818608E-02  0.8680986E-01
          1   -1    0    0  501    0  0.00000000000E+00  0.00000000000E+00  0.40494533149E+03  0.40494533149E+03  0.00000000000E+00 0. -1.
         -1   -1    0    0    0  501 -0.00000000000E+00 -0.00000000000E+00 -0.61743490075E+03  0.61743490075E+03  0.00000000000E+00 0. -1.
         36    2    1    2    0    0  0.00000000000E+00  0.00000000000E+00 -0.21248956926E+03  0.10223802322E+04  0.10000547596E+04 0.  0.
         25    2    3    3    0    0 -0.86083160000E+02 -0.65981271912E+02 -0.12848842741E+03  0.21132564117E+03  0.12800551534E+03 0.  0.
         35    2    3    3    0    0  0.86083160000E+02  0.65981271912E+02 -0.84001141845E+02  0.81105459107E+03  0.79936820001E+03 0.  0.
         22    1    5    5    0    0 -0.83503229556E+02  0.17981545666E+03  0.30958541449E+03  0.36762687152E+03  0.00000000000E+00 0. -1.
         22    1    5    5    0    0  0.16958638956E+03 -0.11383418475E+03 -0.39358655633E+03  0.44342771955E+03  0.00000000000E+00 0. -1.
          5    1    4    4  502    0 -0.46805632890E+02 -0.21297638544E+02  0.16764693867E+02  0.54290898300E+02  0.47000000000E+01 0. -1.
         -5    1    4    4    0  502 -0.39277527110E+02 -0.44683633368E+02 -0.14525312128E+03  0.15703474287E+03  0.47000000000E+01 0. -1.
<mgrwt>
<rscale>  0 0.10000548E+04</rscale>
<asrwt>0</asrwt>
<pdfrwt beam="1">  1        1 0.62299282E-01 0.10000548E+04</pdfrwt>
<pdfrwt beam="2">  1       -1 0.94989985E-01 0.10000548E+04</pdfrwt>
<totfact> 0.75506326E+01</totfact>
</mgrwt>
</event>
<event>
 9    1  0.4246427E-036  0.1000300E+04  0.7818608E-02  0.8680752E-01
         -3   -1    0    0    0  501 -0.00000000000E+00  0.00000000000E+00  0.81063504970E+02  0.81063504970E+02  0.00000000000E+00 0.  1.
          3   -1    0    0  501    0  0.00000000000E+00 -0.00000000000E+00 -0.30858514563E+04  0.30858514563E+04  0.00000000000E+00 0.  1.
         36    2    1    2    0    0  0.28421709430E-13 -0.71054273576E-14 -0.30047879513E+04  0.31669149613E+04  0.10002998248E+04 0.  0.
         25    2    3    3    0    0 -0.33537330828E+02 -0.35634829746E+02 -0.14715842295E+03  0.19917884372E+03  0.12498806619E+03 0.  0.
         35    2    3    3    0    0  0.33537330828E+02  0.35634829746E+02 -0.28576295284E+04  0.29677361175E+04  0.79938510637E+03 0.  0.
         22    1    5    5    0    0 -0.31984289232E+03  0.57446296749E+02 -0.59848894973E+03  0.68102024619E+03  0.00000000000E+00 0.  1.
         22    1    5    5    0    0  0.35338022315E+03 -0.21811467003E+02 -0.22591405787E+04  0.22867158714E+04  0.00000000000E+00 0.  1.
          5    1    4    4  502    0  0.37888870617E+01 -0.22668601749E+02  0.17826179130E+02  0.29463262427E+02  0.47000000000E+01 0. -1.
         -5    1    4    4    0  502 -0.37326217890E+02 -0.12966227997E+02 -0.16498460208E+03  0.16971558130E+03  0.47000000000E+01 0. -1.
<mgrwt>
<rscale>  0 0.10002998E+04</rscale>
<asrwt>0</asrwt>
<pdfrwt beam="1">  1        3 0.47474629E+00 0.10002998E+04</pdfrwt>
<pdfrwt beam="2">  1       -3 0.12471311E-01 0.10002998E+04</pdfrwt>
<totfact> 0.29474361E+00</totfact>
</mgrwt>
</event>
<event>
 9    1  0.4246427E-036  0.1000573E+04  0.7818608E-02  0.8680492E-01
          2   -1    0    0  501    0  0.00000000000E+00  0.00000000000E+00  0.16053191869E+04  0.16053191869E+04  0.00000000000E+00 0. -1.
         -2   -1    0    0    0  501 -0.00000000000E+00 -0.00000000000E+00 -0.15591085260E+03  0.15591085260E+03  0.00000000000E+00 0. -1.
         36    2    1    2    0    0 -0.26645352591E-14 -0.28421709430E-13  0.14494083343E+04  0.17612300395E+04  0.10005732020E+04 0.  0.
         25    2    3    3    0    0 -0.28493748617E+01  0.13153925957E+03  0.18373466003E+03  0.25817473146E+03  0.12484018153E+03 0.  0.
         35    2    3    3    0    0  0.28493748617E+01 -0.13153925957E+03  0.12656736743E+04  0.15030553081E+04  0.79995919493E+03 0.  0.
         22    1    5    5    0    0  0.63378544717E+02  0.13935287901E+03 -0.47953002724E+02  0.16042305099E+03  0.00000000000E+00 0.  1.
         22    1    5    5    0    0 -0.60529169856E+02 -0.27089213858E+03  0.13136266770E+04  0.13426322571E+04  0.00000000000E+00 0.  1.
          5    1    4    4  502    0  0.40156770053E+01  0.11805072676E+03  0.58416665822E+02  0.13185862351E+03  0.47000000000E+01 0.  1.
         -5    1    4    4    0  502 -0.68650518669E+01  0.13488532810E+02  0.12531799421E+03  0.12631610795E+03  0.47000000000E+01 0.  1.
<mgrwt>
<rscale>  0 0.10005732E+04</rscale>
<asrwt>0</asrwt>
<pdfrwt beam="1">  1        2 0.24697217E+00 0.10005732E+04</pdfrwt>
<pdfrwt beam="2">  1       -2 0.23986286E-01 0.10005732E+04</pdfrwt>
<totfact> 0.20391890E+02</totfact>
</mgrwt>
</event>
<event>
 9    1  0.4246427E-036  0.9993230E+03  0.7818608E-02  0.8681683E-01
         -2   -1    0    0    0  501 -0.00000000000E+00  0.00000000000E+00  0.74833975715E+03  0.74833975715E+03  0.00000000000E+00 0.  1.
          2   -1    0    0  501    0  0.00000000000E+00 -0.00000000000E+00 -0.33362067269E+03  0.33362067269E+03  0.00000000000E+00 0.  1.
         36    2    1    2    0    0  0.42632564146E-13  0.00000000000E+00  0.41471908446E+03  0.10819604298E+04  0.99932299719E+03 0.  0.
         25    2    3    3    0    0  0.76943008974E+02  0.11122775319E+03  0.11577391617E+03  0.21748977727E+03  0.12492543314E+03 0.  0.
         35    2    3    3    0    0 -0.76943008974E+02 -0.11122775319E+03  0.29894516829E+03  0.86447065256E+03  0.79978087986E+03 0.  0.
         22    1    5    5    0    0  0.18963648880E+03  0.16693083358E+03 -0.13312829454E+03  0.28557143395E+03  0.00000000000E+00 0.  1.
         22    1    5    5    0    0 -0.26657949778E+03 -0.27815858676E+03  0.43207346283E+03  0.57889921861E+03  0.00000000000E+00 0.  1.
          5    1    4    4  502    0  0.63501552301E+01  0.65341860154E+01 -0.25779749214E+02  0.27743567324E+02  0.47000000000E+01 0. -1.
         -5    1    4    4    0  502  0.70592853744E+02  0.10469356717E+03  0.14155366538E+03  0.18974620995E+03  0.47000000000E+01 0. -1.
<mgrwt>
<rscale>  0 0.99932300E+03</rscale>
<asrwt>0</asrwt>
<pdfrwt beam="1">  1        2 0.51326258E-01 0.99932300E+03</pdfrwt>
<pdfrwt beam="2">  1       -2 0.11512919E+00 0.99932300E+03</pdfrwt>
<totfact> 0.67220835E+01</totfact>
</mgrwt>
</event>
<event>
 9    1  0.4246427E-036  0.9997453E+03  0.7818608E-02  0.8681281E-01
         -2   -1    0    0    0  501 -0.00000000000E+00  0.00000000000E+00  0.30332854636E+03  0.30332854636E+03  0.00000000000E+00 0.  1.
          2   -1    0    0  501    0  0.00000000000E+00 -0.00000000000E+00 -0.82376898513E+03  0.82376898513E+03  0.00000000000E+00 0.  1.
         36    2    1    2    0    0  0.71054273576E-14  0.10658141036E-13 -0.52044043877E+03  0.11270975315E+04  0.99974526515E+03 0.  0.
         25    2    3    3    0    0 -0.12527940507E+02  0.40958842540E+00 -0.25489243698E+03  0.28418440850E+03  0.12503402157E+03 0.  0.
         35    2    3    3    0    0  0.12527940507E+02 -0.40958842540E+00 -0.26554800179E+03  0.84291312299E+03  0.79989353954E+03 0.  0.
         22    1    5    5    0    0  0.23016382181E+03  0.11705447898E+03  0.19269457097E+03  0.32219300675E+03  0.00000000000E+00 0.  1.
         22    1    5    5    0    0 -0.21763588130E+03 -0.11746406740E+03 -0.45824257276E+03  0.52072011624E+03  0.00000000000E+00 0.  1.
          5    1    4    4  502    0  0.53119852772E+02  0.19523089523E+02 -0.10521108498E+03  0.11955890676E+03  0.47000000000E+01 0.  1.
         -5    1    4    4    0  502 -0.65647793278E+02 -0.19113501098E+02 -0.14968135200E+03  0.16462550174E+03  0.47000000000E+01 0.  1.
<mgrwt>
<rscale>  0 0.99974527E+03</rscale>
<asrwt>0</asrwt>
<pdfrwt beam="1">  1        2 0.12673369E+00 0.99974527E+03</pdfrwt>
<pdfrwt beam="2">  1       -2 0.46665931E-01 0.99974527E+03</pdfrwt>
<totfact> 0.17448539E+02</totfact>
</mgrwt>
</event>
<event>
 9    1  0.4246427E-036  0.1001882E+04  0.7818608E-02  0.8679248E-01
          2   -1    0    0  501    0  0.00000000000E+00  0.00000000000E+00  0.53686018059E+03  0.53686018059E+03  0.00000000000E+00 0.  1.
         -2   -1    0    0    0  501 -0.00000000000E+00 -0.00000000000E+00 -0.46742481831E+03  0.46742481831E+03  0.00000000000E+00 0.  1.
         36    2    1    2    0    0  0.14210854715E-13 -0.28421709430E-13  0.69435362279E+02  0.10042849989E+04  0.10018817742E+04 0.  0.
         25    2    3    3    0    0  0.68499616340E+02 -0.12472891418E+03  0.37756974922E+02  0.19245846679E+03  0.12395633429E+03 0.  0.
         35    2    3    3    0    0 -0.68499616340E+02  0.12472891418E+03  0.31678387356E+02  0.81182653211E+03  0.79862963790E+03 0.  0.
         22    1    5    5    0    0  0.19026770024E+03  0.28873125935E+03  0.25758442112E+03  0.43118125177E+03  0.00000000000E+00 0.  1.
         22    1    5    5    0    0 -0.25876731658E+03 -0.16400234516E+03 -0.22590603376E+03  0.38064528033E+03  0.00000000000E+00 0.  1.
          5    1    4    4  502    0  0.15908523377E+02 -0.67683186998E+02  0.78275318750E+02  0.10480081318E+03  0.47000000000E+01 0. -1.
         -5    1    4    4    0  502  0.52591092963E+02 -0.57045727187E+02 -0.40518343827E+02  0.87657653607E+02  0.47000000000E+01 0. -1.
<mgrwt>
<rscale>  0 0.10018818E+04</rscale>
<asrwt>0</asrwt>
<pdfrwt beam="1">  1        2 0.82593874E-01 0.10018818E+04</pdfrwt>
<pdfrwt beam="2">  1       -2 0.71911510E-01 0.10018818E+04</pdfrwt>
<totfact> 0.12002926E+02</totfact>
</mgrwt>
</event>
<event>
 9    1  0.4246427E-036  0.1000208E+04  0.7818608E-02  0.8680840E-01
         -1   -1    0    0    0  501 -0.00000000000E+00  0.00000000000E+00  0.34109259866E+03  0.34109259866E+03  0.00000000000E+00 0.  1.
          1   -1    0    0  501    0  0.00000000000E+00 -0.00000000000E+00 -0.73324377366E+03  0.73324377366E+03  0.00000000000E+00 0.  1.
         36    2    1    2    0    0 -0.14210854715E-13 -0.28421709430E-13 -0.39215117500E+03  0.10743363723E+04  0.10002080268E+04 0.  0.
         25    2    3    3    0    0 -0.10256818954E+03  0.94308337609E+02 -0.55131966245E+02  0.19532583515E+03  0.12529306496E+03 0.  0.
         35    2    3    3    0    0  0.10256818954E+03 -0.94308337609E+02 -0.33701920875E+03  0.87901053718E+03  0.79978952315E+03 0.  0.
         22    1    5    5    0    0  0.37077459683E+02 -0.33014497828E+03  0.12597353787E+03  0.35530237397E+03  0.00000000000E+00 0. -1.
         22    1    5    5    0    0  0.65490729860E+02  0.23583664067E+03 -0.46299274663E+03  0.52370816321E+03  0.00000000000E+00 0. -1.
          5    1    4    4  502    0 -0.56943112895E+02 -0.17771297650E+02 -0.42862190045E+02  0.73604310076E+02  0.47000000000E+01 0. -1.
         -5    1    4    4    0  502 -0.45625076648E+02  0.11207963526E+03 -0.12269776201E+02  0.12172152508E+03  0.47000000000E+01 0. -1.
<mgrwt>
<rscale>  0 0.10002080E+04</rscale>
<asrwt>0</asrwt>
<pdfrwt beam="1">  1        1 0.11280673E+00 0.10002080E+04</pdfrwt>
<pdfrwt beam="2">  1       -1 0.52475785E-01 0.10002080E+04</pdfrwt>
<totfact> 0.10640619E+02</totfact>
</mgrwt>
</event>
<event>
 9    1  0.4246427E-036  0.1005034E+04  0.7818608E-02  0.8676259E-01
          1   -1    0    0  501    0  0.00000000000E+00  0.00000000000E+00  0.38960509226E+04  0.38960509226E+04  0.00000000000E+00 0. -1.
         -1   -1    0    0    0  501 -0.00000000000E+00 -0.00000000000E+00 -0.64815205442E+02  0.64815205442E+02  0.00000000000E+00 0. -1.
         36    2    1    2    0    0  0.42632564146E-13  0.00000000000E+00  0.38312357172E+04  0.39608661281E+04  0.10050340113E+04 0.  0.
         25    2    3    3    0    0 -0.10281765331E+02 -0.41714224564E+02  0.12773396553E+04  0.12844353703E+04  0.12779606530E+03 0.  0.
         35    2    3    3    0    0  0.10281765331E+02  0.41714224564E+02  0.25538960619E+04  0.26764307577E+04  0.79940647662E+03 0.  0.
         22    1    5    5    0    0  0.35677062223E+03  0.16213217448E+03  0.17416907853E+04  0.17852335731E+04  0.00000000000E+00 0.  1.
         22    1    5    5    0    0 -0.34648885690E+03 -0.12041794992E+03  0.81220527656E+03  0.89119718463E+03  0.00000000000E+00 0.  1.
          5    1    4    4  502    0  0.18434057240E+02  0.42037226943E+02  0.42659018508E+03  0.42907833658E+03  0.47000000000E+01 0. -1.
         -5    1    4    4    0  502 -0.28715822570E+02 -0.83751451507E+02  0.85074947024E+03  0.85535703377E+03  0.47000000000E+01 0. -1.
<mgrwt>
<rscale>  0 0.10050340E+04</rscale>
<asrwt>0</asrwt>
<pdfrwt beam="1">  1        1 0.59939227E+00 0.10050340E+04</pdfrwt>
<pdfrwt beam="2">  1       -1 0.99715731E-02 0.10050340E+04</pdfrwt>
<totfact> 0.83826382E+00</totfact>
</mgrwt>
</event>
<event>
 9    1  0.4246427E-036  0.1000474E+04  0.7818608E-02  0.8680587E-01
          2   -1    0    0  501    0  0.00000000000E+00  0.00000000000E+00  0.92486941988E+03  0.92486941988E+03  0.00000000000E+00 0.  1.
         -2   -1    0    0    0  501 -0.00000000000E+00 -0.00000000000E+00 -0.27056456573E+03  0.27056456573E+03  0.00000000000E+00 0.  1.
         36    2    1    2    0    0  0.28421709430E-13  0.00000000000E+00  0.65430485415E+03  0.11954339856E+04  0.10004736737E+04 0.  0.
         25    2    3    3    0    0 -0.79409562820E+02 -0.56486645033E+02  0.24177923176E+03  0.28960140607E+03  0.12615529220E+03 0.  0.
         35    2    3    3    0    0  0.79409562820E+02  0.56486645033E+02  0.41252562238E+03  0.90583257954E+03  0.80053647843E+03 0.  0.
         22    1    5    5    0    0 -0.26969334333E+03 -0.12698960312E+03 -0.45350802272E+02  0.30152537871E+03  0.00000000000E+00 0. -1.
         22    1    5    5    0    0  0.34910290615E+03  0.18347624815E+03  0.45787642466E+03  0.60430720083E+03  0.00000000000E+00 0. -1.
          5    1    4    4  502    0 -0.50199313149E+02  0.21401260220E+02  0.17331053589E+03  0.18175977781E+03  0.47000000000E+01 0. -1.
         -5    1    4    4    0  502 -0.29210249671E+02 -0.77887905253E+02  0.68468695874E+02  0.10784162826E+03  0.47000000000E+01 0. -1.
<mgrwt>
<rscale>  0 0.10004737E+04</rscale>
<asrwt>0</asrwt>
<pdfrwt beam="1">  1        2 0.14228760E+00 0.10004737E+04</pdfrwt>
<pdfrwt beam="2">  1       -2 0.41625318E-01 0.10004737E+04</pdfrwt>
<totfact> 0.18661869E+02</totfact>
</mgrwt>
</event>
<event>
 9    1  0.4246427E-036  0.1000262E+04  0.7818608E-02  0.8680788E-01
          2   -1    0    0  501    0  0.00000000000E+00  0.00000000000E+00  0.54974586049E+03  0.54974586049E+03  0.00000000000E+00 0.  1.
         -2   -1    0    0    0  501 -0.00000000000E+00 -0.00000000000E+00 -0.45499399347E+03  0.45499399347E+03  0.00000000000E+00 0.  1.
         36    2    1    2    0    0  0.28421709430E-13 -0.14210854715E-13  0.94751867020E+02  0.10047398540E+04  0.10002620946E+04 0.  0.
         25    2    3    3    0    0 -0.73186165962E+02 -0.69054478486E+02  0.11629955669E+03  0.19845994005E+03  0.12544331402E+03 0.  0.
         35    2    3    3    0    0  0.73186165962E+02  0.69054478486E+02 -0.21547689675E+02  0.80627991391E+03  0.79968635149E+03 0.  0.
         22    1    5    5    0    0  0.31878549852E+03  0.32080027851E+03  0.16265249765E+02  0.45255007580E+03  0.00000000000E+00 0. -1.
         22    1    5    5    0    0 -0.24559933255E+03 -0.25174580003E+03 -0.37812939440E+02  0.35372983811E+03  0.00000000000E+00 0. -1.
          5    1    4    4  502    0 -0.19084344359E+02 -0.18869470303E+02  0.12132420747E+03  0.12434597873E+03  0.47000000000E+01 0. -1.
         -5    1    4    4    0  502 -0.54101821602E+02 -0.50185008183E+02 -0.50246507752E+01  0.74113961319E+02  0.47000000000E+01 0. -1.
<mgrwt>
<rscale>  0 0.10002621E+04</rscale>
<asrwt>0</asrwt>
<pdfrwt beam="1">  1        2 0.84576286E-01 0.10002621E+04</pdfrwt>
<pdfrwt beam="2">  1       -2 0.69999076E-01 0.10002621E+04</pdfrwt>
<totfact> 0.12384811E+02</totfact>
</mgrwt>
</event>
<event>
 9    1  0.4246427E-036  0.1000157E+04  0.7818608E-02  0.8680888E-01
          2   -1    0    0  501    0  0.00000000000E+00  0.00000000000E+00  0.95104807435E+03  0.95104807435E+03  0.00000000000E+00 0. -1.
         -2   -1    0    0    0  501 -0.00000000000E+00 -0.00000000000E+00 -0.26295069694E+03  0.26295069694E+03  0.00000000000E+00 0. -1.
         36    2    1    2    0    0  0.00000000000E+00 -0.42632564146E-13  0.68809737741E+03  0.12139987713E+04  0.10001574955E+04 0.  0.
         25    2    3    3    0    0  0.76326722834E+02  0.54683928217E+02  0.25174815376E+03  0.29651152024E+03  0.12540274353E+03 0.  0.
         35    2    3    3    0    0 -0.76326722834E+02 -0.54683928217E+02  0.43634922364E+03  0.91748725105E+03  0.80160221447E+03 0.  0.
         22    1    5    5    0    0 -0.40828782104E+02 -0.40915164832E+03  0.37400103795E+03  0.55583166261E+03  0.00000000000E+00 0. -1.
         22    1    5    5    0    0 -0.35497940731E+02  0.35446772010E+03  0.62348185698E+02  0.36165558844E+03  0.00000000000E+00 0. -1.
          5    1    4    4  502    0  0.84551355921E+02  0.71682245115E+02  0.12037732550E+03  0.16370725869E+03  0.47000000000E+01 0. -1.
         -5    1    4    4    0  502 -0.82246330862E+01 -0.16998316898E+02  0.13137082826E+03  0.13280426155E+03  0.47000000000E+01 0. -1.
<mgrwt>
<rscale>  0 0.10001575E+04</rscale>
<asrwt>0</asrwt>
<pdfrwt beam="1">  1        2 0.14631509E+00 0.10001575E+04</pdfrwt>
<pdfrwt beam="2">  1       -2 0.40453954E-01 0.10001575E+04</pdfrwt>
<totfact> 0.18962206E+02</totfact>
</mgrwt>
</event>
<event>
 9    1  0.4246427E-036  0.1000160E+04  0.7818608E-02  0.8680886E-01
          3   -1    0    0  501    0  0.00000000000E+00  0.00000000000E+00  0.38276537602E+03  0.38276537602E+03  0.00000000000E+00 0. -1.
         -3   -1    0    0    0  501 -0.00000000000E+00 -0.00000000000E+00 -0.65335075879E+03  0.65335075879E+03  0.00000000000E+00 0. -1.
         36    2    1    2    0    0  0.00000000000E+00 -0.28421709430E-13 -0.27058538277E+03  0.10361161348E+04  0.10001600849E+04 0.  0.
         25    2    3    3    0    0 -0.34276728130E+00  0.11883701489E+03 -0.12430326057E+03  0.21272738577E+03  0.12521695761E+03 0.  0.
         35    2    3    3    0    0  0.34276728130E+00 -0.11883701489E+03 -0.14628212220E+03  0.82338874904E+03  0.80152867645E+03 0.  0.
         22    1    5    5    0    0  0.34650540468E+03  0.79480717289E+02  0.80479054354E+02  0.36449973674E+03  0.00000000000E+00 0.  1.
         22    1    5    5    0    0 -0.34616263740E+03 -0.19831773218E+03 -0.22676117655E+03  0.45888901231E+03  0.00000000000E+00 0.  1.
          5    1    4    4  502    0  0.61407605589E+02  0.73376248722E+02 -0.67796209652E+02  0.11736006111E+03  0.47000000000E+01 0. -1.
         -5    1    4    4    0  502 -0.61750372870E+02  0.45460766165E+02 -0.56507050919E+02  0.95367324664E+02  0.47000000000E+01 0. -1.
<mgrwt>
<rscale>  0 0.10001601E+04</rscale>
<asrwt>0</asrwt>
<pdfrwt beam="1">  1        3 0.58886981E-01 0.10001601E+04</pdfrwt>
<pdfrwt beam="2">  1       -3 0.10051550E+00 0.10001601E+04</pdfrwt>
<totfact> 0.90233045E+00</totfact>
</mgrwt>
</event>
<event>
 9    1  0.4246427E-036  0.1000128E+04  0.7818608E-02  0.8680916E-01
          1   -1    0    0  501    0  0.00000000000E+00  0.00000000000E+00  0.28227551145E+03  0.28227551145E+03  0.00000000000E+00 0.  1.
         -1   -1    0    0    0  501 -0.00000000000E+00 -0.00000000000E+00 -0.88588557831E+03  0.88588557831E+03  0.00000000000E+00 0.  1.
         36    2    1    2    0    0  0.00000000000E+00  0.00000000000E+00 -0.60361006686E+03  0.11681610898E+04  0.10001276013E+04 0.  0.
         25    2    3    3    0    0 -0.42074833602E+02  0.13254667996E+03 -0.14030792957E+03  0.23299785781E+03  0.12354259450E+03 0.  0.
         35    2    3    3    0    0  0.42074833602E+02 -0.13254667996E+03 -0.46330213730E+03  0.93516323194E+03  0.80033898191E+03 0.  0.
         22    1    5    5    0    0  0.31456145718E+03 -0.18485779822E+03  0.33228523452E+02  0.36636791710E+03  0.00000000000E+00 0.  1.
         22    1    5    5    0    0 -0.27248662358E+03  0.52311118258E+02 -0.49653066075E+03  0.56879531484E+03  0.00000000000E+00 0.  1.
          5    1    4    4  502    0  0.20449586857E+02  0.62213896219E+01  0.12379890102E+02  0.25144442137E+02  0.47000000000E+01 0. -1.
         -5    1    4    4    0  502 -0.62524420459E+02  0.12632529034E+03 -0.15268781967E+03  0.20785341568E+03  0.47000000000E+01 0. -1.
<mgrwt>
<rscale>  0 0.10001276E+04</rscale>
<asrwt>0</asrwt>
<pdfrwt beam="1">  1        1 0.43427002E-01 0.10001276E+04</pdfrwt>
<pdfrwt beam="2">  1       -1 0.13629009E+00 0.10001276E+04</pdfrwt>
<totfact> 0.50867819E+01</totfact>
</mgrwt>
</event>
<event>
 9    1  0.4246427E-036  0.9992622E+03  0.7818608E-02  0.8681741E-01
         -2   -1    0    0    0  501 -0.00000000000E+00  0.00000000000E+00  0.61889299725E+03  0.61889299725E+03  0.00000000000E+00 0.  1.
          2   -1    0    0  501    0  0.00000000000E+00 -0.00000000000E+00 -0.40335121505E+03  0.40335121505E+03  0.00000000000E+00 0.  1.
         36    2    1    2    0    0  0.00000000000E+00 -0.14210854715E-13  0.21554178221E+03  0.10222442123E+04  0.99926221269E+03 0.  0.
         25    2    3    3    0    0  0.67844690548E+02 -0.24511232726E+02 -0.77329115961E+02  0.16672213554E+03  0.12889055722E+03 0.  0.
         35    2    3    3    0    0 -0.67844690548E+02  0.24511232726E+02  0.29287089817E+03  0.85552207675E+03  0.80058788291E+03 0.  0.
         22    1    5    5    0    0  0.12344443154E+03  0.35686973814E+03  0.28304471689E+03  0.47192038464E+03  0.00000000000E+00 0. -1.
         22    1    5    5    0    0 -0.19128912209E+03 -0.33235850542E+03  0.98261812766E+01  0.38360169211E+03  0.00000000000E+00 0. -1.
          5    1    4    4  502    0  0.72673285842E+02  0.13337485011E+02  0.66774476837E+01  0.74336890499E+02  0.47000000000E+01 0.  1.
         -5    1    4    4    0  502 -0.48285952942E+01 -0.37848717737E+02 -0.84006563645E+02  0.92385245046E+02  0.47000000000E+01 0.  1.
<mgrwt>
<rscale>  0 0.99926221E+03</rscale>
<asrwt>0</asrwt>
<pdfrwt beam="1">  1        2 0.62054033E-01 0.99926221E+03</pdfrwt>
<pdfrwt beam="2">  1       -2 0.95214308E-01 0.99926221E+03</pdfrwt>
<totfact> 0.87036285E+01</totfact>
</mgrwt>
</event>
<event>
 9    1  0.4246427E-036  0.1000742E+04  0.7818608E-02  0.8680332E-01
         -2   -1    0    0    0  501 -0.00000000000E+00  0.00000000000E+00  0.11543255757E+03  0.11543255757E+03  0.00000000000E+00 0. -1.
          2   -1    0    0  501    0  0.00000000000E+00 -0.00000000000E+00 -0.21689819432E+04  0.21689819432E+04  0.00000000000E+00 0. -1.
         36    2    1    2    0    0 -0.28421709430E-13 -0.14210854715E-13 -0.20535493856E+04  0.22844145007E+04  0.10007419908E+04 0.  0.
         25    2    3    3    0    0 -0.13110708686E+03 -0.38918730984E+02 -0.45413873315E+03  0.49042122679E+03  0.12476880577E+03 0.  0.
         35    2    3    3    0    0  0.13110708686E+03  0.38918730984E+02 -0.15994106524E+04  0.17939932739E+04  0.80099544068E+03 0.  0.
         22    1    5    5    0    0 -0.43491498784E+02  0.12528638770E+03  0.43502122012E+02  0.13957300609E+03  0.00000000000E+00 0. -1.
         22    1    5    5    0    0  0.17459858564E+03 -0.86367656720E+02 -0.16429127744E+04  0.16544202679E+04  0.00000000000E+00 0. -1.
          5    1    4    4  502    0 -0.30436911563E+01  0.16414284969E+02 -0.22782426354E+01  0.17492089538E+02  0.47000000000E+01 0. -1.
         -5    1    4    4    0  502 -0.12806339570E+03 -0.55333015953E+02 -0.45186049051E+03  0.47292913725E+03  0.47000000000E+01 0. -1.
<mgrwt>
<rscale>  0 0.10007420E+04</rscale>
<asrwt>0</asrwt>
<pdfrwt beam="1">  1        2 0.33368952E+00 0.10007420E+04</pdfrwt>
<pdfrwt beam="2">  1       -2 0.17758856E-01 0.10007420E+04</pdfrwt>
<totfact> 0.16445426E+02</totfact>
</mgrwt>
</event>
<event>
 9    1  0.4246427E-036  0.9980951E+03  0.7818608E-02  0.8682854E-01
          1   -1    0    0  501    0  0.00000000000E+00  0.00000000000E+00  0.59241392376E+03  0.59241392376E+03  0.00000000000E+00 0.  1.
         -1   -1    0    0    0  501 -0.00000000000E+00 -0.00000000000E+00 -0.42039598310E+03  0.42039598310E+03  0.00000000000E+00 0.  1.
         36    2    1    2    0    0  0.00000000000E+00  0.17763568394E-14  0.17201794066E+03  0.10128099069E+04  0.99809505335E+03 0.  0.
         25    2    3    3    0    0  0.78259314059E+02 -0.16405850431E+00 -0.81385780099E+02  0.17014685066E+03  0.12728612821E+03 0.  0.
         35    2    3    3    0    0 -0.78259314059E+02  0.16405850431E+00  0.25340372076E+03  0.84266305621E+03  0.79983937978E+03 0.  0.
         22    1    5    5    0    0  0.35811437474E+03  0.55811179794E+01  0.51601716063E+02  0.36185603680E+03  0.00000000000E+00 0. -1.
         22    1    5    5    0    0 -0.43637368880E+03 -0.54170594751E+01  0.20180200470E+03  0.48080701940E+03  0.00000000000E+00 0. -1.
          5    1    4    4  502    0  0.10965036680E+02 -0.36397627284E+02 -0.85267214509E+02  0.93475168742E+02  0.47000000000E+01 0.  1.
         -5    1    4    4    0  502  0.67294277379E+02  0.36233568779E+02  0.38814344100E+01  0.76671681914E+02  0.47000000000E+01 0.  1.
<mgrwt>
<rscale>  0 0.99809505E+03</rscale>
<asrwt>0</asrwt>
<pdfrwt beam="1">  1        1 0.91140604E-01 0.99809505E+03</pdfrwt>
<pdfrwt beam="2">  1       -1 0.64676305E-01 0.99809505E+03</pdfrwt>
<totfact> 0.98505557E+01</totfact>
</mgrwt>
</event>
<event>
 9    1  0.4246427E-036  0.9995149E+03  0.7818608E-02  0.8681500E-01
         -2   -1    0    0    0  501 -0.00000000000E+00  0.00000000000E+00  0.19689782216E+03  0.19689782216E+03  0.00000000000E+00 0.  1.
          2   -1    0    0  501    0  0.00000000000E+00 -0.00000000000E+00 -0.12684625307E+04  0.12684625307E+04  0.00000000000E+00 0.  1.
         36    2    1    2    0    0  0.56843418861E-13 -0.14210854715E-13 -0.10715647085E+04  0.14653603529E+04  0.99951490191E+03 0.  0.
         25    2    3    3    0    0 -0.13335195872E+03  0.50178887340E+02 -0.19654791331E+03  0.27319305259E+03  0.12531039912E+03 0.  0.
         35    2    3    3    0    0  0.13335195872E+03 -0.50178887340E+02 -0.87501679522E+03  0.11921673003E+04  0.79706198897E+03 0.  0.
         22    1    5    5    0    0 -0.18948864270E+03  0.10817984107E+03 -0.79417559220E+03  0.82360408873E+03  0.00000000000E+00 0.  1.
         22    1    5    5    0    0  0.32284060142E+03 -0.15835872841E+03 -0.80841203024E+02  0.36856321153E+03  0.00000000000E+00 0.  1.
          5    1    4    4  502    0 -0.13738963285E+03  0.75598066341E+01 -0.18098567448E+03  0.22740045352E+03  0.47000000000E+01 0.  1.
         -5    1    4    4    0  502  0.40376741352E+01  0.42619080706E+02 -0.15562238830E+02  0.45792599075E+02  0.47000000000E+01 0.  1.
<mgrwt>
<rscale>  0 0.99951490E+03</rscale>
<asrwt>0</asrwt>
<pdfrwt beam="1">  1        2 0.19514809E+00 0.99951490E+03</pdfrwt>
<pdfrwt beam="2">  1       -2 0.30291972E-01 0.99951490E+03</pdfrwt>
<totfact> 0.20885701E+02</totfact>
</mgrwt>
</event>
<event>
 9    1  0.4246427E-036  0.9999789E+03  0.7818608E-02  0.8681058E-01
          2   -1    0    0  501    0  0.00000000000E+00  0.00000000000E+00  0.15276010375E+04  0.15276010375E+04  0.00000000000E+00 0.  1.
         -2   -1    0    0    0  501 -0.00000000000E+00 -0.00000000000E+00 -0.16364839986E+03  0.16364839986E+03  0.00000000000E+00 0.  1.
         36    2    1    2    0    0  0.00000000000E+00  0.14210854715E-13  0.13639526376E+04  0.16912494373E+04  0.99997893058E+03 0.  0.
         25    2    3    3    0    0 -0.43934892649E+02  0.75771965070E+02  0.69531280644E+02  0.16733970254E+03  0.12448418203E+03 0.  0.
         35    2    3    3    0    0  0.43934892649E+02 -0.75771965070E+02  0.12944213570E+04  0.15239097348E+04  0.79943890631E+03 0.  0.
         22    1    5    5    0    0 -0.14819048435E+03  0.11089598870E+03 -0.16570390881E+02  0.18583034686E+03  0.00000000000E+00 0. -1.
         22    1    5    5    0    0  0.19212537700E+03 -0.18666795377E+03  0.13109917479E+04  0.13380793879E+04  0.00000000000E+00 0. -1.
          5    1    4    4  502    0 -0.86592725580E+01 -0.34728072897E+02  0.17719126093E+02  0.40212926751E+02  0.47000000000E+01 0.  1.
         -5    1    4    4    0  502 -0.35275620091E+02  0.11050003797E+03  0.51812154551E+02  0.12712677579E+03  0.47000000000E+01 0.  1.
<mgrwt>
<rscale>  0 0.99997893E+03</rscale>
<asrwt>0</asrwt>
<pdfrwt beam="1">  1        2 0.23501554E+00 0.99997893E+03</pdfrwt>
<pdfrwt beam="2">  1       -2 0.25176678E-01 0.99997893E+03</pdfrwt>
<totfact> 0.20705921E+02</totfact>
</mgrwt>
</event>
<event>
 9    1  0.4246427E-036  0.9997506E+03  0.7818608E-02  0.8681275E-01
          2   -1    0    0  501    0  0.00000000000E+00  0.00000000000E+00  0.91052232603E+03  0.91052232603E+03  0.00000000000E+00 0.  1.
         -2   -1    0    0    0  501 -0.00000000000E+00 -0.00000000000E+00 -0.27443075956E+03  0.27443075956E+03  0.00000000000E+00 0.  1.
         36    2    1    2    0    0 -0.14210854715E-13 -0.21316282073E-13  0.63609156646E+03  0.11849530856E+04  0.99975063597E+03 0.  0.
         25    2    3    3    0    0 -0.86511179653E+02 -0.74850385730E+01 -0.54980332651E+01  0.15411956675E+03  0.12721007223E+03 0.  0.
         35    2    3    3    0    0  0.86511179653E+02  0.74850385730E+01  0.64158959973E+03  0.10308335188E+04  0.80214731757E+03 0.  0.
         22    1    5    5    0    0  0.16853984193E+03  0.35653786350E+03  0.14902848094E+03  0.42158559577E+03  0.00000000000E+00 0. -1.
         22    1    5    5    0    0 -0.82028662282E+02 -0.34905282493E+03  0.49256111879E+03  0.60924792307E+03  0.00000000000E+00 0. -1.
          5    1    4    4  502    0 -0.73670501656E+02 -0.46028612971E+02 -0.44404740015E+02  0.97672140153E+02  0.47000000000E+01 0. -1.
         -5    1    4    4    0  502 -0.12840677997E+02  0.38543574398E+02  0.38906706750E+02  0.56447426592E+02  0.47000000000E+01 0. -1.
<mgrwt>
<rscale>  0 0.99975064E+03</rscale>
<asrwt>0</asrwt>
<pdfrwt beam="1">  1        2 0.14008036E+00 0.99975064E+03</pdfrwt>
<pdfrwt beam="2">  1       -2 0.42220117E-01 0.99975064E+03</pdfrwt>
<totfact> 0.18553335E+02</totfact>
</mgrwt>
</event>
<event>
 9    1  0.4246427E-036  0.1000151E+04  0.7818608E-02  0.8680894E-01
         -1   -1    0    0    0  501 -0.00000000000E+00  0.00000000000E+00  0.10943363490E+03  0.10943363490E+03  0.00000000000E+00 0.  1.
          1   -1    0    0  501    0  0.00000000000E+00 -0.00000000000E+00 -0.22851803757E+04  0.22851803757E+04  0.00000000000E+00 0.  1.
         36    2    1    2    0    0  0.14210854715E-13  0.28421709430E-13 -0.21757467408E+04  0.23946140106E+04  0.10001511784E+04 0.  0.
         25    2    3    3    0    0  0.80806739088E+02  0.88376453615E+02 -0.58804024894E+03  0.61294048919E+03  0.12475809502E+03 0.  0.
         35    2    3    3    0    0 -0.80806739088E+02 -0.88376453615E+02 -0.15877064919E+04  0.17816735214E+04  0.79950516321E+03 0.  0.
         22    1    5    5    0    0 -0.96912291313E+02  0.25672204575E+03 -0.17071353276E+03  0.32317380966E+03  0.00000000000E+00 0. -1.
         22    1    5    5    0    0  0.16105552224E+02 -0.34509849936E+03 -0.14169929591E+04  0.14584997118E+04  0.00000000000E+00 0. -1.
          5    1    4    4  502    0  0.57925952747E+02  0.10777586035E+03 -0.55380573430E+03  0.56718068851E+03  0.47000000000E+01 0.  1.
         -5    1    4    4    0  502  0.22880786341E+02 -0.19399406734E+02 -0.34234514643E+02  0.45759800677E+02  0.47000000000E+01 0.  1.
<mgrwt>
<rscale>  0 0.10001512E+04</rscale>
<asrwt>0</asrwt>
<pdfrwt beam="1">  1        1 0.35156618E+00 0.10001512E+04</pdfrwt>
<pdfrwt beam="2">  1       -1 0.16835945E-01 0.10001512E+04</pdfrwt>
<totfact> 0.53295984E+01</totfact>
</mgrwt>
</event>
<event>
 9    1  0.4246427E-036  0.9988454E+03  0.7818608E-02  0.8682138E-01
         -2   -1    0    0    0  501 -0.00000000000E+00  0.00000000000E+00  0.13095727898E+03  0.13095727898E+03  0.00000000000E+00 0. -1.
          2   -1    0    0  501    0  0.00000000000E+00 -0.00000000000E+00 -0.19046137283E+04  0.19046137283E+04  0.00000000000E+00 0. -1.
         36    2    1    2    0    0  0.28421709430E-13  0.14210854715E-13 -0.17736564494E+04  0.20355710073E+04  0.99884539618E+03 0.  0.
         25    2    3    3    0    0  0.85175517976E+02  0.83665913686E+02 -0.47731619869E+03  0.50764881484E+03  0.12498684611E+03 0.  0.
         35    2    3    3    0    0 -0.85175517976E+02 -0.83665913686E+02 -0.12963402507E+04  0.15279221925E+04  0.79987081881E+03 0.  0.
         22    1    5    5    0    0  0.27137111746E+03  0.12166072948E+03 -0.20392928806E+03  0.36059779675E+03  0.00000000000E+00 0.  1.
         22    1    5    5    0    0 -0.35654663544E+03 -0.20532664317E+03 -0.10924109626E+04  0.11673243957E+04  0.00000000000E+00 0.  1.
          5    1    4    4  502    0 -0.19216451955E+02  0.38630231182E+02 -0.24669008221E+03  0.25047884830E+03  0.47000000000E+01 0. -1.
         -5    1    4    4    0  502  0.10439196993E+03  0.45035682504E+02 -0.23062611648E+03  0.25716996654E+03  0.47000000000E+01 0. -1.
<mgrwt>
<rscale>  0 0.99884540E+03</rscale>
<asrwt>0</asrwt>
<pdfrwt beam="1">  1        2 0.29301749E+00 0.99884540E+03</pdfrwt>
<pdfrwt beam="2">  1       -2 0.20147274E-01 0.99884540E+03</pdfrwt>
<totfact> 0.18750986E+02</totfact>
</mgrwt>
</event>
<event>
 9    1  0.4246427E-036  0.1000845E+04  0.7818608E-02  0.8680234E-01
         -1   -1    0    0    0  501 -0.00000000000E+00  0.00000000000E+00  0.53452436355E+03  0.53452436355E+03  0.00000000000E+00 0. -1.
          1   -1    0    0  501    0  0.00000000000E+00 -0.00000000000E+00 -0.46849623273E+03  0.46849623273E+03  0.00000000000E+00 0. -1.
         36    2    1    2    0    0  0.00000000000E+00 -0.71054273576E-14  0.66028130823E+02  0.10030205963E+04  0.10008449443E+04 0.  0.
         25    2    3    3    0    0  0.84474911266E+02  0.37257415951E+02  0.11828172187E+03  0.19515699907E+03  0.12478606846E+03 0.  0.
         35    2    3    3    0    0 -0.84474911266E+02 -0.37257415951E+02 -0.52253591046E+02  0.80786359721E+03  0.80086767212E+03 0.  0.
         22    1    5    5    0    0 -0.42608648050E+02  0.79808123079E+02 -0.41482118808E+03  0.42457208042E+03  0.00000000000E+00 0. -1.
         22    1    5    5    0    0 -0.41866263217E+02 -0.11706553903E+03  0.36256759703E+03  0.38329151679E+03  0.00000000000E+00 0. -1.
          5    1    4    4  502    0  0.10035565488E+03  0.39438672177E+02  0.39984842069E+02  0.11509797533E+03  0.47000000000E+01 0.  1.
         -5    1    4    4    0  502 -0.15880743612E+02 -0.21812562264E+01  0.78296879800E+02  0.80059023744E+02  0.47000000000E+01 0.  1.
<mgrwt>
<rscale>  0 0.10008449E+04</rscale>
<asrwt>0</asrwt>
<pdfrwt beam="1">  1        1 0.72076343E-01 0.10008449E+04</pdfrwt>
<pdfrwt beam="2">  1       -1 0.82234518E-01 0.10008449E+04</pdfrwt>
<totfact> 0.84421531E+01</totfact>
</mgrwt>
</event>
<event>
 9    1  0.4246427E-036  0.9996455E+03  0.7818608E-02  0.8681376E-01
         -1   -1    0    0    0  501 -0.00000000000E+00  0.00000000000E+00  0.27031422871E+03  0.27031422871E+03  0.00000000000E+00 0.  1.
          1   -1    0    0  501    0  0.00000000000E+00 -0.00000000000E+00 -0.92419393209E+03  0.92419393209E+03  0.00000000000E+00 0.  1.
         36    2    1    2    0    0 -0.28421709430E-13 -0.14210854715E-13 -0.65387970338E+03  0.11945081608E+04  0.99964547701E+03 0.  0.
         25    2    3    3    0    0  0.13346955304E+03  0.41134380276E+02 -0.12067448839E+03  0.22286262013E+03  0.12489698345E+03 0.  0.
         35    2    3    3    0    0 -0.13346955304E+03 -0.41134380276E+02 -0.53320521499E+03  0.97164554066E+03  0.80017566607E+03 0.  0.
         22    1    5    5    0    0 -0.42192348776E+03  0.16546594002E+03 -0.34802596663E+03  0.57141970588E+03  0.00000000000E+00 0. -1.
         22    1    5    5    0    0  0.28845393472E+03 -0.20660032029E+03 -0.18517924836E+03  0.40022583478E+03  0.00000000000E+00 0. -1.
          5    1    4    4  502    0  0.30064026068E+02  0.42519396772E+02 -0.10614804165E+03  0.11832684189E+03  0.47000000000E+01 0. -1.
         -5    1    4    4    0  502  0.10340552697E+03 -0.13850164957E+01 -0.14526446747E+02  0.10453577824E+03  0.47000000000E+01 0. -1.
<mgrwt>
<rscale>  0 0.99964548E+03</rscale>
<asrwt>0</asrwt>
<pdfrwt beam="1">  1        1 0.14218368E+00 0.99964548E+03</pdfrwt>
<pdfrwt beam="2">  1       -1 0.41586804E-01 0.99964548E+03</pdfrwt>
<totfact> 0.11104041E+02</totfact>
</mgrwt>
</event>
<event>
 9    1  0.4246427E-036  0.1000129E+04  0.7818608E-02  0.8680915E-01
         -2   -1    0    0    0  501 -0.00000000000E+00  0.00000000000E+00  0.17227125062E+03  0.17227125062E+03  0.00000000000E+00 0.  1.
          2   -1    0    0  501    0  0.00000000000E+00 -0.00000000000E+00 -0.14515744453E+04  0.14515744453E+04  0.00000000000E+00 0.  1.
         36    2    1    2    0    0  0.00000000000E+00  0.14210854715E-13 -0.12793031947E+04  0.16238456959E+04  0.10001290818E+04 0.  0.
         25    2    3    3    0    0  0.70117075052E+02 -0.16700227977E+02 -0.41337663787E+02  0.14813419942E+03  0.12263619679E+03 0.  0.
         35    2    3    3    0    0 -0.70117075052E+02  0.16700227977E+02 -0.12379655309E+04  0.14757114965E+04  0.79998153941E+03 0.  0.
         22    1    5    5    0    0  0.28342382813E+03 -0.82772040814E+02 -0.15773605389E+03  0.33475504446E+03  0.00000000000E+00 0.  1.
         22    1    5    5    0    0 -0.35354090318E+03  0.99472268791E+02 -0.10802294770E+04  0.11409564520E+04  0.00000000000E+00 0.  1.
          5    1    4    4  502    0  0.90470280917E+02  0.35131431270E+01  0.78501230866E+01  0.90999606242E+02  0.47000000000E+01 0. -1.
         -5    1    4    4    0  502 -0.20353205865E+02 -0.20213371104E+02 -0.49187786874E+02  0.57134593180E+02  0.47000000000E+01 0. -1.
<mgrwt>
<rscale>  0 0.10001291E+04</rscale>
<asrwt>0</asrwt>
<pdfrwt beam="1">  1        2 0.22331914E+00 0.10001291E+04</pdfrwt>
<pdfrwt beam="2">  1       -2 0.26503270E-01 0.10001291E+04</pdfrwt>
<totfact> 0.20865578E+02</totfact>
</mgrwt>
</event>
<event>
 9    1  0.4246427E-036  0.9998214E+03  0.7818608E-02  0.8681208E-01
          2   -1    0    0  501    0  0.00000000000E+00  0.00000000000E+00  0.12524022596E+04  0.12524022596E+04  0.00000000000E+00 0. -1.
         -2   -1    0    0    0  501 -0.00000000000E+00 -0.00000000000E+00 -0.19954509704E+03  0.19954509704E+03  0.00000000000E+00 0. -1.
         36    2    1    2    0    0  0.00000000000E+00 -0.28421709430E-13  0.10528571626E+04  0.14519473566E+04  0.99982144491E+03 0.  0.
         25    2    3    3    0    0 -0.10985026992E+03  0.20563249592E+02  0.31963779335E+03  0.36093969545E+03  0.12497686099E+03 0.  0.
         35    2    3    3    0    0  0.10985026992E+03 -0.20563249592E+02  0.73321936922E+03  0.10910076612E+04  0.80012320574E+03 0.  0.
         22    1    5    5    0    0 -0.13978047564E+03  0.26834561430E+03  0.62462382223E+03  0.69404817512E+03  0.00000000000E+00 0.  1.
         22    1    5    5    0    0  0.24963074556E+03 -0.28890886389E+03  0.10859554699E+03  0.39695948608E+03  0.00000000000E+00 0.  1.
          5    1    4    4  502    0 -0.55595633064E+02  0.80931908245E+01  0.29420094227E+03  0.29955409960E+03  0.47000000000E+01 0. -1.
         -5    1    4    4    0  502 -0.54254636853E+02  0.12470058767E+02  0.25436851080E+02  0.61385595856E+02  0.47000000000E+01 0. -1.
<mgrwt>
<rscale>  0 0.99982144E+03</rscale>
<asrwt>0</asrwt>
<pdfrwt beam="1">  1        2 0.19267727E+00 0.99982144E+03</pdfrwt>
<pdfrwt beam="2">  1       -2 0.30699247E-01 0.99982144E+03</pdfrwt>
<totfact> 0.20826992E+02</totfact>
</mgrwt>
</event>
<event>
 9    1  0.4246427E-036  0.9999153E+03  0.7818608E-02  0.8681119E-01
         -2   -1    0    0    0  501 -0.00000000000E+00  0.00000000000E+00  0.16870463096E+03  0.16870463096E+03  0.00000000000E+00 0.  1.
          2   -1    0    0  501    0  0.00000000000E+00 -0.00000000000E+00 -0.14816287305E+04  0.14816287305E+04  0.00000000000E+00 0.  1.
         36    2    1    2    0    0  0.14210854715E-13  0.00000000000E+00 -0.13129240995E+04  0.16503333614E+04  0.99991525279E+03 0.  0.
         25    2    3    3    0    0  0.29192564909E+02 -0.60153210638E+02 -0.44906498273E+03  0.47098522564E+03  0.12528810584E+03 0.  0.
         35    2    3    3    0    0 -0.29192564909E+02  0.60153210638E+02 -0.86385911680E+03  0.11793481358E+04  0.80008676851E+03 0.  0.
         22    1    5    5    0    0  0.37104362563E+03 -0.69918337396E+02 -0.47076225761E+03  0.60347249251E+03  0.00000000000E+00 0. -1.
         22    1    5    5    0    0 -0.40023619054E+03  0.13007154803E+03 -0.39309685919E+03  0.57587564329E+03  0.00000000000E+00 0. -1.
          5    1    4    4  502    0 -0.17543365556E+02  0.10857919921E+02 -0.94029703762E+01  0.23155343918E+02  0.47000000000E+01 0.  1.
         -5    1    4    4    0  502  0.46735930466E+02 -0.71011130559E+02 -0.43966201235E+03  0.44782988172E+03  0.47000000000E+01 0.  1.
<mgrwt>
<rscale>  0 0.99991525E+03</rscale>
<asrwt>0</asrwt>
<pdfrwt beam="1">  1        2 0.22794289E+00 0.99991525E+03</pdfrwt>
<pdfrwt beam="2">  1       -2 0.25954558E-01 0.99991525E+03</pdfrwt>
<totfact> 0.20825736E+02</totfact>
</mgrwt>
</event>
<event>
 9    1  0.4246427E-036  0.1000538E+04  0.7818608E-02  0.8680526E-01
         -2   -1    0    0    0  501 -0.00000000000E+00  0.00000000000E+00  0.77322528576E+02  0.77322528576E+02  0.00000000000E+00 0.  1.
          2   -1    0    0  501    0  0.00000000000E+00 -0.00000000000E+00 -0.32366903279E+04  0.32366903279E+04  0.00000000000E+00 0.  1.
         36    2    1    2    0    0  0.14210854715E-13 -0.14210854715E-13 -0.31593677993E+04  0.33140128564E+04  0.10005380160E+04 0.  0.
         25    2    3    3    0    0  0.31798822818E+02  0.10687546155E+03 -0.93503379446E+03  0.95018516986E+03  0.12700445194E+03 0.  0.
         35    2    3    3    0    0 -0.31798822818E+02 -0.10687546155E+03 -0.22243340048E+04  0.23638276866E+04  0.79220328037E+03 0.  0.
         22    1    5    5    0    0 -0.36121191731E+03 -0.24816270340E+03 -0.13298928744E+04  0.14002406343E+04  0.00000000000E+00 0.  1.
         22    1    5    5    0    0  0.32941309449E+03  0.14128724185E+03 -0.89444113044E+03  0.96358705230E+03  0.00000000000E+00 0.  1.
          5    1    4    4  502    0 -0.45258623178E+02  0.31970176312E+02 -0.21103249545E+03  0.21823665888E+03  0.47000000000E+01 0.  1.
         -5    1    4    4    0  502  0.77057445996E+02  0.74905285234E+02 -0.72400129901E+03  0.73194851097E+03  0.47000000000E+01 0.  1.
<mgrwt>
<rscale>  0 0.10005380E+04</rscale>
<asrwt>0</asrwt>
<pdfrwt beam="1">  1        2 0.49795242E+00 0.10005380E+04</pdfrwt>
<pdfrwt beam="2">  1       -2 0.11895772E-01 0.10005380E+04</pdfrwt>
<totfact> 0.67658492E+01</totfact>
</mgrwt>
</event>
<event>
 9    1  0.4246427E-036  0.9996061E+03  0.7818608E-02  0.8681413E-01
          2   -1    0    0  501    0  0.00000000000E+00  0.00000000000E+00  0.69165627876E+03  0.69165627876E+03  0.00000000000E+00 0. -1.
         -2   -1    0    0    0  501 -0.00000000000E+00 -0.00000000000E+00 -0.36116655214E+03  0.36116655214E+03  0.00000000000E+00 0. -1.
         36    2    1    2    0    0 -0.14210854715E-13 -0.71054273576E-14  0.33048972662E+03  0.10528228309E+04  0.99960614937E+03 0.  0.
         25    2    3    3    0    0  0.73813074160E+02  0.51280024479E+02 -0.45067136602E+02  0.15998629895E+03  0.12444500079E+03 0.  0.
         35    2    3    3    0    0 -0.73813074160E+02 -0.51280024479E+02  0.37555686322E+03  0.89283653195E+03  0.80500689714E+03 0.  0.
         22    1    5    5    0    0 -0.41218231011E+02  0.20246132915E+03  0.54710375906E+03  0.58481796787E+03  0.00000000000E+00 0.  1.
         22    1    5    5    0    0 -0.32594843149E+02 -0.25374135363E+03 -0.17154689584E+03  0.30801856407E+03  0.00000000000E+00 0.  1.
          5    1    4    4  502    0  0.48861741321E+02 -0.34046362425E+02  0.10048895526E+01  0.59747170329E+02  0.47000000000E+01 0. -1.
         -5    1    4    4    0  502  0.24951332839E+02  0.85326386905E+02 -0.46072026154E+02  0.10023912862E+03  0.47000000000E+01 0. -1.
<mgrwt>
<rscale>  0 0.99960615E+03</rscale>
<asrwt>0</asrwt>
<pdfrwt beam="1">  1        2 0.10640866E+00 0.99960615E+03</pdfrwt>
<pdfrwt beam="2">  1       -2 0.55564085E-01 0.99960615E+03</pdfrwt>
<totfact> 0.15322132E+02</totfact>
</mgrwt>
</event>
<event>
 9    1  0.4246427E-036  0.9971003E+03  0.7818608E-02  0.8683804E-01
          1   -1    0    0  501    0  0.00000000000E+00  0.00000000000E+00  0.43194400663E+03  0.43194400663E+03  0.00000000000E+00 0.  1.
         -1   -1    0    0    0  501 -0.00000000000E+00 -0.00000000000E+00 -0.57542705233E+03  0.57542705233E+03  0.00000000000E+00 0.  1.
         36    2    1    2    0    0  0.00000000000E+00 -0.10658141036E-13 -0.14348304571E+03  0.10073710590E+04  0.99710032897E+03 0.  0.
         25    2    3    3    0    0  0.45557220129E+02  0.78114262504E+01 -0.15904454026E+03  0.20605122591E+03  0.12257839625E+03 0.  0.
         35    2    3    3    0    0 -0.45557220129E+02 -0.78114262504E+01  0.15561494552E+02  0.80131983305E+03  0.79983425536E+03 0.  0.
         22    1    5    5    0    0 -0.18603024478E+03  0.22221040664E+03  0.29468509197E+03  0.41330862587E+03  0.00000000000E+00 0. -1.
         22    1    5    5    0    0  0.14047302465E+03 -0.23002183289E+03 -0.27912359742E+03  0.38801120718E+03  0.00000000000E+00 0. -1.
          5    1    4    4  502    0  0.16695968894E+02 -0.25826218357E+02 -0.15845133631E+03  0.16147651505E+03  0.47000000000E+01 0.  1.
         -5    1    4    4    0  502  0.28861251235E+02  0.33637644607E+02 -0.59320394472E+00  0.44574710863E+02  0.47000000000E+01 0.  1.
<mgrwt>
<rscale>  0 0.99710033E+03</rscale>
<asrwt>0</asrwt>
<pdfrwt beam="1">  1        1 0.66452924E-01 0.99710033E+03</pdfrwt>
<pdfrwt beam="2">  1       -1 0.88527239E-01 0.99710033E+03</pdfrwt>
<totfact> 0.80629707E+01</totfact>
</mgrwt>
</event>
<event>
 9    1  0.4246427E-036  0.1001629E+04  0.7818608E-02  0.8679489E-01
          2   -1    0    0  501    0  0.00000000000E+00  0.00000000000E+00  0.23562884482E+03  0.23562884482E+03  0.00000000000E+00 0.  1.
         -2   -1    0    0    0  501 -0.00000000000E+00 -0.00000000000E+00 -0.10644494503E+04  0.10644494503E+04  0.00000000000E+00 0.  1.
         36    2    1    2    0    0  0.00000000000E+00 -0.14210854715E-13 -0.82882060551E+03  0.13000782952E+04  0.10016286624E+04 0.  0.
         25    2    3    3    0    0  0.88545786515E+02  0.85441736091E+02 -0.24983105504E+03  0.30509155774E+03  0.12459797736E+03 0.  0.
         35    2    3    3    0    0 -0.88545786515E+02 -0.85441736091E+02 -0.57898955047E+03  0.99498673742E+03  0.79976812984E+03 0.  0.
         22    1    5    5    0    0  0.32544878756E+03 -0.16231820624E+02 -0.45054952632E+03  0.55603530552E+03  0.00000000000E+00 0. -1.
         22    1    5    5    0    0 -0.41399457407E+03 -0.69209915467E+02 -0.12844002415E+03  0.43895143190E+03  0.00000000000E+00 0. -1.
          5    1    4    4  502    0  0.78072764741E+02 -0.53738174702E+01 -0.15253879909E+03  0.17150629649E+03  0.47000000000E+01 0.  1.
         -5    1    4    4    0  502  0.10473021774E+02  0.90815553561E+02 -0.97292255954E+02  0.13358526125E+03  0.47000000000E+01 0.  1.
<mgrwt>
<rscale>  0 0.10016287E+04</rscale>
<asrwt>0</asrwt>
<pdfrwt beam="1">  1        2 0.36250591E-01 0.10016287E+04</pdfrwt>
<pdfrwt beam="2">  1       -2 0.16376145E+00 0.10016287E+04</pdfrwt>
<totfact> 0.38015969E+01</totfact>
</mgrwt>
</event>
<event>
 9    1  0.4246427E-036  0.1000149E+04  0.7818608E-02  0.8680896E-01
          1   -1    0    0  501    0  0.00000000000E+00  0.00000000000E+00  0.24831728420E+04  0.24831728420E+04  0.00000000000E+00 0. -1.
         -1   -1    0    0    0  501 -0.00000000000E+00 -0.00000000000E+00 -0.10070768549E+03  0.10070768549E+03  0.00000000000E+00 0. -1.
         36    2    1    2    0    0  0.14210854715E-13  0.14210854715E-13  0.23824651565E+04  0.25838805274E+04  0.10001491681E+04 0.  0.
         25    2    3    3    0    0 -0.92772634217E+02  0.82457528944E+02  0.27959080195E+03  0.33050968949E+03  0.12513845362E+03 0.  0.
         35    2    3    3    0    0  0.92772634217E+02 -0.82457528944E+02  0.21028743545E+04  0.22533708380E+04  0.80012097631E+03 0.  0.
         22    1    5    5    0    0  0.24741151770E+03  0.18974585347E+03  0.17666924331E+04  0.17939950114E+04  0.00000000000E+00 0. -1.
         22    1    5    5    0    0 -0.15463888348E+03 -0.27220338241E+03  0.33618192144E+03  0.45937582651E+03  0.00000000000E+00 0. -1.
          5    1    4    4  502    0 -0.46691016323E+02  0.10624172522E+03  0.14233004804E+03  0.18370434878E+03  0.47000000000E+01 0.  1.
         -5    1    4    4    0  502 -0.46081617894E+02 -0.23784196278E+02  0.13726075390E+03  0.14680534071E+03  0.47000000000E+01 0.  1.
<mgrwt>
<rscale>  0 0.10001492E+04</rscale>
<asrwt>0</asrwt>
<pdfrwt beam="1">  1        1 0.38202655E+00 0.10001492E+04</pdfrwt>
<pdfrwt beam="2">  1       -1 0.15493492E-01 0.10001492E+04</pdfrwt>
<totfact> 0.44276549E+01</totfact>
</mgrwt>
</event>
<event>
 9    1  0.4246427E-036  0.1000876E+04  0.7818608E-02  0.8680204E-01
          2   -1    0    0  501    0  0.00000000000E+00  0.00000000000E+00  0.13550160216E+04  0.13550160216E+04  0.00000000000E+00 0.  1.
         -2   -1    0    0    0  501 -0.00000000000E+00 -0.00000000000E+00 -0.18482311287E+03  0.18482311287E+03  0.00000000000E+00 0.  1.
         36    2    1    2    0    0 -0.14210854715E-13  0.00000000000E+00  0.11701929088E+04  0.15398391345E+04  0.10008761744E+04 0.  0.
         25    2    3    3    0    0  0.10866351849E+03 -0.44628065874E+02  0.33888950584E+03  0.37980791268E+03  0.12493409803E+03 0.  0.
         35    2    3    3    0    0 -0.10866351849E+03  0.44628065874E+02  0.83130340292E+03  0.11600312218E+04  0.80050463045E+03 0.  0.
         22    1    5    5    0    0 -0.17591543449E+03 -0.19599077990E+03  0.86839572279E+03  0.90745234435E+03  0.00000000000E+00 0. -1.
         22    1    5    5    0    0  0.67251916005E+02  0.24061884578E+03 -0.37092319874E+02  0.25257887747E+03  0.00000000000E+00 0. -1.
          5    1    4    4  502    0  0.44675757926E+02 -0.84671276285E+02  0.18774004137E+03  0.21079269795E+03  0.47000000000E+01 0. -1.
         -5    1    4    4    0  502  0.63987760563E+02  0.40043210410E+02  0.15114946447E+03  0.16901521473E+03  0.47000000000E+01 0. -1.
<mgrwt>
<rscale>  0 0.10008762E+04</rscale>
<asrwt>0</asrwt>
<pdfrwt beam="1">  1        2 0.20846400E+00 0.10008762E+04</pdfrwt>
<pdfrwt beam="2">  1       -2 0.28434326E-01 0.10008762E+04</pdfrwt>
<totfact> 0.20876956E+02</totfact>
</mgrwt>
</event>
<event>
 9    1  0.4246427E-036  0.1000079E+04  0.7818608E-02  0.8680963E-01
         -2   -1    0    0    0  501 -0.00000000000E+00  0.00000000000E+00  0.10601783833E+03  0.10601783833E+03  0.00000000000E+00 0. -1.
          2   -1    0    0  501    0  0.00000000000E+00 -0.00000000000E+00 -0.23584647685E+04  0.23584647685E+04  0.00000000000E+00 0. -1.
         36    2    1    2    0    0  0.00000000000E+00  0.00000000000E+00 -0.22524469302E+04  0.24644826069E+04  0.10000786700E+04 0.  0.
         25    2    3    3    0    0  0.37861790905E+02  0.13371540426E+03 -0.37862708152E+03  0.42221742679E+03  0.12488300156E+03 0.  0.
         35    2    3    3    0    0 -0.37861790905E+02 -0.13371540426E+03 -0.18738198487E+04  0.20422651801E+04  0.80020804536E+03 0.  0.
         22    1    5    5    0    0 -0.94001673037E+02  0.29716582972E+03 -0.40818670164E+03  0.51357592261E+03  0.00000000000E+00 0. -1.
         22    1    5    5    0    0  0.56139882132E+02 -0.43088123398E+03 -0.14656331471E+04  0.15286892575E+04  0.00000000000E+00 0. -1.
          5    1    4    4  502    0 -0.11164421030E+02 -0.11707032011E+02 -0.39509041197E+01  0.17303136675E+02  0.47000000000E+01 0.  1.
         -5    1    4    4    0  502  0.49026211935E+02  0.14542243627E+03 -0.37467617740E+03  0.40491429012E+03  0.47000000000E+01 0.  1.
<mgrwt>
<rscale>  0 0.10000787E+04</rscale>
<asrwt>0</asrwt>
<pdfrwt beam="1">  1        2 0.36284073E+00 0.10000787E+04</pdfrwt>
<pdfrwt beam="2">  1       -2 0.16310437E-01 0.10000787E+04</pdfrwt>
<totfact> 0.14712438E+02</totfact>
</mgrwt>
</event>
<event>
 9    1  0.4246427E-036  0.1000544E+04  0.7818608E-02  0.8680520E-01
         -2   -1    0    0    0  501 -0.00000000000E+00  0.00000000000E+00  0.18102397326E+03  0.18102397326E+03  0.00000000000E+00 0. -1.
          2   -1    0    0  501    0  0.00000000000E+00 -0.00000000000E+00 -0.13825360533E+04  0.13825360533E+04  0.00000000000E+00 0. -1.
         36    2    1    2    0    0  0.00000000000E+00  0.71054273576E-14 -0.12015120801E+04  0.15635600266E+04  0.10005441910E+04 0.  0.
         25    2    3    3    0    0 -0.46454555809E+02 -0.13304272515E+02 -0.43296851702E+03  0.45322119198E+03  0.12495072112E+03 0.  0.
         35    2    3    3    0    0  0.46454555809E+02  0.13304272515E+02 -0.76854356305E+03  0.11103388346E+04  0.79991130129E+03 0.  0.
         22    1    5    5    0    0 -0.78348565555E+02 -0.29255458436E+03 -0.33793104335E+02  0.30474359133E+03  0.00000000000E+00 0.  1.
         22    1    5    5    0    0  0.12480312136E+03  0.30585885687E+03 -0.73475045871E+03  0.80559524329E+03  0.00000000000E+00 0.  1.
          5    1    4    4  502    0  0.25383455091E+02 -0.39704376511E+02 -0.89070235172E+02  0.10087791681E+03  0.47000000000E+01 0. -1.
         -5    1    4    4    0  502 -0.71838010900E+02  0.26400103996E+02 -0.34389828185E+03  0.35234327517E+03  0.47000000000E+01 0. -1.
<mgrwt>
<rscale>  0 0.10005442E+04</rscale>
<asrwt>0</asrwt>
<pdfrwt beam="1">  1        2 0.21269785E+00 0.10005442E+04</pdfrwt>
<pdfrwt beam="2">  1       -2 0.27849842E-01 0.10005442E+04</pdfrwt>
<totfact> 0.20901321E+02</totfact>
</mgrwt>
</event>
<event>
 9    1  0.4246427E-036  0.9998936E+03  0.7818608E-02  0.8681139E-01
         -2   -1    0    0    0  501 -0.00000000000E+00  0.00000000000E+00  0.10421992139E+03  0.10421992139E+03  0.00000000000E+00 0.  1.
          2   -1    0    0  501    0  0.00000000000E+00 -0.00000000000E+00 -0.23982634090E+04  0.23982634090E+04  0.00000000000E+00 0.  1.
         36    2    1    2    0    0  0.00000000000E+00  0.14210854715E-13 -0.22940434876E+04  0.25024833304E+04  0.99989364229E+03 0.  0.
         25    2    3    3    0    0 -0.46084118265E+02  0.38230703951E+02 -0.74631165450E+03  0.75903880525E+03  0.12479378817E+03 0.  0.
         35    2    3    3    0    0  0.46084118265E+02 -0.38230703951E+02 -0.15477318331E+04  0.17434445252E+04  0.80033721165E+03 0.  0.
         22    1    5    5    0    0  0.29141242242E+02 -0.13287638596E+03  0.48423437301E+02  0.14439589754E+03  0.00000000000E+00 0.  1.
         22    1    5    5    0    0  0.16942876023E+02  0.94645682013E+02 -0.15961552704E+04  0.15990486276E+04  0.00000000000E+00 0.  1.
          5    1    4    4  502    0 -0.43157988519E+02  0.66363277117E+02 -0.70063578311E+03  0.70510941498E+03  0.47000000000E+01 0.  1.
         -5    1    4    4    0  502 -0.29261297460E+01 -0.28132573167E+02 -0.45675871388E+02  0.53929390274E+02  0.47000000000E+01 0.  1.
<mgrwt>
<rscale>  0 0.99989364E+03</rscale>
<asrwt>0</asrwt>
<pdfrwt beam="1">  1        2 0.36896358E+00 0.99989364E+03</pdfrwt>
<pdfrwt beam="2">  1       -2 0.16033835E-01 0.99989364E+03</pdfrwt>
<totfact> 0.14338024E+02</totfact>
</mgrwt>
</event>
<event>
 9    1  0.4246427E-036  0.9999003E+03  0.7818608E-02  0.8681133E-01
          1   -1    0    0  501    0  0.00000000000E+00  0.00000000000E+00  0.28417386843E+03  0.28417386843E+03  0.00000000000E+00 0. -1.
         -1   -1    0    0    0  501 -0.00000000000E+00 -0.00000000000E+00 -0.87956770207E+03  0.87956770207E+03  0.00000000000E+00 0. -1.
         36    2    1    2    0    0 -0.17763568394E-13 -0.71054273576E-14 -0.59539383364E+03  0.11637415705E+04  0.99990030791E+03 0.  0.
         25    2    3    3    0    0  0.40007230482E+01 -0.20997739476E+01 -0.27519868621E+03  0.30162800631E+03  0.12338850214E+03 0.  0.
         35    2    3    3    0    0 -0.40007230482E+01  0.20997739476E+01 -0.32019514743E+03  0.86211356419E+03  0.80043391375E+03 0.  0.
         22    1    5    5    0    0  0.16001669192E+03  0.80911493586E+02  0.22479320277E+03  0.28754824899E+03  0.00000000000E+00 0.  1.
         22    1    5    5    0    0 -0.16401741497E+03 -0.78811719638E+02 -0.54498835020E+03  0.57456531519E+03  0.00000000000E+00 0.  1.
          5    1    4    4  502    0  0.17865182891E+02 -0.56762278235E+02 -0.90160667747E+02  0.10813027790E+03  0.47000000000E+01 0.  1.
         -5    1    4    4    0  502 -0.13864459843E+02  0.54662504287E+02 -0.18503801846E+03  0.19349772841E+03  0.47000000000E+01 0.  1.
<mgrwt>
<rscale>  0 0.99990031E+03</rscale>
<asrwt>0</asrwt>
<pdfrwt beam="1">  1        1 0.43719056E-01 0.99990031E+03</pdfrwt>
<pdfrwt beam="2">  1       -1 0.13531811E+00 0.99990031E+03</pdfrwt>
<totfact> 0.51406352E+01</totfact>
</mgrwt>
</event>
<event>
 9    1  0.4246427E-036  0.9976118E+03  0.7818608E-02  0.8683316E-01
          2   -1    0    0  501    0  0.00000000000E+00  0.00000000000E+00  0.22884382390E+03  0.22884382390E+03  0.00000000000E+00 0. -1.
         -2   -1    0    0    0  501 -0.00000000000E+00 -0.00000000000E+00 -0.10872362997E+04  0.10872362997E+04  0.00000000000E+00 0. -1.
         36    2    1    2    0    0  0.14210854715E-13  0.00000000000E+00 -0.85839247583E+03  0.13160801236E+04  0.99761177281E+03 0.  0.
         25    2    3    3    0    0  0.83368826611E+02 -0.56897228533E+02 -0.28888626226E+03  0.33012449179E+03  0.12385173271E+03 0.  0.
         35    2    3    3    0    0 -0.83368826611E+02  0.56897228533E+02 -0.56950621358E+03  0.98595563184E+03  0.79848827467E+03 0.  0.
         22    1    5    5    0    0  0.93711815892E+00  0.34289993769E+02  0.20434162295E+03  0.20720082223E+03  0.00000000000E+00 0. -1.
         22    1    5    5    0    0 -0.84305944770E+02  0.22607234764E+02 -0.77384783653E+03  0.77875480961E+03  0.00000000000E+00 0. -1.
          5    1    4    4  502    0  0.12919568946E+02 -0.83198409044E+02 -0.14674753780E+03  0.16925076183E+03  0.47000000000E+01 0.  1.
         -5    1    4    4    0  502  0.70449257665E+02  0.26301180511E+02 -0.14213872445E+03  0.16087372996E+03  0.47000000000E+01 0.  1.
<mgrwt>
<rscale>  0 0.99761177E+03</rscale>
<asrwt>0</asrwt>
<pdfrwt beam="1">  1        2 0.35206743E-01 0.99761177E+03</pdfrwt>
<pdfrwt beam="2">  1       -2 0.16726712E+00 0.99761177E+03</pdfrwt>
<totfact> 0.36962456E+01</totfact>
</mgrwt>
</event>
<event>
 9    1  0.4246427E-036  0.9979016E+03  0.7818608E-02  0.8683039E-01
         -2   -1    0    0    0  501 -0.00000000000E+00  0.00000000000E+00  0.70463935153E+03  0.70463935153E+03  0.00000000000E+00 0. -1.
          2   -1    0    0  501    0  0.00000000000E+00 -0.00000000000E+00 -0.35330397943E+03  0.35330397943E+03  0.00000000000E+00 0. -1.
         36    2    1    2    0    0 -0.28421709430E-13 -0.71054273576E-14  0.35133537210E+03  0.10579433310E+04  0.99790157221E+03 0.  0.
         25    2    3    3    0    0 -0.13000240818E+03  0.39653151371E+02  0.33869111210E+02  0.18767975147E+03  0.12491426609E+03 0.  0.
         35    2    3    3    0    0  0.13000240818E+03 -0.39653151371E+02  0.31746626089E+03  0.87026357948E+03  0.79881216342E+03 0.  0.
         22    1    5    5    0    0  0.36381272992E+03 -0.27899951237E+03  0.94301298929E+02  0.46807388876E+03  0.00000000000E+00 0. -1.
         22    1    5    5    0    0 -0.23381032175E+03  0.23934636100E+03  0.22316496196E+03  0.40218969072E+03  0.00000000000E+00 0. -1.
          5    1    4    4  502    0 -0.92586692796E+01  0.36469732918E+02  0.53134178675E+02  0.65277065800E+02  0.47000000000E+01 0. -1.
         -5    1    4    4    0  502 -0.12074373890E+03  0.31834184528E+01 -0.19265067465E+02  0.12240268567E+03  0.47000000000E+01 0. -1.
<mgrwt>
<rscale>  0 0.99790157E+03</rscale>
<asrwt>0</asrwt>
<pdfrwt beam="1">  1        2 0.54354459E-01 0.99790157E+03</pdfrwt>
<pdfrwt beam="2">  1       -2 0.10840605E+00 0.99790157E+03</pdfrwt>
<totfact> 0.73464184E+01</totfact>
</mgrwt>
</event>
<event>
 9    1  0.4246427E-036  0.1000059E+04  0.7818608E-02  0.8680982E-01
          2   -1    0    0  501    0  0.00000000000E+00  0.00000000000E+00  0.10563805634E+04  0.10563805634E+04  0.00000000000E+00 0.  1.
         -2   -1    0    0    0  501 -0.00000000000E+00 -0.00000000000E+00 -0.23668513752E+03  0.23668513752E+03  0.00000000000E+00 0.  1.
         36    2    1    2    0    0  0.00000000000E+00  0.00000000000E+00  0.81969542589E+03  0.12930657009E+04  0.10000591561E+04 0.  0.
         25    2    3    3    0    0 -0.13436326719E+03  0.36500939888E+02  0.13336734579E+03  0.22989389433E+03  0.12521400699E+03 0.  0.
         35    2    3    3    0    0  0.13436326719E+03 -0.36500939888E+02  0.68632808009E+03  0.10631718066E+04  0.79993890430E+03 0.  0.
         22    1    5    5    0    0 -0.27276097112E+03  0.16770791705E+03  0.44352603806E+03  0.54702818871E+03  0.00000000000E+00 0. -1.
         22    1    5    5    0    0  0.40712423830E+03 -0.20420885693E+03  0.24280204203E+03  0.51614361788E+03  0.00000000000E+00 0. -1.
          5    1    4    4  502    0 -0.10881790531E+03  0.45249169963E+02  0.15514540059E+03  0.19488717049E+03  0.47000000000E+01 0.  1.
         -5    1    4    4    0  502 -0.25545361880E+02 -0.87482300754E+01 -0.21778054800E+02  0.35006723838E+02  0.47000000000E+01 0.  1.
<mgrwt>
<rscale>  0 0.10000592E+04</rscale>
<asrwt>0</asrwt>
<pdfrwt beam="1">  1        2 0.16252008E+00 0.10000592E+04</pdfrwt>
<pdfrwt beam="2">  1       -2 0.36413099E-01 0.10000592E+04</pdfrwt>
<totfact> 0.19886108E+02</totfact>
</mgrwt>
</event>
<event>
 9    1  0.4246427E-036  0.1000337E+04  0.7818608E-02  0.8680717E-01
          2   -1    0    0  501    0  0.00000000000E+00  0.00000000000E+00  0.12756847989E+04  0.12756847989E+04  0.00000000000E+00 0.  1.
         -2   -1    0    0    0  501 -0.00000000000E+00 -0.00000000000E+00 -0.19610528176E+03  0.19610528176E+03  0.00000000000E+00 0.  1.
         36    2    1    2    0    0  0.00000000000E+00  0.21316282073E-13  0.10795795171E+04  0.14717900806E+04  0.10003369970E+04 0.  0.
         25    2    3    3    0    0 -0.12508551076E+03 -0.47228574298E+00  0.10964910673E+03  0.20818934660E+03  0.12519292862E+03 0.  0.
         35    2    3    3    0    0  0.12508551076E+03  0.47228574298E+00  0.96993041038E+03  0.12636007340E+04  0.80017198525E+03 0.  0.
         22    1    5    5    0    0  0.23444816368E+03  0.35905100280E+03  0.43923168659E+03  0.61384691786E+03  0.00000000000E+00 0.  1.
         22    1    5    5    0    0 -0.10936265293E+03 -0.35857871705E+03  0.53069872379E+03  0.64975381615E+03  0.00000000000E+00 0.  1.
          5    1    4    4  502    0 -0.69419390117E+02  0.50669388071E+02  0.99837465369E+02  0.13181823889E+03  0.47000000000E+01 0. -1.
         -5    1    4    4    0  502 -0.55666120638E+02 -0.51141673814E+02  0.98116413581E+01  0.76371107715E+02  0.47000000000E+01 0. -1.
<mgrwt>
<rscale>  0 0.10003370E+04</rscale>
<asrwt>0</asrwt>
<pdfrwt beam="1">  1        2 0.19625919E+00 0.10003370E+04</pdfrwt>
<pdfrwt beam="2">  1       -2 0.30170044E-01 0.10003370E+04</pdfrwt>
<totfact> 0.20837025E+02</totfact>
</mgrwt>
</event>
<event>
 9    1  0.4246427E-036  0.1000059E+04  0.7818608E-02  0.8680981E-01
         -2   -1    0    0    0  501 -0.00000000000E+00  0.00000000000E+00  0.44353893866E+03  0.44353893866E+03  0.00000000000E+00 0. -1.
          2   -1    0    0  501    0  0.00000000000E+00 -0.00000000000E+00 -0.56371543472E+03  0.56371543472E+03  0.00000000000E+00 0. -1.
         36    2    1    2    0    0  0.42632564146E-13  0.00000000000E+00 -0.12017649606E+03  0.10072543734E+04  0.10000594895E+04 0.  0.
         25    2    3    3    0    0  0.91144949706E+02 -0.10346289113E+03 -0.18384139100E+02  0.18680704085E+03  0.12468729784E+03 0.  0.
         35    2    3    3    0    0 -0.91144949706E+02  0.10346289113E+03 -0.10179235696E+03  0.82044733253E+03  0.80234666437E+03 0.  0.
         22    1    5    5    0    0 -0.37550063112E+03  0.19251186071E+03 -0.24702943566E+03  0.48896327323E+03  0.00000000000E+00 0.  1.
         22    1    5    5    0    0  0.28435568142E+03 -0.89048969578E+02  0.14523707870E+03  0.33148405930E+03  0.00000000000E+00 0.  1.
          5    1    4    4  502    0  0.10152222251E+03 -0.92902381181E+02 -0.54036374157E+02  0.14791765893E+03  0.47000000000E+01 0. -1.
         -5    1    4    4    0  502 -0.10377272804E+02 -0.10560509949E+02  0.35652235058E+02  0.38889381916E+02  0.47000000000E+01 0. -1.
<mgrwt>
<rscale>  0 0.10000595E+04</rscale>
<asrwt>0</asrwt>
<pdfrwt beam="1">  1        2 0.86725452E-01 0.10000595E+04</pdfrwt>
<pdfrwt beam="2">  1       -2 0.68236760E-01 0.10000595E+04</pdfrwt>
<totfact> 0.12709906E+02</totfact>
</mgrwt>
</event>
<event>
 9    1  0.4246427E-036  0.9998929E+03  0.7818608E-02  0.8681140E-01
         -1   -1    0    0    0  501 -0.00000000000E+00  0.00000000000E+00  0.88647687633E+03  0.88647687633E+03  0.00000000000E+00 0.  1.
          1   -1    0    0  501    0  0.00000000000E+00 -0.00000000000E+00 -0.28195482032E+03  0.28195482032E+03  0.00000000000E+00 0.  1.
         36    2    1    2    0    0  0.00000000000E+00  0.00000000000E+00  0.60452205601E+03  0.11684316966E+04  0.99989285102E+03 0.  0.
         25    2    3    3    0    0 -0.95605633423E+02 -0.22115212518E+02  0.23137714789E+03  0.28008272961E+03  0.12361808561E+03 0.  0.
         35    2    3    3    0    0  0.95605633423E+02  0.22115212518E+02  0.37314490812E+03  0.88834896704E+03  0.80018575657E+03 0.  0.
         22    1    5    5    0    0  0.21946022200E+03 -0.25964679711E+03  0.45677667818E+03  0.56940686861E+03  0.00000000000E+00 0.  1.
         22    1    5    5    0    0 -0.12385458858E+03  0.28176200963E+03 -0.83631770067E+02  0.31894209843E+03  0.00000000000E+00 0.  1.
          5    1    4    4  502    0 -0.26743710323E+02 -0.15647265192E+02 -0.67600527376E+01  0.32060119508E+02  0.47000000000E+01 0.  1.
         -5    1    4    4    0  502 -0.68861923100E+02 -0.64679473258E+01  0.23813720063E+03  0.24802261010E+03  0.47000000000E+01 0.  1.
<mgrwt>
<rscale>  0 0.99989285E+03</rscale>
<asrwt>0</asrwt>
<pdfrwt beam="1">  1        1 0.43377665E-01 0.99989285E+03</pdfrwt>
<pdfrwt beam="2">  1       -1 0.13638106E+00 0.99989285E+03</pdfrwt>
<totfact> 0.50853089E+01</totfact>
</mgrwt>
</event>
<event>
 9    1  0.4246427E-036  0.1001759E+04  0.7818608E-02  0.8679364E-01
         -2   -1    0    0    0  501 -0.00000000000E+00  0.00000000000E+00  0.11271335986E+03  0.11271335986E+03  0.00000000000E+00 0.  1.
          2   -1    0    0  501    0  0.00000000000E+00 -0.00000000000E+00 -0.22258270304E+04  0.22258270304E+04  0.00000000000E+00 0.  1.
         36    2    1    2    0    0 -0.71054273576E-14 -0.28421709430E-13 -0.21131136705E+04  0.23385403902E+04  0.10017593385E+04 0.  0.
         25    2    3    3    0    0 -0.49474046078E+02  0.21764051989E+02 -0.87626586767E+02  0.16056490879E+03  0.12321248327E+03 0.  0.
         35    2    3    3    0    0  0.49474046078E+02 -0.21764051989E+02 -0.20254870837E+04  0.21779754814E+04  0.79878527535E+03 0.  0.
         22    1    5    5    0    0  0.16796563602E+03 -0.31980755799E+03 -0.48663983294E+03  0.60605911926E+03  0.00000000000E+00 0.  1.
         22    1    5    5    0    0 -0.11849158994E+03  0.29804350600E+03 -0.15388472508E+04  0.15719163622E+04  0.00000000000E+00 0.  1.
          5    1    4    4  502    0 -0.36516139561E+02  0.54196382196E+02 -0.10303602214E+03  0.12210318649E+03  0.47000000000E+01 0. -1.
         -5    1    4    4    0  502 -0.12957906516E+02 -0.32432330207E+02  0.15409435375E+02  0.38461722303E+02  0.47000000000E+01 0. -1.
<mgrwt>
<rscale>  0 0.10017593E+04</rscale>
<asrwt>0</asrwt>
<pdfrwt beam="1">  1        2 0.34243495E+00 0.10017593E+04</pdfrwt>
<pdfrwt beam="2">  1       -2 0.17340516E-01 0.10017593E+04</pdfrwt>
<totfact> 0.15872852E+02</totfact>
</mgrwt>
</event>
<event>
 9    1  0.4246427E-036  0.9984699E+03  0.7818608E-02  0.8682496E-01
          1   -1    0    0  501    0  0.00000000000E+00  0.00000000000E+00  0.59352846488E+03  0.59352846488E+03  0.00000000000E+00 0.  1.
         -1   -1    0    0    0  501 -0.00000000000E+00 -0.00000000000E+00 -0.41992175868E+03  0.41992175868E+03  0.00000000000E+00 0.  1.
         36    2    1    2    0    0 -0.71054273576E-14  0.00000000000E+00  0.17360670619E+03  0.10134502236E+04  0.99846986294E+03 0.  0.
         25    2    3    3    0    0 -0.58305060735E+02  0.11345342384E+03  0.82354875389E+02  0.19809671002E+03  0.12723529987E+03 0.  0.
         35    2    3    3    0    0  0.58305060735E+02 -0.11345342384E+03  0.91251830803E+02  0.81535351354E+03  0.80012704986E+03 0.  0.
         22    1    5    5    0    0  0.19052380206E+03 -0.14128673086E+03  0.40746903404E+03  0.47147881519E+03  0.00000000000E+00 0. -1.
         22    1    5    5    0    0 -0.13221874132E+03  0.27833307018E+02 -0.31621720324E+03  0.34387469835E+03  0.00000000000E+00 0. -1.
          5    1    4    4  502    0 -0.72493526559E+02  0.12802553621E+03  0.93547618759E+02  0.17441071151E+03  0.47000000000E+01 0. -1.
         -5    1    4    4    0  502  0.14188465824E+02 -0.14572112367E+02 -0.11192743370E+02  0.23685998510E+02  0.47000000000E+01 0. -1.
<mgrwt>
<rscale>  0 0.99846986E+03</rscale>
<asrwt>0</asrwt>
<pdfrwt beam="1">  1        1 0.91312072E-01 0.99846986E+03</pdfrwt>
<pdfrwt beam="2">  1       -1 0.64603347E-01 0.99846986E+03</pdfrwt>
<totfact> 0.98449332E+01</totfact>
</mgrwt>
</event>
<event>
 9    1  0.4246427E-036  0.9997189E+03  0.7818608E-02  0.8681306E-01
         -2   -1    0    0    0  501 -0.00000000000E+00  0.00000000000E+00  0.29871651472E+03  0.29871651472E+03  0.00000000000E+00 0.  1.
          2   -1    0    0  501    0  0.00000000000E+00 -0.00000000000E+00 -0.83644345638E+03  0.83644345638E+03  0.00000000000E+00 0.  1.
         36    2    1    2    0    0 -0.14210854715E-13  0.00000000000E+00 -0.53772694166E+03  0.11351599711E+04  0.99971890859E+03 0.  0.
         25    2    3    3    0    0  0.89083864017E+01 -0.14226371380E+03 -0.10762094828E+03  0.21741243929E+03  0.12396603017E+03 0.  0.
         35    2    3    3    0    0 -0.89083864017E+01  0.14226371380E+03 -0.43010599339E+03  0.91774753181E+03  0.79809212688E+03 0.  0.
         22    1    5    5    0    0 -0.29237237776E+03  0.15456887831E+03  0.74352878979E+02  0.33897123186E+03  0.00000000000E+00 0.  1.
         22    1    5    5    0    0  0.28346399136E+03 -0.12305164506E+02 -0.50445887237E+03  0.57877629995E+03  0.00000000000E+00 0.  1.
          5    1    4    4  502    0  0.47926825202E+02 -0.73418365961E+02 -0.10663717867E+03  0.13813332295E+03  0.47000000000E+01 0.  1.
         -5    1    4    4    0  502 -0.39018438801E+02 -0.68845347838E+02 -0.98376961189E+00  0.79279116342E+02  0.47000000000E+01 0.  1.
<mgrwt>
<rscale>  0 0.99971891E+03</rscale>
<asrwt>0</asrwt>
<pdfrwt beam="1">  1        2 0.12868361E+00 0.99971891E+03</pdfrwt>
<pdfrwt beam="2">  1       -2 0.45956387E-01 0.99971891E+03</pdfrwt>
<totfact> 0.17626238E+02</totfact>
</mgrwt>
</event>
<event>
 9    1  0.4246427E-036  0.1000573E+04  0.7818608E-02  0.8680492E-01
         -2   -1    0    0    0  501 -0.00000000000E+00  0.00000000000E+00  0.53943353784E+03  0.53943353784E+03  0.00000000000E+00 0.  1.
          2   -1    0    0  501    0  0.00000000000E+00 -0.00000000000E+00 -0.46398066068E+03  0.46398066068E+03  0.00000000000E+00 0.  1.
         36    2    1    2    0    0  0.00000000000E+00  0.14210854715E-13  0.75452877161E+02  0.10034141985E+04  0.10005732942E+04 0.  0.
         25    2    3    3    0    0  0.46798330286E+02  0.12790977531E+03 -0.24086893851E+02  0.18618927512E+03  0.12464057677E+03 0.  0.
         35    2    3    3    0    0 -0.46798330286E+02 -0.12790977531E+03  0.99539771012E+02  0.81722492340E+03  0.79962329573E+03 0.  0.
         22    1    5    5    0    0  0.43822328928E+02  0.10892086173E+03 -0.31226635560E+03  0.33360819455E+03  0.00000000000E+00 0.  1.
         22    1    5    5    0    0 -0.90620659214E+02 -0.23683063704E+03  0.41180612661E+03  0.48361672885E+03  0.00000000000E+00 0.  1.
          5    1    4    4  502    0 -0.12627497980E+02 -0.17885007977E+02 -0.17710359852E+02  0.28549501951E+02  0.47000000000E+01 0. -1.
         -5    1    4    4    0  502  0.59425828266E+02  0.14579478329E+03 -0.63765339991E+01  0.15763977317E+03  0.47000000000E+01 0. -1.
<mgrwt>
<rscale>  0 0.10005733E+04</rscale>
<asrwt>0</asrwt>
<pdfrwt beam="1">  1        2 0.71381640E-01 0.10005733E+04</pdfrwt>
<pdfrwt beam="2">  1       -2 0.82989775E-01 0.10005733E+04</pdfrwt>
<totfact> 0.10265346E+02</totfact>
</mgrwt>
</event>
<event>
 9    1  0.4246427E-036  0.1001821E+04  0.7818608E-02  0.8679306E-01
         -2   -1    0    0    0  501 -0.00000000000E+00  0.00000000000E+00  0.88233264080E+03  0.88233264080E+03  0.00000000000E+00 0.  1.
          2   -1    0    0  501    0  0.00000000000E+00 -0.00000000000E+00 -0.28437255717E+03  0.28437255717E+03  0.00000000000E+00 0.  1.
         36    2    1    2    0    0  0.21316282073E-13  0.00000000000E+00  0.59796008363E+03  0.11667051980E+04  0.10018207212E+04 0.  0.
         25    2    3    3    0    0 -0.18938968706E+02  0.11973098920E+03  0.19875291366E+03  0.26418354702E+03  0.12488407232E+03 0.  0.
         35    2    3    3    0    0  0.18938968706E+02 -0.11973098920E+03  0.39920716998E+03  0.90252165095E+03  0.80030292488E+03 0.  0.
         22    1    5    5    0    0  0.34079782625E+03 -0.10468815342E+03 -0.38960405820E+02  0.35863725555E+03  0.00000000000E+00 0. -1.
         22    1    5    5    0    0 -0.32185885754E+03 -0.15042835774E+02  0.43816757580E+03  0.54388439541E+03  0.00000000000E+00 0. -1.
          5    1    4    4  502    0 -0.71992229250E+02  0.68217324600E+02  0.10239353476E+03  0.14262892557E+03  0.47000000000E+01 0.  1.
         -5    1    4    4    0  502  0.53053260543E+02  0.51513664595E+02  0.96359378898E+02  0.12155462145E+03  0.47000000000E+01 0.  1.
<mgrwt>
<rscale>  0 0.10018207E+04</rscale>
<asrwt>0</asrwt>
<pdfrwt beam="1">  1        2 0.43749624E-01 0.10018207E+04</pdfrwt>
<pdfrwt beam="2">  1       -2 0.13574348E+00 0.10018207E+04</pdfrwt>
<totfact> 0.52026769E+01</totfact>
</mgrwt>
</event>
<event>
 9    1  0.4246427E-036  0.9985776E+03  0.7818608E-02  0.8682394E-01
         -2   -1    0    0    0  501 -0.00000000000E+00  0.00000000000E+00  0.43830636425E+03  0.43830636425E+03  0.00000000000E+00 0.  1.
          2   -1    0    0  501    0  0.00000000000E+00 -0.00000000000E+00 -0.56875586590E+03  0.56875586590E+03  0.00000000000E+00 0.  1.
         36    2    1    2    0    0  0.21316282073E-13  0.28421709430E-13 -0.13044950165E+03  0.10070622302E+04  0.99857761988E+03 0.  0.
         25    2    3    3    0    0  0.59819617824E+02  0.12380028145E+03 -0.78996257458E+01  0.18609811810E+03  0.12516073310E+03 0.  0.
         35    2    3    3    0    0 -0.59819617824E+02 -0.12380028145E+03 -0.12254987591E+03  0.82096411205E+03  0.80003668968E+03 0.  0.
         22    1    5    5    0    0 -0.19065406748E+03  0.30705901689E+03 -0.50211575021E+02  0.36490466641E+03  0.00000000000E+00 0.  1.
         22    1    5    5    0    0  0.13083444966E+03 -0.43085929834E+03 -0.72338300888E+02  0.45605944564E+03  0.00000000000E+00 0.  1.
          5    1    4    4  502    0 -0.55730884400E+01  0.44385660184E+02  0.50567321602E+02  0.67677840973E+02  0.47000000000E+01 0. -1.
         -5    1    4    4    0  502  0.65392706264E+02  0.79414621264E+02 -0.58466947348E+02  0.11842027713E+03  0.47000000000E+01 0. -1.
<mgrwt>
<rscale>  0 0.99857762E+03</rscale>
<asrwt>0</asrwt>
<pdfrwt beam="1">  1        2 0.87500902E-01 0.99857762E+03</pdfrwt>
<pdfrwt beam="2">  1       -2 0.67431749E-01 0.99857762E+03</pdfrwt>
<totfact> 0.12904129E+02</totfact>
</mgrwt>
</event>
<event>
 9    1  0.4246427E-036  0.9973739E+03  0.7818608E-02  0.8683543E-01
         -1   -1    0    0    0  501 -0.00000000000E+00  0.00000000000E+00  0.22118983761E+03  0.22118983761E+03  0.00000000000E+00 0. -1.
          1   -1    0    0  501    0  0.00000000000E+00 -0.00000000000E+00 -0.11243224031E+04  0.11243224031E+04  0.00000000000E+00 0. -1.
         36    2    1    2    0    0 -0.71054273576E-14 -0.14210854715E-13 -0.90313256548E+03  0.13455122407E+04  0.99737393142E+03 0.  0.
         25    2    3    3    0    0  0.24849832365E+02 -0.73343421001E+02 -0.32064297482E+03  0.35331641777E+03  0.12658515788E+03 0.  0.
         35    2    3    3    0    0 -0.24849832365E+02  0.73343421001E+02 -0.58248959067E+03  0.99219582294E+03  0.79947586346E+03 0.  0.
         22    1    5    5    0    0  0.15348374358E+03 -0.60733284517E+02  0.15210962233E+03  0.22446186446E+03  0.00000000000E+00 0. -1.
         22    1    5    5    0    0 -0.17833357595E+03  0.13407670552E+03 -0.73459921299E+03  0.76773395848E+03  0.00000000000E+00 0. -1.
          5    1    4    4  502    0  0.70989420965E+02 -0.73108379849E+02 -0.21947812648E+03  0.24202700489E+03  0.47000000000E+01 0.  1.
         -5    1    4    4    0  502 -0.46139588600E+02 -0.23504115225E+00 -0.10116484833E+03  0.11128941288E+03  0.47000000000E+01 0.  1.
<mgrwt>
<rscale>  0 0.99737393E+03</rscale>
<asrwt>0</asrwt>
<pdfrwt beam="1">  1        1 0.17297268E+00 0.99737393E+03</pdfrwt>
<pdfrwt beam="2">  1       -1 0.34029205E-01 0.99737393E+03</pdfrwt>
<totfact> 0.10998265E+02</totfact>
</mgrwt>
</event>
<event>
 9    1  0.4246427E-036  0.9968832E+03  0.7818608E-02  0.8684012E-01
         -2   -1    0    0    0  501 -0.00000000000E+00  0.00000000000E+00  0.20166402781E+03  0.20166402781E+03  0.00000000000E+00 0. -1.
          2   -1    0    0  501    0  0.00000000000E+00 -0.00000000000E+00 -0.12319698707E+04  0.12319698707E+04  0.00000000000E+00 0. -1.
         36    2    1    2    0    0  0.21316282073E-13  0.00000000000E+00 -0.10303058429E+04  0.14336338985E+04  0.99688315516E+03 0.  0.
         25    2    3    3    0    0 -0.61663336114E+02  0.10012260780E+03 -0.89334508715E+02  0.19303580810E+03  0.12431920667E+03 0.  0.
         35    2    3    3    0    0  0.61663336114E+02 -0.10012260780E+03 -0.94097133417E+03  0.12405980904E+04  0.79989353452E+03 0.  0.
         22    1    5    5    0    0 -0.22669066147E+03 -0.22785553065E+03 -0.85543628259E+03  0.91382604057E+03  0.00000000000E+00 0. -1.
         22    1    5    5    0    0  0.28835399759E+03  0.12773292285E+03 -0.85535051579E+02  0.32677204983E+03  0.00000000000E+00 0. -1.
          5    1    4    4  502    0 -0.32893366982E+02  0.12607761224E+03 -0.56778583736E+02  0.14220912583E+03  0.47000000000E+01 0. -1.
         -5    1    4    4    0  502 -0.28769969132E+02 -0.25955004435E+02 -0.32555924980E+02  0.50826682268E+02  0.47000000000E+01 0. -1.
<mgrwt>
<rscale>  0 0.99688316E+03</rscale>
<asrwt>0</asrwt>
<pdfrwt beam="1">  1        2 0.18953383E+00 0.99688316E+03</pdfrwt>
<pdfrwt beam="2">  1       -2 0.31025234E-01 0.99688316E+03</pdfrwt>
<totfact> 0.20998946E+02</totfact>
</mgrwt>
</event>
<event>
 9    1  0.4246427E-036  0.9989988E+03  0.7818608E-02  0.8681992E-01
         -2   -1    0    0    0  501 -0.00000000000E+00  0.00000000000E+00  0.87409808193E+03  0.87409808193E+03  0.00000000000E+00 0.  1.
          2   -1    0    0  501    0  0.00000000000E+00 -0.00000000000E+00 -0.28543664898E+03  0.28543664898E+03  0.00000000000E+00 0.  1.
         36    2    1    2    0    0  0.00000000000E+00 -0.71054273576E-14  0.58866143294E+03  0.11595347309E+04  0.99899875353E+03 0.  0.
         25    2    3    3    0    0  0.12923029978E+03  0.21055307202E+02  0.57568960592E+02  0.18994665662E+03  0.12498700251E+03 0.  0.
         35    2    3    3    0    0 -0.12923029978E+03 -0.21055307202E+02  0.53109247235E+03  0.96958807429E+03  0.80056106780E+03 0.  0.
         22    1    5    5    0    0 -0.38492737649E+02  0.38652840728E+03  0.20132811016E+03  0.43751446654E+03  0.00000000000E+00 0. -1.
         22    1    5    5    0    0 -0.90737562126E+02 -0.40758371449E+03  0.32976436219E+03  0.53207360775E+03  0.00000000000E+00 0. -1.
          5    1    4    4  502    0  0.12574816699E+03 -0.27906725434E+02  0.26273731928E+02  0.13154385510E+03  0.47000000000E+01 0. -1.
         -5    1    4    4    0  502  0.34821327889E+01  0.48962032636E+02  0.31295228664E+02  0.58402801523E+02  0.47000000000E+01 0. -1.
<mgrwt>
<rscale>  0 0.99899875E+03</rscale>
<asrwt>0</asrwt>
<pdfrwt beam="1">  1        2 0.43913331E-01 0.99899875E+03</pdfrwt>
<pdfrwt beam="2">  1       -2 0.13447663E+00 0.99899875E+03</pdfrwt>
<totfact> 0.53155193E+01</totfact>
</mgrwt>
</event>
<event>
 9    1  0.4246427E-036  0.9992361E+03  0.7818608E-02  0.8681766E-01
          2   -1    0    0  501    0  0.00000000000E+00  0.00000000000E+00  0.19370104882E+04  0.19370104882E+04  0.00000000000E+00 0.  1.
         -2   -1    0    0    0  501 -0.00000000000E+00 -0.00000000000E+00 -0.12886776654E+03  0.12886776654E+03  0.00000000000E+00 0.  1.
         36    2    1    2    0    0 -0.28421709430E-13 -0.28421709430E-13  0.18081427217E+04  0.20658782547E+04  0.99923613900E+03 0.  0.
         25    2    3    3    0    0 -0.84783629886E+02  0.11094656659E+03  0.33714688107E+03  0.38557104367E+03  0.12449741269E+03 0.  0.
         35    2    3    3    0    0  0.84783629886E+02 -0.11094656659E+03  0.14709958406E+04  0.16803072111E+04  0.80006634474E+03 0.  0.
         22    1    5    5    0    0 -0.10914029258E+03  0.30759658521E+03  0.81892565055E+03  0.88157046447E+03  0.00000000000E+00 0. -1.
         22    1    5    5    0    0  0.19392392247E+03 -0.41854315180E+03  0.65207019005E+03  0.79873674660E+03  0.00000000000E+00 0. -1.
          5    1    4    4  502    0 -0.81683447142E+02  0.11255622645E+03  0.17621492230E+03  0.22453257780E+03  0.47000000000E+01 0.  1.
         -5    1    4    4    0  502 -0.31001827446E+01 -0.16096598649E+01  0.16093195877E+03  0.16103846587E+03  0.47000000000E+01 0.  1.
<mgrwt>
<rscale>  0 0.99923614E+03</rscale>
<asrwt>0</asrwt>
<pdfrwt beam="1">  1        2 0.29800159E+00 0.99923614E+03</pdfrwt>
<pdfrwt beam="2">  1       -2 0.19825812E-01 0.99923614E+03</pdfrwt>
<totfact> 0.18481254E+02</totfact>
</mgrwt>
</event>
<event>
 9    1  0.4246427E-036  0.9998907E+03  0.7818608E-02  0.8681142E-01
          1   -1    0    0  501    0  0.00000000000E+00  0.00000000000E+00  0.15403804216E+04  0.15403804216E+04  0.00000000000E+00 0.  1.
         -1   -1    0    0    0  501 -0.00000000000E+00 -0.00000000000E+00 -0.16226209687E+03  0.16226209687E+03  0.00000000000E+00 0.  1.
         36    2    1    2    0    0  0.28421709430E-13 -0.14210854715E-13  0.13781183247E+04  0.17026425185E+04  0.99989070839E+03 0.  0.
         25    2    3    3    0    0  0.11901243594E+03 -0.74394243721E+02  0.23492854072E+03  0.30033113834E+03  0.12372918008E+03 0.  0.
         35    2    3    3    0    0 -0.11901243594E+03  0.74394243721E+02  0.11431897840E+04  0.14023113801E+04  0.79993491058E+03 0.  0.
         22    1    5    5    0    0  0.24074425333E+03 -0.15757429127E+03  0.15825270822E+03  0.32837687562E+03  0.00000000000E+00 0.  1.
         22    1    5    5    0    0 -0.35975668928E+03  0.23196853499E+03  0.98493707580E+03  0.10739345045E+04  0.00000000000E+00 0.  1.
          5    1    4    4  502    0  0.21920613080E+02 -0.15400932120E+02 -0.11038294477E+02  0.29353635771E+02  0.47000000000E+01 0. -1.
         -5    1    4    4    0  502  0.97091822863E+02 -0.58993311601E+02  0.24596683520E+03  0.27097750257E+03  0.47000000000E+01 0. -1.
<mgrwt>
<rscale>  0 0.99989071E+03</rscale>
<asrwt>0</asrwt>
<pdfrwt beam="1">  1        1 0.23698159E+00 0.99989071E+03</pdfrwt>
<pdfrwt beam="2">  1       -1 0.24963401E-01 0.99989071E+03</pdfrwt>
<totfact> 0.92734951E+01</totfact>
</mgrwt>
</event>
<event>
 9    1  0.4246427E-036  0.1000553E+04  0.7818608E-02  0.8680512E-01
         -2   -1    0    0    0  501 -0.00000000000E+00  0.00000000000E+00  0.27260063062E+03  0.27260063062E+03  0.00000000000E+00 0. -1.
          2   -1    0    0  501    0  0.00000000000E+00 -0.00000000000E+00 -0.91810695701E+03  0.91810695701E+03  0.00000000000E+00 0. -1.
         36    2    1    2    0    0 -0.14210854715E-13 -0.71054273576E-14 -0.64550632639E+03  0.11907075876E+04  0.10005529181E+04 0.  0.
         25    2    3    3    0    0 -0.97144314592E+02  0.55632352781E+02 -0.23638683718E+02  0.17082592988E+03  0.12684925863E+03 0.  0.
         35    2    3    3    0    0  0.97144314592E+02 -0.55632352781E+02 -0.62186764267E+03  0.10198816578E+04  0.80056683311E+03 0.  0.
         22    1    5    5    0    0 -0.19322620051E+03  0.26754012714E+02  0.11300519673E+03  0.22543805412E+03  0.00000000000E+00 0.  1.
         22    1    5    5    0    0  0.29037051510E+03 -0.82386365496E+02 -0.73487283940E+03  0.79444360363E+03  0.00000000000E+00 0.  1.
          5    1    4    4  502    0  0.12819137716E+02  0.37401829092E+02  0.27205283714E+02  0.48222863594E+02  0.47000000000E+01 0.  1.
         -5    1    4    4    0  502 -0.10996345231E+03  0.18230523689E+02 -0.50843967432E+02  0.12260306628E+03  0.47000000000E+01 0.  1.
<mgrwt>
<rscale>  0 0.10005529E+04</rscale>
<asrwt>0</asrwt>
<pdfrwt beam="1">  1        2 0.14124723E+00 0.10005529E+04</pdfrwt>
<pdfrwt beam="2">  1       -2 0.41938558E-01 0.10005529E+04</pdfrwt>
<totfact> 0.18581264E+02</totfact>
</mgrwt>
</event>
<event>
 9    1  0.4246427E-036  0.9995630E+03  0.7818608E-02  0.8681454E-01
          1   -1    0    0  501    0  0.00000000000E+00  0.00000000000E+00  0.87084927468E+03  0.87084927468E+03  0.00000000000E+00 0. -1.
         -1   -1    0    0    0  501 -0.00000000000E+00 -0.00000000000E+00 -0.28682521478E+03  0.28682521478E+03  0.00000000000E+00 0. -1.
         36    2    1    2    0    0  0.35527136788E-14  0.00000000000E+00  0.58402405990E+03  0.11576744895E+04  0.99956296500E+03 0.  0.
         25    2    3    3    0    0  0.44187793169E+01  0.13847075804E+03  0.12703429210E+03  0.22603498986E+03  0.12554054655E+03 0.  0.
         35    2    3    3    0    0 -0.44187793169E+01 -0.13847075804E+03  0.45698976780E+03  0.93163949960E+03  0.79994926895E+03 0.  0.
         22    1    5    5    0    0  0.38135720244E+02  0.32330001778E+03  0.29821038707E+03  0.44148235482E+03  0.00000000000E+00 0.  1.
         22    1    5    5    0    0 -0.42554499561E+02 -0.46177077582E+03  0.15877938073E+03  0.49015714478E+03  0.00000000000E+00 0.  1.
          5    1    4    4  502    0  0.15974628804E+00 -0.12581302548E+02 -0.13913620590E+02  0.19338912343E+02  0.47000000000E+01 0.  1.
         -5    1    4    4    0  502  0.42590330289E+01  0.15105206058E+03  0.14094791269E+03  0.20669607751E+03  0.47000000000E+01 0.  1.
<mgrwt>
<rscale>  0 0.99956296E+03</rscale>
<asrwt>0</asrwt>
<pdfrwt beam="1">  1        1 0.13397681E+00 0.99956296E+03</pdfrwt>
<pdfrwt beam="2">  1       -1 0.44126956E-01 0.99956296E+03</pdfrwt>
<totfact> 0.11055945E+02</totfact>
</mgrwt>
</event>
<event>
 9    1  0.4246427E-036  0.9997336E+03  0.7818608E-02  0.8681292E-01
          2   -1    0    0  501    0  0.00000000000E+00  0.00000000000E+00  0.48630210428E+03  0.48630210428E+03  0.00000000000E+00 0.  1.
         -2   -1    0    0    0  501 -0.00000000000E+00 -0.00000000000E+00 -0.51380991450E+03  0.51380991450E+03  0.00000000000E+00 0.  1.
         36    2    1    2    0    0  0.00000000000E+00  0.00000000000E+00 -0.27507810219E+02  0.10001120188E+04  0.99973364976E+03 0.  0.
         25    2    3    3    0    0  0.56258677689E+02 -0.97590444282E+02  0.82141504589E+02  0.18702867468E+03  0.12467383345E+03 0.  0.
         35    2    3    3    0    0 -0.56258677689E+02  0.97590444282E+02 -0.10964931481E+03  0.81308334409E+03  0.79774220057E+03 0.  0.
         22    1    5    5    0    0 -0.22612654759E+03 -0.10388730154E+03 -0.36786827699E+03  0.44413157528E+03  0.00000000000E+00 0.  1.
         22    1    5    5    0    0  0.16986786990E+03  0.20147774582E+03  0.25821896218E+03  0.36895176882E+03  0.00000000000E+00 0.  1.
          5    1    4    4  502    0  0.81168832831E+02 -0.61371575633E+02  0.99179233753E+01  0.10234893709E+03  0.47000000000E+01 0. -1.
         -5    1    4    4    0  502 -0.24910155142E+02 -0.36218868649E+02  0.72223581213E+02  0.84679737592E+02  0.47000000000E+01 0. -1.
<mgrwt>
<rscale>  0 0.99973365E+03</rscale>
<asrwt>0</asrwt>
<pdfrwt beam="1">  1        2 0.74815708E-01 0.99973365E+03</pdfrwt>
<pdfrwt beam="2">  1       -2 0.79047679E-01 0.99973365E+03</pdfrwt>
<totfact> 0.10887798E+02</totfact>
</mgrwt>
</event>
<event>
 9    1  0.4246427E-036  0.9909626E+03  0.7818608E-02  0.8689692E-01
          4   -1    0    0  501    0  0.00000000000E+00  0.00000000000E+00  0.12492411689E+04  0.12492411689E+04  0.00000000000E+00 0. -1.
         -4   -1    0    0    0  501 -0.00000000000E+00 -0.00000000000E+00 -0.19652065738E+03  0.19652065738E+03  0.00000000000E+00 0. -1.
         36    2    1    2    0    0  0.00000000000E+00  0.00000000000E+00  0.10527205115E+04  0.14457618263E+04  0.99096255377E+03 0.  0.
         25    2    3    3    0    0 -0.42072141629E+02  0.12095399914E+03  0.16684701852E+03  0.24422857743E+03  0.12413595543E+03 0.  0.
         35    2    3    3    0    0  0.42072141629E+02 -0.12095399914E+03  0.88587349299E+03  0.12015332489E+04  0.80156744415E+03 0.  0.
         22    1    5    5    0    0 -0.78463000181E+02  0.19602461107E+03 -0.40539577589E+02  0.21500127417E+03  0.00000000000E+00 0. -1.
         22    1    5    5    0    0  0.12053514181E+03 -0.31697861021E+03  0.92641307058E+03  0.98653197469E+03  0.00000000000E+00 0. -1.
          5    1    4    4  502    0 -0.47344671120E+02  0.93607885701E+02  0.36980874338E+02  0.11132667792E+03  0.47000000000E+01 0.  1.
         -5    1    4    4    0  502  0.52725294908E+01  0.27346113444E+02  0.12986614419E+03  0.13290189951E+03  0.47000000000E+01 0.  1.
<mgrwt>
<rscale>  0 0.99096255E+03</rscale>
<asrwt>0</asrwt>
<pdfrwt beam="1">  1        4 0.19219094E+00 0.99096255E+03</pdfrwt>
<pdfrwt beam="2">  1       -4 0.30233948E-01 0.99096255E+03</pdfrwt>
<totfact> 0.28277623E+00</totfact>
</mgrwt>
</event>
<event>
 9    1  0.4246427E-036  0.9998579E+03  0.7818608E-02  0.8681173E-01
          2   -1    0    0  501    0  0.00000000000E+00  0.00000000000E+00  0.69250963410E+03  0.69250963410E+03  0.00000000000E+00 0.  1.
         -2   -1    0    0    0  501 -0.00000000000E+00 -0.00000000000E+00 -0.36090320851E+03  0.36090320851E+03  0.00000000000E+00 0.  1.
         36    2    1    2    0    0  0.00000000000E+00 -0.71054273576E-14  0.33160642559E+03  0.10534128426E+04  0.99985788764E+03 0.  0.
         25    2    3    3    0    0 -0.63781957884E+02 -0.44891743964E+02 -0.60361204235E+02  0.15886507680E+03  0.12454409188E+03 0.  0.
         35    2    3    3    0    0  0.63781957884E+02  0.44891743964E+02  0.39196762983E+03  0.89454776581E+03  0.80030848781E+03 0.  0.
         22    1    5    5    0    0 -0.27062155113E+03  0.18731699971E+02 -0.10842379445E+03  0.29213459179E+03  0.00000000000E+00 0. -1.
         22    1    5    5    0    0  0.33440350901E+03  0.26160043993E+02  0.50039142427E+03  0.60241317402E+03  0.00000000000E+00 0. -1.
          5    1    4    4  502    0 -0.22988455079E+02 -0.85755354553E+02 -0.39573555690E+02  0.97317039676E+02  0.47000000000E+01 0. -1.
         -5    1    4    4    0  502 -0.40793502804E+02  0.40863610589E+02 -0.20787648546E+02  0.61548037121E+02  0.47000000000E+01 0. -1.
<mgrwt>
<rscale>  0 0.99985789E+03</rscale>
<asrwt>0</asrwt>
<pdfrwt beam="1">  1        2 0.10653994E+00 0.99985789E+03</pdfrwt>
<pdfrwt beam="2">  1       -2 0.55523571E-01 0.99985789E+03</pdfrwt>
<totfact> 0.15321795E+02</totfact>
</mgrwt>
</event>
<event>
 9    1  0.4246427E-036  0.9995727E+03  0.7818608E-02  0.8681445E-01
         -1   -1    0    0    0  501 -0.00000000000E+00  0.00000000000E+00  0.52067224347E+03  0.52067224347E+03  0.00000000000E+00 0.  1.
          1   -1    0    0  501    0  0.00000000000E+00 -0.00000000000E+00 -0.47973829011E+03  0.47973829011E+03  0.00000000000E+00 0.  1.
         36    2    1    2    0    0 -0.28421709430E-13  0.71054273576E-14  0.40933953357E+02  0.10004105336E+04  0.99957273231E+03 0.  0.
         25    2    3    3    0    0 -0.12810645834E+03 -0.45622494776E+01 -0.51290107615E+02  0.18638438708E+03  0.12520537457E+03 0.  0.
         35    2    3    3    0    0  0.12810645834E+03  0.45622494776E+01  0.92224060972E+02  0.81402614650E+03  0.79856196440E+03 0.  0.
         22    1    5    5    0    0 -0.23208961622E+03 -0.21251156753E+03 -0.12750294334E+03  0.33953461804E+03  0.00000000000E+00 0. -1.
         22    1    5    5    0    0  0.36019607456E+03  0.21707381701E+03  0.21972700431E+03  0.47449152846E+03  0.00000000000E+00 0. -1.
          5    1    4    4  502    0 -0.84340248941E+02  0.58078070817E+02 -0.32703369944E+02  0.10760083785E+03  0.47000000000E+01 0.  1.
         -5    1    4    4    0  502 -0.43766209398E+02 -0.62640320294E+02 -0.18586737671E+02  0.78783549228E+02  0.47000000000E+01 0.  1.
<mgrwt>
<rscale>  0 0.99957273E+03</rscale>
<asrwt>0</asrwt>
<pdfrwt beam="1">  1        1 0.73805891E-01 0.99957273E+03</pdfrwt>
<pdfrwt beam="2">  1       -1 0.80103422E-01 0.99957273E+03</pdfrwt>
<totfact> 0.86358402E+01</totfact>
</mgrwt>
</event>
<event>
 9    1  0.4246427E-036  0.9996932E+03  0.7818608E-02  0.8681330E-01
         -2   -1    0    0    0  501 -0.00000000000E+00  0.00000000000E+00  0.89045089888E+03  0.89045089888E+03  0.00000000000E+00 0.  1.
          2   -1    0    0  501    0  0.00000000000E+00 -0.00000000000E+00 -0.28058441186E+03  0.28058441186E+03  0.00000000000E+00 0.  1.
         36    2    1    2    0    0 -0.71054273576E-14  0.00000000000E+00  0.60986648702E+03  0.11710353107E+04  0.99969323645E+03 0.  0.
         25    2    3    3    0    0 -0.16932025265E+02 -0.88095915580E+02  0.23930228996E+03  0.28454594481E+03  0.12511284869E+03 0.  0.
         35    2    3    3    0    0  0.16932025265E+02  0.88095915580E+02  0.37056419705E+03  0.88648936593E+03  0.80031118194E+03 0.  0.
         22    1    5    5    0    0 -0.23308684783E+03 -0.13797777051E+03  0.46349657904E+03  0.53683928933E+03  0.00000000000E+00 0. -1.
         22    1    5    5    0    0  0.25001887310E+03  0.22607368609E+03 -0.92932381981E+02  0.34965007660E+03  0.00000000000E+00 0. -1.
          5    1    4    4  502    0  0.10228792571E+02 -0.39843020653E+02  0.22274576709E+03  0.22656094379E+03  0.47000000000E+01 0.  1.
         -5    1    4    4    0  502 -0.27160817836E+02 -0.48252894927E+02  0.16556522871E+02  0.57985001025E+02  0.47000000000E+01 0.  1.
<mgrwt>
<rscale>  0 0.99969324E+03</rscale>
<asrwt>0</asrwt>
<pdfrwt beam="1">  1        2 0.43166833E-01 0.99969324E+03</pdfrwt>
<pdfrwt beam="2">  1       -2 0.13699244E+00 0.99969324E+03</pdfrwt>
<totfact> 0.51520824E+01</totfact>
</mgrwt>
</event>
<event>
 9    1  0.4246427E-036  0.9997519E+03  0.7818608E-02  0.8681274E-01
          1   -1    0    0  501    0  0.00000000000E+00  0.00000000000E+00  0.39793110055E+03  0.39793110055E+03  0.00000000000E+00 0. -1.
         -1   -1    0    0    0  501 -0.00000000000E+00 -0.00000000000E+00 -0.62793779838E+03  0.62793779838E+03  0.00000000000E+00 0. -1.
         36    2    1    2    0    0  0.28421709430E-13  0.00000000000E+00 -0.23000669783E+03  0.10258688989E+04  0.99975192760E+03 0.  0.
         25    2    3    3    0    0  0.11787865621E+03  0.72811337932E+02 -0.33543751847E+02  0.18980981402E+03  0.12532243889E+03 0.  0.
         35    2    3    3    0    0 -0.11787865621E+03 -0.72811337932E+02 -0.19646294598E+03  0.83605908490E+03  0.80074979599E+03 0.  0.
         22    1    5    5    0    0  0.34074837346E+03 -0.30140642434E+02 -0.19524389272E+02  0.34263554123E+03  0.00000000000E+00 0. -1.
         22    1    5    5    0    0 -0.45862702967E+03 -0.42670695497E+02 -0.17693855671E+03  0.49342354367E+03  0.00000000000E+00 0. -1.
          5    1    4    4  502    0  0.89940123454E+02  0.99156723410E+02 -0.55875609810E+02  0.14513943426E+03  0.47000000000E+01 0. -1.
         -5    1    4    4    0  502  0.27938532756E+02 -0.26345385479E+02  0.22331857963E+02  0.44670379768E+02  0.47000000000E+01 0. -1.
<mgrwt>
<rscale>  0 0.99975193E+03</rscale>
<asrwt>0</asrwt>
<pdfrwt beam="1">  1        1 0.61220170E-01 0.99975193E+03</pdfrwt>
<pdfrwt beam="2">  1       -1 0.96605815E-01 0.99975193E+03</pdfrwt>
<totfact> 0.74486314E+01</totfact>
</mgrwt>
</event>
<event>
 9    1  0.4246427E-036  0.9998724E+03  0.7818608E-02  0.8681160E-01
          1   -1    0    0  501    0  0.00000000000E+00  0.00000000000E+00  0.27811459576E+03  0.27811459576E+03  0.00000000000E+00 0.  1.
         -1   -1    0    0    0  501 -0.00000000000E+00 -0.00000000000E+00 -0.89868057593E+03  0.89868057593E+03  0.00000000000E+00 0.  1.
         36    2    1    2    0    0  0.71054273576E-14  0.00000000000E+00 -0.62056598017E+03  0.11767951717E+04  0.99987236204E+03 0.  0.
         25    2    3    3    0    0 -0.54991997091E+02  0.83459356562E+02 -0.39718786471E+01  0.15922740705E+03  0.12388707517E+03 0.  0.
         35    2    3    3    0    0  0.54991997091E+02 -0.83459356562E+02 -0.61659410152E+03  0.10175677646E+04  0.80328468532E+03 0.  0.
         22    1    5    5    0    0  0.30417305608E+03  0.10034607477E+03 -0.63095404026E+03  0.70759704895E+03  0.00000000000E+00 0.  1.
         22    1    5    5    0    0 -0.24918105898E+03 -0.18380543133E+03  0.14359938741E+02  0.30997071569E+03  0.00000000000E+00 0.  1.
          5    1    4    4  502    0 -0.83574283519E+02  0.90626545622E+02 -0.20585235364E+02  0.12507467190E+03  0.47000000000E+01 0.  1.
         -5    1    4    4    0  502  0.28582286429E+02 -0.71671890603E+01  0.16613356716E+02  0.34152735145E+02  0.47000000000E+01 0.  1.
<mgrwt>
<rscale>  0 0.99987236E+03</rscale>
<asrwt>0</asrwt>
<pdfrwt beam="1">  1        1 0.42786861E-01 0.99987236E+03</pdfrwt>
<pdfrwt beam="2">  1       -1 0.13825855E+00 0.99987236E+03</pdfrwt>
<totfact> 0.49886398E+01</totfact>
</mgrwt>
</event>
<event>
 9    1  0.4246427E-036  0.9991401E+03  0.7818608E-02  0.8681857E-01
          2   -1    0    0  501    0  0.00000000000E+00  0.00000000000E+00  0.44862927184E+03  0.44862927184E+03  0.00000000000E+00 0.  1.
         -2   -1    0    0    0  501 -0.00000000000E+00 -0.00000000000E+00 -0.55629498065E+03  0.55629498065E+03  0.00000000000E+00 0.  1.
         36    2    1    2    0    0 -0.14210854715E-13 -0.14210854715E-13 -0.10766570882E+03  0.10049242525E+04  0.99914005444E+03 0.  0.
         25    2    3    3    0    0 -0.32452397605E+02 -0.27687171260E+02  0.11299480573E+03  0.17400392623E+03  0.12525894244E+03 0.  0.
         35    2    3    3    0    0  0.32452397605E+02  0.27687171260E+02 -0.22066051455E+03  0.83092032626E+03  0.79994861607E+03 0.  0.
         22    1    5    5    0    0 -0.15647688048E+03  0.35009871417E+03  0.24060507168E+02  0.38423044100E+03  0.00000000000E+00 0.  1.
         22    1    5    5    0    0  0.18892927809E+03 -0.32241154291E+03 -0.24472102172E+03  0.44668988525E+03  0.00000000000E+00 0.  1.
          5    1    4    4  502    0 -0.32813238898E+02 -0.75696796262E+02  0.83411049347E+02  0.11741467866E+03  0.47000000000E+01 0.  1.
         -5    1    4    4    0  502  0.36084129366E+00  0.48009625003E+02  0.29583756380E+02  0.56589247573E+02  0.47000000000E+01 0.  1.
<mgrwt>
<rscale>  0 0.99914005E+03</rscale>
<asrwt>0</asrwt>
<pdfrwt beam="1">  1        2 0.69019888E-01 0.99914005E+03</pdfrwt>
<pdfrwt beam="2">  1       -2 0.85583843E-01 0.99914005E+03</pdfrwt>
<totfact> 0.99246181E+01</totfact>
</mgrwt>
</event>
<event>
 9    1  0.4246427E-036  0.1001208E+04  0.7818608E-02  0.8679888E-01
         -1   -1    0    0    0  501 -0.00000000000E+00  0.00000000000E+00  0.40231364666E+03  0.40231364666E+03  0.00000000000E+00 0. -1.
          1   -1    0    0  501    0  0.00000000000E+00 -0.00000000000E+00 -0.62290801549E+03  0.62290801549E+03  0.00000000000E+00 0. -1.
         36    2    1    2    0    0  0.00000000000E+00  0.71054273576E-14 -0.22059436884E+03  0.10252216622E+04  0.10012080608E+04 0.  0.
         25    2    3    3    0    0 -0.11042904807E+03 -0.44712277837E+02  0.37932363851E+02  0.17590579572E+03  0.12373448304E+03 0.  0.
         35    2    3    3    0    0  0.11042904807E+03  0.44712277837E+02 -0.25852673269E+03  0.84931586643E+03  0.80019223129E+03 0.  0.
         22    1    5    5    0    0 -0.28654457070E+03 -0.91314655163E+02 -0.30351445672E+03  0.42727881141E+03  0.00000000000E+00 0. -1.
         22    1    5    5    0    0  0.39697361877E+03  0.13602693300E+03  0.44987724027E+02  0.42203705502E+03  0.00000000000E+00 0. -1.
          5    1    4    4  502    0 -0.56178418991E+02 -0.78529882998E+02 -0.80709747855E+01  0.97006123096E+02  0.47000000000E+01 0. -1.
         -5    1    4    4    0  502 -0.54250629080E+02  0.33817605161E+02  0.46003338637E+02  0.78899672623E+02  0.47000000000E+01 0. -1.
<mgrwt>
<rscale>  0 0.10012081E+04</rscale>
<asrwt>0</asrwt>
<pdfrwt beam="1">  1        1 0.95832002E-01 0.10012081E+04</pdfrwt>
<pdfrwt beam="2">  1       -1 0.61894407E-01 0.10012081E+04</pdfrwt>
<totfact> 0.99629157E+01</totfact>
</mgrwt>
</event>
<event>
 9    1  0.4246427E-036  0.1001463E+04  0.7818608E-02  0.8679646E-01
         -1   -1    0    0    0  501 -0.00000000000E+00  0.00000000000E+00  0.37764652823E+03  0.37764652823E+03  0.00000000000E+00 0.  1.
          1   -1    0    0  501    0  0.00000000000E+00 -0.00000000000E+00 -0.66393245666E+03  0.66393245666E+03  0.00000000000E+00 0.  1.
         36    2    1    2    0    0  0.00000000000E+00 -0.21316282073E-13 -0.28628592843E+03  0.10415789849E+04  0.10014625050E+04 0.  0.
         25    2    3    3    0    0  0.32497995073E+02  0.59750453693E+02 -0.18730718488E+03  0.23295872672E+03  0.12066296221E+03 0.  0.
         35    2    3    3    0    0 -0.32497995073E+02 -0.59750453693E+02 -0.98978743550E+02  0.80862025816E+03  0.79965223305E+03 0.  0.
         22    1    5    5    0    0  0.87485120327E+01  0.18233449164E+03  0.29350503830E+03  0.34564086971E+03  0.00000000000E+00 0.  1.
         22    1    5    5    0    0 -0.41246507106E+02 -0.24208494534E+03 -0.39248378185E+03  0.46297938845E+03  0.00000000000E+00 0.  1.
          5    1    4    4  502    0 -0.61360407786E+01  0.27167831557E+02  0.94307524755E+01  0.29778703132E+02  0.47000000000E+01 0. -1.
         -5    1    4    4    0  502  0.38634035851E+02  0.32582622136E+02 -0.19673793736E+03  0.20318002359E+03  0.47000000000E+01 0. -1.
<mgrwt>
<rscale>  0 0.10014625E+04</rscale>
<asrwt>0</asrwt>
<pdfrwt beam="1">  1        1 0.10214345E+00 0.10014625E+04</pdfrwt>
<pdfrwt beam="2">  1       -1 0.58099467E-01 0.10014625E+04</pdfrwt>
<totfact> 0.10226477E+02</totfact>
</mgrwt>
</event>
<event>
 9    1  0.4246427E-036  0.1000560E+04  0.7818608E-02  0.8680505E-01
         -2   -1    0    0    0  501 -0.00000000000E+00  0.00000000000E+00  0.47790265963E+03  0.47790265963E+03  0.00000000000E+00 0. -1.
          2   -1    0    0  501    0  0.00000000000E+00 -0.00000000000E+00 -0.52370503376E+03  0.52370503376E+03  0.00000000000E+00 0. -1.
         36    2    1    2    0    0 -0.26645352591E-14 -0.71054273576E-14 -0.45802374130E+02  0.10016076934E+04  0.10005599002E+04 0.  0.
         25    2    3    3    0    0 -0.12418434215E+01 -0.19718827225E+02 -0.14826743787E+03  0.19482248651E+03  0.12482865775E+03 0.  0.
         35    2    3    3    0    0  0.12418434215E+01  0.19718827225E+02  0.10246506374E+03  0.80678520688E+03  0.80000806648E+03 0.  0.
         22    1    5    5    0    0  0.45608251206E+02  0.36086971761E+03 -0.13584899710E+03  0.38828084639E+03  0.00000000000E+00 0. -1.
         22    1    5    5    0    0 -0.44366407785E+02 -0.34115089038E+03  0.23831406084E+03  0.41850436048E+03  0.00000000000E+00 0. -1.
          5    1    4    4  502    0 -0.91223761050E+01  0.77017046898E+00  0.21363276294E+02  0.23712665021E+02  0.47000000000E+01 0. -1.
         -5    1    4    4    0  502  0.78805326835E+01 -0.20488997694E+02 -0.16963071417E+03  0.17110982149E+03  0.47000000000E+01 0. -1.
<mgrwt>
<rscale>  0 0.10005599E+04</rscale>
<asrwt>0</asrwt>
<pdfrwt beam="1">  1        2 0.80570005E-01 0.10005599E+04</pdfrwt>
<pdfrwt beam="2">  1       -2 0.73523486E-01 0.10005599E+04</pdfrwt>
<totfact> 0.11764712E+02</totfact>
</mgrwt>
</event>
<event>
 9    1  0.4246427E-036  0.9998830E+03  0.7818608E-02  0.8681149E-01
          1   -1    0    0  501    0  0.00000000000E+00  0.00000000000E+00  0.47963055755E+03  0.47963055755E+03  0.00000000000E+00 0.  1.
         -1   -1    0    0    0  501 -0.00000000000E+00 -0.00000000000E+00 -0.52111253925E+03  0.52111253925E+03  0.00000000000E+00 0.  1.
         36    2    1    2    0    0 -0.21316282073E-13  0.00000000000E+00 -0.41481981701E+02  0.10007430968E+04  0.99988298865E+03 0.  0.
         25    2    3    3    0    0  0.13004479636E+02  0.80482464965E+02 -0.12335616631E+03  0.19329464495E+03  0.12449711781E+03 0.  0.
         35    2    3    3    0    0 -0.13004479636E+02 -0.80482464965E+02  0.81874184613E+02  0.80744845184E+03  0.79913895952E+03 0.  0.
         22    1    5    5    0    0 -0.36056750161E+03 -0.17525989873E+03  0.17176122606E+03  0.43615005915E+03  0.00000000000E+00 0. -1.
         22    1    5    5    0    0  0.34756302198E+03  0.94777433761E+02 -0.89887041447E+02  0.37129839269E+03  0.00000000000E+00 0. -1.
          5    1    4    4  502    0 -0.46259568938E+02  0.10842157782E+02 -0.12195412235E+02  0.49277968539E+02  0.47000000000E+01 0. -1.
         -5    1    4    4    0  502  0.59264048574E+02  0.69640307183E+02 -0.11116075408E+03  0.14401667641E+03  0.47000000000E+01 0. -1.
<mgrwt>
<rscale>  0 0.99988299E+03</rscale>
<asrwt>0</asrwt>
<pdfrwt beam="1">  1        1 0.73789317E-01 0.99988299E+03</pdfrwt>
<pdfrwt beam="2">  1       -1 0.80171160E-01 0.99988299E+03</pdfrwt>
<totfact> 0.86230193E+01</totfact>
</mgrwt>
</event>
<event>
 9    1  0.4246427E-036  0.9908014E+03  0.7818608E-02  0.8689848E-01
         -2   -1    0    0    0  501 -0.00000000000E+00  0.00000000000E+00  0.13611032864E+03  0.13611032864E+03  0.00000000000E+00 0. -1.
          2   -1    0    0  501    0  0.00000000000E+00 -0.00000000000E+00 -0.18031095174E+04  0.18031095174E+04  0.00000000000E+00 0. -1.
         36    2    1    2    0    0  0.00000000000E+00  0.14210854715E-13 -0.16669991888E+04  0.19392198461E+04  0.99080135040E+03 0.  0.
         25    2    3    3    0    0  0.92247532763E+02  0.86574050603E+02 -0.25353789208E+03  0.30955796647E+03  0.12465952970E+03 0.  0.
         35    2    3    3    0    0 -0.92247532763E+02 -0.86574050603E+02 -0.14134612967E+04  0.16296618796E+04  0.80119930790E+03 0.  0.
         22    1    5    5    0    0 -0.60346955490E+02  0.74843899139E+02 -0.14564332555E+04  0.14596030940E+04  0.00000000000E+00 0. -1.
         22    1    5    5    0    0 -0.31900577273E+02 -0.16141794974E+03  0.42971958764E+02  0.17005878563E+03  0.00000000000E+00 0. -1.
          5    1    4    4  502    0  0.77026354547E+02  0.96549428464E+02 -0.11205815210E+03  0.16683516082E+03  0.47000000000E+01 0. -1.
         -5    1    4    4    0  502  0.15221178216E+02 -0.99753778607E+01 -0.14147973998E+03  0.14272280566E+03  0.47000000000E+01 0. -1.
<mgrwt>
<rscale>  0 0.99080135E+03</rscale>
<asrwt>0</asrwt>
<pdfrwt beam="1">  1        2 0.27740145E+00 0.99080135E+03</pdfrwt>
<pdfrwt beam="2">  1       -2 0.20940052E-01 0.99080135E+03</pdfrwt>
<totfact> 0.20012973E+02</totfact>
</mgrwt>
</event>
<event>
 9    1  0.4246427E-036  0.1000295E+04  0.7818608E-02  0.8680757E-01
          2   -1    0    0  501    0  0.00000000000E+00  0.00000000000E+00  0.43978500783E+03  0.43978500783E+03  0.00000000000E+00 0.  1.
         -2   -1    0    0    0  501 -0.00000000000E+00 -0.00000000000E+00 -0.56879534604E+03  0.56879534604E+03  0.00000000000E+00 0.  1.
         36    2    1    2    0    0  0.14210854715E-13 -0.14210854715E-13 -0.12901033821E+03  0.10085803539E+04  0.10002952878E+04 0.  0.
         25    2    3    3    0    0  0.91783512666E+02  0.46907383825E+02  0.75052976838E+02  0.17841989600E+03  0.12480462372E+03 0.  0.
         35    2    3    3    0    0 -0.91783512666E+02 -0.46907383825E+02 -0.20406331505E+03  0.83016045787E+03  0.79806016904E+03 0.  0.
         22    1    5    5    0    0  0.15029979339E+03 -0.33323323150E+03  0.61493391375E+02  0.37069644138E+03  0.00000000000E+00 0. -1.
         22    1    5    5    0    0 -0.24208330606E+03  0.28632584768E+03 -0.26555670642E+03  0.45946401649E+03  0.00000000000E+00 0. -1.
          5    1    4    4  502    0  0.82545739514E+02 -0.21606968319E+02  0.67138812509E+02  0.10867552777E+03  0.47000000000E+01 0. -1.
         -5    1    4    4    0  502  0.92377731520E+01  0.68514352144E+02  0.79141643283E+01  0.69744368228E+02  0.47000000000E+01 0. -1.
<mgrwt>
<rscale>  0 0.10002953E+04</rscale>
<asrwt>0</asrwt>
<pdfrwt beam="1">  1        2 0.67659232E-01 0.10002953E+04</pdfrwt>
<pdfrwt beam="2">  1       -2 0.87506977E-01 0.10002953E+04</pdfrwt>
<totfact> 0.96356857E+01</totfact>
</mgrwt>
</event>
<event>
 9    1  0.4246427E-036  0.9970821E+03  0.7818608E-02  0.8683822E-01
          2   -1    0    0  501    0  0.00000000000E+00  0.00000000000E+00  0.15598179564E+04  0.15598179564E+04  0.00000000000E+00 0.  1.
         -2   -1    0    0    0  501 -0.00000000000E+00 -0.00000000000E+00 -0.15934113585E+03  0.15934113585E+03  0.00000000000E+00 0.  1.
         36    2    1    2    0    0 -0.14210854715E-13  0.00000000000E+00  0.14004768205E+04  0.17191590922E+04  0.99708207261E+03 0.  0.
         25    2    3    3    0    0  0.11894328536E+03  0.45895115537E+02  0.35008572397E+03  0.39358028385E+03  0.12685250863E+03 0.  0.
         35    2    3    3    0    0 -0.11894328536E+03 -0.45895115537E+02  0.10503910966E+04  0.13255788084E+04  0.79848848126E+03 0.  0.
         22    1    5    5    0    0 -0.33030359593E+03  0.12892497162E+00  0.10587772493E+04  0.11091031267E+04  0.00000000000E+00 0. -1.
         22    1    5    5    0    0  0.21136031057E+03 -0.46024040509E+02 -0.83861527211E+01  0.21647568165E+03  0.00000000000E+00 0. -1.
          5    1    4    4  502    0  0.72950243661E+02 -0.37766995089E+02  0.19128107316E+03  0.20822733470E+03  0.47000000000E+01 0.  1.
         -5    1    4    4    0  502  0.45993041703E+02  0.83662110626E+02  0.15880465081E+03  0.18535294915E+03  0.47000000000E+01 0.  1.
<mgrwt>
<rscale>  0 0.99708207E+03</rscale>
<asrwt>0</asrwt>
<pdfrwt beam="1">  1        2 0.23997198E+00 0.99708207E+03</pdfrwt>
<pdfrwt beam="2">  1       -2 0.24514022E-01 0.99708207E+03</pdfrwt>
<totfact> 0.20817125E+02</totfact>
</mgrwt>
</event>
<event>
 9    1  0.4246427E-036  0.1003834E+04  0.7818608E-02  0.8677395E-01
         -2   -1    0    0    0  501 -0.00000000000E+00  0.00000000000E+00  0.15365126359E+03  0.15365126359E+03  0.00000000000E+00 0. -1.
          2   -1    0    0  501    0  0.00000000000E+00 -0.00000000000E+00 -0.16395615592E+04  0.16395615592E+04  0.00000000000E+00 0. -1.
         36    2    1    2    0    0 -0.71054273576E-14  0.00000000000E+00 -0.14859102956E+04  0.17932128228E+04  0.10038340606E+04 0.  0.
         25    2    3    3    0    0 -0.41901802653E+02 -0.64363911514E+02 -0.64016800485E+02  0.16051246086E+03  0.12556920473E+03 0.  0.
         35    2    3    3    0    0  0.41901802653E+02  0.64363911514E+02 -0.14218934951E+04  0.16327003619E+04  0.79876835580E+03 0.  0.
         22    1    5    5    0    0 -0.23425151080E+02 -0.11263970873E+03  0.66171498261E+02  0.13272192309E+03  0.00000000000E+00 0.  1.
         22    1    5    5    0    0  0.65326953733E+02  0.17700362025E+03 -0.14880649934E+04  0.14999784389E+04  0.00000000000E+00 0.  1.
          5    1    4    4  502    0  0.38010565739E+01 -0.89927623203E+02 -0.58938849811E+02  0.10769077706E+03  0.47000000000E+01 0. -1.
         -5    1    4    4    0  502 -0.45702859227E+02  0.25563711688E+02 -0.50779506745E+01  0.52821683804E+02  0.47000000000E+01 0. -1.
<mgrwt>
<rscale>  0 0.10038341E+04</rscale>
<asrwt>0</asrwt>
<pdfrwt beam="1">  1        2 0.25224022E+00 0.10038341E+04</pdfrwt>
<pdfrwt beam="2">  1       -2 0.23638658E-01 0.10038341E+04</pdfrwt>
<totfact> 0.20014478E+02</totfact>
</mgrwt>
</event>
<event>
 9    1  0.4246427E-036  0.9993151E+03  0.7818608E-02  0.8681690E-01
         -2   -1    0    0    0  501 -0.00000000000E+00  0.00000000000E+00  0.28010020971E+03  0.28010020971E+03  0.00000000000E+00 0. -1.
          2   -1    0    0  501    0  0.00000000000E+00 -0.00000000000E+00 -0.89131559681E+03  0.89131559681E+03  0.00000000000E+00 0. -1.
         36    2    1    2    0    0 -0.28421709430E-13  0.14210854715E-13 -0.61121538709E+03  0.11714158065E+04  0.99931513665E+03 0.  0.
         25    2    3    3    0    0  0.11540344943E+03  0.79044564409E+02 -0.11803808658E+03  0.22154310060E+03  0.12482930840E+03 0.  0.
         35    2    3    3    0    0 -0.11540344943E+03 -0.79044564409E+02 -0.49317730052E+03  0.94987270592E+03  0.79966762370E+03 0.  0.
         22    1    5    5    0    0 -0.33723138753E+03 -0.28992588887E+03 -0.10755396312E+03  0.45754768577E+03  0.00000000000E+00 0.  1.
         22    1    5    5    0    0  0.22182793809E+03  0.21088132446E+03 -0.38562333739E+03  0.49232502015E+03  0.00000000000E+00 0.  1.
          5    1    4    4  502    0  0.36095099275E+02  0.26927680578E+02  0.23544309780E+02  0.51033133315E+02  0.47000000000E+01 0. -1.
         -5    1    4    4    0  502  0.79308350159E+02  0.52116883832E+02 -0.14158239636E+03  0.17050996729E+03  0.47000000000E+01 0. -1.
<mgrwt>
<rscale>  0 0.99931514E+03</rscale>
<asrwt>0</asrwt>
<pdfrwt beam="1">  1        2 0.13712547E+00 0.99931514E+03</pdfrwt>
<pdfrwt beam="2">  1       -2 0.43092341E-01 0.99931514E+03</pdfrwt>
<totfact> 0.18359578E+02</totfact>
</mgrwt>
</event>
<event>
 9    1  0.4246427E-036  0.9991213E+03  0.7818608E-02  0.8681875E-01
         -1   -1    0    0    0  501 -0.00000000000E+00  0.00000000000E+00  0.88083243985E+02  0.88083243985E+02  0.00000000000E+00 0.  1.
          1   -1    0    0  501    0  0.00000000000E+00 -0.00000000000E+00 -0.28332383591E+04  0.28332383591E+04  0.00000000000E+00 0.  1.
         36    2    1    2    0    0 -0.71054273576E-14 -0.14210854715E-13 -0.27451551151E+04  0.29213216031E+04  0.99912126521E+03 0.  0.
         25    2    3    3    0    0  0.41218658422E+02  0.81293666899E+02 -0.20052550907E+03  0.25301613482E+03  0.12449516702E+03 0.  0.
         35    2    3    3    0    0 -0.41218658422E+02 -0.81293666899E+02 -0.25446296060E+04  0.26683054682E+04  0.79775096485E+03 0.  0.
         22    1    5    5    0    0  0.18270875567E+03  0.76594257551E+02 -0.12727833746E+03  0.23547599639E+03  0.00000000000E+00 0. -1.
         22    1    5    5    0    0 -0.22392741410E+03 -0.15788792445E+03 -0.24173512686E+04  0.24328294718E+04  0.00000000000E+00 0. -1.
          5    1    4    4  502    0 -0.60756823143E+01  0.15397039519E+02 -0.16232760259E+03  0.16323701572E+03  0.47000000000E+01 0.  1.
         -5    1    4    4    0  502  0.47294340736E+02  0.65896627380E+02 -0.38197906480E+02  0.89779119093E+02  0.47000000000E+01 0.  1.
<mgrwt>
<rscale>  0 0.99912127E+03</rscale>
<asrwt>0</asrwt>
<pdfrwt beam="1">  1        1 0.43588277E+00 0.99912127E+03</pdfrwt>
<pdfrwt beam="2">  1       -1 0.13551270E-01 0.99912127E+03</pdfrwt>
<totfact> 0.31101502E+01</totfact>
</mgrwt>
</event>
<event>
 9    1  0.4246427E-036  0.1002418E+04  0.7818608E-02  0.8678738E-01
         -2   -1    0    0    0  501 -0.00000000000E+00  0.00000000000E+00  0.29884964149E+03  0.29884964149E+03  0.00000000000E+00 0.  1.
          2   -1    0    0  501    0  0.00000000000E+00 -0.00000000000E+00 -0.84059223598E+03  0.84059223598E+03  0.00000000000E+00 0.  1.
         36    2    1    2    0    0  0.00000000000E+00  0.14210854715E-13 -0.54174259449E+03  0.11394418775E+04  0.10024184523E+04 0.  0.
         25    2    3    3    0    0 -0.69350938070E+02  0.37017181293E+02 -0.23776864410E+03  0.27984462343E+03  0.12489700086E+03 0.  0.
         35    2    3    3    0    0  0.69350938070E+02 -0.37017181293E+02 -0.30397395039E+03  0.85959725403E+03  0.80020463152E+03 0.  0.
         22    1    5    5    0    0 -0.19192391098E+03 -0.23572653081E+03  0.11704926809E+03  0.32573350472E+03  0.00000000000E+00 0.  1.
         22    1    5    5    0    0  0.26127484905E+03  0.19870934952E+03 -0.42102321848E+03  0.53386374932E+03  0.00000000000E+00 0.  1.
          5    1    4    4  502    0 -0.79739818816E+02 -0.11234364302E+02 -0.20530092842E+03  0.22057926207E+03  0.47000000000E+01 0.  1.
         -5    1    4    4    0  502  0.10388880746E+02  0.48251545595E+02 -0.32467715674E+02  0.59265361355E+02  0.47000000000E+01 0.  1.
<mgrwt>
<rscale>  0 0.10024185E+04</rscale>
<asrwt>0</asrwt>
<pdfrwt beam="1">  1        2 0.12932188E+00 0.10024185E+04</pdfrwt>
<pdfrwt beam="2">  1       -2 0.45976868E-01 0.10024185E+04</pdfrwt>
<totfact> 0.17495427E+02</totfact>
</mgrwt>
</event>
<event>
 9    1  0.4246427E-036  0.9995373E+03  0.7818608E-02  0.8681479E-01
          1   -1    0    0  501    0  0.00000000000E+00  0.00000000000E+00  0.58599297676E+03  0.58599297676E+03  0.00000000000E+00 0.  1.
         -1   -1    0    0    0  501 -0.00000000000E+00 -0.00000000000E+00 -0.42623152575E+03  0.42623152575E+03  0.00000000000E+00 0.  1.
         36    2    1    2    0    0  0.14210854715E-13  0.00000000000E+00  0.15976145100E+03  0.10122245025E+04  0.99953725406E+03 0.  0.
         25    2    3    3    0    0 -0.76524570527E+02  0.97940882018E+02  0.95137627460E+02  0.20023772884E+03  0.12488215897E+03 0.  0.
         35    2    3    3    0    0  0.76524570527E+02 -0.97940882018E+02  0.64623823544E+02  0.81198677367E+03  0.79981113757E+03 0.  0.
         22    1    5    5    0    0  0.19464751171E+03 -0.40271509979E+03  0.15411213431E+03  0.47309370674E+03  0.00000000000E+00 0. -1.
         22    1    5    5    0    0 -0.11812294118E+03  0.30477421777E+03 -0.89488310768E+02  0.33889306693E+03  0.00000000000E+00 0. -1.
          5    1    4    4  502    0  0.50553384193E+00  0.37735833621E+02  0.95030937520E+02  0.10235828149E+03  0.47000000000E+01 0.  1.
         -5    1    4    4    0  502 -0.77030104369E+02  0.60205048397E+02  0.10668994023E+00  0.97879447354E+02  0.47000000000E+01 0.  1.
<mgrwt>
<rscale>  0 0.99953725E+03</rscale>
<asrwt>0</asrwt>
<pdfrwt beam="1">  1        1 0.90152766E-01 0.99953725E+03</pdfrwt>
<pdfrwt beam="2">  1       -1 0.65574081E-01 0.99953725E+03</pdfrwt>
<totfact> 0.97410004E+01</totfact>
</mgrwt>
</event>
<event>
 9    1  0.4246427E-036  0.9999607E+03  0.7818608E-02  0.8681075E-01
          2   -1    0    0  501    0  0.00000000000E+00  0.00000000000E+00  0.15237405171E+04  0.15237405171E+04  0.00000000000E+00 0.  1.
         -2   -1    0    0    0  501 -0.00000000000E+00 -0.00000000000E+00 -0.16405704730E+03  0.16405704730E+03  0.00000000000E+00 0.  1.
         36    2    1    2    0    0 -0.28421709430E-13  0.00000000000E+00  0.13596834698E+04  0.16877975644E+04  0.99996073939E+03 0.  0.
         25    2    3    3    0    0 -0.13500949196E+03 -0.25840625073E+02  0.29899207044E+03  0.35211716536E+03  0.12527944416E+03 0.  0.
         35    2    3    3    0    0  0.13500949196E+03  0.25840625073E+02  0.10606913993E+04  0.13356803990E+04  0.80005036270E+03 0.  0.
         22    1    5    5    0    0 -0.32711875764E+03 -0.30181588748E+02  0.57971139540E+03  0.66632042731E+03  0.00000000000E+00 0.  1.
         22    1    5    5    0    0  0.46212824961E+03  0.56022213821E+02  0.48098000393E+03  0.66935997170E+03  0.00000000000E+00 0.  1.
          5    1    4    4  502    0 -0.11077648113E+03  0.12899883863E+02  0.10671171389E+03  0.15442576099E+03  0.47000000000E+01 0.  1.
         -5    1    4    4    0  502 -0.24233010831E+02 -0.38740508936E+02  0.19228035655E+03  0.19769140437E+03  0.47000000000E+01 0.  1.
<mgrwt>
<rscale>  0 0.99996074E+03</rscale>
<asrwt>0</asrwt>
<pdfrwt beam="1">  1        2 0.23442161E+00 0.99996074E+03</pdfrwt>
<pdfrwt beam="2">  1       -2 0.25239547E-01 0.99996074E+03</pdfrwt>
<totfact> 0.20718333E+02</totfact>
</mgrwt>
</event>
<event>
 9    1  0.4246427E-036  0.9993282E+03  0.7818608E-02  0.8681678E-01
         -2   -1    0    0    0  501 -0.00000000000E+00  0.00000000000E+00  0.29148090714E+03  0.29148090714E+03  0.00000000000E+00 0. -1.
          2   -1    0    0  501    0  0.00000000000E+00 -0.00000000000E+00 -0.85653710133E+03  0.85653710133E+03  0.00000000000E+00 0. -1.
         36    2    1    2    0    0 -0.14210854715E-13 -0.14210854715E-13 -0.56505619419E+03  0.11480180085E+04  0.99932819694E+03 0.  0.
         25    2    3    3    0    0 -0.37416474691E+02 -0.10330922846E+03 -0.19591636735E+03  0.25682170172E+03  0.12450451483E+03 0.  0.
         35    2    3    3    0    0  0.37416474691E+02  0.10330922846E+03 -0.36913982684E+03  0.89119630676E+03  0.80367521808E+03 0.  0.
         22    1    5    5    0    0  0.31416369020E+03  0.31738002850E+03 -0.12233386042E+03  0.46302751553E+03  0.00000000000E+00 0. -1.
         22    1    5    5    0    0 -0.27674721551E+03 -0.21407080004E+03 -0.24680596641E+03  0.42816879123E+03  0.00000000000E+00 0. -1.
          5    1    4    4  502    0  0.37999809945E+02 -0.53691850566E+01 -0.25786877838E+02  0.46474366835E+02  0.47000000000E+01 0.  1.
         -5    1    4    4    0  502 -0.75416284637E+02 -0.97940043404E+02 -0.17012948951E+03  0.21034733488E+03  0.47000000000E+01 0.  1.
<mgrwt>
<rscale>  0 0.99932820E+03</rscale>
<asrwt>0</asrwt>
<pdfrwt beam="1">  1        2 0.13177494E+00 0.99932820E+03</pdfrwt>
<pdfrwt beam="2">  1       -2 0.44843217E-01 0.99932820E+03</pdfrwt>
<totfact> 0.17922428E+02</totfact>
</mgrwt>
</event>
<event>
 9    1  0.4246427E-036  0.9941007E+03  0.7818608E-02  0.8686676E-01
         -2   -1    0    0    0  501 -0.00000000000E+00  0.00000000000E+00  0.25462898546E+03  0.25462898546E+03  0.00000000000E+00 0. -1.
          2   -1    0    0  501    0  0.00000000000E+00 -0.00000000000E+00 -0.97027079236E+03  0.97027079236E+03  0.00000000000E+00 0. -1.
         36    2    1    2    0    0  0.00000000000E+00 -0.28421709430E-13 -0.71564180689E+03  0.12248997778E+04  0.99410073430E+03 0.  0.
         25    2    3    3    0    0 -0.11733010999E+03  0.60418069655E+02 -0.15213087863E+03  0.23755837858E+03  0.12599000417E+03 0.  0.
         35    2    3    3    0    0  0.11733010999E+03 -0.60418069655E+02 -0.56351092826E+03  0.98734139924E+03  0.79992610566E+03 0.  0.
         22    1    5    5    0    0  0.20766357842E+03 -0.35400272751E+03 -0.54139945443E+03  0.67937873247E+03  0.00000000000E+00 0. -1.
         22    1    5    5    0    0 -0.90333468426E+02  0.29358465785E+03 -0.22111473832E+02  0.30796266676E+03  0.00000000000E+00 0. -1.
          5    1    4    4  502    0 -0.10371243399E+03 -0.19170737134E+01 -0.13684300149E+03  0.17177904759E+03  0.47000000000E+01 0. -1.
         -5    1    4    4    0  502 -0.13617676002E+02  0.62335143368E+02 -0.15287877145E+02  0.65779330994E+02  0.47000000000E+01 0. -1.
<mgrwt>
<rscale>  0 0.99410073E+03</rscale>
<asrwt>0</asrwt>
<pdfrwt beam="1">  1        2 0.14927243E+00 0.99410073E+03</pdfrwt>
<pdfrwt beam="2">  1       -2 0.39173690E-01 0.99410073E+03</pdfrwt>
<totfact> 0.19603757E+02</totfact>
</mgrwt>
</event>
<event>
 9    1  0.4246427E-036  0.1000496E+04  0.7818608E-02  0.8680566E-01
         -1   -1    0    0    0  501 -0.00000000000E+00  0.00000000000E+00  0.25166038386E+03  0.25166038386E+03  0.00000000000E+00 0. -1.
          1   -1    0    0  501    0  0.00000000000E+00 -0.00000000000E+00 -0.99438802316E+03  0.99438802316E+03  0.00000000000E+00 0. -1.
         36    2    1    2    0    0  0.28421709430E-13  0.28421709430E-13 -0.74272763930E+03  0.12460484070E+04  0.10004960202E+04 0.  0.
         25    2    3    3    0    0  0.87168429421E+01  0.13179613080E+03 -0.78761891029E+02  0.19831877792E+03  0.12522259681E+03 0.  0.
         35    2    3    3    0    0 -0.87168429421E+01 -0.13179613080E+03 -0.66396574827E+03  0.10477296291E+04  0.79965033443E+03 0.  0.
         22    1    5    5    0    0  0.25988704814E+03  0.23546977451E+03 -0.34585867678E+03  0.49255001452E+03  0.00000000000E+00 0.  1.
         22    1    5    5    0    0 -0.26860389108E+03 -0.36726590531E+03 -0.31810707150E+03  0.55517961458E+03  0.00000000000E+00 0.  1.
          5    1    4    4  502    0 -0.41613608693E+02  0.27349608016E+02 -0.64182461118E+02  0.81370583150E+02  0.47000000000E+01 0.  1.
         -5    1    4    4    0  502  0.50330451635E+02  0.10444652279E+03 -0.14579429911E+02  0.11694819477E+03  0.47000000000E+01 0.  1.
<mgrwt>
<rscale>  0 0.10004960E+04</rscale>
<asrwt>0</asrwt>
<pdfrwt beam="1">  1        1 0.15298277E+00 0.10004960E+04</pdfrwt>
<pdfrwt beam="2">  1       -1 0.38716982E-01 0.10004960E+04</pdfrwt>
<totfact> 0.11065584E+02</totfact>
</mgrwt>
</event>
<event>
 9    1  0.4246427E-036  0.9981428E+03  0.7818608E-02  0.8682809E-01
         -2   -1    0    0    0  501 -0.00000000000E+00  0.00000000000E+00  0.11047940534E+03  0.11047940534E+03  0.00000000000E+00 0. -1.
          2   -1    0    0  501    0  0.00000000000E+00 -0.00000000000E+00 -0.22544676532E+04  0.22544676532E+04  0.00000000000E+00 0. -1.
         36    2    1    2    0    0  0.47961634664E-13  0.00000000000E+00 -0.21439882478E+04  0.23649470585E+04  0.99814276672E+03 0.  0.
         25    2    3    3    0    0 -0.22182534350E+01 -0.13102688069E+03 -0.30087172752E+03  0.35154391087E+03  0.12604110733E+03 0.  0.
         35    2    3    3    0    0  0.22182534350E+01  0.13102688069E+03 -0.18431165203E+04  0.20134031476E+04  0.79971292563E+03 0.  0.
         22    1    5    5    0    0 -0.29466888303E+03 -0.10900142954E+03 -0.34161377309E+03  0.46412394059E+03  0.00000000000E+00 0.  1.
         22    1    5    5    0    0  0.29688713646E+03  0.24002831023E+03 -0.15015027472E+04  0.15492792070E+04  0.00000000000E+00 0.  1.
          5    1    4    4  502    0 -0.15926358846E+02 -0.14866471639E+03 -0.20988666460E+03  0.25773891592E+03  0.47000000000E+01 0.  1.
         -5    1    4    4    0  502  0.13708105411E+02  0.17637835697E+02 -0.90985062924E+02  0.93804994949E+02  0.47000000000E+01 0.  1.
<mgrwt>
<rscale>  0 0.99814277E+03</rscale>
<asrwt>0</asrwt>
<pdfrwt beam="1">  1        2 0.34684113E+00 0.99814277E+03</pdfrwt>
<pdfrwt beam="2">  1       -2 0.16996834E-01 0.99814277E+03</pdfrwt>
<totfact> 0.15801928E+02</totfact>
</mgrwt>
</event>
<event>
 9    1  0.4246427E-036  0.9997523E+03  0.7818608E-02  0.8681274E-01
          1   -1    0    0  501    0  0.00000000000E+00  0.00000000000E+00  0.17932533145E+04  0.17932533145E+04  0.00000000000E+00 0.  1.
         -1   -1    0    0    0  501 -0.00000000000E+00 -0.00000000000E+00 -0.13934237034E+03  0.13934237034E+03  0.00000000000E+00 0.  1.
         36    2    1    2    0    0  0.28421709430E-13  0.14210854715E-13  0.16539109442E+04  0.19325956849E+04  0.99975230426E+03 0.  0.
         25    2    3    3    0    0  0.83345383401E+02  0.71620543481E+02  0.14043966470E+03  0.21771445300E+03  0.12490127478E+03 0.  0.
         35    2    3    3    0    0 -0.83345383401E+02 -0.71620543481E+02  0.15134712795E+04  0.17148812319E+04  0.79884064143E+03 0.  0.
         22    1    5    5    0    0  0.27790087476E+03  0.21500011792E+02  0.11865515878E+04  0.12188502029E+04  0.00000000000E+00 0.  1.
         22    1    5    5    0    0 -0.36124625816E+03 -0.93120555273E+02  0.32691969171E+03  0.49603102895E+03  0.00000000000E+00 0.  1.
          5    1    4    4  502    0  0.15933356527E+02  0.30753647302E+02 -0.19003570204E+02  0.39785479174E+02  0.47000000000E+01 0.  1.
         -5    1    4    4    0  502  0.67412026873E+02  0.40866896179E+02  0.15944323490E+03  0.17792897382E+03  0.47000000000E+01 0.  1.
<mgrwt>
<rscale>  0 0.99975230E+03</rscale>
<asrwt>0</asrwt>
<pdfrwt beam="1">  1        1 0.27588511E+00 0.99975230E+03</pdfrwt>
<pdfrwt beam="2">  1       -1 0.21437289E-01 0.99975230E+03</pdfrwt>
<totfact> 0.79282864E+01</totfact>
</mgrwt>
</event>
<event>
 9    1  0.4246427E-036  0.9997969E+03  0.7818608E-02  0.8681231E-01
          1   -1    0    0  501    0  0.00000000000E+00  0.00000000000E+00  0.78963660331E+03  0.78963660331E+03  0.00000000000E+00 0. -1.
         -1   -1    0    0    0  501 -0.00000000000E+00 -0.00000000000E+00 -0.31647274288E+03  0.31647274288E+03  0.00000000000E+00 0. -1.
         36    2    1    2    0    0  0.28421709430E-13  0.00000000000E+00  0.47316386043E+03  0.11061093462E+04  0.99979690284E+03 0.  0.
         25    2    3    3    0    0  0.11666691995E+03  0.30741705068E+02  0.16683022313E+03  0.24068505323E+03  0.12466253991E+03 0.  0.
         35    2    3    3    0    0 -0.11666691995E+03 -0.30741705068E+02  0.30633363730E+03  0.86542429296E+03  0.80035160203E+03 0.  0.
         22    1    5    5    0    0  0.30608535327E+03  0.15976302302E+03  0.14470743891E+03  0.37436975023E+03  0.00000000000E+00 0.  1.
         22    1    5    5    0    0 -0.42275227322E+03 -0.19050472809E+03  0.16162619839E+03  0.49105454274E+03  0.00000000000E+00 0.  1.
          5    1    4    4  502    0  0.88848861288E+02 -0.90355316645E+01  0.28268372784E+02  0.93792067279E+02  0.47000000000E+01 0.  1.
         -5    1    4    4    0  502  0.27818058663E+02  0.39777236733E+02  0.13856185035E+03  0.14689298595E+03  0.47000000000E+01 0.  1.
<mgrwt>
<rscale>  0 0.99979690E+03</rscale>
<asrwt>0</asrwt>
<pdfrwt beam="1">  1        1 0.12148255E+00 0.99979690E+03</pdfrwt>
<pdfrwt beam="2">  1       -1 0.48688115E-01 0.99979690E+03</pdfrwt>
<totfact> 0.10866258E+02</totfact>
</mgrwt>
</event>
<event>
 9    1  0.4246427E-036  0.9995291E+03  0.7818608E-02  0.8681487E-01
         -2   -1    0    0    0  501 -0.00000000000E+00  0.00000000000E+00  0.12795975632E+03  0.12795975632E+03  0.00000000000E+00 0. -1.
          2   -1    0    0  501    0  0.00000000000E+00 -0.00000000000E+00 -0.19518995713E+04  0.19518995713E+04  0.00000000000E+00 0. -1.
         36    2    1    2    0    0  0.42632564146E-13 -0.14210854715E-13 -0.18239398149E+04  0.20798593276E+04  0.99952907613E+03 0.  0.
         25    2    3    3    0    0 -0.44032877370E+02 -0.79936371315E+02 -0.11377701942E+03  0.19372511245E+03  0.12749702466E+03 0.  0.
         35    2    3    3    0    0  0.44032877370E+02  0.79936371315E+02 -0.17101627955E+04  0.18861342151E+04  0.79026373609E+03 0.  0.
         22    1    5    5    0    0 -0.27372387199E+03  0.26105968631E+03 -0.53386156497E+03  0.65428211687E+03  0.00000000000E+00 0. -1.
         22    1    5    5    0    0  0.31775674936E+03 -0.18112331499E+03 -0.11763012305E+04  0.12318520983E+04  0.00000000000E+00 0. -1.
          5    1    4    4  502    0 -0.35994335539E+02 -0.11439079169E+03 -0.77653945540E+02  0.14294429220E+03  0.47000000000E+01 0. -1.
         -5    1    4    4    0  502 -0.80385418313E+01  0.34454420379E+02 -0.36123073883E+02  0.50780820249E+02  0.47000000000E+01 0. -1.
<mgrwt>
<rscale>  0 0.99952908E+03</rscale>
<asrwt>0</asrwt>
<pdfrwt beam="1">  1        2 0.30029224E+00 0.99952908E+03</pdfrwt>
<pdfrwt beam="2">  1       -2 0.19686116E-01 0.99952908E+03</pdfrwt>
<totfact> 0.18347854E+02</totfact>
</mgrwt>
</event>
<event>
 9    1  0.4246427E-036  0.1000474E+04  0.7818608E-02  0.8680586E-01
          1   -1    0    0  501    0  0.00000000000E+00  0.00000000000E+00  0.29315217611E+03  0.29315217611E+03  0.00000000000E+00 0. -1.
         -1   -1    0    0    0  501 -0.00000000000E+00 -0.00000000000E+00 -0.85360884977E+03  0.85360884977E+03  0.00000000000E+00 0. -1.
         36    2    1    2    0    0  0.14210854715E-13  0.14210854715E-13 -0.56045667366E+03  0.11467610259E+04  0.10004744711E+04 0.  0.
         25    2    3    3    0    0 -0.35093996437E+02 -0.10648628235E+03 -0.73952872725E+01  0.16777443030E+03  0.12458993649E+03 0.  0.
         35    2    3    3    0    0  0.35093996437E+02  0.10648628235E+03 -0.55306138639E+03  0.97898659557E+03  0.79997933741E+03 0.  0.
         22    1    5    5    0    0 -0.25200125387E+03 -0.78208526700E+01  0.88239680798E+02  0.26711802439E+03  0.00000000000E+00 0.  1.
         22    1    5    5    0    0  0.28709525030E+03  0.11430713502E+03 -0.64130106719E+03  0.71186857118E+03  0.00000000000E+00 0.  1.
          5    1    4    4  502    0 -0.20895310880E+02 -0.12773980647E+03  0.18793539766E+02  0.13087917829E+03  0.47000000000E+01 0.  1.
         -5    1    4    4    0  502 -0.14198685557E+02  0.21253524119E+02 -0.26188827039E+02  0.36895252008E+02  0.47000000000E+01 0.  1.
<mgrwt>
<rscale>  0 0.10004745E+04</rscale>
<asrwt>0</asrwt>
<pdfrwt beam="1">  1        1 0.45100334E-01 0.10004745E+04</pdfrwt>
<pdfrwt beam="2">  1       -1 0.13132444E+00 0.10004745E+04</pdfrwt>
<totfact> 0.53439180E+01</totfact>
</mgrwt>
</event>
<event>
 9    1  0.4246427E-036  0.1001990E+04  0.7818608E-02  0.8679145E-01
          2   -1    0    0  501    0  0.00000000000E+00  0.00000000000E+00  0.55739258065E+03  0.55739258065E+03  0.00000000000E+00 0.  1.
         -2   -1    0    0    0  501 -0.00000000000E+00 -0.00000000000E+00 -0.45030388335E+03  0.45030388335E+03  0.00000000000E+00 0.  1.
         36    2    1    2    0    0  0.00000000000E+00 -0.28421709430E-13  0.10708869730E+03  0.10076964640E+04  0.10019901070E+04 0.  0.
         25    2    3    3    0    0  0.13364553217E+03 -0.43923633992E+02  0.29818775816E+02  0.19187387253E+03  0.12702759416E+03 0.  0.
         35    2    3    3    0    0 -0.13364553217E+03  0.43923633992E+02  0.77269921484E+02  0.81582259146E+03  0.79987839456E+03 0.  0.
         22    1    5    5    0    0 -0.16450586931E+03 -0.23543937011E+03 -0.25257127754E+03  0.38247369618E+03  0.00000000000E+00 0. -1.
         22    1    5    5    0    0  0.30860337140E+02  0.27936300410E+03  0.32984119902E+03  0.43334889528E+03  0.00000000000E+00 0. -1.
          5    1    4    4  502    0  0.65645379193E+02 -0.63278263623E+02 -0.33099599627E+02  0.97113994625E+02  0.47000000000E+01 0. -1.
         -5    1    4    4    0  502  0.68000152977E+02  0.19354629631E+02  0.62918375442E+02  0.94759877909E+02  0.47000000000E+01 0. -1.
<mgrwt>
<rscale>  0 0.10019901E+04</rscale>
<asrwt>0</asrwt>
<pdfrwt beam="1">  1        2 0.85752705E-01 0.10019901E+04</pdfrwt>
<pdfrwt beam="2">  1       -2 0.69277521E-01 0.10019901E+04</pdfrwt>
<totfact> 0.12463320E+02</totfact>
</mgrwt>
</event>
<event>
 9    1  0.4246427E-036  0.1000399E+04  0.7818608E-02  0.8680658E-01
         -2   -1    0    0    0  501 -0.00000000000E+00  0.00000000000E+00  0.10609811015E+03  0.10609811015E+03  0.00000000000E+00 0. -1.
          2   -1    0    0  501    0  0.00000000000E+00 -0.00000000000E+00 -0.23581914886E+04  0.23581914886E+04  0.00000000000E+00 0. -1.
         36    2    1    2    0    0  0.14210854715E-13  0.00000000000E+00 -0.22520933784E+04  0.24642895987E+04  0.10003992409E+04 0.  0.
         25    2    3    3    0    0  0.69072384606E+02 -0.74595971553E+02 -0.19979450997E+03  0.25642202233E+03  0.12449439358E+03 0.  0.
         35    2    3    3    0    0 -0.69072384606E+02  0.74595971553E+02 -0.20522988685E+04  0.22078675764E+04  0.80772088999E+03 0.  0.
         22    1    5    5    0    0  0.28759514622E+03  0.15725804631E+03 -0.40829578267E+03  0.52359001844E+03  0.00000000000E+00 0. -1.
         22    1    5    5    0    0 -0.35666753083E+03 -0.82662074755E+02 -0.16440030858E+04  0.16842775580E+04  0.00000000000E+00 0. -1.
          5    1    4    4  502    0 -0.72779358872E+01 -0.42898848211E+02 -0.15745293322E+03  0.16342213959E+03  0.47000000000E+01 0. -1.
         -5    1    4    4    0  502  0.76350320493E+02 -0.31697123342E+02 -0.42341576751E+02  0.92999882738E+02  0.47000000000E+01 0. -1.
<mgrwt>
<rscale>  0 0.10003992E+04</rscale>
<asrwt>0</asrwt>
<pdfrwt beam="1">  1        2 0.36279869E+00 0.10003992E+04</pdfrwt>
<pdfrwt beam="2">  1       -2 0.16322786E-01 0.10003992E+04</pdfrwt>
<totfact> 0.14699052E+02</totfact>
</mgrwt>
</event>
<event>
 9    1  0.4246427E-036  0.1000308E+04  0.7818608E-02  0.8680744E-01
          2   -1    0    0  501    0  0.00000000000E+00  0.00000000000E+00  0.37068181674E+03  0.37068181674E+03  0.00000000000E+00 0.  1.
         -2   -1    0    0    0  501 -0.00000000000E+00 -0.00000000000E+00 -0.67484895581E+03  0.67484895581E+03  0.00000000000E+00 0.  1.
         36    2    1    2    0    0 -0.14210854715E-13  0.00000000000E+00 -0.30416713907E+03  0.10455307726E+04  0.10003084264E+04 0.  0.
         25    2    3    3    0    0  0.67156307393E+02  0.62804630773E+02 -0.16894292129E+03  0.22921432070E+03  0.12467198117E+03 0.  0.
         35    2    3    3    0    0 -0.67156307393E+02 -0.62804630773E+02 -0.13522421778E+03  0.81631645186E+03  0.79977032280E+03 0.  0.
         22    1    5    5    0    0 -0.76744067891E+02  0.48906544811E+01 -0.46917666995E+03  0.47543697593E+03  0.00000000000E+00 0. -1.
         22    1    5    5    0    0  0.95877604983E+01 -0.67695285254E+02  0.33395245217E+03  0.34087947592E+03  0.00000000000E+00 0. -1.
          5    1    4    4  502    0  0.95131746151E+02  0.42495364845E+02 -0.73498050501E+02  0.12759294097E+03  0.47000000000E+01 0. -1.
         -5    1    4    4    0  502 -0.27975438758E+02  0.20309265928E+02 -0.95444870790E+02  0.10162137972E+03  0.47000000000E+01 0. -1.
<mgrwt>
<rscale>  0 0.10003084E+04</rscale>
<asrwt>0</asrwt>
<pdfrwt beam="1">  1        2 0.57027972E-01 0.10003084E+04</pdfrwt>
<pdfrwt beam="2">  1       -2 0.10382292E+00 0.10003084E+04</pdfrwt>
<totfact> 0.77513113E+01</totfact>
</mgrwt>
</event>
<event>
 9    1  0.4246427E-036  0.9999435E+03  0.7818608E-02  0.8681092E-01
          1   -1    0    0  501    0  0.00000000000E+00  0.00000000000E+00  0.99069898948E+03  0.99069898948E+03  0.00000000000E+00 0. -1.
         -1   -1    0    0    0  501 -0.00000000000E+00 -0.00000000000E+00 -0.25231854530E+03  0.25231854530E+03  0.00000000000E+00 0. -1.
         36    2    1    2    0    0  0.35527136788E-14 -0.71054273576E-14  0.73838044418E+03  0.12430175348E+04  0.99994345412E+03 0.  0.
         25    2    3    3    0    0  0.99579593951E+01  0.19808001150E+02 -0.33245821281E+02  0.13105667071E+03  0.12481605842E+03 0.  0.
         35    2    3    3    0    0 -0.99579593951E+01 -0.19808001150E+02  0.77162626546E+03  0.11119608641E+04  0.80034889382E+03 0.  0.
         22    1    5    5    0    0 -0.15526199554E+03 -0.86665046212E+02  0.89340667918E+03  0.91092953179E+03  0.00000000000E+00 0. -1.
         22    1    5    5    0    0  0.14530403614E+03  0.66857045062E+02 -0.12178041372E+03  0.20103133228E+03  0.00000000000E+00 0. -1.
          5    1    4    4  502    0 -0.10579357677E+02  0.63530476263E+02 -0.47850732162E+02  0.80373047668E+02  0.47000000000E+01 0.  1.
         -5    1    4    4    0  502  0.20537317072E+02 -0.43722475113E+02  0.14604910881E+02  0.50683623039E+02  0.47000000000E+01 0.  1.
<mgrwt>
<rscale>  0 0.99994345E+03</rscale>
<asrwt>0</asrwt>
<pdfrwt beam="1">  1        1 0.15241523E+00 0.99994345E+03</pdfrwt>
<pdfrwt beam="2">  1       -1 0.38818238E-01 0.99994345E+03</pdfrwt>
<totfact> 0.11089850E+02</totfact>
</mgrwt>
</event>
<event>
 9    1  0.4246427E-036  0.9938426E+03  0.7818608E-02  0.8686924E-01
          2   -1    0    0  501    0  0.00000000000E+00  0.00000000000E+00  0.15121507175E+04  0.15121507175E+04  0.00000000000E+00 0.  1.
         -2   -1    0    0    0  501 -0.00000000000E+00 -0.00000000000E+00 -0.16329773059E+03  0.16329773059E+03  0.00000000000E+00 0.  1.
         36    2    1    2    0    0 -0.42632564146E-13 -0.71054273576E-14  0.13488529869E+04  0.16754484481E+04  0.99384260420E+03 0.  0.
         25    2    3    3    0    0  0.12620678963E+03  0.39926532193E+02  0.27538423184E+03  0.33117742741E+03  0.12774870472E+03 0.  0.
         35    2    3    3    0    0 -0.12620678963E+03 -0.39926532193E+02  0.10734687551E+04  0.13442710207E+04  0.79825254602E+03 0.  0.
         22    1    5    5    0    0 -0.44963300394E+03  0.63525988528E+02  0.48169800381E+03  0.66199573739E+03  0.00000000000E+00 0. -1.
         22    1    5    5    0    0  0.32342621431E+03 -0.10345252072E+03  0.59177075127E+03  0.68227528330E+03  0.00000000000E+00 0. -1.
          5    1    4    4  502    0  0.81492146866E+02 -0.41768887555E+01  0.47034227863E+02  0.94301245969E+02  0.47000000000E+01 0.  1.
         -5    1    4    4    0  502  0.44714642763E+02  0.44103420949E+02  0.22835000398E+03  0.23687618144E+03  0.47000000000E+01 0.  1.
<mgrwt>
<rscale>  0 0.99384260E+03</rscale>
<asrwt>0</asrwt>
<pdfrwt beam="1">  1        2 0.23263856E+00 0.99384260E+03</pdfrwt>
<pdfrwt beam="2">  1       -2 0.25122729E-01 0.99384260E+03</pdfrwt>
<totfact> 0.21207984E+02</totfact>
</mgrwt>
</event>
<event>
 9    1  0.4246427E-036  0.1000094E+04  0.7818608E-02  0.8680949E-01
          2   -1    0    0  501    0  0.00000000000E+00  0.00000000000E+00  0.34808683022E+04  0.34808683022E+04  0.00000000000E+00 0. -1.
         -2   -1    0    0    0  501 -0.00000000000E+00 -0.00000000000E+00 -0.71834630422E+02  0.71834630422E+02  0.00000000000E+00 0. -1.
         36    2    1    2    0    0 -0.14210854715E-13 -0.28421709430E-13  0.34090336718E+04  0.35527029326E+04  0.10000937717E+04 0.  0.
         25    2    3    3    0    0 -0.66857454966E+02 -0.81751591939E+02  0.92661026000E+03  0.94195970633E+03  0.13239438184E+03 0.  0.
         35    2    3    3    0    0  0.66857454966E+02  0.81751591939E+02  0.24824234118E+04  0.26107432263E+04  0.80149919290E+03 0.  0.
         22    1    5    5    0    0  0.18088911679E+03 -0.23864082486E+03  0.19893670069E+04  0.20117781697E+04  0.00000000000E+00 0. -1.
         22    1    5    5    0    0 -0.11403166183E+03  0.32039241680E+03  0.49305640483E+03  0.59896505656E+03  0.00000000000E+00 0. -1.
          5    1    4    4  502    0 -0.55538671720E+02 -0.14067058827E+02  0.12709167054E+03  0.13948766583E+03  0.47000000000E+01 0. -1.
         -5    1    4    4    0  502 -0.11318783246E+02 -0.67684533112E+02  0.79951858947E+03  0.80247204050E+03  0.47000000000E+01 0. -1.
<mgrwt>
<rscale>  0 0.10000938E+04</rscale>
<asrwt>0</asrwt>
<pdfrwt beam="1">  1        2 0.53551807E+00 0.10000938E+04</pdfrwt>
<pdfrwt beam="2">  1       -2 0.11051484E-01 0.10000938E+04</pdfrwt>
<totfact> 0.50691695E+01</totfact>
</mgrwt>
</event>
<event>
 9    1  0.4246427E-036  0.9995499E+03  0.7818608E-02  0.8681467E-01
          1   -1    0    0  501    0  0.00000000000E+00  0.00000000000E+00  0.37807149261E+03  0.37807149261E+03  0.00000000000E+00 0.  1.
         -1   -1    0    0    0  501 -0.00000000000E+00 -0.00000000000E+00 -0.66065547941E+03  0.66065547941E+03  0.00000000000E+00 0.  1.
         36    2    1    2    0    0  0.00000000000E+00 -0.71054273576E-14 -0.28258398680E+03  0.10387269720E+04  0.99954990511E+03 0.  0.
         25    2    3    3    0    0  0.11055686714E+03  0.42502398206E+02  0.32766633120E+02  0.17437025809E+03  0.12370149529E+03 0.  0.
         35    2    3    3    0    0 -0.11055686714E+03 -0.42502398206E+02 -0.31535061992E+03  0.86435671392E+03  0.79601334203E+03 0.  0.
         22    1    5    5    0    0 -0.28027283418E+02  0.27670120015E+03  0.13263524386E+03  0.30812528409E+03  0.00000000000E+00 0. -1.
         22    1    5    5    0    0 -0.82529583723E+02 -0.31920359836E+03 -0.44798586377E+03  0.55623142983E+03  0.00000000000E+00 0. -1.
          5    1    4    4  502    0  0.12543710908E+03  0.65718797641E+02  0.36056786631E+02  0.14620400323E+03  0.47000000000E+01 0. -1.
         -5    1    4    4    0  502 -0.14880241941E+02 -0.23216399435E+02 -0.32901535108E+01  0.28166254864E+02  0.47000000000E+01 0. -1.
<mgrwt>
<rscale>  0 0.99954991E+03</rscale>
<asrwt>0</asrwt>
<pdfrwt beam="1">  1        1 0.58164846E-01 0.99954991E+03</pdfrwt>
<pdfrwt beam="2">  1       -1 0.10163930E+00 0.99954991E+03</pdfrwt>
<totfact> 0.71196545E+01</totfact>
</mgrwt>
</event>
<event>
 9    1  0.4246427E-036  0.1000257E+04  0.7818608E-02  0.8680793E-01
         -3   -1    0    0    0  501 -0.00000000000E+00  0.00000000000E+00  0.16545884282E+03  0.16545884282E+03  0.00000000000E+00 0.  1.
          3   -1    0    0  501    0  0.00000000000E+00 -0.00000000000E+00 -0.15117278235E+04  0.15117278235E+04  0.00000000000E+00 0.  1.
         36    2    1    2    0    0  0.00000000000E+00 -0.14210854715E-13 -0.13462689807E+04  0.16771866663E+04  0.10002574395E+04 0.  0.
         25    2    3    3    0    0  0.68509983188E+02  0.43965094138E+02 -0.61849996732E+02  0.16172548245E+03  0.12531225909E+03 0.  0.
         35    2    3    3    0    0 -0.68509983188E+02 -0.43965094138E+02 -0.12844189839E+04  0.15154611838E+04  0.80016493686E+03 0.  0.
         22    1    5    5    0    0 -0.10773649619E+03 -0.14909364625E+03  0.38383720914E+02  0.18790789764E+03  0.00000000000E+00 0.  1.
         22    1    5    5    0    0  0.39226513004E+02  0.10512855211E+03 -0.13228027048E+04  0.13275532862E+04  0.00000000000E+00 0.  1.
          5    1    4    4  502    0  0.34858204943E+02 -0.41262679422E+02 -0.40083590901E+02  0.67427645847E+02  0.47000000000E+01 0. -1.
         -5    1    4    4    0  502  0.33651778245E+02  0.85227773560E+02 -0.21766405831E+02  0.94297836602E+02  0.47000000000E+01 0. -1.
<mgrwt>
<rscale>  0 0.10002574E+04</rscale>
<asrwt>0</asrwt>
<pdfrwt beam="1">  1        3 0.23257350E+00 0.10002574E+04</pdfrwt>
<pdfrwt beam="2">  1       -3 0.25455208E-01 0.10002574E+04</pdfrwt>
<totfact> 0.54484956E+00</totfact>
</mgrwt>
</event>
<event>
 9    1  0.4246427E-036  0.9996345E+03  0.7818608E-02  0.8681386E-01
          1   -1    0    0  501    0  0.00000000000E+00  0.00000000000E+00  0.25699642900E+03  0.25699642900E+03  0.00000000000E+00 0.  1.
         -1   -1    0    0    0  501 -0.00000000000E+00 -0.00000000000E+00 -0.97206527677E+03  0.97206527677E+03  0.00000000000E+00 0.  1.
         36    2    1    2    0    0 -0.28421709430E-13 -0.14210854715E-13 -0.71506884776E+03  0.12290617058E+04  0.99963454300E+03 0.  0.
         25    2    3    3    0    0 -0.90001897060E+02 -0.47401710250E+02 -0.25721949773E+03  0.30202191620E+03  0.12127697327E+03 0.  0.
         35    2    3    3    0    0  0.90001897060E+02  0.47401710250E+02 -0.45784935004E+03  0.92703978957E+03  0.79964334582E+03 0.  0.
         22    1    5    5    0    0  0.25807510571E+03 -0.31457683969E+03 -0.22384977643E+03  0.46440291845E+03  0.00000000000E+00 0.  1.
         22    1    5    5    0    0 -0.16807320865E+03  0.36197854994E+03 -0.23399957361E+03  0.46263687113E+03  0.00000000000E+00 0.  1.
          5    1    4    4  502    0 -0.95940579136E+02  0.94964353355E+01 -0.19364743137E+03  0.21637050327E+03  0.47000000000E+01 0.  1.
         -5    1    4    4    0  502  0.59386820759E+01 -0.56898145586E+02 -0.63572066353E+02  0.85651412926E+02  0.47000000000E+01 0.  1.
<mgrwt>
<rscale>  0 0.99963454E+03</rscale>
<asrwt>0</asrwt>
<pdfrwt beam="1">  1        1 0.39537912E-01 0.99963454E+03</pdfrwt>
<pdfrwt beam="2">  1       -1 0.14954850E+00 0.99963454E+03</pdfrwt>
<totfact> 0.44357108E+01</totfact>
</mgrwt>
</event>
<event>
 9    1  0.4246427E-036  0.9993885E+03  0.7818608E-02  0.8681620E-01
         -2   -1    0    0    0  501 -0.00000000000E+00  0.00000000000E+00  0.19354492897E+03  0.19354492897E+03  0.00000000000E+00 0.  1.
          2   -1    0    0  501    0  0.00000000000E+00 -0.00000000000E+00 -0.12901105162E+04  0.12901105162E+04  0.00000000000E+00 0.  1.
         36    2    1    2    0    0  0.71054273576E-14  0.14210854715E-13 -0.10965655873E+04  0.14836554452E+04  0.99938850949E+03 0.  0.
         25    2    3    3    0    0 -0.36567188833E+02 -0.87098329137E+02 -0.54016630491E+02  0.16608023672E+03  0.12546541524E+03 0.  0.
         35    2    3    3    0    0  0.36567188833E+02  0.87098329137E+02 -0.10425489568E+04  0.13175752085E+04  0.80010800802E+03 0.  0.
         22    1    5    5    0    0  0.12656486157E+03  0.86332814807E+02 -0.11597380092E+04  0.11698137754E+04  0.00000000000E+00 0.  1.
         22    1    5    5    0    0 -0.89997672740E+02  0.76551432998E+00  0.11718905241E+03  0.14776143311E+03  0.00000000000E+00 0.  1.
          5    1    4    4  502    0 -0.32660129643E+02 -0.41418275137E+02  0.36630595856E+02  0.64389813918E+02  0.47000000000E+01 0.  1.
         -5    1    4    4    0  502 -0.39070591898E+01 -0.45680054000E+02 -0.90647226347E+02  0.10169042280E+03  0.47000000000E+01 0.  1.
<mgrwt>
<rscale>  0 0.99938851E+03</rscale>
<asrwt>0</asrwt>
<pdfrwt beam="1">  1        2 0.19847854E+00 0.99938851E+03</pdfrwt>
<pdfrwt beam="2">  1       -2 0.29776143E-01 0.99938851E+03</pdfrwt>
<totfact> 0.20933664E+02</totfact>
</mgrwt>
</event>
<event>
 9    1  0.4246427E-036  0.9992260E+03  0.7818608E-02  0.8681775E-01
         -1   -1    0    0    0  501 -0.00000000000E+00  0.00000000000E+00  0.16237335077E+03  0.16237335077E+03  0.00000000000E+00 0. -1.
          1   -1    0    0  501    0  0.00000000000E+00 -0.00000000000E+00 -0.15372789173E+04  0.15372789173E+04  0.00000000000E+00 0. -1.
         36    2    1    2    0    0 -0.28421709430E-13  0.28421709430E-13 -0.13749055665E+04  0.16996522680E+04  0.99922595816E+03 0.  0.
         25    2    3    3    0    0 -0.99897197864E+02 -0.39517233486E+02 -0.10841196270E+03  0.19738805571E+03  0.12517119875E+03 0.  0.
         35    2    3    3    0    0  0.99897197864E+02  0.39517233486E+02 -0.12664936038E+04  0.15022642123E+04  0.80078127682E+03 0.  0.
         22    1    5    5    0    0 -0.40677169381E+02  0.39041128864E+03 -0.41817508185E+03  0.57353814650E+03  0.00000000000E+00 0. -1.
         22    1    5    5    0    0  0.14057436724E+03 -0.35089405516E+03 -0.84831852196E+03  0.92872606584E+03  0.00000000000E+00 0. -1.
          5    1    4    4  502    0 -0.70207096168E+02  0.39028841837E+02 -0.46266378213E+02  0.92816779735E+02  0.47000000000E+01 0. -1.
         -5    1    4    4    0  502 -0.29690101696E+02 -0.78546075323E+02 -0.62145584490E+02  0.10457127597E+03  0.47000000000E+01 0. -1.
<mgrwt>
<rscale>  0 0.99922596E+03</rscale>
<asrwt>0</asrwt>
<pdfrwt beam="1">  1        1 0.23650446E+00 0.99922596E+03</pdfrwt>
<pdfrwt beam="2">  1       -1 0.24980515E-01 0.99922596E+03</pdfrwt>
<totfact> 0.93104425E+01</totfact>
</mgrwt>
</event>
<event>
 9    1  0.4246427E-036  0.1000082E+04  0.7818608E-02  0.8680960E-01
         -2   -1    0    0    0  501 -0.00000000000E+00  0.00000000000E+00  0.22592982228E+03  0.22592982228E+03  0.00000000000E+00 0. -1.
          2   -1    0    0  501    0  0.00000000000E+00 -0.00000000000E+00 -0.11067200310E+04  0.11067200310E+04  0.00000000000E+00 0. -1.
         36    2    1    2    0    0  0.71054273576E-14  0.28421709430E-13 -0.88079020871E+03  0.13326498533E+04  0.10000821165E+04 0.  0.
         25    2    3    3    0    0 -0.21728481308E+02  0.14133185752E+03 -0.17906533743E+03  0.25986501614E+03  0.12255044142E+03 0.  0.
         35    2    3    3    0    0  0.21728481308E+02 -0.14133185752E+03 -0.70172487129E+03  0.10727848371E+04  0.79875070640E+03 0.  0.
         22    1    5    5    0    0  0.75496081701E+02 -0.46326225251E+03 -0.30817721797E+03  0.56150224454E+03  0.00000000000E+00 0. -1.
         22    1    5    5    0    0 -0.53767600393E+02  0.32193039498E+03 -0.39354765331E+03  0.51128259260E+03  0.00000000000E+00 0. -1.
          5    1    4    4  502    0  0.17789554959E+02  0.14697027733E+03 -0.13968294225E+03  0.20359308692E+03  0.47000000000E+01 0.  1.
         -5    1    4    4    0  502 -0.39518036267E+02 -0.56384198054E+01 -0.39382395172E+02  0.56271929217E+02  0.47000000000E+01 0.  1.
<mgrwt>
<rscale>  0 0.10000821E+04</rscale>
<asrwt>0</asrwt>
<pdfrwt beam="1">  1        2 0.17026462E+00 0.10000821E+04</pdfrwt>
<pdfrwt beam="2">  1       -2 0.34758434E-01 0.10000821E+04</pdfrwt>
<totfact> 0.20213183E+02</totfact>
</mgrwt>
</event>
<event>
 9    1  0.4246427E-036  0.1003303E+04  0.7818608E-02  0.8677899E-01
         -2   -1    0    0    0  501 -0.00000000000E+00  0.00000000000E+00  0.11769085440E+03  0.11769085440E+03  0.00000000000E+00 0. -1.
          2   -1    0    0  501    0  0.00000000000E+00 -0.00000000000E+00 -0.21382639422E+04  0.21382639422E+04  0.00000000000E+00 0. -1.
         36    2    1    2    0    0 -0.14210854715E-13  0.00000000000E+00 -0.20205730878E+04  0.22559547966E+04  0.10033027665E+04 0.  0.
         25    2    3    3    0    0  0.81835968116E+02 -0.68746632307E+02 -0.16695760780E+03  0.23448867321E+03  0.12524723523E+03 0.  0.
         35    2    3    3    0    0 -0.81835968116E+02  0.68746632307E+02 -0.18536154800E+04  0.20214661233E+04  0.79938208335E+03 0.  0.
         22    1    5    5    0    0 -0.21089421035E+03  0.37361508619E+03 -0.13683237900E+04  0.14340064835E+04  0.00000000000E+00 0.  1.
         22    1    5    5    0    0  0.12905824223E+03 -0.30486845388E+03 -0.48529168999E+03  0.58745963983E+03  0.00000000000E+00 0.  1.
          5    1    4    4  502    0  0.70630467931E+02  0.23679177926E+01 -0.14104830103E+03  0.15783213633E+03  0.47000000000E+01 0.  1.
         -5    1    4    4    0  502  0.11205500186E+02 -0.71114550100E+02 -0.25909306773E+02  0.76656536889E+02  0.47000000000E+01 0.  1.
<mgrwt>
<rscale>  0 0.10033028E+04</rscale>
<asrwt>0</asrwt>
<pdfrwt beam="1">  1        2 0.32896369E+00 0.10033028E+04</pdfrwt>
<pdfrwt beam="2">  1       -2 0.18106285E-01 0.10033028E+04</pdfrwt>
<totfact> 0.16573894E+02</totfact>
</mgrwt>
</event>
<event>
 9    1  0.4246427E-036  0.9928776E+03  0.7818608E-02  0.8687850E-01
         -1   -1    0    0    0  501 -0.00000000000E+00  0.00000000000E+00  0.13070841284E+03  0.13070841284E+03  0.00000000000E+00 0. -1.
          1   -1    0    0  501    0  0.00000000000E+00 -0.00000000000E+00 -0.18855058375E+04  0.18855058375E+04  0.00000000000E+00 0. -1.
         36    2    1    2    0    0  0.00000000000E+00  0.14210854715E-13 -0.17547974247E+04  0.20162142504E+04  0.99287758645E+03 0.  0.
         25    2    3    3    0    0 -0.11037864383E+03  0.36176817480E+02 -0.19476267653E+03  0.25902538052E+03  0.12517763557E+03 0.  0.
         35    2    3    3    0    0  0.11037864383E+03 -0.36176817480E+02 -0.15600347482E+04  0.17571888699E+04  0.80031999956E+03 0.  0.
         22    1    5    5    0    0  0.77050491792E+02 -0.90341874081E+02 -0.16459882860E+04  0.16502653938E+04  0.00000000000E+00 0. -1.
         22    1    5    5    0    0  0.33328152043E+02  0.54165056601E+02  0.85953537776E+02  0.10692347605E+03  0.00000000000E+00 0. -1.
          5    1    4    4  502    0 -0.11140297573E+03  0.14753823898E+02 -0.20574078121E+03  0.23447741335E+03  0.47000000000E+01 0.  1.
         -5    1    4    4    0  502  0.10243318914E+01  0.21422993582E+02  0.10978104678E+02  0.24547967170E+02  0.47000000000E+01 0.  1.
<mgrwt>
<rscale>  0 0.99287759E+03</rscale>
<asrwt>0</asrwt>
<pdfrwt beam="1">  1        1 0.29007779E+00 0.99287759E+03</pdfrwt>
<pdfrwt beam="2">  1       -1 0.20108989E-01 0.99287759E+03</pdfrwt>
<totfact> 0.75973289E+01</totfact>
</mgrwt>
</event>
<event>
 9    1  0.4246427E-036  0.9996451E+03  0.7818608E-02  0.8681376E-01
          1   -1    0    0  501    0  0.00000000000E+00  0.00000000000E+00  0.80158668824E+03  0.80158668824E+03  0.00000000000E+00 0. -1.
         -1   -1    0    0    0  501 -0.00000000000E+00 -0.00000000000E+00 -0.31166009248E+03  0.31166009248E+03  0.00000000000E+00 0. -1.
         36    2    1    2    0    0 -0.42632564146E-13 -0.14210854715E-13  0.48992659576E+03  0.11132467807E+04  0.99964509980E+03 0.  0.
         25    2    3    3    0    0  0.66629833096E+02  0.10756461746E+03  0.25015873329E+02  0.17983823563E+03  0.12532483987E+03 0.  0.
         35    2    3    3    0    0 -0.66629833096E+02 -0.10756461746E+03  0.46491072243E+03  0.93340854509E+03  0.79943720868E+03 0.  0.
         22    1    5    5    0    0 -0.39551036119E+03 -0.18146653171E+03  0.12058141712E+03  0.45155113342E+03  0.00000000000E+00 0.  1.
         22    1    5    5    0    0  0.32888052809E+03  0.73901914247E+02  0.34432930531E+03  0.48185741167E+03  0.00000000000E+00 0.  1.
          5    1    4    4  502    0 -0.87391024911E+01 -0.12648660035E+01 -0.33547419641E+02  0.35007015910E+02  0.47000000000E+01 0. -1.
         -5    1    4    4    0  502  0.75368935587E+02  0.10882948347E+03  0.58563292970E+02  0.14483121972E+03  0.47000000000E+01 0. -1.
<mgrwt>
<rscale>  0 0.99964510E+03</rscale>
<asrwt>0</asrwt>
<pdfrwt beam="1">  1        1 0.12332103E+00 0.99964510E+03</pdfrwt>
<pdfrwt beam="2">  1       -1 0.47947707E-01 0.99964510E+03</pdfrwt>
<totfact> 0.10907438E+02</totfact>
</mgrwt>
</event>
<event>
 9    1  0.4246427E-036  0.9991650E+03  0.7818608E-02  0.8681834E-01
          2   -1    0    0  501    0  0.00000000000E+00  0.00000000000E+00  0.48732938663E+03  0.48732938663E+03  0.00000000000E+00 0. -1.
         -2   -1    0    0    0  501 -0.00000000000E+00 -0.00000000000E+00 -0.51214368628E+03  0.51214368628E+03  0.00000000000E+00 0. -1.
         36    2    1    2    0    0  0.71054273576E-14  0.00000000000E+00 -0.24814299648E+02  0.99947307291E+03  0.99916498838E+03 0.  0.
         25    2    3    3    0    0 -0.71505364716E+01  0.12798763192E+03 -0.68447894944E+02  0.19077720963E+03  0.12360770726E+03 0.  0.
         35    2    3    3    0    0  0.71505364716E+01 -0.12798763192E+03  0.43633595296E+02  0.80869586329E+03  0.79727858654E+03 0.  0.
         22    1    5    5    0    0 -0.25780085167E+03 -0.72872684222E+02 -0.27953287584E+03  0.38718256147E+03  0.00000000000E+00 0. -1.
         22    1    5    5    0    0  0.26495138814E+03 -0.55114947702E+02  0.32316647114E+03  0.42151330182E+03  0.00000000000E+00 0. -1.
          5    1    4    4  502    0 -0.39705170349E+02  0.12500865074E+03 -0.20924281042E+02  0.13290439741E+03  0.47000000000E+01 0. -1.
         -5    1    4    4    0  502  0.32554633877E+02  0.29789811809E+01 -0.47523613903E+02  0.57872812219E+02  0.47000000000E+01 0. -1.
<mgrwt>
<rscale>  0 0.99916499E+03</rscale>
<asrwt>0</asrwt>
<pdfrwt beam="1">  1        2 0.74973752E-01 0.99916499E+03</pdfrwt>
<pdfrwt beam="2">  1       -2 0.78791336E-01 0.99916499E+03</pdfrwt>
<totfact> 0.10942531E+02</totfact>
</mgrwt>
</event>
<event>
 9    1  0.4246427E-036  0.9982427E+03  0.7818608E-02  0.8682713E-01
         -1   -1    0    0    0  501 -0.00000000000E+00  0.00000000000E+00  0.17678833684E+03  0.17678833684E+03  0.00000000000E+00 0. -1.
          1   -1    0    0  501    0  0.00000000000E+00 -0.00000000000E+00 -0.14091546451E+04  0.14091546451E+04  0.00000000000E+00 0. -1.
         36    2    1    2    0    0 -0.14210854715E-13 -0.14210854715E-13 -0.12323663083E+04  0.15859429820E+04  0.99824266804E+03 0.  0.
         25    2    3    3    0    0  0.66126423158E+02 -0.75569869828E+02 -0.37988468512E+03  0.41248143092E+03  0.12547927238E+03 0.  0.
         35    2    3    3    0    0 -0.66126423158E+02  0.75569869828E+02 -0.85248162318E+03  0.11734615511E+04  0.80012723046E+03 0.  0.
         22    1    5    5    0    0 -0.14734520279E+03 -0.28207453337E+03 -0.95410378039E+02  0.33223454275E+03  0.00000000000E+00 0. -1.
         22    1    5    5    0    0  0.81218779629E+02  0.35764440320E+03 -0.75707124514E+03  0.84122700832E+03  0.00000000000E+00 0. -1.
          5    1    4    4  502    0 -0.10164396130E+01  0.29977380267E+02 -0.12337837466E+03  0.12705900130E+03  0.47000000000E+01 0. -1.
         -5    1    4    4    0  502  0.67142862771E+02 -0.10554725009E+03 -0.25650631047E+03  0.28542242962E+03  0.47000000000E+01 0. -1.
<mgrwt>
<rscale>  0 0.99824267E+03</rscale>
<asrwt>0</asrwt>
<pdfrwt beam="1">  1        1 0.21679302E+00 0.99824267E+03</pdfrwt>
<pdfrwt beam="2">  1       -1 0.27198206E-01 0.99824267E+03</pdfrwt>
<totfact> 0.99587633E+01</totfact>
</mgrwt>
</event>
<event>
 9    1  0.4246427E-036  0.1000261E+04  0.7818608E-02  0.8680790E-01
          1   -1    0    0  501    0  0.00000000000E+00  0.00000000000E+00  0.15567741891E+04  0.15567741891E+04  0.00000000000E+00 0. -1.
         -1   -1    0    0    0  501 -0.00000000000E+00 -0.00000000000E+00 -0.16067222651E+03  0.16067222651E+03  0.00000000000E+00 0. -1.
         36    2    1    2    0    0 -0.71054273576E-14  0.14210854715E-13  0.13961019626E+04  0.17174464156E+04  0.10002607163E+04 0.  0.
         25    2    3    3    0    0  0.34046885074E+02 -0.85010635354E+02  0.44534772375E+03  0.47148348729E+03  0.12480418754E+03 0.  0.
         35    2    3    3    0    0 -0.34046885074E+02  0.85010635354E+02  0.95075423886E+03  0.12459629283E+04  0.80006499585E+03 0.  0.
         22    1    5    5    0    0 -0.11740239671E+02  0.12734426472E+02  0.10885946719E+04  0.10887324549E+04  0.00000000000E+00 0. -1.
         22    1    5    5    0    0 -0.22306645403E+02  0.72276208881E+02 -0.13784043299E+03  0.15723047340E+03  0.00000000000E+00 0. -1.
          5    1    4    4  502    0  0.60062298667E+02 -0.58077280087E+02  0.41414620987E+03  0.42251582613E+03  0.47000000000E+01 0. -1.
         -5    1    4    4    0  502 -0.26015413594E+02 -0.26933355267E+02  0.31201513882E+02  0.48967661154E+02  0.47000000000E+01 0. -1.
<mgrwt>
<rscale>  0 0.10002607E+04</rscale>
<asrwt>0</asrwt>
<pdfrwt beam="1">  1        1 0.23950371E+00 0.10002607E+04</pdfrwt>
<pdfrwt beam="2">  1       -1 0.24718805E-01 0.10002607E+04</pdfrwt>
<totfact> 0.91783781E+01</totfact>
</mgrwt>
</event>
<event>
 9    1  0.4246427E-036  0.9994128E+03  0.7818608E-02  0.8681597E-01
          2   -1    0    0  501    0  0.00000000000E+00  0.00000000000E+00  0.13400503029E+04  0.13400503029E+04  0.00000000000E+00 0.  1.
         -2   -1    0    0    0  501 -0.00000000000E+00 -0.00000000000E+00 -0.18634113713E+03  0.18634113713E+03  0.00000000000E+00 0.  1.
         36    2    1    2    0    0  0.14210854715E-13  0.00000000000E+00  0.11537091658E+04  0.15263914400E+04  0.99941282210E+03 0.  0.
         25    2    3    3    0    0 -0.55954102858E+02 -0.10136269587E+03  0.97740627061E+02  0.19653332052E+03  0.12516732064E+03 0.  0.
         35    2    3    3    0    0  0.55954102858E+02  0.10136269587E+03  0.10559685387E+04  0.13298581195E+04  0.80002987790E+03 0.  0.
         22    1    5    5    0    0 -0.15055745117E+03  0.12407577477E+03  0.11002678767E+04  0.11174308678E+04  0.00000000000E+00 0. -1.
         22    1    5    5    0    0  0.20651155403E+03 -0.22713078898E+02 -0.44299337965E+02  0.21242725166E+03  0.00000000000E+00 0. -1.
          5    1    4    4  502    0  0.23553263646E+02 -0.64526993970E+02  0.52701820468E+01  0.69053269278E+02  0.47000000000E+01 0.  1.
         -5    1    4    4    0  502 -0.79507366504E+02 -0.36835701898E+02  0.92470445014E+02  0.12748005124E+03  0.47000000000E+01 0.  1.
<mgrwt>
<rscale>  0 0.99941282E+03</rscale>
<asrwt>0</asrwt>
<pdfrwt beam="1">  1        2 0.20616158E+00 0.99941282E+03</pdfrwt>
<pdfrwt beam="2">  1       -2 0.28667868E-01 0.99941282E+03</pdfrwt>
<totfact> 0.20982272E+02</totfact>
</mgrwt>
</event>
<event>
 9    1  0.4246427E-036  0.1000650E+04  0.7818608E-02  0.8680420E-01
         -2   -1    0    0    0  501 -0.00000000000E+00  0.00000000000E+00  0.27748154021E+03  0.27748154021E+03  0.00000000000E+00 0. -1.
          2   -1    0    0  501    0  0.00000000000E+00 -0.00000000000E+00 -0.90213190031E+03  0.90213190031E+03  0.00000000000E+00 0. -1.
         36    2    1    2    0    0  0.00000000000E+00  0.00000000000E+00 -0.62465036010E+03  0.11796134405E+04  0.10006496873E+04 0.  0.
         25    2    3    3    0    0  0.92552852397E+01 -0.13739170227E+03 -0.90091985113E+02  0.20748698549E+03  0.12638094481E+03 0.  0.
         35    2    3    3    0    0 -0.92552852397E+01  0.13739170227E+03 -0.53455837499E+03  0.97212645503E+03  0.80019688086E+03 0.  0.
         22    1    5    5    0    0 -0.21908001832E+03 -0.11987364468E+03 -0.58524294273E+03  0.63629792325E+03  0.00000000000E+00 0.  1.
         22    1    5    5    0    0  0.20982473308E+03  0.25726534694E+03  0.50684567742E+02  0.33582853178E+03  0.00000000000E+00 0.  1.
          5    1    4    4  502    0  0.59367035789E+02 -0.46483415839E+02 -0.67143309272E+02  0.10107159278E+03  0.47000000000E+01 0.  1.
         -5    1    4    4    0  502 -0.50111750549E+02 -0.90908286427E+02 -0.22948675841E+02  0.10641539272E+03  0.47000000000E+01 0.  1.
<mgrwt>
<rscale>  0 0.10006497E+04</rscale>
<asrwt>0</asrwt>
<pdfrwt beam="1">  1        2 0.13878952E+00 0.10006497E+04</pdfrwt>
<pdfrwt beam="2">  1       -2 0.42689468E-01 0.10006497E+04</pdfrwt>
<totfact> 0.18392046E+02</totfact>
</mgrwt>
</event>
<event>
 9    1  0.4246427E-036  0.9991829E+03  0.7818608E-02  0.8681816E-01
          1   -1    0    0  501    0  0.00000000000E+00  0.00000000000E+00  0.16257501190E+04  0.16257501190E+04  0.00000000000E+00 0.  1.
         -1   -1    0    0    0  501 -0.00000000000E+00 -0.00000000000E+00 -0.15352397814E+03  0.15352397814E+03  0.00000000000E+00 0.  1.
         36    2    1    2    0    0 -0.14210854715E-13 -0.42632564146E-13  0.14722261409E+04  0.17792740971E+04  0.99918291766E+03 0.  0.
         25    2    3    3    0    0 -0.49563010826E+02 -0.11778159090E+03  0.37549485322E+03  0.41551714905E+03  0.12381082813E+03 0.  0.
         35    2    3    3    0    0  0.49563010826E+02  0.11778159090E+03  0.10967312876E+04  0.13637569481E+04  0.80042769879E+03 0.  0.
         22    1    5    5    0    0  0.17266946875E+03  0.34000345037E+03  0.19773076179E+03  0.42955156368E+03  0.00000000000E+00 0. -1.
         22    1    5    5    0    0 -0.12310645792E+03 -0.22222185946E+03  0.89900052584E+03  0.93420538442E+03  0.00000000000E+00 0. -1.
          5    1    4    4  502    0  0.35814389379E+02 -0.33446494612E+02  0.58050389502E+02  0.76113574412E+02  0.47000000000E+01 0.  1.
         -5    1    4    4    0  502 -0.85377400204E+02 -0.84335096292E+02  0.31744446372E+03  0.33940357464E+03  0.47000000000E+01 0.  1.
<mgrwt>
<rscale>  0 0.99918292E+03</rscale>
<asrwt>0</asrwt>
<pdfrwt beam="1">  1        1 0.25011539E+00 0.99918292E+03</pdfrwt>
<pdfrwt beam="2">  1       -1 0.23619075E-01 0.99918292E+03</pdfrwt>
<totfact> 0.88526903E+01</totfact>
</mgrwt>
</event>
<event>
 9    1  0.4246427E-036  0.1000007E+04  0.7818608E-02  0.8681032E-01
          2   -1    0    0  501    0  0.00000000000E+00  0.00000000000E+00  0.11185259408E+04  0.11185259408E+04  0.00000000000E+00 0.  1.
         -2   -1    0    0    0  501 -0.00000000000E+00 -0.00000000000E+00 -0.22351136548E+03  0.22351136548E+03  0.00000000000E+00 0.  1.
         36    2    1    2    0    0  0.14210854715E-13  0.00000000000E+00  0.89501457533E+03  0.13420373063E+04  0.10000065207E+04 0.  0.
         25    2    3    3    0    0 -0.11448089249E+03  0.29436627354E+02  0.64623572100E+02  0.18286131550E+03  0.12365138439E+03 0.  0.
         35    2    3    3    0    0  0.11448089249E+03 -0.29436627354E+02  0.83039100323E+03  0.11591759908E+04  0.80010459916E+03 0.  0.
         22    1    5    5    0    0 -0.10291907296E+03  0.10218996876E+03 -0.11191879115E+03  0.18319645495E+03  0.00000000000E+00 0.  1.
         22    1    5    5    0    0  0.21739996545E+03 -0.13162659611E+03  0.94230979438E+03  0.97597953583E+03  0.00000000000E+00 0.  1.
          5    1    4    4  502    0 -0.11658455776E+03  0.32739172786E+02  0.93677052698E+02  0.15317079599E+03  0.47000000000E+01 0.  1.
         -5    1    4    4    0  502  0.21036652707E+01 -0.33025454319E+01 -0.29053480598E+02  0.29690519510E+02  0.47000000000E+01 0.  1.
<mgrwt>
<rscale>  0 0.10000065E+04</rscale>
<asrwt>0</asrwt>
<pdfrwt beam="1">  1        2 0.17208091E+00 0.10000065E+04</pdfrwt>
<pdfrwt beam="2">  1       -2 0.34386364E-01 0.10000065E+04</pdfrwt>
<totfact> 0.20286569E+02</totfact>
</mgrwt>
</event>
<event>
 9    1  0.4246427E-036  0.9984524E+03  0.7818608E-02  0.8682513E-01
         -2   -1    0    0    0  501 -0.00000000000E+00  0.00000000000E+00  0.18699037432E+03  0.18699037432E+03  0.00000000000E+00 0. -1.
          2   -1    0    0  501    0  0.00000000000E+00 -0.00000000000E+00 -0.13328322863E+04  0.13328322863E+04  0.00000000000E+00 0. -1.
         36    2    1    2    0    0  0.00000000000E+00 -0.14210854715E-13 -0.11458419119E+04  0.15198226606E+04  0.99845241873E+03 0.  0.
         25    2    3    3    0    0 -0.34881259792E+02 -0.42833356041E+02 -0.15690534060E+02  0.13676995503E+03  0.12413069349E+03 0.  0.
         35    2    3    3    0    0  0.34881259792E+02  0.42833356041E+02 -0.11301513779E+04  0.13830527056E+04  0.79532461972E+03 0.  0.
         22    1    5    5    0    0 -0.21773392843E+03  0.33444879996E+03 -0.69554047364E+03  0.80189813184E+03  0.00000000000E+00 0. -1.
         22    1    5    5    0    0  0.25261518823E+03 -0.29161544392E+03 -0.43461090425E+03  0.58115457371E+03  0.00000000000E+00 0. -1.
          5    1    4    4  502    0  0.26872415686E+02 -0.51805816577E+02  0.23325276877E+02  0.63024819694E+02  0.47000000000E+01 0. -1.
         -5    1    4    4    0  502 -0.61753675479E+02  0.89724605362E+01 -0.39015810937E+02  0.73745135340E+02  0.47000000000E+01 0. -1.
<mgrwt>
<rscale>  0 0.99845242E+03</rscale>
<asrwt>0</asrwt>
<pdfrwt beam="1">  1        2 0.20505112E+00 0.99845242E+03</pdfrwt>
<pdfrwt beam="2">  1       -2 0.28767750E-01 0.99845242E+03</pdfrwt>
<totfact> 0.21051340E+02</totfact>
</mgrwt>
</event>
<event>
 9    1  0.4246427E-036  0.1000704E+04  0.7818608E-02  0.8680368E-01
         -2   -1    0    0    0  501 -0.00000000000E+00  0.00000000000E+00  0.18583615191E+03  0.18583615191E+03  0.00000000000E+00 0. -1.
          2   -1    0    0  501    0  0.00000000000E+00 -0.00000000000E+00 -0.13471657464E+04  0.13471657464E+04  0.00000000000E+00 0. -1.
         36    2    1    2    0    0  0.00000000000E+00  0.21316282073E-13 -0.11613295944E+04  0.15330018983E+04  0.10007039488E+04 0.  0.
         25    2    3    3    0    0 -0.96536895142E+02  0.55436775508E+02 -0.88254472063E+02  0.18997694321E+03  0.12613397207E+03 0.  0.
         35    2    3    3    0    0  0.96536895142E+02 -0.55436775508E+02 -0.10730751224E+04  0.13430249551E+04  0.79989574535E+03 0.  0.
         22    1    5    5    0    0  0.29340501386E+03  0.27551275681E+03 -0.39917398135E+03  0.56686298936E+03  0.00000000000E+00 0.  1.
         22    1    5    5    0    0 -0.19686811871E+03 -0.33094953232E+03 -0.67390114104E+03  0.77616196570E+03  0.00000000000E+00 0.  1.
          5    1    4    4  502    0 -0.11803093803E+03  0.12652998937E+02 -0.73313333781E+02  0.13960062903E+03  0.47000000000E+01 0. -1.
         -5    1    4    4    0  502  0.21494042889E+02  0.42783776572E+02 -0.14941138282E+02  0.50376314182E+02  0.47000000000E+01 0. -1.
<mgrwt>
<rscale>  0 0.10007039E+04</rscale>
<asrwt>0</asrwt>
<pdfrwt beam="1">  1        2 0.20725626E+00 0.10007039E+04</pdfrwt>
<pdfrwt beam="2">  1       -2 0.28590178E-01 0.10007039E+04</pdfrwt>
<totfact> 0.20887526E+02</totfact>
</mgrwt>
</event>
<event>
 9    1  0.4246427E-036  0.9998441E+03  0.7818608E-02  0.8681186E-01
         -1   -1    0    0    0  501 -0.00000000000E+00  0.00000000000E+00  0.11217970739E+04  0.11217970739E+04  0.00000000000E+00 0. -1.
          1   -1    0    0  501    0  0.00000000000E+00 -0.00000000000E+00 -0.22278722652E+03  0.22278722652E+03  0.00000000000E+00 0. -1.
         36    2    1    2    0    0 -0.24868995752E-13 -0.42632564146E-13  0.89900984735E+03  0.13445843004E+04  0.99984410547E+03 0.  0.
         25    2    3    3    0    0 -0.26122291903E+02  0.12561729919E+03  0.24303420528E+03  0.30183297304E+03  0.12480159729E+03 0.  0.
         35    2    3    3    0    0  0.26122291903E+02 -0.12561729919E+03  0.65597564207E+03  0.10427513274E+04  0.80035255215E+03 0.  0.
         22    1    5    5    0    0 -0.18414597855E+03 -0.37049005220E+03  0.14505660091E+03  0.43842221392E+03  0.00000000000E+00 0.  1.
         22    1    5    5    0    0  0.21026827045E+03  0.24487275301E+03  0.51091904116E+03  0.60432911343E+03  0.00000000000E+00 0.  1.
          5    1    4    4  502    0  0.11977763345E+02  0.13619034375E+03  0.16588656311E+03  0.21501562354E+03  0.47000000000E+01 0.  1.
         -5    1    4    4    0  502 -0.38100055247E+02 -0.10573044563E+02  0.77147642174E+02  0.86817349500E+02  0.47000000000E+01 0.  1.
<mgrwt>
<rscale>  0 0.99984411E+03</rscale>
<asrwt>0</asrwt>
<pdfrwt beam="1">  1        1 0.34274959E-01 0.99984411E+03</pdfrwt>
<pdfrwt beam="2">  1       -1 0.17258416E+00 0.99984411E+03</pdfrwt>
<totfact> 0.34254730E+01</totfact>
</mgrwt>
</event>
<event>
 9    1  0.4246427E-036  0.9995781E+03  0.7818608E-02  0.8681440E-01
         -1   -1    0    0    0  501 -0.00000000000E+00  0.00000000000E+00  0.88177459649E+03  0.88177459649E+03  0.00000000000E+00 0. -1.
          1   -1    0    0  501    0  0.00000000000E+00 -0.00000000000E+00 -0.28327996621E+03  0.28327996621E+03  0.00000000000E+00 0. -1.
         36    2    1    2    0    0  0.00000000000E+00  0.00000000000E+00  0.59849463028E+03  0.11650545627E+04  0.99957806678E+03 0.  0.
         25    2    3    3    0    0 -0.50534581498E+01  0.13017519454E+03  0.17776203988E+03  0.25384202051E+03  0.12595757159E+03 0.  0.
         35    2    3    3    0    0  0.50534581498E+01 -0.13017519454E+03  0.42073259040E+03  0.91121254219E+03  0.79769747756E+03 0.  0.
         22    1    5    5    0    0  0.81486427425E+02 -0.32417911316E+03 -0.10113569996E+03  0.34922852843E+03  0.00000000000E+00 0. -1.
         22    1    5    5    0    0 -0.76432969275E+02  0.19400391862E+03  0.52186829036E+03  0.56198401376E+03  0.00000000000E+00 0. -1.
          5    1    4    4  502    0  0.20505297670E+02  0.59231939349E+02  0.24067731539E+01  0.62902880925E+02  0.47000000000E+01 0. -1.
         -5    1    4    4    0  502 -0.25558755820E+02  0.70943255195E+02  0.17535526673E+03  0.19093913958E+03  0.47000000000E+01 0. -1.
<mgrwt>
<rscale>  0 0.99957807E+03</rscale>
<asrwt>0</asrwt>
<pdfrwt beam="1">  1        1 0.43581534E-01 0.99957807E+03</pdfrwt>
<pdfrwt beam="2">  1       -1 0.13565763E+00 0.99957807E+03</pdfrwt>
<totfact> 0.51273933E+01</totfact>
</mgrwt>
</event>
<event>
 9    1  0.4246427E-036  0.1001293E+04  0.7818608E-02  0.8679808E-01
          2   -1    0    0  501    0  0.00000000000E+00  0.00000000000E+00  0.26109130628E+04  0.26109130628E+04  0.00000000000E+00 0.  1.
         -2   -1    0    0    0  501 -0.00000000000E+00 -0.00000000000E+00 -0.95999626469E+02  0.95999626469E+02  0.00000000000E+00 0.  1.
         36    2    1    2    0    0  0.00000000000E+00  0.28421709430E-13  0.25149134363E+04  0.27069126892E+04  0.10012925222E+04 0.  0.
         25    2    3    3    0    0 -0.73630325821E+02  0.11793164880E+03  0.40660283088E+03  0.44766029457E+03  0.12547740269E+03 0.  0.
         35    2    3    3    0    0  0.73630325821E+02 -0.11793164880E+03  0.21083106054E+04  0.22592523946E+04  0.79994904539E+03 0.  0.
         22    1    5    5    0    0  0.30455461085E+03 -0.25613061908E+03  0.18274272000E+04  0.18702530782E+04  0.00000000000E+00 0. -1.
         22    1    5    5    0    0 -0.23092428503E+03  0.13819897028E+03  0.28088340536E+03  0.38899931646E+03  0.00000000000E+00 0. -1.
          5    1    4    4  502    0 -0.85270181793E+02  0.24341036310E+02  0.15104384481E+03  0.17521364960E+03  0.47000000000E+01 0. -1.
         -5    1    4    4    0  502  0.11639855972E+02  0.93590612489E+02  0.25555898608E+03  0.27244664497E+03  0.47000000000E+01 0. -1.
<mgrwt>
<rscale>  0 0.10012925E+04</rscale>
<asrwt>0</asrwt>
<pdfrwt beam="1">  1        2 0.40167888E+00 0.10012925E+04</pdfrwt>
<pdfrwt beam="2">  1       -2 0.14769175E-01 0.10012925E+04</pdfrwt>
<totfact> 0.12216689E+02</totfact>
</mgrwt>
</event>
<event>
 9    1  0.4246427E-036  0.9999468E+03  0.7818608E-02  0.8681089E-01
          2   -1    0    0  501    0  0.00000000000E+00  0.00000000000E+00  0.29295950368E+04  0.29295950368E+04  0.00000000000E+00 0. -1.
         -2   -1    0    0    0  501 -0.00000000000E+00 -0.00000000000E+00 -0.85326943140E+02  0.85326943140E+02  0.00000000000E+00 0. -1.
         36    2    1    2    0    0 -0.14210854715E-13 -0.28421709430E-13  0.28442680936E+04  0.30149219799E+04  0.99994677683E+03 0.  0.
         25    2    3    3    0    0 -0.42480754207E+02  0.97721382199E+01  0.13582061194E+03  0.18950736222E+03  0.12476254463E+03 0.  0.
         35    2    3    3    0    0  0.42480754207E+02 -0.97721382199E+01  0.27084474817E+04  0.28254146177E+04  0.80335539560E+03 0.  0.
         22    1    5    5    0    0  0.33814334300E+03 -0.24884246160E+03  0.15691397993E+04  0.16243346948E+04  0.00000000000E+00 0.  1.
         22    1    5    5    0    0 -0.29566258879E+03  0.23907032338E+03  0.11393076824E+04  0.12010799229E+04  0.00000000000E+00 0.  1.
          5    1    4    4  502    0  0.27210459565E-01 -0.48019400205E+02  0.18026957039E+02  0.51506550230E+02  0.47000000000E+01 0. -1.
         -5    1    4    4    0  502 -0.42507964666E+02  0.57791538425E+02  0.11779365490E+03  0.13800081199E+03  0.47000000000E+01 0. -1.
<mgrwt>
<rscale>  0 0.99994678E+03</rscale>
<asrwt>0</asrwt>
<pdfrwt beam="1">  1        2 0.45070685E+00 0.99994678E+03</pdfrwt>
<pdfrwt beam="2">  1       -2 0.13127224E-01 0.99994678E+03</pdfrwt>
<totfact> 0.93059521E+01</totfact>
</mgrwt>
</event>
<event>
 9    1  0.4246427E-036  0.9983699E+03  0.7818608E-02  0.8682592E-01
         -2   -1    0    0    0  501 -0.00000000000E+00  0.00000000000E+00  0.85183558125E+02  0.85183558125E+02  0.00000000000E+00 0. -1.
          2   -1    0    0  501    0  0.00000000000E+00 -0.00000000000E+00 -0.29252784934E+04  0.29252784934E+04  0.00000000000E+00 0. -1.
         36    2    1    2    0    0  0.00000000000E+00 -0.71054273576E-14 -0.28400949352E+04  0.30104620515E+04  0.99836993258E+03 0.  0.
         25    2    3    3    0    0  0.11156814108E+03 -0.59963325944E+02 -0.36686346368E+03  0.40739312097E+03  0.12384386730E+03 0.  0.
         35    2    3    3    0    0 -0.11156814108E+03  0.59963325944E+02 -0.24732314716E+04  0.26030689305E+04  0.80190454204E+03 0.  0.
         22    1    5    5    0    0 -0.33900349269E+03  0.60242099948E+02 -0.22763855221E+04  0.23022778989E+04  0.00000000000E+00 0. -1.
         22    1    5    5    0    0  0.22743535161E+03 -0.27877400398E+00 -0.19684594950E+03  0.30079103163E+03  0.00000000000E+00 0. -1.
          5    1    4    4  502    0  0.35138163765E+02  0.33153810491E+02 -0.16770011325E+03  0.17458317126E+03  0.47000000000E+01 0. -1.
         -5    1    4    4    0  502  0.76429977317E+02 -0.93117136435E+02 -0.19916335043E+03  0.23280994971E+03  0.47000000000E+01 0. -1.
<mgrwt>
<rscale>  0 0.99836993E+03</rscale>
<asrwt>0</asrwt>
<pdfrwt beam="1">  1        2 0.45004279E+00 0.99836993E+03</pdfrwt>
<pdfrwt beam="2">  1       -2 0.13105164E-01 0.99836993E+03</pdfrwt>
<totfact> 0.93937068E+01</totfact>
</mgrwt>
</event>
<event>
 9    1  0.4246427E-036  0.9996762E+03  0.7818608E-02  0.8681346E-01
         -2   -1    0    0    0  501 -0.00000000000E+00  0.00000000000E+00  0.41026615517E+03  0.41026615517E+03  0.00000000000E+00 0. -1.
          2   -1    0    0  501    0  0.00000000000E+00 -0.00000000000E+00 -0.60896600863E+03  0.60896600863E+03  0.00000000000E+00 0. -1.
         36    2    1    2    0    0  0.00000000000E+00 -0.14210854715E-13 -0.19869985346E+03  0.10192321638E+04  0.99967623357E+03 0.  0.
         25    2    3    3    0    0 -0.29425102901E+02  0.86310326646E+02  0.70572004292E+02  0.16996160909E+03  0.12486485337E+03 0.  0.
         35    2    3    3    0    0  0.29425102901E+02 -0.86310326646E+02 -0.26927185775E+03  0.84927055471E+03  0.80027359856E+03 0.  0.
         22    1    5    5    0    0 -0.63564253021E+01 -0.38320294910E+03  0.77869569297E+02  0.39108640243E+03  0.00000000000E+00 0.  1.
         22    1    5    5    0    0  0.35781528203E+02  0.29689262246E+03 -0.34714142705E+03  0.45818415228E+03  0.00000000000E+00 0.  1.
          5    1    4    4  502    0  0.24511442569E+02  0.13259553836E+02 -0.25226090823E+02  0.37882347379E+02  0.47000000000E+01 0.  1.
         -5    1    4    4    0  502 -0.53936545470E+02  0.73050772810E+02  0.95798095114E+02  0.13207926171E+03  0.47000000000E+01 0.  1.
<mgrwt>
<rscale>  0 0.99967623E+03</rscale>
<asrwt>0</asrwt>
<pdfrwt beam="1">  1        2 0.93687078E-01 0.99967623E+03</pdfrwt>
<pdfrwt beam="2">  1       -2 0.63117870E-01 0.99967623E+03</pdfrwt>
<totfact> 0.13704186E+02</totfact>
</mgrwt>
</event>
<event>
 9    1  0.4246427E-036  0.1000027E+04  0.7818608E-02  0.8681012E-01
          2   -1    0    0  501    0  0.00000000000E+00  0.00000000000E+00  0.25441341788E+04  0.25441341788E+04  0.00000000000E+00 0. -1.
         -2   -1    0    0    0  501 -0.00000000000E+00 -0.00000000000E+00 -0.98270655205E+02  0.98270655205E+02  0.00000000000E+00 0. -1.
         36    2    1    2    0    0  0.00000000000E+00  0.42632564146E-13  0.24458635236E+04  0.26424048340E+04  0.10000274650E+04 0.  0.
         25    2    3    3    0    0  0.76687903857E+02 -0.11434446436E+03  0.53451159153E+03  0.56595944965E+03  0.12510701838E+03 0.  0.
         35    2    3    3    0    0 -0.76687903857E+02  0.11434446436E+03  0.19113519321E+04  0.20764453844E+04  0.79962712238E+03 0.  0.
         22    1    5    5    0    0  0.22283995516E+02 -0.33395327424E+03  0.10248912746E+04  0.10781574517E+04  0.00000000000E+00 0.  1.
         22    1    5    5    0    0 -0.98971899373E+02  0.44829773861E+03  0.88646065747E+03  0.99828793268E+03  0.00000000000E+00 0.  1.
          5    1    4    4  502    0  0.60573880115E+01 -0.98136494975E+02  0.19119467504E+03  0.21504640746E+03  0.47000000000E+01 0.  1.
         -5    1    4    4    0  502  0.70630515845E+02 -0.16207969385E+02  0.34331691648E+03  0.35091304220E+03  0.47000000000E+01 0.  1.
<mgrwt>
<rscale>  0 0.10000275E+04</rscale>
<asrwt>0</asrwt>
<pdfrwt beam="1">  1        2 0.39140521E+00 0.10000275E+04</pdfrwt>
<pdfrwt beam="2">  1       -2 0.15118564E-01 0.10000275E+04</pdfrwt>
<totfact> 0.12915712E+02</totfact>
</mgrwt>
</event>
<event>
 9    1  0.4246427E-036  0.9998028E+03  0.7818608E-02  0.8681226E-01
          2   -1    0    0  501    0  0.00000000000E+00  0.00000000000E+00  0.17139897860E+04  0.17139897860E+04  0.00000000000E+00 0.  1.
         -2   -1    0    0    0  501 -0.00000000000E+00 -0.00000000000E+00 -0.14580099798E+03  0.14580099798E+03  0.00000000000E+00 0.  1.
         36    2    1    2    0    0  0.00000000000E+00 -0.28421709430E-13  0.15681887880E+04  0.18597907840E+04  0.99980282322E+03 0.  0.
         25    2    3    3    0    0  0.30458862657E+02  0.11605293958E+03  0.42449090269E+03  0.45879514054E+03  0.12611275678E+03 0.  0.
         35    2    3    3    0    0 -0.30458862657E+02 -0.11605293958E+03  0.11436978853E+04  0.14009956434E+04  0.80021741603E+03 0.  0.
         22    1    5    5    0    0  0.13324530538E+03  0.16519624607E+03  0.34811380232E+00  0.21223626529E+03  0.00000000000E+00 0. -1.
         22    1    5    5    0    0 -0.16370416804E+03 -0.28124918566E+03  0.11433497715E+04  0.11887593782E+04  0.00000000000E+00 0. -1.
          5    1    4    4  502    0 -0.47686656036E+02  0.44338662151E+02  0.12462051819E+03  0.14068510112E+03  0.47000000000E+01 0.  1.
         -5    1    4    4    0  502  0.78145518693E+02  0.71714277434E+02  0.29987038450E+03  0.31811003942E+03  0.47000000000E+01 0.  1.
<mgrwt>
<rscale>  0 0.99980282E+03</rscale>
<asrwt>0</asrwt>
<pdfrwt beam="1">  1        2 0.26369072E+00 0.99980282E+03</pdfrwt>
<pdfrwt beam="2">  1       -2 0.22430924E-01 0.99980282E+03</pdfrwt>
<totfact> 0.19926033E+02</totfact>
</mgrwt>
</event>
<event>
 9    1  0.4246427E-036  0.1000720E+04  0.7818608E-02  0.8680353E-01
          1   -1    0    0  501    0  0.00000000000E+00  0.00000000000E+00  0.10169202618E+04  0.10169202618E+04  0.00000000000E+00 0. -1.
         -1   -1    0    0    0  501 -0.00000000000E+00 -0.00000000000E+00 -0.24619435767E+03  0.24619435767E+03  0.00000000000E+00 0. -1.
         36    2    1    2    0    0 -0.35527136788E-14  0.28421709430E-13  0.77072590410E+03  0.12631146194E+04  0.10007198022E+04 0.  0.
         25    2    3    3    0    0  0.18851976135E+02 -0.44047604658E+02 -0.18672062015E+02  0.13834727196E+03  0.12843571652E+03 0.  0.
         35    2    3    3    0    0 -0.18851976135E+02  0.44047604658E+02  0.78939796611E+03  0.11247673475E+04  0.79978550159E+03 0.  0.
         22    1    5    5    0    0 -0.10251057786E+03  0.40254349918E+03  0.53482118009E+03  0.67718784837E+03  0.00000000000E+00 0. -1.
         22    1    5    5    0    0  0.83658601722E+02 -0.35849589453E+03  0.25457678602E+03  0.44757949910E+03  0.00000000000E+00 0. -1.
          5    1    4    4  502    0 -0.13592849997E+01 -0.77625509798E+02  0.22840831162E+02  0.81063931531E+02  0.47000000000E+01 0.  1.
         -5    1    4    4    0  502  0.20211261135E+02  0.33577905141E+02 -0.41512893177E+02  0.57283340425E+02  0.47000000000E+01 0.  1.
<mgrwt>
<rscale>  0 0.10007198E+04</rscale>
<asrwt>0</asrwt>
<pdfrwt beam="1">  1        1 0.15644927E+00 0.10007198E+04</pdfrwt>
<pdfrwt beam="2">  1       -1 0.37876056E-01 0.10007198E+04</pdfrwt>
<totfact> 0.11040233E+02</totfact>
</mgrwt>
</event>
<event>
 9    1  0.4246427E-036  0.9994708E+03  0.7818608E-02  0.8681542E-01
          1   -1    0    0  501    0  0.00000000000E+00  0.00000000000E+00  0.16364160358E+04  0.16364160358E+04  0.00000000000E+00 0. -1.
         -1   -1    0    0    0  501 -0.00000000000E+00 -0.00000000000E+00 -0.15261123296E+03  0.15261123296E+03  0.00000000000E+00 0. -1.
         36    2    1    2    0    0 -0.14210854715E-13 -0.28421709430E-13  0.14838048028E+04  0.17890272687E+04  0.99947079768E+03 0.  0.
         25    2    3    3    0    0  0.12494883536E+03  0.57285078417E+02  0.34841617225E+03  0.39505501128E+03  0.12562181810E+03 0.  0.
         35    2    3    3    0    0 -0.12494883536E+03 -0.57285078417E+02  0.11353886306E+04  0.13939722575E+04  0.79696770354E+03 0.  0.
         22    1    5    5    0    0 -0.38789207113E+03  0.16794673734E+03  0.83378329750E+03  0.93480530199E+03  0.00000000000E+00 0. -1.
         22    1    5    5    0    0  0.26294323577E+03 -0.22523181575E+03  0.30160533306E+03  0.45916695547E+03  0.00000000000E+00 0. -1.
          5    1    4    4  502    0  0.10002032160E+03  0.18539786061E+01  0.10909621789E+03  0.14809313532E+03  0.47000000000E+01 0.  1.
         -5    1    4    4    0  502  0.24928513760E+02  0.55431099811E+02  0.23931995436E+03  0.24696187596E+03  0.47000000000E+01 0.  1.
<mgrwt>
<rscale>  0 0.99947080E+03</rscale>
<asrwt>0</asrwt>
<pdfrwt beam="1">  1        1 0.25175630E+00 0.99947080E+03</pdfrwt>
<pdfrwt beam="2">  1       -1 0.23478652E-01 0.99947080E+03</pdfrwt>
<totfact> 0.87873273E+01</totfact>
</mgrwt>
</event>
<event>
 9    1  0.4246427E-036  0.9992993E+03  0.7818608E-02  0.8681705E-01
          1   -1    0    0  501    0  0.00000000000E+00  0.00000000000E+00  0.25555180115E+04  0.25555180115E+04  0.00000000000E+00 0.  1.
         -1   -1    0    0    0  501 -0.00000000000E+00 -0.00000000000E+00 -0.97690485936E+02  0.97690485936E+02  0.00000000000E+00 0.  1.
         36    2    1    2    0    0 -0.42632564146E-13  0.00000000000E+00  0.24578275256E+04  0.26532084975E+04  0.99929934727E+03 0.  0.
         25    2    3    3    0    0  0.12481749119E+03 -0.46676558582E+02  0.34873965382E+03  0.39380715976E+03  0.12532607750E+03 0.  0.
         35    2    3    3    0    0 -0.12481749119E+03  0.46676558582E+02  0.21090878718E+04  0.22594013377E+04  0.79930260024E+03 0.  0.
         22    1    5    5    0    0  0.32629550670E+03  0.93873417868E+01  0.12035420979E+04  0.12470246434E+04  0.00000000000E+00 0. -1.
         22    1    5    5    0    0 -0.45111299789E+03  0.37289216795E+02  0.90554577384E+03  0.10123766943E+04  0.00000000000E+00 0. -1.
          5    1    4    4  502    0  0.78507330014E+02 -0.18692018467E+02  0.32434578014E+03  0.33426795765E+03  0.47000000000E+01 0. -1.
         -5    1    4    4    0  502  0.46310161179E+02 -0.27984540115E+02  0.24393873681E+02  0.59539202103E+02  0.47000000000E+01 0. -1.
<mgrwt>
<rscale>  0 0.99929935E+03</rscale>
<asrwt>0</asrwt>
<pdfrwt beam="1">  1        1 0.39315657E+00 0.99929935E+03</pdfrwt>
<pdfrwt beam="2">  1       -1 0.15029307E-01 0.99929935E+03</pdfrwt>
<totfact> 0.41378377E+01</totfact>
</mgrwt>
</event>
<event>
 9    1  0.4246427E-036  0.1000424E+04  0.7818608E-02  0.8680635E-01
         -1   -1    0    0    0  501 -0.00000000000E+00  0.00000000000E+00  0.10945623967E+03  0.10945623967E+03  0.00000000000E+00 0. -1.
          1   -1    0    0  501    0  0.00000000000E+00 -0.00000000000E+00 -0.22859534513E+04  0.22859534513E+04  0.00000000000E+00 0. -1.
         36    2    1    2    0    0  0.00000000000E+00 -0.14210854715E-13 -0.21764972116E+04  0.23954096909E+04  0.10004236479E+04 0.  0.
         25    2    3    3    0    0 -0.80909846275E+02  0.57103205385E+02 -0.17661736369E+03  0.23847667584E+03  0.12597719029E+03 0.  0.
         35    2    3    3    0    0  0.80909846275E+02 -0.57103205385E+02 -0.19998798479E+04  0.21569330151E+04  0.80189366269E+03 0.  0.
         22    1    5    5    0    0  0.39114270149E+03  0.81827395846E+02 -0.63430650332E+03  0.74968865257E+03  0.00000000000E+00 0.  1.
         22    1    5    5    0    0 -0.31023285521E+03 -0.13893060123E+03 -0.13655733446E+04  0.14072443625E+04  0.00000000000E+00 0.  1.
          5    1    4    4  502    0  0.20926033122E+02 -0.48662717698E+01  0.36640681262E+01  0.22295624198E+02  0.47000000000E+01 0. -1.
         -5    1    4    4    0  502 -0.10183587940E+03  0.61969477155E+02 -0.18028143182E+03  0.21618105165E+03  0.47000000000E+01 0. -1.
<mgrwt>
<rscale>  0 0.10004236E+04</rscale>
<asrwt>0</asrwt>
<pdfrwt beam="1">  1        1 0.35168514E+00 0.10004236E+04</pdfrwt>
<pdfrwt beam="2">  1       -1 0.16839422E-01 0.10004236E+04</pdfrwt>
<totfact> 0.53210569E+01</totfact>
</mgrwt>
</event>
<event>
 9    1  0.4246427E-036  0.9995606E+03  0.7818608E-02  0.8681457E-01
          2   -1    0    0  501    0  0.00000000000E+00  0.00000000000E+00  0.22200403142E+04  0.22200403142E+04  0.00000000000E+00 0.  1.
         -2   -1    0    0    0  501 -0.00000000000E+00 -0.00000000000E+00 -0.11251162548E+03  0.11251162548E+03  0.00000000000E+00 0.  1.
         36    2    1    2    0    0  0.00000000000E+00  0.42632564146E-13  0.21075286887E+04  0.23325519397E+04  0.99956059224E+03 0.  0.
         25    2    3    3    0    0 -0.89492578505E+02 -0.95467023190E+02  0.30112492987E+03  0.35148331959E+03  0.12546484143E+03 0.  0.
         35    2    3    3    0    0  0.89492578505E+02  0.95467023190E+02  0.18064037588E+04  0.19810686201E+04  0.80275492115E+03 0.  0.
         22    1    5    5    0    0  0.29892872321E+02 -0.23832763523E+03  0.13482725014E+03  0.27544878455E+03  0.00000000000E+00 0. -1.
         22    1    5    5    0    0  0.59599706184E+02  0.33379465842E+03  0.16715765087E+04  0.17056198355E+04  0.00000000000E+00 0. -1.
          5    1    4    4  502    0  0.94422859339E+00 -0.86215091777E+01  0.16895188724E+03  0.16923962949E+03  0.47000000000E+01 0. -1.
         -5    1    4    4    0  502 -0.90436807098E+02 -0.86845514012E+02  0.13217304263E+03  0.18224369010E+03  0.47000000000E+01 0. -1.
<mgrwt>
<rscale>  0 0.99956059E+03</rscale>
<asrwt>0</asrwt>
<pdfrwt beam="1">  1        2 0.34154463E+00 0.99956059E+03</pdfrwt>
<pdfrwt beam="2">  1       -2 0.17309482E-01 0.99956059E+03</pdfrwt>
<totfact> 0.16045907E+02</totfact>
</mgrwt>
</event>
<event>
 9    1  0.4246427E-036  0.1000071E+04  0.7818608E-02  0.8680970E-01
          2   -1    0    0  501    0  0.00000000000E+00  0.00000000000E+00  0.19977117872E+04  0.19977117872E+04  0.00000000000E+00 0. -1.
         -2   -1    0    0    0  501 -0.00000000000E+00 -0.00000000000E+00 -0.12516101499E+03  0.12516101499E+03  0.00000000000E+00 0. -1.
         36    2    1    2    0    0 -0.14210854715E-13  0.28421709430E-13  0.18725507722E+04  0.21228728022E+04  0.10000712673E+04 0.  0.
         25    2    3    3    0    0 -0.48044347632E+02  0.12818535804E+03  0.41832053814E+03  0.45752912491E+03  0.12490429195E+03 0.  0.
         35    2    3    3    0    0  0.48044347632E+02 -0.12818535804E+03  0.14542302341E+04  0.16653436773E+04  0.79990264685E+03 0.  0.
         22    1    5    5    0    0 -0.34718317147E+03 -0.11444665066E+03  0.41302191803E+03  0.55156259407E+03  0.00000000000E+00 0. -1.
         22    1    5    5    0    0  0.39522751911E+03 -0.13738707386E+02  0.10412083160E+04  0.11137810832E+04  0.00000000000E+00 0. -1.
          5    1    4    4  502    0  0.72541687757E+00 -0.20055085619E+02  0.16368772938E+02  0.26320323256E+02  0.47000000000E+01 0.  1.
         -5    1    4    4    0  502 -0.48769764510E+02  0.14824044366E+03  0.40195176521E+03  0.43120880165E+03  0.47000000000E+01 0.  1.
<mgrwt>
<rscale>  0 0.10000713E+04</rscale>
<asrwt>0</asrwt>
<pdfrwt beam="1">  1        2 0.30734025E+00 0.10000713E+04</pdfrwt>
<pdfrwt beam="2">  1       -2 0.19255542E-01 0.10000713E+04</pdfrwt>
<totfact> 0.17951701E+02</totfact>
</mgrwt>
</event>
<event>
 9    1  0.4246427E-036  0.9994104E+03  0.7818608E-02  0.8681600E-01
         -1   -1    0    0    0  501 -0.00000000000E+00  0.00000000000E+00  0.66699412049E+02  0.66699412049E+02  0.00000000000E+00 0.  1.
          1   -1    0    0  501    0  0.00000000000E+00 -0.00000000000E+00 -0.37437405406E+04  0.37437405406E+04  0.00000000000E+00 0.  1.
         36    2    1    2    0    0 -0.28421709430E-13 -0.71054273576E-14 -0.36770411285E+04  0.38104399526E+04  0.99941041203E+03 0.  0.
         25    2    3    3    0    0  0.80533422075E+02  0.56341454124E+02 -0.31027286446E+03  0.34847423875E+03  0.12451928818E+03 0.  0.
         35    2    3    3    0    0 -0.80533422075E+02 -0.56341454124E+02 -0.33667682641E+04  0.34619657139E+04  0.80026125021E+03 0.  0.
         22    1    5    5    0    0  0.28761981259E+03 -0.11683189521E+03 -0.24877825102E+04  0.25070773156E+04  0.00000000000E+00 0.  1.
         22    1    5    5    0    0 -0.36815323467E+03  0.60490441081E+02 -0.87898575386E+03  0.95488839827E+03  0.00000000000E+00 0.  1.
          5    1    4    4  502    0  0.27317592273E+02  0.89523079973E+02 -0.15764468849E+03  0.18339730234E+03  0.47000000000E+01 0. -1.
         -5    1    4    4    0  502  0.53215829802E+02 -0.33181625848E+02 -0.15262817598E+03  0.16507693642E+03  0.47000000000E+01 0. -1.
<mgrwt>
<rscale>  0 0.99941041E+03</rscale>
<asrwt>0</asrwt>
<pdfrwt beam="1">  1        1 0.57596033E+00 0.99941041E+03</pdfrwt>
<pdfrwt beam="2">  1       -1 0.10261444E-01 0.99941041E+03</pdfrwt>
<totfact> 0.10419825E+01</totfact>
</mgrwt>
</event>
<event>
 9    1  0.4246427E-036  0.1000080E+04  0.7818608E-02  0.8680961E-01
         -1   -1    0    0    0  501 -0.00000000000E+00  0.00000000000E+00  0.95660298520E+03  0.95660298520E+03  0.00000000000E+00 0. -1.
          1   -1    0    0  501    0  0.00000000000E+00 -0.00000000000E+00 -0.26138348129E+03  0.26138348129E+03  0.00000000000E+00 0. -1.
         36    2    1    2    0    0  0.00000000000E+00  0.00000000000E+00  0.69521950392E+03  0.12179864665E+04  0.10000804337E+04 0.  0.
         25    2    3    3    0    0 -0.20086237603E+02 -0.13352602994E+03  0.17773435561E+03  0.25602955818E+03  0.12541521392E+03 0.  0.
         35    2    3    3    0    0  0.20086237603E+02  0.13352602994E+03  0.51748514830E+03  0.96195690832E+03  0.79958586602E+03 0.  0.
         22    1    5    5    0    0 -0.16184297208E+03 -0.29567247700E+03  0.28311056922E+03  0.44018968147E+03  0.00000000000E+00 0. -1.
         22    1    5    5    0    0  0.18192920969E+03  0.42919850694E+03  0.23437457908E+03  0.52176722685E+03  0.00000000000E+00 0. -1.
          5    1    4    4  502    0 -0.77053546346E+01 -0.10286808160E+03  0.19332369007E+03  0.21917425452E+03  0.47000000000E+01 0. -1.
         -5    1    4    4    0  502 -0.12380882969E+02 -0.30657948333E+02 -0.15589334452E+02  0.36855303658E+02  0.47000000000E+01 0. -1.
<mgrwt>
<rscale>  0 0.10000804E+04</rscale>
<asrwt>0</asrwt>
<pdfrwt beam="1">  1        1 0.40212844E-01 0.10000804E+04</pdfrwt>
<pdfrwt beam="2">  1       -1 0.14716969E+00 0.10000804E+04</pdfrwt>
<totfact> 0.45436026E+01</totfact>
</mgrwt>
</event>
<event>
 9    1  0.4246427E-036  0.9997976E+03  0.7818608E-02  0.8681231E-01
         -1   -1    0    0    0  501 -0.00000000000E+00  0.00000000000E+00  0.79862817814E+03  0.79862817814E+03  0.00000000000E+00 0. -1.
          1   -1    0    0  501    0  0.00000000000E+00 -0.00000000000E+00 -0.31291006694E+03  0.31291006694E+03  0.00000000000E+00 0. -1.
         36    2    1    2    0    0  0.00000000000E+00  0.14210854715E-13  0.48571811119E+03  0.11115382451E+04  0.99979757288E+03 0.  0.
         25    2    3    3    0    0  0.34364255523E+02 -0.11406477000E+03  0.17361767505E+03  0.24445814046E+03  0.12419746993E+03 0.  0.
         35    2    3    3    0    0 -0.34364255523E+02  0.11406477000E+03  0.31210043614E+03  0.86708010462E+03  0.80014345699E+03 0.  0.
         22    1    5    5    0    0 -0.93816063814E+02  0.83135810633E+02  0.57873393175E+03  0.59215367988E+03  0.00000000000E+00 0. -1.
         22    1    5    5    0    0  0.59451808292E+02  0.30928959364E+02 -0.26663349561E+03  0.27492642473E+03  0.00000000000E+00 0. -1.
          5    1    4    4  502    0  0.46242192354E+02 -0.33343954592E+02  0.14822298001E+03  0.15887825989E+03  0.47000000000E+01 0. -1.
         -5    1    4    4    0  502 -0.11877936832E+02 -0.80720815405E+02  0.25394695037E+02  0.85579880574E+02  0.47000000000E+01 0. -1.
<mgrwt>
<rscale>  0 0.99979757E+03</rscale>
<asrwt>0</asrwt>
<pdfrwt beam="1">  1        1 0.48140011E-01 0.99979757E+03</pdfrwt>
<pdfrwt beam="2">  1       -1 0.12286587E+00 0.99979757E+03</pdfrwt>
<totfact> 0.58214416E+01</totfact>
</mgrwt>
</event>
<event>
 9    1  0.4246427E-036  0.1001572E+04  0.7818608E-02  0.8679542E-01
         -1   -1    0    0    0  501 -0.00000000000E+00  0.00000000000E+00  0.12621847037E+03  0.12621847037E+03  0.00000000000E+00 0.  1.
          1   -1    0    0  501    0  0.00000000000E+00 -0.00000000000E+00 -0.19869267973E+04  0.19869267973E+04  0.00000000000E+00 0.  1.
         36    2    1    2    0    0 -0.28421709430E-13  0.00000000000E+00 -0.18607083270E+04  0.21131452677E+04  0.10015724858E+04 0.  0.
         25    2    3    3    0    0  0.90860655750E+02  0.85723629596E+02 -0.49768157354E+03  0.52829603095E+03  0.12572011868E+03 0.  0.
         35    2    3    3    0    0 -0.90860655750E+02 -0.85723629596E+02 -0.13630267534E+04  0.15848492368E+04  0.79893740257E+03 0.  0.
         22    1    5    5    0    0  0.43666888599E+02 -0.11043635100E+03  0.74918854407E+02  0.14041303190E+03  0.00000000000E+00 0. -1.
         22    1    5    5    0    0 -0.13452754435E+03  0.24712721402E+02 -0.14379456078E+04  0.14444362048E+04  0.00000000000E+00 0. -1.
          5    1    4    4  502    0  0.41062293845E+02  0.39564670729E+02 -0.42456494905E+03  0.42840280241E+03  0.47000000000E+01 0.  1.
         -5    1    4    4    0  502  0.49798361905E+02  0.46158958868E+02 -0.73116624485E+02  0.99893228540E+02  0.47000000000E+01 0.  1.
<mgrwt>
<rscale>  0 0.10015725E+04</rscale>
<asrwt>0</asrwt>
<pdfrwt beam="1">  1        1 0.30568102E+00 0.10015725E+04</pdfrwt>
<pdfrwt beam="2">  1       -1 0.19418228E-01 0.10015725E+04</pdfrwt>
<totfact> 0.68295111E+01</totfact>
</mgrwt>
</event>
<event>
 9    1  0.4246427E-036  0.1002275E+04  0.7818608E-02  0.8678875E-01
         -2   -1    0    0    0  501 -0.00000000000E+00  0.00000000000E+00  0.30734867828E+03  0.30734867828E+03  0.00000000000E+00 0. -1.
          2   -1    0    0  501    0  0.00000000000E+00 -0.00000000000E+00 -0.81711291537E+03  0.81711291537E+03  0.00000000000E+00 0. -1.
         36    2    1    2    0    0  0.00000000000E+00  0.00000000000E+00 -0.50976423710E+03  0.11244615936E+04  0.10022745623E+04 0.  0.
         25    2    3    3    0    0  0.29085779309E+02  0.13344854609E+03 -0.46568194065E+02  0.19025034799E+03  0.12398427804E+03 0.  0.
         35    2    3    3    0    0 -0.29085779309E+02 -0.13344854609E+03 -0.46319604303E+03  0.93421124566E+03  0.79971593721E+03 0.  0.
         22    1    5    5    0    0  0.29785075621E+03  0.26422458582E+02  0.51930313464E+02  0.30349625492E+03  0.00000000000E+00 0. -1.
         22    1    5    5    0    0 -0.32693653552E+03 -0.15987100467E+03 -0.51512635650E+03  0.63071499074E+03  0.00000000000E+00 0. -1.
          5    1    4    4  502    0 -0.39994115113E+02  0.99496090455E+02 -0.28102801905E+02  0.11095430922E+03  0.47000000000E+01 0. -1.
         -5    1    4    4    0  502  0.69079894422E+02  0.33952455631E+02 -0.18465392160E+02  0.79296038768E+02  0.47000000000E+01 0. -1.
<mgrwt>
<rscale>  0 0.10022746E+04</rscale>
<asrwt>0</asrwt>
<pdfrwt beam="1">  1        2 0.12570968E+00 0.10022746E+04</pdfrwt>
<pdfrwt beam="2">  1       -2 0.47284413E-01 0.10022746E+04</pdfrwt>
<totfact> 0.17180833E+02</totfact>
</mgrwt>
</event>
<event>
 9    1  0.4246427E-036  0.1000120E+04  0.7818608E-02  0.8680924E-01
         -2   -1    0    0    0  501 -0.00000000000E+00  0.00000000000E+00  0.14301248380E+03  0.14301248380E+03  0.00000000000E+00 0. -1.
          2   -1    0    0  501    0  0.00000000000E+00 -0.00000000000E+00 -0.17485180367E+04  0.17485180367E+04  0.00000000000E+00 0. -1.
         36    2    1    2    0    0  0.00000000000E+00  0.00000000000E+00 -0.16055055529E+04  0.18915305205E+04  0.10001198076E+04 0.  0.
         25    2    3    3    0    0  0.12838742278E+03  0.21948860641E+02 -0.20206864860E+03  0.27087991966E+03  0.12481630227E+03 0.  0.
         35    2    3    3    0    0 -0.12838742278E+03 -0.21948860641E+02 -0.14034369043E+04  0.16206506009E+04  0.79994258723E+03 0.  0.
         22    1    5    5    0    0  0.65938238690E+02  0.36312233157E+01  0.91543055964E+02  0.11287678326E+03  0.00000000000E+00 0.  1.
         22    1    5    5    0    0 -0.19432566147E+03 -0.25580083957E+02 -0.14949799603E+04  0.15077738176E+04  0.00000000000E+00 0.  1.
          5    1    4    4  502    0  0.99510574595E+02  0.53466564139E+02 -0.72376780652E+02  0.13424424127E+03  0.47000000000E+01 0.  1.
         -5    1    4    4    0  502  0.28876848185E+02 -0.31517703498E+02 -0.12969186795E+03  0.13663567838E+03  0.47000000000E+01 0.  1.
<mgrwt>
<rscale>  0 0.10001198E+04</rscale>
<asrwt>0</asrwt>
<pdfrwt beam="1">  1        2 0.26900278E+00 0.10001198E+04</pdfrwt>
<pdfrwt beam="2">  1       -2 0.22001921E-01 0.10001198E+04</pdfrwt>
<totfact> 0.19708567E+02</totfact>
</mgrwt>
</event>
<event>
 9    1  0.4246427E-036  0.9994367E+03  0.7818608E-02  0.8681575E-01
         -2   -1    0    0    0  501 -0.00000000000E+00  0.00000000000E+00  0.44249674440E+03  0.44249674440E+03  0.00000000000E+00 0.  1.
          2   -1    0    0  501    0  0.00000000000E+00 -0.00000000000E+00 -0.56433958998E+03  0.56433958998E+03  0.00000000000E+00 0.  1.
         36    2    1    2    0    0  0.00000000000E+00  0.14210854715E-13 -0.12184284558E+03  0.10068363344E+04  0.99943670395E+03 0.  0.
         25    2    3    3    0    0  0.69886079001E+02  0.10547430019E+03 -0.79299598377E+02  0.19519796762E+03  0.12571765279E+03 0.  0.
         35    2    3    3    0    0 -0.69886079001E+02 -0.10547430019E+03 -0.42543247207E+02  0.81163836675E+03  0.80058604688E+03 0.  0.
         22    1    5    5    0    0 -0.64930382633E+02 -0.20219635087E+03  0.34886887352E+03  0.40842234244E+03  0.00000000000E+00 0. -1.
         22    1    5    5    0    0 -0.49556963680E+01  0.96722050683E+02 -0.39141212072E+03  0.40321602431E+03  0.00000000000E+00 0. -1.
          5    1    4    4  502    0 -0.13310310191E+02  0.81394020498E+02 -0.69408730778E+02  0.10789723277E+03  0.47000000000E+01 0. -1.
         -5    1    4    4    0  502  0.83196389193E+02  0.24080279692E+02 -0.98908675986E+01  0.87300734857E+02  0.47000000000E+01 0. -1.
<mgrwt>
<rscale>  0 0.99943670E+03</rscale>
<asrwt>0</asrwt>
<pdfrwt beam="1">  1        2 0.86821476E-01 0.99943670E+03</pdfrwt>
<pdfrwt beam="2">  1       -2 0.68076422E-01 0.99943670E+03</pdfrwt>
<totfact> 0.12758227E+02</totfact>
</mgrwt>
</event>
<event>
 9    1  0.4246427E-036  0.9988686E+03  0.7818608E-02  0.8682116E-01
          2   -1    0    0  501    0  0.00000000000E+00  0.00000000000E+00  0.39556187792E+03  0.39556187792E+03  0.00000000000E+00 0.  1.
         -2   -1    0    0    0  501 -0.00000000000E+00 -0.00000000000E+00 -0.63058308634E+03  0.63058308634E+03  0.00000000000E+00 0.  1.
         36    2    1    2    0    0  0.14210854715E-13 -0.28421709430E-13 -0.23502120843E+03  0.10261449643E+04  0.99886861962E+03 0.  0.
         25    2    3    3    0    0 -0.15084121991E+02  0.13492379766E+03 -0.79307528727E+02  0.20099657626E+03  0.12521173126E+03 0.  0.
         35    2    3    3    0    0  0.15084121991E+02 -0.13492379766E+03 -0.15571367970E+03  0.82514838800E+03  0.79886866897E+03 0.  0.
         22    1    5    5    0    0 -0.31710520482E+03 -0.29759664079E+03 -0.35954312155E+02  0.43636244579E+03  0.00000000000E+00 0.  1.
         22    1    5    5    0    0  0.33218932681E+03  0.16267284314E+03 -0.11975936755E+03  0.38878594220E+03  0.00000000000E+00 0.  1.
          5    1    4    4  502    0 -0.20599613216E+02  0.15563489036E+02 -0.77048801822E+02  0.81395172571E+02  0.47000000000E+01 0. -1.
         -5    1    4    4    0  502  0.55154912247E+01  0.11936030862E+03 -0.22587269043E+01  0.11960140369E+03  0.47000000000E+01 0. -1.
<mgrwt>
<rscale>  0 0.99886862E+03</rscale>
<asrwt>0</asrwt>
<pdfrwt beam="1">  1        2 0.60855674E-01 0.99886862E+03</pdfrwt>
<pdfrwt beam="2">  1       -2 0.97012781E-01 0.99886862E+03</pdfrwt>
<totfact> 0.85064610E+01</totfact>
</mgrwt>
</event>
