<event>
 5    1  0.1108889E+001  0.2745675E+03  0.7818608E-02  0.1098694E+00
         -2   -1    0    0    0  501 -0.00000000000E+00  0.00000000000E+00  0.21267899619E+02  0.21267899619E+02  0.00000000000E+00 0. -1.
          2   -1    0    0  501    0  0.00000000000E+00 -0.00000000000E+00 -0.88616336453E+03  0.88616336453E+03  0.00000000000E+00 0. -1.
         35    2    1    2    0    0  0.00000000000E+00  0.00000000000E+00 -0.86489546491E+03  0.90743126415E+03  0.27456753983E+03 0.  0.
         25    1    3    3    0    0 -0.14991647175E+02  0.48394902716E+02 -0.28914796725E+03  0.31713303684E+03  0.12000000000E+03 0.  0.
         25    1    3    3    0    0  0.14991647175E+02 -0.48394902716E+02 -0.57574749767E+03  0.59029822731E+03  0.12000000000E+03 0.  0.
<mgrwt>
<rscale>  0 0.27456754E+03</rscale>
<asrwt>0</asrwt>
<pdfrwt beam="1">  1        2 0.13633284E+00 0.27456754E+03</pdfrwt>
<pdfrwt beam="2">  1       -2 0.32719842E-02 0.27456754E+03</pdfrwt>
<totfact> 0.11502099E+04</totfact>
</mgrwt>
</event>
<event>
 5    1  0.1108889E+001  0.2744936E+03  0.7818608E-02  0.1098735E+00
         -1   -1    0    0    0  501 -0.00000000000E+00  0.00000000000E+00  0.34403565750E+02  0.34403565750E+02  0.00000000000E+00 0.  1.
          1   -1    0    0  501    0  0.00000000000E+00 -0.00000000000E+00 -0.54752113782E+03  0.54752113782E+03  0.00000000000E+00 0.  1.
         35    2    1    2    0    0  0.00000000000E+00  0.00000000000E+00 -0.51311757207E+03  0.58192470357E+03  0.27449356615E+03 0.  0.
         25    1    3    3    0    0  0.23285481437E+02  0.40235815991E+02 -0.35768816309E+03  0.38013412968E+03  0.12000000000E+03 0.  0.
         25    1    3    3    0    0 -0.23285481437E+02 -0.40235815991E+02 -0.15542940898E+03  0.20179057389E+03  0.12000000000E+03 0.  0.
<mgrwt>
<rscale>  0 0.27449357E+03</rscale>
<asrwt>0</asrwt>
<pdfrwt beam="1">  1        1 0.84234017E-01 0.27449357E+03</pdfrwt>
<pdfrwt beam="2">  1       -1 0.52928565E-02 0.27449357E+03</pdfrwt>
<totfact> 0.64213530E+03</totfact>
</mgrwt>
</event>
<event>
 5    1  0.1108889E+001  0.2750030E+03  0.7818608E-02  0.1098450E+00
         -2   -1    0    0    0  501 -0.00000000000E+00  0.00000000000E+00  0.14430998672E+03  0.14430998672E+03  0.00000000000E+00 0. -1.
          2   -1    0    0  501    0  0.00000000000E+00 -0.00000000000E+00 -0.13101420238E+03  0.13101420238E+03  0.00000000000E+00 0. -1.
         35    2    1    2    0    0  0.00000000000E+00  0.00000000000E+00  0.13295784346E+02  0.27532418910E+03  0.27500296584E+03 0.  0.
         25    1    3    3    0    0  0.65159344545E+02  0.43607114046E+01 -0.89234683132E+01  0.13691013210E+03  0.12000000000E+03 0.  0.
         25    1    3    3    0    0 -0.65159344545E+02 -0.43607114046E+01  0.22219252659E+02  0.13841405700E+03  0.12000000000E+03 0.  0.
<mgrwt>
<rscale>  0 0.27500297E+03</rscale>
<asrwt>0</asrwt>
<pdfrwt beam="1">  1        2 0.20156031E-01 0.27500297E+03</pdfrwt>
<pdfrwt beam="2">  1       -2 0.22201537E-01 0.27500297E+03</pdfrwt>
<totfact> 0.47922221E+03</totfact>
</mgrwt>
</event>
<event>
 5    1  0.1108889E+001  0.2754849E+03  0.7818608E-02  0.1098181E+00
          2   -1    0    0  501    0  0.00000000000E+00  0.00000000000E+00  0.10861168495E+04  0.10861168495E+04  0.00000000000E+00 0. -1.
         -2   -1    0    0    0  501 -0.00000000000E+00 -0.00000000000E+00 -0.17468641800E+02  0.17468641800E+02  0.00000000000E+00 0. -1.
         35    2    1    2    0    0  0.00000000000E+00  0.00000000000E+00  0.10686482077E+04  0.11035854913E+04  0.27548492660E+03 0.  0.
         25    1    3    3    0    0  0.12300824344E+02 -0.37760236253E+02  0.31506002783E+03  0.33947012661E+03  0.12000000000E+03 0.  0.
         25    1    3    3    0    0 -0.12300824344E+02  0.37760236253E+02  0.75358817982E+03  0.76411536465E+03  0.12000000000E+03 0.  0.
<mgrwt>
<rscale>  0 0.27548493E+03</rscale>
<asrwt>0</asrwt>
<pdfrwt beam="1">  1        2 0.16709485E+00 0.27548493E+03</pdfrwt>
<pdfrwt beam="2">  1       -2 0.26874842E-02 0.27548493E+03</pdfrwt>
<totfact> 0.11598102E+04</totfact>
</mgrwt>
</event>
<event>
 5    1  0.1108889E+001  0.2736457E+03  0.7818608E-02  0.1099211E+00
          1   -1    0    0  501    0  0.00000000000E+00  0.00000000000E+00  0.31309842260E+04  0.31309842260E+04  0.00000000000E+00 0. -1.
         -1   -1    0    0    0  501 -0.00000000000E+00 -0.00000000000E+00 -0.59791093212E+01  0.59791093212E+01  0.00000000000E+00 0. -1.
         35    2    1    2    0    0  0.00000000000E+00  0.00000000000E+00  0.31250051167E+04  0.31369633353E+04  0.27364573427E+03 0.  0.
         25    1    3    3    0    0  0.39884222926E+02 -0.64541481352E+01  0.21568530672E+04  0.21605664907E+04  0.12000000000E+03 0.  0.
         25    1    3    3    0    0 -0.39884222926E+02  0.64541481352E+01  0.96815204945E+03  0.97639684459E+03  0.12000000000E+03 0.  0.
<mgrwt>
<rscale>  0 0.27364573E+03</rscale>
<asrwt>0</asrwt>
<pdfrwt beam="1">  1        1 0.48168857E+00 0.27364573E+03</pdfrwt>
<pdfrwt beam="2">  1       -1 0.91986547E-03 0.27364573E+03</pdfrwt>
<totfact> 0.12418172E+03</totfact>
</mgrwt>
</event>
<event>
 5    1  0.1108889E+001  0.2685243E+03  0.7818608E-02  0.1102127E+00
         -1   -1    0    0    0  501 -0.00000000000E+00  0.00000000000E+00  0.11880223697E+04  0.11880223697E+04  0.00000000000E+00 0.  1.
          1   -1    0    0  501    0  0.00000000000E+00 -0.00000000000E+00 -0.15173389989E+02  0.15173389989E+02  0.00000000000E+00 0.  1.
         35    2    1    2    0    0  0.00000000000E+00  0.00000000000E+00  0.11728489797E+04  0.12031957597E+04  0.26852431347E+03 0.  0.
         25    1    3    3    0    0  0.34653086479E+02 -0.26081902601E+02  0.39923634015E+03  0.41913095489E+03  0.12000000000E+03 0.  0.
         25    1    3    3    0    0 -0.34653086479E+02  0.26081902601E+02  0.77361263957E+03  0.78406480481E+03  0.12000000000E+03 0.  0.
<mgrwt>
<rscale>  0 0.26852431E+03</rscale>
<asrwt>0</asrwt>
<pdfrwt beam="1">  1        1 0.23343686E-02 0.26852431E+03</pdfrwt>
<pdfrwt beam="2">  1       -1 0.18277260E+00 0.26852431E+03</pdfrwt>
<totfact> 0.10623471E+03</totfact>
</mgrwt>
</event>
<event>
 5    1  0.1108889E+001  0.2719120E+03  0.7818608E-02  0.1100190E+00
         -2   -1    0    0    0  501 -0.00000000000E+00  0.00000000000E+00  0.81800307855E+01  0.81800307855E+01  0.00000000000E+00 0. -1.
          2   -1    0    0  501    0  0.00000000000E+00 -0.00000000000E+00 -0.22596533473E+04  0.22596533473E+04  0.00000000000E+00 0. -1.
         35    2    1    2    0    0  0.00000000000E+00  0.00000000000E+00 -0.22514733165E+04  0.22678333781E+04  0.27191200007E+03 0.  0.
         25    1    3    3    0    0 -0.26883512143E+02 -0.51983910275E+02 -0.91163494853E+03  0.92135950071E+03  0.12000000000E+03 0.  0.
         25    1    3    3    0    0  0.26883512143E+02  0.51983910275E+02 -0.13398383680E+04  0.13464738774E+04  0.12000000000E+03 0.  0.
<mgrwt>
<rscale>  0 0.27191200E+03</rscale>
<asrwt>0</asrwt>
<pdfrwt beam="1">  1        2 0.34763841E+00 0.27191200E+03</pdfrwt>
<pdfrwt beam="2">  1       -2 0.12584683E-02 0.27191200E+03</pdfrwt>
<totfact> 0.82525488E+03</totfact>
</mgrwt>
</event>
<event>
 5    1  0.1108889E+001  0.2747419E+03  0.7818608E-02  0.1098596E+00
         -1   -1    0    0    0  501 -0.00000000000E+00  0.00000000000E+00  0.41781101490E+02  0.41781101490E+02  0.00000000000E+00 0. -1.
          1   -1    0    0  501    0  0.00000000000E+00 -0.00000000000E+00 -0.45165809858E+03  0.45165809858E+03  0.00000000000E+00 0. -1.
         35    2    1    2    0    0  0.00000000000E+00  0.00000000000E+00 -0.40987699709E+03  0.49343920007E+03  0.27474186325E+03 0.  0.
         25    1    3    3    0    0  0.11854714695E+02 -0.53660850869E+02 -0.27334625539E+03  0.30354274248E+03  0.12000000000E+03 0.  0.
         25    1    3    3    0    0 -0.11854714695E+02  0.53660850869E+02 -0.13653074170E+03  0.18989645759E+03  0.12000000000E+03 0.  0.
<mgrwt>
<rscale>  0 0.27474186E+03</rscale>
<asrwt>0</asrwt>
<pdfrwt beam="1">  1        1 0.69485866E-01 0.27474186E+03</pdfrwt>
<pdfrwt beam="2">  1       -1 0.64278613E-02 0.27474186E+03</pdfrwt>
<totfact> 0.61876935E+03</totfact>
</mgrwt>
</event>
<event>
 5    1  0.1108889E+001  0.2776405E+03  0.7818608E-02  0.1096985E+00
          1   -1    0    0  501    0  0.00000000000E+00  0.00000000000E+00  0.79859789728E+02  0.79859789728E+02  0.00000000000E+00 0.  1.
         -1   -1    0    0    0  501 -0.00000000000E+00 -0.00000000000E+00 -0.24131124477E+03  0.24131124477E+03  0.00000000000E+00 0.  1.
         35    2    1    2    0    0  0.00000000000E+00  0.00000000000E+00 -0.16145145504E+03  0.32117103450E+03  0.27764052490E+03 0.  0.
         25    1    3    3    0    0 -0.57819973373E+02 -0.11472354505E+02 -0.12395152781E+03  0.18231496232E+03  0.12000000000E+03 0.  0.
         25    1    3    3    0    0  0.57819973373E+02  0.11472354505E+02 -0.37499927231E+02  0.13885607218E+03  0.12000000000E+03 0.  0.
<mgrwt>
<rscale>  0 0.27764052E+03</rscale>
<asrwt>0</asrwt>
<pdfrwt beam="1">  1        1 0.12286121E-01 0.27764052E+03</pdfrwt>
<pdfrwt beam="2">  1       -1 0.37124807E-01 0.27764052E+03</pdfrwt>
<totfact> 0.34125415E+03</totfact>
</mgrwt>
</event>
<event>
 5    1  0.1108889E+001  0.2737413E+03  0.7818608E-02  0.1099157E+00
         -2   -1    0    0    0  501 -0.00000000000E+00  0.00000000000E+00  0.13959256358E+03  0.13959256358E+03  0.00000000000E+00 0. -1.
          2   -1    0    0  501    0  0.00000000000E+00 -0.00000000000E+00 -0.13420184368E+03  0.13420184368E+03  0.00000000000E+00 0. -1.
         35    2    1    2    0    0  0.00000000000E+00  0.00000000000E+00  0.53907199029E+01  0.27379440726E+03  0.27374133335E+03 0.  0.
         25    1    3    3    0    0  0.27758609211E+02  0.27857509680E+02 -0.50106903029E+02  0.13585758338E+03  0.12000000000E+03 0.  0.
         25    1    3    3    0    0 -0.27758609211E+02 -0.27857509680E+02  0.55497622932E+02  0.13793682388E+03  0.12000000000E+03 0.  0.
<mgrwt>
<rscale>  0 0.27374133E+03</rscale>
<asrwt>0</asrwt>
<pdfrwt beam="1">  1        2 0.20646438E-01 0.27374133E+03</pdfrwt>
<pdfrwt beam="2">  1       -2 0.21475779E-01 0.27374133E+03</pdfrwt>
<totfact> 0.49376798E+03</totfact>
</mgrwt>
</event>
<event>
 5    1  0.1108889E+001  0.2797043E+03  0.7818608E-02  0.1095851E+00
          2   -1    0    0  501    0  0.00000000000E+00  0.00000000000E+00  0.92804202786E+03  0.92804202786E+03  0.00000000000E+00 0.  1.
         -2   -1    0    0    0  501 -0.00000000000E+00 -0.00000000000E+00 -0.21075155466E+02  0.21075155466E+02  0.00000000000E+00 0.  1.
         35    2    1    2    0    0  0.00000000000E+00  0.00000000000E+00  0.90696687239E+03  0.94911718333E+03  0.27970434402E+03 0.  0.
         25    1    3    3    0    0 -0.56981387923E+02 -0.31549984454E+02  0.55620255849E+03  0.57271595592E+03  0.12000000000E+03 0.  0.
         25    1    3    3    0    0  0.56981387923E+02  0.31549984454E+02  0.35076431390E+03  0.37640122741E+03  0.12000000000E+03 0.  0.
<mgrwt>
<rscale>  0 0.27970434E+03</rscale>
<asrwt>0</asrwt>
<pdfrwt beam="1">  1        2 0.14277566E+00 0.27970434E+03</pdfrwt>
<pdfrwt beam="2">  1       -2 0.32423323E-02 0.27970434E+03</pdfrwt>
<totfact> 0.10964523E+04</totfact>
</mgrwt>
</event>
<event>
 5    1  0.1108889E+001  0.2750857E+03  0.7818608E-02  0.1098404E+00
         -2   -1    0    0    0  501 -0.00000000000E+00  0.00000000000E+00  0.90107556750E+02  0.90107556750E+02  0.00000000000E+00 0. -1.
          2   -1    0    0  501    0  0.00000000000E+00 -0.00000000000E+00 -0.20994948976E+03  0.20994948976E+03  0.00000000000E+00 0. -1.
         35    2    1    2    0    0  0.00000000000E+00  0.00000000000E+00 -0.11984193301E+03  0.30005704651E+03  0.27508569983E+03 0.  0.
         25    1    3    3    0    0 -0.41148096331E+02  0.43795430462E+02 -0.27073736184E+02  0.13690943266E+03  0.12000000000E+03 0.  0.
         25    1    3    3    0    0  0.41148096331E+02 -0.43795430462E+02 -0.92768196824E+02  0.16314761384E+03  0.12000000000E+03 0.  0.
<mgrwt>
<rscale>  0 0.27508570E+03</rscale>
<asrwt>0</asrwt>
<pdfrwt beam="1">  1        2 0.32299921E-01 0.27508570E+03</pdfrwt>
<pdfrwt beam="2">  1       -2 0.13862701E-01 0.27508570E+03</pdfrwt>
<totfact> 0.62574532E+03</totfact>
</mgrwt>
</event>
<event>
 5    1  0.1108889E+001  0.2747348E+03  0.7818608E-02  0.1098600E+00
          3   -1    0    0  501    0  0.00000000000E+00  0.00000000000E+00  0.62628720494E+02  0.62628720494E+02  0.00000000000E+00 0.  1.
         -3   -1    0    0    0  501 -0.00000000000E+00 -0.00000000000E+00 -0.30129626963E+03  0.30129626963E+03  0.00000000000E+00 0.  1.
         35    2    1    2    0    0  0.00000000000E+00  0.00000000000E+00 -0.23866754913E+03  0.36392499012E+03  0.27473478015E+03 0.  0.
         25    1    3    3    0    0  0.11298387068E+02 -0.13729865400E+02 -0.20470519578E+03  0.23795037284E+03  0.12000000000E+03 0.  0.
         25    1    3    3    0    0 -0.11298387068E+02  0.13729865400E+02 -0.33962353353E+02  0.12597461728E+03  0.12000000000E+03 0.  0.
<mgrwt>
<rscale>  0 0.27473478E+03</rscale>
<asrwt>0</asrwt>
<pdfrwt beam="1">  1        3 0.96351878E-02 0.27473478E+03</pdfrwt>
<pdfrwt beam="2">  1       -3 0.46353272E-01 0.27473478E+03</pdfrwt>
<totfact> 0.92745282E+02</totfact>
</mgrwt>
</event>
<event>
 5    1  0.1108889E+001  0.2733863E+03  0.7818608E-02  0.1099357E+00
         -1   -1    0    0    0  501 -0.00000000000E+00  0.00000000000E+00  0.65624287332E+02  0.65624287332E+02  0.00000000000E+00 0.  1.
          1   -1    0    0  501    0  0.00000000000E+00 -0.00000000000E+00 -0.28472715685E+03  0.28472715685E+03  0.00000000000E+00 0.  1.
         35    2    1    2    0    0  0.00000000000E+00  0.00000000000E+00 -0.21910286951E+03  0.35035144418E+03  0.27338629631E+03 0.  0.
         25    1    3    3    0    0  0.18309470029E+02  0.12542661302E+02 -0.30631308248E+02  0.12582063460E+03  0.12000000000E+03 0.  0.
         25    1    3    3    0    0 -0.18309470029E+02 -0.12542661302E+02 -0.18847156127E+03  0.22453080958E+03  0.12000000000E+03 0.  0.
<mgrwt>
<rscale>  0 0.27338630E+03</rscale>
<asrwt>0</asrwt>
<pdfrwt beam="1">  1        1 0.43804179E-01 0.27338630E+03</pdfrwt>
<pdfrwt beam="2">  1       -1 0.10096044E-01 0.27338630E+03</pdfrwt>
<totfact> 0.55834266E+03</totfact>
</mgrwt>
</event>
<event>
 5    1  0.1108889E+001  0.2750289E+03  0.7818608E-02  0.1098435E+00
          1   -1    0    0  501    0  0.00000000000E+00  0.00000000000E+00  0.17896357963E+02  0.17896357963E+02  0.00000000000E+00 0. -1.
         -1   -1    0    0    0  501 -0.00000000000E+00 -0.00000000000E+00 -0.10566522620E+04  0.10566522620E+04  0.00000000000E+00 0. -1.
         35    2    1    2    0    0  0.00000000000E+00  0.00000000000E+00 -0.10387559041E+04  0.10745486200E+04  0.27502892302E+03 0.  0.
         25    1    3    3    0    0 -0.11007192728E+02 -0.16118920205E+02 -0.26831464129E+03  0.29457380164E+03  0.12000000000E+03 0.  0.
         25    1    3    3    0    0  0.11007192728E+02  0.16118920205E+02 -0.77044126278E+03  0.77997481836E+03  0.12000000000E+03 0.  0.
<mgrwt>
<rscale>  0 0.27502892E+03</rscale>
<asrwt>0</asrwt>
<pdfrwt beam="1">  1        1 0.27532860E-02 0.27502892E+03</pdfrwt>
<pdfrwt beam="2">  1       -1 0.16256188E+00 0.27502892E+03</pdfrwt>
<totfact> 0.11718768E+03</totfact>
</mgrwt>
</event>
<event>
 5    1  0.1108889E+001  0.2761813E+03  0.7818608E-02  0.1097793E+00
          3   -1    0    0  501    0  0.00000000000E+00  0.00000000000E+00  0.54302675223E+03  0.54302675223E+03  0.00000000000E+00 0. -1.
         -3   -1    0    0    0  501 -0.00000000000E+00 -0.00000000000E+00 -0.35116184059E+02  0.35116184059E+02  0.00000000000E+00 0. -1.
         35    2    1    2    0    0  0.00000000000E+00  0.00000000000E+00  0.50791056818E+03  0.57814293629E+03  0.27618129828E+03 0.  0.
         25    1    3    3    0    0  0.48531527572E+02  0.22167087368E+02  0.16459274990E+03  0.21056462725E+03  0.12000000000E+03 0.  0.
         25    1    3    3    0    0 -0.48531527572E+02 -0.22167087368E+02  0.34331781827E+03  0.36757830904E+03  0.12000000000E+03 0.  0.
<mgrwt>
<rscale>  0 0.27618130E+03</rscale>
<asrwt>0</asrwt>
<pdfrwt beam="1">  1        3 0.83542571E-01 0.27618130E+03</pdfrwt>
<pdfrwt beam="2">  1       -3 0.54024902E-02 0.27618130E+03</pdfrwt>
<totfact> 0.69470275E+02</totfact>
</mgrwt>
</event>
<event>
 5    1  0.1108889E+001  0.2756402E+03  0.7818608E-02  0.1098094E+00
         -2   -1    0    0    0  501 -0.00000000000E+00  0.00000000000E+00  0.35109136675E+02  0.35109136675E+02  0.00000000000E+00 0. -1.
          2   -1    0    0  501    0  0.00000000000E+00 -0.00000000000E+00 -0.54100959644E+03  0.54100959644E+03  0.00000000000E+00 0. -1.
         35    2    1    2    0    0  0.00000000000E+00  0.00000000000E+00 -0.50590045976E+03  0.57611873311E+03  0.27564019927E+03 0.  0.
         25    1    3    3    0    0  0.66454997654E+01  0.13909516712E+02 -0.11499111798E+03  0.16691493203E+03  0.12000000000E+03 0.  0.
         25    1    3    3    0    0 -0.66454997654E+01 -0.13909516712E+02 -0.39090934179E+03  0.40920380108E+03  0.12000000000E+03 0.  0.
<mgrwt>
<rscale>  0 0.27564020E+03</rscale>
<asrwt>0</asrwt>
<pdfrwt beam="1">  1        2 0.83232237E-01 0.27564020E+03</pdfrwt>
<pdfrwt beam="2">  1       -2 0.54014062E-02 0.27564020E+03</pdfrwt>
<totfact> 0.98475135E+03</totfact>
</mgrwt>
</event>
<event>
 5    1  0.1108889E+001  0.2744847E+03  0.7818608E-02  0.1098740E+00
          4   -1    0    0  501    0  0.00000000000E+00  0.00000000000E+00  0.33492611050E+03  0.33492611050E+03  0.00000000000E+00 0. -1.
         -4   -1    0    0    0  501 -0.00000000000E+00 -0.00000000000E+00 -0.56237671101E+02  0.56237671101E+02  0.00000000000E+00 0. -1.
         35    2    1    2    0    0  0.00000000000E+00  0.00000000000E+00  0.27868843940E+03  0.39116378160E+03  0.27448471320E+03 0.  0.
         25    1    3    3    0    0  0.40174366567E+02 -0.40533699608E+02  0.90422018664E+02  0.16072679301E+03  0.12000000000E+03 0.  0.
         25    1    3    3    0    0 -0.40174366567E+02  0.40533699608E+02  0.18826642073E+03  0.23043698859E+03  0.12000000000E+03 0.  0.
<mgrwt>
<rscale>  0 0.27448471E+03</rscale>
<asrwt>0</asrwt>
<pdfrwt beam="1">  1        4 0.51527093E-01 0.27448471E+03</pdfrwt>
<pdfrwt beam="2">  1       -4 0.86519496E-02 0.27448471E+03</pdfrwt>
<totfact> 0.66182134E+02</totfact>
</mgrwt>
</event>
<event>
 5    1  0.1108889E+001  0.2755282E+03  0.7818608E-02  0.1098157E+00
         -1   -1    0    0    0  501 -0.00000000000E+00  0.00000000000E+00  0.12680876491E+03  0.12680876491E+03  0.00000000000E+00 0.  1.
          1   -1    0    0  501    0  0.00000000000E+00 -0.00000000000E+00 -0.14966585218E+03  0.14966585218E+03  0.00000000000E+00 0.  1.
         35    2    1    2    0    0  0.00000000000E+00  0.00000000000E+00 -0.22857087275E+02  0.27647461709E+03  0.27552816092E+03 0.  0.
         25    1    3    3    0    0 -0.47532649324E+02 -0.40221604151E+02  0.15154185454E+02  0.13603962485E+03  0.12000000000E+03 0.  0.
         25    1    3    3    0    0  0.47532649324E+02  0.40221604151E+02 -0.38011272729E+02  0.14043499224E+03  0.12000000000E+03 0.  0.
<mgrwt>
<rscale>  0 0.27552816E+03</rscale>
<asrwt>0</asrwt>
<pdfrwt beam="1">  1        1 0.23025516E-01 0.27552816E+03</pdfrwt>
<pdfrwt beam="2">  1       -1 0.19509041E-01 0.27552816E+03</pdfrwt>
<totfact> 0.44395604E+03</totfact>
</mgrwt>
</event>
<event>
 5    1  0.1108889E+001  0.2756065E+03  0.7818608E-02  0.1098113E+00
         -2   -1    0    0    0  501 -0.00000000000E+00  0.00000000000E+00  0.98639494649E+01  0.98639494649E+01  0.00000000000E+00 0. -1.
          2   -1    0    0  501    0  0.00000000000E+00 -0.00000000000E+00 -0.19251656812E+04  0.19251656812E+04  0.00000000000E+00 0. -1.
         35    2    1    2    0    0  0.00000000000E+00  0.00000000000E+00 -0.19153017317E+04  0.19350296306E+04  0.27560650929E+03 0.  0.
         25    1    3    3    0    0  0.41983964446E+01  0.66915505741E+02 -0.88942596564E+03  0.89998547755E+03  0.12000000000E+03 0.  0.
         25    1    3    3    0    0 -0.41983964446E+01 -0.66915505741E+02 -0.10258757661E+04  0.10350441531E+04  0.12000000000E+03 0.  0.
<mgrwt>
<rscale>  0 0.27560651E+03</rscale>
<asrwt>0</asrwt>
<pdfrwt beam="1">  1        2 0.29617950E+00 0.27560651E+03</pdfrwt>
<pdfrwt beam="2">  1       -2 0.15175298E-02 0.27560651E+03</pdfrwt>
<totfact> 0.94350563E+03</totfact>
</mgrwt>
</event>
<event>
 5    1  0.1108889E+001  0.2749201E+03  0.7818608E-02  0.1098496E+00
         -4   -1    0    0    0  501 -0.00000000000E+00  0.00000000000E+00  0.20444430182E+03  0.20444430182E+03  0.00000000000E+00 0.  1.
          4   -1    0    0  501    0  0.00000000000E+00 -0.00000000000E+00 -0.92422581190E+02  0.92422581190E+02  0.00000000000E+00 0.  1.
         35    2    1    2    0    0  0.00000000000E+00  0.00000000000E+00  0.11202172063E+03  0.29686688301E+03  0.27492013446E+03 0.  0.
         25    1    3    3    0    0 -0.30174698337E+02  0.23274866153E+02  0.11557829701E+03  0.17091101355E+03  0.12000000000E+03 0.  0.
         25    1    3    3    0    0  0.30174698337E+02 -0.23274866153E+02 -0.35565763829E+01  0.12595586945E+03  0.12000000000E+03 0.  0.
<mgrwt>
<rscale>  0 0.27492013E+03</rscale>
<asrwt>0</asrwt>
<pdfrwt beam="1">  1        4 0.14218859E-01 0.27492013E+03</pdfrwt>
<pdfrwt beam="2">  1       -4 0.31452969E-01 0.27492013E+03</pdfrwt>
<totfact> 0.75412428E+02</totfact>
</mgrwt>
</event>
<event>
 4    1  0.1108889E+001  0.3166041E+03  0.7818608E-02  0.1077223E+00
          2   -1    0    0  501    0  0.00000000000E+00  0.00000000000E+00  0.67327955139E+03  0.67327955139E+03  0.00000000000E+00 0. -1.
         -2   -1    0    0    0  501 -0.00000000000E+00 -0.00000000000E+00 -0.37220098663E+02  0.37220098663E+02  0.00000000000E+00 0. -1.
         25    1    1    2    0    0 -0.79270516885E+02 -0.99696909108E+01  0.46478123930E+03  0.48662594463E+03  0.12000000000E+03 0.  0.
         25    1    1    2    0    0  0.79270516885E+02  0.99696909108E+01  0.17127821343E+03  0.22387370542E+03  0.12000000000E+03 0.  0.
<mgrwt>
<rscale>  0 0.31660405E+03</rscale>
<asrwt>0</asrwt>
<pdfrwt beam="1">  1        2 0.10358146E+00 0.31660405E+03</pdfrwt>
<pdfrwt beam="2">  1       -2 0.57261695E-02 0.31660405E+03</pdfrwt>
<totfact> 0.70058730E+03</totfact>
</mgrwt>
</event>
<event>
 5    1  0.1108889E+001  0.2741294E+03  0.7818608E-02  0.1098939E+00
          2   -1    0    0  501    0  0.00000000000E+00  0.00000000000E+00  0.14304353292E+04  0.14304353292E+04  0.00000000000E+00 0.  1.
         -2   -1    0    0    0  501 -0.00000000000E+00 -0.00000000000E+00 -0.13133572287E+02  0.13133572287E+02  0.00000000000E+00 0.  1.
         35    2    1    2    0    0  0.00000000000E+00  0.00000000000E+00  0.14173017569E+04  0.14435689015E+04  0.27412935485E+03 0.  0.
         25    1    3    3    0    0  0.17644539944E+02  0.63576983527E+02  0.67823392915E+03  0.69192096751E+03  0.12000000000E+03 0.  0.
         25    1    3    3    0    0 -0.17644539944E+02 -0.63576983527E+02  0.73906782775E+03  0.75164793397E+03  0.12000000000E+03 0.  0.
<mgrwt>
<rscale>  0 0.27412935E+03</rscale>
<asrwt>0</asrwt>
<pdfrwt beam="1">  1        2 0.22006685E+00 0.27412935E+03</pdfrwt>
<pdfrwt beam="2">  1       -2 0.20205507E-02 0.27412935E+03</pdfrwt>
<totfact> 0.11324794E+04</totfact>
</mgrwt>
</event>
<event>
 5    1  0.1108889E+001  0.2750909E+03  0.7818608E-02  0.1098401E+00
          2   -1    0    0  501    0  0.00000000000E+00  0.00000000000E+00  0.98452476263E+03  0.98452476263E+03  0.00000000000E+00 0.  1.
         -2   -1    0    0    0  501 -0.00000000000E+00 -0.00000000000E+00 -0.19216130336E+02  0.19216130336E+02  0.00000000000E+00 0.  1.
         35    2    1    2    0    0  0.00000000000E+00  0.00000000000E+00  0.96530863229E+03  0.10037408930E+04  0.27509093883E+03 0.  0.
         25    1    3    3    0    0 -0.22335044867E+02 -0.23308306456E+02  0.26751279103E+03  0.29496648071E+03  0.12000000000E+03 0.  0.
         25    1    3    3    0    0  0.22335044867E+02  0.23308306456E+02  0.69779584126E+03  0.70877441225E+03  0.12000000000E+03 0.  0.
<mgrwt>
<rscale>  0 0.27509094E+03</rscale>
<asrwt>0</asrwt>
<pdfrwt beam="1">  1        2 0.15146531E+00 0.27509094E+03</pdfrwt>
<pdfrwt beam="2">  1       -2 0.29563285E-02 0.27509094E+03</pdfrwt>
<totfact> 0.11591754E+04</totfact>
</mgrwt>
</event>
<event>
 5    1  0.1108889E+001  0.2752204E+03  0.7818608E-02  0.1098328E+00
         -1   -1    0    0    0  501 -0.00000000000E+00  0.00000000000E+00  0.40290254305E+02  0.40290254305E+02  0.00000000000E+00 0.  1.
          1   -1    0    0  501    0  0.00000000000E+00 -0.00000000000E+00 -0.47000383192E+03  0.47000383192E+03  0.00000000000E+00 0.  1.
         35    2    1    2    0    0  0.00000000000E+00  0.00000000000E+00 -0.42971357761E+03  0.51029408622E+03  0.27522044918E+03 0.  0.
         25    1    3    3    0    0  0.62588109487E+02  0.14824592047E+01 -0.26091629636E+03  0.29393329659E+03  0.12000000000E+03 0.  0.
         25    1    3    3    0    0 -0.62588109487E+02 -0.14824592047E+01 -0.16879728125E+03  0.21636078963E+03  0.12000000000E+03 0.  0.
<mgrwt>
<rscale>  0 0.27522045E+03</rscale>
<asrwt>0</asrwt>
<pdfrwt beam="1">  1        1 0.72308279E-01 0.27522045E+03</pdfrwt>
<pdfrwt beam="2">  1       -1 0.61985009E-02 0.27522045E+03</pdfrwt>
<totfact> 0.62054700E+03</totfact>
</mgrwt>
</event>
<event>
 5    1  0.1108889E+001  0.2744166E+03  0.7818608E-02  0.1098778E+00
          2   -1    0    0  501    0  0.00000000000E+00  0.00000000000E+00  0.96052865271E+03  0.96052865271E+03  0.00000000000E+00 0. -1.
         -2   -1    0    0    0  501 -0.00000000000E+00 -0.00000000000E+00 -0.19599743997E+02  0.19599743997E+02  0.00000000000E+00 0. -1.
         35    2    1    2    0    0  0.00000000000E+00  0.00000000000E+00  0.94092890871E+03  0.98012839671E+03  0.27441658619E+03 0.  0.
         25    1    3    3    0    0  0.56523719926E+02  0.23231579135E+02  0.56438529234E+03  0.58022874403E+03  0.12000000000E+03 0.  0.
         25    1    3    3    0    0 -0.56523719926E+02 -0.23231579135E+02  0.37654361637E+03  0.39989965268E+03  0.12000000000E+03 0.  0.
<mgrwt>
<rscale>  0 0.27441659E+03</rscale>
<asrwt>0</asrwt>
<pdfrwt beam="1">  1        2 0.14777360E+00 0.27441659E+03</pdfrwt>
<pdfrwt beam="2">  1       -2 0.30153460E-02 0.27441659E+03</pdfrwt>
<totfact> 0.11647634E+04</totfact>
</mgrwt>
</event>
<event>
 5    1  0.1108889E+001  0.2750616E+03  0.7818608E-02  0.1098417E+00
          2   -1    0    0  501    0  0.00000000000E+00  0.00000000000E+00  0.81215142518E+03  0.81215142518E+03  0.00000000000E+00 0.  1.
         -2   -1    0    0    0  501 -0.00000000000E+00 -0.00000000000E+00 -0.23289643082E+02  0.23289643082E+02  0.00000000000E+00 0.  1.
         35    2    1    2    0    0  0.00000000000E+00  0.00000000000E+00  0.78886178210E+03  0.83544106827E+03  0.27506156999E+03 0.  0.
         25    1    3    3    0    0 -0.45256205314E+02  0.49445455732E+02  0.38026930902E+03  0.40434851873E+03  0.12000000000E+03 0.  0.
         25    1    3    3    0    0  0.45256205314E+02 -0.49445455732E+02  0.40859247308E+03  0.43109254954E+03  0.12000000000E+03 0.  0.
<mgrwt>
<rscale>  0 0.27506157E+03</rscale>
<asrwt>0</asrwt>
<pdfrwt beam="1">  1        2 0.12494635E+00 0.27506157E+03</pdfrwt>
<pdfrwt beam="2">  1       -2 0.35830226E-02 0.27506157E+03</pdfrwt>
<totfact> 0.11252222E+04</totfact>
</mgrwt>
</event>
<event>
 5    1  0.1108889E+001  0.2753847E+03  0.7818608E-02  0.1098237E+00
          1   -1    0    0  501    0  0.00000000000E+00  0.00000000000E+00  0.10773679202E+04  0.10773679202E+04  0.00000000000E+00 0.  1.
         -1   -1    0    0    0  501 -0.00000000000E+00 -0.00000000000E+00 -0.17597687723E+02  0.17597687723E+02  0.00000000000E+00 0.  1.
         35    2    1    2    0    0  0.00000000000E+00  0.00000000000E+00  0.10597702325E+04  0.10949656079E+04  0.27538470708E+03 0.  0.
         25    1    3    3    0    0  0.16361115387E+02  0.62275295868E+02  0.44905265124E+03  0.46924852920E+03  0.12000000000E+03 0.  0.
         25    1    3    3    0    0 -0.16361115387E+02 -0.62275295868E+02  0.61071758126E+03  0.62571707874E+03  0.12000000000E+03 0.  0.
<mgrwt>
<rscale>  0 0.27538471E+03</rscale>
<asrwt>0</asrwt>
<pdfrwt beam="1">  1        1 0.16574886E+00 0.27538471E+03</pdfrwt>
<pdfrwt beam="2">  1       -1 0.27073374E-02 0.27538471E+03</pdfrwt>
<totfact> 0.61502854E+03</totfact>
</mgrwt>
</event>
<event>
 5    1  0.1108889E+001  0.2758703E+03  0.7818608E-02  0.1097966E+00
         -4   -1    0    0    0  501 -0.00000000000E+00  0.00000000000E+00  0.81788585657E+02  0.81788585657E+02  0.00000000000E+00 0. -1.
          4   -1    0    0  501    0  0.00000000000E+00 -0.00000000000E+00 -0.23262550596E+03  0.23262550596E+03  0.00000000000E+00 0. -1.
         35    2    1    2    0    0  0.00000000000E+00  0.00000000000E+00 -0.15083692030E+03  0.31441409161E+03  0.27587033998E+03 0.  0.
         25    1    3    3    0    0 -0.52508124923E+02  0.32275742454E+00 -0.26147563974E+02  0.13356984112E+03  0.12000000000E+03 0.  0.
         25    1    3    3    0    0  0.52508124923E+02 -0.32275742454E+00 -0.12468935633E+03  0.18084425049E+03  0.12000000000E+03 0.  0.
<mgrwt>
<rscale>  0 0.27587034E+03</rscale>
<asrwt>0</asrwt>
<pdfrwt beam="1">  1        4 0.35788539E-01 0.27587034E+03</pdfrwt>
<pdfrwt beam="2">  1       -4 0.12582859E-01 0.27587034E+03</pdfrwt>
<totfact> 0.72702689E+02</totfact>
</mgrwt>
</event>
<event>
 5    1  0.1108889E+001  0.2761059E+03  0.7818608E-02  0.1097835E+00
         -1   -1    0    0    0  501 -0.00000000000E+00  0.00000000000E+00  0.14917198368E+02  0.14917198368E+02  0.00000000000E+00 0.  1.
          1   -1    0    0  501    0  0.00000000000E+00 -0.00000000000E+00 -0.12776272748E+04  0.12776272748E+04  0.00000000000E+00 0.  1.
         35    2    1    2    0    0  0.00000000000E+00  0.00000000000E+00 -0.12627100764E+04  0.12925444732E+04  0.27610591808E+03 0.  0.
         25    1    3    3    0    0 -0.26467603338E+02 -0.37518078982E+00 -0.33684192183E+03  0.35855704580E+03  0.12000000000E+03 0.  0.
         25    1    3    3    0    0  0.26467603338E+02  0.37518078982E+00 -0.92586815462E+03  0.93398742739E+03  0.12000000000E+03 0.  0.
<mgrwt>
<rscale>  0 0.27610592E+03</rscale>
<asrwt>0</asrwt>
<pdfrwt beam="1">  1        1 0.19655809E+00 0.27610592E+03</pdfrwt>
<pdfrwt beam="2">  1       -1 0.22949531E-02 0.27610592E+03</pdfrwt>
<totfact> 0.56647287E+03</totfact>
</mgrwt>
</event>
<event>
 5    1  0.1108889E+001  0.2745899E+03  0.7818608E-02  0.1098681E+00
         -1   -1    0    0    0  501 -0.00000000000E+00  0.00000000000E+00  0.12424178753E+03  0.12424178753E+03  0.00000000000E+00 0. -1.
          1   -1    0    0  501    0  0.00000000000E+00 -0.00000000000E+00 -0.15171952411E+03  0.15171952411E+03  0.00000000000E+00 0. -1.
         35    2    1    2    0    0  0.00000000000E+00  0.00000000000E+00 -0.27477736584E+02  0.27596131165E+03  0.27458991154E+03 0.  0.
         25    1    3    3    0    0 -0.45248052386E+02  0.94217809539E+01  0.34602809031E+02  0.13316722793E+03  0.12000000000E+03 0.  0.
         25    1    3    3    0    0  0.45248052386E+02 -0.94217809539E+01 -0.62080545615E+02  0.14279408372E+03  0.12000000000E+03 0.  0.
<mgrwt>
<rscale>  0 0.27458991E+03</rscale>
<asrwt>0</asrwt>
<pdfrwt beam="1">  1        1 0.23341465E-01 0.27458991E+03</pdfrwt>
<pdfrwt beam="2">  1       -1 0.19114121E-01 0.27458991E+03</pdfrwt>
<totfact> 0.45094537E+03</totfact>
</mgrwt>
</event>
<event>
 5    1  0.1108889E+001  0.2757793E+03  0.7818608E-02  0.1098017E+00
          2   -1    0    0  501    0  0.00000000000E+00  0.00000000000E+00  0.23871291812E+03  0.23871291812E+03  0.00000000000E+00 0. -1.
         -2   -1    0    0    0  501 -0.00000000000E+00 -0.00000000000E+00 -0.79650321777E+02  0.79650321777E+02  0.00000000000E+00 0. -1.
         35    2    1    2    0    0  0.00000000000E+00  0.00000000000E+00  0.15906259634E+03  0.31836323990E+03  0.27577933745E+03 0.  0.
         25    1    3    3    0    0  0.55830333138E+02 -0.37035234204E+02  0.92434210024E+02  0.16562825198E+03  0.12000000000E+03 0.  0.
         25    1    3    3    0    0 -0.55830333138E+02  0.37035234204E+02  0.66628386318E+02  0.15273498792E+03  0.12000000000E+03 0.  0.
<mgrwt>
<rscale>  0 0.27577934E+03</rscale>
<asrwt>0</asrwt>
<pdfrwt beam="1">  1        2 0.36725064E-01 0.27577934E+03</pdfrwt>
<pdfrwt beam="2">  1       -2 0.12253896E-01 0.27577934E+03</pdfrwt>
<totfact> 0.66534342E+03</totfact>
</mgrwt>
</event>
<event>
 5    1  0.1108889E+001  0.2756236E+03  0.7818608E-02  0.1098104E+00
          2   -1    0    0  501    0  0.00000000000E+00  0.00000000000E+00  0.19448212205E+04  0.19448212205E+04  0.00000000000E+00 0.  1.
         -2   -1    0    0    0  501 -0.00000000000E+00 -0.00000000000E+00 -0.97654727403E+01  0.97654727403E+01  0.00000000000E+00 0.  1.
         35    2    1    2    0    0  0.00000000000E+00  0.00000000000E+00  0.19350557478E+04  0.19545866933E+04  0.27562364640E+03 0.  0.
         25    1    3    3    0    0 -0.57877462580E+02 -0.17890040937E+02  0.11828861029E+04  0.11904996375E+04  0.12000000000E+03 0.  0.
         25    1    3    3    0    0  0.57877462580E+02  0.17890040937E+02  0.75216964486E+03  0.76408705583E+03  0.12000000000E+03 0.  0.
<mgrwt>
<rscale>  0 0.27562365E+03</rscale>
<asrwt>0</asrwt>
<pdfrwt beam="1">  1        2 0.29920296E+00 0.27562365E+03</pdfrwt>
<pdfrwt beam="2">  1       -2 0.15023820E-02 0.27562365E+03</pdfrwt>
<totfact> 0.93496700E+03</totfact>
</mgrwt>
</event>
<event>
 5    1  0.1108889E+001  0.2750484E+03  0.7818608E-02  0.1098425E+00
         -1   -1    0    0    0  501 -0.00000000000E+00  0.00000000000E+00  0.27058947128E+02  0.27058947128E+02  0.00000000000E+00 0. -1.
          1   -1    0    0  501    0  0.00000000000E+00 -0.00000000000E+00 -0.69895189515E+03  0.69895189515E+03  0.00000000000E+00 0. -1.
         35    2    1    2    0    0  0.00000000000E+00  0.00000000000E+00 -0.67189294802E+03  0.72601084228E+03  0.27504837666E+03 0.  0.
         25    1    3    3    0    0 -0.56862299415E+02 -0.27683508313E+02 -0.39574346235E+03  0.41834505580E+03  0.12000000000E+03 0.  0.
         25    1    3    3    0    0  0.56862299415E+02  0.27683508313E+02 -0.27614948568E+03  0.30766578647E+03  0.12000000000E+03 0.  0.
<mgrwt>
<rscale>  0 0.27504838E+03</rscale>
<asrwt>0</asrwt>
<pdfrwt beam="1">  1        1 0.10753107E+00 0.27504838E+03</pdfrwt>
<pdfrwt beam="2">  1       -1 0.41629147E-02 0.27504838E+03</pdfrwt>
<totfact> 0.65275430E+03</totfact>
</mgrwt>
</event>
<event>
 5    1  0.1108889E+001  0.2746791E+03  0.7818608E-02  0.1098631E+00
          2   -1    0    0  501    0  0.00000000000E+00  0.00000000000E+00  0.19384454214E+03  0.19384454214E+03  0.00000000000E+00 0. -1.
         -2   -1    0    0    0  501 -0.00000000000E+00 -0.00000000000E+00 -0.97305565947E+02  0.97305565947E+02  0.00000000000E+00 0. -1.
         35    2    1    2    0    0  0.00000000000E+00  0.00000000000E+00  0.96538976195E+02  0.29115010809E+03  0.27467910644E+03 0.  0.
         25    1    3    3    0    0 -0.22859552649E+02  0.47973138541E+02  0.53681299911E+01  0.13134990669E+03  0.12000000000E+03 0.  0.
         25    1    3    3    0    0  0.22859552649E+02 -0.47973138541E+02  0.91170846204E+02  0.15980020140E+03  0.12000000000E+03 0.  0.
<mgrwt>
<rscale>  0 0.27467911E+03</rscale>
<asrwt>0</asrwt>
<pdfrwt beam="1">  1        2 0.29822237E-01 0.27467911E+03</pdfrwt>
<pdfrwt beam="2">  1       -2 0.14970087E-01 0.27467911E+03</pdfrwt>
<totfact> 0.60174196E+03</totfact>
</mgrwt>
</event>
<event>
 5    1  0.1108889E+001  0.2747246E+03  0.7818608E-02  0.1098606E+00
         -1   -1    0    0    0  501 -0.00000000000E+00  0.00000000000E+00  0.39847683456E+01  0.39847683456E+01  0.00000000000E+00 0.  1.
          1   -1    0    0  501    0  0.00000000000E+00 -0.00000000000E+00 -0.47351318564E+04  0.47351318564E+04  0.00000000000E+00 0.  1.
         35    2    1    2    0    0  0.00000000000E+00  0.00000000000E+00 -0.47311470880E+04  0.47391166247E+04  0.27472461509E+03 0.  0.
         25    1    3    3    0    0 -0.60033843449E+02 -0.27269161930E+02 -0.25551195269E+04  0.25587855452E+04  0.12000000000E+03 0.  0.
         25    1    3    3    0    0  0.60033843449E+02  0.27269161930E+02 -0.21760275611E+04  0.21803310795E+04  0.12000000000E+03 0.  0.
<mgrwt>
<rscale>  0 0.27472462E+03</rscale>
<asrwt>0</asrwt>
<pdfrwt beam="1">  1        1 0.72848487E+00 0.27472462E+03</pdfrwt>
<pdfrwt beam="2">  1       -1 0.61303872E-03 0.27472462E+03</pdfrwt>
<totfact> 0.96507624E+01</totfact>
</mgrwt>
</event>
<event>
 5    1  0.1108889E+001  0.2744865E+03  0.7818608E-02  0.1098739E+00
         -2   -1    0    0    0  501 -0.00000000000E+00  0.00000000000E+00  0.12892770118E+03  0.12892770118E+03  0.00000000000E+00 0. -1.
          2   -1    0    0  501    0  0.00000000000E+00 -0.00000000000E+00 -0.14609510554E+03  0.14609510554E+03  0.00000000000E+00 0. -1.
         35    2    1    2    0    0  0.00000000000E+00  0.00000000000E+00 -0.17167404362E+02  0.27502280672E+03  0.27448647406E+03 0.  0.
         25    1    3    3    0    0 -0.57078085114E+02 -0.34281064853E+02 -0.10201447559E+02  0.13761238585E+03  0.12000000000E+03 0.  0.
         25    1    3    3    0    0  0.57078085114E+02  0.34281064853E+02 -0.69659568036E+01  0.13741042086E+03  0.12000000000E+03 0.  0.
<mgrwt>
<rscale>  0 0.27448647E+03</rscale>
<asrwt>0</asrwt>
<pdfrwt beam="1">  1        2 0.22476170E-01 0.27448647E+03</pdfrwt>
<pdfrwt beam="2">  1       -2 0.19835031E-01 0.27448647E+03</pdfrwt>
<totfact> 0.51402198E+03</totfact>
</mgrwt>
</event>
<event>
 5    1  0.1108889E+001  0.2753713E+03  0.7818608E-02  0.1098244E+00
         -1   -1    0    0    0  501 -0.00000000000E+00  0.00000000000E+00  0.15598939811E+03  0.15598939811E+03  0.00000000000E+00 0.  1.
          1   -1    0    0  501    0  0.00000000000E+00 -0.00000000000E+00 -0.12152967088E+03  0.12152967088E+03  0.00000000000E+00 0.  1.
         35    2    1    2    0    0  0.00000000000E+00  0.00000000000E+00  0.34459727232E+02  0.27751906899E+03  0.27537131451E+03 0.  0.
         25    1    3    3    0    0 -0.53128642640E+02 -0.82539716343E+01  0.58371782494E+02  0.14386815391E+03  0.12000000000E+03 0.  0.
         25    1    3    3    0    0  0.53128642640E+02  0.82539716343E+01 -0.23912055263E+02  0.13365091509E+03  0.12000000000E+03 0.  0.
<mgrwt>
<rscale>  0 0.27537131E+03</rscale>
<asrwt>0</asrwt>
<pdfrwt beam="1">  1        1 0.18696872E-01 0.27537131E+03</pdfrwt>
<pdfrwt beam="2">  1       -1 0.23998369E-01 0.27537131E+03</pdfrwt>
<totfact> 0.41329170E+03</totfact>
</mgrwt>
</event>
<event>
 5    1  0.1108889E+001  0.2717007E+03  0.7818608E-02  0.1100310E+00
         -2   -1    0    0    0  501 -0.00000000000E+00  0.00000000000E+00  0.95509981275E+01  0.95509981275E+01  0.00000000000E+00 0. -1.
          2   -1    0    0  501    0  0.00000000000E+00 -0.00000000000E+00 -0.19322923413E+04  0.19322923413E+04  0.00000000000E+00 0. -1.
         35    2    1    2    0    0  0.00000000000E+00  0.00000000000E+00 -0.19227413432E+04  0.19418433394E+04  0.27170072163E+03 0.  0.
         25    1    3    3    0    0  0.36498439711E+02 -0.41909093149E+02 -0.11835964782E+04  0.11909614315E+04  0.12000000000E+03 0.  0.
         25    1    3    3    0    0 -0.36498439711E+02  0.41909093149E+02 -0.73914486502E+03  0.75088190795E+03  0.12000000000E+03 0.  0.
<mgrwt>
<rscale>  0 0.27170072E+03</rscale>
<asrwt>0</asrwt>
<pdfrwt beam="1">  1        2 0.29727583E+00 0.27170072E+03</pdfrwt>
<pdfrwt beam="2">  1       -2 0.14693839E-02 0.27170072E+03</pdfrwt>
<totfact> 0.98041408E+03</totfact>
</mgrwt>
</event>
<event>
 5    1  0.1108889E+001  0.2741953E+03  0.7818608E-02  0.1098902E+00
         -2   -1    0    0    0  501 -0.00000000000E+00  0.00000000000E+00  0.64161862998E+02  0.64161862998E+02  0.00000000000E+00 0.  1.
          2   -1    0    0  501    0  0.00000000000E+00 -0.00000000000E+00 -0.29294293118E+03  0.29294293118E+03  0.00000000000E+00 0.  1.
         35    2    1    2    0    0  0.00000000000E+00  0.00000000000E+00 -0.22878106818E+03  0.35710479418E+03  0.27419528965E+03 0.  0.
         25    1    3    3    0    0 -0.56436510559E+02  0.56536196071E+01 -0.69676771595E+02  0.14990628952E+03  0.12000000000E+03 0.  0.
         25    1    3    3    0    0  0.56436510559E+02 -0.56536196071E+01 -0.15910429659E+03  0.20719850465E+03  0.12000000000E+03 0.  0.
<mgrwt>
<rscale>  0 0.27419529E+03</rscale>
<asrwt>0</asrwt>
<pdfrwt beam="1">  1        2 0.45068142E-01 0.27419529E+03</pdfrwt>
<pdfrwt beam="2">  1       -2 0.98710560E-02 0.27419529E+03</pdfrwt>
<totfact> 0.75436470E+03</totfact>
</mgrwt>
</event>
<event>
 5    1  0.1108889E+001  0.2746383E+03  0.7818608E-02  0.1098654E+00
         -2   -1    0    0    0  501 -0.00000000000E+00  0.00000000000E+00  0.40968765010E+03  0.40968765010E+03  0.00000000000E+00 0. -1.
          2   -1    0    0  501    0  0.00000000000E+00 -0.00000000000E+00 -0.46026641800E+02  0.46026641800E+02  0.00000000000E+00 0. -1.
         35    2    1    2    0    0  0.00000000000E+00  0.00000000000E+00  0.36366100830E+03  0.45571429190E+03  0.27463828372E+03 0.  0.
         25    1    3    3    0    0 -0.23579656274E+02  0.33908295364E+02  0.26885850970E+03  0.29730568599E+03  0.12000000000E+03 0.  0.
         25    1    3    3    0    0  0.23579656274E+02 -0.33908295364E+02  0.94802498596E+02  0.15840860590E+03  0.12000000000E+03 0.  0.
<mgrwt>
<rscale>  0 0.27463828E+03</rscale>
<asrwt>0</asrwt>
<pdfrwt beam="1">  1        2 0.70810221E-02 0.27463828E+03</pdfrwt>
<pdfrwt beam="2">  1       -2 0.63028867E-01 0.27463828E+03</pdfrwt>
<totfact> 0.23671926E+03</totfact>
</mgrwt>
</event>
<event>
 5    1  0.1108889E+001  0.2744343E+03  0.7818608E-02  0.1098768E+00
         -2   -1    0    0    0  501 -0.00000000000E+00  0.00000000000E+00  0.23217549049E+02  0.23217549049E+02  0.00000000000E+00 0. -1.
          2   -1    0    0  501    0  0.00000000000E+00 -0.00000000000E+00 -0.81096172712E+03  0.81096172712E+03  0.00000000000E+00 0. -1.
         35    2    1    2    0    0  0.00000000000E+00  0.00000000000E+00 -0.78774417807E+03  0.83417927617E+03  0.27443428121E+03 0.  0.
         25    1    3    3    0    0 -0.18516296581E+02  0.33134934152E+02 -0.56001980211E+03  0.57398863739E+03  0.12000000000E+03 0.  0.
         25    1    3    3    0    0  0.18516296581E+02 -0.33134934152E+02 -0.22772437596E+03  0.26019063878E+03  0.12000000000E+03 0.  0.
<mgrwt>
<rscale>  0 0.27443428E+03</rscale>
<asrwt>0</asrwt>
<pdfrwt beam="1">  1        2 0.12476337E+00 0.27443428E+03</pdfrwt>
<pdfrwt beam="2">  1       -2 0.35719299E-02 0.27443428E+03</pdfrwt>
<totfact> 0.11324919E+04</totfact>
</mgrwt>
</event>
<event>
 5    1  0.1108889E+001  0.2744969E+03  0.7818608E-02  0.1098733E+00
         -2   -1    0    0    0  501 -0.00000000000E+00  0.00000000000E+00  0.16097475273E+02  0.16097475273E+02  0.00000000000E+00 0.  1.
          2   -1    0    0  501    0  0.00000000000E+00 -0.00000000000E+00 -0.11701922857E+04  0.11701922857E+04  0.00000000000E+00 0.  1.
         35    2    1    2    0    0  0.00000000000E+00  0.00000000000E+00 -0.11540948104E+04  0.11862897610E+04  0.27449693174E+03 0.  0.
         25    1    3    3    0    0 -0.59785968507E+02 -0.12282979474E+02 -0.69235692243E+03  0.70532499010E+03  0.12000000000E+03 0.  0.
         25    1    3    3    0    0  0.59785968507E+02  0.12282979474E+02 -0.46173788801E+03  0.48096477089E+03  0.12000000000E+03 0.  0.
<mgrwt>
<rscale>  0 0.27449693E+03</rscale>
<asrwt>0</asrwt>
<pdfrwt beam="1">  1        2 0.18002958E+00 0.27449693E+03</pdfrwt>
<pdfrwt beam="2">  1       -2 0.24765347E-02 0.27449693E+03</pdfrwt>
<totfact> 0.11695746E+04</totfact>
</mgrwt>
</event>
<event>
 5    1  0.1108889E+001  0.2750861E+03  0.7818608E-02  0.1098404E+00
          1   -1    0    0  501    0  0.00000000000E+00  0.00000000000E+00  0.55502463032E+02  0.55502463032E+02  0.00000000000E+00 0.  1.
         -1   -1    0    0    0  501 -0.00000000000E+00 -0.00000000000E+00 -0.34085125301E+03  0.34085125301E+03  0.00000000000E+00 0.  1.
         35    2    1    2    0    0  0.00000000000E+00  0.00000000000E+00 -0.28534878998E+03  0.39635371605E+03  0.27508605250E+03 0.  0.
         25    1    3    3    0    0 -0.61463821469E+01  0.66390088833E+02 -0.13039241126E+03  0.18933463186E+03  0.12000000000E+03 0.  0.
         25    1    3    3    0    0  0.61463821469E+01 -0.66390088833E+02 -0.15495637872E+03  0.20701908418E+03  0.12000000000E+03 0.  0.
<mgrwt>
<rscale>  0 0.27508605E+03</rscale>
<asrwt>0</asrwt>
<pdfrwt beam="1">  1        1 0.85388404E-02 0.27508605E+03</pdfrwt>
<pdfrwt beam="2">  1       -1 0.52438655E-01 0.27508605E+03</pdfrwt>
<totfact> 0.29783484E+03</totfact>
</mgrwt>
</event>
<event>
 5    1  0.1108889E+001  0.2749779E+03  0.7818608E-02  0.1098464E+00
         -1   -1    0    0    0  501 -0.00000000000E+00  0.00000000000E+00  0.95814629559E+01  0.95814629559E+01  0.00000000000E+00 0. -1.
          1   -1    0    0  501    0  0.00000000000E+00 -0.00000000000E+00 -0.19728942727E+04  0.19728942727E+04  0.00000000000E+00 0. -1.
         35    2    1    2    0    0  0.00000000000E+00  0.00000000000E+00 -0.19633128097E+04  0.19824757356E+04  0.27497791467E+03 0.  0.
         25    1    3    3    0    0 -0.65510286081E+01 -0.53934417206E+02 -0.12656238854E+04  0.12724604735E+04  0.12000000000E+03 0.  0.
         25    1    3    3    0    0  0.65510286081E+01  0.53934417206E+02 -0.69768892430E+03  0.71001526210E+03  0.12000000000E+03 0.  0.
<mgrwt>
<rscale>  0 0.27497791E+03</rscale>
<asrwt>0</asrwt>
<pdfrwt beam="1">  1        1 0.30352220E+00 0.27497791E+03</pdfrwt>
<pdfrwt beam="2">  1       -1 0.14740712E-02 0.27497791E+03</pdfrwt>
<totfact> 0.37612985E+03</totfact>
</mgrwt>
</event>
<event>
 5    1  0.1108889E+001  0.2743351E+03  0.7818608E-02  0.1098824E+00
         -1   -1    0    0    0  501 -0.00000000000E+00  0.00000000000E+00  0.52057921099E+03  0.52057921099E+03  0.00000000000E+00 0.  1.
          1   -1    0    0  501    0  0.00000000000E+00 -0.00000000000E+00 -0.36142309853E+02  0.36142309853E+02  0.00000000000E+00 0.  1.
         35    2    1    2    0    0  0.00000000000E+00  0.00000000000E+00  0.48443690114E+03  0.55672152084E+03  0.27433508814E+03 0.  0.
         25    1    3    3    0    0  0.18109747185E+02 -0.61578976570E+02  0.20736313496E+03  0.24803105257E+03  0.12000000000E+03 0.  0.
         25    1    3    3    0    0 -0.18109747185E+02  0.61578976570E+02  0.27707376617E+03  0.30869046827E+03  0.12000000000E+03 0.  0.
<mgrwt>
<rscale>  0 0.27433509E+03</rscale>
<asrwt>0</asrwt>
<pdfrwt beam="1">  1        1 0.55603557E-02 0.27433509E+03</pdfrwt>
<pdfrwt beam="2">  1       -1 0.80089104E-01 0.27433509E+03</pdfrwt>
<totfact> 0.23324355E+03</totfact>
</mgrwt>
</event>
<event>
 5    1  0.1108889E+001  0.2748659E+03  0.7818608E-02  0.1098527E+00
         -2   -1    0    0    0  501 -0.00000000000E+00  0.00000000000E+00  0.23944247738E+03  0.23944247738E+03  0.00000000000E+00 0.  1.
          2   -1    0    0  501    0  0.00000000000E+00 -0.00000000000E+00 -0.78882473566E+02  0.78882473566E+02  0.00000000000E+00 0.  1.
         35    2    1    2    0    0  0.00000000000E+00  0.00000000000E+00  0.16056000382E+03  0.31832495095E+03  0.27486589379E+03 0.  0.
         25    1    3    3    0    0 -0.14350476711E+02 -0.63261570371E+02  0.99653781896E+02  0.16893442134E+03  0.12000000000E+03 0.  0.
         25    1    3    3    0    0  0.14350476711E+02  0.63261570371E+02  0.60906221919E+02  0.14939052961E+03  0.12000000000E+03 0.  0.
<mgrwt>
<rscale>  0 0.27486589E+03</rscale>
<asrwt>0</asrwt>
<pdfrwt beam="1">  1        2 0.12135765E-01 0.27486589E+03</pdfrwt>
<pdfrwt beam="2">  1       -2 0.36837304E-01 0.27486589E+03</pdfrwt>
<totfact> 0.34975696E+03</totfact>
</mgrwt>
</event>
<event>
 5    1  0.1108889E+001  0.2724233E+03  0.7818608E-02  0.1099901E+00
         -1   -1    0    0    0  501 -0.00000000000E+00  0.00000000000E+00  0.44844841286E+02  0.44844841286E+02  0.00000000000E+00 0.  1.
          1   -1    0    0  501    0  0.00000000000E+00 -0.00000000000E+00 -0.41372903792E+03  0.41372903792E+03  0.00000000000E+00 0.  1.
         35    2    1    2    0    0  0.00000000000E+00  0.00000000000E+00 -0.36888419663E+03  0.45857387920E+03  0.27242329593E+03 0.  0.
         25    1    3    3    0    0  0.15886061190E+02 -0.59847335206E+02 -0.15435159640E+03  0.20508165638E+03  0.12000000000E+03 0.  0.
         25    1    3    3    0    0 -0.15886061190E+02  0.59847335206E+02 -0.21453260023E+03  0.25349222283E+03  0.12000000000E+03 0.  0.
<mgrwt>
<rscale>  0 0.27242330E+03</rscale>
<asrwt>0</asrwt>
<pdfrwt beam="1">  1        1 0.63650622E-01 0.27242330E+03</pdfrwt>
<pdfrwt beam="2">  1       -1 0.68992063E-02 0.27242330E+03</pdfrwt>
<totfact> 0.62261292E+03</totfact>
</mgrwt>
</event>
<event>
 5    1  0.1108889E+001  0.2736059E+03  0.7818608E-02  0.1099233E+00
          3   -1    0    0  501    0  0.00000000000E+00  0.00000000000E+00  0.21161278845E+03  0.21161278845E+03  0.00000000000E+00 0.  1.
         -3   -1    0    0    0  501 -0.00000000000E+00 -0.00000000000E+00 -0.88440035595E+02  0.88440035595E+02  0.00000000000E+00 0.  1.
         35    2    1    2    0    0  0.00000000000E+00  0.00000000000E+00  0.12317275286E+03  0.30005282405E+03  0.27360586648E+03 0.  0.
         25    1    3    3    0    0  0.30895951544E+02  0.47983605660E+02  0.25914438450E+02  0.13538295444E+03  0.12000000000E+03 0.  0.
         25    1    3    3    0    0 -0.30895951544E+02 -0.47983605660E+02  0.97258314406E+02  0.16466986960E+03  0.12000000000E+03 0.  0.
<mgrwt>
<rscale>  0 0.27360587E+03</rscale>
<asrwt>0</asrwt>
<pdfrwt beam="1">  1        3 0.32555813E-01 0.27360587E+03</pdfrwt>
<pdfrwt beam="2">  1       -3 0.13606159E-01 0.27360587E+03</pdfrwt>
<totfact> 0.10275020E+03</totfact>
</mgrwt>
</event>
<event>
 5    1  0.1108889E+001  0.2746066E+03  0.7818608E-02  0.1098672E+00
          2   -1    0    0  501    0  0.00000000000E+00  0.00000000000E+00  0.77385673557E+03  0.77385673557E+03  0.00000000000E+00 0. -1.
         -2   -1    0    0    0  501 -0.00000000000E+00 -0.00000000000E+00 -0.24361343721E+02  0.24361343721E+02  0.00000000000E+00 0. -1.
         35    2    1    2    0    0  0.00000000000E+00  0.00000000000E+00  0.74949539185E+03  0.79821807929E+03  0.27460655437E+03 0.  0.
         25    1    3    3    0    0 -0.24798428013E+02  0.54103116290E+02  0.28705758610E+03  0.31677147435E+03  0.12000000000E+03 0.  0.
         25    1    3    3    0    0  0.24798428013E+02 -0.54103116290E+02  0.46243780574E+03  0.48144660494E+03  0.12000000000E+03 0.  0.
<mgrwt>
<rscale>  0 0.27460655E+03</rscale>
<asrwt>0</asrwt>
<pdfrwt beam="1">  1        2 0.11905486E+00 0.27460655E+03</pdfrwt>
<pdfrwt beam="2">  1       -2 0.37478996E-02 0.27460655E+03</pdfrwt>
<totfact> 0.11182392E+04</totfact>
</mgrwt>
</event>
<event>
 5    1  0.1108889E+001  0.2813048E+03  0.7818608E-02  0.1094978E+00
         -4   -1    0    0    0  501 -0.00000000000E+00  0.00000000000E+00  0.11603589650E+03  0.11603589650E+03  0.00000000000E+00 0.  1.
          4   -1    0    0  501    0  0.00000000000E+00 -0.00000000000E+00 -0.17049115433E+03  0.17049115433E+03  0.00000000000E+00 0.  1.
         35    2    1    2    0    0  0.00000000000E+00  0.00000000000E+00 -0.54455257828E+02  0.28652705083E+03  0.28130477378E+03 0.  0.
         25    1    3    3    0    0 -0.22610556108E+02 -0.51663685152E+02  0.20576808016E+02  0.13417816007E+03  0.12000000000E+03 0.  0.
         25    1    3    3    0    0  0.22610556108E+02  0.51663685152E+02 -0.75032065844E+02  0.15234889076E+03  0.12000000000E+03 0.  0.
<mgrwt>
<rscale>  0 0.28130477E+03</rscale>
<asrwt>0</asrwt>
<pdfrwt beam="1">  1        4 0.26229408E-01 0.28130477E+03</pdfrwt>
<pdfrwt beam="2">  1       -4 0.17851676E-01 0.28130477E+03</pdfrwt>
<totfact> 0.71333998E+02</totfact>
</mgrwt>
</event>
<event>
 5    1  0.1108889E+001  0.2750168E+03  0.7818608E-02  0.1098442E+00
          1   -1    0    0  501    0  0.00000000000E+00  0.00000000000E+00  0.25529546304E+03  0.25529546304E+03  0.00000000000E+00 0. -1.
         -1   -1    0    0    0  501 -0.00000000000E+00 -0.00000000000E+00 -0.74065383155E+02  0.74065383155E+02  0.00000000000E+00 0. -1.
         35    2    1    2    0    0  0.00000000000E+00  0.00000000000E+00  0.18123007989E+03  0.32936084620E+03  0.27501677249E+03 0.  0.
         25    1    3    3    0    0 -0.48774301286E+02 -0.43399086131E+02  0.10940416951E+03  0.17501910024E+03  0.12000000000E+03 0.  0.
         25    1    3    3    0    0  0.48774301286E+02  0.43399086131E+02  0.71825910372E+02  0.15434174595E+03  0.12000000000E+03 0.  0.
<mgrwt>
<rscale>  0 0.27501677E+03</rscale>
<asrwt>0</asrwt>
<pdfrwt beam="1">  1        1 0.39276225E-01 0.27501677E+03</pdfrwt>
<pdfrwt beam="2">  1       -1 0.11394674E-01 0.27501677E+03</pdfrwt>
<totfact> 0.53076882E+03</totfact>
</mgrwt>
</event>
<event>
 5    1  0.1108889E+001  0.2756664E+03  0.7818608E-02  0.1098080E+00
          1   -1    0    0  501    0  0.00000000000E+00  0.00000000000E+00  0.13334954689E+03  0.13334954689E+03  0.00000000000E+00 0.  1.
         -1   -1    0    0    0  501 -0.00000000000E+00 -0.00000000000E+00 -0.14246757935E+03  0.14246757935E+03  0.00000000000E+00 0.  1.
         35    2    1    2    0    0  0.00000000000E+00  0.00000000000E+00 -0.91180324593E+01  0.27581712625E+03  0.27566637193E+03 0.  0.
         25    1    3    3    0    0  0.18660128112E+02 -0.22103352464E+02 -0.65921411320E+02  0.13993709673E+03  0.12000000000E+03 0.  0.
         25    1    3    3    0    0 -0.18660128112E+02  0.22103352464E+02  0.56803378861E+02  0.13588002952E+03  0.12000000000E+03 0.  0.
<mgrwt>
<rscale>  0 0.27566637E+03</rscale>
<asrwt>0</asrwt>
<pdfrwt beam="1">  1        1 0.20515315E-01 0.27566637E+03</pdfrwt>
<pdfrwt beam="2">  1       -1 0.21918089E-01 0.27566637E+03</pdfrwt>
<totfact> 0.42575355E+03</totfact>
</mgrwt>
</event>
<event>
 5    1  0.1108889E+001  0.2748755E+03  0.7818608E-02  0.1098521E+00
         -1   -1    0    0    0  501 -0.00000000000E+00  0.00000000000E+00  0.48436192595E+02  0.48436192595E+02  0.00000000000E+00 0. -1.
          1   -1    0    0  501    0  0.00000000000E+00 -0.00000000000E+00 -0.38997968574E+03  0.38997968574E+03  0.00000000000E+00 0. -1.
         35    2    1    2    0    0  0.00000000000E+00  0.00000000000E+00 -0.34154349314E+03  0.43841587833E+03  0.27487547120E+03 0.  0.
         25    1    3    3    0    0 -0.21343651133E+02  0.29174669498E+02 -0.26074821128E+03  0.28930320163E+03  0.12000000000E+03 0.  0.
         25    1    3    3    0    0  0.21343651133E+02 -0.29174669498E+02 -0.80795281860E+02  0.14911267671E+03  0.12000000000E+03 0.  0.
<mgrwt>
<rscale>  0 0.27487547E+03</rscale>
<asrwt>0</asrwt>
<pdfrwt beam="1">  1        1 0.59996876E-01 0.27487547E+03</pdfrwt>
<pdfrwt beam="2">  1       -1 0.74517218E-02 0.27487547E+03</pdfrwt>
<totfact> 0.59765331E+03</totfact>
</mgrwt>
</event>
<event>
 5    1  0.1108889E+001  0.2742737E+03  0.7818608E-02  0.1098858E+00
          2   -1    0    0  501    0  0.00000000000E+00  0.00000000000E+00  0.15830551729E+03  0.15830551729E+03  0.00000000000E+00 0. -1.
         -2   -1    0    0    0  501 -0.00000000000E+00 -0.00000000000E+00 -0.11879882228E+03  0.11879882228E+03  0.00000000000E+00 0. -1.
         35    2    1    2    0    0  0.00000000000E+00  0.00000000000E+00  0.39506695010E+02  0.27710433957E+03  0.27427365178E+03 0.  0.
         25    1    3    3    0    0  0.36525853291E+02  0.49078833527E+02  0.45780415063E+02  0.14226284217E+03  0.12000000000E+03 0.  0.
         25    1    3    3    0    0 -0.36525853291E+02 -0.49078833527E+02 -0.62737200528E+01  0.13484149740E+03  0.12000000000E+03 0.  0.
<mgrwt>
<rscale>  0 0.27427365E+03</rscale>
<asrwt>0</asrwt>
<pdfrwt beam="1">  1        2 0.24354695E-01 0.27427365E+03</pdfrwt>
<pdfrwt beam="2">  1       -2 0.18276742E-01 0.27427365E+03</pdfrwt>
<totfact> 0.53967843E+03</totfact>
</mgrwt>
</event>
<event>
 5    1  0.1108889E+001  0.2750377E+03  0.7818608E-02  0.1098431E+00
          1   -1    0    0  501    0  0.00000000000E+00  0.00000000000E+00  0.22739853922E+03  0.22739853922E+03  0.00000000000E+00 0. -1.
         -1   -1    0    0    0  501 -0.00000000000E+00 -0.00000000000E+00 -0.83164292349E+02  0.83164292349E+02  0.00000000000E+00 0. -1.
         35    2    1    2    0    0  0.00000000000E+00  0.00000000000E+00  0.14423424687E+03  0.31056283157E+03  0.27503773265E+03 0.  0.
         25    1    3    3    0    0  0.37545325511E+02 -0.38611875764E+02  0.26796814535E+02  0.13423337024E+03  0.12000000000E+03 0.  0.
         25    1    3    3    0    0 -0.37545325511E+02  0.38611875764E+02  0.11743743234E+03  0.17632946133E+03  0.12000000000E+03 0.  0.
<mgrwt>
<rscale>  0 0.27503773E+03</rscale>
<asrwt>0</asrwt>
<pdfrwt beam="1">  1        1 0.34984390E-01 0.27503773E+03</pdfrwt>
<pdfrwt beam="2">  1       -1 0.12794507E-01 0.27503773E+03</pdfrwt>
<totfact> 0.51213154E+03</totfact>
</mgrwt>
</event>
<event>
 5    1  0.1108889E+001  0.2742161E+03  0.7818608E-02  0.1098891E+00
          2   -1    0    0  501    0  0.00000000000E+00  0.00000000000E+00  0.30251141587E+02  0.30251141587E+02  0.00000000000E+00 0. -1.
         -2   -1    0    0    0  501 -0.00000000000E+00 -0.00000000000E+00 -0.62141861371E+03  0.62141861371E+03  0.00000000000E+00 0. -1.
         35    2    1    2    0    0  0.00000000000E+00  0.00000000000E+00 -0.59116747212E+03  0.65166975529E+03  0.27421613715E+03 0.  0.
         25    1    3    3    0    0  0.32352538197E+02 -0.34471713867E+02 -0.18504188703E+03  0.22555594814E+03  0.12000000000E+03 0.  0.
         25    1    3    3    0    0 -0.32352538197E+02  0.34471713867E+02 -0.40612558509E+03  0.42611380716E+03  0.12000000000E+03 0.  0.
<mgrwt>
<rscale>  0 0.27421614E+03</rscale>
<asrwt>0</asrwt>
<pdfrwt beam="1">  1        2 0.46540223E-02 0.27421614E+03</pdfrwt>
<pdfrwt beam="2">  1       -2 0.95602854E-01 0.27421614E+03</pdfrwt>
<totfact> 0.16447082E+03</totfact>
</mgrwt>
</event>
<event>
 5    1  0.1108889E+001  0.2748272E+03  0.7818608E-02  0.1098548E+00
         -1   -1    0    0    0  501 -0.00000000000E+00  0.00000000000E+00  0.50526182588E+02  0.50526182588E+02  0.00000000000E+00 0.  1.
          1   -1    0    0  501    0  0.00000000000E+00 -0.00000000000E+00 -0.37371700260E+03  0.37371700260E+03  0.00000000000E+00 0.  1.
         35    2    1    2    0    0  0.00000000000E+00  0.00000000000E+00 -0.32319082001E+03  0.42424318518E+03  0.27482717121E+03 0.  0.
         25    1    3    3    0    0  0.55647546035E+01 -0.38151260288E+02 -0.24608957473E+03  0.27648971762E+03  0.12000000000E+03 0.  0.
         25    1    3    3    0    0 -0.55647546035E+01  0.38151260288E+02 -0.77101245276E+02  0.14775346757E+03  0.12000000000E+03 0.  0.
<mgrwt>
<rscale>  0 0.27482717E+03</rscale>
<asrwt>0</asrwt>
<pdfrwt beam="1">  1        1 0.57494924E-01 0.27482717E+03</pdfrwt>
<pdfrwt beam="2">  1       -1 0.77732588E-02 0.27482717E+03</pdfrwt>
<totfact> 0.59170153E+03</totfact>
</mgrwt>
</event>
<event>
 5    1  0.1108889E+001  0.2750965E+03  0.7818608E-02  0.1098398E+00
          1   -1    0    0  501    0  0.00000000000E+00  0.00000000000E+00  0.97049822197E+02  0.97049822197E+02  0.00000000000E+00 0. -1.
         -1   -1    0    0    0  501 -0.00000000000E+00 -0.00000000000E+00 -0.19494640860E+03  0.19494640860E+03  0.00000000000E+00 0. -1.
         35    2    1    2    0    0  0.00000000000E+00  0.00000000000E+00 -0.97896586403E+02  0.29199623080E+03  0.27509645067E+03 0.  0.
         25    1    3    3    0    0  0.64086507586E+02  0.18554172166E+02 -0.57712441444E+02  0.14893644167E+03  0.12000000000E+03 0.  0.
         25    1    3    3    0    0 -0.64086507586E+02 -0.18554172166E+02 -0.40184144959E+02  0.14305978913E+03  0.12000000000E+03 0.  0.
<mgrwt>
<rscale>  0 0.27509645E+03</rscale>
<asrwt>0</asrwt>
<pdfrwt beam="1">  1        1 0.14930742E-01 0.27509645E+03</pdfrwt>
<pdfrwt beam="2">  1       -1 0.29991755E-01 0.27509645E+03</pdfrwt>
<totfact> 0.38118790E+03</totfact>
</mgrwt>
</event>
<event>
 5    1  0.1108889E+001  0.2824633E+03  0.7818608E-02  0.1094351E+00
          2   -1    0    0  501    0  0.00000000000E+00  0.00000000000E+00  0.16818221319E+04  0.16818221319E+04  0.00000000000E+00 0. -1.
         -2   -1    0    0    0  501 -0.00000000000E+00 -0.00000000000E+00 -0.11859982185E+02  0.11859982185E+02  0.00000000000E+00 0. -1.
         35    2    1    2    0    0  0.00000000000E+00  0.00000000000E+00  0.16699621498E+04  0.16936821141E+04  0.28246331106E+03 0.  0.
         25    1    3    3    0    0 -0.19360729612E+02 -0.71851781206E+02  0.81712895230E+03  0.82923895289E+03  0.12000000000E+03 0.  0.
         25    1    3    3    0    0  0.19360729612E+02  0.71851781206E+02  0.85283319746E+03  0.86444316123E+03  0.12000000000E+03 0.  0.
<mgrwt>
<rscale>  0 0.28246331E+03</rscale>
<asrwt>0</asrwt>
<pdfrwt beam="1">  1        2 0.25874168E+00 0.28246331E+03</pdfrwt>
<pdfrwt beam="2">  1       -2 0.18246140E-02 0.28246331E+03</pdfrwt>
<totfact> 0.96706463E+03</totfact>
</mgrwt>
</event>
<event>
 5    1  0.1108889E+001  0.2751654E+03  0.7818608E-02  0.1098359E+00
         -2   -1    0    0    0  501 -0.00000000000E+00  0.00000000000E+00  0.29197122582E+02  0.29197122582E+02  0.00000000000E+00 0.  1.
          2   -1    0    0  501    0  0.00000000000E+00 -0.00000000000E+00 -0.64831708795E+03  0.64831708795E+03  0.00000000000E+00 0.  1.
         35    2    1    2    0    0  0.00000000000E+00  0.00000000000E+00 -0.61911996537E+03  0.67751421053E+03  0.27516535748E+03 0.  0.
         25    1    3    3    0    0 -0.70555999756E+00  0.58544820115E+02 -0.22786069787E+03  0.26409939684E+03  0.12000000000E+03 0.  0.
         25    1    3    3    0    0  0.70555999756E+00 -0.58544820115E+02 -0.39125926750E+03  0.41341481369E+03  0.12000000000E+03 0.  0.
<mgrwt>
<rscale>  0 0.27516536E+03</rscale>
<asrwt>0</asrwt>
<pdfrwt beam="1">  1        2 0.99741096E-01 0.27516536E+03</pdfrwt>
<pdfrwt beam="2">  1       -2 0.44918648E-02 0.27516536E+03</pdfrwt>
<totfact> 0.10564824E+04</totfact>
</mgrwt>
</event>
<event>
 5    1  0.1108889E+001  0.2743804E+03  0.7818608E-02  0.1098798E+00
          2   -1    0    0  501    0  0.00000000000E+00  0.00000000000E+00  0.87259916652E+03  0.87259916652E+03  0.00000000000E+00 0.  1.
         -2   -1    0    0    0  501 -0.00000000000E+00 -0.00000000000E+00 -0.21569073546E+02  0.21569073546E+02  0.00000000000E+00 0.  1.
         35    2    1    2    0    0  0.00000000000E+00  0.00000000000E+00  0.85103009297E+03  0.89416824006E+03  0.27438043370E+03 0.  0.
         25    1    3    3    0    0 -0.61802212644E+02 -0.23584571308E+02  0.44747555368E+03  0.46798516711E+03  0.12000000000E+03 0.  0.
         25    1    3    3    0    0  0.61802212644E+02  0.23584571308E+02  0.40355453929E+03  0.42618307295E+03  0.12000000000E+03 0.  0.
<mgrwt>
<rscale>  0 0.27438043E+03</rscale>
<asrwt>0</asrwt>
<pdfrwt beam="1">  1        2 0.13424600E+00 0.27438043E+03</pdfrwt>
<pdfrwt beam="2">  1       -2 0.33183197E-02 0.27438043E+03</pdfrwt>
<totfact> 0.11495351E+04</totfact>
</mgrwt>
</event>
<event>
 5    1  0.1108889E+001  0.2746453E+03  0.7818608E-02  0.1098650E+00
         -1   -1    0    0    0  501 -0.00000000000E+00  0.00000000000E+00  0.55517923790E+03  0.55517923790E+03  0.00000000000E+00 0.  1.
          1   -1    0    0  501    0  0.00000000000E+00 -0.00000000000E+00 -0.33966529753E+02  0.33966529753E+02  0.00000000000E+00 0.  1.
         35    2    1    2    0    0  0.00000000000E+00  0.00000000000E+00  0.52121270815E+03  0.58914576766E+03  0.27464531383E+03 0.  0.
         25    1    3    3    0    0  0.34526982898E+02  0.55455101362E+02  0.29018493697E+03  0.32074082755E+03  0.12000000000E+03 0.  0.
         25    1    3    3    0    0 -0.34526982898E+02 -0.55455101362E+02  0.23102777118E+03  0.26840494010E+03  0.12000000000E+03 0.  0.
<mgrwt>
<rscale>  0 0.27464531E+03</rscale>
<asrwt>0</asrwt>
<pdfrwt beam="1">  1        1 0.52256204E-02 0.27464531E+03</pdfrwt>
<pdfrwt beam="2">  1       -1 0.85412184E-01 0.27464531E+03</pdfrwt>
<totfact> 0.22211289E+03</totfact>
</mgrwt>
</event>
<event>
 5    1  0.1108889E+001  0.2761324E+03  0.7818608E-02  0.1097820E+00
         -2   -1    0    0    0  501 -0.00000000000E+00  0.00000000000E+00  0.63100496514E+03  0.63100496514E+03  0.00000000000E+00 0. -1.
          2   -1    0    0  501    0  0.00000000000E+00 -0.00000000000E+00 -0.30209385205E+02  0.30209385205E+02  0.00000000000E+00 0. -1.
         35    2    1    2    0    0  0.00000000000E+00  0.00000000000E+00  0.60079557993E+03  0.66121435034E+03  0.27613237448E+03 0.  0.
         25    1    3    3    0    0  0.37876926596E+02  0.51729475180E+02  0.35664038746E+03  0.38171057902E+03  0.12000000000E+03 0.  0.
         25    1    3    3    0    0 -0.37876926596E+02 -0.51729475180E+02  0.24415519247E+03  0.27950377132E+03  0.12000000000E+03 0.  0.
<mgrwt>
<rscale>  0 0.27613237E+03</rscale>
<asrwt>0</asrwt>
<pdfrwt beam="1">  1        2 0.46475982E-02 0.27613237E+03</pdfrwt>
<pdfrwt beam="2">  1       -2 0.97077677E-01 0.27613237E+03</pdfrwt>
<totfact> 0.15910215E+03</totfact>
</mgrwt>
</event>
<event>
 5    1  0.1108889E+001  0.2750555E+03  0.7818608E-02  0.1098421E+00
          1   -1    0    0  501    0  0.00000000000E+00  0.00000000000E+00  0.20996038116E+03  0.20996038116E+03  0.00000000000E+00 0. -1.
         -1   -1    0    0    0  501 -0.00000000000E+00 -0.00000000000E+00 -0.90083067808E+02  0.90083067808E+02  0.00000000000E+00 0. -1.
         35    2    1    2    0    0  0.00000000000E+00  0.00000000000E+00  0.11987731335E+03  0.30004344897E+03  0.27505545080E+03 0.  0.
         25    1    3    3    0    0 -0.94622972248E+01 -0.66326925868E+02  0.65401512937E+02  0.15220431682E+03  0.12000000000E+03 0.  0.
         25    1    3    3    0    0  0.94622972248E+01  0.66326925868E+02  0.54475800415E+02  0.14783913215E+03  0.12000000000E+03 0.  0.
<mgrwt>
<rscale>  0 0.27505545E+03</rscale>
<asrwt>0</asrwt>
<pdfrwt beam="1">  1        1 0.32301597E-01 0.27505545E+03</pdfrwt>
<pdfrwt beam="2">  1       -1 0.13858934E-01 0.27505545E+03</pdfrwt>
<totfact> 0.49930086E+03</totfact>
</mgrwt>
</event>
<event>
 5    1  0.1108889E+001  0.2750153E+03  0.7818608E-02  0.1098443E+00
         -2   -1    0    0    0  501 -0.00000000000E+00  0.00000000000E+00  0.46380381233E+02  0.46380381233E+02  0.00000000000E+00 0. -1.
          2   -1    0    0  501    0  0.00000000000E+00 -0.00000000000E+00 -0.40767993816E+03  0.40767993816E+03  0.00000000000E+00 0. -1.
         35    2    1    2    0    0  0.00000000000E+00  0.00000000000E+00 -0.36129955693E+03  0.45406031939E+03  0.27501527923E+03 0.  0.
         25    1    3    3    0    0 -0.17048841048E+02  0.47764839657E+02 -0.25329929687E+03  0.28483798322E+03  0.12000000000E+03 0.  0.
         25    1    3    3    0    0  0.17048841048E+02 -0.47764839657E+02 -0.10800026006E+03  0.16922233618E+03  0.12000000000E+03 0.  0.
<mgrwt>
<rscale>  0 0.27501528E+03</rscale>
<asrwt>0</asrwt>
<pdfrwt beam="1">  1        2 0.62719989E-01 0.27501528E+03</pdfrwt>
<pdfrwt beam="2">  1       -2 0.71354434E-02 0.27501528E+03</pdfrwt>
<totfact> 0.87837491E+03</totfact>
</mgrwt>
</event>
<event>
 5    1  0.1108889E+001  0.2752770E+03  0.7818608E-02  0.1098297E+00
          1   -1    0    0  501    0  0.00000000000E+00  0.00000000000E+00  0.21840999800E+04  0.21840999800E+04  0.00000000000E+00 0. -1.
         -1   -1    0    0    0  501 -0.00000000000E+00 -0.00000000000E+00 -0.86737574692E+01  0.86737574692E+01  0.00000000000E+00 0. -1.
         35    2    1    2    0    0  0.00000000000E+00  0.00000000000E+00  0.21754262225E+04  0.21927737375E+04  0.27527697699E+03 0.  0.
         25    1    3    3    0    0 -0.50213039576E+02  0.42740370198E+02  0.11993082507E+04  0.12070991545E+04  0.12000000000E+03 0.  0.
         25    1    3    3    0    0  0.50213039576E+02 -0.42740370198E+02  0.97611797180E+03  0.98567458295E+03  0.12000000000E+03 0.  0.
<mgrwt>
<rscale>  0 0.27527698E+03</rscale>
<asrwt>0</asrwt>
<pdfrwt beam="1">  1        1 0.33601494E+00 0.27527698E+03</pdfrwt>
<pdfrwt beam="2">  1       -1 0.13344260E-02 0.27527698E+03</pdfrwt>
<totfact> 0.31680544E+03</totfact>
</mgrwt>
</event>
<event>
 5    1  0.1108889E+001  0.2757817E+03  0.7818608E-02  0.1098015E+00
         -4   -1    0    0    0  501 -0.00000000000E+00  0.00000000000E+00  0.25858533752E+04  0.25858533752E+04  0.00000000000E+00 0. -1.
          4   -1    0    0  501    0  0.00000000000E+00 -0.00000000000E+00 -0.73530405955E+01  0.73530405955E+01  0.00000000000E+00 0. -1.
         35    2    1    2    0    0  0.00000000000E+00  0.00000000000E+00  0.25785003346E+04  0.25932064158E+04  0.27578168787E+03 0.  0.
         25    1    3    3    0    0  0.37764897302E+01  0.50978290235E+02  0.17098581446E+04  0.17148259161E+04  0.12000000000E+03 0.  0.
         25    1    3    3    0    0 -0.37764897302E+01 -0.50978290235E+02  0.86864219001E+03  0.87838049968E+03  0.12000000000E+03 0.  0.
<mgrwt>
<rscale>  0 0.27578169E+03</rscale>
<asrwt>0</asrwt>
<pdfrwt beam="1">  1        4 0.11312391E-02 0.27578169E+03</pdfrwt>
<pdfrwt beam="2">  1       -4 0.39782287E+00 0.27578169E+03</pdfrwt>
<totfact> 0.40475416E+01</totfact>
</mgrwt>
</event>
<event>
 5    1  0.1108889E+001  0.2765789E+03  0.7818608E-02  0.1097572E+00
         -2   -1    0    0    0  501 -0.00000000000E+00  0.00000000000E+00  0.19151278096E+02  0.19151278096E+02  0.00000000000E+00 0.  1.
          2   -1    0    0  501    0  0.00000000000E+00 -0.00000000000E+00 -0.99857393430E+03  0.99857393430E+03  0.00000000000E+00 0.  1.
         35    2    1    2    0    0  0.00000000000E+00  0.00000000000E+00 -0.97942265620E+03  0.10177252124E+04  0.27657886482E+03 0.  0.
         25    1    3    3    0    0  0.26388576019E+02 -0.49233732645E+02 -0.63706681203E+03  0.65067229875E+03  0.12000000000E+03 0.  0.
         25    1    3    3    0    0 -0.26388576019E+02  0.49233732645E+02 -0.34235584418E+03  0.36705291365E+03  0.12000000000E+03 0.  0.
<mgrwt>
<rscale>  0 0.27657886E+03</rscale>
<asrwt>0</asrwt>
<pdfrwt beam="1">  1        2 0.15362679E+00 0.27657886E+03</pdfrwt>
<pdfrwt beam="2">  1       -2 0.29463499E-02 0.27657886E+03</pdfrwt>
<totfact> 0.11422604E+04</totfact>
</mgrwt>
</event>
<event>
 5    1  0.1108889E+001  0.2744867E+03  0.7818608E-02  0.1098739E+00
          1   -1    0    0  501    0  0.00000000000E+00  0.00000000000E+00  0.11995365312E+04  0.11995365312E+04  0.00000000000E+00 0.  1.
         -1   -1    0    0    0  501 -0.00000000000E+00 -0.00000000000E+00 -0.15702514861E+02  0.15702514861E+02  0.00000000000E+00 0.  1.
         35    2    1    2    0    0  0.00000000000E+00  0.00000000000E+00  0.11838340164E+04  0.12152390461E+04  0.27448672251E+03 0.  0.
         25    1    3    3    0    0 -0.28075785846E+02 -0.23226853403E+02  0.83873745821E+03  0.84806147199E+03  0.12000000000E+03 0.  0.
         25    1    3    3    0    0  0.28075785846E+02  0.23226853403E+02  0.34509655816E+03  0.36717757410E+03  0.12000000000E+03 0.  0.
<mgrwt>
<rscale>  0 0.27448672E+03</rscale>
<asrwt>0</asrwt>
<pdfrwt beam="1">  1        1 0.18454401E+00 0.27448672E+03</pdfrwt>
<pdfrwt beam="2">  1       -1 0.24157725E-02 0.27448672E+03</pdfrwt>
<totfact> 0.59508370E+03</totfact>
</mgrwt>
</event>
<event>
 5    1  0.1108889E+001  0.2743918E+03  0.7818608E-02  0.1098792E+00
          1   -1    0    0  501    0  0.00000000000E+00  0.00000000000E+00  0.61267624997E+03  0.61267624997E+03  0.00000000000E+00 0. -1.
         -1   -1    0    0    0  501 -0.00000000000E+00 -0.00000000000E+00 -0.30722113814E+02  0.30722113814E+02  0.00000000000E+00 0. -1.
         35    2    1    2    0    0  0.00000000000E+00  0.00000000000E+00  0.58195413616E+03  0.64339836379E+03  0.27439175995E+03 0.  0.
         25    1    3    3    0    0 -0.62721477377E+02  0.15915191707E+02  0.32695548339E+03  0.35424167622E+03  0.12000000000E+03 0.  0.
         25    1    3    3    0    0  0.62721477377E+02 -0.15915191707E+02  0.25499865277E+03  0.28915668757E+03  0.12000000000E+03 0.  0.
<mgrwt>
<rscale>  0 0.27439176E+03</rscale>
<asrwt>0</asrwt>
<pdfrwt beam="1">  1        1 0.94257875E-01 0.27439176E+03</pdfrwt>
<pdfrwt beam="2">  1       -1 0.47264795E-02 0.27439176E+03</pdfrwt>
<totfact> 0.65174855E+03</totfact>
</mgrwt>
</event>
<event>
 5    1  0.1108889E+001  0.2752757E+03  0.7818608E-02  0.1098298E+00
          2   -1    0    0  501    0  0.00000000000E+00  0.00000000000E+00  0.15640553726E+03  0.15640553726E+03  0.00000000000E+00 0.  1.
         -2   -1    0    0    0  501 -0.00000000000E+00 -0.00000000000E+00 -0.12112216303E+03  0.12112216303E+03  0.00000000000E+00 0.  1.
         35    2    1    2    0    0  0.00000000000E+00  0.00000000000E+00  0.35283374231E+02  0.27752770029E+03  0.27527569441E+03 0.  0.
         25    1    3    3    0    0  0.49693371159E+02  0.11317543647E+02  0.62123596064E+02  0.14441904002E+03  0.12000000000E+03 0.  0.
         25    1    3    3    0    0 -0.49693371159E+02 -0.11317543647E+02 -0.26840221834E+02  0.13310866027E+03  0.12000000000E+03 0.  0.
<mgrwt>
<rscale>  0 0.27527569E+03</rscale>
<asrwt>0</asrwt>
<pdfrwt beam="1">  1        2 0.24062390E-01 0.27527569E+03</pdfrwt>
<pdfrwt beam="2">  1       -2 0.18634179E-01 0.27527569E+03</pdfrwt>
<totfact> 0.52946407E+03</totfact>
</mgrwt>
</event>
<event>
 5    1  0.1108889E+001  0.2753301E+03  0.7818608E-02  0.1098267E+00
          1   -1    0    0  501    0  0.00000000000E+00  0.00000000000E+00  0.91184845898E+03  0.91184845898E+03  0.00000000000E+00 0.  1.
         -1   -1    0    0    0  501 -0.00000000000E+00 -0.00000000000E+00 -0.20783791777E+02  0.20783791777E+02  0.00000000000E+00 0.  1.
         35    2    1    2    0    0  0.00000000000E+00  0.00000000000E+00  0.89106466721E+03  0.93263225076E+03  0.27533011825E+03 0.  0.
         25    1    3    3    0    0 -0.39448276438E+02 -0.54685621740E+02  0.45309507142E+03  0.47354179064E+03  0.12000000000E+03 0.  0.
         25    1    3    3    0    0  0.39448276438E+02  0.54685621740E+02  0.43796959579E+03  0.45909046012E+03  0.12000000000E+03 0.  0.
<mgrwt>
<rscale>  0 0.27533012E+03</rscale>
<asrwt>0</asrwt>
<pdfrwt beam="1">  1        1 0.14028435E+00 0.27533012E+03</pdfrwt>
<pdfrwt beam="2">  1       -1 0.31975071E-02 0.27533012E+03</pdfrwt>
<totfact> 0.64074924E+03</totfact>
</mgrwt>
</event>
<event>
 5    1  0.1108889E+001  0.2749583E+03  0.7818608E-02  0.1098475E+00
         -2   -1    0    0    0  501 -0.00000000000E+00  0.00000000000E+00  0.93539312254E+02  0.93539312254E+02  0.00000000000E+00 0. -1.
          2   -1    0    0  501    0  0.00000000000E+00 -0.00000000000E+00 -0.20205960450E+03  0.20205960450E+03  0.00000000000E+00 0. -1.
         35    2    1    2    0    0  0.00000000000E+00  0.00000000000E+00 -0.10852029225E+03  0.29559891676E+03  0.27495829822E+03 0.  0.
         25    1    3    3    0    0 -0.37719092415E+02  0.46396640520E+02 -0.86959511720E+02  0.15980405146E+03  0.12000000000E+03 0.  0.
         25    1    3    3    0    0  0.37719092415E+02 -0.46396640520E+02 -0.21560780529E+02  0.13579486530E+03  0.12000000000E+03 0.  0.
<mgrwt>
<rscale>  0 0.27495830E+03</rscale>
<asrwt>0</asrwt>
<pdfrwt beam="1">  1        2 0.31086093E-01 0.27495830E+03</pdfrwt>
<pdfrwt beam="2">  1       -2 0.14390664E-01 0.27495830E+03</pdfrwt>
<totfact> 0.61365317E+03</totfact>
</mgrwt>
</event>
<event>
 5    1  0.1108889E+001  0.2743024E+03  0.7818608E-02  0.1098842E+00
         -1   -1    0    0    0  501 -0.00000000000E+00  0.00000000000E+00  0.45980781919E+02  0.45980781919E+02  0.00000000000E+00 0.  1.
          1   -1    0    0  501    0  0.00000000000E+00 -0.00000000000E+00 -0.40909367202E+03  0.40909367202E+03  0.00000000000E+00 0.  1.
         35    2    1    2    0    0  0.00000000000E+00  0.00000000000E+00 -0.36311289010E+03  0.45507445394E+03  0.27430236541E+03 0.  0.
         25    1    3    3    0    0  0.63867306188E+02  0.15977600933E+02 -0.16708100017E+03  0.21598698375E+03  0.12000000000E+03 0.  0.
         25    1    3    3    0    0 -0.63867306188E+02 -0.15977600933E+02 -0.19603188993E+03  0.23908747019E+03  0.12000000000E+03 0.  0.
<mgrwt>
<rscale>  0 0.27430237E+03</rscale>
<asrwt>0</asrwt>
<pdfrwt beam="1">  1        1 0.62937486E-01 0.27430237E+03</pdfrwt>
<pdfrwt beam="2">  1       -1 0.70739667E-02 0.27430237E+03</pdfrwt>
<totfact> 0.60830580E+03</totfact>
</mgrwt>
</event>
<event>
 5    1  0.1108889E+001  0.2749447E+03  0.7818608E-02  0.1098483E+00
          2   -1    0    0  501    0  0.00000000000E+00  0.00000000000E+00  0.13135788241E+04  0.13135788241E+04  0.00000000000E+00 0. -1.
         -2   -1    0    0    0  501 -0.00000000000E+00 -0.00000000000E+00 -0.14387143154E+02  0.14387143154E+02  0.00000000000E+00 0. -1.
         35    2    1    2    0    0  0.00000000000E+00  0.00000000000E+00  0.12991916809E+04  0.13279659672E+04  0.27494469688E+03 0.  0.
         25    1    3    3    0    0  0.37128824566E+02  0.53050570904E+02  0.56514316834E+03  0.58136022688E+03  0.12000000000E+03 0.  0.
         25    1    3    3    0    0 -0.37128824566E+02 -0.53050570904E+02  0.73404851257E+03  0.74660574033E+03  0.12000000000E+03 0.  0.
<mgrwt>
<rscale>  0 0.27494470E+03</rscale>
<asrwt>0</asrwt>
<pdfrwt beam="1">  1        2 0.20208896E+00 0.27494470E+03</pdfrwt>
<pdfrwt beam="2">  1       -2 0.22134077E-02 0.27494470E+03</pdfrwt>
<totfact> 0.11468865E+04</totfact>
</mgrwt>
</event>
<event>
 5    1  0.1108889E+001  0.2733929E+03  0.7818608E-02  0.1099353E+00
          1   -1    0    0  501    0  0.00000000000E+00  0.00000000000E+00  0.12660105214E+04  0.12660105214E+04  0.00000000000E+00 0.  1.
         -1   -1    0    0    0  501 -0.00000000000E+00 -0.00000000000E+00 -0.14759684613E+02  0.14759684613E+02  0.00000000000E+00 0.  1.
         35    2    1    2    0    0  0.00000000000E+00  0.00000000000E+00  0.12512508368E+04  0.12807702060E+04  0.27339287491E+03 0.  0.
         25    1    3    3    0    0  0.10894343633E+02 -0.57315961918E+02  0.48648754937E+03  0.50445410288E+03  0.12000000000E+03 0.  0.
         25    1    3    3    0    0 -0.10894343633E+02  0.57315961918E+02  0.76476328742E+03  0.77631610314E+03  0.12000000000E+03 0.  0.
<mgrwt>
<rscale>  0 0.27339287E+03</rscale>
<asrwt>0</asrwt>
<pdfrwt beam="1">  1        1 0.19477076E+00 0.27339287E+03</pdfrwt>
<pdfrwt beam="2">  1       -1 0.22707217E-02 0.27339287E+03</pdfrwt>
<totfact> 0.58595945E+03</totfact>
</mgrwt>
</event>
<event>
 5    1  0.1108889E+001  0.2745354E+03  0.7818608E-02  0.1098712E+00
         -2   -1    0    0    0  501 -0.00000000000E+00  0.00000000000E+00  0.78454561856E+02  0.78454561856E+02  0.00000000000E+00 0. -1.
          2   -1    0    0  501    0  0.00000000000E+00 -0.00000000000E+00 -0.24016978718E+03  0.24016978718E+03  0.00000000000E+00 0. -1.
         35    2    1    2    0    0  0.00000000000E+00  0.00000000000E+00 -0.16171522532E+03  0.31862434903E+03  0.27453535600E+03 0.  0.
         25    1    3    3    0    0 -0.47009037587E+02 -0.23670947429E+02 -0.12831802943E+03  0.18340032728E+03  0.12000000000E+03 0.  0.
         25    1    3    3    0    0  0.47009037587E+02  0.23670947429E+02 -0.33397195886E+02  0.13522402176E+03  0.12000000000E+03 0.  0.
<mgrwt>
<rscale>  0 0.27453536E+03</rscale>
<asrwt>0</asrwt>
<pdfrwt beam="1">  1        2 0.36949198E-01 0.27453536E+03</pdfrwt>
<pdfrwt beam="2">  1       -2 0.12069933E-01 0.27453536E+03</pdfrwt>
<totfact> 0.67722349E+03</totfact>
</mgrwt>
</event>
<event>
 5    1  0.1108889E+001  0.2749681E+03  0.7818608E-02  0.1098469E+00
         -2   -1    0    0    0  501 -0.00000000000E+00  0.00000000000E+00  0.41402556215E+02  0.41402556215E+02  0.00000000000E+00 0. -1.
          2   -1    0    0  501    0  0.00000000000E+00 -0.00000000000E+00 -0.45653858375E+03  0.45653858375E+03  0.00000000000E+00 0. -1.
         35    2    1    2    0    0  0.00000000000E+00  0.00000000000E+00 -0.41513602753E+03  0.49794113996E+03  0.27496810272E+03 0.  0.
         25    1    3    3    0    0  0.33373271685E+02 -0.86064371057E+01 -0.10331871390E+03  0.16205740546E+03  0.12000000000E+03 0.  0.
         25    1    3    3    0    0 -0.33373271685E+02  0.86064371057E+01 -0.31181731363E+03  0.33588373450E+03  0.12000000000E+03 0.  0.
<mgrwt>
<rscale>  0 0.27496810E+03</rscale>
<asrwt>0</asrwt>
<pdfrwt beam="1">  1        2 0.70236702E-01 0.27496810E+03</pdfrwt>
<pdfrwt beam="2">  1       -2 0.63696244E-02 0.27496810E+03</pdfrwt>
<totfact> 0.92469697E+03</totfact>
</mgrwt>
</event>
<event>
 5    1  0.1108889E+001  0.2749201E+03  0.7818608E-02  0.1098496E+00
          3   -1    0    0  501    0  0.00000000000E+00  0.00000000000E+00  0.16162024308E+02  0.16162024308E+02  0.00000000000E+00 0.  1.
         -3   -1    0    0    0  501 -0.00000000000E+00 -0.00000000000E+00 -0.11691146885E+04  0.11691146885E+04  0.00000000000E+00 0.  1.
         35    2    1    2    0    0  0.00000000000E+00  0.00000000000E+00 -0.11529526642E+04  0.11852767128E+04  0.27492006121E+03 0.  0.
         25    1    3    3    0    0  0.31092931845E+02 -0.55815594876E+02 -0.48884778044E+03  0.50739955014E+03  0.12000000000E+03 0.  0.
         25    1    3    3    0    0 -0.31092931845E+02  0.55815594876E+02 -0.66410488374E+03  0.67787716265E+03  0.12000000000E+03 0.  0.
<mgrwt>
<rscale>  0 0.27492006E+03</rscale>
<asrwt>0</asrwt>
<pdfrwt beam="1">  1        3 0.24864639E-02 0.27492006E+03</pdfrwt>
<pdfrwt beam="2">  1       -3 0.17986390E+00 0.27492006E+03</pdfrwt>
<totfact> 0.36829756E+02</totfact>
</mgrwt>
</event>
<event>
 5    1  0.1108889E+001  0.2753175E+03  0.7818608E-02  0.1098274E+00
         -2   -1    0    0    0  501 -0.00000000000E+00  0.00000000000E+00  0.23893939278E+02  0.23893939278E+02  0.00000000000E+00 0. -1.
          2   -1    0    0  501    0  0.00000000000E+00 -0.00000000000E+00 -0.79308516712E+03  0.79308516712E+03  0.00000000000E+00 0. -1.
         35    2    1    2    0    0  0.00000000000E+00  0.00000000000E+00 -0.76919122784E+03  0.81697910640E+03  0.27531748092E+03 0.  0.
         25    1    3    3    0    0 -0.40935717182E+02 -0.44431173169E+02 -0.29557009407E+03  0.32467143792E+03  0.12000000000E+03 0.  0.
         25    1    3    3    0    0  0.40935717182E+02  0.44431173169E+02 -0.47362113378E+03  0.49230766849E+03  0.12000000000E+03 0.  0.
<mgrwt>
<rscale>  0 0.27531748E+03</rscale>
<asrwt>0</asrwt>
<pdfrwt beam="1">  1        2 0.12201308E+00 0.27531748E+03</pdfrwt>
<pdfrwt beam="2">  1       -2 0.36759913E-02 0.27531748E+03</pdfrwt>
<totfact> 0.11161766E+04</totfact>
</mgrwt>
</event>
<event>
 5    1  0.1108889E+001  0.2759671E+03  0.7818608E-02  0.1097912E+00
          2   -1    0    0  501    0  0.00000000000E+00  0.00000000000E+00  0.18782832954E+02  0.18782832954E+02  0.00000000000E+00 0.  1.
         -2   -1    0    0    0  501 -0.00000000000E+00 -0.00000000000E+00 -0.10136626165E+04  0.10136626165E+04  0.00000000000E+00 0.  1.
         35    2    1    2    0    0  0.00000000000E+00  0.00000000000E+00 -0.99487978355E+03  0.10324454495E+04  0.27596706758E+03 0.  0.
         25    1    3    3    0    0 -0.26769944920E+02  0.53112047784E+02 -0.37324948585E+03  0.39655100335E+03  0.12000000000E+03 0.  0.
         25    1    3    3    0    0  0.26769944920E+02 -0.53112047784E+02 -0.62163029770E+03  0.63589444611E+03  0.12000000000E+03 0.  0.
<mgrwt>
<rscale>  0 0.27596707E+03</rscale>
<asrwt>0</asrwt>
<pdfrwt beam="1">  1        2 0.28896661E-02 0.27596707E+03</pdfrwt>
<pdfrwt beam="2">  1       -2 0.15594812E+00 0.27596707E+03</pdfrwt>
<totfact> 0.94526985E+02</totfact>
</mgrwt>
</event>
<event>
 5    1  0.1108889E+001  0.2745326E+03  0.7818608E-02  0.1098713E+00
         -1   -1    0    0    0  501 -0.00000000000E+00  0.00000000000E+00  0.86794075444E+01  0.86794075444E+01  0.00000000000E+00 0.  1.
          1   -1    0    0  501    0  0.00000000000E+00 -0.00000000000E+00 -0.21708895288E+04  0.21708895288E+04  0.00000000000E+00 0.  1.
         35    2    1    2    0    0  0.00000000000E+00  0.00000000000E+00 -0.21622101212E+04  0.21795689363E+04  0.27453258425E+03 0.  0.
         25    1    3    3    0    0 -0.53415369255E+02 -0.39081480707E+02 -0.11433511927E+04  0.11515348513E+04  0.12000000000E+03 0.  0.
         25    1    3    3    0    0  0.53415369255E+02  0.39081480707E+02 -0.10188589285E+04  0.10280340850E+04  0.12000000000E+03 0.  0.
<mgrwt>
<rscale>  0 0.27453258E+03</rscale>
<asrwt>0</asrwt>
<pdfrwt beam="1">  1        1 0.33398317E+00 0.27453258E+03</pdfrwt>
<pdfrwt beam="2">  1       -1 0.13352928E-02 0.27453258E+03</pdfrwt>
<totfact> 0.32285670E+03</totfact>
</mgrwt>
</event>
<event>
 5    1  0.1108889E+001  0.2770143E+03  0.7818608E-02  0.1097331E+00
          1   -1    0    0  501    0  0.00000000000E+00  0.00000000000E+00  0.48238228167E+03  0.48238228167E+03  0.00000000000E+00 0.  1.
         -1   -1    0    0    0  501 -0.00000000000E+00 -0.00000000000E+00 -0.39769775908E+02  0.39769775908E+02  0.00000000000E+00 0.  1.
         35    2    1    2    0    0  0.00000000000E+00  0.00000000000E+00  0.44261250576E+03  0.52215205758E+03  0.27701433352E+03 0.  0.
         25    1    3    3    0    0 -0.27648797453E+02 -0.55657986700E+02  0.27854005790E+03  0.30959139416E+03  0.12000000000E+03 0.  0.
         25    1    3    3    0    0  0.27648797453E+02  0.55657986700E+02  0.16407244786E+03  0.21256066342E+03  0.12000000000E+03 0.  0.
<mgrwt>
<rscale>  0 0.27701433E+03</rscale>
<asrwt>0</asrwt>
<pdfrwt beam="1">  1        1 0.74212655E-01 0.27701433E+03</pdfrwt>
<pdfrwt beam="2">  1       -1 0.61184274E-02 0.27701433E+03</pdfrwt>
<totfact> 0.61168279E+03</totfact>
</mgrwt>
</event>
<event>
 5    1  0.1108889E+001  0.2749383E+03  0.7818608E-02  0.1098486E+00
          1   -1    0    0  501    0  0.00000000000E+00  0.00000000000E+00  0.20366590075E+03  0.20366590075E+03  0.00000000000E+00 0. -1.
         -1   -1    0    0    0  501 -0.00000000000E+00 -0.00000000000E+00 -0.92788102829E+02  0.92788102829E+02  0.00000000000E+00 0. -1.
         35    2    1    2    0    0  0.00000000000E+00  0.00000000000E+00  0.11087779792E+03  0.29645400358E+03  0.27493833884E+03 0.  0.
         25    1    3    3    0    0 -0.19624670931E+02  0.63808019683E+02  0.48519428411E+02  0.14563902643E+03  0.12000000000E+03 0.  0.
         25    1    3    3    0    0  0.19624670931E+02 -0.63808019683E+02  0.62358369507E+02  0.15081497715E+03  0.12000000000E+03 0.  0.
<mgrwt>
<rscale>  0 0.27493834E+03</rscale>
<asrwt>0</asrwt>
<pdfrwt beam="1">  1        1 0.31333216E-01 0.27493834E+03</pdfrwt>
<pdfrwt beam="2">  1       -1 0.14275093E-01 0.27493834E+03</pdfrwt>
<totfact> 0.49512226E+03</totfact>
</mgrwt>
</event>
<event>
 5    1  0.1108889E+001  0.2753562E+03  0.7818608E-02  0.1098253E+00
         -2   -1    0    0    0  501 -0.00000000000E+00  0.00000000000E+00  0.19832411644E+03  0.19832411644E+03  0.00000000000E+00 0.  1.
          2   -1    0    0  501    0  0.00000000000E+00 -0.00000000000E+00 -0.95577187708E+02  0.95577187708E+02  0.00000000000E+00 0.  1.
         35    2    1    2    0    0  0.00000000000E+00  0.00000000000E+00  0.10274692873E+03  0.29390130415E+03  0.27535621514E+03 0.  0.
         25    1    3    3    0    0  0.57322934706E+02  0.17917184898E+02  0.18504699445E+02  0.13545984002E+03  0.12000000000E+03 0.  0.
         25    1    3    3    0    0 -0.57322934706E+02 -0.17917184898E+02  0.84242229284E+02  0.15844146412E+03  0.12000000000E+03 0.  0.
<mgrwt>
<rscale>  0 0.27535622E+03</rscale>
<asrwt>0</asrwt>
<pdfrwt beam="1">  1        2 0.14704183E-01 0.27535622E+03</pdfrwt>
<pdfrwt beam="2">  1       -2 0.30511403E-01 0.27535622E+03</pdfrwt>
<totfact> 0.39355801E+03</totfact>
</mgrwt>
</event>
<event>
 5    1  0.1108889E+001  0.2750386E+03  0.7818608E-02  0.1098430E+00
          2   -1    0    0  501    0  0.00000000000E+00  0.00000000000E+00  0.22105148125E+04  0.22105148125E+04  0.00000000000E+00 0. -1.
         -2   -1    0    0    0  501 -0.00000000000E+00 -0.00000000000E+00 -0.85552733325E+01  0.85552733325E+01  0.00000000000E+00 0. -1.
         35    2    1    2    0    0  0.00000000000E+00  0.00000000000E+00  0.22019595391E+04  0.22190700858E+04  0.27503860403E+03 0.  0.
         25    1    3    3    0    0 -0.68668455585E+01 -0.29559886718E+02  0.61751819400E+03  0.62980128643E+03  0.12000000000E+03 0.  0.
         25    1    3    3    0    0  0.68668455585E+01  0.29559886718E+02  0.15844413451E+04  0.15892687994E+04  0.12000000000E+03 0.  0.
<mgrwt>
<rscale>  0 0.27503860E+03</rscale>
<asrwt>0</asrwt>
<pdfrwt beam="1">  1        2 0.34007875E+00 0.27503860E+03</pdfrwt>
<pdfrwt beam="2">  1       -2 0.13161977E-02 0.27503860E+03</pdfrwt>
<totfact> 0.82110610E+03</totfact>
</mgrwt>
</event>
<event>
 4    1  0.1108889E+001  0.2586034E+03  0.7818608E-02  0.1107985E+00
         -1   -1    0    0    0  501 -0.00000000000E+00  0.00000000000E+00  0.51860085586E+03  0.51860085586E+03  0.00000000000E+00 0. -1.
          1   -1    0    0  501    0  0.00000000000E+00 -0.00000000000E+00 -0.32238524199E+02  0.32238524199E+02  0.00000000000E+00 0. -1.
         25    1    1    2    0    0  0.13675712495E+02 -0.35096240531E+02  0.30708831587E+03  0.33184635746E+03  0.12000000000E+03 0.  0.
         25    1    1    2    0    0 -0.13675712495E+02  0.35096240531E+02  0.17927401578E+03  0.21899302260E+03  0.12000000000E+03 0.  0.
<mgrwt>
<rscale>  0 0.25860337E+03</rscale>
<asrwt>0</asrwt>
<pdfrwt beam="1">  1        1 0.49597733E-02 0.25860337E+03</pdfrwt>
<pdfrwt beam="2">  1       -1 0.79784741E-01 0.25860337E+03</pdfrwt>
<totfact> 0.27492897E+03</totfact>
</mgrwt>
</event>
<event>
 5    1  0.1108889E+001  0.2761695E+03  0.7818608E-02  0.1097800E+00
          2   -1    0    0  501    0  0.00000000000E+00  0.00000000000E+00  0.28654022278E+03  0.28654022278E+03  0.00000000000E+00 0. -1.
         -2   -1    0    0    0  501 -0.00000000000E+00 -0.00000000000E+00 -0.66543534090E+02  0.66543534090E+02  0.00000000000E+00 0. -1.
         35    2    1    2    0    0  0.00000000000E+00  0.00000000000E+00  0.21999668869E+03  0.35308375687E+03  0.27616950652E+03 0.  0.
         25    1    3    3    0    0  0.26934391190E+01  0.34486734552E+02  0.18531957557E+03  0.22347244699E+03  0.12000000000E+03 0.  0.
         25    1    3    3    0    0 -0.26934391190E+01 -0.34486734552E+02  0.34677113118E+02  0.12961130988E+03  0.12000000000E+03 0.  0.
<mgrwt>
<rscale>  0 0.27616951E+03</rscale>
<asrwt>0</asrwt>
<pdfrwt beam="1">  1        2 0.44083111E-01 0.27616951E+03</pdfrwt>
<pdfrwt beam="2">  1       -2 0.10237467E-01 0.27616951E+03</pdfrwt>
<totfact> 0.72920858E+03</totfact>
</mgrwt>
</event>
<event>
 5    1  0.1108889E+001  0.2756032E+03  0.7818608E-02  0.1098115E+00
          2   -1    0    0  501    0  0.00000000000E+00  0.00000000000E+00  0.21157210803E+03  0.21157210803E+03  0.00000000000E+00 0.  1.
         -2   -1    0    0    0  501 -0.00000000000E+00 -0.00000000000E+00 -0.89753263650E+02  0.89753263650E+02  0.00000000000E+00 0.  1.
         35    2    1    2    0    0  0.00000000000E+00  0.00000000000E+00  0.12181884438E+03  0.30132537168E+03  0.27560324521E+03 0.  0.
         25    1    3    3    0    0  0.63713282452E+02 -0.87883014445E+00  0.86059167331E+02  0.16083014327E+03  0.12000000000E+03 0.  0.
         25    1    3    3    0    0 -0.63713282452E+02  0.87883014445E+00  0.35759677050E+02  0.14049522841E+03  0.12000000000E+03 0.  0.
<mgrwt>
<rscale>  0 0.27560325E+03</rscale>
<asrwt>0</asrwt>
<pdfrwt beam="1">  1        2 0.32549555E-01 0.27560325E+03</pdfrwt>
<pdfrwt beam="2">  1       -2 0.13808194E-01 0.27560325E+03</pdfrwt>
<totfact> 0.62457126E+03</totfact>
</mgrwt>
</event>
<event>
 5    1  0.1108889E+001  0.2753446E+03  0.7818608E-02  0.1098259E+00
          4   -1    0    0  501    0  0.00000000000E+00  0.00000000000E+00  0.34708818000E+02  0.34708818000E+02  0.00000000000E+00 0.  1.
         -4   -1    0    0    0  501 -0.00000000000E+00 -0.00000000000E+00 -0.54607620597E+03  0.54607620597E+03  0.00000000000E+00 0.  1.
         35    2    1    2    0    0  0.00000000000E+00  0.00000000000E+00 -0.51136738797E+03  0.58078502397E+03  0.27534458155E+03 0.  0.
         25    1    3    3    0    0  0.13659449109E+01  0.31439723162E+02 -0.12977162424E+03  0.17952993192E+03  0.12000000000E+03 0.  0.
         25    1    3    3    0    0 -0.13659449109E+01 -0.31439723162E+02 -0.38159576373E+03  0.40125509205E+03  0.12000000000E+03 0.  0.
<mgrwt>
<rscale>  0 0.27534458E+03</rscale>
<asrwt>0</asrwt>
<pdfrwt beam="1">  1        4 0.53398185E-02 0.27534458E+03</pdfrwt>
<pdfrwt beam="2">  1       -4 0.84011719E-01 0.27534458E+03</pdfrwt>
<totfact> 0.51191374E+02</totfact>
</mgrwt>
</event>
<event>
 5    1  0.1108889E+001  0.2748827E+03  0.7818608E-02  0.1098517E+00
          2   -1    0    0  501    0  0.00000000000E+00  0.00000000000E+00  0.10008520879E+02  0.10008520879E+02  0.00000000000E+00 0.  1.
         -2   -1    0    0    0  501 -0.00000000000E+00 -0.00000000000E+00 -0.18874040375E+04  0.18874040375E+04  0.00000000000E+00 0.  1.
         35    2    1    2    0    0  0.00000000000E+00  0.00000000000E+00 -0.18773955167E+04  0.18974125584E+04  0.27488268564E+03 0.  0.
         25    1    3    3    0    0  0.55160998972E+02 -0.37676701274E+02 -0.90226843757E+03  0.91266127510E+03  0.12000000000E+03 0.  0.
         25    1    3    3    0    0 -0.55160998972E+02  0.37676701274E+02 -0.97512707908E+03  0.98475128331E+03  0.12000000000E+03 0.  0.
<mgrwt>
<rscale>  0 0.27488269E+03</rscale>
<asrwt>0</asrwt>
<pdfrwt beam="1">  1        2 0.15397736E-02 0.27488269E+03</pdfrwt>
<pdfrwt beam="2">  1       -2 0.29036963E+00 0.27488269E+03</pdfrwt>
<totfact> 0.32830142E+02</totfact>
</mgrwt>
</event>
<event>
 5    1  0.1108889E+001  0.2720456E+03  0.7818608E-02  0.1100115E+00
         -2   -1    0    0    0  501 -0.00000000000E+00  0.00000000000E+00  0.94015033908E+02  0.94015033908E+02  0.00000000000E+00 0. -1.
          2   -1    0    0  501    0  0.00000000000E+00 -0.00000000000E+00 -0.19680040084E+03  0.19680040084E+03  0.00000000000E+00 0. -1.
         35    2    1    2    0    0  0.00000000000E+00  0.00000000000E+00 -0.10278536693E+03  0.29081543474E+03  0.27204555764E+03 0.  0.
         25    1    3    3    0    0  0.11450789707E+02 -0.58702562880E+02 -0.75888423939E+02  0.15406545480E+03  0.12000000000E+03 0.  0.
         25    1    3    3    0    0 -0.11450789707E+02  0.58702562880E+02 -0.26896942989E+02  0.13674997995E+03  0.12000000000E+03 0.  0.
<mgrwt>
<rscale>  0 0.27204556E+03</rscale>
<asrwt>0</asrwt>
<pdfrwt beam="1">  1        2 0.30276985E-01 0.27204556E+03</pdfrwt>
<pdfrwt beam="2">  1       -2 0.14463851E-01 0.27204556E+03</pdfrwt>
<totfact> 0.62614406E+03</totfact>
</mgrwt>
</event>
<event>
 5    1  0.1108889E+001  0.2764158E+03  0.7818608E-02  0.1097663E+00
         -2   -1    0    0    0  501 -0.00000000000E+00  0.00000000000E+00  0.11447625982E+02  0.11447625982E+02  0.00000000000E+00 0.  1.
          2   -1    0    0  501    0  0.00000000000E+00 -0.00000000000E+00 -0.16685930597E+04  0.16685930597E+04  0.00000000000E+00 0.  1.
         35    2    1    2    0    0  0.00000000000E+00  0.00000000000E+00 -0.16571454337E+04  0.16800406857E+04  0.27641584082E+03 0.  0.
         25    1    3    3    0    0 -0.45007087680E+02 -0.38471326324E+02 -0.10387456430E+04  0.10473290751E+04  0.12000000000E+03 0.  0.
         25    1    3    3    0    0  0.45007087680E+02  0.38471326324E+02 -0.61839979076E+03  0.63271161053E+03  0.12000000000E+03 0.  0.
<mgrwt>
<rscale>  0 0.27641584E+03</rscale>
<asrwt>0</asrwt>
<pdfrwt beam="1">  1        2 0.25670648E+00 0.27641584E+03</pdfrwt>
<pdfrwt beam="2">  1       -2 0.17611742E-02 0.27641584E+03</pdfrwt>
<totfact> 0.10347965E+04</totfact>
</mgrwt>
</event>
<event>
 4    1  0.1108889E+001  0.2933366E+03  0.7818608E-02  0.1088620E+00
          2   -1    0    0  501    0  0.00000000000E+00  0.00000000000E+00  0.16405023898E+03  0.16405023898E+03  0.00000000000E+00 0.  1.
         -2   -1    0    0    0  501 -0.00000000000E+00 -0.00000000000E+00 -0.13112805745E+03  0.13112805745E+03  0.00000000000E+00 0.  1.
         25    1    1    2    0    0 -0.45099798024E+02  0.64390763264E+02  0.47171993840E+02  0.15101443368E+03  0.12000000000E+03 0.  0.
         25    1    1    2    0    0  0.45099798024E+02 -0.64390763264E+02 -0.14249812308E+02  0.14416386276E+03  0.12000000000E+03 0.  0.
<mgrwt>
<rscale>  0 0.29333659E+03</rscale>
<asrwt>0</asrwt>
<pdfrwt beam="1">  1        2 0.25238498E-01 0.29333659E+03</pdfrwt>
<pdfrwt beam="2">  1       -2 0.20173547E-01 0.29333659E+03</pdfrwt>
<totfact> 0.43925040E+03</totfact>
</mgrwt>
</event>
<event>
 5    1  0.1108889E+001  0.2777818E+03  0.7818608E-02  0.1096907E+00
          2   -1    0    0  501    0  0.00000000000E+00  0.00000000000E+00  0.46456992139E+02  0.46456992139E+02  0.00000000000E+00 0. -1.
         -2   -1    0    0    0  501 -0.00000000000E+00 -0.00000000000E+00 -0.41523754942E+03  0.41523754942E+03  0.00000000000E+00 0. -1.
         35    2    1    2    0    0  0.00000000000E+00  0.00000000000E+00 -0.36878055728E+03  0.46169454156E+03  0.27778183936E+03 0.  0.
         25    1    3    3    0    0 -0.74416927702E+01 -0.12869795186E+02 -0.70812252061E+02  0.14012631966E+03  0.12000000000E+03 0.  0.
         25    1    3    3    0    0  0.74416927702E+01  0.12869795186E+02 -0.29796830522E+03  0.32156822190E+03  0.12000000000E+03 0.  0.
<mgrwt>
<rscale>  0 0.27778184E+03</rscale>
<asrwt>0</asrwt>
<pdfrwt beam="1">  1        2 0.71472294E-02 0.27778184E+03</pdfrwt>
<pdfrwt beam="2">  1       -2 0.63882701E-01 0.27778184E+03</pdfrwt>
<totfact> 0.22747298E+03</totfact>
</mgrwt>
</event>
<event>
 5    1  0.1108889E+001  0.2727148E+03  0.7818608E-02  0.1099736E+00
          2   -1    0    0  501    0  0.00000000000E+00  0.00000000000E+00  0.69255149950E+03  0.69255149950E+03  0.00000000000E+00 0.  1.
         -2   -1    0    0    0  501 -0.00000000000E+00 -0.00000000000E+00 -0.26847599771E+02  0.26847599771E+02  0.00000000000E+00 0.  1.
         35    2    1    2    0    0  0.00000000000E+00  0.00000000000E+00  0.66570389973E+03  0.71939909927E+03  0.27271483626E+03 0.  0.
         25    1    3    3    0    0 -0.11568819819E+01  0.64703970003E+02  0.32672007254E+03  0.35402534925E+03  0.12000000000E+03 0.  0.
         25    1    3    3    0    0  0.11568819819E+01 -0.64703970003E+02  0.33898382718E+03  0.36537375002E+03  0.12000000000E+03 0.  0.
<mgrwt>
<rscale>  0 0.27271484E+03</rscale>
<asrwt>0</asrwt>
<pdfrwt beam="1">  1        2 0.10654637E+00 0.27271484E+03</pdfrwt>
<pdfrwt beam="2">  1       -2 0.41304005E-02 0.27271484E+03</pdfrwt>
<totfact> 0.11075942E+04</totfact>
</mgrwt>
</event>
<event>
 5    1  0.1108889E+001  0.2752793E+03  0.7818608E-02  0.1098296E+00
          2   -1    0    0  501    0  0.00000000000E+00  0.00000000000E+00  0.58701730765E+03  0.58701730765E+03  0.00000000000E+00 0.  1.
         -2   -1    0    0    0  501 -0.00000000000E+00 -0.00000000000E+00 -0.32272761752E+02  0.32272761752E+02  0.00000000000E+00 0.  1.
         35    2    1    2    0    0  0.00000000000E+00  0.00000000000E+00  0.55474454590E+03  0.61929006941E+03  0.27527927430E+03 0.  0.
         25    1    3    3    0    0 -0.53563886071E+02 -0.36476010065E+02  0.31916308584E+03  0.34708019904E+03  0.12000000000E+03 0.  0.
         25    1    3    3    0    0  0.53563886071E+02  0.36476010065E+02  0.23558146006E+03  0.27220987037E+03  0.12000000000E+03 0.  0.
<mgrwt>
<rscale>  0 0.27527927E+03</rscale>
<asrwt>0</asrwt>
<pdfrwt beam="1">  1        2 0.90310347E-01 0.27527927E+03</pdfrwt>
<pdfrwt beam="2">  1       -2 0.49650407E-02 0.27527927E+03</pdfrwt>
<totfact> 0.10195799E+04</totfact>
</mgrwt>
</event>
<event>
 5    1  0.1108889E+001  0.2761607E+03  0.7818608E-02  0.1097805E+00
         -2   -1    0    0    0  501 -0.00000000000E+00  0.00000000000E+00  0.80514723744E+02  0.80514723744E+02  0.00000000000E+00 0.  1.
          2   -1    0    0  501    0  0.00000000000E+00 -0.00000000000E+00 -0.23680369543E+03  0.23680369543E+03  0.00000000000E+00 0.  1.
         35    2    1    2    0    0  0.00000000000E+00  0.00000000000E+00 -0.15628897168E+03  0.31731841917E+03  0.27616070770E+03 0.  0.
         25    1    3    3    0    0  0.57815142063E+02 -0.32989081526E+02 -0.95770627173E+02  0.16734062024E+03  0.12000000000E+03 0.  0.
         25    1    3    3    0    0 -0.57815142063E+02  0.32989081526E+02 -0.60518344511E+02  0.14997779894E+03  0.12000000000E+03 0.  0.
<mgrwt>
<rscale>  0 0.27616071E+03</rscale>
<asrwt>0</asrwt>
<pdfrwt beam="1">  1        2 0.36431337E-01 0.27616071E+03</pdfrwt>
<pdfrwt beam="2">  1       -2 0.12386881E-01 0.27616071E+03</pdfrwt>
<totfact> 0.65956523E+03</totfact>
</mgrwt>
</event>
<event>
 5    1  0.1108889E+001  0.2747576E+03  0.7818608E-02  0.1098587E+00
         -2   -1    0    0    0  501 -0.00000000000E+00  0.00000000000E+00  0.49380565282E+03  0.49380565282E+03  0.00000000000E+00 0.  1.
          2   -1    0    0  501    0  0.00000000000E+00 -0.00000000000E+00 -0.38219358433E+02  0.38219358433E+02  0.00000000000E+00 0.  1.
         35    2    1    2    0    0  0.00000000000E+00  0.00000000000E+00  0.45558629439E+03  0.53202501125E+03  0.27475760402E+03 0.  0.
         25    1    3    3    0    0  0.17093559459E+02 -0.31644671594E+02  0.11861085757E+03  0.17251698626E+03  0.12000000000E+03 0.  0.
         25    1    3    3    0    0 -0.17093559459E+02  0.31644671594E+02  0.33697543681E+03  0.35950802499E+03  0.12000000000E+03 0.  0.
<mgrwt>
<rscale>  0 0.27475760E+03</rscale>
<asrwt>0</asrwt>
<pdfrwt beam="1">  1        2 0.58799017E-02 0.27475760E+03</pdfrwt>
<pdfrwt beam="2">  1       -2 0.75970096E-01 0.27475760E+03</pdfrwt>
<totfact> 0.20211964E+03</totfact>
</mgrwt>
</event>
<event>
 5    1  0.1108889E+001  0.2740504E+03  0.7818608E-02  0.1098984E+00
         -2   -1    0    0    0  501 -0.00000000000E+00  0.00000000000E+00  0.13079311501E+03  0.13079311501E+03  0.00000000000E+00 0. -1.
          2   -1    0    0  501    0  0.00000000000E+00 -0.00000000000E+00 -0.14355425005E+03  0.14355425005E+03  0.00000000000E+00 0. -1.
         35    2    1    2    0    0  0.00000000000E+00  0.00000000000E+00 -0.12761135046E+02  0.27434736506E+03  0.27405041534E+03 0.  0.
         25    1    3    3    0    0 -0.34978943697E+02 -0.40812669538E+02  0.32219052354E+02  0.13537823987E+03  0.12000000000E+03 0.  0.
         25    1    3    3    0    0  0.34978943697E+02  0.40812669538E+02 -0.44980187400E+02  0.13896912519E+03  0.12000000000E+03 0.  0.
<mgrwt>
<rscale>  0 0.27405042E+03</rscale>
<asrwt>0</asrwt>
<pdfrwt beam="1">  1        2 0.22085269E-01 0.27405042E+03</pdfrwt>
<pdfrwt beam="2">  1       -2 0.20122018E-01 0.27405042E+03</pdfrwt>
<totfact> 0.51157152E+03</totfact>
</mgrwt>
</event>
<event>
 5    1  0.1108889E+001  0.2750078E+03  0.7818608E-02  0.1098447E+00
          1   -1    0    0  501    0  0.00000000000E+00  0.00000000000E+00  0.31444601759E+03  0.31444601759E+03  0.00000000000E+00 0. -1.
         -1   -1    0    0    0  501 -0.00000000000E+00 -0.00000000000E+00 -0.60128980072E+02  0.60128980072E+02  0.00000000000E+00 0. -1.
         35    2    1    2    0    0  0.00000000000E+00  0.00000000000E+00  0.25431703752E+03  0.37457499766E+03  0.27500776953E+03 0.  0.
         25    1    3    3    0    0 -0.19722725178E+02 -0.63316981238E+02  0.14139781914E+03  0.19695524685E+03  0.12000000000E+03 0.  0.
         25    1    3    3    0    0  0.19722725178E+02  0.63316981238E+02  0.11291921837E+03  0.17761975082E+03  0.12000000000E+03 0.  0.
<mgrwt>
<rscale>  0 0.27500777E+03</rscale>
<asrwt>0</asrwt>
<pdfrwt beam="1">  1        1 0.48376309E-01 0.27500777E+03</pdfrwt>
<pdfrwt beam="2">  1       -1 0.92506125E-02 0.27500777E+03</pdfrwt>
<totfact> 0.56408741E+03</totfact>
</mgrwt>
</event>
<event>
 5    1  0.1108889E+001  0.2741003E+03  0.7818608E-02  0.1098956E+00
         -3   -1    0    0    0  501 -0.00000000000E+00  0.00000000000E+00  0.43271156455E+02  0.43271156455E+02  0.00000000000E+00 0.  1.
          3   -1    0    0  501    0  0.00000000000E+00 -0.00000000000E+00 -0.43407078254E+03  0.43407078254E+03  0.00000000000E+00 0.  1.
         35    2    1    2    0    0  0.00000000000E+00  0.00000000000E+00 -0.39079962608E+03  0.47734193900E+03  0.27410030824E+03 0.  0.
         25    1    3    3    0    0  0.66591940944E+01  0.65834837319E+02 -0.19184186094E+03  0.23575807574E+03  0.12000000000E+03 0.  0.
         25    1    3    3    0    0 -0.66591940944E+01 -0.65834837319E+02 -0.19895776515E+03  0.24158386325E+03  0.12000000000E+03 0.  0.
<mgrwt>
<rscale>  0 0.27410031E+03</rscale>
<asrwt>0</asrwt>
<pdfrwt beam="1">  1        3 0.66780118E-01 0.27410031E+03</pdfrwt>
<pdfrwt beam="2">  1       -3 0.66571013E-02 0.27410031E+03</pdfrwt>
<totfact> 0.80477327E+02</totfact>
</mgrwt>
</event>
<event>
 5    1  0.1108889E+001  0.2750342E+03  0.7818608E-02  0.1098433E+00
          1   -1    0    0  501    0  0.00000000000E+00  0.00000000000E+00  0.54073895603E+03  0.54073895603E+03  0.00000000000E+00 0.  1.
         -1   -1    0    0    0  501 -0.00000000000E+00 -0.00000000000E+00 -0.34972417114E+02  0.34972417114E+02  0.00000000000E+00 0.  1.
         35    2    1    2    0    0  0.00000000000E+00  0.00000000000E+00  0.50576653892E+03  0.57571137315E+03  0.27503416748E+03 0.  0.
         25    1    3    3    0    0  0.78597214219E+01  0.41045232073E+02  0.14282479883E+03  0.19116853679E+03  0.12000000000E+03 0.  0.
         25    1    3    3    0    0 -0.78597214219E+01 -0.41045232073E+02  0.36294174009E+03  0.38454283636E+03  0.12000000000E+03 0.  0.
<mgrwt>
<rscale>  0 0.27503417E+03</rscale>
<asrwt>0</asrwt>
<pdfrwt beam="1">  1        1 0.83190602E-01 0.27503417E+03</pdfrwt>
<pdfrwt beam="2">  1       -1 0.53803723E-02 0.27503417E+03</pdfrwt>
<totfact> 0.63721682E+03</totfact>
</mgrwt>
</event>
<event>
 5    1  0.1108889E+001  0.2749412E+03  0.7818608E-02  0.1098484E+00
         -1   -1    0    0    0  501 -0.00000000000E+00  0.00000000000E+00  0.13385456702E+03  0.13385456702E+03  0.00000000000E+00 0.  1.
          1   -1    0    0  501    0  0.00000000000E+00 -0.00000000000E+00 -0.14118428892E+03  0.14118428892E+03  0.00000000000E+00 0.  1.
         35    2    1    2    0    0  0.00000000000E+00  0.00000000000E+00 -0.73297218970E+01  0.27503885595E+03  0.27494117090E+03 0.  0.
         25    1    3    3    0    0 -0.38906505302E+02 -0.53760417212E+02 -0.13377236815E+02  0.13777826054E+03  0.12000000000E+03 0.  0.
         25    1    3    3    0    0  0.38906505302E+02  0.53760417212E+02  0.60475149180E+01  0.13726059540E+03  0.12000000000E+03 0.  0.
<mgrwt>
<rscale>  0 0.27494117E+03</rscale>
<asrwt>0</asrwt>
<pdfrwt beam="1">  1        1 0.21720660E-01 0.27494117E+03</pdfrwt>
<pdfrwt beam="2">  1       -1 0.20593010E-01 0.27494117E+03</pdfrwt>
<totfact> 0.43808824E+03</totfact>
</mgrwt>
</event>
<event>
 5    1  0.1108889E+001  0.2753405E+03  0.7818608E-02  0.1098261E+00
         -2   -1    0    0    0  501 -0.00000000000E+00  0.00000000000E+00  0.42067301501E+02  0.42067301501E+02  0.00000000000E+00 0.  1.
          2   -1    0    0  501    0  0.00000000000E+00 -0.00000000000E+00 -0.45054238680E+03  0.45054238680E+03  0.00000000000E+00 0.  1.
         35    2    1    2    0    0  0.00000000000E+00  0.00000000000E+00 -0.40847508530E+03  0.49260968830E+03  0.27534053406E+03 0.  0.
         25    1    3    3    0    0  0.60238907726E+02  0.32947328517E+01 -0.15016309360E+03  0.20146596722E+03  0.12000000000E+03 0.  0.
         25    1    3    3    0    0 -0.60238907726E+02 -0.32947328517E+01 -0.25831199170E+03  0.29114372108E+03  0.12000000000E+03 0.  0.
<mgrwt>
<rscale>  0 0.27534053E+03</rscale>
<asrwt>0</asrwt>
<pdfrwt beam="1">  1        2 0.69314213E-01 0.27534053E+03</pdfrwt>
<pdfrwt beam="2">  1       -2 0.64718925E-02 0.27534053E+03</pdfrwt>
<totfact> 0.91557709E+03</totfact>
</mgrwt>
</event>
<event>
 5    1  0.1108889E+001  0.2744253E+03  0.7818608E-02  0.1098773E+00
         -2   -1    0    0    0  501 -0.00000000000E+00  0.00000000000E+00  0.23835720354E+03  0.23835720354E+03  0.00000000000E+00 0.  1.
          2   -1    0    0  501    0  0.00000000000E+00 -0.00000000000E+00 -0.78987810333E+02  0.78987810333E+02  0.00000000000E+00 0.  1.
         35    2    1    2    0    0  0.00000000000E+00  0.00000000000E+00  0.15936939320E+03  0.31734501387E+03  0.27442531650E+03 0.  0.
         25    1    3    3    0    0  0.48559107893E+02 -0.40516857973E+02  0.55769021959E+02  0.14666215105E+03  0.12000000000E+03 0.  0.
         25    1    3    3    0    0 -0.48559107893E+02  0.40516857973E+02  0.10360037125E+03  0.17068286282E+03  0.12000000000E+03 0.  0.
<mgrwt>
<rscale>  0 0.27442532E+03</rscale>
<asrwt>0</asrwt>
<pdfrwt beam="1">  1        2 0.12151971E-01 0.27442532E+03</pdfrwt>
<pdfrwt beam="2">  1       -2 0.36670339E-01 0.27442532E+03</pdfrwt>
<totfact> 0.35216806E+03</totfact>
</mgrwt>
</event>
<event>
 5    1  0.1108889E+001  0.2737215E+03  0.7818608E-02  0.1099168E+00
         -1   -1    0    0    0  501 -0.00000000000E+00  0.00000000000E+00  0.31661012703E+02  0.31661012703E+02  0.00000000000E+00 0. -1.
          1   -1    0    0  501    0  0.00000000000E+00 -0.00000000000E+00 -0.59160661710E+03  0.59160661710E+03  0.00000000000E+00 0. -1.
         35    2    1    2    0    0  0.00000000000E+00  0.00000000000E+00 -0.55994560439E+03  0.62326762980E+03  0.27372149802E+03 0.  0.
         25    1    3    3    0    0  0.34993582726E+02  0.17448271964E+02 -0.15944429497E+03  0.20335062386E+03  0.12000000000E+03 0.  0.
         25    1    3    3    0    0 -0.34993582726E+02 -0.17448271964E+02 -0.40050130942E+03  0.41991700594E+03  0.12000000000E+03 0.  0.
<mgrwt>
<rscale>  0 0.27372150E+03</rscale>
<asrwt>0</asrwt>
<pdfrwt beam="1">  1        1 0.91016398E-01 0.27372150E+03</pdfrwt>
<pdfrwt beam="2">  1       -1 0.48709253E-02 0.27372150E+03</pdfrwt>
<totfact> 0.65405958E+03</totfact>
</mgrwt>
</event>
<event>
 5    1  0.1108889E+001  0.2742224E+03  0.7818608E-02  0.1098887E+00
         -2   -1    0    0    0  501 -0.00000000000E+00  0.00000000000E+00  0.28695075998E+02  0.28695075998E+02  0.00000000000E+00 0. -1.
          2   -1    0    0  501    0  0.00000000000E+00 -0.00000000000E+00 -0.65514650005E+03  0.65514650005E+03  0.00000000000E+00 0. -1.
         35    2    1    2    0    0  0.00000000000E+00  0.00000000000E+00 -0.62645142406E+03  0.68384157605E+03  0.27422238135E+03 0.  0.
         25    1    3    3    0    0 -0.19073278131E+02  0.50248225293E+02 -0.41015538376E+03  0.43071581456E+03  0.12000000000E+03 0.  0.
         25    1    3    3    0    0  0.19073278131E+02 -0.50248225293E+02 -0.21629604030E+03  0.25312576150E+03  0.12000000000E+03 0.  0.
<mgrwt>
<rscale>  0 0.27422238E+03</rscale>
<asrwt>0</asrwt>
<pdfrwt beam="1">  1        2 0.10079176E+00 0.27422238E+03</pdfrwt>
<pdfrwt beam="2">  1       -2 0.44146275E-02 0.27422238E+03</pdfrwt>
<totfact> 0.10709946E+04</totfact>
</mgrwt>
</event>
<event>
 5    1  0.1108889E+001  0.2749241E+03  0.7818608E-02  0.1098494E+00
         -2   -1    0    0    0  501 -0.00000000000E+00  0.00000000000E+00  0.85258120314E+01  0.85258120314E+01  0.00000000000E+00 0.  1.
          2   -1    0    0  501    0  0.00000000000E+00 -0.00000000000E+00 -0.22163071982E+04  0.22163071982E+04  0.00000000000E+00 0.  1.
         35    2    1    2    0    0  0.00000000000E+00  0.00000000000E+00 -0.22077813862E+04  0.22248330103E+04  0.27492412463E+03 0.  0.
         25    1    3    3    0    0  0.37753964623E+02  0.43902419042E+01 -0.65687922861E+03  0.66883103774E+03  0.12000000000E+03 0.  0.
         25    1    3    3    0    0 -0.37753964623E+02 -0.43902419042E+01 -0.15509021576E+04  0.15560019725E+04  0.12000000000E+03 0.  0.
<mgrwt>
<rscale>  0 0.27492412E+03</rscale>
<asrwt>0</asrwt>
<pdfrwt beam="1">  1        2 0.34097092E+00 0.27492412E+03</pdfrwt>
<pdfrwt beam="2">  1       -2 0.13116611E-02 0.27492412E+03</pdfrwt>
<totfact> 0.81940543E+03</totfact>
</mgrwt>
</event>
<event>
 5    1  0.1108889E+001  0.2727100E+03  0.7818608E-02  0.1099739E+00
         -2   -1    0    0    0  501 -0.00000000000E+00  0.00000000000E+00  0.69269751260E+02  0.69269751260E+02  0.00000000000E+00 0.  1.
          2   -1    0    0  501    0  0.00000000000E+00 -0.00000000000E+00 -0.26840993486E+03  0.26840993486E+03  0.00000000000E+00 0.  1.
         35    2    1    2    0    0  0.00000000000E+00  0.00000000000E+00 -0.19914018360E+03  0.33767968612E+03  0.27271002492E+03 0.  0.
         25    1    3    3    0    0 -0.48595022652E+02 -0.16246136602E+02 -0.50549719241E+02  0.13993100906E+03  0.12000000000E+03 0.  0.
         25    1    3    3    0    0  0.48595022652E+02  0.16246136602E+02 -0.14859046436E+03  0.19774867706E+03  0.12000000000E+03 0.  0.
<mgrwt>
<rscale>  0 0.27271002E+03</rscale>
<asrwt>0</asrwt>
<pdfrwt beam="1">  1        2 0.41293836E-01 0.27271002E+03</pdfrwt>
<pdfrwt beam="2">  1       -2 0.10656885E-01 0.27271002E+03</pdfrwt>
<totfact> 0.73344824E+03</totfact>
</mgrwt>
</event>
<event>
 5    1  0.1108889E+001  0.2755641E+03  0.7818608E-02  0.1098137E+00
         -2   -1    0    0    0  501 -0.00000000000E+00  0.00000000000E+00  0.56407374930E+03  0.56407374930E+03  0.00000000000E+00 0.  1.
          2   -1    0    0  501    0  0.00000000000E+00 -0.00000000000E+00 -0.33654996513E+02  0.33654996513E+02  0.00000000000E+00 0.  1.
         35    2    1    2    0    0  0.00000000000E+00  0.00000000000E+00  0.53041875278E+03  0.59772874581E+03  0.27556414909E+03 0.  0.
         25    1    3    3    0    0 -0.33907907317E+02  0.58472376710E+02  0.25677071929E+03  0.29137598957E+03  0.12000000000E+03 0.  0.
         25    1    3    3    0    0  0.33907907317E+02 -0.58472376710E+02  0.27364803350E+03  0.30635275624E+03  0.12000000000E+03 0.  0.
<mgrwt>
<rscale>  0 0.27556415E+03</rscale>
<asrwt>0</asrwt>
<pdfrwt beam="1">  1        2 0.51776922E-02 0.27556415E+03</pdfrwt>
<pdfrwt beam="2">  1       -2 0.86780570E-01 0.27556415E+03</pdfrwt>
<totfact> 0.17794644E+03</totfact>
</mgrwt>
</event>
<event>
 5    1  0.1108889E+001  0.2744940E+03  0.7818608E-02  0.1098735E+00
         -1   -1    0    0    0  501 -0.00000000000E+00  0.00000000000E+00  0.13997387919E+03  0.13997387919E+03  0.00000000000E+00 0. -1.
          1   -1    0    0  501    0  0.00000000000E+00 -0.00000000000E+00 -0.13457323728E+03  0.13457323728E+03  0.00000000000E+00 0. -1.
         35    2    1    2    0    0  0.00000000000E+00  0.00000000000E+00  0.54006419132E+01  0.27454711646E+03  0.27449399306E+03 0.  0.
         25    1    3    3    0    0 -0.59840389629E+01  0.64336396579E+02  0.18882370765E+02  0.13759187684E+03  0.12000000000E+03 0.  0.
         25    1    3    3    0    0  0.59840389629E+01 -0.64336396579E+02 -0.13481728852E+02  0.13695523962E+03  0.12000000000E+03 0.  0.
<mgrwt>
<rscale>  0 0.27449399E+03</rscale>
<asrwt>0</asrwt>
<pdfrwt beam="1">  1        1 0.20703575E-01 0.27449399E+03</pdfrwt>
<pdfrwt beam="2">  1       -1 0.21534443E-01 0.27449399E+03</pdfrwt>
<totfact> 0.43307904E+03</totfact>
</mgrwt>
</event>
<event>
 5    1  0.1108889E+001  0.2750487E+03  0.7818608E-02  0.1098424E+00
          3   -1    0    0  501    0  0.00000000000E+00  0.00000000000E+00  0.87533069449E+03  0.87533069449E+03  0.00000000000E+00 0. -1.
         -3   -1    0    0    0  501 -0.00000000000E+00 -0.00000000000E+00 -0.21606625815E+02  0.21606625815E+02  0.00000000000E+00 0. -1.
         35    2    1    2    0    0  0.00000000000E+00  0.00000000000E+00  0.85372406868E+03  0.89693732031E+03  0.27504867046E+03 0.  0.
         25    1    3    3    0    0 -0.13166098437E+02  0.63272526644E+02  0.48665375720E+03  0.50537969704E+03  0.12000000000E+03 0.  0.
         25    1    3    3    0    0  0.13166098437E+02 -0.63272526644E+02  0.36707031147E+03  0.39155762327E+03  0.12000000000E+03 0.  0.
<mgrwt>
<rscale>  0 0.27504867E+03</rscale>
<asrwt>0</asrwt>
<pdfrwt beam="1">  1        3 0.13466623E+00 0.27504867E+03</pdfrwt>
<pdfrwt beam="2">  1       -3 0.33240970E-02 0.27504867E+03</pdfrwt>
<totfact> 0.49404880E+02</totfact>
</mgrwt>
</event>
<event>
 5    1  0.1108889E+001  0.2751996E+03  0.7818608E-02  0.1098340E+00
          3   -1    0    0  501    0  0.00000000000E+00  0.00000000000E+00  0.58505143330E+02  0.58505143330E+02  0.00000000000E+00 0.  1.
         -3   -1    0    0    0  501 -0.00000000000E+00 -0.00000000000E+00 -0.32362472328E+03  0.32362472328E+03  0.00000000000E+00 0.  1.
         35    2    1    2    0    0  0.00000000000E+00  0.00000000000E+00 -0.26511957995E+03  0.38212986661E+03  0.27519964259E+03 0.  0.
         25    1    3    3    0    0 -0.17366569437E+02 -0.49193615642E+02 -0.73450689655E+02  0.15005536766E+03  0.12000000000E+03 0.  0.
         25    1    3    3    0    0  0.17366569437E+02  0.49193615642E+02 -0.19166889029E+03  0.23207449894E+03  0.12000000000E+03 0.  0.
<mgrwt>
<rscale>  0 0.27519964E+03</rscale>
<asrwt>0</asrwt>
<pdfrwt beam="1">  1        3 0.90007913E-02 0.27519964E+03</pdfrwt>
<pdfrwt beam="2">  1       -3 0.49788419E-01 0.27519964E+03</pdfrwt>
<totfact> 0.90008233E+02</totfact>
</mgrwt>
</event>
<event>
 5    1  0.1108889E+001  0.2748291E+03  0.7818608E-02  0.1098547E+00
          2   -1    0    0  501    0  0.00000000000E+00  0.00000000000E+00  0.16321138948E+04  0.16321138948E+04  0.00000000000E+00 0. -1.
         -2   -1    0    0    0  501 -0.00000000000E+00 -0.00000000000E+00 -0.11569513971E+02  0.11569513971E+02  0.00000000000E+00 0. -1.
         35    2    1    2    0    0  0.00000000000E+00  0.00000000000E+00  0.16205443809E+04  0.16436834088E+04  0.27482914335E+03 0.  0.
         25    1    3    3    0    0  0.31833443666E+02  0.45604686142E+02  0.58732515981E+03  0.60203322074E+03  0.12000000000E+03 0.  0.
         25    1    3    3    0    0 -0.31833443666E+02 -0.45604686142E+02  0.10332192210E+04  0.10416501881E+04  0.12000000000E+03 0.  0.
<mgrwt>
<rscale>  0 0.27482914E+03</rscale>
<asrwt>0</asrwt>
<pdfrwt beam="1">  1        2 0.25109426E+00 0.27482914E+03</pdfrwt>
<pdfrwt beam="2">  1       -2 0.17799265E-02 0.27482914E+03</pdfrwt>
<totfact> 0.10649437E+04</totfact>
</mgrwt>
</event>
<event>
 5    1  0.1108889E+001  0.2743184E+03  0.7818608E-02  0.1098833E+00
          1   -1    0    0  501    0  0.00000000000E+00  0.00000000000E+00  0.25530586712E+03  0.25530586712E+03  0.00000000000E+00 0. -1.
         -1   -1    0    0    0  501 -0.00000000000E+00 -0.00000000000E+00 -0.73686720091E+02  0.73686720091E+02  0.00000000000E+00 0. -1.
         35    2    1    2    0    0  0.00000000000E+00  0.00000000000E+00  0.18161914703E+03  0.32899258721E+03  0.27431844246E+03 0.  0.
         25    1    3    3    0    0  0.51581525169E+01  0.26454068735E+02  0.17994350459E+02  0.12429891769E+03  0.12000000000E+03 0.  0.
         25    1    3    3    0    0 -0.51581525169E+01 -0.26454068735E+02  0.16362479657E+03  0.20469366953E+03  0.12000000000E+03 0.  0.
<mgrwt>
<rscale>  0 0.27431844E+03</rscale>
<asrwt>0</asrwt>
<pdfrwt beam="1">  1        1 0.39277825E-01 0.27431844E+03</pdfrwt>
<pdfrwt beam="2">  1       -1 0.11336419E-01 0.27431844E+03</pdfrwt>
<totfact> 0.53494947E+03</totfact>
</mgrwt>
</event>
<event>
 5    1  0.1108889E+001  0.2748698E+03  0.7818608E-02  0.1098524E+00
         -1   -1    0    0    0  501 -0.00000000000E+00  0.00000000000E+00  0.23346500417E+02  0.23346500417E+02  0.00000000000E+00 0.  1.
          1   -1    0    0  501    0  0.00000000000E+00 -0.00000000000E+00 -0.80904415887E+03  0.80904415887E+03  0.00000000000E+00 0.  1.
         35    2    1    2    0    0  0.00000000000E+00  0.00000000000E+00 -0.78569765845E+03  0.83239065928E+03  0.27486978584E+03 0.  0.
         25    1    3    3    0    0 -0.31537007007E+02 -0.16277336072E+02 -0.22077223728E+03  0.25377138380E+03  0.12000000000E+03 0.  0.
         25    1    3    3    0    0  0.31537007007E+02  0.16277336072E+02 -0.56492542117E+03  0.57861927549E+03  0.12000000000E+03 0.  0.
<mgrwt>
<rscale>  0 0.27486979E+03</rscale>
<asrwt>0</asrwt>
<pdfrwt beam="1">  1        1 0.12446834E+00 0.27486979E+03</pdfrwt>
<pdfrwt beam="2">  1       -1 0.35917691E-02 0.27486979E+03</pdfrwt>
<totfact> 0.65254834E+03</totfact>
</mgrwt>
</event>
<event>
 5    1  0.1108889E+001  0.2749679E+03  0.7818608E-02  0.1098470E+00
          1   -1    0    0  501    0  0.00000000000E+00  0.00000000000E+00  0.45728163703E+02  0.45728163703E+02  0.00000000000E+00 0. -1.
         -1   -1    0    0    0  501 -0.00000000000E+00 -0.00000000000E+00 -0.41335210560E+03  0.41335210560E+03  0.00000000000E+00 0. -1.
         35    2    1    2    0    0  0.00000000000E+00  0.00000000000E+00 -0.36762394190E+03  0.45908026930E+03  0.27496787268E+03 0.  0.
         25    1    3    3    0    0 -0.31304293929E+02  0.57449315370E+02 -0.20865729190E+03  0.24943585973E+03  0.12000000000E+03 0.  0.
         25    1    3    3    0    0  0.31304293929E+02 -0.57449315370E+02 -0.15896664999E+03  0.20964440957E+03  0.12000000000E+03 0.  0.
<mgrwt>
<rscale>  0 0.27496787E+03</rscale>
<asrwt>0</asrwt>
<pdfrwt beam="1">  1        1 0.70351020E-02 0.27496787E+03</pdfrwt>
<pdfrwt beam="2">  1       -1 0.63592633E-01 0.27496787E+03</pdfrwt>
<totfact> 0.26837929E+03</totfact>
</mgrwt>
</event>
<event>
 5    1  0.1108889E+001  0.2752767E+03  0.7818608E-02  0.1098297E+00
         -2   -1    0    0    0  501 -0.00000000000E+00  0.00000000000E+00  0.61341984312E+03  0.61341984312E+03  0.00000000000E+00 0.  1.
          2   -1    0    0  501    0  0.00000000000E+00 -0.00000000000E+00 -0.30883107135E+02  0.30883107135E+02  0.00000000000E+00 0.  1.
         35    2    1    2    0    0  0.00000000000E+00  0.00000000000E+00  0.58253673599E+03  0.64430295026E+03  0.27527666617E+03 0.  0.
         25    1    3    3    0    0 -0.39365483232E+02 -0.44517268140E+02  0.36575875169E+03  0.38950082525E+03  0.12000000000E+03 0.  0.
         25    1    3    3    0    0  0.39365483232E+02  0.44517268140E+02  0.21677798430E+03  0.25480212501E+03  0.12000000000E+03 0.  0.
<mgrwt>
<rscale>  0 0.27527667E+03</rscale>
<asrwt>0</asrwt>
<pdfrwt beam="1">  1        2 0.47512477E-02 0.27527667E+03</pdfrwt>
<pdfrwt beam="2">  1       -2 0.94372274E-01 0.27527667E+03</pdfrwt>
<totfact> 0.16485786E+03</totfact>
</mgrwt>
</event>
<event>
 5    1  0.1108889E+001  0.2752515E+03  0.7818608E-02  0.1098311E+00
         -1   -1    0    0    0  501 -0.00000000000E+00  0.00000000000E+00  0.50990499600E+01  0.50990499600E+01  0.00000000000E+00 0.  1.
          1   -1    0    0  501    0  0.00000000000E+00 -0.00000000000E+00 -0.37145840550E+04  0.37145840550E+04  0.00000000000E+00 0.  1.
         35    2    1    2    0    0  0.00000000000E+00  0.00000000000E+00 -0.37094850050E+04  0.37196831049E+04  0.27525151899E+03 0.  0.
         25    1    3    3    0    0  0.14989993782E+02 -0.64560095552E+02 -0.16902606474E+04  0.16958106504E+04  0.12000000000E+03 0.  0.
         25    1    3    3    0    0 -0.14989993782E+02  0.64560095552E+02 -0.20192243576E+04  0.20238724545E+04  0.12000000000E+03 0.  0.
<mgrwt>
<rscale>  0 0.27525152E+03</rscale>
<asrwt>0</asrwt>
<pdfrwt beam="1">  1        1 0.57147755E+00 0.27525152E+03</pdfrwt>
<pdfrwt beam="2">  1       -1 0.78446500E-03 0.27525152E+03</pdfrwt>
<totfact> 0.57234779E+02</totfact>
</mgrwt>
</event>
<event>
 5    1  0.1108889E+001  0.2803473E+03  0.7818608E-02  0.1095499E+00
          1   -1    0    0  501    0  0.00000000000E+00  0.00000000000E+00  0.60216896990E+03  0.60216896990E+03  0.00000000000E+00 0. -1.
         -1   -1    0    0    0  501 -0.00000000000E+00 -0.00000000000E+00 -0.32629802170E+02  0.32629802170E+02  0.00000000000E+00 0. -1.
         35    2    1    2    0    0  0.00000000000E+00  0.00000000000E+00  0.56953916773E+03  0.63479877207E+03  0.28034731574E+03 0.  0.
         25    1    3    3    0    0  0.29306251155E+02 -0.65394983309E+02  0.30887104889E+03  0.33902313349E+03  0.12000000000E+03 0.  0.
         25    1    3    3    0    0 -0.29306251155E+02  0.65394983309E+02  0.26066811884E+03  0.29577563858E+03  0.12000000000E+03 0.  0.
<mgrwt>
<rscale>  0 0.28034732E+03</rscale>
<asrwt>0</asrwt>
<pdfrwt beam="1">  1        1 0.92641372E-01 0.28034732E+03</pdfrwt>
<pdfrwt beam="2">  1       -1 0.50199700E-02 0.28034732E+03</pdfrwt>
<totfact> 0.61044562E+03</totfact>
</mgrwt>
</event>
<event>
 5    1  0.1108889E+001  0.2731705E+03  0.7818608E-02  0.1099479E+00
          1   -1    0    0  501    0  0.00000000000E+00  0.00000000000E+00  0.37222140547E+04  0.37222140547E+04  0.00000000000E+00 0. -1.
         -1   -1    0    0    0  501 -0.00000000000E+00 -0.00000000000E+00 -0.50119462197E+01  0.50119462197E+01  0.00000000000E+00 0. -1.
         35    2    1    2    0    0  0.00000000000E+00  0.00000000000E+00  0.37172021084E+04  0.37272260009E+04  0.27317054497E+03 0.  0.
         25    1    3    3    0    0  0.41693093963E+02  0.10765052461E+02  0.25272194849E+04  0.25304332683E+04  0.12000000000E+03 0.  0.
         25    1    3    3    0    0 -0.41693093963E+02 -0.10765052461E+02  0.11899826236E+04  0.11967927326E+04  0.12000000000E+03 0.  0.
<mgrwt>
<rscale>  0 0.27317054E+03</rscale>
<asrwt>0</asrwt>
<pdfrwt beam="1">  1        1 0.57264611E+00 0.27317054E+03</pdfrwt>
<pdfrwt beam="2">  1       -1 0.77107162E-03 0.27317054E+03</pdfrwt>
<totfact> 0.57894396E+02</totfact>
</mgrwt>
</event>
<event>
 5    1  0.1108889E+001  0.2745575E+03  0.7818608E-02  0.1098699E+00
          2   -1    0    0  501    0  0.00000000000E+00  0.00000000000E+00  0.43766403942E+03  0.43766403942E+03  0.00000000000E+00 0.  1.
         -2   -1    0    0    0  501 -0.00000000000E+00 -0.00000000000E+00 -0.43059184938E+02  0.43059184938E+02  0.00000000000E+00 0.  1.
         35    2    1    2    0    0  0.00000000000E+00  0.00000000000E+00  0.39460485448E+03  0.48072322436E+03  0.27455751175E+03 0.  0.
         25    1    3    3    0    0 -0.53446102318E+02 -0.21299305773E+01  0.12760786426E+03  0.18315236684E+03  0.12000000000E+03 0.  0.
         25    1    3    3    0    0  0.53446102318E+02  0.21299305773E+01  0.26699699022E+03  0.29757085752E+03  0.12000000000E+03 0.  0.
<mgrwt>
<rscale>  0 0.27455751E+03</rscale>
<asrwt>0</asrwt>
<pdfrwt beam="1">  1        2 0.67332926E-01 0.27455751E+03</pdfrwt>
<pdfrwt beam="2">  1       -2 0.66244903E-02 0.27455751E+03</pdfrwt>
<totfact> 0.91176380E+03</totfact>
</mgrwt>
</event>
<event>
 5    1  0.1108889E+001  0.2745765E+03  0.7818608E-02  0.1098689E+00
          2   -1    0    0  501    0  0.00000000000E+00  0.00000000000E+00  0.99620716886E+03  0.99620716886E+03  0.00000000000E+00 0.  1.
         -2   -1    0    0    0  501 -0.00000000000E+00 -0.00000000000E+00 -0.18919817029E+02  0.18919817029E+02  0.00000000000E+00 0.  1.
         35    2    1    2    0    0  0.00000000000E+00  0.00000000000E+00  0.97728735183E+03  0.10151269859E+04  0.27457645462E+03 0.  0.
         25    1    3    3    0    0 -0.40775896637E+02 -0.31368688896E+02  0.64555736375E+03  0.65862810317E+03  0.12000000000E+03 0.  0.
         25    1    3    3    0    0  0.40775896637E+02  0.31368688896E+02  0.33172998808E+03  0.35649888272E+03  0.12000000000E+03 0.  0.
<mgrwt>
<rscale>  0 0.27457645E+03</rscale>
<asrwt>0</asrwt>
<pdfrwt beam="1">  1        2 0.15326260E+00 0.27457645E+03</pdfrwt>
<pdfrwt beam="2">  1       -2 0.29107419E-02 0.27457645E+03</pdfrwt>
<totfact> 0.11667330E+04</totfact>
</mgrwt>
</event>
<event>
 5    1  0.1108889E+001  0.2751693E+03  0.7818608E-02  0.1098357E+00
         -2   -1    0    0    0  501 -0.00000000000E+00  0.00000000000E+00  0.35821417521E+02  0.35821417521E+02  0.00000000000E+00 0.  1.
          2   -1    0    0  501    0  0.00000000000E+00 -0.00000000000E+00 -0.52844190638E+03  0.52844190638E+03  0.00000000000E+00 0.  1.
         35    2    1    2    0    0  0.00000000000E+00  0.00000000000E+00 -0.49262048886E+03  0.56426332390E+03  0.27516931634E+03 0.  0.
         25    1    3    3    0    0  0.46342751742E+02 -0.15309446562E+02 -0.15128275608E+03  0.19916953100E+03  0.12000000000E+03 0.  0.
         25    1    3    3    0    0 -0.46342751742E+02  0.15309446562E+02 -0.34133773278E+03  0.36509379289E+03  0.12000000000E+03 0.  0.
<mgrwt>
<rscale>  0 0.27516932E+03</rscale>
<asrwt>0</asrwt>
<pdfrwt beam="1">  1        2 0.81298748E-01 0.27516932E+03</pdfrwt>
<pdfrwt beam="2">  1       -2 0.55109878E-02 0.27516932E+03</pdfrwt>
<totfact> 0.98072258E+03</totfact>
</mgrwt>
</event>
<event>
 5    1  0.1108889E+001  0.2763385E+03  0.7818608E-02  0.1097706E+00
          3   -1    0    0  501    0  0.00000000000E+00  0.00000000000E+00  0.11815480920E+03  0.11815480920E+03  0.00000000000E+00 0. -1.
         -3   -1    0    0    0  501 -0.00000000000E+00 -0.00000000000E+00 -0.16157391689E+03  0.16157391689E+03  0.00000000000E+00 0. -1.
         35    2    1    2    0    0  0.00000000000E+00  0.00000000000E+00 -0.43419107687E+02  0.27972872610E+03  0.27633845424E+03 0.  0.
         25    1    3    3    0    0 -0.42740239585E+02  0.49110849671E+02 -0.18529449310E+00  0.13652339715E+03  0.12000000000E+03 0.  0.
         25    1    3    3    0    0  0.42740239585E+02 -0.49110849671E+02 -0.43233813194E+02  0.14320532895E+03  0.12000000000E+03 0.  0.
<mgrwt>
<rscale>  0 0.27633845E+03</rscale>
<asrwt>0</asrwt>
<pdfrwt beam="1">  1        3 0.18177663E-01 0.27633845E+03</pdfrwt>
<pdfrwt beam="2">  1       -3 0.24857526E-01 0.27633845E+03</pdfrwt>
<totfact> 0.10262639E+03</totfact>
</mgrwt>
</event>
<event>
 5    1  0.1108889E+001  0.2772905E+03  0.7818608E-02  0.1097178E+00
         -1   -1    0    0    0  501 -0.00000000000E+00  0.00000000000E+00  0.24210089457E+02  0.24210089457E+02  0.00000000000E+00 0. -1.
          1   -1    0    0  501    0  0.00000000000E+00 -0.00000000000E+00 -0.79398743585E+03  0.79398743585E+03  0.00000000000E+00 0. -1.
         35    2    1    2    0    0  0.00000000000E+00  0.00000000000E+00 -0.76977734639E+03  0.81819752531E+03  0.27729051084E+03 0.  0.
         25    1    3    3    0    0  0.61264826199E+02  0.31904939996E+02 -0.36377471344E+03  0.38923430766E+03  0.12000000000E+03 0.  0.
         25    1    3    3    0    0 -0.61264826199E+02 -0.31904939996E+02 -0.40600263295E+03  0.42896321764E+03  0.12000000000E+03 0.  0.
<mgrwt>
<rscale>  0 0.27729051E+03</rscale>
<asrwt>0</asrwt>
<pdfrwt beam="1">  1        1 0.12215191E+00 0.27729051E+03</pdfrwt>
<pdfrwt beam="2">  1       -1 0.37246292E-02 0.27729051E+03</pdfrwt>
<totfact> 0.63662488E+03</totfact>
</mgrwt>
</event>
<event>
 5    1  0.1108889E+001  0.2749657E+03  0.7818608E-02  0.1098471E+00
          2   -1    0    0  501    0  0.00000000000E+00  0.00000000000E+00  0.63578541468E+03  0.63578541468E+03  0.00000000000E+00 0.  1.
         -2   -1    0    0    0  501 -0.00000000000E+00 -0.00000000000E+00 -0.29729430455E+02  0.29729430455E+02  0.00000000000E+00 0.  1.
         35    2    1    2    0    0  0.00000000000E+00  0.00000000000E+00  0.60605598423E+03  0.66551484514E+03  0.27496573074E+03 0.  0.
         25    1    3    3    0    0  0.52860830908E+02  0.31388248034E+02  0.23799070380E+03  0.27353073804E+03  0.12000000000E+03 0.  0.
         25    1    3    3    0    0 -0.52860830908E+02 -0.31388248034E+02  0.36806528043E+03  0.39198410710E+03  0.12000000000E+03 0.  0.
<mgrwt>
<rscale>  0 0.27496573E+03</rscale>
<asrwt>0</asrwt>
<pdfrwt beam="1">  1        2 0.97813131E-01 0.27496573E+03</pdfrwt>
<pdfrwt beam="2">  1       -2 0.45737590E-02 0.27496573E+03</pdfrwt>
<totfact> 0.10519750E+04</totfact>
</mgrwt>
</event>
<event>
 5    1  0.1108889E+001  0.2721224E+03  0.7818608E-02  0.1100071E+00
          1   -1    0    0  501    0  0.00000000000E+00  0.00000000000E+00  0.82167482271E+03  0.82167482271E+03  0.00000000000E+00 0. -1.
         -1   -1    0    0    0  501 -0.00000000000E+00 -0.00000000000E+00 -0.22530382482E+02  0.22530382482E+02  0.00000000000E+00 0. -1.
         35    2    1    2    0    0  0.00000000000E+00  0.00000000000E+00  0.79914444023E+03  0.84420520520E+03  0.27212238446E+03 0.  0.
         25    1    3    3    0    0 -0.12431230228E+02  0.55301528664E+02  0.30651080406E+03  0.33400848426E+03  0.12000000000E+03 0.  0.
         25    1    3    3    0    0  0.12431230228E+02 -0.55301528664E+02  0.49263363618E+03  0.51019672093E+03  0.12000000000E+03 0.  0.
<mgrwt>
<rscale>  0 0.27212238E+03</rscale>
<asrwt>0</asrwt>
<pdfrwt beam="1">  1        1 0.12641149E+00 0.27212238E+03</pdfrwt>
<pdfrwt beam="2">  1       -1 0.34662133E-02 0.27212238E+03</pdfrwt>
<totfact> 0.67135418E+03</totfact>
</mgrwt>
</event>
<event>
 5    1  0.1108889E+001  0.2749975E+03  0.7818608E-02  0.1098453E+00
          2   -1    0    0  501    0  0.00000000000E+00  0.00000000000E+00  0.28897169935E+04  0.28897169935E+04  0.00000000000E+00 0. -1.
         -2   -1    0    0    0  501 -0.00000000000E+00 -0.00000000000E+00 -0.65424781695E+01  0.65424781695E+01  0.00000000000E+00 0. -1.
         35    2    1    2    0    0  0.00000000000E+00  0.00000000000E+00  0.28831745153E+04  0.28962594717E+04  0.27499752978E+03 0.  0.
         25    1    3    3    0    0  0.22065775722E+02 -0.60286389886E+02  0.12350528234E+04  0.12425283996E+04  0.12000000000E+03 0.  0.
         25    1    3    3    0    0 -0.22065775722E+02  0.60286389886E+02  0.16481216920E+04  0.16537310721E+04  0.12000000000E+03 0.  0.
<mgrwt>
<rscale>  0 0.27499753E+03</rscale>
<asrwt>0</asrwt>
<pdfrwt beam="1">  1        2 0.44457083E+00 0.27499753E+03</pdfrwt>
<pdfrwt beam="2">  1       -2 0.10065374E-02 0.27499753E+03</pdfrwt>
<totfact> 0.51079077E+03</totfact>
</mgrwt>
</event>
<event>
 5    1  0.1108889E+001  0.2759174E+03  0.7818608E-02  0.1097940E+00
         -3   -1    0    0    0  501 -0.00000000000E+00  0.00000000000E+00  0.91891478092E+02  0.91891478092E+02  0.00000000000E+00 0.  1.
          3   -1    0    0  501    0  0.00000000000E+00 -0.00000000000E+00 -0.20712046212E+03  0.20712046212E+03  0.00000000000E+00 0.  1.
         35    2    1    2    0    0  0.00000000000E+00  0.00000000000E+00 -0.11522898402E+03  0.29901194021E+03  0.27591741813E+03 0.  0.
         25    1    3    3    0    0 -0.30631782432E+02 -0.41658534441E+01  0.80987628661E+01  0.12418232720E+03  0.12000000000E+03 0.  0.
         25    1    3    3    0    0  0.30631782432E+02  0.41658534441E+01 -0.12332774689E+03  0.17482961300E+03  0.12000000000E+03 0.  0.
<mgrwt>
<rscale>  0 0.27591742E+03</rscale>
<asrwt>0</asrwt>
<pdfrwt beam="1">  1        3 0.31864686E-01 0.27591742E+03</pdfrwt>
<pdfrwt beam="2">  1       -3 0.14137151E-01 0.27591742E+03</pdfrwt>
<totfact> 0.10028396E+03</totfact>
</mgrwt>
</event>
<event>
 5    1  0.1108889E+001  0.2764890E+03  0.7818608E-02  0.1097622E+00
          2   -1    0    0  501    0  0.00000000000E+00  0.00000000000E+00  0.78095388412E+03  0.78095388412E+03  0.00000000000E+00 0.  1.
         -2   -1    0    0    0  501 -0.00000000000E+00 -0.00000000000E+00 -0.24472052635E+02  0.24472052635E+02  0.00000000000E+00 0.  1.
         35    2    1    2    0    0  0.00000000000E+00  0.00000000000E+00  0.75648183149E+03  0.80542593675E+03  0.27648902009E+03 0.  0.
         25    1    3    3    0    0  0.63226230902E+02 -0.25830256642E+02  0.35831555190E+03  0.38399842860E+03  0.12000000000E+03 0.  0.
         25    1    3    3    0    0 -0.63226230902E+02  0.25830256642E+02  0.39816627959E+03  0.42142750816E+03  0.12000000000E+03 0.  0.
<mgrwt>
<rscale>  0 0.27648902E+03</rscale>
<asrwt>0</asrwt>
<pdfrwt beam="1">  1        2 0.12014673E+00 0.27648902E+03</pdfrwt>
<pdfrwt beam="2">  1       -2 0.37649318E-02 0.27648902E+03</pdfrwt>
<totfact> 0.10982286E+04</totfact>
</mgrwt>
</event>
<event>
 5    1  0.1108889E+001  0.2745405E+03  0.7818608E-02  0.1098709E+00
          1   -1    0    0  501    0  0.00000000000E+00  0.00000000000E+00  0.14343507143E+03  0.14343507143E+03  0.00000000000E+00 0.  1.
         -1   -1    0    0    0  501 -0.00000000000E+00 -0.00000000000E+00 -0.13137040748E+03  0.13137040748E+03  0.00000000000E+00 0.  1.
         35    2    1    2    0    0  0.00000000000E+00  0.00000000000E+00  0.12064663941E+02  0.27480547891E+03  0.27454051636E+03 0.  0.
         25    1    3    3    0    0 -0.64060175706E+01  0.29715209222E+02  0.65411528508E+02  0.14000963818E+03  0.12000000000E+03 0.  0.
         25    1    3    3    0    0  0.64060175706E+01 -0.29715209222E+02 -0.53346864567E+02  0.13479584073E+03  0.12000000000E+03 0.  0.
<mgrwt>
<rscale>  0 0.27454052E+03</rscale>
<asrwt>0</asrwt>
<pdfrwt beam="1">  1        1 0.22066934E-01 0.27454052E+03</pdfrwt>
<pdfrwt beam="2">  1       -1 0.20210832E-01 0.27454052E+03</pdfrwt>
<totfact> 0.44257693E+03</totfact>
</mgrwt>
</event>
<event>
 5    1  0.1108889E+001  0.2750751E+03  0.7818608E-02  0.1098410E+00
          2   -1    0    0  501    0  0.00000000000E+00  0.00000000000E+00  0.76909280084E+03  0.76909280084E+03  0.00000000000E+00 0.  1.
         -2   -1    0    0    0  501 -0.00000000000E+00 -0.00000000000E+00 -0.24595956617E+02  0.24595956617E+02  0.00000000000E+00 0.  1.
         35    2    1    2    0    0  0.00000000000E+00  0.00000000000E+00  0.74449684423E+03  0.79368875746E+03  0.27507506731E+03 0.  0.
         25    1    3    3    0    0 -0.16727288089E+02  0.60309791506E+01  0.18524728945E+03  0.22143336046E+03  0.12000000000E+03 0.  0.
         25    1    3    3    0    0  0.16727288089E+02 -0.60309791506E+01  0.55924955478E+03  0.57225539700E+03  0.12000000000E+03 0.  0.
<mgrwt>
<rscale>  0 0.27507507E+03</rscale>
<asrwt>0</asrwt>
<pdfrwt beam="1">  1        2 0.11832195E+00 0.27507507E+03</pdfrwt>
<pdfrwt beam="2">  1       -2 0.37839939E-02 0.27507507E+03</pdfrwt>
<totfact> 0.11109170E+04</totfact>
</mgrwt>
</event>
<event>
 5    1  0.1108889E+001  0.2748680E+03  0.7818608E-02  0.1098525E+00
          1   -1    0    0  501    0  0.00000000000E+00  0.00000000000E+00  0.13156564927E+04  0.13156564927E+04  0.00000000000E+00 0. -1.
         -1   -1    0    0    0  501 -0.00000000000E+00 -0.00000000000E+00 -0.14356411803E+02  0.14356411803E+02  0.00000000000E+00 0. -1.
         35    2    1    2    0    0  0.00000000000E+00  0.00000000000E+00  0.13013000809E+04  0.13300129045E+04  0.27486801487E+03 0.  0.
         25    1    3    3    0    0 -0.64096293480E+02 -0.52612027756E+01  0.55985559077E+03  0.57617210763E+03  0.12000000000E+03 0.  0.
         25    1    3    3    0    0  0.64096293480E+02  0.52612027756E+01  0.74144449010E+03  0.75384079685E+03  0.12000000000E+03 0.  0.
<mgrwt>
<rscale>  0 0.27486801E+03</rscale>
<asrwt>0</asrwt>
<pdfrwt beam="1">  1        1 0.20240860E+00 0.27486801E+03</pdfrwt>
<pdfrwt beam="2">  1       -1 0.22086798E-02 0.27486801E+03</pdfrwt>
<totfact> 0.56431985E+03</totfact>
</mgrwt>
</event>
<event>
 5    1  0.1108889E+001  0.2745894E+03  0.7818608E-02  0.1098681E+00
          2   -1    0    0  501    0  0.00000000000E+00  0.00000000000E+00  0.46416031749E+03  0.46416031749E+03  0.00000000000E+00 0. -1.
         -2   -1    0    0    0  501 -0.00000000000E+00 -0.00000000000E+00 -0.40610599506E+02  0.40610599506E+02  0.00000000000E+00 0. -1.
         35    2    1    2    0    0  0.00000000000E+00  0.00000000000E+00  0.42354971799E+03  0.50477091700E+03  0.27458935712E+03 0.  0.
         25    1    3    3    0    0  0.29244985966E+02  0.12268261345E+02  0.10389377409E+03  0.16186320068E+03  0.12000000000E+03 0.  0.
         25    1    3    3    0    0 -0.29244985966E+02 -0.12268261345E+02  0.31965594390E+03  0.34290771632E+03  0.12000000000E+03 0.  0.
<mgrwt>
<rscale>  0 0.27458936E+03</rscale>
<asrwt>0</asrwt>
<pdfrwt beam="1">  1        2 0.71409276E-01 0.27458936E+03</pdfrwt>
<pdfrwt beam="2">  1       -2 0.62477849E-02 0.27458936E+03</pdfrwt>
<totfact> 0.93528067E+03</totfact>
</mgrwt>
</event>
<event>
 5    1  0.1108889E+001  0.2750094E+03  0.7818608E-02  0.1098446E+00
         -2   -1    0    0    0  501 -0.00000000000E+00  0.00000000000E+00  0.22088913338E+02  0.22088913338E+02  0.00000000000E+00 0. -1.
          2   -1    0    0  501    0  0.00000000000E+00 -0.00000000000E+00 -0.85597405004E+03  0.85597405004E+03  0.00000000000E+00 0. -1.
         35    2    1    2    0    0  0.00000000000E+00  0.00000000000E+00 -0.83388513671E+03  0.87806296338E+03  0.27500935701E+03 0.  0.
         25    1    3    3    0    0 -0.16632468532E+02  0.57336155395E+02 -0.31887156949E+03  0.34589471166E+03  0.12000000000E+03 0.  0.
         25    1    3    3    0    0  0.16632468532E+02 -0.57336155395E+02 -0.51501356722E+03  0.53216825172E+03  0.12000000000E+03 0.  0.
<mgrwt>
<rscale>  0 0.27500936E+03</rscale>
<asrwt>0</asrwt>
<pdfrwt beam="1">  1        2 0.13168832E+00 0.27500936E+03</pdfrwt>
<pdfrwt beam="2">  1       -2 0.33982942E-02 0.27500936E+03</pdfrwt>
<totfact> 0.11378478E+04</totfact>
</mgrwt>
</event>
<event>
 5    1  0.1108889E+001  0.2753894E+03  0.7818608E-02  0.1098234E+00
          2   -1    0    0  501    0  0.00000000000E+00  0.00000000000E+00  0.26216672767E+04  0.26216672767E+04  0.00000000000E+00 0.  1.
         -2   -1    0    0    0  501 -0.00000000000E+00 -0.00000000000E+00 -0.72319737034E+01  0.72319737034E+01  0.00000000000E+00 0.  1.
         35    2    1    2    0    0  0.00000000000E+00  0.00000000000E+00  0.26144353030E+04  0.26288992505E+04  0.27538938835E+03 0.  0.
         25    1    3    3    0    0 -0.80626158805E+01  0.66538097442E+02  0.12287856163E+04  0.12364491154E+04  0.12000000000E+03 0.  0.
         25    1    3    3    0    0  0.80626158805E+01 -0.66538097442E+02  0.13856496868E+04  0.13924501350E+04  0.12000000000E+03 0.  0.
<mgrwt>
<rscale>  0 0.27538939E+03</rscale>
<asrwt>0</asrwt>
<pdfrwt beam="1">  1        2 0.40333267E+00 0.27538939E+03</pdfrwt>
<pdfrwt beam="2">  1       -2 0.11126134E-02 0.27538939E+03</pdfrwt>
<totfact> 0.62709279E+03</totfact>
</mgrwt>
</event>
<event>
 5    1  0.1108889E+001  0.2751174E+03  0.7818608E-02  0.1098386E+00
          1   -1    0    0  501    0  0.00000000000E+00  0.00000000000E+00  0.83002950022E+03  0.83002950022E+03  0.00000000000E+00 0. -1.
         -1   -1    0    0    0  501 -0.00000000000E+00 -0.00000000000E+00 -0.22797262863E+02  0.22797262863E+02  0.00000000000E+00 0. -1.
         35    2    1    2    0    0  0.00000000000E+00  0.00000000000E+00  0.80723223736E+03  0.85282676308E+03  0.27511743456E+03 0.  0.
         25    1    3    3    0    0  0.32963459553E+02 -0.20052951776E+02  0.23287885414E+03  0.26480421305E+03  0.12000000000E+03 0.  0.
         25    1    3    3    0    0 -0.32963459553E+02  0.20052951776E+02  0.57435338322E+03  0.58802255004E+03  0.12000000000E+03 0.  0.
<mgrwt>
<rscale>  0 0.27511743E+03</rscale>
<asrwt>0</asrwt>
<pdfrwt beam="1">  1        1 0.12769682E+00 0.27511743E+03</pdfrwt>
<pdfrwt beam="2">  1       -1 0.35072718E-02 0.27511743E+03</pdfrwt>
<totfact> 0.64958319E+03</totfact>
</mgrwt>
</event>
<event>
 5    1  0.1108889E+001  0.2765866E+03  0.7818608E-02  0.1097568E+00
          1   -1    0    0  501    0  0.00000000000E+00  0.00000000000E+00  0.76010699112E+03  0.76010699112E+03  0.00000000000E+00 0. -1.
         -1   -1    0    0    0  501 -0.00000000000E+00 -0.00000000000E+00 -0.25160983717E+02  0.25160983717E+02  0.00000000000E+00 0. -1.
         35    2    1    2    0    0  0.00000000000E+00  0.00000000000E+00  0.73494600740E+03  0.78526797483E+03  0.27658662026E+03 0.  0.
         25    1    3    3    0    0  0.13301763518E+02  0.67439599785E+02  0.36731506589E+03  0.39248617067E+03  0.12000000000E+03 0.  0.
         25    1    3    3    0    0 -0.13301763518E+02 -0.67439599785E+02  0.36763094151E+03  0.39278180417E+03  0.12000000000E+03 0.  0.
<mgrwt>
<rscale>  0 0.27658662E+03</rscale>
<asrwt>0</asrwt>
<pdfrwt beam="1">  1        1 0.11693952E+00 0.27658662E+03</pdfrwt>
<pdfrwt beam="2">  1       -1 0.38709212E-02 0.27658662E+03</pdfrwt>
<totfact> 0.64241023E+03</totfact>
</mgrwt>
</event>
<event>
 5    1  0.1108889E+001  0.2751531E+03  0.7818608E-02  0.1098366E+00
          2   -1    0    0  501    0  0.00000000000E+00  0.00000000000E+00  0.85890582287E+02  0.85890582287E+02  0.00000000000E+00 0.  1.
         -2   -1    0    0    0  501 -0.00000000000E+00 -0.00000000000E+00 -0.22036538200E+03  0.22036538200E+03  0.00000000000E+00 0.  1.
         35    2    1    2    0    0  0.00000000000E+00  0.00000000000E+00 -0.13447479971E+03  0.30625596429E+03  0.27515312810E+03 0.  0.
         25    1    3    3    0    0 -0.64531465071E+02  0.16659256248E+02 -0.56947352056E+02  0.14860969588E+03  0.12000000000E+03 0.  0.
         25    1    3    3    0    0  0.64531465071E+02 -0.16659256248E+02 -0.77527447656E+02  0.15764626841E+03  0.12000000000E+03 0.  0.
<mgrwt>
<rscale>  0 0.27515313E+03</rscale>
<asrwt>0</asrwt>
<pdfrwt beam="1">  1        2 0.13213936E-01 0.27515313E+03</pdfrwt>
<pdfrwt beam="2">  1       -2 0.33902367E-01 0.27515313E+03</pdfrwt>
<totfact> 0.36846959E+03</totfact>
</mgrwt>
</event>
<event>
 5    1  0.1108889E+001  0.2693307E+03  0.7818608E-02  0.1101663E+00
          2   -1    0    0  501    0  0.00000000000E+00  0.00000000000E+00  0.13704617517E+04  0.13704617517E+04  0.00000000000E+00 0.  1.
         -2   -1    0    0    0  501 -0.00000000000E+00 -0.00000000000E+00 -0.13232590042E+02  0.13232590042E+02  0.00000000000E+00 0.  1.
         35    2    1    2    0    0  0.00000000000E+00  0.00000000000E+00  0.13572291617E+04  0.13836943417E+04  0.26933071514E+03 0.  0.
         25    1    3    3    0    0 -0.43592619563E+01  0.60383050005E+02  0.63574079026E+03  0.64979340431E+03  0.12000000000E+03 0.  0.
         25    1    3    3    0    0  0.43592619563E+01 -0.60383050005E+02  0.72148837140E+03  0.73390093743E+03  0.12000000000E+03 0.  0.
<mgrwt>
<rscale>  0 0.26933072E+03</rscale>
<asrwt>0</asrwt>
<pdfrwt beam="1">  1        2 0.21084016E+00 0.26933072E+03</pdfrwt>
<pdfrwt beam="2">  1       -2 0.20357842E-02 0.26933072E+03</pdfrwt>
<totfact> 0.12066978E+04</totfact>
</mgrwt>
</event>
<event>
 5    1  0.1108889E+001  0.2753131E+03  0.7818608E-02  0.1098277E+00
          2   -1    0    0  501    0  0.00000000000E+00  0.00000000000E+00  0.29327533056E+04  0.29327533056E+04  0.00000000000E+00 0.  1.
         -2   -1    0    0    0  501 -0.00000000000E+00 -0.00000000000E+00 -0.64612771243E+01  0.64612771243E+01  0.00000000000E+00 0.  1.
         35    2    1    2    0    0  0.00000000000E+00  0.00000000000E+00  0.29262920285E+04  0.29392145827E+04  0.27531314422E+03 0.  0.
         25    1    3    3    0    0  0.38883862456E+02  0.55075481284E+02  0.14846797139E+04  0.14910463159E+04  0.12000000000E+03 0.  0.
         25    1    3    3    0    0 -0.38883862456E+02 -0.55075481284E+02  0.14416123146E+04  0.14481682668E+04  0.12000000000E+03 0.  0.
<mgrwt>
<rscale>  0 0.27531314E+03</rscale>
<asrwt>0</asrwt>
<pdfrwt beam="1">  1        2 0.45119175E+00 0.27531314E+03</pdfrwt>
<pdfrwt beam="2">  1       -2 0.99404498E-03 0.27531314E+03</pdfrwt>
<totfact> 0.49092177E+03</totfact>
</mgrwt>
</event>
<event>
 5    1  0.1108889E+001  0.2749868E+03  0.7818608E-02  0.1098459E+00
         -2   -1    0    0    0  501 -0.00000000000E+00  0.00000000000E+00  0.34970326492E+02  0.34970326492E+02  0.00000000000E+00 0. -1.
          2   -1    0    0  501    0  0.00000000000E+00 -0.00000000000E+00 -0.54058487916E+03  0.54058487916E+03  0.00000000000E+00 0. -1.
         35    2    1    2    0    0  0.00000000000E+00  0.00000000000E+00 -0.50561455267E+03  0.57555520565E+03  0.27498676129E+03 0.  0.
         25    1    3    3    0    0 -0.42646245295E+02 -0.26609176069E+02 -0.15972797244E+03  0.20600916404E+03  0.12000000000E+03 0.  0.
         25    1    3    3    0    0  0.42646245295E+02  0.26609176069E+02 -0.34588658023E+03  0.36954604162E+03  0.12000000000E+03 0.  0.
<mgrwt>
<rscale>  0 0.27498676E+03</rscale>
<asrwt>0</asrwt>
<pdfrwt beam="1">  1        2 0.83166908E-01 0.27498676E+03</pdfrwt>
<pdfrwt beam="2">  1       -2 0.53800500E-02 0.27498676E+03</pdfrwt>
<totfact> 0.99151336E+03</totfact>
</mgrwt>
</event>
<event>
 5    1  0.1108889E+001  0.2749492E+03  0.7818608E-02  0.1098480E+00
         -2   -1    0    0    0  501 -0.00000000000E+00  0.00000000000E+00  0.19125188289E+02  0.19125188289E+02  0.00000000000E+00 0. -1.
          2   -1    0    0  501    0  0.00000000000E+00 -0.00000000000E+00 -0.98818715514E+03  0.98818715514E+03  0.00000000000E+00 0. -1.
         35    2    1    2    0    0  0.00000000000E+00  0.00000000000E+00 -0.96906196685E+03  0.10073123434E+04  0.27494919827E+03 0.  0.
         25    1    3    3    0    0 -0.16612227251E+02 -0.59796437716E+02 -0.39129281474E+03  0.41395850869E+03  0.12000000000E+03 0.  0.
         25    1    3    3    0    0  0.16612227251E+02  0.59796437716E+02 -0.57776915212E+03  0.59335383473E+03  0.12000000000E+03 0.  0.
<mgrwt>
<rscale>  0 0.27494920E+03</rscale>
<asrwt>0</asrwt>
<pdfrwt beam="1">  1        2 0.15202881E+00 0.27494920E+03</pdfrwt>
<pdfrwt beam="2">  1       -2 0.29423364E-02 0.27494920E+03</pdfrwt>
<totfact> 0.11613109E+04</totfact>
</mgrwt>
</event>
<event>
 5    1  0.1108889E+001  0.2752078E+03  0.7818608E-02  0.1098335E+00
          1   -1    0    0  501    0  0.00000000000E+00  0.00000000000E+00  0.28689747740E+02  0.28689747740E+02  0.00000000000E+00 0. -1.
         -1   -1    0    0    0  501 -0.00000000000E+00 -0.00000000000E+00 -0.65998627784E+03  0.65998627784E+03  0.00000000000E+00 0. -1.
         35    2    1    2    0    0  0.00000000000E+00  0.00000000000E+00 -0.63129653010E+03  0.68867602558E+03  0.27520784744E+03 0.  0.
         25    1    3    3    0    0 -0.45538772270E+02 -0.48177747546E+02 -0.34525315056E+03  0.37147626184E+03  0.12000000000E+03 0.  0.
         25    1    3    3    0    0  0.45538772270E+02  0.48177747546E+02 -0.28604337955E+03  0.31719976375E+03  0.12000000000E+03 0.  0.
<mgrwt>
<rscale>  0 0.27520785E+03</rscale>
<asrwt>0</asrwt>
<pdfrwt beam="1">  1        1 0.44138073E-02 0.27520785E+03</pdfrwt>
<pdfrwt beam="2">  1       -1 0.10153635E+00 0.27520785E+03</pdfrwt>
<totfact> 0.19276497E+03</totfact>
</mgrwt>
</event>
<event>
 5    1  0.1108889E+001  0.2743478E+03  0.7818608E-02  0.1098817E+00
         -1   -1    0    0    0  501 -0.00000000000E+00  0.00000000000E+00  0.12647112025E+04  0.12647112025E+04  0.00000000000E+00 0. -1.
          1   -1    0    0  501    0  0.00000000000E+00 -0.00000000000E+00 -0.14878240072E+02  0.14878240072E+02  0.00000000000E+00 0. -1.
         35    2    1    2    0    0  0.00000000000E+00  0.00000000000E+00  0.12498329624E+04  0.12795894425E+04  0.27434778579E+03 0.  0.
         25    1    3    3    0    0  0.40617143320E+02 -0.31259017836E+02  0.82223654275E+03  0.83252616221E+03  0.12000000000E+03 0.  0.
         25    1    3    3    0    0 -0.40617143320E+02  0.31259017836E+02  0.42759641964E+03  0.44706328032E+03  0.12000000000E+03 0.  0.
<mgrwt>
<rscale>  0 0.27434779E+03</rscale>
<asrwt>0</asrwt>
<pdfrwt beam="1">  1        1 0.22889610E-02 0.27434779E+03</pdfrwt>
<pdfrwt beam="2">  1       -1 0.19457087E+00 0.27434779E+03</pdfrwt>
<totfact> 0.90740178E+02</totfact>
</mgrwt>
</event>
<event>
 5    1  0.1108889E+001  0.2753097E+03  0.7818608E-02  0.1098279E+00
          2   -1    0    0  501    0  0.00000000000E+00  0.00000000000E+00  0.69784877067E+03  0.69784877067E+03  0.00000000000E+00 0. -1.
         -2   -1    0    0    0  501 -0.00000000000E+00 -0.00000000000E+00 -0.27153249476E+02  0.27153249476E+02  0.00000000000E+00 0. -1.
         35    2    1    2    0    0  0.00000000000E+00  0.00000000000E+00  0.67069552119E+03  0.72500202014E+03  0.27530972933E+03 0.  0.
         25    1    3    3    0    0  0.29564912939E+02  0.59588113597E+02  0.30601933536E+03  0.33536943953E+03  0.12000000000E+03 0.  0.
         25    1    3    3    0    0 -0.29564912939E+02 -0.59588113597E+02  0.36467618583E+03  0.38963258061E+03  0.12000000000E+03 0.  0.
<mgrwt>
<rscale>  0 0.27530973E+03</rscale>
<asrwt>0</asrwt>
<pdfrwt beam="1">  1        2 0.10736134E+00 0.27530973E+03</pdfrwt>
<pdfrwt beam="2">  1       -2 0.41774235E-02 0.27530973E+03</pdfrwt>
<totfact> 0.10792444E+04</totfact>
</mgrwt>
</event>
<event>
 5    1  0.1108889E+001  0.2750072E+03  0.7818608E-02  0.1098448E+00
         -2   -1    0    0    0  501 -0.00000000000E+00  0.00000000000E+00  0.16611443647E+02  0.16611443647E+02  0.00000000000E+00 0.  1.
          2   -1    0    0  501    0  0.00000000000E+00 -0.00000000000E+00 -0.11382059369E+04  0.11382059369E+04  0.00000000000E+00 0.  1.
         35    2    1    2    0    0  0.00000000000E+00  0.00000000000E+00 -0.11215944932E+04  0.11548173805E+04  0.27500722738E+03 0.  0.
         25    1    3    3    0    0  0.43166872984E+02  0.50601269965E+02 -0.52245384846E+03  0.54016839153E+03  0.12000000000E+03 0.  0.
         25    1    3    3    0    0 -0.43166872984E+02 -0.50601269965E+02 -0.59914064476E+03  0.61464898897E+03  0.12000000000E+03 0.  0.
<mgrwt>
<rscale>  0 0.27500723E+03</rscale>
<asrwt>0</asrwt>
<pdfrwt beam="1">  1        2 0.17510859E+00 0.27500723E+03</pdfrwt>
<pdfrwt beam="2">  1       -2 0.25556069E-02 0.27500723E+03</pdfrwt>
<totfact> 0.11648853E+04</totfact>
</mgrwt>
</event>
<event>
 5    1  0.1108889E+001  0.2752689E+03  0.7818608E-02  0.1098301E+00
          1   -1    0    0  501    0  0.00000000000E+00  0.00000000000E+00  0.28644513141E+03  0.28644513141E+03  0.00000000000E+00 0.  1.
         -1   -1    0    0    0  501 -0.00000000000E+00 -0.00000000000E+00 -0.66132162933E+02  0.66132162933E+02  0.00000000000E+00 0.  1.
         35    2    1    2    0    0  0.00000000000E+00  0.00000000000E+00  0.22031296848E+03  0.35257729435E+03  0.27526885841E+03 0.  0.
         25    1    3    3    0    0  0.28996229624E+02  0.60274605252E+02  0.12082884798E+03  0.18295742640E+03  0.12000000000E+03 0.  0.
         25    1    3    3    0    0 -0.28996229624E+02 -0.60274605252E+02  0.99484120502E+02  0.16961986795E+03  0.12000000000E+03 0.  0.
<mgrwt>
<rscale>  0 0.27526886E+03</rscale>
<asrwt>0</asrwt>
<pdfrwt beam="1">  1        1 0.44068481E-01 0.27526886E+03</pdfrwt>
<pdfrwt beam="2">  1       -1 0.10174179E-01 0.27526886E+03</pdfrwt>
<totfact> 0.54769673E+03</totfact>
</mgrwt>
</event>
<event>
 5    1  0.1108889E+001  0.2793746E+03  0.7818608E-02  0.1096031E+00
          1   -1    0    0  501    0  0.00000000000E+00  0.00000000000E+00  0.25579979876E+03  0.25579979876E+03  0.00000000000E+00 0. -1.
         -1   -1    0    0    0  501 -0.00000000000E+00 -0.00000000000E+00 -0.76280515848E+02  0.76280515848E+02  0.00000000000E+00 0. -1.
         35    2    1    2    0    0  0.00000000000E+00  0.00000000000E+00  0.17951928291E+03  0.33208031461E+03  0.27937459157E+03 0.  0.
         25    1    3    3    0    0 -0.14190926504E+02 -0.47592652135E+02  0.15090438975E+03  0.19909439414E+03  0.12000000000E+03 0.  0.
         25    1    3    3    0    0  0.14190926504E+02  0.47592652135E+02  0.28614893165E+02  0.13298592047E+03  0.12000000000E+03 0.  0.
<mgrwt>
<rscale>  0 0.27937459E+03</rscale>
<asrwt>0</asrwt>
<pdfrwt beam="1">  1        1 0.39353815E-01 0.27937459E+03</pdfrwt>
<pdfrwt beam="2">  1       -1 0.11735464E-01 0.27937459E+03</pdfrwt>
<totfact> 0.50593766E+03</totfact>
</mgrwt>
</event>
<event>
 5    1  0.1108889E+001  0.2764880E+03  0.7818608E-02  0.1097623E+00
         -2   -1    0    0    0  501 -0.00000000000E+00  0.00000000000E+00  0.51768412148E+02  0.51768412148E+02  0.00000000000E+00 0.  1.
          2   -1    0    0  501    0  0.00000000000E+00 -0.00000000000E+00 -0.36917106228E+03  0.36917106228E+03  0.00000000000E+00 0.  1.
         35    2    1    2    0    0  0.00000000000E+00  0.00000000000E+00 -0.31740265013E+03  0.42093947443E+03  0.27648797229E+03 0.  0.
         25    1    3    3    0    0 -0.42750110427E+02  0.31465438765E+02 -0.22495426953E+03  0.26042670592E+03  0.12000000000E+03 0.  0.
         25    1    3    3    0    0  0.42750110427E+02 -0.31465438765E+02 -0.92448380608E+02  0.16051276851E+03  0.12000000000E+03 0.  0.
<mgrwt>
<rscale>  0 0.27648797E+03</rscale>
<asrwt>0</asrwt>
<pdfrwt beam="1">  1        2 0.56795547E-01 0.27648797E+03</pdfrwt>
<pdfrwt beam="2">  1       -2 0.79643712E-02 0.27648797E+03</pdfrwt>
<totfact> 0.82457929E+03</totfact>
</mgrwt>
</event>
<event>
 5    1  0.1108889E+001  0.2745286E+03  0.7818608E-02  0.1098715E+00
          1   -1    0    0  501    0  0.00000000000E+00  0.00000000000E+00  0.11323033048E+04  0.11323033048E+04  0.00000000000E+00 0. -1.
         -1   -1    0    0    0  501 -0.00000000000E+00 -0.00000000000E+00 -0.16639961401E+02  0.16639961401E+02  0.00000000000E+00 0. -1.
         35    2    1    2    0    0  0.00000000000E+00  0.00000000000E+00  0.11156633434E+04  0.11489432662E+04  0.27452856526E+03 0.  0.
         25    1    3    3    0    0  0.22605406415E+02 -0.39695540171E+02  0.76091898717E+03  0.77167638641E+03  0.12000000000E+03 0.  0.
         25    1    3    3    0    0 -0.22605406415E+02  0.39695540171E+02  0.35474435620E+03  0.37726687976E+03  0.12000000000E+03 0.  0.
<mgrwt>
<rscale>  0 0.27452857E+03</rscale>
<asrwt>0</asrwt>
<pdfrwt beam="1">  1        1 0.17420045E+00 0.27452857E+03</pdfrwt>
<pdfrwt beam="2">  1       -1 0.25599950E-02 0.27452857E+03</pdfrwt>
<totfact> 0.60964563E+03</totfact>
</mgrwt>
</event>
<event>
 5    1  0.1108889E+001  0.2748933E+03  0.7818608E-02  0.1098511E+00
         -1   -1    0    0    0  501 -0.00000000000E+00  0.00000000000E+00  0.27373805113E+02  0.27373805113E+02  0.00000000000E+00 0. -1.
          1   -1    0    0  501    0  0.00000000000E+00 -0.00000000000E+00 -0.69013333383E+03  0.69013333383E+03  0.00000000000E+00 0. -1.
         35    2    1    2    0    0  0.00000000000E+00  0.00000000000E+00 -0.66275952872E+03  0.71750713894E+03  0.27489325479E+03 0.  0.
         25    1    3    3    0    0 -0.26355388011E+02 -0.57471183675E+02 -0.38939467960E+03  0.41234179988E+03  0.12000000000E+03 0.  0.
         25    1    3    3    0    0  0.26355388011E+02  0.57471183675E+02 -0.27336484912E+03  0.30516533906E+03  0.12000000000E+03 0.  0.
<mgrwt>
<rscale>  0 0.27489325E+03</rscale>
<asrwt>0</asrwt>
<pdfrwt beam="1">  1        1 0.10617436E+00 0.27489325E+03</pdfrwt>
<pdfrwt beam="2">  1       -1 0.42113548E-02 0.27489325E+03</pdfrwt>
<totfact> 0.65356258E+03</totfact>
</mgrwt>
</event>
<event>
 5    1  0.1108889E+001  0.2741691E+03  0.7818608E-02  0.1098917E+00
         -1   -1    0    0    0  501 -0.00000000000E+00  0.00000000000E+00  0.93688201013E+02  0.93688201013E+02  0.00000000000E+00 0. -1.
          1   -1    0    0  501    0  0.00000000000E+00 -0.00000000000E+00 -0.20058204523E+03  0.20058204523E+03  0.00000000000E+00 0. -1.
         35    2    1    2    0    0  0.00000000000E+00  0.00000000000E+00 -0.10689384421E+03  0.29427024624E+03  0.27416907902E+03 0.  0.
         25    1    3    3    0    0  0.45441941717E+02 -0.39160849093E+01 -0.18398605124E+01  0.12838882691E+03  0.12000000000E+03 0.  0.
         25    1    3    3    0    0 -0.45441941717E+02  0.39160849093E+01 -0.10505398370E+03  0.16588141933E+03  0.12000000000E+03 0.  0.
<mgrwt>
<rscale>  0 0.27416908E+03</rscale>
<asrwt>0</asrwt>
<pdfrwt beam="1">  1        1 0.30858776E-01 0.27416908E+03</pdfrwt>
<pdfrwt beam="2">  1       -1 0.14413569E-01 0.27416908E+03</pdfrwt>
<totfact> 0.49704243E+03</totfact>
</mgrwt>
</event>
<event>
 5    1  0.1108889E+001  0.2736774E+03  0.7818608E-02  0.1099193E+00
         -2   -1    0    0    0  501 -0.00000000000E+00  0.00000000000E+00  0.92038459974E+01  0.92038459974E+01  0.00000000000E+00 0.  1.
          2   -1    0    0  501    0  0.00000000000E+00 -0.00000000000E+00 -0.20344566249E+04  0.20344566249E+04  0.00000000000E+00 0.  1.
         35    2    1    2    0    0  0.00000000000E+00  0.00000000000E+00 -0.20252527789E+04  0.20436604709E+04  0.27367736818E+03 0.  0.
         25    1    3    3    0    0 -0.27407870435E+02  0.55551935104E+02 -0.11775220037E+04  0.11852405992E+04  0.12000000000E+03 0.  0.
         25    1    3    3    0    0  0.27407870435E+02 -0.55551935104E+02 -0.84773077523E+03  0.85841987170E+03  0.12000000000E+03 0.  0.
<mgrwt>
<rscale>  0 0.27367737E+03</rscale>
<asrwt>0</asrwt>
<pdfrwt beam="1">  1        2 0.31299349E+00 0.27367737E+03</pdfrwt>
<pdfrwt beam="2">  1       -2 0.14159756E-02 0.27367737E+03</pdfrwt>
<totfact> 0.91459920E+03</totfact>
</mgrwt>
</event>
<event>
 5    1  0.1108889E+001  0.2750648E+03  0.7818608E-02  0.1098415E+00
          2   -1    0    0  501    0  0.00000000000E+00  0.00000000000E+00  0.94407809807E+02  0.94407809807E+02  0.00000000000E+00 0. -1.
         -2   -1    0    0    0  501 -0.00000000000E+00 -0.00000000000E+00 -0.20035594926E+03  0.20035594926E+03  0.00000000000E+00 0. -1.
         35    2    1    2    0    0  0.00000000000E+00  0.00000000000E+00 -0.10594813945E+03  0.29476375907E+03  0.27506483855E+03 0.  0.
         25    1    3    3    0    0  0.10938310199E+02 -0.47080512207E+02 -0.29519430886E+01  0.12940222265E+03  0.12000000000E+03 0.  0.
         25    1    3    3    0    0 -0.10938310199E+02  0.47080512207E+02 -0.10299619636E+03  0.16536153641E+03  0.12000000000E+03 0.  0.
<mgrwt>
<rscale>  0 0.27506484E+03</rscale>
<asrwt>0</asrwt>
<pdfrwt beam="1">  1        2 0.14524279E-01 0.27506484E+03</pdfrwt>
<pdfrwt beam="2">  1       -2 0.30823992E-01 0.27506484E+03</pdfrwt>
<totfact> 0.39199685E+03</totfact>
</mgrwt>
</event>
<event>
 5    1  0.1108889E+001  0.2742375E+03  0.7818608E-02  0.1098879E+00
         -2   -1    0    0    0  501 -0.00000000000E+00  0.00000000000E+00  0.70611680640E+01  0.70611680640E+01  0.00000000000E+00 0.  1.
          2   -1    0    0  501    0  0.00000000000E+00 -0.00000000000E+00 -0.26626684217E+04  0.26626684217E+04  0.00000000000E+00 0.  1.
         35    2    1    2    0    0  0.00000000000E+00  0.00000000000E+00 -0.26556072536E+04  0.26697295897E+04  0.27423748266E+03 0.  0.
         25    1    3    3    0    0 -0.13113968658E+02 -0.16715213797E+01 -0.19607184034E+04  0.19644315787E+04  0.12000000000E+03 0.  0.
         25    1    3    3    0    0  0.13113968658E+02  0.16715213797E+01 -0.69488885021E+03  0.70529801099E+03  0.12000000000E+03 0.  0.
<mgrwt>
<rscale>  0 0.27423748E+03</rscale>
<asrwt>0</asrwt>
<pdfrwt beam="1">  1        2 0.40964102E+00 0.27423748E+03</pdfrwt>
<pdfrwt beam="2">  1       -2 0.10863343E-02 0.27423748E+03</pdfrwt>
<totfact> 0.61595650E+03</totfact>
</mgrwt>
</event>
<event>
 5    1  0.1108889E+001  0.2742862E+03  0.7818608E-02  0.1098851E+00
          2   -1    0    0  501    0  0.00000000000E+00  0.00000000000E+00  0.18510267119E+04  0.18510267119E+04  0.00000000000E+00 0. -1.
         -2   -1    0    0    0  501 -0.00000000000E+00 -0.00000000000E+00 -0.10160974734E+02  0.10160974734E+02  0.00000000000E+00 0. -1.
         35    2    1    2    0    0  0.00000000000E+00  0.00000000000E+00  0.18408657372E+04  0.18611876866E+04  0.27428624211E+03 0.  0.
         25    1    3    3    0    0  0.57387591429E+02 -0.31038266626E+02  0.10039604172E+04  0.10132093707E+04  0.12000000000E+03 0.  0.
         25    1    3    3    0    0 -0.57387591429E+02  0.31038266626E+02  0.83690531996E+03  0.84797831589E+03  0.12000000000E+03 0.  0.
<mgrwt>
<rscale>  0 0.27428624E+03</rscale>
<asrwt>0</asrwt>
<pdfrwt beam="1">  1        2 0.28477307E+00 0.27428624E+03</pdfrwt>
<pdfrwt beam="2">  1       -2 0.15632284E-02 0.27428624E+03</pdfrwt>
<totfact> 0.98804936E+03</totfact>
</mgrwt>
</event>
<event>
 5    1  0.1108889E+001  0.2759070E+03  0.7818608E-02  0.1097946E+00
          1   -1    0    0  501    0  0.00000000000E+00  0.00000000000E+00  0.20890444534E+03  0.20890444534E+03  0.00000000000E+00 0. -1.
         -1   -1    0    0    0  501 -0.00000000000E+00 -0.00000000000E+00 -0.91099886340E+02  0.91099886340E+02  0.00000000000E+00 0. -1.
         35    2    1    2    0    0  0.00000000000E+00  0.00000000000E+00  0.11780455900E+03  0.30000433168E+03  0.27590702221E+03 0.  0.
         25    1    3    3    0    0 -0.60259764970E+02 -0.27320524468E+02  0.41589306520E+02  0.14320377351E+03  0.12000000000E+03 0.  0.
         25    1    3    3    0    0  0.60259764970E+02  0.27320524468E+02  0.76215252484E+02  0.15680055817E+03  0.12000000000E+03 0.  0.
<mgrwt>
<rscale>  0 0.27590702E+03</rscale>
<asrwt>0</asrwt>
<pdfrwt beam="1">  1        1 0.32139145E-01 0.27590702E+03</pdfrwt>
<pdfrwt beam="2">  1       -1 0.14015367E-01 0.27590702E+03</pdfrwt>
<totfact> 0.49370617E+03</totfact>
</mgrwt>
</event>
<event>
 5    1  0.1108889E+001  0.2765060E+03  0.7818608E-02  0.1097613E+00
          2   -1    0    0  501    0  0.00000000000E+00  0.00000000000E+00  0.66465803791E+03  0.66465803791E+03  0.00000000000E+00 0. -1.
         -2   -1    0    0    0  501 -0.00000000000E+00 -0.00000000000E+00 -0.28757488929E+02  0.28757488929E+02  0.00000000000E+00 0. -1.
         35    2    1    2    0    0  0.00000000000E+00  0.00000000000E+00  0.63590054898E+03  0.69341552684E+03  0.27650603007E+03 0.  0.
         25    1    3    3    0    0 -0.23618859417E+02  0.76352560084E+00  0.47960881296E+03  0.49495762138E+03  0.12000000000E+03 0.  0.
         25    1    3    3    0    0  0.23618859417E+02 -0.76352560084E+00  0.15629173602E+03  0.19845790546E+03  0.12000000000E+03 0.  0.
<mgrwt>
<rscale>  0 0.27650603E+03</rscale>
<asrwt>0</asrwt>
<pdfrwt beam="1">  1        2 0.10225507E+00 0.27650603E+03</pdfrwt>
<pdfrwt beam="2">  1       -2 0.44242296E-02 0.27650603E+03</pdfrwt>
<totfact> 0.10496235E+04</totfact>
</mgrwt>
</event>
<event>
 5    1  0.1108889E+001  0.2724871E+03  0.7818608E-02  0.1099865E+00
         -1   -1    0    0    0  501 -0.00000000000E+00  0.00000000000E+00  0.39803378854E+02  0.39803378854E+02  0.00000000000E+00 0.  1.
          1   -1    0    0  501    0  0.00000000000E+00 -0.00000000000E+00 -0.46635009410E+03  0.46635009410E+03  0.00000000000E+00 0.  1.
         35    2    1    2    0    0  0.00000000000E+00  0.00000000000E+00 -0.42654671525E+03  0.50615347295E+03  0.27248713345E+03 0.  0.
         25    1    3    3    0    0  0.50495805296E+02 -0.75485929295E+01 -0.14001258590E+03  0.19133826543E+03  0.12000000000E+03 0.  0.
         25    1    3    3    0    0 -0.50495805296E+02  0.75485929295E+01 -0.28653412935E+03  0.31481520752E+03  0.12000000000E+03 0.  0.
<mgrwt>
<rscale>  0 0.27248713E+03</rscale>
<asrwt>0</asrwt>
<pdfrwt beam="1">  1        1 0.71746169E-01 0.27248713E+03</pdfrwt>
<pdfrwt beam="2">  1       -1 0.61235967E-02 0.27248713E+03</pdfrwt>
<totfact> 0.63834935E+03</totfact>
</mgrwt>
</event>
<event>
 5    1  0.1108889E+001  0.2744222E+03  0.7818608E-02  0.1098775E+00
          2   -1    0    0  501    0  0.00000000000E+00  0.00000000000E+00  0.70308088085E+02  0.70308088085E+02  0.00000000000E+00 0. -1.
         -2   -1    0    0    0  501 -0.00000000000E+00 -0.00000000000E+00 -0.26777693549E+03  0.26777693549E+03  0.00000000000E+00 0. -1.
         35    2    1    2    0    0  0.00000000000E+00  0.00000000000E+00 -0.19746884741E+03  0.33808502358E+03  0.27442218837E+03 0.  0.
         25    1    3    3    0    0  0.40847673566E+02 -0.43441628384E+02 -0.13509743778E+03  0.19028143684E+03  0.12000000000E+03 0.  0.
         25    1    3    3    0    0 -0.40847673566E+02  0.43441628384E+02 -0.62371409626E+02  0.14780358673E+03  0.12000000000E+03 0.  0.
<mgrwt>
<rscale>  0 0.27442219E+03</rscale>
<asrwt>0</asrwt>
<pdfrwt beam="1">  1        2 0.10816629E-01 0.27442219E+03</pdfrwt>
<pdfrwt beam="2">  1       -2 0.41196451E-01 0.27442219E+03</pdfrwt>
<totfact> 0.32552278E+03</totfact>
</mgrwt>
</event>
<event>
 5    1  0.1108889E+001  0.2743730E+03  0.7818608E-02  0.1098803E+00
         -1   -1    0    0    0  501 -0.00000000000E+00  0.00000000000E+00  0.37179244899E+02  0.37179244899E+02  0.00000000000E+00 0.  1.
          1   -1    0    0  501    0  0.00000000000E+00 -0.00000000000E+00 -0.50620017801E+03  0.50620017801E+03  0.00000000000E+00 0.  1.
         35    2    1    2    0    0  0.00000000000E+00  0.00000000000E+00 -0.46902093311E+03  0.54337942291E+03  0.27437303356E+03 0.  0.
         25    1    3    3    0    0  0.32922765581E+02 -0.55412104584E+02 -0.26679410785E+03  0.29955551374E+03  0.12000000000E+03 0.  0.
         25    1    3    3    0    0 -0.32922765581E+02  0.55412104584E+02 -0.20222682527E+03  0.24382390917E+03  0.12000000000E+03 0.  0.
<mgrwt>
<rscale>  0 0.27437303E+03</rscale>
<asrwt>0</asrwt>
<pdfrwt beam="1">  1        1 0.77876950E-01 0.27437303E+03</pdfrwt>
<pdfrwt beam="2">  1       -1 0.57198838E-02 0.27437303E+03</pdfrwt>
<totfact> 0.63496513E+03</totfact>
</mgrwt>
</event>
<event>
 5    1  0.1108889E+001  0.2713073E+03  0.7818608E-02  0.1100534E+00
          2   -1    0    0  501    0  0.00000000000E+00  0.00000000000E+00  0.16355541164E+04  0.16355541164E+04  0.00000000000E+00 0.  1.
         -2   -1    0    0    0  501 -0.00000000000E+00 -0.00000000000E+00 -0.11251176762E+02  0.11251176762E+02  0.00000000000E+00 0.  1.
         35    2    1    2    0    0  0.00000000000E+00  0.00000000000E+00  0.16243029396E+04  0.16468052931E+04  0.27130726836E+03 0.  0.
         25    1    3    3    0    0  0.34408613627E+02  0.76085600877E+01  0.11310411953E+04  0.11379349843E+04  0.12000000000E+03 0.  0.
         25    1    3    3    0    0 -0.34408613627E+02 -0.76085600877E+01  0.49326174424E+03  0.50887030883E+03  0.12000000000E+03 0.  0.
<mgrwt>
<rscale>  0 0.27130727E+03</rscale>
<asrwt>0</asrwt>
<pdfrwt beam="1">  1        2 0.25162352E+00 0.27130727E+03</pdfrwt>
<pdfrwt beam="2">  1       -2 0.17309516E-02 0.27130727E+03</pdfrwt>
<totfact> 0.11045311E+04</totfact>
</mgrwt>
</event>
<event>
 5    1  0.1108889E+001  0.2749403E+03  0.7818608E-02  0.1098485E+00
          1   -1    0    0  501    0  0.00000000000E+00  0.00000000000E+00  0.18328548766E+04  0.18328548766E+04  0.00000000000E+00 0.  1.
         -1   -1    0    0    0  501 -0.00000000000E+00 -0.00000000000E+00 -0.10310714199E+02  0.10310714199E+02  0.00000000000E+00 0.  1.
         35    2    1    2    0    0  0.00000000000E+00  0.00000000000E+00  0.18225441624E+04  0.18431655908E+04  0.27494030481E+03 0.  0.
         25    1    3    3    0    0 -0.16385684180E+02 -0.39565884744E+02  0.12572916245E+04  0.12637310549E+04  0.12000000000E+03 0.  0.
         25    1    3    3    0    0  0.16385684180E+02  0.39565884744E+02  0.56525253790E+03  0.57943453598E+03  0.12000000000E+03 0.  0.
<mgrwt>
<rscale>  0 0.27494030E+03</rscale>
<asrwt>0</asrwt>
<pdfrwt beam="1">  1        1 0.28197742E+00 0.27494030E+03</pdfrwt>
<pdfrwt beam="2">  1       -1 0.15862652E-02 0.27494030E+03</pdfrwt>
<totfact> 0.41674159E+03</totfact>
</mgrwt>
</event>
<event>
 5    1  0.1108889E+001  0.2753990E+03  0.7818608E-02  0.1098229E+00
          2   -1    0    0  501    0  0.00000000000E+00  0.00000000000E+00  0.11566696580E+03  0.11566696580E+03  0.00000000000E+00 0.  1.
         -2   -1    0    0    0  501 -0.00000000000E+00 -0.00000000000E+00 -0.16392888365E+03  0.16392888365E+03  0.00000000000E+00 0.  1.
         35    2    1    2    0    0  0.00000000000E+00  0.00000000000E+00 -0.48261917847E+02  0.27959584945E+03  0.27539903107E+03 0.  0.
         25    1    3    3    0    0  0.53701400831E+02 -0.40877871829E+02 -0.21579551463E+02  0.13935751827E+03  0.12000000000E+03 0.  0.
         25    1    3    3    0    0 -0.53701400831E+02  0.40877871829E+02 -0.26682366384E+02  0.14023833118E+03  0.12000000000E+03 0.  0.
<mgrwt>
<rscale>  0 0.27539903E+03</rscale>
<asrwt>0</asrwt>
<pdfrwt beam="1">  1        2 0.17794918E-01 0.27539903E+03</pdfrwt>
<pdfrwt beam="2">  1       -2 0.25219828E-01 0.27539903E+03</pdfrwt>
<totfact> 0.44261129E+03</totfact>
</mgrwt>
</event>
<event>
 4    1  0.1108889E+001  0.2965608E+03  0.7818608E-02  0.1086973E+00
          1   -1    0    0  501    0  0.00000000000E+00  0.00000000000E+00  0.13790477012E+04  0.13790477012E+04  0.00000000000E+00 0. -1.
         -1   -1    0    0    0  501 -0.00000000000E+00 -0.00000000000E+00 -0.15943662825E+02  0.15943662825E+02  0.00000000000E+00 0. -1.
         25    1    1    2    0    0  0.26374070138E+02  0.57766159748E+02  0.40110541234E+03  0.42345964695E+03  0.12000000000E+03 0.  0.
         25    1    1    2    0    0 -0.26374070138E+02 -0.57766159748E+02  0.96199862604E+03  0.97153171707E+03  0.12000000000E+03 0.  0.
<mgrwt>
<rscale>  0 0.29656076E+03</rscale>
<asrwt>0</asrwt>
<pdfrwt beam="1">  1        1 0.21216109E+00 0.29656076E+03</pdfrwt>
<pdfrwt beam="2">  1       -1 0.24528723E-02 0.29656076E+03</pdfrwt>
<totfact> 0.43847878E+03</totfact>
</mgrwt>
</event>
<event>
 5    1  0.1108889E+001  0.2735801E+03  0.7818608E-02  0.1099248E+00
         -2   -1    0    0    0  501 -0.00000000000E+00  0.00000000000E+00  0.17321730046E+03  0.17321730046E+03  0.00000000000E+00 0. -1.
          2   -1    0    0  501    0  0.00000000000E+00 -0.00000000000E+00 -0.10802338827E+03  0.10802338827E+03  0.00000000000E+00 0. -1.
         35    2    1    2    0    0  0.00000000000E+00  0.00000000000E+00  0.65193912190E+02  0.28124068873E+03  0.27358011406E+03 0.  0.
         25    1    3    3    0    0  0.11548720935E+02 -0.15235091758E+02 -0.31979513453E+02  0.12565098590E+03  0.12000000000E+03 0.  0.
         25    1    3    3    0    0 -0.11548720935E+02  0.15235091758E+02  0.97173425643E+02  0.15558970283E+03  0.12000000000E+03 0.  0.
<mgrwt>
<rscale>  0 0.27358011E+03</rscale>
<asrwt>0</asrwt>
<pdfrwt beam="1">  1        2 0.16618983E-01 0.27358011E+03</pdfrwt>
<pdfrwt beam="2">  1       -2 0.26648815E-01 0.27358011E+03</pdfrwt>
<totfact> 0.43460365E+03</totfact>
</mgrwt>
</event>
<event>
 5    1  0.1108889E+001  0.2746506E+03  0.7818608E-02  0.1098647E+00
          2   -1    0    0  501    0  0.00000000000E+00  0.00000000000E+00  0.81341955177E+03  0.81341955177E+03  0.00000000000E+00 0. -1.
         -2   -1    0    0    0  501 -0.00000000000E+00 -0.00000000000E+00 -0.23183896141E+02  0.23183896141E+02  0.00000000000E+00 0. -1.
         35    2    1    2    0    0  0.00000000000E+00  0.00000000000E+00  0.79023565563E+03  0.83660344791E+03  0.27465057369E+03 0.  0.
         25    1    3    3    0    0  0.10107127221E+02 -0.65961706591E+02  0.40201946737E+03  0.42482084800E+03  0.12000000000E+03 0.  0.
         25    1    3    3    0    0 -0.10107127221E+02  0.65961706591E+02  0.38821618826E+03  0.41178259991E+03  0.12000000000E+03 0.  0.
<mgrwt>
<rscale>  0 0.27465057E+03</rscale>
<asrwt>0</asrwt>
<pdfrwt beam="1">  1        2 0.12514145E+00 0.27465057E+03</pdfrwt>
<pdfrwt beam="2">  1       -2 0.35667539E-02 0.27465057E+03</pdfrwt>
<totfact> 0.11305958E+04</totfact>
</mgrwt>
</event>
<event>
 5    1  0.1108889E+001  0.2754025E+03  0.7818608E-02  0.1098227E+00
         -1   -1    0    0    0  501 -0.00000000000E+00  0.00000000000E+00  0.21440206260E+03  0.21440206260E+03  0.00000000000E+00 0. -1.
          1   -1    0    0  501    0  0.00000000000E+00 -0.00000000000E+00 -0.88439580024E+02  0.88439580024E+02  0.00000000000E+00 0. -1.
         35    2    1    2    0    0  0.00000000000E+00  0.00000000000E+00  0.12596248258E+03  0.30284164262E+03  0.27540245731E+03 0.  0.
         25    1    3    3    0    0 -0.37036310073E+02  0.24204834363E+02  0.68669109696E+01  0.12808089919E+03  0.12000000000E+03 0.  0.
         25    1    3    3    0    0  0.37036310073E+02 -0.24204834363E+02  0.11909557161E+03  0.17476074344E+03  0.12000000000E+03 0.  0.
<mgrwt>
<rscale>  0 0.27540246E+03</rscale>
<asrwt>0</asrwt>
<pdfrwt beam="1">  1        1 0.13606089E-01 0.27540246E+03</pdfrwt>
<pdfrwt beam="2">  1       -1 0.32984933E-01 0.27540246E+03</pdfrwt>
<totfact> 0.36604603E+03</totfact>
</mgrwt>
</event>
<event>
 5    1  0.1108889E+001  0.2753417E+03  0.7818608E-02  0.1098261E+00
         -2   -1    0    0    0  501 -0.00000000000E+00  0.00000000000E+00  0.14962724521E+02  0.14962724521E+02  0.00000000000E+00 0.  1.
          2   -1    0    0  501    0  0.00000000000E+00 -0.00000000000E+00 -0.12666986257E+04  0.12666986257E+04  0.00000000000E+00 0.  1.
         35    2    1    2    0    0  0.00000000000E+00  0.00000000000E+00 -0.12517359012E+04  0.12816613502E+04  0.27534169744E+03 0.  0.
         25    1    3    3    0    0 -0.24912359965E+02  0.29332076513E+02 -0.36786140528E+03  0.38884831218E+03  0.12000000000E+03 0.  0.
         25    1    3    3    0    0  0.24912359965E+02 -0.29332076513E+02 -0.88387449588E+03  0.89281303802E+03  0.12000000000E+03 0.  0.
<mgrwt>
<rscale>  0 0.27534170E+03</rscale>
<asrwt>0</asrwt>
<pdfrwt beam="1">  1        2 0.19487682E+00 0.27534170E+03</pdfrwt>
<pdfrwt beam="2">  1       -2 0.23019563E-02 0.27534170E+03</pdfrwt>
<totfact> 0.11492573E+04</totfact>
</mgrwt>
</event>
<event>
 5    1  0.1108889E+001  0.2742020E+03  0.7818608E-02  0.1098898E+00
         -2   -1    0    0    0  501 -0.00000000000E+00  0.00000000000E+00  0.24827080987E+03  0.24827080987E+03  0.00000000000E+00 0. -1.
          2   -1    0    0  501    0  0.00000000000E+00 -0.00000000000E+00 -0.75710421815E+02  0.75710421815E+02  0.00000000000E+00 0. -1.
         35    2    1    2    0    0  0.00000000000E+00  0.00000000000E+00  0.17256038806E+03  0.32398123169E+03  0.27420202581E+03 0.  0.
         25    1    3    3    0    0 -0.15659669058E+02 -0.19127378297E+02  0.15897726168E+03  0.20071086559E+03  0.12000000000E+03 0.  0.
         25    1    3    3    0    0  0.15659669058E+02  0.19127378297E+02  0.13583126381E+02  0.12327036610E+03  0.12000000000E+03 0.  0.
<mgrwt>
<rscale>  0 0.27420203E+03</rscale>
<asrwt>0</asrwt>
<pdfrwt beam="1">  1        2 0.11647757E-01 0.27420203E+03</pdfrwt>
<pdfrwt beam="2">  1       -2 0.38195509E-01 0.27420203E+03</pdfrwt>
<totfact> 0.34338150E+03</totfact>
</mgrwt>
</event>
<event>
 5    1  0.1108889E+001  0.2752483E+03  0.7818608E-02  0.1098313E+00
         -2   -1    0    0    0  501 -0.00000000000E+00  0.00000000000E+00  0.37435243269E+03  0.37435243269E+03  0.00000000000E+00 0. -1.
          2   -1    0    0  501    0  0.00000000000E+00 -0.00000000000E+00 -0.50595123106E+02  0.50595123106E+02  0.00000000000E+00 0. -1.
         35    2    1    2    0    0  0.00000000000E+00  0.00000000000E+00  0.32375730958E+03  0.42494755579E+03  0.27524830548E+03 0.  0.
         25    1    3    3    0    0  0.23622630871E+02  0.49863078793E+02  0.10216357172E+03  0.16697829411E+03  0.12000000000E+03 0.  0.
         25    1    3    3    0    0 -0.23622630871E+02 -0.49863078793E+02  0.22159373786E+03  0.25796926169E+03  0.12000000000E+03 0.  0.
<mgrwt>
<rscale>  0 0.27524831E+03</rscale>
<asrwt>0</asrwt>
<pdfrwt beam="1">  1        2 0.77838653E-02 0.27524831E+03</pdfrwt>
<pdfrwt beam="2">  1       -2 0.57592680E-01 0.27524831E+03</pdfrwt>
<totfact> 0.25283912E+03</totfact>
</mgrwt>
</event>
<event>
 5    1  0.1108889E+001  0.2745751E+03  0.7818608E-02  0.1098689E+00
          3   -1    0    0  501    0  0.00000000000E+00  0.00000000000E+00  0.53873278898E+03  0.53873278898E+03  0.00000000000E+00 0.  1.
         -3   -1    0    0    0  501 -0.00000000000E+00 -0.00000000000E+00 -0.34985560464E+02  0.34985560464E+02  0.00000000000E+00 0.  1.
         35    2    1    2    0    0  0.00000000000E+00  0.00000000000E+00  0.50374722852E+03  0.57371834945E+03  0.27457507945E+03 0.  0.
         25    1    3    3    0    0  0.57506099313E+02 -0.24633138623E+02  0.20358337983E+03  0.24445845357E+03  0.12000000000E+03 0.  0.
         25    1    3    3    0    0 -0.57506099313E+02  0.24633138623E+02  0.30016384869E+03  0.32925989588E+03  0.12000000000E+03 0.  0.
<mgrwt>
<rscale>  0 0.27457508E+03</rscale>
<asrwt>0</asrwt>
<pdfrwt beam="1">  1        3 0.82881962E-01 0.27457508E+03</pdfrwt>
<pdfrwt beam="2">  1       -3 0.53823943E-02 0.27457508E+03</pdfrwt>
<totfact> 0.71080982E+02</totfact>
</mgrwt>
</event>
<event>
 5    1  0.1108889E+001  0.2743361E+03  0.7818608E-02  0.1098823E+00
         -1   -1    0    0    0  501 -0.00000000000E+00  0.00000000000E+00  0.95398488908E+02  0.95398488908E+02  0.00000000000E+00 0.  1.
          1   -1    0    0  501    0  0.00000000000E+00 -0.00000000000E+00 -0.19722615587E+03  0.19722615587E+03  0.00000000000E+00 0.  1.
         35    2    1    2    0    0  0.00000000000E+00  0.00000000000E+00 -0.10182766696E+03  0.29262464478E+03  0.27433612407E+03 0.  0.
         25    1    3    3    0    0 -0.27494991273E+02 -0.22122361714E+02  0.91395169349E+01  0.12541492815E+03  0.12000000000E+03 0.  0.
         25    1    3    3    0    0  0.27494991273E+02  0.22122361714E+02 -0.11096718390E+03  0.16720971663E+03  0.12000000000E+03 0.  0.
<mgrwt>
<rscale>  0 0.27433612E+03</rscale>
<asrwt>0</asrwt>
<pdfrwt beam="1">  1        1 0.30342486E-01 0.27433612E+03</pdfrwt>
<pdfrwt beam="2">  1       -1 0.14676691E-01 0.27433612E+03</pdfrwt>
<totfact> 0.49340545E+03</totfact>
</mgrwt>
</event>
<event>
 5    1  0.1108889E+001  0.2755700E+03  0.7818608E-02  0.1098133E+00
          3   -1    0    0  501    0  0.00000000000E+00  0.00000000000E+00  0.10456725153E+03  0.10456725153E+03  0.00000000000E+00 0. -1.
         -3   -1    0    0    0  501 -0.00000000000E+00 -0.00000000000E+00 -0.18155503950E+03  0.18155503950E+03  0.00000000000E+00 0. -1.
         35    2    1    2    0    0  0.00000000000E+00  0.00000000000E+00 -0.76987787976E+02  0.28612229103E+03  0.27557003815E+03 0.  0.
         25    1    3    3    0    0  0.43095021934E+02 -0.36648204259E+01  0.15598050364E+02  0.12850646287E+03  0.12000000000E+03 0.  0.
         25    1    3    3    0    0 -0.43095021934E+02  0.36648204259E+01 -0.92585838340E+02  0.15761582816E+03  0.12000000000E+03 0.  0.
<mgrwt>
<rscale>  0 0.27557004E+03</rscale>
<asrwt>0</asrwt>
<pdfrwt beam="1">  1        3 0.16087270E-01 0.27557004E+03</pdfrwt>
<pdfrwt beam="2">  1       -3 0.27931544E-01 0.27557004E+03</pdfrwt>
<totfact> 0.10254734E+03</totfact>
</mgrwt>
</event>
<event>
 5    1  0.1108889E+001  0.2716249E+03  0.7818608E-02  0.1100353E+00
         -1   -1    0    0    0  501 -0.00000000000E+00  0.00000000000E+00  0.45777641824E+02  0.45777641824E+02  0.00000000000E+00 0. -1.
          1   -1    0    0  501    0  0.00000000000E+00 -0.00000000000E+00 -0.40292634929E+03  0.40292634929E+03  0.00000000000E+00 0. -1.
         35    2    1    2    0    0  0.00000000000E+00  0.00000000000E+00 -0.35714870747E+03  0.44870399112E+03  0.27162487441E+03 0.  0.
         25    1    3    3    0    0 -0.40794649687E+02 -0.46741974443E+02 -0.20170145377E+03  0.24276015338E+03  0.12000000000E+03 0.  0.
         25    1    3    3    0    0  0.40794649687E+02  0.46741974443E+02 -0.15544725370E+03  0.20594383774E+03  0.12000000000E+03 0.  0.
<mgrwt>
<rscale>  0 0.27162487E+03</rscale>
<asrwt>0</asrwt>
<pdfrwt beam="1">  1        1 0.61988667E-01 0.27162487E+03</pdfrwt>
<pdfrwt beam="2">  1       -1 0.70427144E-02 0.27162487E+03</pdfrwt>
<totfact> 0.62428094E+03</totfact>
</mgrwt>
</event>
<event>
 5    1  0.1108889E+001  0.2747774E+03  0.7818608E-02  0.1098576E+00
         -2   -1    0    0    0  501 -0.00000000000E+00  0.00000000000E+00  0.13470334641E+03  0.13470334641E+03  0.00000000000E+00 0. -1.
          2   -1    0    0  501    0  0.00000000000E+00 -0.00000000000E+00 -0.14012762117E+03  0.14012762117E+03  0.00000000000E+00 0. -1.
         35    2    1    2    0    0  0.00000000000E+00  0.00000000000E+00 -0.54242747620E+01  0.27483096757E+03  0.27477743354E+03 0.  0.
         25    1    3    3    0    0 -0.39346109966E+02  0.77015963981E+01  0.50854141786E+02  0.13635825862E+03  0.12000000000E+03 0.  0.
         25    1    3    3    0    0  0.39346109966E+02 -0.77015963981E+01 -0.56278416548E+02  0.13847270896E+03  0.12000000000E+03 0.  0.
<mgrwt>
<rscale>  0 0.27477743E+03</rscale>
<asrwt>0</asrwt>
<pdfrwt beam="1">  1        2 0.21558096E-01 0.27477743E+03</pdfrwt>
<pdfrwt beam="2">  1       -2 0.20723592E-01 0.27477743E+03</pdfrwt>
<totfact> 0.49991769E+03</totfact>
</mgrwt>
</event>
<event>
 5    1  0.1108889E+001  0.2678451E+03  0.7818608E-02  0.1102519E+00
          3   -1    0    0  501    0  0.00000000000E+00  0.00000000000E+00  0.11763330344E+02  0.11763330344E+02  0.00000000000E+00 0.  1.
         -3   -1    0    0    0  501 -0.00000000000E+00 -0.00000000000E+00 -0.15246747562E+04  0.15246747562E+04  0.00000000000E+00 0.  1.
         35    2    1    2    0    0  0.00000000000E+00  0.00000000000E+00 -0.15129114259E+04  0.15364380865E+04  0.26784512558E+03 0.  0.
         25    1    3    3    0    0  0.41803857092E+02 -0.26392785734E+02 -0.94593678250E+03  0.95479868982E+03  0.12000000000E+03 0.  0.
         25    1    3    3    0    0 -0.41803857092E+02  0.26392785734E+02 -0.56697464335E+03  0.58163939672E+03  0.12000000000E+03 0.  0.
<mgrwt>
<rscale>  0 0.26784513E+03</rscale>
<asrwt>0</asrwt>
<pdfrwt beam="1">  1        3 0.18097422E-02 0.26784513E+03</pdfrwt>
<pdfrwt beam="2">  1       -3 0.23456546E+00 0.26784513E+03</pdfrwt>
<totfact> 0.28067525E+02</totfact>
</mgrwt>
</event>
<event>
 5    1  0.1108889E+001  0.2749662E+03  0.7818608E-02  0.1098471E+00
          1   -1    0    0  501    0  0.00000000000E+00  0.00000000000E+00  0.34267507542E+03  0.34267507542E+03  0.00000000000E+00 0. -1.
         -1   -1    0    0    0  501 -0.00000000000E+00 -0.00000000000E+00 -0.55158957326E+02  0.55158957326E+02  0.00000000000E+00 0. -1.
         35    2    1    2    0    0  0.00000000000E+00  0.00000000000E+00  0.28751611810E+03  0.39783403275E+03  0.27496617874E+03 0.  0.
         25    1    3    3    0    0  0.24869847044E+02 -0.20486442140E+02  0.58610197438E+02  0.13738034374E+03  0.12000000000E+03 0.  0.
         25    1    3    3    0    0 -0.24869847044E+02  0.20486442140E+02  0.22890592066E+03  0.26045368901E+03  0.12000000000E+03 0.  0.
<mgrwt>
<rscale>  0 0.27496618E+03</rscale>
<asrwt>0</asrwt>
<pdfrwt beam="1">  1        1 0.52719241E-01 0.27496618E+03</pdfrwt>
<pdfrwt beam="2">  1       -1 0.84859936E-02 0.27496618E+03</pdfrwt>
<totfact> 0.57771706E+03</totfact>
</mgrwt>
</event>
<event>
 5    1  0.1108889E+001  0.2749782E+03  0.7818608E-02  0.1098464E+00
         -2   -1    0    0    0  501 -0.00000000000E+00  0.00000000000E+00  0.18417899227E+03  0.18417899227E+03  0.00000000000E+00 0.  1.
          2   -1    0    0  501    0  0.00000000000E+00 -0.00000000000E+00 -0.10263524539E+03  0.10263524539E+03  0.00000000000E+00 0.  1.
         35    2    1    2    0    0  0.00000000000E+00  0.00000000000E+00  0.81543746887E+02  0.28681423766E+03  0.27497822508E+03 0.  0.
         25    1    3    3    0    0 -0.21943516875E+02 -0.43694835282E+02  0.88712169278E+02  0.15703695597E+03  0.12000000000E+03 0.  0.
         25    1    3    3    0    0  0.21943516875E+02  0.43694835282E+02 -0.71684223911E+01  0.12977728169E+03  0.12000000000E+03 0.  0.
<mgrwt>
<rscale>  0 0.27497823E+03</rscale>
<asrwt>0</asrwt>
<pdfrwt beam="1">  1        2 0.15790038E-01 0.27497823E+03</pdfrwt>
<pdfrwt beam="2">  1       -2 0.28335230E-01 0.27497823E+03</pdfrwt>
<totfact> 0.41357320E+03</totfact>
</mgrwt>
</event>
<event>
 5    1  0.1108889E+001  0.2746970E+03  0.7818608E-02  0.1098621E+00
         -4   -1    0    0    0  501 -0.00000000000E+00  0.00000000000E+00  0.29900404519E+02  0.29900404519E+02  0.00000000000E+00 0. -1.
          4   -1    0    0  501    0  0.00000000000E+00 -0.00000000000E+00 -0.63091475934E+03  0.63091475934E+03  0.00000000000E+00 0. -1.
         35    2    1    2    0    0  0.00000000000E+00  0.00000000000E+00 -0.60101435482E+03  0.66081516386E+03  0.27469697138E+03 0.  0.
         25    1    3    3    0    0  0.97515228713E+01  0.16004125099E+02 -0.45479287436E+03  0.47073111517E+03  0.12000000000E+03 0.  0.
         25    1    3    3    0    0 -0.97515228713E+01 -0.16004125099E+02 -0.14622148046E+03  0.19008404869E+03  0.12000000000E+03 0.  0.
<mgrwt>
<rscale>  0 0.27469697E+03</rscale>
<asrwt>0</asrwt>
<pdfrwt beam="1">  1        4 0.97063811E-01 0.27469697E+03</pdfrwt>
<pdfrwt beam="2">  1       -4 0.46000621E-02 0.27469697E+03</pdfrwt>
<totfact> 0.46824604E+02</totfact>
</mgrwt>
</event>
<event>
 4    1  0.1108889E+001  0.2499055E+03  0.7818608E-02  0.1113365E+00
          1   -1    0    0  501    0  0.00000000000E+00  0.00000000000E+00  0.16368210501E+03  0.16368210501E+03  0.00000000000E+00 0.  1.
         -1   -1    0    0    0  501 -0.00000000000E+00 -0.00000000000E+00 -0.95387276647E+02  0.95387276647E+02  0.00000000000E+00 0.  1.
         25    1    1    2    0    0 -0.26655015700E+02 -0.16362789684E+02  0.50037884723E+02  0.13372367276E+03  0.12000000000E+03 0.  0.
         25    1    1    2    0    0  0.26655015700E+02  0.16362789684E+02  0.18256943639E+02  0.12534570890E+03  0.12000000000E+03 0.  0.
<mgrwt>
<rscale>  0 0.24990550E+03</rscale>
<asrwt>0</asrwt>
<pdfrwt beam="1">  1        1 0.25181862E-01 0.24990550E+03</pdfrwt>
<pdfrwt beam="2">  1       -1 0.14674966E-01 0.24990550E+03</pdfrwt>
<totfact> 0.62266191E+03</totfact>
</mgrwt>
</event>
<event>
 5    1  0.1108889E+001  0.2748542E+03  0.7818608E-02  0.1098533E+00
         -2   -1    0    0    0  501 -0.00000000000E+00  0.00000000000E+00  0.14229484100E+02  0.14229484100E+02  0.00000000000E+00 0. -1.
          2   -1    0    0  501    0  0.00000000000E+00 -0.00000000000E+00 -0.13272591585E+04  0.13272591585E+04  0.00000000000E+00 0. -1.
         35    2    1    2    0    0  0.00000000000E+00  0.00000000000E+00 -0.13130296744E+04  0.13414886426E+04  0.27485423840E+03 0.  0.
         25    1    3    3    0    0  0.10599124378E+02  0.32412413991E+02 -0.37515001553E+03  0.39534850471E+03  0.12000000000E+03 0.  0.
         25    1    3    3    0    0 -0.10599124378E+02 -0.32412413991E+02 -0.93787965888E+03  0.94614013790E+03  0.12000000000E+03 0.  0.
<mgrwt>
<rscale>  0 0.27485424E+03</rscale>
<asrwt>0</asrwt>
<pdfrwt beam="1">  1        2 0.20419378E+00 0.27485424E+03</pdfrwt>
<pdfrwt beam="2">  1       -2 0.21891507E-02 0.27485424E+03</pdfrwt>
<totfact> 0.11455970E+04</totfact>
</mgrwt>
</event>
<event>
 5    1  0.1108889E+001  0.2760770E+03  0.7818608E-02  0.1097851E+00
          3   -1    0    0  501    0  0.00000000000E+00  0.00000000000E+00  0.63929739504E+02  0.63929739504E+02  0.00000000000E+00 0.  1.
         -3   -1    0    0    0  501 -0.00000000000E+00 -0.00000000000E+00 -0.29805578577E+03  0.29805578577E+03  0.00000000000E+00 0.  1.
         35    2    1    2    0    0  0.00000000000E+00  0.00000000000E+00 -0.23412604626E+03  0.36198552527E+03  0.27607700912E+03 0.  0.
         25    1    3    3    0    0  0.19210292101E+02 -0.62054449247E+02 -0.89721350346E+02  0.16330863634E+03  0.12000000000E+03 0.  0.
         25    1    3    3    0    0 -0.19210292101E+02  0.62054449247E+02 -0.14440469592E+03  0.19867688894E+03  0.12000000000E+03 0.  0.
<mgrwt>
<rscale>  0 0.27607701E+03</rscale>
<asrwt>0</asrwt>
<pdfrwt beam="1">  1        3 0.98353447E-02 0.27607701E+03</pdfrwt>
<pdfrwt beam="2">  1       -3 0.45854735E-01 0.27607701E+03</pdfrwt>
<totfact> 0.91619147E+02</totfact>
</mgrwt>
</event>
<event>
 5    1  0.1108889E+001  0.2741375E+03  0.7818608E-02  0.1098935E+00
          3   -1    0    0  501    0  0.00000000000E+00  0.00000000000E+00  0.20567869422E+03  0.20567869422E+03  0.00000000000E+00 0.  1.
         -3   -1    0    0    0  501 -0.00000000000E+00 -0.00000000000E+00 -0.91345602880E+02  0.91345602880E+02  0.00000000000E+00 0.  1.
         35    2    1    2    0    0  0.00000000000E+00  0.00000000000E+00  0.11433309134E+03  0.29702429710E+03  0.27413751530E+03 0.  0.
         25    1    3    3    0    0 -0.63115244461E+02 -0.78396858560E+00  0.35396941598E+02  0.14013240940E+03  0.12000000000E+03 0.  0.
         25    1    3    3    0    0  0.63115244461E+02  0.78396858560E+00  0.78936149744E+02  0.15689188770E+03  0.12000000000E+03 0.  0.
<mgrwt>
<rscale>  0 0.27413752E+03</rscale>
<asrwt>0</asrwt>
<pdfrwt beam="1">  1        3 0.31642876E-01 0.27413752E+03</pdfrwt>
<pdfrwt beam="2">  1       -3 0.14053170E-01 0.27413752E+03</pdfrwt>
<totfact> 0.10258519E+03</totfact>
</mgrwt>
</event>
<event>
 5    1  0.1108889E+001  0.2738735E+03  0.7818608E-02  0.1099083E+00
          2   -1    0    0  501    0  0.00000000000E+00  0.00000000000E+00  0.81988814164E+02  0.81988814164E+02  0.00000000000E+00 0. -1.
         -2   -1    0    0    0  501 -0.00000000000E+00 -0.00000000000E+00 -0.22871014800E+03  0.22871014800E+03  0.00000000000E+00 0. -1.
         35    2    1    2    0    0  0.00000000000E+00  0.00000000000E+00 -0.14672133383E+03  0.31069896216E+03  0.27387350234E+03 0.  0.
         25    1    3    3    0    0 -0.38533115262E+02  0.10353431711E+02 -0.13764394725E+02  0.12720634057E+03  0.12000000000E+03 0.  0.
         25    1    3    3    0    0  0.38533115262E+02 -0.10353431711E+02 -0.13295693911E+03  0.18349262159E+03  0.12000000000E+03 0.  0.
<mgrwt>
<rscale>  0 0.27387350E+03</rscale>
<asrwt>0</asrwt>
<pdfrwt beam="1">  1        2 0.12613664E-01 0.27387350E+03</pdfrwt>
<pdfrwt beam="2">  1       -2 0.35186177E-01 0.27387350E+03</pdfrwt>
<totfact> 0.36364892E+03</totfact>
</mgrwt>
</event>
<event>
 5    1  0.1108889E+001  0.2747239E+03  0.7818608E-02  0.1098606E+00
         -4   -1    0    0    0  501 -0.00000000000E+00  0.00000000000E+00  0.33588691106E+03  0.33588691106E+03  0.00000000000E+00 0.  1.
          4   -1    0    0  501    0  0.00000000000E+00 -0.00000000000E+00 -0.56174572694E+02  0.56174572694E+02  0.00000000000E+00 0.  1.
         35    2    1    2    0    0  0.00000000000E+00  0.00000000000E+00  0.27971233836E+03  0.39206148375E+03  0.27472388831E+03 0.  0.
         25    1    3    3    0    0 -0.18928957474E+02 -0.38549761536E+02  0.66753612562E+02  0.14387645511E+03  0.12000000000E+03 0.  0.
         25    1    3    3    0    0  0.18928957474E+02  0.38549761536E+02  0.21295872580E+03  0.24818502864E+03  0.12000000000E+03 0.  0.
<mgrwt>
<rscale>  0 0.27472389E+03</rscale>
<asrwt>0</asrwt>
<pdfrwt beam="1">  1        4 0.86422421E-02 0.27472389E+03</pdfrwt>
<pdfrwt beam="2">  1       -4 0.51674908E-01 0.27472389E+03</pdfrwt>
<totfact> 0.65923427E+02</totfact>
</mgrwt>
</event>
<event>
 5    1  0.1108889E+001  0.2749019E+03  0.7818608E-02  0.1098506E+00
          3   -1    0    0  501    0  0.00000000000E+00  0.00000000000E+00  0.24410385589E+03  0.24410385589E+03  0.00000000000E+00 0. -1.
         -3   -1    0    0    0  501 -0.00000000000E+00 -0.00000000000E+00 -0.77396408645E+02  0.77396408645E+02  0.00000000000E+00 0. -1.
         35    2    1    2    0    0  0.00000000000E+00  0.00000000000E+00  0.16670744724E+03  0.32150026453E+03  0.27490188637E+03 0.  0.
         25    1    3    3    0    0 -0.56833691664E+01 -0.64097096799E+02  0.10529638527E+03  0.17212805482E+03  0.12000000000E+03 0.  0.
         25    1    3    3    0    0  0.56833691664E+01  0.64097096799E+02  0.61411061968E+02  0.14937220972E+03  0.12000000000E+03 0.  0.
<mgrwt>
<rscale>  0 0.27490189E+03</rscale>
<asrwt>0</asrwt>
<pdfrwt beam="1">  1        3 0.37554439E-01 0.27490189E+03</pdfrwt>
<pdfrwt beam="2">  1       -3 0.11907140E-01 0.27490189E+03</pdfrwt>
<totfact> 0.98234733E+02</totfact>
</mgrwt>
</event>
<event>
 5    1  0.1108889E+001  0.2758409E+03  0.7818608E-02  0.1097982E+00
         -2   -1    0    0    0  501 -0.00000000000E+00  0.00000000000E+00  0.13369665386E+02  0.13369665386E+02  0.00000000000E+00 0. -1.
          2   -1    0    0  501    0  0.00000000000E+00 -0.00000000000E+00 -0.14227767598E+04  0.14227767598E+04  0.00000000000E+00 0. -1.
         35    2    1    2    0    0  0.00000000000E+00  0.00000000000E+00 -0.14094070944E+04  0.14361464252E+04  0.27584089035E+03 0.  0.
         25    1    3    3    0    0  0.60724758894E+02  0.30488029330E+02 -0.71638374485E+03  0.72953593891E+03  0.12000000000E+03 0.  0.
         25    1    3    3    0    0 -0.60724758894E+02 -0.30488029330E+02 -0.69302334953E+03  0.70661048624E+03  0.12000000000E+03 0.  0.
<mgrwt>
<rscale>  0 0.27584089E+03</rscale>
<asrwt>0</asrwt>
<pdfrwt beam="1">  1        2 0.21888859E+00 0.27584089E+03</pdfrwt>
<pdfrwt beam="2">  1       -2 0.20568730E-02 0.27584089E+03</pdfrwt>
<totfact> 0.11138895E+04</totfact>
</mgrwt>
</event>
<event>
 5    1  0.1108889E+001  0.2747386E+03  0.7818608E-02  0.1098598E+00
         -2   -1    0    0    0  501 -0.00000000000E+00  0.00000000000E+00  0.24772557718E+02  0.24772557718E+02  0.00000000000E+00 0.  1.
          2   -1    0    0  501    0  0.00000000000E+00 -0.00000000000E+00 -0.76174326796E+03  0.76174326796E+03  0.00000000000E+00 0.  1.
         35    2    1    2    0    0  0.00000000000E+00  0.00000000000E+00 -0.73697071024E+03  0.78651582568E+03  0.27473863268E+03 0.  0.
         25    1    3    3    0    0 -0.46305223945E+02  0.45767312504E+02 -0.32492703500E+03  0.35244346884E+03  0.12000000000E+03 0.  0.
         25    1    3    3    0    0  0.46305223945E+02 -0.45767312504E+02 -0.41204367525E+03  0.43407235684E+03  0.12000000000E+03 0.  0.
<mgrwt>
<rscale>  0 0.27473863E+03</rscale>
<asrwt>0</asrwt>
<pdfrwt beam="1">  1        2 0.11719124E+00 0.27473863E+03</pdfrwt>
<pdfrwt beam="2">  1       -2 0.38111637E-02 0.27473863E+03</pdfrwt>
<totfact> 0.11122879E+04</totfact>
</mgrwt>
</event>
<event>
 5    1  0.1108889E+001  0.2747594E+03  0.7818608E-02  0.1098586E+00
         -2   -1    0    0    0  501 -0.00000000000E+00  0.00000000000E+00  0.76091786361E+01  0.76091786361E+01  0.00000000000E+00 0. -1.
          2   -1    0    0  501    0  0.00000000000E+00 -0.00000000000E+00 -0.24803173892E+04  0.24803173892E+04  0.00000000000E+00 0. -1.
         35    2    1    2    0    0  0.00000000000E+00  0.00000000000E+00 -0.24727082105E+04  0.24879265678E+04  0.27475937173E+03 0.  0.
         25    1    3    3    0    0  0.73498709803E+01 -0.35928869261E+02 -0.17428050954E+04  0.17473163723E+04  0.12000000000E+03 0.  0.
         25    1    3    3    0    0 -0.73498709803E+01  0.35928869261E+02 -0.72990311510E+03  0.74061019551E+03  0.12000000000E+03 0.  0.
<mgrwt>
<rscale>  0 0.27475937E+03</rscale>
<asrwt>0</asrwt>
<pdfrwt beam="1">  1        2 0.38158733E+00 0.27475937E+03</pdfrwt>
<pdfrwt beam="2">  1       -2 0.11706427E-02 0.27475937E+03</pdfrwt>
<totfact> 0.69690394E+03</totfact>
</mgrwt>
</event>
<event>
 5    1  0.1108889E+001  0.2749626E+03  0.7818608E-02  0.1098472E+00
         -2   -1    0    0    0  501 -0.00000000000E+00  0.00000000000E+00  0.23361259726E+02  0.23361259726E+02  0.00000000000E+00 0.  1.
          2   -1    0    0  501    0  0.00000000000E+00 -0.00000000000E+00 -0.80907937617E+03  0.80907937617E+03  0.00000000000E+00 0.  1.
         35    2    1    2    0    0  0.00000000000E+00  0.00000000000E+00 -0.78571811644E+03  0.83244063589E+03  0.27496264070E+03 0.  0.
         25    1    3    3    0    0  0.33294399866E+02  0.46608535988E+02 -0.49861440786E+03  0.51603992133E+03  0.12000000000E+03 0.  0.
         25    1    3    3    0    0 -0.33294399866E+02 -0.46608535988E+02 -0.28710370858E+03  0.31640071456E+03  0.12000000000E+03 0.  0.
<mgrwt>
<rscale>  0 0.27496264E+03</rscale>
<asrwt>0</asrwt>
<pdfrwt beam="1">  1        2 0.12447374E+00 0.27496264E+03</pdfrwt>
<pdfrwt beam="2">  1       -2 0.35940404E-02 0.27496264E+03</pdfrwt>
<totfact> 0.11254905E+04</totfact>
</mgrwt>
</event>
<event>
 5    1  0.1108889E+001  0.2756726E+03  0.7818608E-02  0.1098076E+00
          1   -1    0    0  501    0  0.00000000000E+00  0.00000000000E+00  0.44542656762E+03  0.44542656762E+03  0.00000000000E+00 0. -1.
         -1   -1    0    0    0  501 -0.00000000000E+00 -0.00000000000E+00 -0.42653141006E+02  0.42653141006E+02  0.00000000000E+00 0. -1.
         35    2    1    2    0    0  0.00000000000E+00  0.00000000000E+00  0.40277342661E+03  0.48807970863E+03  0.27567257532E+03 0.  0.
         25    1    3    3    0    0  0.98298935055E+01  0.17366182966E+02  0.86636246764E+02  0.14934540626E+03  0.12000000000E+03 0.  0.
         25    1    3    3    0    0 -0.98298935055E+01 -0.17366182966E+02  0.31613717985E+03  0.33873430237E+03  0.12000000000E+03 0.  0.
<mgrwt>
<rscale>  0 0.27567258E+03</rscale>
<asrwt>0</asrwt>
<pdfrwt beam="1">  1        1 0.68527161E-01 0.27567258E+03</pdfrwt>
<pdfrwt beam="2">  1       -1 0.65620220E-02 0.27567258E+03</pdfrwt>
<totfact> 0.61074510E+03</totfact>
</mgrwt>
</event>
<event>
 5    1  0.1108889E+001  0.2755758E+03  0.7818608E-02  0.1098130E+00
          2   -1    0    0  501    0  0.00000000000E+00  0.00000000000E+00  0.49826473948E+03  0.49826473948E+03  0.00000000000E+00 0.  1.
         -2   -1    0    0    0  501 -0.00000000000E+00 -0.00000000000E+00 -0.38103258714E+02  0.38103258714E+02  0.00000000000E+00 0.  1.
         35    2    1    2    0    0  0.00000000000E+00  0.00000000000E+00  0.46016148077E+03  0.53636799820E+03  0.27557583549E+03 0.  0.
         25    1    3    3    0    0 -0.43985039576E+02 -0.46431177202E+02  0.27338316325E+03  0.30533406602E+03  0.12000000000E+03 0.  0.
         25    1    3    3    0    0  0.43985039576E+02  0.46431177202E+02  0.18677831752E+03  0.23103393218E+03  0.12000000000E+03 0.  0.
<mgrwt>
<rscale>  0 0.27557584E+03</rscale>
<asrwt>0</asrwt>
<pdfrwt beam="1">  1        2 0.76656109E-01 0.27557584E+03</pdfrwt>
<pdfrwt beam="2">  1       -2 0.58620402E-02 0.27557584E+03</pdfrwt>
<totfact> 0.95334736E+03</totfact>
</mgrwt>
</event>
<event>
 5    1  0.1108889E+001  0.2749209E+03  0.7818608E-02  0.1098496E+00
          3   -1    0    0  501    0  0.00000000000E+00  0.00000000000E+00  0.90111682215E+02  0.90111682215E+02  0.00000000000E+00 0.  1.
         -3   -1    0    0    0  501 -0.00000000000E+00 -0.00000000000E+00 -0.20968847205E+03  0.20968847205E+03  0.00000000000E+00 0.  1.
         35    2    1    2    0    0  0.00000000000E+00  0.00000000000E+00 -0.11957678983E+03  0.29980015426E+03  0.27492094105E+03 0.  0.
         25    1    3    3    0    0  0.21993827660E+02  0.63214864619E+02 -0.64086303786E+02  0.15161431956E+03  0.12000000000E+03 0.  0.
         25    1    3    3    0    0 -0.21993827660E+02 -0.63214864619E+02 -0.55490486048E+02  0.14818583470E+03  0.12000000000E+03 0.  0.
<mgrwt>
<rscale>  0 0.27492094E+03</rscale>
<asrwt>0</asrwt>
<pdfrwt beam="1">  1        3 0.13863336E-01 0.27492094E+03</pdfrwt>
<pdfrwt beam="2">  1       -3 0.32259764E-01 0.27492094E+03</pdfrwt>
<totfact> 0.10126926E+03</totfact>
</mgrwt>
</event>
<event>
 5    1  0.1108889E+001  0.2746022E+03  0.7818608E-02  0.1098674E+00
         -2   -1    0    0    0  501 -0.00000000000E+00  0.00000000000E+00  0.14434714338E+02  0.14434714338E+02  0.00000000000E+00 0. -1.
          2   -1    0    0  501    0  0.00000000000E+00 -0.00000000000E+00 -0.13059901569E+04  0.13059901569E+04  0.00000000000E+00 0. -1.
         35    2    1    2    0    0  0.00000000000E+00  0.00000000000E+00 -0.12915554426E+04  0.13204248713E+04  0.27460222027E+03 0.  0.
         25    1    3    3    0    0  0.50280473985E+02  0.43677573046E+02 -0.66485383215E+03  0.67887147133E+03  0.12000000000E+03 0.  0.
         25    1    3    3    0    0 -0.50280473985E+02 -0.43677573046E+02 -0.62670161045E+03  0.64155339996E+03  0.12000000000E+03 0.  0.
<mgrwt>
<rscale>  0 0.27460222E+03</rscale>
<asrwt>0</asrwt>
<pdfrwt beam="1">  1        2 0.20092161E+00 0.27460222E+03</pdfrwt>
<pdfrwt beam="2">  1       -2 0.22207248E-02 0.27460222E+03</pdfrwt>
<totfact> 0.11523529E+04</totfact>
</mgrwt>
</event>
<event>
 5    1  0.1108889E+001  0.2740286E+03  0.7818608E-02  0.1098996E+00
          2   -1    0    0  501    0  0.00000000000E+00  0.00000000000E+00  0.25967078919E+03  0.25967078919E+03  0.00000000000E+00 0. -1.
         -2   -1    0    0    0  501 -0.00000000000E+00 -0.00000000000E+00 -0.72295078185E+02  0.72295078185E+02  0.00000000000E+00 0. -1.
         35    2    1    2    0    0  0.00000000000E+00  0.00000000000E+00  0.18737571100E+03  0.33196586737E+03  0.27402861169E+03 0.  0.
         25    1    3    3    0    0  0.62473726911E+02  0.20656709274E+02  0.85720581955E+02  0.16148586428E+03  0.12000000000E+03 0.  0.
         25    1    3    3    0    0 -0.62473726911E+02 -0.20656709274E+02  0.10165512905E+03  0.17048000309E+03  0.12000000000E+03 0.  0.
<mgrwt>
<rscale>  0 0.27402861E+03</rscale>
<asrwt>0</asrwt>
<pdfrwt beam="1">  1        2 0.39949352E-01 0.27402861E+03</pdfrwt>
<pdfrwt beam="2">  1       -2 0.11122320E-01 0.27402861E+03</pdfrwt>
<totfact> 0.70993123E+03</totfact>
</mgrwt>
</event>
<event>
 5    1  0.1108889E+001  0.2757195E+03  0.7818608E-02  0.1098050E+00
          1   -1    0    0  501    0  0.00000000000E+00  0.00000000000E+00  0.95016381544E+03  0.95016381544E+03  0.00000000000E+00 0. -1.
         -1   -1    0    0    0  501 -0.00000000000E+00 -0.00000000000E+00 -0.20002145239E+02  0.20002145239E+02  0.00000000000E+00 0. -1.
         35    2    1    2    0    0  0.00000000000E+00  0.00000000000E+00  0.93016167021E+03  0.97016596068E+03  0.27571952878E+03 0.  0.
         25    1    3    3    0    0 -0.19819682918E+02 -0.60830385105E+02  0.54471160831E+03  0.56143021990E+03  0.12000000000E+03 0.  0.
         25    1    3    3    0    0  0.19819682918E+02  0.60830385105E+02  0.38545006189E+03  0.40873574079E+03  0.12000000000E+03 0.  0.
<mgrwt>
<rscale>  0 0.27571953E+03</rscale>
<asrwt>0</asrwt>
<pdfrwt beam="1">  1        1 0.14617901E+00 0.27571953E+03</pdfrwt>
<pdfrwt beam="2">  1       -1 0.30772538E-02 0.27571953E+03</pdfrwt>
<totfact> 0.63339163E+03</totfact>
</mgrwt>
</event>
<event>
 5    1  0.1108889E+001  0.2748228E+03  0.7818608E-02  0.1098551E+00
         -1   -1    0    0    0  501 -0.00000000000E+00  0.00000000000E+00  0.15305223593E+02  0.15305223593E+02  0.00000000000E+00 0. -1.
          1   -1    0    0  501    0  0.00000000000E+00 -0.00000000000E+00 -0.12336891543E+04  0.12336891543E+04  0.00000000000E+00 0. -1.
         35    2    1    2    0    0  0.00000000000E+00  0.00000000000E+00 -0.12183839307E+04  0.12489943779E+04  0.27482276726E+03 0.  0.
         25    1    3    3    0    0  0.39021341912E+02 -0.42524842414E+02 -0.76336883102E+03  0.77489547651E+03  0.12000000000E+03 0.  0.
         25    1    3    3    0    0 -0.39021341912E+02  0.42524842414E+02 -0.45501509969E+03  0.47409890138E+03  0.12000000000E+03 0.  0.
<mgrwt>
<rscale>  0 0.27482277E+03</rscale>
<asrwt>0</asrwt>
<pdfrwt beam="1">  1        1 0.18979831E+00 0.27482277E+03</pdfrwt>
<pdfrwt beam="2">  1       -1 0.23546501E-02 0.27482277E+03</pdfrwt>
<totfact> 0.58495662E+03</totfact>
</mgrwt>
</event>
<event>
 5    1  0.1108889E+001  0.2750265E+03  0.7818608E-02  0.1098437E+00
         -2   -1    0    0    0  501 -0.00000000000E+00  0.00000000000E+00  0.39177712639E+02  0.39177712639E+02  0.00000000000E+00 0.  1.
          2   -1    0    0  501    0  0.00000000000E+00 -0.00000000000E+00 -0.48266978899E+03  0.48266978899E+03  0.00000000000E+00 0.  1.
         35    2    1    2    0    0  0.00000000000E+00  0.00000000000E+00 -0.44349207635E+03  0.52184750163E+03  0.27502653176E+03 0.  0.
         25    1    3    3    0    0  0.38430696164E+02 -0.37382261074E+02 -0.14500980853E+03  0.19570946942E+03  0.12000000000E+03 0.  0.
         25    1    3    3    0    0 -0.38430696164E+02  0.37382261074E+02 -0.29848226782E+03  0.32613803221E+03  0.12000000000E+03 0.  0.
<mgrwt>
<rscale>  0 0.27502653E+03</rscale>
<asrwt>0</asrwt>
<pdfrwt beam="1">  1        2 0.74256883E-01 0.27502653E+03</pdfrwt>
<pdfrwt beam="2">  1       -2 0.60273410E-02 0.27502653E+03</pdfrwt>
<totfact> 0.94645767E+03</totfact>
</mgrwt>
</event>
<event>
 5    1  0.1108889E+001  0.2738897E+03  0.7818608E-02  0.1099074E+00
          1   -1    0    0  501    0  0.00000000000E+00  0.00000000000E+00  0.16848612961E+03  0.16848612961E+03  0.00000000000E+00 0. -1.
         -1   -1    0    0    0  501 -0.00000000000E+00 -0.00000000000E+00 -0.11130820971E+03  0.11130820971E+03  0.00000000000E+00 0. -1.
         35    2    1    2    0    0  0.00000000000E+00  0.00000000000E+00  0.57177919891E+02  0.27979433932E+03  0.27388968179E+03 0.  0.
         25    1    3    3    0    0  0.16997783719E+02  0.62447156694E+02  0.15454187334E+02  0.13721298749E+03  0.12000000000E+03 0.  0.
         25    1    3    3    0    0 -0.16997783719E+02 -0.62447156694E+02  0.41723732557E+02  0.14258135183E+03  0.12000000000E+03 0.  0.
<mgrwt>
<rscale>  0 0.27388968E+03</rscale>
<asrwt>0</asrwt>
<pdfrwt beam="1">  1        1 0.25920943E-01 0.27388968E+03</pdfrwt>
<pdfrwt beam="2">  1       -1 0.17124340E-01 0.27388968E+03</pdfrwt>
<totfact> 0.47097857E+03</totfact>
</mgrwt>
</event>
<event>
 5    1  0.1108889E+001  0.2746258E+03  0.7818608E-02  0.1098661E+00
         -1   -1    0    0    0  501 -0.00000000000E+00  0.00000000000E+00  0.85830100316E+03  0.85830100316E+03  0.00000000000E+00 0.  1.
          1   -1    0    0  501    0  0.00000000000E+00 -0.00000000000E+00 -0.21967618924E+02  0.21967618924E+02  0.00000000000E+00 0.  1.
         35    2    1    2    0    0  0.00000000000E+00  0.00000000000E+00  0.83633338424E+03  0.88026862208E+03  0.27462577708E+03 0.  0.
         25    1    3    3    0    0  0.35660148720E+02  0.56397725187E+02  0.42321420630E+03  0.44492989788E+03  0.12000000000E+03 0.  0.
         25    1    3    3    0    0 -0.35660148720E+02 -0.56397725187E+02  0.41311917794E+03  0.43533872420E+03  0.12000000000E+03 0.  0.
<mgrwt>
<rscale>  0 0.27462578E+03</rscale>
<asrwt>0</asrwt>
<pdfrwt beam="1">  1        1 0.33796343E-02 0.27462578E+03</pdfrwt>
<pdfrwt beam="2">  1       -1 0.13204628E+00 0.27462578E+03</pdfrwt>
<totfact> 0.15084020E+03</totfact>
</mgrwt>
</event>
<event>
 5    1  0.1108889E+001  0.2747787E+03  0.7818608E-02  0.1098575E+00
         -1   -1    0    0    0  501 -0.00000000000E+00  0.00000000000E+00  0.56583264681E+01  0.56583264681E+01  0.00000000000E+00 0.  1.
          1   -1    0    0  501    0  0.00000000000E+00 -0.00000000000E+00 -0.33359390133E+04  0.33359390133E+04  0.00000000000E+00 0.  1.
         35    2    1    2    0    0  0.00000000000E+00  0.00000000000E+00 -0.33302806868E+04  0.33415973398E+04  0.27477868924E+03 0.  0.
         25    1    3    3    0    0  0.12767193412E+02 -0.34458915992E+02 -0.98527197072E+03  0.99323273929E+03  0.12000000000E+03 0.  0.
         25    1    3    3    0    0 -0.12767193412E+02  0.34458915992E+02 -0.23450087161E+04  0.23483646005E+04  0.12000000000E+03 0.  0.
<mgrwt>
<rscale>  0 0.27477869E+03</rscale>
<asrwt>0</asrwt>
<pdfrwt beam="1">  1        1 0.51322162E+00 0.27477869E+03</pdfrwt>
<pdfrwt beam="2">  1       -1 0.87051138E-03 0.27477869E+03</pdfrwt>
<totfact> 0.95574050E+02</totfact>
</mgrwt>
</event>
<event>
 5    1  0.1108889E+001  0.2756246E+03  0.7818608E-02  0.1098103E+00
          2   -1    0    0  501    0  0.00000000000E+00  0.00000000000E+00  0.82208455426E+02  0.82208455426E+02  0.00000000000E+00 0. -1.
         -2   -1    0    0    0  501 -0.00000000000E+00 -0.00000000000E+00 -0.23102531918E+03  0.23102531918E+03  0.00000000000E+00 0. -1.
         35    2    1    2    0    0  0.00000000000E+00  0.00000000000E+00 -0.14881686376E+03  0.31323377461E+03  0.27562463355E+03 0.  0.
         25    1    3    3    0    0  0.34177479113E+02  0.36246205498E+02 -0.12661528392E+03  0.18142027895E+03  0.12000000000E+03 0.  0.
         25    1    3    3    0    0 -0.34177479113E+02 -0.36246205498E+02 -0.22201579839E+02  0.13181349566E+03  0.12000000000E+03 0.  0.
<mgrwt>
<rscale>  0 0.27562463E+03</rscale>
<asrwt>0</asrwt>
<pdfrwt beam="1">  1        2 0.12647455E-01 0.27562463E+03</pdfrwt>
<pdfrwt beam="2">  1       -2 0.35542357E-01 0.27562463E+03</pdfrwt>
<totfact> 0.35579053E+03</totfact>
</mgrwt>
</event>
<event>
 5    1  0.1108889E+001  0.2749967E+03  0.7818608E-02  0.1098453E+00
         -4   -1    0    0    0  501 -0.00000000000E+00  0.00000000000E+00  0.38857004585E+02  0.38857004585E+02  0.00000000000E+00 0.  1.
          4   -1    0    0  501    0  0.00000000000E+00 -0.00000000000E+00 -0.48654811514E+03  0.48654811514E+03  0.00000000000E+00 0.  1.
         35    2    1    2    0    0  0.00000000000E+00  0.00000000000E+00 -0.44769111056E+03  0.52540511973E+03  0.27499674428E+03 0.  0.
         25    1    3    3    0    0  0.38012993088E+02 -0.37901035128E+02 -0.30084779854E+03  0.32831520524E+03  0.12000000000E+03 0.  0.
         25    1    3    3    0    0 -0.38012993088E+02  0.37901035128E+02 -0.14684331202E+03  0.19708991449E+03  0.12000000000E+03 0.  0.
<mgrwt>
<rscale>  0 0.27499674E+03</rscale>
<asrwt>0</asrwt>
<pdfrwt beam="1">  1        4 0.74853558E-01 0.27499674E+03</pdfrwt>
<pdfrwt beam="2">  1       -4 0.59780006E-02 0.27499674E+03</pdfrwt>
<totfact> 0.55073336E+02</totfact>
</mgrwt>
</event>
<event>
 5    1  0.1108889E+001  0.2744400E+03  0.7818608E-02  0.1098765E+00
         -1   -1    0    0    0  501 -0.00000000000E+00  0.00000000000E+00  0.43482133860E+01  0.43482133860E+01  0.00000000000E+00 0.  1.
          1   -1    0    0  501    0  0.00000000000E+00 -0.00000000000E+00 -0.43303606828E+04  0.43303606828E+04  0.00000000000E+00 0.  1.
         35    2    1    2    0    0  0.00000000000E+00  0.00000000000E+00 -0.43260124694E+04  0.43347088962E+04  0.27444002833E+03 0.  0.
         25    1    3    3    0    0  0.67344180631E+01  0.39821657876E+02 -0.29985189389E+04  0.30011909209E+04  0.12000000000E+03 0.  0.
         25    1    3    3    0    0 -0.67344180631E+01 -0.39821657876E+02 -0.13274935306E+04  0.13335179753E+04  0.12000000000E+03 0.  0.
<mgrwt>
<rscale>  0 0.27444003E+03</rscale>
<asrwt>0</asrwt>
<pdfrwt beam="1">  1        1 0.66620995E+00 0.27444003E+03</pdfrwt>
<pdfrwt beam="2">  1       -1 0.66895529E-03 0.27444003E+03</pdfrwt>
<totfact> 0.21548967E+02</totfact>
</mgrwt>
</event>
<event>
 5    1  0.1108889E+001  0.2746073E+03  0.7818608E-02  0.1098671E+00
         -1   -1    0    0    0  501 -0.00000000000E+00  0.00000000000E+00  0.12670813789E+02  0.12670813789E+02  0.00000000000E+00 0. -1.
          1   -1    0    0  501    0  0.00000000000E+00 -0.00000000000E+00 -0.14878522609E+04  0.14878522609E+04  0.00000000000E+00 0. -1.
         35    2    1    2    0    0  0.00000000000E+00  0.00000000000E+00 -0.14751814471E+04  0.15005230747E+04  0.27460734837E+03 0.  0.
         25    1    3    3    0    0  0.58997145325E+02  0.57436213034E+01 -0.57018065283E+03  0.58567877647E+03  0.12000000000E+03 0.  0.
         25    1    3    3    0    0 -0.58997145325E+02 -0.57436213034E+01 -0.90500079429E+03  0.91484429823E+03  0.12000000000E+03 0.  0.
<mgrwt>
<rscale>  0 0.27460735E+03</rscale>
<asrwt>0</asrwt>
<pdfrwt beam="1">  1        1 0.22890033E+00 0.27460735E+03</pdfrwt>
<pdfrwt beam="2">  1       -1 0.19493561E-02 0.27460735E+03</pdfrwt>
<totfact> 0.51902673E+03</totfact>
</mgrwt>
</event>
<event>
 5    1  0.1108889E+001  0.2748888E+03  0.7818608E-02  0.1098514E+00
          2   -1    0    0  501    0  0.00000000000E+00  0.00000000000E+00  0.32975816635E+03  0.32975816635E+03  0.00000000000E+00 0.  1.
         -2   -1    0    0    0  501 -0.00000000000E+00 -0.00000000000E+00 -0.57287326854E+02  0.57287326854E+02  0.00000000000E+00 0.  1.
         35    2    1    2    0    0  0.00000000000E+00  0.00000000000E+00  0.27247083950E+03  0.38704549321E+03  0.27488880558E+03 0.  0.
         25    1    3    3    0    0  0.52697866965E+02  0.25746179040E+02  0.90588326811E+02  0.16138827675E+03  0.12000000000E+03 0.  0.
         25    1    3    3    0    0 -0.52697866965E+02 -0.25746179040E+02  0.18188251269E+03  0.22565721646E+03  0.12000000000E+03 0.  0.
<mgrwt>
<rscale>  0 0.27488881E+03</rscale>
<asrwt>0</asrwt>
<pdfrwt beam="1">  1        2 0.50732024E-01 0.27488881E+03</pdfrwt>
<pdfrwt beam="2">  1       -2 0.88134351E-02 0.27488881E+03</pdfrwt>
<totfact> 0.79452115E+03</totfact>
</mgrwt>
</event>
<event>
 5    1  0.1108889E+001  0.2746219E+03  0.7818608E-02  0.1098663E+00
          1   -1    0    0  501    0  0.00000000000E+00  0.00000000000E+00  0.44602093321E+02  0.44602093321E+02  0.00000000000E+00 0. -1.
         -1   -1    0    0    0  501 -0.00000000000E+00 -0.00000000000E+00 -0.42272227326E+03  0.42272227326E+03  0.00000000000E+00 0. -1.
         35    2    1    2    0    0  0.00000000000E+00  0.00000000000E+00 -0.37812017994E+03  0.46732436658E+03  0.27462190940E+03 0.  0.
         25    1    3    3    0    0  0.38854189645E+02 -0.52599061504E+02 -0.16635727172E+03  0.21529294271E+03  0.12000000000E+03 0.  0.
         25    1    3    3    0    0 -0.38854189645E+02  0.52599061504E+02 -0.21176290821E+03  0.25203142387E+03  0.12000000000E+03 0.  0.
<mgrwt>
<rscale>  0 0.27462191E+03</rscale>
<asrwt>0</asrwt>
<pdfrwt beam="1">  1        1 0.68618605E-02 0.27462191E+03</pdfrwt>
<pdfrwt beam="2">  1       -1 0.65034196E-01 0.27462191E+03</pdfrwt>
<totfact> 0.26577157E+03</totfact>
</mgrwt>
</event>
<event>
 5    1  0.1108889E+001  0.2749343E+03  0.7818608E-02  0.1098488E+00
          1   -1    0    0  501    0  0.00000000000E+00  0.00000000000E+00  0.12931756625E+04  0.12931756625E+04  0.00000000000E+00 0.  1.
         -1   -1    0    0    0  501 -0.00000000000E+00 -0.00000000000E+00 -0.14613034960E+02  0.14613034960E+02  0.00000000000E+00 0.  1.
         35    2    1    2    0    0  0.00000000000E+00  0.00000000000E+00  0.12785626276E+04  0.13077886975E+04  0.27493432791E+03 0.  0.
         25    1    3    3    0    0  0.37241658005E+02 -0.50398725994E+02  0.75287146667E+03  0.76494602293E+03  0.12000000000E+03 0.  0.
         25    1    3    3    0    0 -0.37241658005E+02  0.50398725994E+02  0.52569116090E+03  0.54284267455E+03  0.12000000000E+03 0.  0.
<mgrwt>
<rscale>  0 0.27493433E+03</rscale>
<asrwt>0</asrwt>
<pdfrwt beam="1">  1        1 0.19895001E+00 0.27493433E+03</pdfrwt>
<pdfrwt beam="2">  1       -1 0.22481602E-02 0.27493433E+03</pdfrwt>
<totfact> 0.56964966E+03</totfact>
</mgrwt>
</event>
<event>
 5    1  0.1108889E+001  0.2692008E+03  0.7818608E-02  0.1101738E+00
          2   -1    0    0  501    0  0.00000000000E+00  0.00000000000E+00  0.10143645758E+04  0.10143645758E+04  0.00000000000E+00 0. -1.
         -2   -1    0    0    0  501 -0.00000000000E+00 -0.00000000000E+00 -0.17860703625E+02  0.17860703625E+02  0.00000000000E+00 0. -1.
         35    2    1    2    0    0  0.00000000000E+00  0.00000000000E+00  0.99650387222E+03  0.10322252795E+04  0.26920078051E+03 0.  0.
         25    1    3    3    0    0 -0.22113629392E+02 -0.55141029618E+02  0.44571646342E+03  0.46539522077E+03  0.12000000000E+03 0.  0.
         25    1    3    3    0    0  0.22113629392E+02  0.55141029618E+02  0.55078740880E+03  0.56683005870E+03  0.12000000000E+03 0.  0.
<mgrwt>
<rscale>  0 0.26920078E+03</rscale>
<asrwt>0</asrwt>
<pdfrwt beam="1">  1        2 0.15605604E+00 0.26920078E+03</pdfrwt>
<pdfrwt beam="2">  1       -2 0.27478014E-02 0.26920078E+03</pdfrwt>
<totfact> 0.12380894E+04</totfact>
</mgrwt>
</event>
<event>
 5    1  0.1108889E+001  0.2752655E+03  0.7818608E-02  0.1098303E+00
         -2   -1    0    0    0  501 -0.00000000000E+00  0.00000000000E+00  0.52197887805E+01  0.52197887805E+01  0.00000000000E+00 0.  1.
          2   -1    0    0  501    0  0.00000000000E+00 -0.00000000000E+00 -0.36290299730E+04  0.36290299730E+04  0.00000000000E+00 0.  1.
         35    2    1    2    0    0  0.00000000000E+00  0.00000000000E+00 -0.36238101842E+04  0.36342497618E+04  0.27526547141E+03 0.  0.
         25    1    3    3    0    0  0.18428519710E+02  0.58499998439E+02 -0.21808516508E+04  0.21850116208E+04  0.12000000000E+03 0.  0.
         25    1    3    3    0    0 -0.18428519710E+02 -0.58499998439E+02 -0.14429585334E+04  0.14492381410E+04  0.12000000000E+03 0.  0.
<mgrwt>
<rscale>  0 0.27526547E+03</rscale>
<asrwt>0</asrwt>
<pdfrwt beam="1">  1        2 0.55831353E+00 0.27526547E+03</pdfrwt>
<pdfrwt beam="2">  1       -2 0.80304266E-03 0.27526547E+03</pdfrwt>
<totfact> 0.24331486E+03</totfact>
</mgrwt>
</event>
<event>
 5    1  0.1108889E+001  0.2725083E+03  0.7818608E-02  0.1099853E+00
          1   -1    0    0  501    0  0.00000000000E+00  0.00000000000E+00  0.16329344421E+02  0.16329344421E+02  0.00000000000E+00 0. -1.
         -1   -1    0    0    0  501 -0.00000000000E+00 -0.00000000000E+00 -0.11369225610E+04  0.11369225610E+04  0.00000000000E+00 0. -1.
         35    2    1    2    0    0  0.00000000000E+00  0.00000000000E+00 -0.11205932166E+04  0.11532519054E+04  0.27250834907E+03 0.  0.
         25    1    3    3    0    0  0.36597832496E+02 -0.12143322047E+02 -0.34127997566E+03  0.36381160427E+03  0.12000000000E+03 0.  0.
         25    1    3    3    0    0 -0.36597832496E+02  0.12143322047E+02 -0.77931324090E+03  0.78944030113E+03  0.12000000000E+03 0.  0.
<mgrwt>
<rscale>  0 0.27250835E+03</rscale>
<asrwt>0</asrwt>
<pdfrwt beam="1">  1        1 0.25122067E-02 0.27250835E+03</pdfrwt>
<pdfrwt beam="2">  1       -1 0.17491117E+00 0.27250835E+03</pdfrwt>
<totfact> 0.10872293E+03</totfact>
</mgrwt>
</event>
<event>
 5    1  0.1108889E+001  0.2755262E+03  0.7818608E-02  0.1098158E+00
         -1   -1    0    0    0  501 -0.00000000000E+00  0.00000000000E+00  0.20247297436E+02  0.20247297436E+02  0.00000000000E+00 0.  1.
          1   -1    0    0  501    0  0.00000000000E+00 -0.00000000000E+00 -0.93734370248E+03  0.93734370248E+03  0.00000000000E+00 0.  1.
         35    2    1    2    0    0  0.00000000000E+00  0.00000000000E+00 -0.91709640504E+03  0.95759099992E+03  0.27552623646E+03 0.  0.
         25    1    3    3    0    0 -0.54686495384E+02 -0.34561056691E+02 -0.38959679025E+03  0.41275990405E+03  0.12000000000E+03 0.  0.
         25    1    3    3    0    0  0.54686495384E+02  0.34561056691E+02 -0.52749961479E+03  0.54483109586E+03  0.12000000000E+03 0.  0.
<mgrwt>
<rscale>  0 0.27552624E+03</rscale>
<asrwt>0</asrwt>
<pdfrwt beam="1">  1        1 0.14420672E+00 0.27552624E+03</pdfrwt>
<pdfrwt beam="2">  1       -1 0.31149690E-02 0.27552624E+03</pdfrwt>
<totfact> 0.63635698E+03</totfact>
</mgrwt>
</event>
<event>
 5    1  0.1108889E+001  0.2743182E+03  0.7818608E-02  0.1098833E+00
          2   -1    0    0  501    0  0.00000000000E+00  0.00000000000E+00  0.19486339949E+04  0.19486339949E+04  0.00000000000E+00 0.  1.
         -2   -1    0    0    0  501 -0.00000000000E+00 -0.00000000000E+00 -0.96542601935E+01  0.96542601935E+01  0.00000000000E+00 0.  1.
         35    2    1    2    0    0  0.00000000000E+00  0.00000000000E+00  0.19389797347E+04  0.19582882551E+04  0.27431820653E+03 0.  0.
         25    1    3    3    0    0 -0.27340705944E+02 -0.28231593063E+02  0.58717797211E+03  0.60060178819E+03  0.12000000000E+03 0.  0.
         25    1    3    3    0    0  0.27340705944E+02  0.28231593063E+02  0.13518017626E+04  0.13576864669E+04  0.12000000000E+03 0.  0.
<mgrwt>
<rscale>  0 0.27431821E+03</rscale>
<asrwt>0</asrwt>
<pdfrwt beam="1">  1        2 0.29978953E+00 0.27431821E+03</pdfrwt>
<pdfrwt beam="2">  1       -2 0.14852723E-02 0.27431821E+03</pdfrwt>
<totfact> 0.94634023E+03</totfact>
</mgrwt>
</event>
<event>
 5    1  0.1108889E+001  0.2746869E+03  0.7818608E-02  0.1098627E+00
         -1   -1    0    0    0  501 -0.00000000000E+00  0.00000000000E+00  0.87203725128E+02  0.87203725128E+02  0.00000000000E+00 0. -1.
          1   -1    0    0  501    0  0.00000000000E+00 -0.00000000000E+00 -0.21631205056E+03  0.21631205056E+03  0.00000000000E+00 0. -1.
         35    2    1    2    0    0  0.00000000000E+00  0.00000000000E+00 -0.12910832544E+03  0.30351577569E+03  0.27468685152E+03 0.  0.
         25    1    3    3    0    0 -0.34069187415E+02  0.44866119699E+02 -0.10423314572E+03  0.16863637477E+03  0.12000000000E+03 0.  0.
         25    1    3    3    0    0  0.34069187415E+02 -0.44866119699E+02 -0.24875179717E+02  0.13487940093E+03  0.12000000000E+03 0.  0.
<mgrwt>
<rscale>  0 0.27468685E+03</rscale>
<asrwt>0</asrwt>
<pdfrwt beam="1">  1        1 0.33278777E-01 0.27468685E+03</pdfrwt>
<pdfrwt beam="2">  1       -1 0.13415958E-01 0.27468685E+03</pdfrwt>
<totfact> 0.50615940E+03</totfact>
</mgrwt>
</event>
<event>
 5    1  0.1108889E+001  0.2753836E+03  0.7818608E-02  0.1098237E+00
         -1   -1    0    0    0  501 -0.00000000000E+00  0.00000000000E+00  0.94750956813E+01  0.94750956813E+01  0.00000000000E+00 0. -1.
          1   -1    0    0  501    0  0.00000000000E+00 -0.00000000000E+00 -0.20009323010E+04  0.20009323010E+04  0.00000000000E+00 0. -1.
         35    2    1    2    0    0  0.00000000000E+00  0.00000000000E+00 -0.19914572053E+04  0.20104073967E+04  0.27538355073E+03 0.  0.
         25    1    3    3    0    0  0.14002829307E+02 -0.41091999907E+02 -0.61819230078E+03  0.63122607078E+03  0.12000000000E+03 0.  0.
         25    1    3    3    0    0 -0.14002829307E+02  0.41091999907E+02 -0.13732649045E+04  0.13791813259E+04  0.12000000000E+03 0.  0.
<mgrwt>
<rscale>  0 0.27538355E+03</rscale>
<asrwt>0</asrwt>
<pdfrwt beam="1">  1        1 0.30783587E+00 0.27538355E+03</pdfrwt>
<pdfrwt beam="2">  1       -1 0.14577064E-02 0.27538355E+03</pdfrwt>
<totfact> 0.36659462E+03</totfact>
</mgrwt>
</event>
<event>
 5    1  0.1108889E+001  0.2755773E+03  0.7818608E-02  0.1098129E+00
          2   -1    0    0  501    0  0.00000000000E+00  0.00000000000E+00  0.32803108929E+03  0.32803108929E+03  0.00000000000E+00 0.  1.
         -2   -1    0    0    0  501 -0.00000000000E+00 -0.00000000000E+00 -0.57877767436E+02  0.57877767436E+02  0.00000000000E+00 0.  1.
         35    2    1    2    0    0  0.00000000000E+00  0.00000000000E+00  0.27015332185E+03  0.38590885672E+03  0.27557726392E+03 0.  0.
         25    1    3    3    0    0  0.55635015504E+02 -0.35760007642E+02  0.11470271631E+03  0.17869176317E+03  0.12000000000E+03 0.  0.
         25    1    3    3    0    0 -0.55635015504E+02  0.35760007642E+02  0.15545060554E+03  0.20721709355E+03  0.12000000000E+03 0.  0.
<mgrwt>
<rscale>  0 0.27557726E+03</rscale>
<asrwt>0</asrwt>
<pdfrwt beam="1">  1        2 0.50466320E-01 0.27557726E+03</pdfrwt>
<pdfrwt beam="2">  1       -2 0.89042721E-02 0.27557726E+03</pdfrwt>
<totfact> 0.78631141E+03</totfact>
</mgrwt>
</event>
<event>
 5    1  0.1108889E+001  0.2736020E+03  0.7818608E-02  0.1099236E+00
         -2   -1    0    0    0  501 -0.00000000000E+00  0.00000000000E+00  0.24753013381E+02  0.24753013381E+02  0.00000000000E+00 0. -1.
          2   -1    0    0  501    0  0.00000000000E+00 -0.00000000000E+00 -0.75605014031E+03  0.75605014031E+03  0.00000000000E+00 0. -1.
         35    2    1    2    0    0  0.00000000000E+00  0.00000000000E+00 -0.73129712693E+03  0.78080315369E+03  0.27360204122E+03 0.  0.
         25    1    3    3    0    0 -0.48541712363E+02  0.44247444937E+02 -0.36387779258E+03  0.38874307988E+03  0.12000000000E+03 0.  0.
         25    1    3    3    0    0  0.48541712363E+02 -0.44247444937E+02 -0.36741933435E+03  0.39206007381E+03  0.12000000000E+03 0.  0.
<mgrwt>
<rscale>  0 0.27360204E+03</rscale>
<asrwt>0</asrwt>
<pdfrwt beam="1">  1        2 0.11631542E+00 0.27360204E+03</pdfrwt>
<pdfrwt beam="2">  1       -2 0.38081554E-02 0.27360204E+03</pdfrwt>
<totfact> 0.11239085E+04</totfact>
</mgrwt>
</event>
<event>
 5    1  0.1108889E+001  0.2746879E+03  0.7818608E-02  0.1098626E+00
          1   -1    0    0  501    0  0.00000000000E+00  0.00000000000E+00  0.77245356143E+03  0.77245356143E+03  0.00000000000E+00 0.  1.
         -1   -1    0    0    0  501 -0.00000000000E+00 -0.00000000000E+00 -0.24420052278E+02  0.24420052278E+02  0.00000000000E+00 0.  1.
         35    2    1    2    0    0  0.00000000000E+00  0.00000000000E+00  0.74803350915E+03  0.79687361371E+03  0.27468786906E+03 0.  0.
         25    1    3    3    0    0 -0.64058170296E+02 -0.56436684592E+01  0.42656086891E+03  0.44776051083E+03  0.12000000000E+03 0.  0.
         25    1    3    3    0    0  0.64058170296E+02  0.56436684592E+01  0.32147264024E+03  0.34911310287E+03  0.12000000000E+03 0.  0.
<mgrwt>
<rscale>  0 0.27468787E+03</rscale>
<asrwt>0</asrwt>
<pdfrwt beam="1">  1        1 0.11883899E+00 0.27468787E+03</pdfrwt>
<pdfrwt beam="2">  1       -1 0.37569317E-02 0.27468787E+03</pdfrwt>
<totfact> 0.65529782E+03</totfact>
</mgrwt>
</event>
<event>
 5    1  0.1108889E+001  0.2761181E+03  0.7818608E-02  0.1097828E+00
          3   -1    0    0  501    0  0.00000000000E+00  0.00000000000E+00  0.37648380546E+02  0.37648380546E+02  0.00000000000E+00 0. -1.
         -3   -1    0    0    0  501 -0.00000000000E+00 -0.00000000000E+00 -0.50627134634E+03  0.50627134634E+03  0.00000000000E+00 0. -1.
         35    2    1    2    0    0  0.00000000000E+00  0.00000000000E+00 -0.46862296579E+03  0.54391972688E+03  0.27611806393E+03 0.  0.
         25    1    3    3    0    0 -0.29650070182E+02 -0.55133404693E+02 -0.18067146307E+03  0.22574542419E+03  0.12000000000E+03 0.  0.
         25    1    3    3    0    0  0.29650070182E+02  0.55133404693E+02 -0.28795150272E+03  0.31817430270E+03  0.12000000000E+03 0.  0.
<mgrwt>
<rscale>  0 0.27611806E+03</rscale>
<asrwt>0</asrwt>
<pdfrwt beam="1">  1        3 0.57920579E-02 0.27611806E+03</pdfrwt>
<pdfrwt beam="2">  1       -3 0.77887908E-01 0.27611806E+03</pdfrwt>
<totfact> 0.72355458E+02</totfact>
</mgrwt>
</event>
<event>
 5    1  0.1108889E+001  0.2749652E+03  0.7818608E-02  0.1098471E+00
         -4   -1    0    0    0  501 -0.00000000000E+00  0.00000000000E+00  0.28048514855E+02  0.28048514855E+02  0.00000000000E+00 0. -1.
          4   -1    0    0  501    0  0.00000000000E+00 -0.00000000000E+00 -0.67388486436E+03  0.67388486436E+03  0.00000000000E+00 0. -1.
         35    2    1    2    0    0  0.00000000000E+00  0.00000000000E+00 -0.64583634951E+03  0.70193337922E+03  0.27496523147E+03 0.  0.
         25    1    3    3    0    0  0.41113146603E+02  0.64506946213E+01 -0.18857237968E+03  0.22735752608E+03  0.12000000000E+03 0.  0.
         25    1    3    3    0    0 -0.41113146603E+02 -0.64506946213E+01 -0.45726396982E+03  0.47457585314E+03  0.12000000000E+03 0.  0.
<mgrwt>
<rscale>  0 0.27496523E+03</rscale>
<asrwt>0</asrwt>
<pdfrwt beam="1">  1        4 0.10367459E+00 0.27496523E+03</pdfrwt>
<pdfrwt beam="2">  1       -4 0.43151565E-02 0.27496523E+03</pdfrwt>
<totfact> 0.44480123E+02</totfact>
</mgrwt>
</event>
<event>
 5    1  0.1108889E+001  0.2748583E+03  0.7818608E-02  0.1098531E+00
          2   -1    0    0  501    0  0.00000000000E+00  0.00000000000E+00  0.14288411775E+04  0.14288411775E+04  0.00000000000E+00 0.  1.
         -2   -1    0    0    0  501 -0.00000000000E+00 -0.00000000000E+00 -0.13218247706E+02  0.13218247706E+02  0.00000000000E+00 0.  1.
         35    2    1    2    0    0  0.00000000000E+00  0.00000000000E+00  0.14156229298E+04  0.14420594252E+04  0.27485833891E+03 0.  0.
         25    1    3    3    0    0  0.65456644269E+02 -0.96666576188E-01  0.78241500550E+03  0.79426558685E+03  0.12000000000E+03 0.  0.
         25    1    3    3    0    0 -0.65456644269E+02  0.96666576188E-01  0.63320792431E+03  0.64779383837E+03  0.12000000000E+03 0.  0.
<mgrwt>
<rscale>  0 0.27485834E+03</rscale>
<asrwt>0</asrwt>
<pdfrwt beam="1">  1        2 0.21982160E+00 0.27485834E+03</pdfrwt>
<pdfrwt beam="2">  1       -2 0.20335777E-02 0.27485834E+03</pdfrwt>
<totfact> 0.11241134E+04</totfact>
</mgrwt>
</event>
<event>
 5    1  0.1108889E+001  0.2748495E+03  0.7818608E-02  0.1098536E+00
          4   -1    0    0  501    0  0.00000000000E+00  0.00000000000E+00  0.13661130202E+04  0.13661130202E+04  0.00000000000E+00 0.  1.
         -4   -1    0    0    0  501 -0.00000000000E+00 -0.00000000000E+00 -0.13824304637E+02  0.13824304637E+02  0.00000000000E+00 0.  1.
         35    2    1    2    0    0  0.00000000000E+00  0.00000000000E+00  0.13522887156E+04  0.13799373249E+04  0.27484950471E+03 0.  0.
         25    1    3    3    0    0  0.12062792598E+02 -0.63009095001E+02  0.77270715154E+03  0.78459671110E+03  0.12000000000E+03 0.  0.
         25    1    3    3    0    0 -0.12062792598E+02  0.63009095001E+02  0.57958156405E+03  0.59534061377E+03  0.12000000000E+03 0.  0.
<mgrwt>
<rscale>  0 0.27484950E+03</rscale>
<asrwt>0</asrwt>
<pdfrwt beam="1">  1        4 0.21017113E+00 0.27484950E+03</pdfrwt>
<pdfrwt beam="2">  1       -4 0.21268172E-02 0.27484950E+03</pdfrwt>
<totfact> 0.21473892E+02</totfact>
</mgrwt>
</event>
<event>
 5    1  0.1108889E+001  0.2756997E+03  0.7818608E-02  0.1098061E+00
          1   -1    0    0  501    0  0.00000000000E+00  0.00000000000E+00  0.15919968225E+04  0.15919968225E+04  0.00000000000E+00 0.  1.
         -1   -1    0    0    0  501 -0.00000000000E+00 -0.00000000000E+00 -0.11936319146E+02  0.11936319146E+02  0.00000000000E+00 0.  1.
         35    2    1    2    0    0  0.00000000000E+00  0.00000000000E+00  0.15800605034E+04  0.16039331416E+04  0.27569970731E+03 0.  0.
         25    1    3    3    0    0 -0.51815077556E+02  0.27176209253E+02  0.59025123657E+03  0.60516102889E+03  0.12000000000E+03 0.  0.
         25    1    3    3    0    0  0.51815077556E+02 -0.27176209253E+02  0.98980926678E+03  0.99877211276E+03  0.12000000000E+03 0.  0.
<mgrwt>
<rscale>  0 0.27569971E+03</rscale>
<asrwt>0</asrwt>
<pdfrwt beam="1">  1        1 0.24492242E+00 0.27569971E+03</pdfrwt>
<pdfrwt beam="2">  1       -1 0.18363581E-02 0.27569971E+03</pdfrwt>
<totfact> 0.48341516E+03</totfact>
</mgrwt>
</event>
<event>
 5    1  0.1108889E+001  0.2731843E+03  0.7818608E-02  0.1099471E+00
          2   -1    0    0  501    0  0.00000000000E+00  0.00000000000E+00  0.10362971551E+03  0.10362971551E+03  0.00000000000E+00 0.  1.
         -2   -1    0    0    0  501 -0.00000000000E+00 -0.00000000000E+00 -0.18003922298E+03  0.18003922298E+03  0.00000000000E+00 0.  1.
         35    2    1    2    0    0  0.00000000000E+00  0.00000000000E+00 -0.76409507477E+02  0.28366893849E+03  0.27318428548E+03 0.  0.
         25    1    3    3    0    0 -0.47048059521E+02  0.44649613988E+02 -0.45569603768E+02  0.14381827673E+03  0.12000000000E+03 0.  0.
         25    1    3    3    0    0  0.47048059521E+02 -0.44649613988E+02 -0.30839903709E+02  0.13985066176E+03  0.12000000000E+03 0.  0.
<mgrwt>
<rscale>  0 0.27318429E+03</rscale>
<asrwt>0</asrwt>
<pdfrwt beam="1">  1        2 0.15943033E-01 0.27318429E+03</pdfrwt>
<pdfrwt beam="2">  1       -2 0.27698342E-01 0.27318429E+03</pdfrwt>
<totfact> 0.42585454E+03</totfact>
</mgrwt>
</event>
<event>
 5    1  0.1108889E+001  0.2745256E+03  0.7818608E-02  0.1098717E+00
          2   -1    0    0  501    0  0.00000000000E+00  0.00000000000E+00  0.27883896881E+04  0.27883896881E+04  0.00000000000E+00 0. -1.
         -2   -1    0    0    0  501 -0.00000000000E+00 -0.00000000000E+00 -0.67569719203E+01  0.67569719203E+01  0.00000000000E+00 0. -1.
         35    2    1    2    0    0  0.00000000000E+00  0.00000000000E+00  0.27816327162E+04  0.27951466600E+04  0.27452556038E+03 0.  0.
         25    1    3    3    0    0  0.38917562383E+02 -0.30428331554E+02  0.18462269404E+04  0.18507820983E+04  0.12000000000E+03 0.  0.
         25    1    3    3    0    0 -0.38917562383E+02  0.30428331554E+02  0.93540577576E+03  0.94436456168E+03  0.12000000000E+03 0.  0.
<mgrwt>
<rscale>  0 0.27452556E+03</rscale>
<asrwt>0</asrwt>
<pdfrwt beam="1">  1        2 0.42898211E+00 0.27452556E+03</pdfrwt>
<pdfrwt beam="2">  1       -2 0.10395364E-02 0.27452556E+03</pdfrwt>
<totfact> 0.55751685E+03</totfact>
</mgrwt>
</event>
<event>
 5    1  0.1108889E+001  0.2748124E+03  0.7818608E-02  0.1098557E+00
          4   -1    0    0  501    0  0.00000000000E+00  0.00000000000E+00  0.42332055335E+03  0.42332055335E+03  0.00000000000E+00 0. -1.
         -4   -1    0    0    0  501 -0.00000000000E+00 -0.00000000000E+00 -0.44600863180E+02  0.44600863180E+02  0.00000000000E+00 0. -1.
         35    2    1    2    0    0  0.00000000000E+00  0.00000000000E+00  0.37871969017E+03  0.46792141653E+03  0.27481238750E+03 0.  0.
         25    1    3    3    0    0  0.19512138184E+02  0.30388959248E+02  0.28532066199E+03  0.31162813182E+03  0.12000000000E+03 0.  0.
         25    1    3    3    0    0 -0.19512138184E+02 -0.30388959248E+02  0.93399028174E+02  0.15629328471E+03  0.12000000000E+03 0.  0.
<mgrwt>
<rscale>  0 0.27481239E+03</rscale>
<asrwt>0</asrwt>
<pdfrwt beam="1">  1        4 0.65126236E-01 0.27481239E+03</pdfrwt>
<pdfrwt beam="2">  1       -4 0.68616716E-02 0.27481239E+03</pdfrwt>
<totfact> 0.59445173E+02</totfact>
</mgrwt>
</event>
<event>
 5    1  0.1108889E+001  0.2748584E+03  0.7818608E-02  0.1098531E+00
         -4   -1    0    0    0  501 -0.00000000000E+00  0.00000000000E+00  0.64538695132E+03  0.64538695132E+03  0.00000000000E+00 0. -1.
          4   -1    0    0  501    0  0.00000000000E+00 -0.00000000000E+00 -0.29264280442E+02  0.29264280442E+02  0.00000000000E+00 0. -1.
         35    2    1    2    0    0  0.00000000000E+00  0.00000000000E+00  0.61612267088E+03  0.67465123176E+03  0.27485839799E+03 0.  0.
         25    1    3    3    0    0 -0.90959889312E+01  0.10169383652E+02  0.14709449654E+03  0.19032326261E+03  0.12000000000E+03 0.  0.
         25    1    3    3    0    0  0.90959889312E+01 -0.10169383652E+02  0.46902817434E+03  0.48432796915E+03  0.12000000000E+03 0.  0.
<mgrwt>
<rscale>  0 0.27485840E+03</rscale>
<asrwt>0</asrwt>
<pdfrwt beam="1">  1        4 0.45021975E-02 0.27485840E+03</pdfrwt>
<pdfrwt beam="2">  1       -4 0.99290289E-01 0.27485840E+03</pdfrwt>
<totfact> 0.45986819E+02</totfact>
</mgrwt>
</event>
<event>
 5    1  0.1108889E+001  0.2746904E+03  0.7818608E-02  0.1098625E+00
          2   -1    0    0  501    0  0.00000000000E+00  0.00000000000E+00  0.30809862977E+04  0.30809862977E+04  0.00000000000E+00 0.  1.
         -2   -1    0    0    0  501 -0.00000000000E+00 -0.00000000000E+00 -0.61226192220E+01  0.61226192220E+01  0.00000000000E+00 0.  1.
         35    2    1    2    0    0  0.00000000000E+00  0.00000000000E+00  0.30748636785E+04  0.30871089169E+04  0.27469041431E+03 0.  0.
         25    1    3    3    0    0  0.40774992301E+02 -0.35935553336E+02  0.19741083258E+04  0.19784988365E+04  0.12000000000E+03 0.  0.
         25    1    3    3    0    0 -0.40774992301E+02  0.35935553336E+02  0.11007553526E+04  0.11086100804E+04  0.12000000000E+03 0.  0.
<mgrwt>
<rscale>  0 0.27469041E+03</rscale>
<asrwt>0</asrwt>
<pdfrwt beam="1">  1        2 0.47399665E+00 0.27469041E+03</pdfrwt>
<pdfrwt beam="2">  1       -2 0.94194388E-03 0.27469041E+03</pdfrwt>
<totfact> 0.43348684E+03</totfact>
</mgrwt>
</event>
<event>
 5    1  0.1108889E+001  0.2755886E+03  0.7818608E-02  0.1098123E+00
         -2   -1    0    0    0  501 -0.00000000000E+00  0.00000000000E+00  0.13492273004E+02  0.13492273004E+02  0.00000000000E+00 0.  1.
          2   -1    0    0  501    0  0.00000000000E+00 -0.00000000000E+00 -0.14072702463E+04  0.14072702463E+04  0.00000000000E+00 0.  1.
         35    2    1    2    0    0  0.00000000000E+00  0.00000000000E+00 -0.13937779733E+04  0.14207625193E+04  0.27558863804E+03 0.  0.
         25    1    3    3    0    0 -0.66286410249E+02  0.13441030437E+02 -0.67849876875E+03  0.69234032721E+03  0.12000000000E+03 0.  0.
         25    1    3    3    0    0  0.66286410249E+02 -0.13441030437E+02 -0.71527920458E+03  0.72842219213E+03  0.12000000000E+03 0.  0.
<mgrwt>
<rscale>  0 0.27558864E+03</rscale>
<asrwt>0</asrwt>
<pdfrwt beam="1">  1        2 0.21650309E+00 0.27558864E+03</pdfrwt>
<pdfrwt beam="2">  1       -2 0.20757345E-02 0.27558864E+03</pdfrwt>
<totfact> 0.11204582E+04</totfact>
</mgrwt>
</event>
<event>
 5    1  0.1108889E+001  0.2751836E+03  0.7818608E-02  0.1098349E+00
          2   -1    0    0  501    0  0.00000000000E+00  0.00000000000E+00  0.72810966581E+03  0.72810966581E+03  0.00000000000E+00 0. -1.
         -2   -1    0    0    0  501 -0.00000000000E+00 -0.00000000000E+00 -0.26000888747E+02  0.26000888747E+02  0.00000000000E+00 0. -1.
         35    2    1    2    0    0  0.00000000000E+00  0.00000000000E+00  0.70210877707E+03  0.75411055456E+03  0.27518356358E+03 0.  0.
         25    1    3    3    0    0 -0.38479992183E+02  0.23994682009E+02  0.21472045100E+03  0.25012262321E+03  0.12000000000E+03 0.  0.
         25    1    3    3    0    0  0.38479992183E+02 -0.23994682009E+02  0.48738832606E+03  0.50398793135E+03  0.12000000000E+03 0.  0.
<mgrwt>
<rscale>  0 0.27518356E+03</rscale>
<asrwt>0</asrwt>
<pdfrwt beam="1">  1        2 0.11201686E+00 0.27518356E+03</pdfrwt>
<pdfrwt beam="2">  1       -2 0.40001373E-02 0.27518356E+03</pdfrwt>
<totfact> 0.10938600E+04</totfact>
</mgrwt>
</event>
<event>
 5    1  0.1108889E+001  0.2754703E+03  0.7818608E-02  0.1098189E+00
         -1   -1    0    0    0  501 -0.00000000000E+00  0.00000000000E+00  0.46250090876E+02  0.46250090876E+02  0.00000000000E+00 0. -1.
          1   -1    0    0  501    0  0.00000000000E+00 -0.00000000000E+00 -0.41018222079E+03  0.41018222079E+03  0.00000000000E+00 0. -1.
         35    2    1    2    0    0  0.00000000000E+00  0.00000000000E+00 -0.36393212992E+03  0.45643231167E+03  0.27547025239E+03 0.  0.
         25    1    3    3    0    0  0.14634730069E+02 -0.41072812250E+01 -0.72811342024E+02  0.14118263566E+03  0.12000000000E+03 0.  0.
         25    1    3    3    0    0 -0.14634730069E+02  0.41072812250E+01 -0.29112078789E+03  0.31524967601E+03  0.12000000000E+03 0.  0.
<mgrwt>
<rscale>  0 0.27547025E+03</rscale>
<asrwt>0</asrwt>
<pdfrwt beam="1">  1        1 0.63104958E-01 0.27547025E+03</pdfrwt>
<pdfrwt beam="2">  1       -1 0.71153984E-02 0.27547025E+03</pdfrwt>
<totfact> 0.60095678E+03</totfact>
</mgrwt>
</event>
<event>
 5    1  0.1108889E+001  0.2749121E+03  0.7818608E-02  0.1098501E+00
         -2   -1    0    0    0  501 -0.00000000000E+00  0.00000000000E+00  0.62259960048E+02  0.62259960048E+02  0.00000000000E+00 0. -1.
          2   -1    0    0  501    0  0.00000000000E+00 -0.00000000000E+00 -0.30347228598E+03  0.30347228598E+03  0.00000000000E+00 0. -1.
         35    2    1    2    0    0  0.00000000000E+00  0.00000000000E+00 -0.24121232593E+03  0.36573224603E+03  0.27491214888E+03 0.  0.
         25    1    3    3    0    0  0.23279326127E+02  0.49591517233E+02 -0.69203149868E+02  0.14896416199E+03  0.12000000000E+03 0.  0.
         25    1    3    3    0    0 -0.23279326127E+02 -0.49591517233E+02 -0.17200917606E+03  0.21676808403E+03  0.12000000000E+03 0.  0.
<mgrwt>
<rscale>  0 0.27491215E+03</rscale>
<asrwt>0</asrwt>
<pdfrwt beam="1">  1        2 0.46688044E-01 0.27491215E+03</pdfrwt>
<pdfrwt beam="2">  1       -2 0.95784553E-02 0.27491215E+03</pdfrwt>
<totfact> 0.76182773E+03</totfact>
</mgrwt>
</event>
<event>
 5    1  0.1108889E+001  0.2748947E+03  0.7818608E-02  0.1098510E+00
          2   -1    0    0  501    0  0.00000000000E+00  0.00000000000E+00  0.37717685863E+03  0.37717685863E+03  0.00000000000E+00 0. -1.
         -2   -1    0    0    0  501 -0.00000000000E+00 -0.00000000000E+00 -0.50087313215E+02  0.50087313215E+02  0.00000000000E+00 0. -1.
         35    2    1    2    0    0  0.00000000000E+00  0.00000000000E+00  0.32708954541E+03  0.42726417184E+03  0.27489471043E+03 0.  0.
         25    1    3    3    0    0  0.35967685747E+02 -0.38144791357E+02  0.22843633743E+03  0.26330943732E+03  0.12000000000E+03 0.  0.
         25    1    3    3    0    0 -0.35967685747E+02  0.38144791357E+02  0.98653207986E+02  0.16395473452E+03  0.12000000000E+03 0.  0.
<mgrwt>
<rscale>  0 0.27489471E+03</rscale>
<asrwt>0</asrwt>
<pdfrwt beam="1">  1        2 0.58027207E-01 0.27489471E+03</pdfrwt>
<pdfrwt beam="2">  1       -2 0.77057407E-02 0.27489471E+03</pdfrwt>
<totfact> 0.84805053E+03</totfact>
</mgrwt>
</event>
<event>
 5    1  0.1108889E+001  0.2756658E+03  0.7818608E-02  0.1098080E+00
          2   -1    0    0  501    0  0.00000000000E+00  0.00000000000E+00  0.41427026872E+03  0.41427026872E+03  0.00000000000E+00 0.  1.
         -2   -1    0    0    0  501 -0.00000000000E+00 -0.00000000000E+00 -0.45858721702E+02  0.45858721702E+02  0.00000000000E+00 0.  1.
         35    2    1    2    0    0  0.00000000000E+00  0.00000000000E+00  0.36841154702E+03  0.46012899042E+03  0.27566577562E+03 0.  0.
         25    1    3    3    0    0  0.49106744476E+01 -0.60017513771E+02  0.23623654051E+03  0.27172397714E+03  0.12000000000E+03 0.  0.
         25    1    3    3    0    0 -0.49106744476E+01  0.60017513771E+02  0.13217500651E+03  0.18840501328E+03  0.12000000000E+03 0.  0.
<mgrwt>
<rscale>  0 0.27566578E+03</rscale>
<asrwt>0</asrwt>
<pdfrwt beam="1">  1        2 0.63733885E-01 0.27566578E+03</pdfrwt>
<pdfrwt beam="2">  1       -2 0.70551882E-02 0.27566578E+03</pdfrwt>
<totfact> 0.87850418E+03</totfact>
</mgrwt>
</event>
<event>
 5    1  0.1108889E+001  0.2776848E+03  0.7818608E-02  0.1096960E+00
          1   -1    0    0  501    0  0.00000000000E+00  0.00000000000E+00  0.21517279155E+03  0.21517279155E+03  0.00000000000E+00 0. -1.
         -1   -1    0    0    0  501 -0.00000000000E+00 -0.00000000000E+00 -0.89589442064E+02  0.89589442064E+02  0.00000000000E+00 0. -1.
         35    2    1    2    0    0  0.00000000000E+00  0.00000000000E+00  0.12558334948E+03  0.30476223361E+03  0.27768478779E+03 0.  0.
         25    1    3    3    0    0 -0.35915606488E+02 -0.46434031303E+02  0.21272071213E+02  0.13527213707E+03  0.12000000000E+03 0.  0.
         25    1    3    3    0    0  0.35915606488E+02  0.46434031303E+02  0.10431127827E+03  0.16949009654E+03  0.12000000000E+03 0.  0.
<mgrwt>
<rscale>  0 0.27768479E+03</rscale>
<asrwt>0</asrwt>
<pdfrwt beam="1">  1        1 0.33103506E-01 0.27768479E+03</pdfrwt>
<pdfrwt beam="2">  1       -1 0.13782991E-01 0.27768479E+03</pdfrwt>
<totfact> 0.48848780E+03</totfact>
</mgrwt>
</event>
<event>
 5    1  0.1108889E+001  0.2751023E+03  0.7818608E-02  0.1098394E+00
          2   -1    0    0  501    0  0.00000000000E+00  0.00000000000E+00  0.10111337228E+03  0.10111337228E+03  0.00000000000E+00 0. -1.
         -2   -1    0    0    0  501 -0.00000000000E+00 -0.00000000000E+00 -0.18711987854E+03  0.18711987854E+03  0.00000000000E+00 0. -1.
         35    2    1    2    0    0  0.00000000000E+00  0.00000000000E+00 -0.86006506264E+02  0.28823325082E+03  0.27510232234E+03 0.  0.
         25    1    3    3    0    0  0.42367714469E+02 -0.28275350273E+02  0.29753511769E+01  0.13039697610E+03  0.12000000000E+03 0.  0.
         25    1    3    3    0    0 -0.42367714469E+02  0.28275350273E+02 -0.88981857441E+02  0.15783627472E+03  0.12000000000E+03 0.  0.
<mgrwt>
<rscale>  0 0.27510232E+03</rscale>
<asrwt>0</asrwt>
<pdfrwt beam="1">  1        2 0.15555904E-01 0.27510232E+03</pdfrwt>
<pdfrwt beam="2">  1       -2 0.28787673E-01 0.27510232E+03</pdfrwt>
<totfact> 0.40908503E+03</totfact>
</mgrwt>
</event>
<event>
 5    1  0.1108889E+001  0.2759068E+03  0.7818608E-02  0.1097946E+00
         -2   -1    0    0    0  501 -0.00000000000E+00  0.00000000000E+00  0.14928618194E+02  0.14928618194E+02  0.00000000000E+00 0. -1.
          2   -1    0    0  501    0  0.00000000000E+00 -0.00000000000E+00 -0.12748095024E+04  0.12748095024E+04  0.00000000000E+00 0. -1.
         35    2    1    2    0    0  0.00000000000E+00  0.00000000000E+00 -0.12598808842E+04  0.12897381206E+04  0.27590682725E+03 0.  0.
         25    1    3    3    0    0  0.58392458220E+02  0.34948875603E+02 -0.62899106333E+03  0.64394165949E+03  0.12000000000E+03 0.  0.
         25    1    3    3    0    0 -0.58392458220E+02 -0.34948875603E+02 -0.63088982084E+03  0.64579646107E+03  0.12000000000E+03 0.  0.
<mgrwt>
<rscale>  0 0.27590683E+03</rscale>
<asrwt>0</asrwt>
<pdfrwt beam="1">  1        2 0.19612460E+00 0.27590683E+03</pdfrwt>
<pdfrwt beam="2">  1       -2 0.22967098E-02 0.27590683E+03</pdfrwt>
<totfact> 0.11412496E+04</totfact>
</mgrwt>
</event>
<event>
 5    1  0.1108889E+001  0.2754613E+03  0.7818608E-02  0.1098194E+00
         -2   -1    0    0    0  501 -0.00000000000E+00  0.00000000000E+00  0.79334326628E+03  0.79334326628E+03  0.00000000000E+00 0. -1.
          2   -1    0    0  501    0  0.00000000000E+00 -0.00000000000E+00 -0.23911128278E+02  0.23911128278E+02  0.00000000000E+00 0. -1.
         35    2    1    2    0    0  0.00000000000E+00  0.00000000000E+00  0.76943213800E+03  0.81725439456E+03  0.27546130479E+03 0.  0.
         25    1    3    3    0    0 -0.11342919146E+02 -0.66271160796E+02  0.36390487254E+03  0.38903378365E+03  0.12000000000E+03 0.  0.
         25    1    3    3    0    0  0.11342919146E+02  0.66271160796E+02  0.40552726546E+03  0.42822061090E+03  0.12000000000E+03 0.  0.
<mgrwt>
<rscale>  0 0.27546130E+03</rscale>
<asrwt>0</asrwt>
<pdfrwt beam="1">  1        2 0.36786357E-02 0.27546130E+03</pdfrwt>
<pdfrwt beam="2">  1       -2 0.12205279E+00 0.27546130E+03</pdfrwt>
<totfact> 0.12644603E+03</totfact>
</mgrwt>
</event>
<event>
 5    1  0.1108889E+001  0.2752423E+03  0.7818608E-02  0.1098316E+00
          1   -1    0    0  501    0  0.00000000000E+00  0.00000000000E+00  0.15104877895E+03  0.15104877895E+03  0.00000000000E+00 0.  1.
         -1   -1    0    0    0  501 -0.00000000000E+00 -0.00000000000E+00 -0.12538714913E+03  0.12538714913E+03  0.00000000000E+00 0.  1.
         35    2    1    2    0    0  0.00000000000E+00  0.00000000000E+00  0.25661629823E+02  0.27643592808E+03  0.27524226254E+03 0.  0.
         25    1    3    3    0    0  0.58815145360E+02  0.32030562920E+02  0.54233639305E+01  0.13753032815E+03  0.12000000000E+03 0.  0.
         25    1    3    3    0    0 -0.58815145360E+02 -0.32030562920E+02  0.20238265892E+02  0.13890559993E+03  0.12000000000E+03 0.  0.
<mgrwt>
<rscale>  0 0.27524226E+03</rscale>
<asrwt>0</asrwt>
<pdfrwt beam="1">  1        1 0.23238274E-01 0.27524226E+03</pdfrwt>
<pdfrwt beam="2">  1       -1 0.19290331E-01 0.27524226E+03</pdfrwt>
<totfact> 0.44684734E+03</totfact>
</mgrwt>
</event>
<event>
 5    1  0.1108889E+001  0.2754460E+03  0.7818608E-02  0.1098203E+00
          2   -1    0    0  501    0  0.00000000000E+00  0.00000000000E+00  0.45726980627E+04  0.45726980627E+04  0.00000000000E+00 0.  1.
         -2   -1    0    0    0  501 -0.00000000000E+00 -0.00000000000E+00 -0.41480155017E+01  0.41480155017E+01  0.00000000000E+00 0.  1.
         35    2    1    2    0    0  0.00000000000E+00  0.00000000000E+00  0.45685500472E+04  0.45768460782E+04  0.27544598344E+03 0.  0.
         25    1    3    3    0    0  0.16051383636E+02  0.65514495627E+02  0.22141195398E+04  0.22183947197E+04  0.12000000000E+03 0.  0.
         25    1    3    3    0    0 -0.16051383636E+02 -0.65514495627E+02  0.23544305074E+04  0.23584513584E+04  0.12000000000E+03 0.  0.
<mgrwt>
<rscale>  0 0.27544598E+03</rscale>
<asrwt>0</asrwt>
<pdfrwt beam="1">  1        2 0.70348798E+00 0.27544598E+03</pdfrwt>
<pdfrwt beam="2">  1       -2 0.63815989E-03 0.27544598E+03</pdfrwt>
<totfact> 0.59253507E+02</totfact>
</mgrwt>
</event>
<event>
 5    1  0.1108889E+001  0.2774751E+03  0.7818608E-02  0.1097076E+00
          1   -1    0    0  501    0  0.00000000000E+00  0.00000000000E+00  0.11314887174E+04  0.11314887174E+04  0.00000000000E+00 0.  1.
         -1   -1    0    0    0  501 -0.00000000000E+00 -0.00000000000E+00 -0.17011312456E+02  0.17011312456E+02  0.00000000000E+00 0.  1.
         35    2    1    2    0    0  0.00000000000E+00  0.00000000000E+00  0.11144774050E+04  0.11485000299E+04  0.27747510240E+03 0.  0.
         25    1    3    3    0    0  0.36380134421E+02  0.16619287701E+02  0.79314595216E+03  0.80316885916E+03  0.12000000000E+03 0.  0.
         25    1    3    3    0    0 -0.36380134421E+02 -0.16619287701E+02  0.32133145282E+03  0.34533117073E+03  0.12000000000E+03 0.  0.
<mgrwt>
<rscale>  0 0.27747510E+03</rscale>
<asrwt>0</asrwt>
<pdfrwt beam="1">  1        1 0.17407513E+00 0.27747510E+03</pdfrwt>
<pdfrwt beam="2">  1       -1 0.26171259E-02 0.27747510E+03</pdfrwt>
<totfact> 0.59107883E+03</totfact>
</mgrwt>
</event>
<event>
 5    1  0.1108889E+001  0.2760379E+03  0.7818608E-02  0.1097873E+00
         -1   -1    0    0    0  501 -0.00000000000E+00  0.00000000000E+00  0.35227592216E+03  0.35227592216E+03  0.00000000000E+00 0.  1.
          1   -1    0    0  501    0  0.00000000000E+00 -0.00000000000E+00 -0.54074733433E+02  0.54074733433E+02  0.00000000000E+00 0.  1.
         35    2    1    2    0    0  0.00000000000E+00  0.00000000000E+00  0.29820118873E+03  0.40635065559E+03  0.27603787121E+03 0.  0.
         25    1    3    3    0    0  0.14071820886E+02  0.42471018242E+02  0.73357338717E+02  0.14759099795E+03  0.12000000000E+03 0.  0.
         25    1    3    3    0    0 -0.14071820886E+02 -0.42471018242E+02  0.22484385001E+03  0.25875965764E+03  0.12000000000E+03 0.  0.
<mgrwt>
<rscale>  0 0.27603787E+03</rscale>
<asrwt>0</asrwt>
<pdfrwt beam="1">  1        1 0.83191900E-02 0.27603787E+03</pdfrwt>
<pdfrwt beam="2">  1       -1 0.54196294E-01 0.27603787E+03</pdfrwt>
<totfact> 0.29009592E+03</totfact>
</mgrwt>
</event>
<event>
 5    1  0.1108889E+001  0.2753869E+03  0.7818608E-02  0.1098235E+00
         -2   -1    0    0    0  501 -0.00000000000E+00  0.00000000000E+00  0.44139779032E+02  0.44139779032E+02  0.00000000000E+00 0.  1.
          2   -1    0    0  501    0  0.00000000000E+00 -0.00000000000E+00 -0.42953302001E+03  0.42953302001E+03  0.00000000000E+00 0.  1.
         35    2    1    2    0    0  0.00000000000E+00  0.00000000000E+00 -0.38539324097E+03  0.47367279904E+03  0.27538694660E+03 0.  0.
         25    1    3    3    0    0 -0.21038793808E+02 -0.25000062185E+02 -0.29433633154E+03  0.31953326904E+03  0.12000000000E+03 0.  0.
         25    1    3    3    0    0  0.21038793808E+02  0.25000062185E+02 -0.91056909430E+02  0.15413953000E+03  0.12000000000E+03 0.  0.
<mgrwt>
<rscale>  0 0.27538695E+03</rscale>
<asrwt>0</asrwt>
<pdfrwt beam="1">  1        2 0.66082006E-01 0.27538695E+03</pdfrwt>
<pdfrwt beam="2">  1       -2 0.67907350E-02 0.27538695E+03</pdfrwt>
<totfact> 0.89584713E+03</totfact>
</mgrwt>
</event>
<event>
 5    1  0.1108889E+001  0.2750894E+03  0.7818608E-02  0.1098402E+00
          2   -1    0    0  501    0  0.00000000000E+00  0.00000000000E+00  0.96929195179E+03  0.96929195179E+03  0.00000000000E+00 0.  1.
         -2   -1    0    0    0  501 -0.00000000000E+00 -0.00000000000E+00 -0.19517903400E+02  0.19517903400E+02  0.00000000000E+00 0.  1.
         35    2    1    2    0    0  0.00000000000E+00  0.00000000000E+00  0.94977404839E+03  0.98880985519E+03  0.27508941587E+03 0.  0.
         25    1    3    3    0    0 -0.49635632121E+02 -0.36550571053E+02  0.37850964806E+03  0.40183229574E+03  0.12000000000E+03 0.  0.
         25    1    3    3    0    0  0.49635632121E+02  0.36550571053E+02  0.57126440033E+03  0.58697755945E+03  0.12000000000E+03 0.  0.
<mgrwt>
<rscale>  0 0.27508942E+03</rscale>
<asrwt>0</asrwt>
<pdfrwt beam="1">  1        2 0.14912180E+00 0.27508942E+03</pdfrwt>
<pdfrwt beam="2">  1       -2 0.30027551E-02 0.27508942E+03</pdfrwt>
<totfact> 0.11574856E+04</totfact>
</mgrwt>
</event>
<event>
 5    1  0.1108889E+001  0.2751384E+03  0.7818608E-02  0.1098374E+00
          1   -1    0    0  501    0  0.00000000000E+00  0.00000000000E+00  0.32250486502E+02  0.32250486502E+02  0.00000000000E+00 0.  1.
         -1   -1    0    0    0  501 -0.00000000000E+00 -0.00000000000E+00 -0.58682175233E+03  0.58682175233E+03  0.00000000000E+00 0.  1.
         35    2    1    2    0    0  0.00000000000E+00  0.00000000000E+00 -0.55457126583E+03  0.61907223883E+03  0.27513841609E+03 0.  0.
         25    1    3    3    0    0 -0.15123607470E+02  0.56126379245E+02 -0.20110284367E+03  0.24129079486E+03  0.12000000000E+03 0.  0.
         25    1    3    3    0    0  0.15123607470E+02 -0.56126379245E+02 -0.35346842216E+03  0.37778144397E+03  0.12000000000E+03 0.  0.
<mgrwt>
<rscale>  0 0.27513842E+03</rscale>
<asrwt>0</asrwt>
<pdfrwt beam="1">  1        1 0.49616140E-02 0.27513842E+03</pdfrwt>
<pdfrwt beam="2">  1       -1 0.90280257E-01 0.27513842E+03</pdfrwt>
<totfact> 0.21204673E+03</totfact>
</mgrwt>
</event>
<event>
 5    1  0.1108889E+001  0.2748299E+03  0.7818608E-02  0.1098547E+00
          2   -1    0    0  501    0  0.00000000000E+00  0.00000000000E+00  0.43030915376E+03  0.43030915376E+03  0.00000000000E+00 0. -1.
         -2   -1    0    0    0  501 -0.00000000000E+00 -0.00000000000E+00 -0.43882087806E+02  0.43882087806E+02  0.00000000000E+00 0. -1.
         35    2    1    2    0    0  0.00000000000E+00  0.00000000000E+00  0.38642706596E+03  0.47419124157E+03  0.27482986788E+03 0.  0.
         25    1    3    3    0    0  0.16797355246E+02  0.48487645082E+02  0.26741896407E+03  0.29756697601E+03  0.12000000000E+03 0.  0.
         25    1    3    3    0    0 -0.16797355246E+02 -0.48487645082E+02  0.11900810189E+03  0.17662426556E+03  0.12000000000E+03 0.  0.
<mgrwt>
<rscale>  0 0.27482987E+03</rscale>
<asrwt>0</asrwt>
<pdfrwt beam="1">  1        2 0.66201405E-01 0.27482987E+03</pdfrwt>
<pdfrwt beam="2">  1       -2 0.67510907E-02 0.27482987E+03</pdfrwt>
<totfact> 0.90213432E+03</totfact>
</mgrwt>
</event>
<event>
 5    1  0.1108889E+001  0.2751230E+03  0.7818608E-02  0.1098383E+00
         -2   -1    0    0    0  501 -0.00000000000E+00  0.00000000000E+00  0.80210155228E+02  0.80210155228E+02  0.00000000000E+00 0.  1.
          2   -1    0    0  501    0  0.00000000000E+00 -0.00000000000E+00 -0.23591978750E+03  0.23591978750E+03  0.00000000000E+00 0.  1.
         35    2    1    2    0    0  0.00000000000E+00  0.00000000000E+00 -0.15570963227E+03  0.31612994273E+03  0.27512297452E+03 0.  0.
         25    1    3    3    0    0  0.55242856172E+02  0.32021074646E+02 -0.53587269584E+02  0.14611200444E+03  0.12000000000E+03 0.  0.
         25    1    3    3    0    0 -0.55242856172E+02 -0.32021074646E+02 -0.10212236269E+03  0.17001793829E+03  0.12000000000E+03 0.  0.
<mgrwt>
<rscale>  0 0.27512297E+03</rscale>
<asrwt>0</asrwt>
<pdfrwt beam="1">  1        2 0.36295351E-01 0.27512297E+03</pdfrwt>
<pdfrwt beam="2">  1       -2 0.12340024E-01 0.27512297E+03</pdfrwt>
<totfact> 0.66622738E+03</totfact>
</mgrwt>
</event>
<event>
 5    1  0.1108889E+001  0.2760361E+03  0.7818608E-02  0.1097874E+00
         -1   -1    0    0    0  501 -0.00000000000E+00  0.00000000000E+00  0.44219584868E+02  0.44219584868E+02  0.00000000000E+00 0.  1.
          1   -1    0    0  501    0  0.00000000000E+00 -0.00000000000E+00 -0.43078154304E+03  0.43078154304E+03  0.00000000000E+00 0.  1.
         35    2    1    2    0    0  0.00000000000E+00  0.00000000000E+00 -0.38656195817E+03  0.47500112791E+03  0.27603609186E+03 0.  0.
         25    1    3    3    0    0  0.54813678127E+01 -0.60477159938E+02 -0.24663803236E+03  0.28092321241E+03  0.12000000000E+03 0.  0.
         25    1    3    3    0    0 -0.54813678127E+01  0.60477159938E+02 -0.13992392582E+03  0.19407791550E+03  0.12000000000E+03 0.  0.
<mgrwt>
<rscale>  0 0.27603609E+03</rscale>
<asrwt>0</asrwt>
<pdfrwt beam="1">  1        1 0.66274081E-01 0.27603609E+03</pdfrwt>
<pdfrwt beam="2">  1       -1 0.68030133E-02 0.27603609E+03</pdfrwt>
<totfact> 0.60394213E+03</totfact>
</mgrwt>
</event>
<event>
 5    1  0.1108889E+001  0.2746600E+03  0.7818608E-02  0.1098642E+00
          2   -1    0    0  501    0  0.00000000000E+00  0.00000000000E+00  0.16596555835E+04  0.16596555835E+04  0.00000000000E+00 0. -1.
         -2   -1    0    0    0  501 -0.00000000000E+00 -0.00000000000E+00 -0.11363521643E+02  0.11363521643E+02  0.00000000000E+00 0. -1.
         35    2    1    2    0    0  0.00000000000E+00  0.00000000000E+00  0.16482920619E+04  0.16710191051E+04  0.27466002362E+03 0.  0.
         25    1    3    3    0    0  0.43412249795E+02 -0.52802607743E+01  0.11311915644E+04  0.11383790493E+04  0.12000000000E+03 0.  0.
         25    1    3    3    0    0 -0.43412249795E+02  0.52802607743E+01  0.51710049748E+03  0.53264005583E+03  0.12000000000E+03 0.  0.
<mgrwt>
<rscale>  0 0.27466002E+03</rscale>
<asrwt>0</asrwt>
<pdfrwt beam="1">  1        2 0.25533144E+00 0.27466002E+03</pdfrwt>
<pdfrwt beam="2">  1       -2 0.17482354E-02 0.27466002E+03</pdfrwt>
<totfact> 0.10573584E+04</totfact>
</mgrwt>
</event>
<event>
 5    1  0.1108889E+001  0.2731469E+03  0.7818608E-02  0.1099492E+00
         -2   -1    0    0    0  501 -0.00000000000E+00  0.00000000000E+00  0.58303305451E+02  0.58303305451E+02  0.00000000000E+00 0.  1.
          2   -1    0    0  501    0  0.00000000000E+00 -0.00000000000E+00 -0.31991845629E+03  0.31991845629E+03  0.00000000000E+00 0.  1.
         35    2    1    2    0    0  0.00000000000E+00  0.00000000000E+00 -0.26161515084E+03  0.37822176174E+03  0.27314687241E+03 0.  0.
         25    1    3    3    0    0 -0.94882338310E+01  0.63142235898E+02 -0.14914272752E+03  0.20179326477E+03  0.12000000000E+03 0.  0.
         25    1    3    3    0    0  0.94882338310E+01 -0.63142235898E+02 -0.11247242332E+03  0.17642849697E+03  0.12000000000E+03 0.  0.
<mgrwt>
<rscale>  0 0.27314687E+03</rscale>
<asrwt>0</asrwt>
<pdfrwt beam="1">  1        2 0.49218224E-01 0.27314687E+03</pdfrwt>
<pdfrwt beam="2">  1       -2 0.89697393E-02 0.27314687E+03</pdfrwt>
<totfact> 0.79825441E+03</totfact>
</mgrwt>
</event>
<event>
 5    1  0.1108889E+001  0.2767857E+03  0.7818608E-02  0.1097458E+00
         -2   -1    0    0    0  501 -0.00000000000E+00  0.00000000000E+00  0.26632215816E+03  0.26632215816E+03  0.00000000000E+00 0.  1.
          2   -1    0    0  501    0  0.00000000000E+00 -0.00000000000E+00 -0.71915101424E+02  0.71915101424E+02  0.00000000000E+00 0.  1.
         35    2    1    2    0    0  0.00000000000E+00  0.00000000000E+00  0.19440705674E+03  0.33823725959E+03  0.27678572951E+03 0.  0.
         25    1    3    3    0    0  0.56077297096E+02 -0.38204267703E+02  0.82319178712E+02  0.16056362136E+03  0.12000000000E+03 0.  0.
         25    1    3    3    0    0 -0.56077297096E+02  0.38204267703E+02  0.11208787803E+03  0.17767363823E+03  0.12000000000E+03 0.  0.
<mgrwt>
<rscale>  0 0.27678573E+03</rscale>
<asrwt>0</asrwt>
<pdfrwt beam="1">  1        2 0.11063862E-01 0.27678573E+03</pdfrwt>
<pdfrwt beam="2">  1       -2 0.40972639E-01 0.27678573E+03</pdfrwt>
<totfact> 0.32000932E+03</totfact>
</mgrwt>
</event>
<event>
 5    1  0.1108889E+001  0.2751098E+03  0.7818608E-02  0.1098390E+00
         -2   -1    0    0    0  501 -0.00000000000E+00  0.00000000000E+00  0.14624563951E+02  0.14624563951E+02  0.00000000000E+00 0.  1.
          2   -1    0    0  501    0  0.00000000000E+00 -0.00000000000E+00 -0.12938059858E+04  0.12938059858E+04  0.00000000000E+00 0.  1.
         35    2    1    2    0    0  0.00000000000E+00  0.00000000000E+00 -0.12791814219E+04  0.13084305498E+04  0.27510978448E+03 0.  0.
         25    1    3    3    0    0 -0.32630556743E+02  0.53052993408E+02 -0.76009533423E+03  0.77202609442E+03  0.12000000000E+03 0.  0.
         25    1    3    3    0    0  0.32630556743E+02 -0.53052993408E+02 -0.51908608763E+03  0.53640445534E+03  0.12000000000E+03 0.  0.
<mgrwt>
<rscale>  0 0.27510978E+03</rscale>
<asrwt>0</asrwt>
<pdfrwt beam="1">  1        2 0.19904711E+00 0.27510978E+03</pdfrwt>
<pdfrwt beam="2">  1       -2 0.22499325E-02 0.27510978E+03</pdfrwt>
<totfact> 0.11481037E+04</totfact>
</mgrwt>
</event>
<event>
 5    1  0.1108889E+001  0.2751509E+03  0.7818608E-02  0.1098367E+00
          2   -1    0    0  501    0  0.00000000000E+00  0.00000000000E+00  0.10281553512E+04  0.10281553512E+04  0.00000000000E+00 0. -1.
         -2   -1    0    0    0  501 -0.00000000000E+00 -0.00000000000E+00 -0.18408700700E+02  0.18408700700E+02  0.00000000000E+00 0. -1.
         35    2    1    2    0    0  0.00000000000E+00  0.00000000000E+00  0.10097466505E+04  0.10465640519E+04  0.27515089775E+03 0.  0.
         25    1    3    3    0    0 -0.55761303019E+02 -0.18474833263E+02  0.38008498509E+03  0.40288365352E+03  0.12000000000E+03 0.  0.
         25    1    3    3    0    0  0.55761303019E+02  0.18474833263E+02  0.62966166537E+03  0.64368039834E+03  0.12000000000E+03 0.  0.
<mgrwt>
<rscale>  0 0.27515090E+03</rscale>
<asrwt>0</asrwt>
<pdfrwt beam="1">  1        2 0.15817770E+00 0.27515090E+03</pdfrwt>
<pdfrwt beam="2">  1       -2 0.28321086E-02 0.27515090E+03</pdfrwt>
<totfact> 0.11620191E+04</totfact>
</mgrwt>
</event>
<event>
 5    1  0.1108889E+001  0.2766862E+03  0.7818608E-02  0.1097513E+00
          2   -1    0    0  501    0  0.00000000000E+00  0.00000000000E+00  0.57431296251E+03  0.57431296251E+03  0.00000000000E+00 0. -1.
         -2   -1    0    0    0  501 -0.00000000000E+00 -0.00000000000E+00 -0.33324708773E+02  0.33324708773E+02  0.00000000000E+00 0. -1.
         35    2    1    2    0    0  0.00000000000E+00  0.00000000000E+00  0.54098825374E+03  0.60763767129E+03  0.27668619207E+03 0.  0.
         25    1    3    3    0    0  0.24019151943E+02 -0.62018493258E+02  0.23147971623E+03  0.26908376426E+03  0.12000000000E+03 0.  0.
         25    1    3    3    0    0 -0.24019151943E+02  0.62018493258E+02  0.30950853751E+03  0.33855390702E+03  0.12000000000E+03 0.  0.
<mgrwt>
<rscale>  0 0.27668619E+03</rscale>
<asrwt>0</asrwt>
<pdfrwt beam="1">  1        2 0.88355833E-01 0.27668619E+03</pdfrwt>
<pdfrwt beam="2">  1       -2 0.51268787E-02 0.27668619E+03</pdfrwt>
<totfact> 0.99603877E+03</totfact>
</mgrwt>
</event>
<event>
 5    1  0.1108889E+001  0.2750243E+03  0.7818608E-02  0.1098438E+00
         -1   -1    0    0    0  501 -0.00000000000E+00  0.00000000000E+00  0.14136195056E+03  0.14136195056E+03  0.00000000000E+00 0. -1.
          1   -1    0    0  501    0  0.00000000000E+00 -0.00000000000E+00 -0.13376716163E+03  0.13376716163E+03  0.00000000000E+00 0. -1.
         35    2    1    2    0    0  0.00000000000E+00  0.00000000000E+00  0.75947889226E+01  0.27512911219E+03  0.27502426721E+03 0.  0.
         25    1    3    3    0    0  0.49324775302E+02  0.36558379696E+02 -0.23418459816E+02  0.13681327730E+03  0.12000000000E+03 0.  0.
         25    1    3    3    0    0 -0.49324775302E+02 -0.36558379696E+02  0.31013248739E+02  0.13831583489E+03  0.12000000000E+03 0.  0.
<mgrwt>
<rscale>  0 0.27502427E+03</rscale>
<asrwt>0</asrwt>
<pdfrwt beam="1">  1        1 0.20579563E-01 0.27502427E+03</pdfrwt>
<pdfrwt beam="2">  1       -1 0.21747992E-01 0.27502427E+03</pdfrwt>
<totfact> 0.42946544E+03</totfact>
</mgrwt>
</event>
<event>
 5    1  0.1108889E+001  0.2756808E+03  0.7818608E-02  0.1098072E+00
         -1   -1    0    0    0  501 -0.00000000000E+00  0.00000000000E+00  0.24046027240E+02  0.24046027240E+02  0.00000000000E+00 0.  1.
          1   -1    0    0  501    0  0.00000000000E+00 -0.00000000000E+00 -0.79015022895E+03  0.79015022895E+03  0.00000000000E+00 0.  1.
         35    2    1    2    0    0  0.00000000000E+00  0.00000000000E+00 -0.76610420171E+03  0.81419625619E+03  0.27568078590E+03 0.  0.
         25    1    3    3    0    0  0.30967665130E+02 -0.14074233424E+01 -0.20489077334E+03  0.23946023913E+03  0.12000000000E+03 0.  0.
         25    1    3    3    0    0 -0.30967665130E+02  0.14074233424E+01 -0.56121342837E+03  0.57473601706E+03  0.12000000000E+03 0.  0.
<mgrwt>
<rscale>  0 0.27568079E+03</rscale>
<asrwt>0</asrwt>
<pdfrwt beam="1">  1        1 0.12156157E+00 0.27568079E+03</pdfrwt>
<pdfrwt beam="2">  1       -1 0.36993888E-02 0.27568079E+03</pdfrwt>
<totfact> 0.64778359E+03</totfact>
</mgrwt>
</event>
<event>
 5    1  0.1108889E+001  0.2743392E+03  0.7818608E-02  0.1098822E+00
         -2   -1    0    0    0  501 -0.00000000000E+00  0.00000000000E+00  0.10856215442E+02  0.10856215442E+02  0.00000000000E+00 0. -1.
          2   -1    0    0  501    0  0.00000000000E+00 -0.00000000000E+00 -0.17331549672E+04  0.17331549672E+04  0.00000000000E+00 0. -1.
         35    2    1    2    0    0  0.00000000000E+00  0.00000000000E+00 -0.17222987518E+04  0.17440111827E+04  0.27433923321E+03 0.  0.
         25    1    3    3    0    0 -0.46593858980E+01  0.60816361400E+02 -0.69353742135E+03  0.70648035677E+03  0.12000000000E+03 0.  0.
         25    1    3    3    0    0  0.46593858980E+01 -0.60816361400E+02 -0.10287613304E+04  0.10375308259E+04  0.12000000000E+03 0.  0.
<mgrwt>
<rscale>  0 0.27433923E+03</rscale>
<asrwt>0</asrwt>
<pdfrwt beam="1">  1        2 0.26663905E+00 0.27433923E+03</pdfrwt>
<pdfrwt beam="2">  1       -2 0.16701881E-02 0.27433923E+03</pdfrwt>
<totfact> 0.10341436E+04</totfact>
</mgrwt>
</event>
<event>
 5    1  0.1108889E+001  0.2750293E+03  0.7818608E-02  0.1098435E+00
          1   -1    0    0  501    0  0.00000000000E+00  0.00000000000E+00  0.10508315429E+04  0.10508315429E+04  0.00000000000E+00 0.  1.
         -1   -1    0    0    0  501 -0.00000000000E+00 -0.00000000000E+00 -0.17995534670E+02  0.17995534670E+02  0.00000000000E+00 0.  1.
         35    2    1    2    0    0  0.00000000000E+00  0.00000000000E+00  0.10328360082E+04  0.10688270776E+04  0.27502927454E+03 0.  0.
         25    1    3    3    0    0  0.49428392071E+02 -0.24913329183E+02  0.36861676743E+03  0.39158927609E+03  0.12000000000E+03 0.  0.
         25    1    3    3    0    0 -0.49428392071E+02  0.24913329183E+02  0.66421924081E+03  0.67723780150E+03  0.12000000000E+03 0.  0.
<mgrwt>
<rscale>  0 0.27502927E+03</rscale>
<asrwt>0</asrwt>
<pdfrwt beam="1">  1        1 0.16166634E+00 0.27502927E+03</pdfrwt>
<pdfrwt beam="2">  1       -1 0.27685446E-02 0.27502927E+03</pdfrwt>
<totfact> 0.62224554E+03</totfact>
</mgrwt>
</event>
<event>
 5    1  0.1108889E+001  0.2750407E+03  0.7818608E-02  0.1098429E+00
          1   -1    0    0  501    0  0.00000000000E+00  0.00000000000E+00  0.42726935176E+03  0.42726935176E+03  0.00000000000E+00 0. -1.
         -1   -1    0    0    0  501 -0.00000000000E+00 -0.00000000000E+00 -0.44262118853E+02  0.44262118853E+02  0.00000000000E+00 0. -1.
         35    2    1    2    0    0  0.00000000000E+00  0.00000000000E+00  0.38300723291E+03  0.47153147061E+03  0.27504070120E+03 0.  0.
         25    1    3    3    0    0  0.48378214409E+01 -0.49946698485E+02  0.26805467568E+03  0.29794527410E+03  0.12000000000E+03 0.  0.
         25    1    3    3    0    0 -0.48378214409E+01  0.49946698485E+02  0.11495255723E+03  0.17358619651E+03  0.12000000000E+03 0.  0.
<mgrwt>
<rscale>  0 0.27504070E+03</rscale>
<asrwt>0</asrwt>
<pdfrwt beam="1">  1        1 0.65733743E-01 0.27504070E+03</pdfrwt>
<pdfrwt beam="2">  1       -1 0.68095571E-02 0.27504070E+03</pdfrwt>
<totfact> 0.60941788E+03</totfact>
</mgrwt>
</event>
<event>
 5    1  0.1108889E+001  0.2750372E+03  0.7818608E-02  0.1098431E+00
         -2   -1    0    0    0  501 -0.00000000000E+00  0.00000000000E+00  0.11118659324E+02  0.11118659324E+02  0.00000000000E+00 0.  1.
          2   -1    0    0  501    0  0.00000000000E+00 -0.00000000000E+00 -0.17008676787E+04  0.17008676787E+04  0.00000000000E+00 0.  1.
         35    2    1    2    0    0  0.00000000000E+00  0.00000000000E+00 -0.16897490194E+04  0.17119863380E+04  0.27503722130E+03 0.  0.
         25    1    3    3    0    0  0.41328407750E+02  0.48472489661E+02 -0.71228274953E+03  0.72512366864E+03  0.12000000000E+03 0.  0.
         25    1    3    3    0    0 -0.41328407750E+02 -0.48472489661E+02 -0.97746626986E+03  0.98686266940E+03  0.12000000000E+03 0.  0.
<mgrwt>
<rscale>  0 0.27503722E+03</rscale>
<asrwt>0</asrwt>
<pdfrwt beam="1">  1        2 0.26167200E+00 0.27503722E+03</pdfrwt>
<pdfrwt beam="2">  1       -2 0.17105627E-02 0.27503722E+03</pdfrwt>
<totfact> 0.10384409E+04</totfact>
</mgrwt>
</event>
<event>
 5    1  0.1108889E+001  0.2748660E+03  0.7818608E-02  0.1098527E+00
         -1   -1    0    0    0  501 -0.00000000000E+00  0.00000000000E+00  0.93560549457E+02  0.93560549457E+02  0.00000000000E+00 0. -1.
          1   -1    0    0  501    0  0.00000000000E+00 -0.00000000000E+00 -0.20187809748E+03  0.20187809748E+03  0.00000000000E+00 0. -1.
         35    2    1    2    0    0  0.00000000000E+00  0.00000000000E+00 -0.10831754802E+03  0.29543864694E+03  0.27486597260E+03 0.  0.
         25    1    3    3    0    0  0.60993972161E+02 -0.17789542901E+01 -0.24441727463E+02  0.13682407449E+03  0.12000000000E+03 0.  0.
         25    1    3    3    0    0 -0.60993972161E+02  0.17789542901E+01 -0.83875820560E+02  0.15861457245E+03  0.12000000000E+03 0.  0.
<mgrwt>
<rscale>  0 0.27486597E+03</rscale>
<asrwt>0</asrwt>
<pdfrwt beam="1">  1        1 0.31058169E-01 0.27486597E+03</pdfrwt>
<pdfrwt beam="2">  1       -1 0.14393931E-01 0.27486597E+03</pdfrwt>
<totfact> 0.49412884E+03</totfact>
</mgrwt>
</event>
<event>
 5    1  0.1108889E+001  0.2748406E+03  0.7818608E-02  0.1098541E+00
          1   -1    0    0  501    0  0.00000000000E+00  0.00000000000E+00  0.10958044130E+04  0.10958044130E+04  0.00000000000E+00 0.  1.
         -1   -1    0    0    0  501 -0.00000000000E+00 -0.00000000000E+00 -0.17233313400E+02  0.17233313400E+02  0.00000000000E+00 0.  1.
         35    2    1    2    0    0  0.00000000000E+00  0.00000000000E+00  0.10785710996E+04  0.11130377264E+04  0.27484061471E+03 0.  0.
         25    1    3    3    0    0  0.78578588865E+01 -0.29388490787E+02  0.29769075658E+03  0.32240535959E+03  0.12000000000E+03 0.  0.
         25    1    3    3    0    0 -0.78578588865E+01  0.29388490787E+02  0.78088034298E+03  0.79063236678E+03  0.12000000000E+03 0.  0.
<mgrwt>
<rscale>  0 0.27484061E+03</rscale>
<asrwt>0</asrwt>
<pdfrwt beam="1">  1        1 0.16858524E+00 0.27484061E+03</pdfrwt>
<pdfrwt beam="2">  1       -1 0.26512798E-02 0.27484061E+03</pdfrwt>
<totfact> 0.61503407E+03</totfact>
</mgrwt>
</event>
<event>
 5    1  0.1108889E+001  0.2736226E+03  0.7818608E-02  0.1099224E+00
          1   -1    0    0  501    0  0.00000000000E+00  0.00000000000E+00  0.56095052507E+03  0.56095052507E+03  0.00000000000E+00 0.  1.
         -1   -1    0    0    0  501 -0.00000000000E+00 -0.00000000000E+00 -0.33367182290E+02  0.33367182290E+02  0.00000000000E+00 0.  1.
         35    2    1    2    0    0  0.00000000000E+00  0.00000000000E+00  0.52758334278E+03  0.59431770736E+03  0.27362264837E+03 0.  0.
         25    1    3    3    0    0  0.13779734600E+01  0.64815908984E+02  0.28701695803E+03  0.31777623426E+03  0.12000000000E+03 0.  0.
         25    1    3    3    0    0 -0.13779734600E+01 -0.64815908984E+02  0.24056638475E+03  0.27654147309E+03  0.12000000000E+03 0.  0.
<mgrwt>
<rscale>  0 0.27362265E+03</rscale>
<asrwt>0</asrwt>
<pdfrwt beam="1">  1        1 0.86300074E-01 0.27362265E+03</pdfrwt>
<pdfrwt beam="2">  1       -1 0.51334131E-02 0.27362265E+03</pdfrwt>
<totfact> 0.65043308E+03</totfact>
</mgrwt>
</event>
<event>
 5    1  0.1108889E+001  0.2749895E+03  0.7818608E-02  0.1098457E+00
          1   -1    0    0  501    0  0.00000000000E+00  0.00000000000E+00  0.66498742879E+02  0.66498742879E+02  0.00000000000E+00 0.  1.
         -1   -1    0    0    0  501 -0.00000000000E+00 -0.00000000000E+00 -0.28428809735E+03  0.28428809735E+03  0.00000000000E+00 0.  1.
         35    2    1    2    0    0  0.00000000000E+00  0.00000000000E+00 -0.21778935447E+03  0.35078684023E+03  0.27498946226E+03 0.  0.
         25    1    3    3    0    0  0.50412194194E+02  0.34879690428E+02 -0.74034073143E+02  0.15374988167E+03  0.12000000000E+03 0.  0.
         25    1    3    3    0    0 -0.50412194194E+02 -0.34879690428E+02 -0.14375528133E+03  0.19703695856E+03  0.12000000000E+03 0.  0.
<mgrwt>
<rscale>  0 0.27498946E+03</rscale>
<asrwt>0</asrwt>
<pdfrwt beam="1">  1        1 0.10230576E-01 0.27498946E+03</pdfrwt>
<pdfrwt beam="2">  1       -1 0.43736630E-01 0.27498946E+03</pdfrwt>
<totfact> 0.32554417E+03</totfact>
</mgrwt>
</event>
<event>
 5    1  0.1108889E+001  0.2752370E+03  0.7818608E-02  0.1098319E+00
         -2   -1    0    0    0  501 -0.00000000000E+00  0.00000000000E+00  0.37502332955E+03  0.37502332955E+03  0.00000000000E+00 0.  1.
          2   -1    0    0  501    0  0.00000000000E+00 -0.00000000000E+00 -0.50500453150E+02  0.50500453150E+02  0.00000000000E+00 0.  1.
         35    2    1    2    0    0  0.00000000000E+00  0.00000000000E+00  0.32452287640E+03  0.42552378269E+03  0.27523697487E+03 0.  0.
         25    1    3    3    0    0  0.51856869343E+02  0.63711802760E+01  0.96503089428E+02  0.16261172499E+03  0.12000000000E+03 0.  0.
         25    1    3    3    0    0 -0.51856869343E+02 -0.63711802760E+01  0.22801978697E+03  0.26291205770E+03  0.12000000000E+03 0.  0.
<mgrwt>
<rscale>  0 0.27523697E+03</rscale>
<asrwt>0</asrwt>
<pdfrwt beam="1">  1        2 0.77693007E-02 0.27523697E+03</pdfrwt>
<pdfrwt beam="2">  1       -2 0.57695895E-01 0.27523697E+03</pdfrwt>
<totfact> 0.25251297E+03</totfact>
</mgrwt>
</event>
<event>
 5    1  0.1108889E+001  0.2750564E+03  0.7818608E-02  0.1098420E+00
          1   -1    0    0  501    0  0.00000000000E+00  0.00000000000E+00  0.71518163039E+03  0.71518163039E+03  0.00000000000E+00 0. -1.
         -1   -1    0    0    0  501 -0.00000000000E+00 -0.00000000000E+00 -0.26446432504E+02  0.26446432504E+02  0.00000000000E+00 0. -1.
         35    2    1    2    0    0  0.00000000000E+00  0.00000000000E+00  0.68873519789E+03  0.74162806290E+03  0.27505637761E+03 0.  0.
         25    1    3    3    0    0 -0.52720558444E+02  0.39985411280E+02  0.31295715528E+03  0.34164377858E+03  0.12000000000E+03 0.  0.
         25    1    3    3    0    0  0.52720558444E+02 -0.39985411280E+02  0.37577804260E+03  0.39998428432E+03  0.12000000000E+03 0.  0.
<mgrwt>
<rscale>  0 0.27505638E+03</rscale>
<asrwt>0</asrwt>
<pdfrwt beam="1">  1        1 0.11002793E+00 0.27505638E+03</pdfrwt>
<pdfrwt beam="2">  1       -1 0.40686825E-02 0.27505638E+03</pdfrwt>
<totfact> 0.65305191E+03</totfact>
</mgrwt>
</event>
<event>
 5    1  0.1108889E+001  0.2746078E+03  0.7818608E-02  0.1098671E+00
         -4   -1    0    0    0  501 -0.00000000000E+00  0.00000000000E+00  0.39652598278E+02  0.39652598278E+02  0.00000000000E+00 0. -1.
          4   -1    0    0  501    0  0.00000000000E+00 -0.00000000000E+00 -0.47543833586E+03  0.47543833586E+03  0.00000000000E+00 0. -1.
         35    2    1    2    0    0  0.00000000000E+00  0.00000000000E+00 -0.43578573758E+03  0.51509093413E+03  0.27460783192E+03 0.  0.
         25    1    3    3    0    0  0.36988170055E+01 -0.36397607065E+02 -0.11322263400E+03  0.16899062665E+03  0.12000000000E+03 0.  0.
         25    1    3    3    0    0 -0.36988170055E+01  0.36397607065E+02 -0.32256310358E+03  0.34610030748E+03  0.12000000000E+03 0.  0.
<mgrwt>
<rscale>  0 0.27460783E+03</rscale>
<asrwt>0</asrwt>
<pdfrwt beam="1">  1        4 0.73144361E-01 0.27460783E+03</pdfrwt>
<pdfrwt beam="2">  1       -4 0.61003996E-02 0.27460783E+03</pdfrwt>
<totfact> 0.56043665E+02</totfact>
</mgrwt>
</event>
<event>
 5    1  0.1108889E+001  0.2780773E+03  0.7818608E-02  0.1096744E+00
         -2   -1    0    0    0  501 -0.00000000000E+00  0.00000000000E+00  0.11865761855E+02  0.11865761855E+02  0.00000000000E+00 0.  1.
          2   -1    0    0  501    0  0.00000000000E+00 -0.00000000000E+00 -0.16292041775E+04  0.16292041775E+04  0.00000000000E+00 0.  1.
         35    2    1    2    0    0  0.00000000000E+00  0.00000000000E+00 -0.16173384157E+04  0.16410699394E+04  0.27807731862E+03 0.  0.
         25    1    3    3    0    0  0.19881605290E+02 -0.67345863263E+02 -0.80275223346E+03  0.81470356072E+03  0.12000000000E+03 0.  0.
         25    1    3    3    0    0 -0.19881605290E+02  0.67345863263E+02 -0.81458618220E+03  0.82636637865E+03  0.12000000000E+03 0.  0.
<mgrwt>
<rscale>  0 0.27807732E+03</rscale>
<asrwt>0</asrwt>
<pdfrwt beam="1">  1        2 0.25064686E+00 0.27807732E+03</pdfrwt>
<pdfrwt beam="2">  1       -2 0.18255013E-02 0.27807732E+03</pdfrwt>
<totfact> 0.10299935E+04</totfact>
</mgrwt>
</event>
<event>
 5    1  0.1108889E+001  0.2756682E+03  0.7818608E-02  0.1098079E+00
          2   -1    0    0  501    0  0.00000000000E+00  0.00000000000E+00  0.87770158176E+03  0.87770158176E+03  0.00000000000E+00 0. -1.
         -2   -1    0    0    0  501 -0.00000000000E+00 -0.00000000000E+00 -0.21645446313E+02  0.21645446313E+02  0.00000000000E+00 0. -1.
         35    2    1    2    0    0  0.00000000000E+00  0.00000000000E+00  0.85605613544E+03  0.89934702807E+03  0.27566822426E+03 0.  0.
         25    1    3    3    0    0 -0.26027256120E+02  0.54991358269E+02  0.33033082153E+03  0.35667901424E+03  0.12000000000E+03 0.  0.
         25    1    3    3    0    0  0.26027256120E+02 -0.54991358269E+02  0.52572531391E+03  0.54266801383E+03  0.12000000000E+03 0.  0.
<mgrwt>
<rscale>  0 0.27566822E+03</rscale>
<asrwt>0</asrwt>
<pdfrwt beam="1">  1        2 0.13503098E+00 0.27566822E+03</pdfrwt>
<pdfrwt beam="2">  1       -2 0.33300694E-02 0.27566822E+03</pdfrwt>
<totfact> 0.11348836E+04</totfact>
</mgrwt>
</event>
<event>
 5    1  0.1108889E+001  0.2752487E+03  0.7818608E-02  0.1098313E+00
          4   -1    0    0  501    0  0.00000000000E+00  0.00000000000E+00  0.73313375381E+02  0.73313375381E+02  0.00000000000E+00 0. -1.
         -4   -1    0    0    0  501 -0.00000000000E+00 -0.00000000000E+00 -0.25834939417E+03  0.25834939417E+03  0.00000000000E+00 0. -1.
         35    2    1    2    0    0  0.00000000000E+00  0.00000000000E+00 -0.18503601878E+03  0.33166276955E+03  0.27524873198E+03 0.  0.
         25    1    3    3    0    0 -0.53243190096E+02 -0.11223459932E+02 -0.44627044483E+02  0.13911281912E+03  0.12000000000E+03 0.  0.
         25    1    3    3    0    0  0.53243190096E+02  0.11223459932E+02 -0.14040897430E+03  0.19254995043E+03  0.12000000000E+03 0.  0.
<mgrwt>
<rscale>  0 0.27524873E+03</rscale>
<asrwt>0</asrwt>
<pdfrwt beam="1">  1        4 0.11278981E-01 0.27524873E+03</pdfrwt>
<pdfrwt beam="2">  1       -4 0.39746061E-01 0.27524873E+03</pdfrwt>
<totfact> 0.71391373E+02</totfact>
</mgrwt>
</event>
<event>
 5    1  0.1108889E+001  0.2751501E+03  0.7818608E-02  0.1098368E+00
         -2   -1    0    0    0  501 -0.00000000000E+00  0.00000000000E+00  0.52038682537E+02  0.52038682537E+02  0.00000000000E+00 0.  1.
          2   -1    0    0  501    0  0.00000000000E+00 -0.00000000000E+00 -0.36370808517E+03  0.36370808517E+03  0.00000000000E+00 0.  1.
         35    2    1    2    0    0  0.00000000000E+00  0.00000000000E+00 -0.31166940263E+03  0.41574676770E+03  0.27515006509E+03 0.  0.
         25    1    3    3    0    0  0.17722509430E+02  0.24275314791E+02 -0.64880225895E+02  0.13968830288E+03  0.12000000000E+03 0.  0.
         25    1    3    3    0    0 -0.17722509430E+02 -0.24275314791E+02 -0.24678917673E+03  0.27605846483E+03  0.12000000000E+03 0.  0.
<mgrwt>
<rscale>  0 0.27515007E+03</rscale>
<asrwt>0</asrwt>
<pdfrwt beam="1">  1        2 0.55955089E-01 0.27515007E+03</pdfrwt>
<pdfrwt beam="2">  1       -2 0.80059513E-02 0.27515007E+03</pdfrwt>
<totfact> 0.83104548E+03</totfact>
</mgrwt>
</event>
<event>
 5    1  0.1108889E+001  0.2751230E+03  0.7818608E-02  0.1098383E+00
          2   -1    0    0  501    0  0.00000000000E+00  0.00000000000E+00  0.34866105424E+03  0.34866105424E+03  0.00000000000E+00 0.  1.
         -2   -1    0    0    0  501 -0.00000000000E+00 -0.00000000000E+00 -0.54273827919E+02  0.54273827919E+02  0.00000000000E+00 0.  1.
         35    2    1    2    0    0  0.00000000000E+00  0.00000000000E+00  0.29438722632E+03  0.40293488216E+03  0.27512302746E+03 0.  0.
         25    1    3    3    0    0 -0.66108113131E+02  0.10011036410E+02  0.13656502654E+03  0.19370211653E+03  0.12000000000E+03 0.  0.
         25    1    3    3    0    0  0.66108113131E+02 -0.10011036410E+02  0.15782219978E+03  0.20923276563E+03  0.12000000000E+03 0.  0.
<mgrwt>
<rscale>  0 0.27512303E+03</rscale>
<asrwt>0</asrwt>
<pdfrwt beam="1">  1        2 0.53640161E-01 0.27512303E+03</pdfrwt>
<pdfrwt beam="2">  1       -2 0.83498199E-02 0.27512303E+03</pdfrwt>
<totfact> 0.81445913E+03</totfact>
</mgrwt>
</event>
<event>
 5    1  0.1108889E+001  0.2754309E+03  0.7818608E-02  0.1098211E+00
         -1   -1    0    0    0  501 -0.00000000000E+00  0.00000000000E+00  0.64982865165E+03  0.64982865165E+03  0.00000000000E+00 0. -1.
          1   -1    0    0  501    0  0.00000000000E+00 -0.00000000000E+00 -0.29185461370E+02  0.29185461370E+02  0.00000000000E+00 0. -1.
         35    2    1    2    0    0  0.00000000000E+00  0.00000000000E+00  0.62064319028E+03  0.67901411302E+03  0.27543092789E+03 0.  0.
         25    1    3    3    0    0 -0.57782388038E+02 -0.33329195854E+02  0.33686308659E+03  0.36376692918E+03  0.12000000000E+03 0.  0.
         25    1    3    3    0    0  0.57782388038E+02  0.33329195854E+02  0.28378010369E+03  0.31524718383E+03  0.12000000000E+03 0.  0.
<mgrwt>
<rscale>  0 0.27543093E+03</rscale>
<asrwt>0</asrwt>
<pdfrwt beam="1">  1        1 0.44900715E-02 0.27543093E+03</pdfrwt>
<pdfrwt beam="2">  1       -1 0.99973628E-01 0.27543093E+03</pdfrwt>
<totfact> 0.19487511E+03</totfact>
</mgrwt>
</event>
<event>
 5    1  0.1108889E+001  0.2755593E+03  0.7818608E-02  0.1098139E+00
         -2   -1    0    0    0  501 -0.00000000000E+00  0.00000000000E+00  0.34184972068E+02  0.34184972068E+02  0.00000000000E+00 0.  1.
          2   -1    0    0  501    0  0.00000000000E+00 -0.00000000000E+00 -0.55530929116E+03  0.55530929116E+03  0.00000000000E+00 0.  1.
         35    2    1    2    0    0  0.00000000000E+00  0.00000000000E+00 -0.52112431909E+03  0.58949426323E+03  0.27555930474E+03 0.  0.
         25    1    3    3    0    0  0.53811737026E+01 -0.67469996919E+02 -0.26364380921E+03  0.29747136946E+03  0.12000000000E+03 0.  0.
         25    1    3    3    0    0 -0.53811737026E+01  0.67469996919E+02 -0.25748050988E+03  0.29202289377E+03  0.12000000000E+03 0.  0.
<mgrwt>
<rscale>  0 0.27555930E+03</rscale>
<asrwt>0</asrwt>
<pdfrwt beam="1">  1        2 0.85432201E-01 0.27555930E+03</pdfrwt>
<pdfrwt beam="2">  1       -2 0.52592263E-02 0.27555930E+03</pdfrwt>
<totfact> 0.99561655E+03</totfact>
</mgrwt>
</event>
<event>
 5    1  0.1108889E+001  0.2755916E+03  0.7818608E-02  0.1098121E+00
          4   -1    0    0  501    0  0.00000000000E+00  0.00000000000E+00  0.16277986932E+03  0.16277986932E+03  0.00000000000E+00 0. -1.
         -4   -1    0    0    0  501 -0.00000000000E+00 -0.00000000000E+00 -0.11664641420E+03  0.11664641420E+03  0.00000000000E+00 0. -1.
         35    2    1    2    0    0  0.00000000000E+00  0.00000000000E+00  0.46133455115E+02  0.27942628352E+03  0.27559164037E+03 0.  0.
         25    1    3    3    0    0 -0.21623111517E+02  0.99476886415E+01  0.87361782530E+02  0.15032829577E+03  0.12000000000E+03 0.  0.
         25    1    3    3    0    0  0.21623111517E+02 -0.99476886415E+01 -0.41228327415E+02  0.12909798776E+03  0.12000000000E+03 0.  0.
<mgrwt>
<rscale>  0 0.27559164E+03</rscale>
<asrwt>0</asrwt>
<pdfrwt beam="1">  1        4 0.25043057E-01 0.27559164E+03</pdfrwt>
<pdfrwt beam="2">  1       -4 0.17945602E-01 0.27559164E+03</pdfrwt>
<totfact> 0.76831696E+02</totfact>
</mgrwt>
</event>
<event>
 5    1  0.1108889E+001  0.2756787E+03  0.7818608E-02  0.1098073E+00
          1   -1    0    0  501    0  0.00000000000E+00  0.00000000000E+00  0.48292949008E+03  0.48292949008E+03  0.00000000000E+00 0. -1.
         -1   -1    0    0    0  501 -0.00000000000E+00 -0.00000000000E+00 -0.39342569938E+02  0.39342569938E+02  0.00000000000E+00 0. -1.
         35    2    1    2    0    0  0.00000000000E+00  0.00000000000E+00  0.44358692015E+03  0.52227206002E+03  0.27567870602E+03 0.  0.
         25    1    3    3    0    0  0.10739892819E+01  0.67771194133E+02  0.22627626690E+03  0.26494346032E+03  0.12000000000E+03 0.  0.
         25    1    3    3    0    0 -0.10739892819E+01 -0.67771194133E+02  0.21731065325E+03  0.25732859970E+03  0.12000000000E+03 0.  0.
<mgrwt>
<rscale>  0 0.27567871E+03</rscale>
<asrwt>0</asrwt>
<pdfrwt beam="1">  1        1 0.74296841E-01 0.27567871E+03</pdfrwt>
<pdfrwt beam="2">  1       -1 0.60527034E-02 0.27567871E+03</pdfrwt>
<totfact> 0.62071387E+03</totfact>
</mgrwt>
</event>
<event>
 5    1  0.1108889E+001  0.2747172E+03  0.7818608E-02  0.1098610E+00
          4   -1    0    0  501    0  0.00000000000E+00  0.00000000000E+00  0.10368708433E+03  0.10368708433E+03  0.00000000000E+00 0. -1.
         -4   -1    0    0    0  501 -0.00000000000E+00 -0.00000000000E+00 -0.18196464839E+03  0.18196464839E+03  0.00000000000E+00 0. -1.
         35    2    1    2    0    0  0.00000000000E+00  0.00000000000E+00 -0.78277564064E+02  0.28565173272E+03  0.27471719162E+03 0.  0.
         25    1    3    3    0    0  0.56940392837E+02  0.34952152037E+02 -0.37187225669E+02  0.14229107850E+03  0.12000000000E+03 0.  0.
         25    1    3    3    0    0 -0.56940392837E+02 -0.34952152037E+02 -0.41090338395E+02  0.14336065422E+03  0.12000000000E+03 0.  0.
<mgrwt>
<rscale>  0 0.27471719E+03</rscale>
<asrwt>0</asrwt>
<pdfrwt beam="1">  1        4 0.15951859E-01 0.27471719E+03</pdfrwt>
<pdfrwt beam="2">  1       -4 0.27994561E-01 0.27471719E+03</pdfrwt>
<totfact> 0.76865655E+02</totfact>
</mgrwt>
</event>
<event>
 5    1  0.1108889E+001  0.2752807E+03  0.7818608E-02  0.1098295E+00
         -2   -1    0    0    0  501 -0.00000000000E+00  0.00000000000E+00  0.13704538041E+03  0.13704538041E+03  0.00000000000E+00 0. -1.
          2   -1    0    0  501    0  0.00000000000E+00 -0.00000000000E+00 -0.13823794378E+03  0.13823794378E+03  0.00000000000E+00 0. -1.
         35    2    1    2    0    0  0.00000000000E+00  0.00000000000E+00 -0.11925633712E+01  0.27528332419E+03  0.27528074101E+03 0.  0.
         25    1    3    3    0    0 -0.25789838903E+02 -0.59353416380E+02 -0.19488990983E+02  0.13772350778E+03  0.12000000000E+03 0.  0.
         25    1    3    3    0    0  0.25789838903E+02  0.59353416380E+02  0.18296427612E+02  0.13755981641E+03  0.12000000000E+03 0.  0.
<mgrwt>
<rscale>  0 0.27528074E+03</rscale>
<asrwt>0</asrwt>
<pdfrwt beam="1">  1        2 0.21267376E-01 0.27528074E+03</pdfrwt>
<pdfrwt beam="2">  1       -2 0.21083905E-01 0.27528074E+03</pdfrwt>
<totfact> 0.49288435E+03</totfact>
</mgrwt>
</event>
<event>
 5    1  0.1108889E+001  0.2753486E+03  0.7818608E-02  0.1098257E+00
         -2   -1    0    0    0  501 -0.00000000000E+00  0.00000000000E+00  0.62110585070E+01  0.62110585070E+01  0.00000000000E+00 0.  1.
          2   -1    0    0  501    0  0.00000000000E+00 -0.00000000000E+00 -0.30516883841E+04  0.30516883841E+04  0.00000000000E+00 0.  1.
         35    2    1    2    0    0  0.00000000000E+00  0.00000000000E+00 -0.30454773256E+04  0.30578994426E+04  0.27534861611E+03 0.  0.
         25    1    3    3    0    0 -0.24009430545E+02 -0.62443694038E+02 -0.16211638524E+04  0.16269750778E+04  0.12000000000E+03 0.  0.
         25    1    3    3    0    0  0.24009430545E+02  0.62443694038E+02 -0.14243134732E+04  0.14309243648E+04  0.12000000000E+03 0.  0.
<mgrwt>
<rscale>  0 0.27534862E+03</rscale>
<asrwt>0</asrwt>
<pdfrwt beam="1">  1        2 0.46949130E+00 0.27534862E+03</pdfrwt>
<pdfrwt beam="2">  1       -2 0.95554588E-03 0.27534862E+03</pdfrwt>
<totfact> 0.44207903E+03</totfact>
</mgrwt>
</event>
<event>
 5    1  0.1108889E+001  0.2750705E+03  0.7818608E-02  0.1098412E+00
         -2   -1    0    0    0  501 -0.00000000000E+00  0.00000000000E+00  0.18357849815E+02  0.18357849815E+02  0.00000000000E+00 0. -1.
          2   -1    0    0  501    0  0.00000000000E+00 -0.00000000000E+00 -0.10304011338E+04  0.10304011338E+04  0.00000000000E+00 0. -1.
         35    2    1    2    0    0  0.00000000000E+00  0.00000000000E+00 -0.10120432840E+04  0.10487589836E+04  0.27507053106E+03 0.  0.
         25    1    3    3    0    0 -0.34151925953E+02 -0.18838772724E+02 -0.29737663839E+03  0.32303888073E+03  0.12000000000E+03 0.  0.
         25    1    3    3    0    0  0.34151925953E+02  0.18838772724E+02 -0.71466664560E+03  0.72572010289E+03  0.12000000000E+03 0.  0.
<mgrwt>
<rscale>  0 0.27507053E+03</rscale>
<asrwt>0</asrwt>
<pdfrwt beam="1">  1        2 0.15852330E+00 0.27507053E+03</pdfrwt>
<pdfrwt beam="2">  1       -2 0.28242837E-02 0.27507053E+03</pdfrwt>
<totfact> 0.11631513E+04</totfact>
</mgrwt>
</event>
<event>
 5    1  0.1108889E+001  0.2750526E+03  0.7818608E-02  0.1098422E+00
          2   -1    0    0  501    0  0.00000000000E+00  0.00000000000E+00  0.37667148568E+03  0.37667148568E+03  0.00000000000E+00 0.  1.
         -2   -1    0    0    0  501 -0.00000000000E+00 -0.00000000000E+00 -0.50212144370E+02  0.50212144370E+02  0.00000000000E+00 0.  1.
         35    2    1    2    0    0  0.00000000000E+00  0.00000000000E+00  0.32645934131E+03  0.42688363005E+03  0.27505259875E+03 0.  0.
         25    1    3    3    0    0  0.50078045419E+02  0.43808459416E+02  0.14879589719E+03  0.20240358389E+03  0.12000000000E+03 0.  0.
         25    1    3    3    0    0 -0.50078045419E+02 -0.43808459416E+02  0.17766344412E+03  0.22448004616E+03  0.12000000000E+03 0.  0.
<mgrwt>
<rscale>  0 0.27505260E+03</rscale>
<asrwt>0</asrwt>
<pdfrwt beam="1">  1        2 0.57949457E-01 0.27505260E+03</pdfrwt>
<pdfrwt beam="2">  1       -2 0.77249455E-02 0.27505260E+03</pdfrwt>
<totfact> 0.84601236E+03</totfact>
</mgrwt>
</event>
<event>
 5    1  0.1108889E+001  0.2756419E+03  0.7818608E-02  0.1098093E+00
          1   -1    0    0  501    0  0.00000000000E+00  0.00000000000E+00  0.65489191795E+03  0.65489191795E+03  0.00000000000E+00 0.  1.
         -1   -1    0    0    0  501 -0.00000000000E+00 -0.00000000000E+00 -0.29004205892E+02  0.29004205892E+02  0.00000000000E+00 0.  1.
         35    2    1    2    0    0  0.00000000000E+00  0.00000000000E+00  0.62588771206E+03  0.68389612384E+03  0.27564194184E+03 0.  0.
         25    1    3    3    0    0  0.36987904890E+02 -0.41736260601E+02  0.21734570518E+03  0.25445859411E+03  0.12000000000E+03 0.  0.
         25    1    3    3    0    0 -0.36987904890E+02  0.41736260601E+02  0.40854200688E+03  0.42943752973E+03  0.12000000000E+03 0.  0.
<mgrwt>
<rscale>  0 0.27564194E+03</rscale>
<asrwt>0</asrwt>
<pdfrwt beam="1">  1        1 0.10075259E+00 0.27564194E+03</pdfrwt>
<pdfrwt beam="2">  1       -1 0.44621860E-02 0.27564194E+03</pdfrwt>
<totfact> 0.64658024E+03</totfact>
</mgrwt>
</event>
<event>
 5    1  0.1108889E+001  0.2750127E+03  0.7818608E-02  0.1098444E+00
          4   -1    0    0  501    0  0.00000000000E+00  0.00000000000E+00  0.19521946178E+03  0.19521946178E+03  0.00000000000E+00 0. -1.
         -4   -1    0    0    0  501 -0.00000000000E+00 -0.00000000000E+00 -0.96855104735E+02  0.96855104735E+02  0.00000000000E+00 0. -1.
         35    2    1    2    0    0  0.00000000000E+00  0.00000000000E+00  0.98364357040E+02  0.29207456651E+03  0.27501273728E+03 0.  0.
         25    1    3    3    0    0  0.81193056421E+01 -0.46297238013E+02 -0.17364613192E+01  0.12888899359E+03  0.12000000000E+03 0.  0.
         25    1    3    3    0    0 -0.81193056421E+01  0.46297238013E+02  0.10010081836E+03  0.16318557292E+03  0.12000000000E+03 0.  0.
<mgrwt>
<rscale>  0 0.27501274E+03</rscale>
<asrwt>0</asrwt>
<pdfrwt beam="1">  1        4 0.30033763E-01 0.27501274E+03</pdfrwt>
<pdfrwt beam="2">  1       -4 0.14900785E-01 0.27501274E+03</pdfrwt>
<totfact> 0.75874947E+02</totfact>
</mgrwt>
</event>
<event>
 5    1  0.1108889E+001  0.2764982E+03  0.7818608E-02  0.1097617E+00
          1   -1    0    0  501    0  0.00000000000E+00  0.00000000000E+00  0.19531463390E+02  0.19531463390E+02  0.00000000000E+00 0.  1.
         -1   -1    0    0    0  501 -0.00000000000E+00 -0.00000000000E+00 -0.97856516256E+03  0.97856516256E+03  0.00000000000E+00 0.  1.
         35    2    1    2    0    0  0.00000000000E+00  0.00000000000E+00 -0.95903369917E+03  0.99809662595E+03  0.27649817104E+03 0.  0.
         25    1    3    3    0    0  0.26512296923E+02  0.19478487664E+02 -0.69701888346E+03  0.70803787842E+03  0.12000000000E+03 0.  0.
         25    1    3    3    0    0 -0.26512296923E+02 -0.19478487664E+02 -0.26201481570E+03  0.29005874753E+03  0.12000000000E+03 0.  0.
<mgrwt>
<rscale>  0 0.27649817E+03</rscale>
<asrwt>0</asrwt>
<pdfrwt beam="1">  1        1 0.30048403E-02 0.27649817E+03</pdfrwt>
<pdfrwt beam="2">  1       -1 0.15054850E+00 0.27649817E+03</pdfrwt>
<totfact> 0.12731824E+03</totfact>
</mgrwt>
</event>
<event>
 5    1  0.1108889E+001  0.2728825E+03  0.7818608E-02  0.1099641E+00
         -2   -1    0    0    0  501 -0.00000000000E+00  0.00000000000E+00  0.12404734470E+03  0.12404734470E+03  0.00000000000E+00 0.  1.
          2   -1    0    0  501    0  0.00000000000E+00 -0.00000000000E+00 -0.15007344211E+03  0.15007344211E+03  0.00000000000E+00 0.  1.
         35    2    1    2    0    0  0.00000000000E+00  0.00000000000E+00 -0.26026097411E+02  0.27412078680E+03  0.27288248022E+03 0.  0.
         25    1    3    3    0    0  0.46811228646E+02 -0.24257273601E+02  0.25060203047E+02  0.13344557028E+03  0.12000000000E+03 0.  0.
         25    1    3    3    0    0 -0.46811228646E+02  0.24257273601E+02 -0.51086300459E+02  0.14067521653E+03  0.12000000000E+03 0.  0.
<mgrwt>
<rscale>  0 0.27288248E+03</rscale>
<asrwt>0</asrwt>
<pdfrwt beam="1">  1        2 0.23088222E-01 0.27288248E+03</pdfrwt>
<pdfrwt beam="2">  1       -2 0.19084207E-01 0.27288248E+03</pdfrwt>
<totfact> 0.53246224E+03</totfact>
</mgrwt>
</event>
<event>
 5    1  0.1108889E+001  0.2747764E+03  0.7818608E-02  0.1098577E+00
         -2   -1    0    0    0  501 -0.00000000000E+00  0.00000000000E+00  0.32003378841E+02  0.32003378841E+02  0.00000000000E+00 0. -1.
          2   -1    0    0  501    0  0.00000000000E+00 -0.00000000000E+00 -0.58979749037E+03  0.58979749037E+03  0.00000000000E+00 0. -1.
         35    2    1    2    0    0  0.00000000000E+00  0.00000000000E+00 -0.55779411153E+03  0.62180086921E+03  0.27477636379E+03 0.  0.
         25    1    3    3    0    0 -0.26419882166E+02  0.14505616383E+02 -0.14374304057E+03  0.18965886426E+03  0.12000000000E+03 0.  0.
         25    1    3    3    0    0  0.26419882166E+02 -0.14505616383E+02 -0.41405107096E+03  0.43214200495E+03  0.12000000000E+03 0.  0.
<mgrwt>
<rscale>  0 0.27477636E+03</rscale>
<asrwt>0</asrwt>
<pdfrwt beam="1">  1        2 0.90738067E-01 0.27477636E+03</pdfrwt>
<pdfrwt beam="2">  1       -2 0.49235972E-02 0.27477636E+03</pdfrwt>
<totfact> 0.10269469E+04</totfact>
</mgrwt>
</event>
<event>
 5    1  0.1108889E+001  0.2742569E+03  0.7818608E-02  0.1098868E+00
          1   -1    0    0  501    0  0.00000000000E+00  0.00000000000E+00  0.39827534064E+03  0.39827534064E+03  0.00000000000E+00 0.  1.
         -1   -1    0    0    0  501 -0.00000000000E+00 -0.00000000000E+00 -0.47214108681E+02  0.47214108681E+02  0.00000000000E+00 0.  1.
         35    2    1    2    0    0  0.00000000000E+00  0.00000000000E+00  0.35106123196E+03  0.44548944932E+03  0.27425692493E+03 0.  0.
         25    1    3    3    0    0 -0.48913136820E+02  0.44842600630E+02  0.17703823143E+03  0.22393277825E+03  0.12000000000E+03 0.  0.
         25    1    3    3    0    0  0.48913136820E+02 -0.44842600630E+02  0.17402300052E+03  0.22155667107E+03  0.12000000000E+03 0.  0.
<mgrwt>
<rscale>  0 0.27425692E+03</rscale>
<asrwt>0</asrwt>
<pdfrwt beam="1">  1        1 0.61273127E-01 0.27425692E+03</pdfrwt>
<pdfrwt beam="2">  1       -1 0.72637093E-02 0.27425692E+03</pdfrwt>
<totfact> 0.60477890E+03</totfact>
</mgrwt>
</event>
<event>
 5    1  0.1108889E+001  0.2764266E+03  0.7818608E-02  0.1097657E+00
         -2   -1    0    0    0  501 -0.00000000000E+00  0.00000000000E+00  0.10827433842E+02  0.10827433842E+02  0.00000000000E+00 0.  1.
          2   -1    0    0  501    0  0.00000000000E+00 -0.00000000000E+00 -0.17643074899E+04  0.17643074899E+04  0.00000000000E+00 0.  1.
         35    2    1    2    0    0  0.00000000000E+00  0.00000000000E+00 -0.17534800561E+04  0.17751349237E+04  0.27642664577E+03 0.  0.
         25    1    3    3    0    0  0.52296940112E+01 -0.65037724665E+02 -0.10123079211E+04  0.10214815624E+04  0.12000000000E+03 0.  0.
         25    1    3    3    0    0 -0.52296940112E+01  0.65037724665E+02 -0.74117213497E+03  0.75365336129E+03  0.12000000000E+03 0.  0.
<mgrwt>
<rscale>  0 0.27642665E+03</rscale>
<asrwt>0</asrwt>
<pdfrwt beam="1">  1        2 0.27143199E+00 0.27642665E+03</pdfrwt>
<pdfrwt beam="2">  1       -2 0.16657586E-02 0.27642665E+03</pdfrwt>
<totfact> 0.99987143E+03</totfact>
</mgrwt>
</event>
<event>
 5    1  0.1108889E+001  0.2733684E+03  0.7818608E-02  0.1099367E+00
         -2   -1    0    0    0  501 -0.00000000000E+00  0.00000000000E+00  0.98801584413E+01  0.98801584413E+01  0.00000000000E+00 0.  1.
          2   -1    0    0  501    0  0.00000000000E+00 -0.00000000000E+00 -0.18909185201E+04  0.18909185201E+04  0.00000000000E+00 0.  1.
         35    2    1    2    0    0  0.00000000000E+00  0.00000000000E+00 -0.18810383617E+04  0.19007986786E+04  0.27336842962E+03 0.  0.
         25    1    3    3    0    0  0.22636638796E+02 -0.52508380890E+02 -0.11618277829E+04  0.11694072621E+04  0.12000000000E+03 0.  0.
         25    1    3    3    0    0 -0.22636638796E+02  0.52508380890E+02 -0.71921057874E+03  0.73139141645E+03  0.12000000000E+03 0.  0.
<mgrwt>
<rscale>  0 0.27336843E+03</rscale>
<asrwt>0</asrwt>
<pdfrwt beam="1">  1        2 0.29091041E+00 0.27336843E+03</pdfrwt>
<pdfrwt beam="2">  1       -2 0.15200250E-02 0.27336843E+03</pdfrwt>
<totfact> 0.98093087E+03</totfact>
</mgrwt>
</event>
<event>
 4    1  0.1108889E+001  0.2955947E+03  0.7818608E-02  0.1087464E+00
          2   -1    0    0  501    0  0.00000000000E+00  0.00000000000E+00  0.54067868291E+02  0.54067868291E+02  0.00000000000E+00 0.  1.
         -2   -1    0    0    0  501 -0.00000000000E+00 -0.00000000000E+00 -0.40401189789E+03  0.40401189789E+03  0.00000000000E+00 0.  1.
         25    1    1    2    0    0 -0.37425665196E+02 -0.40571672485E+02 -0.72208606438E+02  0.15053512503E+03  0.12000000000E+03 0.  0.
         25    1    1    2    0    0  0.37425665196E+02  0.40571672485E+02 -0.27773542316E+03  0.30754464116E+03  0.12000000000E+03 0.  0.
<mgrwt>
<rscale>  0 0.29559474E+03</rscale>
<asrwt>0</asrwt>
<pdfrwt beam="1">  1        2 0.83181340E-02 0.29559474E+03</pdfrwt>
<pdfrwt beam="2">  1       -2 0.62155674E-01 0.29559474E+03</pdfrwt>
<totfact> 0.19877675E+03</totfact>
</mgrwt>
</event>
<event>
 5    1  0.1108889E+001  0.2754238E+03  0.7818608E-02  0.1098215E+00
         -2   -1    0    0    0  501 -0.00000000000E+00  0.00000000000E+00  0.99153031258E+02  0.99153031258E+02  0.00000000000E+00 0.  1.
          2   -1    0    0  501    0  0.00000000000E+00 -0.00000000000E+00 -0.19126556523E+03  0.19126556523E+03  0.00000000000E+00 0.  1.
         35    2    1    2    0    0  0.00000000000E+00  0.00000000000E+00 -0.92112533971E+02  0.29041859649E+03  0.27542375038E+03 0.  0.
         25    1    3    3    0    0 -0.37437405669E+01  0.66396029862E+02 -0.58626366184E+02  0.14919617685E+03  0.12000000000E+03 0.  0.
         25    1    3    3    0    0  0.37437405669E+01 -0.66396029862E+02 -0.33486167787E+02  0.14122241964E+03  0.12000000000E+03 0.  0.
<mgrwt>
<rscale>  0 0.27542375E+03</rscale>
<asrwt>0</asrwt>
<pdfrwt beam="1">  1        2 0.29425471E-01 0.27542375E+03</pdfrwt>
<pdfrwt beam="2">  1       -2 0.15254313E-01 0.27542375E+03</pdfrwt>
<totfact> 0.59202200E+03</totfact>
</mgrwt>
</event>
<event>
 5    1  0.1108889E+001  0.2674103E+03  0.7818608E-02  0.1102771E+00
         -1   -1    0    0    0  501 -0.00000000000E+00  0.00000000000E+00  0.20597609261E+04  0.20597609261E+04  0.00000000000E+00 0. -1.
          1   -1    0    0  501    0  0.00000000000E+00 -0.00000000000E+00 -0.86791920815E+01  0.86791920815E+01  0.00000000000E+00 0. -1.
         35    2    1    2    0    0  0.00000000000E+00  0.00000000000E+00  0.20510817341E+04  0.20684401182E+04  0.26741025201E+03 0.  0.
         25    1    3    3    0    0 -0.69728150239E+01  0.31599992381E+02  0.64424911888E+03  0.65612811771E+03  0.12000000000E+03 0.  0.
         25    1    3    3    0    0  0.69728150239E+01 -0.31599992381E+02  0.14068326152E+04  0.14123120005E+04  0.12000000000E+03 0.  0.
<mgrwt>
<rscale>  0 0.26741025E+03</rscale>
<asrwt>0</asrwt>
<pdfrwt beam="1">  1        1 0.13352620E-02 0.26741025E+03</pdfrwt>
<pdfrwt beam="2">  1       -1 0.31688591E+00 0.26741025E+03</pdfrwt>
<totfact> 0.32505089E+02</totfact>
</mgrwt>
</event>
<event>
 5    1  0.1108889E+001  0.2750842E+03  0.7818608E-02  0.1098405E+00
         -2   -1    0    0    0  501 -0.00000000000E+00  0.00000000000E+00  0.12612535545E+03  0.12612535545E+03  0.00000000000E+00 0.  1.
          2   -1    0    0  501    0  0.00000000000E+00 -0.00000000000E+00 -0.14999230104E+03  0.14999230104E+03  0.00000000000E+00 0.  1.
         35    2    1    2    0    0  0.00000000000E+00  0.00000000000E+00 -0.23866945583E+02  0.27611765649E+03  0.27508422189E+03 0.  0.
         25    1    3    3    0    0 -0.35604956635E+02 -0.35314342838E+02  0.32989735515E+02  0.13417577425E+03  0.12000000000E+03 0.  0.
         25    1    3    3    0    0  0.35604956635E+02  0.35314342838E+02 -0.56856681099E+02  0.14194188224E+03  0.12000000000E+03 0.  0.
<mgrwt>
<rscale>  0 0.27508422E+03</rscale>
<asrwt>0</asrwt>
<pdfrwt beam="1">  1        2 0.23075739E-01 0.27508422E+03</pdfrwt>
<pdfrwt beam="2">  1       -2 0.19403901E-01 0.27508422E+03</pdfrwt>
<totfact> 0.51808063E+03</totfact>
</mgrwt>
</event>
<event>
 5    1  0.1108889E+001  0.2758780E+03  0.7818608E-02  0.1097962E+00
          2   -1    0    0  501    0  0.00000000000E+00  0.00000000000E+00  0.18211717696E+03  0.18211717696E+03  0.00000000000E+00 0.  1.
         -2   -1    0    0    0  501 -0.00000000000E+00 -0.00000000000E+00 -0.10447759666E+03  0.10447759666E+03  0.00000000000E+00 0.  1.
         35    2    1    2    0    0  0.00000000000E+00  0.00000000000E+00  0.77639580299E+02  0.28659477361E+03  0.27587797997E+03 0.  0.
         25    1    3    3    0    0 -0.11191977193E+02  0.42309091339E+02 -0.15278519090E+02  0.12864195548E+03  0.12000000000E+03 0.  0.
         25    1    3    3    0    0  0.11191977193E+02 -0.42309091339E+02  0.92918099390E+02  0.15795281814E+03  0.12000000000E+03 0.  0.
<mgrwt>
<rscale>  0 0.27587798E+03</rscale>
<asrwt>0</asrwt>
<pdfrwt beam="1">  1        2 0.28018027E-01 0.27587798E+03</pdfrwt>
<pdfrwt beam="2">  1       -2 0.16073476E-01 0.27587798E+03</pdfrwt>
<totfact> 0.57293193E+03</totfact>
</mgrwt>
</event>
<event>
 5    1  0.1108889E+001  0.2747042E+03  0.7818608E-02  0.1098617E+00
          4   -1    0    0  501    0  0.00000000000E+00  0.00000000000E+00  0.10076564116E+03  0.10076564116E+03  0.00000000000E+00 0. -1.
         -4   -1    0    0    0  501 -0.00000000000E+00 -0.00000000000E+00 -0.18722257005E+03  0.18722257005E+03  0.00000000000E+00 0. -1.
         35    2    1    2    0    0  0.00000000000E+00  0.00000000000E+00 -0.86456928892E+02  0.28798821121E+03  0.27470422138E+03 0.  0.
         25    1    3    3    0    0 -0.42020148641E+02  0.50887363404E+02 -0.32213940887E+02  0.14068743595E+03  0.12000000000E+03 0.  0.
         25    1    3    3    0    0  0.42020148641E+02 -0.50887363404E+02 -0.54242988005E+02  0.14730077527E+03  0.12000000000E+03 0.  0.
<mgrwt>
<rscale>  0 0.27470422E+03</rscale>
<asrwt>0</asrwt>
<pdfrwt beam="1">  1        4 0.15502406E-01 0.27470422E+03</pdfrwt>
<pdfrwt beam="2">  1       -4 0.28803472E-01 0.27470422E+03</pdfrwt>
<totfact> 0.76606862E+02</totfact>
</mgrwt>
</event>
<event>
 4    1  0.1108889E+001  0.2582803E+03  0.7818608E-02  0.1108181E+00
          2   -1    0    0  501    0  0.00000000000E+00  0.00000000000E+00  0.42102654538E+02  0.42102654538E+02  0.00000000000E+00 0.  1.
         -2   -1    0    0    0  501 -0.00000000000E+00 -0.00000000000E+00 -0.39610766197E+03  0.39610766197E+03  0.00000000000E+00 0.  1.
         25    1    1    2    0    0 -0.15043454394E+02 -0.14447182858E+02 -0.24982316413E+03  0.27793279754E+03  0.12000000000E+03 0.  0.
         25    1    1    2    0    0  0.15043454394E+02  0.14447182858E+02 -0.10418184330E+03  0.16027751897E+03  0.12000000000E+03 0.  0.
<mgrwt>
<rscale>  0 0.25828034E+03</rscale>
<asrwt>0</asrwt>
<pdfrwt beam="1">  1        2 0.64773311E-02 0.25828034E+03</pdfrwt>
<pdfrwt beam="2">  1       -2 0.60939644E-01 0.25828034E+03</pdfrwt>
<totfact> 0.28433733E+03</totfact>
</mgrwt>
</event>
<event>
 5    1  0.1108889E+001  0.2749372E+03  0.7818608E-02  0.1098487E+00
         -1   -1    0    0    0  501 -0.00000000000E+00  0.00000000000E+00  0.13959349194E+02  0.13959349194E+02  0.00000000000E+00 0.  1.
          1   -1    0    0  501    0  0.00000000000E+00 -0.00000000000E+00 -0.13537606332E+04  0.13537606332E+04  0.00000000000E+00 0.  1.
         35    2    1    2    0    0  0.00000000000E+00  0.00000000000E+00 -0.13398012840E+04  0.13677199824E+04  0.27493721032E+03 0.  0.
         25    1    3    3    0    0  0.47863721655E+02 -0.36856588102E+02 -0.52501291080E+03  0.54192979291E+03  0.12000000000E+03 0.  0.
         25    1    3    3    0    0 -0.47863721655E+02  0.36856588102E+02 -0.81478837322E+03  0.82579018949E+03  0.12000000000E+03 0.  0.
<mgrwt>
<rscale>  0 0.27493721E+03</rscale>
<asrwt>0</asrwt>
<pdfrwt beam="1">  1        1 0.20827083E+00 0.27493721E+03</pdfrwt>
<pdfrwt beam="2">  1       -1 0.21475926E-02 0.27493721E+03</pdfrwt>
<totfact> 0.55397338E+03</totfact>
</mgrwt>
</event>
<event>
 5    1  0.1108889E+001  0.2751522E+03  0.7818608E-02  0.1098367E+00
          1   -1    0    0  501    0  0.00000000000E+00  0.00000000000E+00  0.11726619244E+03  0.11726619244E+03  0.00000000000E+00 0.  1.
         -1   -1    0    0    0  501 -0.00000000000E+00 -0.00000000000E+00 -0.16140355799E+03  0.16140355799E+03  0.00000000000E+00 0.  1.
         35    2    1    2    0    0  0.00000000000E+00  0.00000000000E+00 -0.44137365555E+02  0.27866975043E+03  0.27515218110E+03 0.  0.
         25    1    3    3    0    0  0.34899211728E+01 -0.39795990444E+02 -0.76902129106E+02  0.14801972121E+03  0.12000000000E+03 0.  0.
         25    1    3    3    0    0 -0.34899211728E+01  0.39795990444E+02  0.32764763552E+02  0.13065002922E+03  0.12000000000E+03 0.  0.
<mgrwt>
<rscale>  0 0.27515218E+03</rscale>
<asrwt>0</asrwt>
<pdfrwt beam="1">  1        1 0.18040953E-01 0.27515218E+03</pdfrwt>
<pdfrwt beam="2">  1       -1 0.24831317E-01 0.27515218E+03</pdfrwt>
<totfact> 0.40903505E+03</totfact>
</mgrwt>
</event>
<event>
 5    1  0.1108889E+001  0.2755081E+03  0.7818608E-02  0.1098168E+00
          2   -1    0    0  501    0  0.00000000000E+00  0.00000000000E+00  0.24467136868E+04  0.24467136868E+04  0.00000000000E+00 0.  1.
         -2   -1    0    0    0  501 -0.00000000000E+00 -0.00000000000E+00 -0.77557830082E+01  0.77557830082E+01  0.00000000000E+00 0.  1.
         35    2    1    2    0    0  0.00000000000E+00  0.00000000000E+00  0.24389579038E+04  0.24544694698E+04  0.27550811559E+03 0.  0.
         25    1    3    3    0    0  0.29386216655E+02  0.29844687718E+02  0.74622309585E+03  0.75696972455E+03  0.12000000000E+03 0.  0.
         25    1    3    3    0    0 -0.29386216655E+02 -0.29844687718E+02  0.16927348080E+04  0.16974997453E+04  0.12000000000E+03 0.  0.
<mgrwt>
<rscale>  0 0.27550812E+03</rscale>
<asrwt>0</asrwt>
<pdfrwt beam="1">  1        2 0.37641688E+00 0.27550812E+03</pdfrwt>
<pdfrwt beam="2">  1       -2 0.11931993E-02 0.27550812E+03</pdfrwt>
<totfact> 0.70702244E+03</totfact>
</mgrwt>
</event>
<event>
 5    1  0.1108889E+001  0.2756117E+03  0.7818608E-02  0.1098110E+00
         -2   -1    0    0    0  501 -0.00000000000E+00  0.00000000000E+00  0.14389692025E+03  0.14389692025E+03  0.00000000000E+00 0.  1.
          2   -1    0    0  501    0  0.00000000000E+00 -0.00000000000E+00 -0.13197258035E+03  0.13197258035E+03  0.00000000000E+00 0.  1.
         35    2    1    2    0    0  0.00000000000E+00  0.00000000000E+00  0.11924339893E+02  0.27586950060E+03  0.27561166789E+03 0.  0.
         25    1    3    3    0    0  0.56239962766E+02 -0.41924868513E+00 -0.31853309254E+02  0.13630019256E+03  0.12000000000E+03 0.  0.
         25    1    3    3    0    0 -0.56239962766E+02  0.41924868513E+00  0.43777649147E+02  0.13956930804E+03  0.12000000000E+03 0.  0.
<mgrwt>
<rscale>  0 0.27561167E+03</rscale>
<asrwt>0</asrwt>
<pdfrwt beam="1">  1        2 0.20303474E-01 0.27561167E+03</pdfrwt>
<pdfrwt beam="2">  1       -2 0.22137988E-01 0.27561167E+03</pdfrwt>
<totfact> 0.47764952E+03</totfact>
</mgrwt>
</event>
<event>
 5    1  0.1108889E+001  0.2752869E+03  0.7818608E-02  0.1098291E+00
         -2   -1    0    0    0  501 -0.00000000000E+00  0.00000000000E+00  0.23182548356E+02  0.23182548356E+02  0.00000000000E+00 0. -1.
          2   -1    0    0  501    0  0.00000000000E+00 -0.00000000000E+00 -0.81724044143E+03  0.81724044143E+03  0.00000000000E+00 0. -1.
         35    2    1    2    0    0  0.00000000000E+00  0.00000000000E+00 -0.79405789307E+03  0.84042298978E+03  0.27528687620E+03 0.  0.
         25    1    3    3    0    0  0.22095686501E+02  0.62095026950E+00 -0.20257316181E+03  0.23648359526E+03  0.12000000000E+03 0.  0.
         25    1    3    3    0    0 -0.22095686501E+02 -0.62095026950E+00 -0.59148473127E+03  0.60393939453E+03  0.12000000000E+03 0.  0.
<mgrwt>
<rscale>  0 0.27528688E+03</rscale>
<asrwt>0</asrwt>
<pdfrwt beam="1">  1        2 0.12572928E+00 0.27528688E+03</pdfrwt>
<pdfrwt beam="2">  1       -2 0.35665465E-02 0.27528688E+03</pdfrwt>
<totfact> 0.11240089E+04</totfact>
</mgrwt>
</event>
<event>
 5    1  0.1108889E+001  0.2741087E+03  0.7818608E-02  0.1098951E+00
         -2   -1    0    0    0  501 -0.00000000000E+00  0.00000000000E+00  0.23272706600E+02  0.23272706600E+02  0.00000000000E+00 0.  1.
          2   -1    0    0  501    0  0.00000000000E+00 -0.00000000000E+00 -0.80712133508E+03  0.80712133508E+03  0.00000000000E+00 0.  1.
         35    2    1    2    0    0  0.00000000000E+00  0.00000000000E+00 -0.78384862848E+03  0.83039404168E+03  0.27410872312E+03 0.  0.
         25    1    3    3    0    0 -0.29953880735E+02 -0.56736129124E+02 -0.34236046440E+03  0.36841133384E+03  0.12000000000E+03 0.  0.
         25    1    3    3    0    0  0.29953880735E+02  0.56736129124E+02 -0.44148816408E+03  0.46198270784E+03  0.12000000000E+03 0.  0.
<mgrwt>
<rscale>  0 0.27410872E+03</rscale>
<asrwt>0</asrwt>
<pdfrwt beam="1">  1        2 0.12417250E+00 0.27410872E+03</pdfrwt>
<pdfrwt beam="2">  1       -2 0.35804167E-02 0.27410872E+03</pdfrwt>
<totfact> 0.11352970E+04</totfact>
</mgrwt>
</event>
<event>
 5    1  0.1108889E+001  0.2748746E+03  0.7818608E-02  0.1098522E+00
          3   -1    0    0  501    0  0.00000000000E+00  0.00000000000E+00  0.17184963343E+03  0.17184963343E+03  0.00000000000E+00 0. -1.
         -3   -1    0    0    0  501 -0.00000000000E+00 -0.00000000000E+00 -0.10991589538E+03  0.10991589538E+03  0.00000000000E+00 0. -1.
         35    2    1    2    0    0  0.00000000000E+00  0.00000000000E+00  0.61933738044E+02  0.28176552881E+03  0.27487456288E+03 0.  0.
         25    1    3    3    0    0 -0.59466763933E+02  0.20439861359E+02  0.54675075149E+02  0.14609396903E+03  0.12000000000E+03 0.  0.
         25    1    3    3    0    0  0.59466763933E+02 -0.20439861359E+02  0.72586628953E+01  0.13567155978E+03  0.12000000000E+03 0.  0.
<mgrwt>
<rscale>  0 0.27487456E+03</rscale>
<asrwt>0</asrwt>
<pdfrwt beam="1">  1        3 0.26438405E-01 0.27487456E+03</pdfrwt>
<pdfrwt beam="2">  1       -3 0.16910138E-01 0.27487456E+03</pdfrwt>
<totfact> 0.10401205E+03</totfact>
</mgrwt>
</event>
<event>
 5    1  0.1108889E+001  0.2746736E+03  0.7818608E-02  0.1098634E+00
          2   -1    0    0  501    0  0.00000000000E+00  0.00000000000E+00  0.36872660248E+03  0.36872660248E+03  0.00000000000E+00 0.  1.
         -2   -1    0    0    0  501 -0.00000000000E+00 -0.00000000000E+00 -0.51152793868E+02  0.51152793868E+02  0.00000000000E+00 0.  1.
         35    2    1    2    0    0  0.00000000000E+00  0.00000000000E+00  0.31757380861E+03  0.41987939634E+03  0.27467359458E+03 0.  0.
         25    1    3    3    0    0  0.54200416100E+02  0.21148072813E+01  0.99204144685E+02  0.16487455789E+03  0.12000000000E+03 0.  0.
         25    1    3    3    0    0 -0.54200416100E+02 -0.21148072813E+01  0.21836966392E+03  0.25500483846E+03  0.12000000000E+03 0.  0.
<mgrwt>
<rscale>  0 0.27467359E+03</rscale>
<asrwt>0</asrwt>
<pdfrwt beam="1">  1        2 0.56727168E-01 0.27467359E+03</pdfrwt>
<pdfrwt beam="2">  1       -2 0.78696608E-02 0.27467359E+03</pdfrwt>
<totfact> 0.84100772E+03</totfact>
</mgrwt>
</event>
<event>
 5    1  0.1108889E+001  0.2746446E+03  0.7818608E-02  0.1098650E+00
         -1   -1    0    0    0  501 -0.00000000000E+00  0.00000000000E+00  0.35560751517E+03  0.35560751517E+03  0.00000000000E+00 0.  1.
          1   -1    0    0  501    0  0.00000000000E+00 -0.00000000000E+00 -0.53028709903E+02  0.53028709903E+02  0.00000000000E+00 0.  1.
         35    2    1    2    0    0  0.00000000000E+00  0.00000000000E+00  0.30257880527E+03  0.40863622507E+03  0.27464455401E+03 0.  0.
         25    1    3    3    0    0 -0.38814876417E+02 -0.49395537876E+02  0.11765906252E+03  0.17941618875E+03  0.12000000000E+03 0.  0.
         25    1    3    3    0    0  0.38814876417E+02  0.49395537876E+02  0.18491974274E+03  0.22922003632E+03  0.12000000000E+03 0.  0.
<mgrwt>
<rscale>  0 0.27464455E+03</rscale>
<asrwt>0</asrwt>
<pdfrwt beam="1">  1        1 0.81582633E-02 0.27464455E+03</pdfrwt>
<pdfrwt beam="2">  1       -1 0.54708847E-01 0.27464455E+03</pdfrwt>
<totfact> 0.29262466E+03</totfact>
</mgrwt>
</event>
<event>
 5    1  0.1108889E+001  0.2669491E+03  0.7818608E-02  0.1103039E+00
          2   -1    0    0  501    0  0.00000000000E+00  0.00000000000E+00  0.21010534565E+02  0.21010534565E+02  0.00000000000E+00 0.  1.
         -2   -1    0    0    0  501 -0.00000000000E+00 -0.00000000000E+00 -0.84792975193E+03  0.84792975193E+03  0.00000000000E+00 0.  1.
         35    2    1    2    0    0  0.00000000000E+00  0.00000000000E+00 -0.82691921736E+03  0.86894028649E+03  0.26694911396E+03 0.  0.
         25    1    3    3    0    0  0.40386184646E+02  0.15182131847E+01 -0.27604638840E+03  0.30370208664E+03  0.12000000000E+03 0.  0.
         25    1    3    3    0    0 -0.40386184646E+02 -0.15182131847E+01 -0.55087282896E+03  0.56523819985E+03  0.12000000000E+03 0.  0.
<mgrwt>
<rscale>  0 0.26694911E+03</rscale>
<asrwt>0</asrwt>
<pdfrwt beam="1">  1        2 0.32323900E-02 0.26694911E+03</pdfrwt>
<pdfrwt beam="2">  1       -2 0.13045073E+00 0.26694911E+03</pdfrwt>
<totfact> 0.12775756E+03</totfact>
</mgrwt>
</event>
<event>
 5    1  0.1108889E+001  0.2753481E+03  0.7818608E-02  0.1098257E+00
         -3   -1    0    0    0  501 -0.00000000000E+00  0.00000000000E+00  0.29562226692E+02  0.29562226692E+02  0.00000000000E+00 0. -1.
          3   -1    0    0  501    0  0.00000000000E+00 -0.00000000000E+00 -0.64116096373E+03  0.64116096373E+03  0.00000000000E+00 0. -1.
         35    2    1    2    0    0  0.00000000000E+00  0.00000000000E+00 -0.61159873704E+03  0.67072319042E+03  0.27534811244E+03 0.  0.
         25    1    3    3    0    0  0.27400484197E+01  0.52257067182E+02 -0.20199882494E+03  0.24071110114E+03  0.12000000000E+03 0.  0.
         25    1    3    3    0    0 -0.27400484197E+01 -0.52257067182E+02 -0.40959991209E+03  0.43001208927E+03  0.12000000000E+03 0.  0.
<mgrwt>
<rscale>  0 0.27534811E+03</rscale>
<asrwt>0</asrwt>
<pdfrwt beam="1">  1        3 0.98640151E-01 0.27534811E+03</pdfrwt>
<pdfrwt beam="2">  1       -3 0.45480347E-02 0.27534811E+03</pdfrwt>
<totfact> 0.62941625E+02</totfact>
</mgrwt>
</event>
<event>
 5    1  0.1108889E+001  0.2746162E+03  0.7818608E-02  0.1098666E+00
         -2   -1    0    0    0  501 -0.00000000000E+00  0.00000000000E+00  0.11200245283E+02  0.11200245283E+02  0.00000000000E+00 0.  1.
          2   -1    0    0  501    0  0.00000000000E+00 -0.00000000000E+00 -0.16833130570E+04  0.16833130570E+04  0.00000000000E+00 0.  1.
         35    2    1    2    0    0  0.00000000000E+00  0.00000000000E+00 -0.16721128117E+04  0.16945133022E+04  0.27461623496E+03 0.  0.
         25    1    3    3    0    0  0.53384077959E+02 -0.10246828935E+01 -0.10830766877E+04  0.10910114670E+04  0.12000000000E+03 0.  0.
         25    1    3    3    0    0 -0.53384077959E+02  0.10246828935E+01 -0.58903612399E+03  0.60350183522E+03  0.12000000000E+03 0.  0.
<mgrwt>
<rscale>  0 0.27461623E+03</rscale>
<asrwt>0</asrwt>
<pdfrwt beam="1">  1        2 0.25897096E+00 0.27461623E+03</pdfrwt>
<pdfrwt beam="2">  1       -2 0.17231165E-02 0.27461623E+03</pdfrwt>
<totfact> 0.10494541E+04</totfact>
</mgrwt>
</event>
<event>
 5    1  0.1108889E+001  0.2747380E+03  0.7818608E-02  0.1098598E+00
         -2   -1    0    0    0  501 -0.00000000000E+00  0.00000000000E+00  0.45772464014E+02  0.45772464014E+02  0.00000000000E+00 0.  1.
          2   -1    0    0  501    0  0.00000000000E+00 -0.00000000000E+00 -0.41226201488E+03  0.41226201488E+03  0.00000000000E+00 0.  1.
         35    2    1    2    0    0  0.00000000000E+00  0.00000000000E+00 -0.36648955086E+03  0.45803447889E+03  0.27473804426E+03 0.  0.
         25    1    3    3    0    0 -0.52363534843E+00  0.60485426319E+02 -0.13575280170E+03  0.19101723525E+03  0.12000000000E+03 0.  0.
         25    1    3    3    0    0  0.52363534843E+00 -0.60485426319E+02 -0.23073674916E+03  0.26701724364E+03  0.12000000000E+03 0.  0.
<mgrwt>
<rscale>  0 0.27473804E+03</rscale>
<asrwt>0</asrwt>
<pdfrwt beam="1">  1        2 0.63424926E-01 0.27473804E+03</pdfrwt>
<pdfrwt beam="2">  1       -2 0.70419175E-02 0.27473804E+03</pdfrwt>
<totfact> 0.88563586E+03</totfact>
</mgrwt>
</event>
<event>
 5    1  0.1108889E+001  0.2753769E+03  0.7818608E-02  0.1098241E+00
          2   -1    0    0  501    0  0.00000000000E+00  0.00000000000E+00  0.36832613171E+04  0.36832613171E+04  0.00000000000E+00 0. -1.
         -2   -1    0    0    0  501 -0.00000000000E+00 -0.00000000000E+00 -0.51470974184E+01  0.51470974184E+01  0.00000000000E+00 0. -1.
         35    2    1    2    0    0  0.00000000000E+00  0.00000000000E+00  0.36781142197E+04  0.36884084146E+04  0.27537686771E+03 0.  0.
         25    1    3    3    0    0  0.90707653230E+01  0.65365839936E+02  0.16481589278E+04  0.16538388141E+04  0.12000000000E+03 0.  0.
         25    1    3    3    0    0 -0.90707653230E+01 -0.65365839936E+02  0.20299552919E+04  0.20345696004E+04  0.12000000000E+03 0.  0.
<mgrwt>
<rscale>  0 0.27537687E+03</rscale>
<asrwt>0</asrwt>
<pdfrwt beam="1">  1        2 0.56665348E+00 0.27537687E+03</pdfrwt>
<pdfrwt beam="2">  1       -2 0.79186409E-03 0.27537687E+03</pdfrwt>
<totfact> 0.22779114E+03</totfact>
</mgrwt>
</event>
<event>
 5    1  0.1108889E+001  0.2746166E+03  0.7818608E-02  0.1098666E+00
          1   -1    0    0  501    0  0.00000000000E+00  0.00000000000E+00  0.41463664581E+03  0.41463664581E+03  0.00000000000E+00 0. -1.
         -1   -1    0    0    0  501 -0.00000000000E+00 -0.00000000000E+00 -0.45470096709E+02  0.45470096709E+02  0.00000000000E+00 0. -1.
         35    2    1    2    0    0  0.00000000000E+00  0.00000000000E+00  0.36916654910E+03  0.46010674252E+03  0.27461659370E+03 0.  0.
         25    1    3    3    0    0  0.21691024886E+02 -0.54440540466E+02  0.13109213514E+03  0.18713476668E+03  0.12000000000E+03 0.  0.
         25    1    3    3    0    0 -0.21691024886E+02  0.54440540466E+02  0.23807441396E+03  0.27297197583E+03  0.12000000000E+03 0.  0.
<mgrwt>
<rscale>  0 0.27461659E+03</rscale>
<asrwt>0</asrwt>
<pdfrwt beam="1">  1        1 0.63790251E-01 0.27461659E+03</pdfrwt>
<pdfrwt beam="2">  1       -1 0.69953997E-02 0.27461659E+03</pdfrwt>
<totfact> 0.60810536E+03</totfact>
</mgrwt>
</event>
<event>
 5    1  0.1108889E+001  0.2747127E+03  0.7818608E-02  0.1098612E+00
         -2   -1    0    0    0  501 -0.00000000000E+00  0.00000000000E+00  0.29613188571E+02  0.29613188571E+02  0.00000000000E+00 0.  1.
          2   -1    0    0  501    0  0.00000000000E+00 -0.00000000000E+00 -0.63710688723E+03  0.63710688723E+03  0.00000000000E+00 0.  1.
         35    2    1    2    0    0  0.00000000000E+00  0.00000000000E+00 -0.60749369866E+03  0.66672007580E+03  0.27471269641E+03 0.  0.
         25    1    3    3    0    0 -0.53441562098E+02  0.31407944538E+02 -0.24310619880E+03  0.27810624486E+03  0.12000000000E+03 0.  0.
         25    1    3    3    0    0  0.53441562098E+02 -0.31407944538E+02 -0.36438749986E+03  0.38861383094E+03  0.12000000000E+03 0.  0.
<mgrwt>
<rscale>  0 0.27471270E+03</rscale>
<asrwt>0</asrwt>
<pdfrwt beam="1">  1        2 0.98016440E-01 0.27471270E+03</pdfrwt>
<pdfrwt beam="2">  1       -2 0.45558753E-02 0.27471270E+03</pdfrwt>
<totfact> 0.10556045E+04</totfact>
</mgrwt>
</event>
<event>
 5    1  0.1108889E+001  0.2744656E+03  0.7818608E-02  0.1098751E+00
         -2   -1    0    0    0  501 -0.00000000000E+00  0.00000000000E+00  0.22748205846E+03  0.22748205846E+03  0.00000000000E+00 0.  1.
          2   -1    0    0  501    0  0.00000000000E+00 -0.00000000000E+00 -0.82788224203E+02  0.82788224203E+02  0.00000000000E+00 0.  1.
         35    2    1    2    0    0  0.00000000000E+00  0.00000000000E+00  0.14469383426E+03  0.31027028267E+03  0.27446555819E+03 0.  0.
         25    1    3    3    0    0  0.24073858993E+02 -0.54556141343E+02  0.10582267641E+03  0.17074648485E+03  0.12000000000E+03 0.  0.
         25    1    3    3    0    0 -0.24073858993E+02  0.54556141343E+02  0.38871157847E+02  0.13952379782E+03  0.12000000000E+03 0.  0.
<mgrwt>
<rscale>  0 0.27446556E+03</rscale>
<asrwt>0</asrwt>
<pdfrwt beam="1">  1        2 0.12736650E-01 0.27446556E+03</pdfrwt>
<pdfrwt beam="2">  1       -2 0.34997239E-01 0.27446556E+03</pdfrwt>
<totfact> 0.36305788E+03</totfact>
</mgrwt>
</event>
<event>
 5    1  0.1108889E+001  0.2785429E+03  0.7818608E-02  0.1096487E+00
         -2   -1    0    0    0  501 -0.00000000000E+00  0.00000000000E+00  0.15078249731E+02  0.15078249731E+02  0.00000000000E+00 0.  1.
          2   -1    0    0  501    0  0.00000000000E+00 -0.00000000000E+00 -0.12863921441E+04  0.12863921441E+04  0.00000000000E+00 0.  1.
         35    2    1    2    0    0  0.00000000000E+00  0.00000000000E+00 -0.12713138944E+04  0.13014703938E+04  0.27854293745E+03 0.  0.
         25    1    3    3    0    0 -0.48725472766E+02  0.36339231718E+02 -0.80424211788E+03  0.81541406392E+03  0.12000000000E+03 0.  0.
         25    1    3    3    0    0  0.48725472766E+02 -0.36339231718E+02 -0.46707177647E+03  0.48605632990E+03  0.12000000000E+03 0.  0.
<mgrwt>
<rscale>  0 0.27854294E+03</rscale>
<asrwt>0</asrwt>
<pdfrwt beam="1">  1        2 0.19790645E+00 0.27854294E+03</pdfrwt>
<pdfrwt beam="2">  1       -2 0.23197311E-02 0.27854294E+03</pdfrwt>
<totfact> 0.11082607E+04</totfact>
</mgrwt>
</event>
<event>
 5    1  0.1108889E+001  0.2695235E+03  0.7818608E-02  0.1101553E+00
         -1   -1    0    0    0  501 -0.00000000000E+00  0.00000000000E+00  0.34644266346E+03  0.34644266346E+03  0.00000000000E+00 0. -1.
          1   -1    0    0  501    0  0.00000000000E+00 -0.00000000000E+00 -0.52420598072E+02  0.52420598072E+02  0.00000000000E+00 0. -1.
         35    2    1    2    0    0  0.00000000000E+00  0.00000000000E+00  0.29402206539E+03  0.39886326153E+03  0.26952351746E+03 0.  0.
         25    1    3    3    0    0  0.44970815576E+02  0.21849116354E+02  0.19956195545E+03  0.23816954508E+03  0.12000000000E+03 0.  0.
         25    1    3    3    0    0 -0.44970815576E+02 -0.21849116354E+02  0.94460109940E+02  0.16069371646E+03  0.12000000000E+03 0.  0.
<mgrwt>
<rscale>  0 0.26952352E+03</rscale>
<asrwt>0</asrwt>
<pdfrwt beam="1">  1        1 0.80647076E-02 0.26952352E+03</pdfrwt>
<pdfrwt beam="2">  1       -1 0.53298870E-01 0.26952352E+03</pdfrwt>
<totfact> 0.31202593E+03</totfact>
</mgrwt>
</event>
<event>
 5    1  0.1108889E+001  0.2749989E+03  0.7818608E-02  0.1098452E+00
         -2   -1    0    0    0  501 -0.00000000000E+00  0.00000000000E+00  0.21922367022E+03  0.21922367022E+03  0.00000000000E+00 0.  1.
          2   -1    0    0  501    0  0.00000000000E+00 -0.00000000000E+00 -0.86241154277E+02  0.86241154277E+02  0.00000000000E+00 0.  1.
         35    2    1    2    0    0  0.00000000000E+00  0.00000000000E+00  0.13298251594E+03  0.30546482450E+03  0.27499892629E+03 0.  0.
         25    1    3    3    0    0  0.14931667302E+01 -0.61059930582E+02  0.35557173713E+02  0.13926542023E+03  0.12000000000E+03 0.  0.
         25    1    3    3    0    0 -0.14931667302E+01  0.61059930582E+02  0.97425342228E+02  0.16619940426E+03  0.12000000000E+03 0.  0.
<mgrwt>
<rscale>  0 0.27499893E+03</rscale>
<asrwt>0</asrwt>
<pdfrwt beam="1">  1        2 0.13267870E-01 0.27499893E+03</pdfrwt>
<pdfrwt beam="2">  1       -2 0.33726718E-01 0.27499893E+03</pdfrwt>
<totfact> 0.37020821E+03</totfact>
</mgrwt>
</event>
<event>
 5    1  0.1108889E+001  0.2753173E+03  0.7818608E-02  0.1098274E+00
          2   -1    0    0  501    0  0.00000000000E+00  0.00000000000E+00  0.21983636447E+04  0.21983636447E+04  0.00000000000E+00 0. -1.
         -2   -1    0    0    0  501 -0.00000000000E+00 -0.00000000000E+00 -0.86200011450E+01  0.86200011450E+01  0.00000000000E+00 0. -1.
         35    2    1    2    0    0  0.00000000000E+00  0.00000000000E+00  0.21897436435E+04  0.22069836458E+04  0.27531725071E+03 0.  0.
         25    1    3    3    0    0  0.40533437777E+02 -0.40190134648E+02  0.80677070216E+03  0.81764122472E+03  0.12000000000E+03 0.  0.
         25    1    3    3    0    0 -0.40533437777E+02  0.40190134648E+02  0.13829729414E+04  0.13893424211E+04  0.12000000000E+03 0.  0.
<mgrwt>
<rscale>  0 0.27531725E+03</rscale>
<asrwt>0</asrwt>
<pdfrwt beam="1">  1        2 0.33820934E+00 0.27531725E+03</pdfrwt>
<pdfrwt beam="2">  1       -2 0.13261558E-02 0.27531725E+03</pdfrwt>
<totfact> 0.82430833E+03</totfact>
</mgrwt>
</event>
<event>
 5    1  0.1108889E+001  0.2739659E+03  0.7818608E-02  0.1099031E+00
         -2   -1    0    0    0  501 -0.00000000000E+00  0.00000000000E+00  0.36578422873E+02  0.36578422873E+02  0.00000000000E+00 0.  1.
          2   -1    0    0  501    0  0.00000000000E+00 -0.00000000000E+00 -0.51298895741E+03  0.51298895741E+03  0.00000000000E+00 0.  1.
         35    2    1    2    0    0  0.00000000000E+00  0.00000000000E+00 -0.47641053453E+03  0.54956738028E+03  0.27396588848E+03 0.  0.
         25    1    3    3    0    0  0.52725516443E+02  0.20093741115E+02 -0.16928075070E+03  0.21503420908E+03  0.12000000000E+03 0.  0.
         25    1    3    3    0    0 -0.52725516443E+02 -0.20093741115E+02 -0.30712978384E+03  0.33453317120E+03  0.12000000000E+03 0.  0.
<mgrwt>
<rscale>  0 0.27396589E+03</rscale>
<asrwt>0</asrwt>
<pdfrwt beam="1">  1        2 0.78921380E-01 0.27396589E+03</pdfrwt>
<pdfrwt beam="2">  1       -2 0.56274496E-02 0.27396589E+03</pdfrwt>
<totfact> 0.98202106E+03</totfact>
</mgrwt>
</event>
<event>
 5    1  0.1108889E+001  0.2743110E+03  0.7818608E-02  0.1098837E+00
         -1   -1    0    0    0  501 -0.00000000000E+00  0.00000000000E+00  0.23941872764E+03  0.23941872764E+03  0.00000000000E+00 0.  1.
          1   -1    0    0  501    0  0.00000000000E+00 -0.00000000000E+00 -0.78572094663E+02  0.78572094663E+02  0.00000000000E+00 0.  1.
         35    2    1    2    0    0  0.00000000000E+00  0.00000000000E+00  0.16084663298E+03  0.31799082231E+03  0.27431099819E+03 0.  0.
         25    1    3    3    0    0  0.64024891640E+02 -0.92836386923E+00  0.10088577308E+03  0.16934576410E+03  0.12000000000E+03 0.  0.
         25    1    3    3    0    0 -0.64024891640E+02  0.92836386923E+00  0.59960859903E+02  0.14864505821E+03  0.12000000000E+03 0.  0.
<mgrwt>
<rscale>  0 0.27431100E+03</rscale>
<asrwt>0</asrwt>
<pdfrwt beam="1">  1        1 0.12088015E-01 0.27431100E+03</pdfrwt>
<pdfrwt beam="2">  1       -1 0.36833650E-01 0.27431100E+03</pdfrwt>
<totfact> 0.35343304E+03</totfact>
</mgrwt>
</event>
<event>
 5    1  0.1108889E+001  0.2737568E+03  0.7818608E-02  0.1099149E+00
          2   -1    0    0  501    0  0.00000000000E+00  0.00000000000E+00  0.27580265154E+04  0.27580265154E+04  0.00000000000E+00 0. -1.
         -2   -1    0    0    0  501 -0.00000000000E+00 -0.00000000000E+00 -0.67931528254E+01  0.67931528254E+01  0.00000000000E+00 0. -1.
         35    2    1    2    0    0  0.00000000000E+00  0.00000000000E+00  0.27512333626E+04  0.27648196683E+04  0.27375679437E+03 0.  0.
         25    1    3    3    0    0 -0.33646105174E+02 -0.31731352524E+02  0.18489781051E+04  0.18534451630E+04  0.12000000000E+03 0.  0.
         25    1    3    3    0    0  0.33646105174E+02  0.31731352524E+02  0.90225525751E+03  0.91137450526E+03  0.12000000000E+03 0.  0.
<mgrwt>
<rscale>  0 0.27375679E+03</rscale>
<asrwt>0</asrwt>
<pdfrwt beam="1">  1        2 0.42431088E+00 0.27375679E+03</pdfrwt>
<pdfrwt beam="2">  1       -2 0.10451026E-02 0.27375679E+03</pdfrwt>
<totfact> 0.57570669E+03</totfact>
</mgrwt>
</event>
<event>
 5    1  0.1108889E+001  0.2750327E+03  0.7818608E-02  0.1098433E+00
          1   -1    0    0  501    0  0.00000000000E+00  0.00000000000E+00  0.26101443183E+03  0.26101443183E+03  0.00000000000E+00 0.  1.
         -1   -1    0    0    0  501 -0.00000000000E+00 -0.00000000000E+00 -0.72450986810E+02  0.72450986810E+02  0.00000000000E+00 0.  1.
         35    2    1    2    0    0  0.00000000000E+00  0.00000000000E+00  0.18856344502E+03  0.33346541864E+03  0.27503274829E+03 0.  0.
         25    1    3    3    0    0 -0.57180140992E+02 -0.31964738759E+02  0.76320975292E+02  0.15657651266E+03  0.12000000000E+03 0.  0.
         25    1    3    3    0    0  0.57180140992E+02  0.31964738759E+02  0.11224246973E+03  0.17688890598E+03  0.12000000000E+03 0.  0.
<mgrwt>
<rscale>  0 0.27503275E+03</rscale>
<asrwt>0</asrwt>
<pdfrwt beam="1">  1        1 0.40156066E-01 0.27503275E+03</pdfrwt>
<pdfrwt beam="2">  1       -1 0.11146306E-01 0.27503275E+03</pdfrwt>
<totfact> 0.53423206E+03</totfact>
</mgrwt>
</event>
<event>
 5    1  0.1108889E+001  0.2757892E+03  0.7818608E-02  0.1098011E+00
         -2   -1    0    0    0  501 -0.00000000000E+00  0.00000000000E+00  0.84541563245E+03  0.84541563245E+03  0.00000000000E+00 0.  1.
          2   -1    0    0  501    0  0.00000000000E+00 -0.00000000000E+00 -0.22491809150E+02  0.22491809150E+02  0.00000000000E+00 0.  1.
         35    2    1    2    0    0  0.00000000000E+00  0.00000000000E+00  0.82292382330E+03  0.86790744160E+03  0.27578924603E+03 0.  0.
         25    1    3    3    0    0 -0.12574354359E+02 -0.34578278105E+02  0.23174794563E+03  0.26355432458E+03  0.12000000000E+03 0.  0.
         25    1    3    3    0    0  0.12574354359E+02  0.34578278105E+02  0.59117587767E+03  0.60435311701E+03  0.12000000000E+03 0.  0.
<mgrwt>
<rscale>  0 0.27578925E+03</rscale>
<asrwt>0</asrwt>
<pdfrwt beam="1">  1        2 0.34602790E-02 0.27578925E+03</pdfrwt>
<pdfrwt beam="2">  1       -2 0.13006392E+00 0.27578925E+03</pdfrwt>
<totfact> 0.11745797E+03</totfact>
</mgrwt>
</event>
<event>
 5    1  0.1108889E+001  0.2747509E+03  0.7818608E-02  0.1098591E+00
         -1   -1    0    0    0  501 -0.00000000000E+00  0.00000000000E+00  0.19498311463E+03  0.19498311463E+03  0.00000000000E+00 0.  1.
          1   -1    0    0  501    0  0.00000000000E+00 -0.00000000000E+00 -0.96787934104E+02  0.96787934104E+02  0.00000000000E+00 0.  1.
         35    2    1    2    0    0  0.00000000000E+00  0.00000000000E+00  0.98195180530E+02  0.29177104874E+03  0.27475088972E+03 0.  0.
         25    1    3    3    0    0 -0.33032567799E+02 -0.11702118067E+01 -0.12637041126E+02  0.12510881160E+03  0.12000000000E+03 0.  0.
         25    1    3    3    0    0  0.33032567799E+02  0.11702118067E+01  0.11083222166E+03  0.16666223714E+03  0.12000000000E+03 0.  0.
<mgrwt>
<rscale>  0 0.27475089E+03</rscale>
<asrwt>0</asrwt>
<pdfrwt beam="1">  1        1 0.14890451E-01 0.27475089E+03</pdfrwt>
<pdfrwt beam="2">  1       -1 0.29997402E-01 0.27475089E+03</pdfrwt>
<totfact> 0.38240575E+03</totfact>
</mgrwt>
</event>
<event>
 5    1  0.1108889E+001  0.2747081E+03  0.7818608E-02  0.1098615E+00
         -2   -1    0    0    0  501 -0.00000000000E+00  0.00000000000E+00  0.36998704833E+02  0.36998704833E+02  0.00000000000E+00 0.  1.
          2   -1    0    0  501    0  0.00000000000E+00 -0.00000000000E+00 -0.50991344958E+03  0.50991344958E+03  0.00000000000E+00 0.  1.
         35    2    1    2    0    0  0.00000000000E+00  0.00000000000E+00 -0.47291474475E+03  0.54691215441E+03  0.27470811572E+03 0.  0.
         25    1    3    3    0    0 -0.65725138031E+02  0.35367921477E+01 -0.21342544959E+03  0.25354038179E+03  0.12000000000E+03 0.  0.
         25    1    3    3    0    0  0.65725138031E+02 -0.35367921477E+01 -0.25948929516E+03  0.29337177262E+03  0.12000000000E+03 0.  0.
<mgrwt>
<rscale>  0 0.27470812E+03</rscale>
<asrwt>0</asrwt>
<pdfrwt beam="1">  1        2 0.78448216E-01 0.27470812E+03</pdfrwt>
<pdfrwt beam="2">  1       -2 0.56921089E-02 0.27470812E+03</pdfrwt>
<totfact> 0.97165578E+03</totfact>
</mgrwt>
</event>
<event>
 5    1  0.1108889E+001  0.2754729E+03  0.7818608E-02  0.1098188E+00
         -1   -1    0    0    0  501 -0.00000000000E+00  0.00000000000E+00  0.11930003969E+03  0.11930003969E+03  0.00000000000E+00 0.  1.
          1   -1    0    0  501    0  0.00000000000E+00 -0.00000000000E+00 -0.15902202654E+03  0.15902202654E+03  0.00000000000E+00 0.  1.
         35    2    1    2    0    0  0.00000000000E+00  0.00000000000E+00 -0.39721986848E+02  0.27832206623E+03  0.27547293208E+03 0.  0.
         25    1    3    3    0    0  0.23143858768E+02 -0.56084811721E+02  0.10283640119E+02  0.13485880601E+03  0.12000000000E+03 0.  0.
         25    1    3    3    0    0 -0.23143858768E+02  0.56084811721E+02 -0.50005626967E+02  0.14346326022E+03  0.12000000000E+03 0.  0.
<mgrwt>
<rscale>  0 0.27547293E+03</rscale>
<asrwt>0</asrwt>
<pdfrwt beam="1">  1        1 0.24464927E-01 0.27547293E+03</pdfrwt>
<pdfrwt beam="2">  1       -1 0.18353852E-01 0.27547293E+03</pdfrwt>
<totfact> 0.45352869E+03</totfact>
</mgrwt>
</event>
<event>
 5    1  0.1108889E+001  0.2733267E+03  0.7818608E-02  0.1099391E+00
          1   -1    0    0  501    0  0.00000000000E+00  0.00000000000E+00  0.16264875028E+02  0.16264875028E+02  0.00000000000E+00 0. -1.
         -1   -1    0    0    0  501 -0.00000000000E+00 -0.00000000000E+00 -0.11482951886E+04  0.11482951886E+04  0.00000000000E+00 0. -1.
         35    2    1    2    0    0  0.00000000000E+00  0.00000000000E+00 -0.11320303136E+04  0.11645600637E+04  0.27332674760E+03 0.  0.
         25    1    3    3    0    0  0.18244328796E+02 -0.62549863810E+02 -0.54208816105E+03  0.55902139078E+03  0.12000000000E+03 0.  0.
         25    1    3    3    0    0 -0.18244328796E+02  0.62549863810E+02 -0.58994215255E+03  0.60553867288E+03  0.12000000000E+03 0.  0.
<mgrwt>
<rscale>  0 0.27332675E+03</rscale>
<asrwt>0</asrwt>
<pdfrwt beam="1">  1        1 0.25022877E-02 0.27332675E+03</pdfrwt>
<pdfrwt beam="2">  1       -1 0.17666085E+00 0.27332675E+03</pdfrwt>
<totfact> 0.10627467E+03</totfact>
</mgrwt>
</event>
<event>
 5    1  0.1108889E+001  0.2738902E+03  0.7818608E-02  0.1099074E+00
          1   -1    0    0  501    0  0.00000000000E+00  0.00000000000E+00  0.36539796648E+03  0.36539796648E+03  0.00000000000E+00 0. -1.
         -1   -1    0    0    0  501 -0.00000000000E+00 -0.00000000000E+00 -0.51324738009E+02  0.51324738009E+02  0.00000000000E+00 0. -1.
         35    2    1    2    0    0  0.00000000000E+00  0.00000000000E+00  0.31407322847E+03  0.41672270449E+03  0.27389015972E+03 0.  0.
         25    1    3    3    0    0 -0.14241170327E+02 -0.11707199752E+02  0.60639498481E+02  0.13570931521E+03  0.12000000000E+03 0.  0.
         25    1    3    3    0    0  0.14241170327E+02  0.11707199752E+02  0.25343372999E+03  0.28101338928E+03  0.12000000000E+03 0.  0.
<mgrwt>
<rscale>  0 0.27389016E+03</rscale>
<asrwt>0</asrwt>
<pdfrwt beam="1">  1        1 0.56215070E-01 0.27389016E+03</pdfrwt>
<pdfrwt beam="2">  1       -1 0.78961138E-02 0.27389016E+03</pdfrwt>
<totfact> 0.59444738E+03</totfact>
</mgrwt>
</event>
<event>
 5    1  0.1108889E+001  0.2746078E+03  0.7818608E-02  0.1098671E+00
         -1   -1    0    0    0  501 -0.00000000000E+00  0.00000000000E+00  0.10543599377E+02  0.10543599377E+02  0.00000000000E+00 0. -1.
          1   -1    0    0  501    0  0.00000000000E+00 -0.00000000000E+00 -0.17880379681E+04  0.17880379681E+04  0.00000000000E+00 0. -1.
         35    2    1    2    0    0  0.00000000000E+00  0.00000000000E+00 -0.17774943687E+04  0.17985815675E+04  0.27460776397E+03 0.  0.
         25    1    3    3    0    0  0.33900442503E+02 -0.50802992106E+02 -0.10647573084E+04  0.10732373036E+04  0.12000000000E+03 0.  0.
         25    1    3    3    0    0 -0.33900442503E+02  0.50802992106E+02 -0.71273706032E+03  0.72534426389E+03  0.12000000000E+03 0.  0.
<mgrwt>
<rscale>  0 0.27460776E+03</rscale>
<asrwt>0</asrwt>
<pdfrwt beam="1">  1        1 0.27508266E+00 0.27460776E+03</pdfrwt>
<pdfrwt beam="2">  1       -1 0.16220929E-02 0.27460776E+03</pdfrwt>
<totfact> 0.43138112E+03</totfact>
</mgrwt>
</event>
<event>
 5    1  0.1108889E+001  0.2754846E+03  0.7818608E-02  0.1098181E+00
          2   -1    0    0  501    0  0.00000000000E+00  0.00000000000E+00  0.56896227295E+03  0.56896227295E+03  0.00000000000E+00 0.  1.
         -2   -1    0    0    0  501 -0.00000000000E+00 -0.00000000000E+00 -0.33346578648E+02  0.33346578648E+02  0.00000000000E+00 0.  1.
         35    2    1    2    0    0  0.00000000000E+00  0.00000000000E+00  0.53561569430E+03  0.60230885159E+03  0.27548462885E+03 0.  0.
         25    1    3    3    0    0 -0.57978919134E+02  0.16231521753E+02  0.33512248423E+03  0.36101536920E+03  0.12000000000E+03 0.  0.
         25    1    3    3    0    0  0.57978919134E+02 -0.16231521753E+02  0.20049321007E+03  0.24129348239E+03  0.12000000000E+03 0.  0.
<mgrwt>
<rscale>  0 0.27548463E+03</rscale>
<asrwt>0</asrwt>
<pdfrwt beam="1">  1        2 0.87532650E-01 0.27548463E+03</pdfrwt>
<pdfrwt beam="2">  1       -2 0.51302433E-02 0.27548463E+03</pdfrwt>
<totfact> 0.10056332E+04</totfact>
</mgrwt>
</event>
<event>
 5    1  0.1108889E+001  0.2769661E+03  0.7818608E-02  0.1097358E+00
          1   -1    0    0  501    0  0.00000000000E+00  0.00000000000E+00  0.45948402638E+03  0.45948402638E+03  0.00000000000E+00 0. -1.
         -1   -1    0    0    0  501 -0.00000000000E+00 -0.00000000000E+00 -0.41737167387E+02  0.41737167387E+02  0.00000000000E+00 0. -1.
         35    2    1    2    0    0  0.00000000000E+00  0.00000000000E+00  0.41774685899E+03  0.50122119376E+03  0.27696614754E+03 0.  0.
         25    1    3    3    0    0 -0.53872929660E+02 -0.42281630507E+02  0.19194220472E+03  0.23649913061E+03  0.12000000000E+03 0.  0.
         25    1    3    3    0    0  0.53872929660E+02  0.42281630507E+02  0.22580465427E+03  0.26472206315E+03  0.12000000000E+03 0.  0.
<mgrwt>
<rscale>  0 0.27696615E+03</rscale>
<asrwt>0</asrwt>
<pdfrwt beam="1">  1        1 0.70689847E-01 0.27696615E+03</pdfrwt>
<pdfrwt beam="2">  1       -1 0.64211030E-02 0.27696615E+03</pdfrwt>
<totfact> 0.60615269E+03</totfact>
</mgrwt>
</event>
<event>
 5    1  0.1108889E+001  0.2750605E+03  0.7818608E-02  0.1098418E+00
          2   -1    0    0  501    0  0.00000000000E+00  0.00000000000E+00  0.90354666098E+03  0.90354666098E+03  0.00000000000E+00 0. -1.
         -2   -1    0    0    0  501 -0.00000000000E+00 -0.00000000000E+00 -0.20933700273E+02  0.20933700273E+02  0.00000000000E+00 0. -1.
         35    2    1    2    0    0  0.00000000000E+00  0.00000000000E+00  0.88261296071E+03  0.92448036126E+03  0.27506053867E+03 0.  0.
         25    1    3    3    0    0 -0.41387574617E+02 -0.52924640832E+02  0.43864715313E+03  0.45970128767E+03  0.12000000000E+03 0.  0.
         25    1    3    3    0    0  0.41387574617E+02  0.52924640832E+02  0.44396580758E+03  0.46477907358E+03  0.12000000000E+03 0.  0.
<mgrwt>
<rscale>  0 0.27506054E+03</rscale>
<asrwt>0</asrwt>
<pdfrwt beam="1">  1        2 0.13900715E+00 0.27506054E+03</pdfrwt>
<pdfrwt beam="2">  1       -2 0.32205700E-02 0.27506054E+03</pdfrwt>
<totfact> 0.11476346E+04</totfact>
</mgrwt>
</event>
<event>
 5    1  0.1108889E+001  0.2753795E+03  0.7818608E-02  0.1098240E+00
         -2   -1    0    0    0  501 -0.00000000000E+00  0.00000000000E+00  0.52325548679E+02  0.52325548679E+02  0.00000000000E+00 0.  1.
          2   -1    0    0  501    0  0.00000000000E+00 -0.00000000000E+00 -0.36231755395E+03  0.36231755395E+03  0.00000000000E+00 0.  1.
         35    2    1    2    0    0  0.00000000000E+00  0.00000000000E+00 -0.30999200527E+03  0.41464310263E+03  0.27537948222E+03 0.  0.
         25    1    3    3    0    0 -0.58175860637E+02  0.33215739933E+02 -0.14233109594E+03  0.19785311980E+03  0.12000000000E+03 0.  0.
         25    1    3    3    0    0  0.58175860637E+02 -0.33215739933E+02 -0.16766090932E+03  0.21678998283E+03  0.12000000000E+03 0.  0.
<mgrwt>
<rscale>  0 0.27537948E+03</rscale>
<asrwt>0</asrwt>
<pdfrwt beam="1">  1        2 0.55741161E-01 0.27537948E+03</pdfrwt>
<pdfrwt beam="2">  1       -2 0.80500845E-02 0.27537948E+03</pdfrwt>
<totfact> 0.82738355E+03</totfact>
</mgrwt>
</event>
<event>
 5    1  0.1108889E+001  0.2747541E+03  0.7818608E-02  0.1098589E+00
          2   -1    0    0  501    0  0.00000000000E+00  0.00000000000E+00  0.19929594774E+04  0.19929594774E+04  0.00000000000E+00 0.  1.
         -2   -1    0    0    0  501 -0.00000000000E+00 -0.00000000000E+00 -0.94695596201E+01  0.94695596201E+01  0.00000000000E+00 0.  1.
         35    2    1    2    0    0  0.00000000000E+00  0.00000000000E+00  0.19834899178E+04  0.20024290370E+04  0.27475406160E+03 0.  0.
         25    1    3    3    0    0  0.25661434729E+02 -0.12074930291E+02  0.14331483784E+04  0.14384431124E+04  0.12000000000E+03 0.  0.
         25    1    3    3    0    0 -0.25661434729E+02  0.12074930291E+02  0.55034153939E+03  0.56398592460E+03  0.12000000000E+03 0.  0.
<mgrwt>
<rscale>  0 0.27475406E+03</rscale>
<asrwt>0</asrwt>
<pdfrwt beam="1">  1        2 0.30660882E+00 0.27475406E+03</pdfrwt>
<pdfrwt beam="2">  1       -2 0.14568569E-02 0.27475406E+03</pdfrwt>
<totfact> 0.92261972E+03</totfact>
</mgrwt>
</event>
<event>
 5    1  0.1108889E+001  0.2734343E+03  0.7818608E-02  0.1099330E+00
         -1   -1    0    0    0  501 -0.00000000000E+00  0.00000000000E+00  0.43627486223E+02  0.43627486223E+02  0.00000000000E+00 0.  1.
          1   -1    0    0  501    0  0.00000000000E+00 -0.00000000000E+00 -0.42843575014E+03  0.42843575014E+03  0.00000000000E+00 0.  1.
         35    2    1    2    0    0  0.00000000000E+00  0.00000000000E+00 -0.38480826392E+03  0.47206323637E+03  0.27343426842E+03 0.  0.
         25    1    3    3    0    0 -0.47513641878E+02  0.13252464679E+02 -0.11797945991E+03  0.17536341393E+03  0.12000000000E+03 0.  0.
         25    1    3    3    0    0  0.47513641878E+02 -0.13252464679E+02 -0.26682880401E+03  0.29669982243E+03  0.12000000000E+03 0.  0.
<mgrwt>
<rscale>  0 0.27343427E+03</rscale>
<asrwt>0</asrwt>
<pdfrwt beam="1">  1        1 0.65913191E-01 0.27343427E+03</pdfrwt>
<pdfrwt beam="2">  1       -1 0.67119211E-02 0.27343427E+03</pdfrwt>
<totfact> 0.62059721E+03</totfact>
</mgrwt>
</event>
<event>
 5    1  0.1108889E+001  0.2752778E+03  0.7818608E-02  0.1098296E+00
          1   -1    0    0  501    0  0.00000000000E+00  0.00000000000E+00  0.30253412018E+02  0.30253412018E+02  0.00000000000E+00 0. -1.
         -1   -1    0    0    0  501 -0.00000000000E+00 -0.00000000000E+00 -0.62619293209E+03  0.62619293209E+03  0.00000000000E+00 0. -1.
         35    2    1    2    0    0  0.00000000000E+00  0.00000000000E+00 -0.59593952007E+03  0.65644634411E+03  0.27527784348E+03 0.  0.
         25    1    3    3    0    0  0.31486112921E+02  0.46024999702E+02 -0.20764159512E+03  0.24622085193E+03  0.12000000000E+03 0.  0.
         25    1    3    3    0    0 -0.31486112921E+02 -0.46024999702E+02 -0.38829792496E+03  0.41022549217E+03  0.12000000000E+03 0.  0.
<mgrwt>
<rscale>  0 0.27527784E+03</rscale>
<asrwt>0</asrwt>
<pdfrwt beam="1">  1        1 0.46543710E-02 0.27527784E+03</pdfrwt>
<pdfrwt beam="2">  1       -1 0.96337376E-01 0.27527784E+03</pdfrwt>
<totfact> 0.20120708E+03</totfact>
</mgrwt>
</event>
<event>
 5    1  0.1108889E+001  0.2749729E+03  0.7818608E-02  0.1098467E+00
         -1   -1    0    0    0  501 -0.00000000000E+00  0.00000000000E+00  0.88714361251E+01  0.88714361251E+01  0.00000000000E+00 0.  1.
          1   -1    0    0  501    0  0.00000000000E+00 -0.00000000000E+00 -0.21307176863E+04  0.21307176863E+04  0.00000000000E+00 0.  1.
         35    2    1    2    0    0  0.00000000000E+00  0.00000000000E+00 -0.21218462501E+04  0.21395891224E+04  0.27497291397E+03 0.  0.
         25    1    3    3    0    0 -0.57425360703E+02 -0.27408554517E+02 -0.12266484686E+04  0.12341456018E+04  0.12000000000E+03 0.  0.
         25    1    3    3    0    0  0.57425360703E+02  0.27408554517E+02 -0.89519778153E+03  0.90544352059E+03  0.12000000000E+03 0.  0.
<mgrwt>
<rscale>  0 0.27497291E+03</rscale>
<asrwt>0</asrwt>
<pdfrwt beam="1">  1        1 0.32780267E+00 0.27497291E+03</pdfrwt>
<pdfrwt beam="2">  1       -1 0.13648366E-02 0.27497291E+03</pdfrwt>
<totfact> 0.33218349E+03</totfact>
</mgrwt>
</event>
<event>
 5    1  0.1108889E+001  0.2757768E+03  0.7818608E-02  0.1098018E+00
         -2   -1    0    0    0  501 -0.00000000000E+00  0.00000000000E+00  0.90783106691E+02  0.90783106691E+02  0.00000000000E+00 0. -1.
          2   -1    0    0  501    0  0.00000000000E+00 -0.00000000000E+00 -0.20943563246E+03  0.20943563246E+03  0.00000000000E+00 0. -1.
         35    2    1    2    0    0  0.00000000000E+00  0.00000000000E+00 -0.11865252577E+03  0.30021873915E+03  0.27577684722E+03 0.  0.
         25    1    3    3    0    0 -0.66110106980E+02 -0.15444136562E+02 -0.57108618729E+02  0.14923291169E+03  0.12000000000E+03 0.  0.
         25    1    3    3    0    0  0.66110106980E+02  0.15444136562E+02 -0.61543907037E+02  0.15098582746E+03  0.12000000000E+03 0.  0.
<mgrwt>
<rscale>  0 0.27577685E+03</rscale>
<asrwt>0</asrwt>
<pdfrwt beam="1">  1        2 0.32220866E-01 0.27577685E+03</pdfrwt>
<pdfrwt beam="2">  1       -2 0.13966632E-01 0.27577685E+03</pdfrwt>
<totfact> 0.61984374E+03</totfact>
</mgrwt>
</event>
<event>
 5    1  0.1108889E+001  0.2745001E+03  0.7818608E-02  0.1098731E+00
         -1   -1    0    0    0  501 -0.00000000000E+00  0.00000000000E+00  0.14754254695E+02  0.14754254695E+02  0.00000000000E+00 0. -1.
          1   -1    0    0  501    0  0.00000000000E+00 -0.00000000000E+00 -0.12767553942E+04  0.12767553942E+04  0.00000000000E+00 0. -1.
         35    2    1    2    0    0  0.00000000000E+00  0.00000000000E+00 -0.12620011395E+04  0.12915096489E+04  0.27450008575E+03 0.  0.
         25    1    3    3    0    0 -0.25662242153E+02  0.52494206906E+02 -0.78151357364E+03  0.79282889592E+03  0.12000000000E+03 0.  0.
         25    1    3    3    0    0  0.25662242153E+02 -0.52494206906E+02 -0.48048756589E+03  0.49868075299E+03  0.12000000000E+03 0.  0.
<mgrwt>
<rscale>  0 0.27450009E+03</rscale>
<asrwt>0</asrwt>
<pdfrwt beam="1">  1        1 0.19642392E+00 0.27450009E+03</pdfrwt>
<pdfrwt beam="2">  1       -1 0.22698852E-02 0.27450009E+03</pdfrwt>
<totfact> 0.57641741E+03</totfact>
</mgrwt>
</event>
<event>
 5    1  0.1108889E+001  0.2755056E+03  0.7818608E-02  0.1098169E+00
          1   -1    0    0  501    0  0.00000000000E+00  0.00000000000E+00  0.28480119392E+03  0.28480119392E+03  0.00000000000E+00 0. -1.
         -1   -1    0    0    0  501 -0.00000000000E+00 -0.00000000000E+00 -0.66628353496E+02  0.66628353496E+02  0.00000000000E+00 0. -1.
         35    2    1    2    0    0  0.00000000000E+00  0.00000000000E+00  0.21817284042E+03  0.35142954741E+03  0.27550560520E+03 0.  0.
         25    1    3    3    0    0 -0.32078032999E+02  0.26630509670E+01  0.18497801415E+03  0.22282943648E+03  0.12000000000E+03 0.  0.
         25    1    3    3    0    0  0.32078032999E+02 -0.26630509670E+01  0.33194826270E+02  0.12860011094E+03  0.12000000000E+03 0.  0.
<mgrwt>
<rscale>  0 0.27550561E+03</rscale>
<asrwt>0</asrwt>
<pdfrwt beam="1">  1        1 0.43815567E-01 0.27550561E+03</pdfrwt>
<pdfrwt beam="2">  1       -1 0.10250516E-01 0.27550561E+03</pdfrwt>
<totfact> 0.54534147E+03</totfact>
</mgrwt>
</event>
<event>
 5    1  0.1108889E+001  0.2759572E+03  0.7818608E-02  0.1097918E+00
         -3   -1    0    0    0  501 -0.00000000000E+00  0.00000000000E+00  0.53577980348E+03  0.53577980348E+03  0.00000000000E+00 0. -1.
          3   -1    0    0  501    0  0.00000000000E+00 -0.00000000000E+00 -0.35533432533E+02  0.35533432533E+02  0.00000000000E+00 0. -1.
         35    2    1    2    0    0  0.00000000000E+00  0.00000000000E+00  0.50024637094E+03  0.57131323601E+03  0.27595721045E+03 0.  0.
         25    1    3    3    0    0 -0.78187536625E+00  0.44659032004E+02  0.14368789679E+03  0.19246104061E+03  0.12000000000E+03 0.  0.
         25    1    3    3    0    0  0.78187536625E+00 -0.44659032004E+02  0.35655847416E+03  0.37885219540E+03  0.12000000000E+03 0.  0.
<mgrwt>
<rscale>  0 0.27595721E+03</rscale>
<asrwt>0</asrwt>
<pdfrwt beam="1">  1        3 0.54666823E-02 0.27595721E+03</pdfrwt>
<pdfrwt beam="2">  1       -3 0.82427656E-01 0.27595721E+03</pdfrwt>
<totfact> 0.70109836E+02</totfact>
</mgrwt>
</event>
<event>
 5    1  0.1108889E+001  0.2739855E+03  0.7818608E-02  0.1099020E+00
         -2   -1    0    0    0  501 -0.00000000000E+00  0.00000000000E+00  0.25802559381E+02  0.25802559381E+02  0.00000000000E+00 0.  1.
          2   -1    0    0  501    0  0.00000000000E+00 -0.00000000000E+00 -0.72733148772E+03  0.72733148772E+03  0.00000000000E+00 0.  1.
         35    2    1    2    0    0  0.00000000000E+00  0.00000000000E+00 -0.70152892834E+03  0.75313404710E+03  0.27398550255E+03 0.  0.
         25    1    3    3    0    0 -0.49219455757E+02  0.32737202979E+02 -0.26955889789E+03  0.30092570298E+03  0.12000000000E+03 0.  0.
         25    1    3    3    0    0  0.49219455757E+02 -0.32737202979E+02 -0.43197003045E+03  0.45220834412E+03  0.12000000000E+03 0.  0.
<mgrwt>
<rscale>  0 0.27398550E+03</rscale>
<asrwt>0</asrwt>
<pdfrwt beam="1">  1        2 0.11189714E+00 0.27398550E+03</pdfrwt>
<pdfrwt beam="2">  1       -2 0.39696250E-02 0.27398550E+03</pdfrwt>
<totfact> 0.11078089E+04</totfact>
</mgrwt>
</event>
<event>
 5    1  0.1108889E+001  0.2757468E+03  0.7818608E-02  0.1098035E+00
          4   -1    0    0  501    0  0.00000000000E+00  0.00000000000E+00  0.11891274560E+03  0.11891274560E+03  0.00000000000E+00 0.  1.
         -4   -1    0    0    0  501 -0.00000000000E+00 -0.00000000000E+00 -0.15985729067E+03  0.15985729067E+03  0.00000000000E+00 0.  1.
         35    2    1    2    0    0  0.00000000000E+00  0.00000000000E+00 -0.40944545067E+02  0.27877003627E+03  0.27574676308E+03 0.  0.
         25    1    3    3    0    0  0.47319644254E+01  0.67719717223E+02 -0.21328762194E+02  0.13951081566E+03  0.12000000000E+03 0.  0.
         25    1    3    3    0    0 -0.47319644254E+01 -0.67719717223E+02 -0.19615782873E+02  0.13925922061E+03  0.12000000000E+03 0.  0.
<mgrwt>
<rscale>  0 0.27574676E+03</rscale>
<asrwt>0</asrwt>
<pdfrwt beam="1">  1        4 0.18294269E-01 0.27574676E+03</pdfrwt>
<pdfrwt beam="2">  1       -4 0.24593429E-01 0.27574676E+03</pdfrwt>
<totfact> 0.76774310E+02</totfact>
</mgrwt>
</event>
<event>
 5    1  0.1108889E+001  0.2759169E+03  0.7818608E-02  0.1097940E+00
         -1   -1    0    0    0  501 -0.00000000000E+00  0.00000000000E+00  0.23582066017E+03  0.23582066017E+03  0.00000000000E+00 0.  1.
          1   -1    0    0  501    0  0.00000000000E+00 -0.00000000000E+00 -0.80707638708E+02  0.80707638708E+02  0.00000000000E+00 0.  1.
         35    2    1    2    0    0  0.00000000000E+00  0.00000000000E+00  0.15511302146E+03  0.31652829888E+03  0.27591686169E+03 0.  0.
         25    1    3    3    0    0 -0.23498752782E+02 -0.49113578874E+02  0.30701339304E+02  0.13530302010E+03  0.12000000000E+03 0.  0.
         25    1    3    3    0    0  0.23498752782E+02  0.49113578874E+02  0.12441168216E+03  0.18122527878E+03  0.12000000000E+03 0.  0.
<mgrwt>
<rscale>  0 0.27591686E+03</rscale>
<asrwt>0</asrwt>
<pdfrwt beam="1">  1        1 0.12416560E-01 0.27591686E+03</pdfrwt>
<pdfrwt beam="2">  1       -1 0.36280101E-01 0.27591686E+03</pdfrwt>
<totfact> 0.35027486E+03</totfact>
</mgrwt>
</event>
<event>
 5    1  0.1108889E+001  0.2746140E+03  0.7818608E-02  0.1098668E+00
         -2   -1    0    0    0  501 -0.00000000000E+00  0.00000000000E+00  0.22941503452E+02  0.22941503452E+02  0.00000000000E+00 0. -1.
          2   -1    0    0  501    0  0.00000000000E+00 -0.00000000000E+00 -0.82179504264E+03  0.82179504264E+03  0.00000000000E+00 0. -1.
         35    2    1    2    0    0  0.00000000000E+00  0.00000000000E+00 -0.79885353919E+03  0.84473654609E+03  0.27461401135E+03 0.  0.
         25    1    3    3    0    0 -0.40849062645E+02  0.34641660408E+02 -0.27697983986E+03  0.30657221375E+03  0.12000000000E+03 0.  0.
         25    1    3    3    0    0  0.40849062645E+02 -0.34641660408E+02 -0.52187369933E+03  0.53816433234E+03  0.12000000000E+03 0.  0.
<mgrwt>
<rscale>  0 0.27461401E+03</rscale>
<asrwt>0</asrwt>
<pdfrwt beam="1">  1        2 0.12642999E+00 0.27461401E+03</pdfrwt>
<pdfrwt beam="2">  1       -2 0.35294624E-02 0.27461401E+03</pdfrwt>
<totfact> 0.11335128E+04</totfact>
</mgrwt>
</event>
<event>
 5    1  0.1108889E+001  0.2751743E+03  0.7818608E-02  0.1098354E+00
          1   -1    0    0  501    0  0.00000000000E+00  0.00000000000E+00  0.19080161343E+04  0.19080161343E+04  0.00000000000E+00 0. -1.
         -1   -1    0    0    0  501 -0.00000000000E+00 -0.00000000000E+00 -0.99214149719E+01  0.99214149719E+01  0.00000000000E+00 0. -1.
         35    2    1    2    0    0  0.00000000000E+00  0.00000000000E+00  0.18980947193E+04  0.19179375492E+04  0.27517427090E+03 0.  0.
         25    1    3    3    0    0 -0.50586419100E+02 -0.13490759665E+02  0.12438695317E+04  0.12507407398E+04  0.12000000000E+03 0.  0.
         25    1    3    3    0    0  0.50586419100E+02  0.13490759665E+02  0.65422518761E+03  0.66719680942E+03  0.12000000000E+03 0.  0.
<mgrwt>
<rscale>  0 0.27517427E+03</rscale>
<asrwt>0</asrwt>
<pdfrwt beam="1">  1        1 0.29354065E+00 0.27517427E+03</pdfrwt>
<pdfrwt beam="2">  1       -1 0.15263731E-02 0.27517427E+03</pdfrwt>
<totfact> 0.39392137E+03</totfact>
</mgrwt>
</event>
<event>
 5    1  0.1108889E+001  0.2747219E+03  0.7818608E-02  0.1098607E+00
          1   -1    0    0  501    0  0.00000000000E+00  0.00000000000E+00  0.20130685713E+04  0.20130685713E+04  0.00000000000E+00 0. -1.
         -1   -1    0    0    0  501 -0.00000000000E+00 -0.00000000000E+00 -0.93727723280E+01  0.93727723280E+01  0.00000000000E+00 0. -1.
         35    2    1    2    0    0  0.00000000000E+00  0.00000000000E+00  0.20036957990E+04  0.20224413436E+04  0.27472192049E+03 0.  0.
         25    1    3    3    0    0  0.49208686138E+02 -0.31003812247E+02  0.75932208633E+03  0.77094277476E+03  0.12000000000E+03 0.  0.
         25    1    3    3    0    0 -0.49208686138E+02  0.31003812247E+02  0.12443737126E+04  0.12514985689E+04  0.12000000000E+03 0.  0.
<mgrwt>
<rscale>  0 0.27472192E+03</rscale>
<asrwt>0</asrwt>
<pdfrwt beam="1">  1        1 0.30970251E+00 0.27472192E+03</pdfrwt>
<pdfrwt beam="2">  1       -1 0.14419666E-02 0.27472192E+03</pdfrwt>
<totfact> 0.36573838E+03</totfact>
</mgrwt>
</event>
<event>
 5    1  0.1108889E+001  0.2760070E+03  0.7818608E-02  0.1097890E+00
         -2   -1    0    0    0  501 -0.00000000000E+00  0.00000000000E+00  0.52445402126E+03  0.52445402126E+03  0.00000000000E+00 0.  1.
          2   -1    0    0  501    0  0.00000000000E+00 -0.00000000000E+00 -0.36313893411E+02  0.36313893411E+02  0.00000000000E+00 0.  1.
         35    2    1    2    0    0  0.00000000000E+00  0.00000000000E+00  0.48814012785E+03  0.56076791467E+03  0.27600701025E+03 0.  0.
         25    1    3    3    0    0  0.49967436780E+02 -0.33509624733E+02  0.17901300929E+03  0.22375275905E+03  0.12000000000E+03 0.  0.
         25    1    3    3    0    0 -0.49967436780E+02  0.33509624733E+02  0.30912711857E+03  0.33701515563E+03  0.12000000000E+03 0.  0.
<mgrwt>
<rscale>  0 0.27600701E+03</rscale>
<asrwt>0</asrwt>
<pdfrwt beam="1">  1        2 0.55867532E-02 0.27600701E+03</pdfrwt>
<pdfrwt beam="2">  1       -2 0.80685229E-01 0.27600701E+03</pdfrwt>
<totfact> 0.18937140E+03</totfact>
</mgrwt>
</event>
<event>
 5    1  0.1108889E+001  0.2744334E+03  0.7818608E-02  0.1098769E+00
         -2   -1    0    0    0  501 -0.00000000000E+00  0.00000000000E+00  0.90542731979E+02  0.90542731979E+02  0.00000000000E+00 0.  1.
          2   -1    0    0  501    0  0.00000000000E+00 -0.00000000000E+00 -0.20795064968E+03  0.20795064968E+03  0.00000000000E+00 0.  1.
         35    2    1    2    0    0  0.00000000000E+00  0.00000000000E+00 -0.11740791770E+03  0.29849338166E+03  0.27443337945E+03 0.  0.
         25    1    3    3    0    0  0.49624690548E+01 -0.35230533522E+02  0.24634573468E+01  0.12518740038E+03  0.12000000000E+03 0.  0.
         25    1    3    3    0    0 -0.49624690548E+01  0.35230533522E+02 -0.11987137505E+03  0.17330598128E+03  0.12000000000E+03 0.  0.
<mgrwt>
<rscale>  0 0.27443338E+03</rscale>
<asrwt>0</asrwt>
<pdfrwt beam="1">  1        2 0.31992407E-01 0.27443338E+03</pdfrwt>
<pdfrwt beam="2">  1       -2 0.13929651E-01 0.27443338E+03</pdfrwt>
<totfact> 0.62728713E+03</totfact>
</mgrwt>
</event>
<event>
 5    1  0.1108889E+001  0.2762211E+03  0.7818608E-02  0.1097771E+00
          1   -1    0    0  501    0  0.00000000000E+00  0.00000000000E+00  0.21737384764E+04  0.21737384764E+04  0.00000000000E+00 0.  1.
         -1   -1    0    0    0  501 -0.00000000000E+00 -0.00000000000E+00 -0.87749845069E+01  0.87749845069E+01  0.00000000000E+00 0.  1.
         35    2    1    2    0    0  0.00000000000E+00  0.00000000000E+00  0.21649634919E+04  0.21825134610E+04  0.27622108140E+03 0.  0.
         25    1    3    3    0    0  0.14717329264E+02 -0.36794127334E+02  0.64226259520E+03  0.65457745820E+03  0.12000000000E+03 0.  0.
         25    1    3    3    0    0 -0.14717329264E+02  0.36794127334E+02  0.15227008967E+04  0.15279360028E+04  0.12000000000E+03 0.  0.
<mgrwt>
<rscale>  0 0.27622108E+03</rscale>
<asrwt>0</asrwt>
<pdfrwt beam="1">  1        1 0.33442088E+00 0.27622108E+03</pdfrwt>
<pdfrwt beam="2">  1       -1 0.13499993E-02 0.27622108E+03</pdfrwt>
<totfact> 0.31638676E+03</totfact>
</mgrwt>
</event>
<event>
 5    1  0.1108889E+001  0.2770396E+03  0.7818608E-02  0.1097317E+00
         -1   -1    0    0    0  501 -0.00000000000E+00  0.00000000000E+00  0.16481209412E+02  0.16481209412E+02  0.00000000000E+00 0. -1.
          1   -1    0    0  501    0  0.00000000000E+00 -0.00000000000E+00 -0.11642190460E+04  0.11642190460E+04  0.00000000000E+00 0. -1.
         35    2    1    2    0    0  0.00000000000E+00  0.00000000000E+00 -0.11477378366E+04  0.11807002554E+04  0.27703962098E+03 0.  0.
         25    1    3    3    0    0  0.60503462223E+02  0.32380894462E+02 -0.53609765109E+03  0.55363334688E+03  0.12000000000E+03 0.  0.
         25    1    3    3    0    0 -0.60503462223E+02 -0.32380894462E+02 -0.61164018551E+03  0.62706690855E+03  0.12000000000E+03 0.  0.
<mgrwt>
<rscale>  0 0.27703962E+03</rscale>
<asrwt>0</asrwt>
<pdfrwt beam="1">  1        1 0.17911068E+00 0.27703962E+03</pdfrwt>
<pdfrwt beam="2">  1       -1 0.25355699E-02 0.27703962E+03</pdfrwt>
<totfact> 0.58695362E+03</totfact>
</mgrwt>
</event>
<event>
 5    1  0.1108889E+001  0.2758740E+03  0.7818608E-02  0.1097964E+00
          3   -1    0    0  501    0  0.00000000000E+00  0.00000000000E+00  0.12873355357E+03  0.12873355357E+03  0.00000000000E+00 0. -1.
         -3   -1    0    0    0  501 -0.00000000000E+00 -0.00000000000E+00 -0.14779841154E+03  0.14779841154E+03  0.00000000000E+00 0. -1.
         35    2    1    2    0    0  0.00000000000E+00  0.00000000000E+00 -0.19064857972E+02  0.27653196512E+03  0.27587399102E+03 0.  0.
         25    1    3    3    0    0 -0.11714269839E+02  0.75494123931E+01  0.57202608306E+02  0.13366508947E+03  0.12000000000E+03 0.  0.
         25    1    3    3    0    0  0.11714269839E+02 -0.75494123931E+01 -0.76267466278E+02  0.14286687565E+03  0.12000000000E+03 0.  0.
<mgrwt>
<rscale>  0 0.27587399E+03</rscale>
<asrwt>0</asrwt>
<pdfrwt beam="1">  1        3 0.19805162E-01 0.27587399E+03</pdfrwt>
<pdfrwt beam="2">  1       -3 0.22738217E-01 0.27587399E+03</pdfrwt>
<totfact> 0.10363998E+03</totfact>
</mgrwt>
</event>
<event>
 5    1  0.1108889E+001  0.2728830E+03  0.7818608E-02  0.1099641E+00
          1   -1    0    0  501    0  0.00000000000E+00  0.00000000000E+00  0.12178800949E+04  0.12178800949E+04  0.00000000000E+00 0. -1.
         -1   -1    0    0    0  501 -0.00000000000E+00 -0.00000000000E+00 -0.15285808270E+02  0.15285808270E+02  0.00000000000E+00 0. -1.
         35    2    1    2    0    0  0.00000000000E+00  0.00000000000E+00  0.12025942867E+04  0.12331659032E+04  0.27288299051E+03 0.  0.
         25    1    3    3    0    0  0.32835385488E+02 -0.55759763566E+02  0.62561936280E+03  0.64030219497E+03  0.12000000000E+03 0.  0.
         25    1    3    3    0    0 -0.32835385488E+02  0.55759763566E+02  0.57697492385E+03  0.59286370822E+03  0.12000000000E+03 0.  0.
<mgrwt>
<rscale>  0 0.27288299E+03</rscale>
<asrwt>0</asrwt>
<pdfrwt beam="1">  1        1 0.18736609E+00 0.27288299E+03</pdfrwt>
<pdfrwt beam="2">  1       -1 0.23516638E-02 0.27288299E+03</pdfrwt>
<totfact> 0.60099770E+03</totfact>
</mgrwt>
</event>
<event>
 5    1  0.1108889E+001  0.2749077E+03  0.7818608E-02  0.1098503E+00
         -2   -1    0    0    0  501 -0.00000000000E+00  0.00000000000E+00  0.11620832190E+03  0.11620832190E+03  0.00000000000E+00 0. -1.
          2   -1    0    0  501    0  0.00000000000E+00 -0.00000000000E+00 -0.16258358546E+03  0.16258358546E+03  0.00000000000E+00 0. -1.
         35    2    1    2    0    0  0.00000000000E+00  0.00000000000E+00 -0.46375263555E+02  0.27879190736E+03  0.27490773459E+03 0.  0.
         25    1    3    3    0    0 -0.32505874352E+02  0.81965865675E+01 -0.82057359628E+02  0.14918855911E+03  0.12000000000E+03 0.  0.
         25    1    3    3    0    0  0.32505874352E+02 -0.81965865675E+01  0.35682096074E+02  0.12960334826E+03  0.12000000000E+03 0.  0.
<mgrwt>
<rscale>  0 0.27490773E+03</rscale>
<asrwt>0</asrwt>
<pdfrwt beam="1">  1        2 0.25012859E-01 0.27490773E+03</pdfrwt>
<pdfrwt beam="2">  1       -2 0.17878203E-01 0.27490773E+03</pdfrwt>
<totfact> 0.54371866E+03</totfact>
</mgrwt>
</event>
<event>
 5    1  0.1108889E+001  0.2741122E+03  0.7818608E-02  0.1098949E+00
         -2   -1    0    0    0  501 -0.00000000000E+00  0.00000000000E+00  0.32729298996E+02  0.32729298996E+02  0.00000000000E+00 0. -1.
          2   -1    0    0  501    0  0.00000000000E+00 -0.00000000000E+00 -0.57393156650E+03  0.57393156650E+03  0.00000000000E+00 0. -1.
         35    2    1    2    0    0  0.00000000000E+00  0.00000000000E+00 -0.54120226751E+03  0.60666086550E+03  0.27411222405E+03 0.  0.
         25    1    3    3    0    0 -0.43110651823E+02  0.74509688180E+01 -0.16060047338E+03  0.20519882379E+03  0.12000000000E+03 0.  0.
         25    1    3    3    0    0  0.43110651823E+02 -0.74509688180E+01 -0.38060179413E+03  0.40146204170E+03  0.12000000000E+03 0.  0.
<mgrwt>
<rscale>  0 0.27411222E+03</rscale>
<asrwt>0</asrwt>
<pdfrwt beam="1">  1        2 0.88297162E-01 0.27411222E+03</pdfrwt>
<pdfrwt beam="2">  1       -2 0.50352769E-02 0.27411222E+03</pdfrwt>
<totfact> 0.10241461E+04</totfact>
</mgrwt>
</event>
<event>
 5    1  0.1108889E+001  0.2761473E+03  0.7818608E-02  0.1097812E+00
          1   -1    0    0  501    0  0.00000000000E+00  0.00000000000E+00  0.56197898891E+03  0.56197898891E+03  0.00000000000E+00 0.  1.
         -1   -1    0    0    0  501 -0.00000000000E+00 -0.00000000000E+00 -0.33923566797E+02  0.33923566797E+02  0.00000000000E+00 0.  1.
         35    2    1    2    0    0  0.00000000000E+00  0.00000000000E+00  0.52805542211E+03  0.59590255571E+03  0.27614729236E+03 0.  0.
         25    1    3    3    0    0 -0.62644994796E+02 -0.25195058089E+02  0.28615507547E+03  0.31755930713E+03  0.12000000000E+03 0.  0.
         25    1    3    3    0    0  0.62644994796E+02  0.25195058089E+02  0.24190034664E+03  0.27834324858E+03  0.12000000000E+03 0.  0.
<mgrwt>
<rscale>  0 0.27614729E+03</rscale>
<asrwt>0</asrwt>
<pdfrwt beam="1">  1        1 0.86458299E-01 0.27614729E+03</pdfrwt>
<pdfrwt beam="2">  1       -1 0.52190107E-02 0.27614729E+03</pdfrwt>
<totfact> 0.63308652E+03</totfact>
</mgrwt>
</event>
<event>
 5    1  0.1108889E+001  0.2722412E+03  0.7818608E-02  0.1100004E+00
          2   -1    0    0  501    0  0.00000000000E+00  0.00000000000E+00  0.72959123999E+03  0.72959123999E+03  0.00000000000E+00 0. -1.
         -2   -1    0    0    0  501 -0.00000000000E+00 -0.00000000000E+00 -0.25396162906E+02  0.25396162906E+02  0.00000000000E+00 0. -1.
         35    2    1    2    0    0  0.00000000000E+00  0.00000000000E+00  0.70419507709E+03  0.75498740290E+03  0.27224120177E+03 0.  0.
         25    1    3    3    0    0  0.60806362271E+02  0.18948337294E+02  0.32850636445E+03  0.35548964072E+03  0.12000000000E+03 0.  0.
         25    1    3    3    0    0 -0.60806362271E+02 -0.18948337294E+02  0.37568871264E+03  0.39949776218E+03  0.12000000000E+03 0.  0.
<mgrwt>
<rscale>  0 0.27224120E+03</rscale>
<asrwt>0</asrwt>
<pdfrwt beam="1">  1        2 0.11224479E+00 0.27224120E+03</pdfrwt>
<pdfrwt beam="2">  1       -2 0.39071025E-02 0.27224120E+03</pdfrwt>
<totfact> 0.11299768E+04</totfact>
</mgrwt>
</event>
<event>
 5    1  0.1108889E+001  0.2749195E+03  0.7818608E-02  0.1098497E+00
          1   -1    0    0  501    0  0.00000000000E+00  0.00000000000E+00  0.30771300469E+04  0.30771300469E+04  0.00000000000E+00 0.  1.
         -1   -1    0    0    0  501 -0.00000000000E+00 -0.00000000000E+00 -0.61405220637E+01  0.61405220637E+01  0.00000000000E+00 0.  1.
         35    2    1    2    0    0  0.00000000000E+00  0.00000000000E+00  0.30709895249E+04  0.30832705690E+04  0.27491951510E+03 0.  0.
         25    1    3    3    0    0 -0.91075937043E+01 -0.41090245299E+02  0.95017128783E+03  0.95864322495E+03  0.12000000000E+03 0.  0.
         25    1    3    3    0    0  0.91075937043E+01  0.41090245299E+02  0.21208182370E+04  0.21246273441E+04  0.12000000000E+03 0.  0.
<mgrwt>
<rscale>  0 0.27491952E+03</rscale>
<asrwt>0</asrwt>
<pdfrwt beam="1">  1        1 0.47340339E+00 0.27491952E+03</pdfrwt>
<pdfrwt beam="2">  1       -1 0.94469816E-03 0.27491952E+03</pdfrwt>
<totfact> 0.13046257E+03</totfact>
</mgrwt>
</event>
<event>
 5    1  0.1108889E+001  0.2757691E+03  0.7818608E-02  0.1098022E+00
         -2   -1    0    0    0  501 -0.00000000000E+00  0.00000000000E+00  0.48860807103E+02  0.48860807103E+02  0.00000000000E+00 0. -1.
          2   -1    0    0  501    0  0.00000000000E+00 -0.00000000000E+00 -0.38910829923E+03  0.38910829923E+03  0.00000000000E+00 0. -1.
         35    2    1    2    0    0  0.00000000000E+00  0.00000000000E+00 -0.34024749213E+03  0.43796910634E+03  0.27576907405E+03 0.  0.
         25    1    3    3    0    0  0.54921093039E+02 -0.17840270982E+02 -0.22688942274E+03  0.26308441969E+03  0.12000000000E+03 0.  0.
         25    1    3    3    0    0 -0.54921093039E+02  0.17840270982E+02 -0.11335806939E+03  0.17488468665E+03  0.12000000000E+03 0.  0.
<mgrwt>
<rscale>  0 0.27576907E+03</rscale>
<asrwt>0</asrwt>
<pdfrwt beam="1">  1        2 0.59862815E-01 0.27576907E+03</pdfrwt>
<pdfrwt beam="2">  1       -2 0.75170473E-02 0.27576907E+03</pdfrwt>
<totfact> 0.85229121E+03</totfact>
</mgrwt>
</event>
<event>
 5    1  0.1108889E+001  0.2749187E+03  0.7818608E-02  0.1098497E+00
          1   -1    0    0  501    0  0.00000000000E+00  0.00000000000E+00  0.12239799842E+03  0.12239799842E+03  0.00000000000E+00 0. -1.
         -1   -1    0    0    0  501 -0.00000000000E+00 -0.00000000000E+00 -0.15437405516E+03  0.15437405516E+03  0.00000000000E+00 0. -1.
         35    2    1    2    0    0  0.00000000000E+00  0.00000000000E+00 -0.31976056735E+02  0.27677205358E+03  0.27491871787E+03 0.  0.
         25    1    3    3    0    0 -0.41242402079E+02 -0.70154405731E+01  0.36757181789E+02  0.13229226186E+03  0.12000000000E+03 0.  0.
         25    1    3    3    0    0  0.41242402079E+02  0.70154405731E+01 -0.68733238524E+02  0.14447979171E+03  0.12000000000E+03 0.  0.
<mgrwt>
<rscale>  0 0.27491872E+03</rscale>
<asrwt>0</asrwt>
<pdfrwt beam="1">  1        1 0.18830461E-01 0.27491872E+03</pdfrwt>
<pdfrwt beam="2">  1       -1 0.23749855E-01 0.27491872E+03</pdfrwt>
<totfact> 0.41659737E+03</totfact>
</mgrwt>
</event>
<event>
 5    1  0.1108889E+001  0.2746245E+03  0.7818608E-02  0.1098662E+00
          2   -1    0    0  501    0  0.00000000000E+00  0.00000000000E+00  0.64308169299E+03  0.64308169299E+03  0.00000000000E+00 0. -1.
         -2   -1    0    0    0  501 -0.00000000000E+00 -0.00000000000E+00 -0.29319210047E+02  0.29319210047E+02  0.00000000000E+00 0. -1.
         35    2    1    2    0    0  0.00000000000E+00  0.00000000000E+00  0.61376248294E+03  0.67240090303E+03  0.27462445073E+03 0.  0.
         25    1    3    3    0    0  0.13945033759E+02  0.58504984744E+02  0.23603079257E+03  0.27152869508E+03  0.12000000000E+03 0.  0.
         25    1    3    3    0    0 -0.13945033759E+02 -0.58504984744E+02  0.37773169036E+03  0.40087220796E+03  0.12000000000E+03 0.  0.
<mgrwt>
<rscale>  0 0.27462445E+03</rscale>
<asrwt>0</asrwt>
<pdfrwt beam="1">  1        2 0.98935634E-01 0.27462445E+03</pdfrwt>
<pdfrwt beam="2">  1       -2 0.45106482E-02 0.27462445E+03</pdfrwt>
<totfact> 0.10598896E+04</totfact>
</mgrwt>
</event>
<event>
 5    1  0.1108889E+001  0.2748704E+03  0.7818608E-02  0.1098524E+00
         -2   -1    0    0    0  501 -0.00000000000E+00  0.00000000000E+00  0.83672522692E+01  0.83672522692E+01  0.00000000000E+00 0.  1.
          2   -1    0    0  501    0  0.00000000000E+00 -0.00000000000E+00 -0.22574244792E+04  0.22574244792E+04  0.00000000000E+00 0.  1.
         35    2    1    2    0    0  0.00000000000E+00  0.00000000000E+00 -0.22490572269E+04  0.22657917314E+04  0.27487044291E+03 0.  0.
         25    1    3    3    0    0  0.36336905392E+02  0.15952796100E+00 -0.15884960968E+04  0.15934366149E+04  0.12000000000E+03 0.  0.
         25    1    3    3    0    0 -0.36336905392E+02 -0.15952796100E+00 -0.66056113015E+03  0.67235511659E+03  0.12000000000E+03 0.  0.
<mgrwt>
<rscale>  0 0.27487044E+03</rscale>
<asrwt>0</asrwt>
<pdfrwt beam="1">  1        2 0.34729569E+00 0.27487044E+03</pdfrwt>
<pdfrwt beam="2">  1       -2 0.12872710E-02 0.27487044E+03</pdfrwt>
<totfact> 0.80068204E+03</totfact>
</mgrwt>
</event>
<event>
 5    1  0.1108889E+001  0.2752394E+03  0.7818608E-02  0.1098318E+00
          3   -1    0    0  501    0  0.00000000000E+00  0.00000000000E+00  0.26100695883E+03  0.26100695883E+03  0.00000000000E+00 0. -1.
         -3   -1    0    0    0  501 -0.00000000000E+00 -0.00000000000E+00 -0.72562004059E+02  0.72562004059E+02  0.00000000000E+00 0. -1.
         35    2    1    2    0    0  0.00000000000E+00  0.00000000000E+00  0.18844495477E+03  0.33356896289E+03  0.27523944489E+03 0.  0.
         25    1    3    3    0    0  0.28573344421E+02 -0.54304219543E+02  0.60510022987E+02  0.14773911856E+03  0.12000000000E+03 0.  0.
         25    1    3    3    0    0 -0.28573344421E+02  0.54304219543E+02  0.12793493178E+03  0.18582984432E+03  0.12000000000E+03 0.  0.
<mgrwt>
<rscale>  0 0.27523944E+03</rscale>
<asrwt>0</asrwt>
<pdfrwt beam="1">  1        3 0.40154916E-01 0.27523944E+03</pdfrwt>
<pdfrwt beam="2">  1       -3 0.11163385E-01 0.27523944E+03</pdfrwt>
<totfact> 0.96223552E+02</totfact>
</mgrwt>
</event>
<event>
 5    1  0.1108889E+001  0.2746234E+03  0.7818608E-02  0.1098662E+00
          4   -1    0    0  501    0  0.00000000000E+00  0.00000000000E+00  0.14396892686E+03  0.14396892686E+03  0.00000000000E+00 0.  1.
         -4   -1    0    0    0  501 -0.00000000000E+00 -0.00000000000E+00 -0.13096228213E+03  0.13096228213E+03  0.00000000000E+00 0.  1.
         35    2    1    2    0    0  0.00000000000E+00  0.00000000000E+00  0.13006644731E+02  0.27493120900E+03  0.27462337278E+03 0.  0.
         25    1    3    3    0    0  0.44314761861E+02  0.45581805366E+02  0.26848506926E+02  0.13842810922E+03  0.12000000000E+03 0.  0.
         25    1    3    3    0    0 -0.44314761861E+02 -0.45581805366E+02 -0.13841862195E+02  0.13650309978E+03  0.12000000000E+03 0.  0.
<mgrwt>
<rscale>  0 0.27462337E+03</rscale>
<asrwt>0</asrwt>
<pdfrwt beam="1">  1        4 0.22149066E-01 0.27462337E+03</pdfrwt>
<pdfrwt beam="2">  1       -4 0.20148043E-01 0.27462337E+03</pdfrwt>
<totfact> 0.78202764E+02</totfact>
</mgrwt>
</event>
<event>
 5    1  0.1108889E+001  0.2750807E+03  0.7818608E-02  0.1098406E+00
          1   -1    0    0  501    0  0.00000000000E+00  0.00000000000E+00  0.30823792196E+03  0.30823792196E+03  0.00000000000E+00 0.  1.
         -1   -1    0    0    0  501 -0.00000000000E+00 -0.00000000000E+00 -0.61372569024E+02  0.61372569024E+02  0.00000000000E+00 0.  1.
         35    2    1    2    0    0  0.00000000000E+00  0.00000000000E+00  0.24686535294E+03  0.36961049098E+03  0.27508073827E+03 0.  0.
         25    1    3    3    0    0 -0.46144514338E+01 -0.65628046770E+01  0.21309499144E+03  0.24469131358E+03  0.12000000000E+03 0.  0.
         25    1    3    3    0    0  0.46144514338E+01  0.65628046770E+01  0.33770361500E+02  0.12491917740E+03  0.12000000000E+03 0.  0.
<mgrwt>
<rscale>  0 0.27508074E+03</rscale>
<asrwt>0</asrwt>
<pdfrwt beam="1">  1        1 0.47421218E-01 0.27508074E+03</pdfrwt>
<pdfrwt beam="2">  1       -1 0.94419339E-02 0.27508074E+03</pdfrwt>
<totfact> 0.56049045E+03</totfact>
</mgrwt>
</event>
<event>
 5    1  0.1108889E+001  0.2752840E+03  0.7818608E-02  0.1098293E+00
         -4   -1    0    0    0  501 -0.00000000000E+00  0.00000000000E+00  0.15807807577E+03  0.15807807577E+03  0.00000000000E+00 0.  1.
          4   -1    0    0  501    0  0.00000000000E+00 -0.00000000000E+00 -0.11984786547E+03  0.11984786547E+03  0.00000000000E+00 0.  1.
         35    2    1    2    0    0  0.00000000000E+00  0.00000000000E+00  0.38230210295E+02  0.27792594124E+03  0.27528399851E+03 0.  0.
         25    1    3    3    0    0 -0.27532692245E+02 -0.59599569276E+02  0.34597275295E+02  0.14109262652E+03  0.12000000000E+03 0.  0.
         25    1    3    3    0    0  0.27532692245E+02  0.59599569276E+02  0.36329349992E+01  0.13683331472E+03  0.12000000000E+03 0.  0.
<mgrwt>
<rscale>  0 0.27528400E+03</rscale>
<asrwt>0</asrwt>
<pdfrwt beam="1">  1        4 0.18438133E-01 0.27528400E+03</pdfrwt>
<pdfrwt beam="2">  1       -4 0.24319704E-01 0.27528400E+03</pdfrwt>
<totfact> 0.77273173E+02</totfact>
</mgrwt>
</event>
<event>
 5    1  0.1108889E+001  0.2743230E+03  0.7818608E-02  0.1098831E+00
          2   -1    0    0  501    0  0.00000000000E+00  0.00000000000E+00  0.34555402258E+03  0.34555402258E+03  0.00000000000E+00 0. -1.
         -2   -1    0    0    0  501 -0.00000000000E+00 -0.00000000000E+00 -0.54443803522E+02  0.54443803522E+02  0.00000000000E+00 0. -1.
         35    2    1    2    0    0  0.00000000000E+00  0.00000000000E+00  0.29111021906E+03  0.39999782611E+03  0.27432298709E+03 0.  0.
         25    1    3    3    0    0  0.35494672048E+02  0.55567773196E+02  0.13374282517E+03  0.19140217461E+03  0.12000000000E+03 0.  0.
         25    1    3    3    0    0 -0.35494672048E+02 -0.55567773196E+02  0.15736739389E+03  0.20859565150E+03  0.12000000000E+03 0.  0.
<mgrwt>
<rscale>  0 0.27432299E+03</rscale>
<asrwt>0</asrwt>
<pdfrwt beam="1">  1        2 0.53162156E-01 0.27432299E+03</pdfrwt>
<pdfrwt beam="2">  1       -2 0.83759700E-02 0.27432299E+03</pdfrwt>
<totfact> 0.81825139E+03</totfact>
</mgrwt>
</event>
<event>
 5    1  0.1108889E+001  0.2734146E+03  0.7818608E-02  0.1099341E+00
          1   -1    0    0  501    0  0.00000000000E+00  0.00000000000E+00  0.19829498639E+03  0.19829498639E+03  0.00000000000E+00 0. -1.
         -1   -1    0    0    0  501 -0.00000000000E+00 -0.00000000000E+00 -0.94247888069E+02  0.94247888069E+02  0.00000000000E+00 0. -1.
         35    2    1    2    0    0  0.00000000000E+00  0.00000000000E+00  0.10404709832E+03  0.29254287446E+03  0.27341458397E+03 0.  0.
         25    1    3    3    0    0  0.29598149482E+02 -0.48833420657E+02  0.86331273995E+02  0.15847347505E+03  0.12000000000E+03 0.  0.
         25    1    3    3    0    0 -0.29598149482E+02  0.48833420657E+02  0.17715824327E+02  0.13406939941E+03  0.12000000000E+03 0.  0.
<mgrwt>
<rscale>  0 0.27341458E+03</rscale>
<asrwt>0</asrwt>
<pdfrwt beam="1">  1        1 0.30506921E-01 0.27341458E+03</pdfrwt>
<pdfrwt beam="2">  1       -1 0.14499675E-01 0.27341458E+03</pdfrwt>
<totfact> 0.49950565E+03</totfact>
</mgrwt>
</event>
<event>
 5    1  0.1108889E+001  0.2741398E+03  0.7818608E-02  0.1098933E+00
          2   -1    0    0  501    0  0.00000000000E+00  0.00000000000E+00  0.41458115460E+03  0.41458115460E+03  0.00000000000E+00 0. -1.
         -2   -1    0    0    0  501 -0.00000000000E+00 -0.00000000000E+00 -0.45318391936E+02  0.45318391936E+02  0.00000000000E+00 0. -1.
         35    2    1    2    0    0  0.00000000000E+00  0.00000000000E+00  0.36926276266E+03  0.45989954654E+03  0.27413975453E+03 0.  0.
         25    1    3    3    0    0 -0.23599285372E+02 -0.61288060955E+02  0.17010299276E+03  0.21828463260E+03  0.12000000000E+03 0.  0.
         25    1    3    3    0    0  0.23599285372E+02  0.61288060955E+02  0.19915976991E+03  0.24161491393E+03  0.12000000000E+03 0.  0.
<mgrwt>
<rscale>  0 0.27413975E+03</rscale>
<asrwt>0</asrwt>
<pdfrwt beam="1">  1        2 0.63781714E-01 0.27413975E+03</pdfrwt>
<pdfrwt beam="2">  1       -2 0.69720606E-02 0.27413975E+03</pdfrwt>
<totfact> 0.89385565E+03</totfact>
</mgrwt>
</event>
<event>
 5    1  0.1108889E+001  0.2753034E+03  0.7818608E-02  0.1098282E+00
         -4   -1    0    0    0  501 -0.00000000000E+00  0.00000000000E+00  0.66732745739E+02  0.66732745739E+02  0.00000000000E+00 0.  1.
          4   -1    0    0  501    0  0.00000000000E+00 -0.00000000000E+00 -0.28393847496E+03  0.28393847496E+03  0.00000000000E+00 0.  1.
         35    2    1    2    0    0  0.00000000000E+00  0.00000000000E+00 -0.21720572922E+03  0.35067122069E+03  0.27530342573E+03 0.  0.
         25    1    3    3    0    0 -0.34264789743E+02  0.56237042775E+02 -0.12711906547E+03  0.18680454385E+03  0.12000000000E+03 0.  0.
         25    1    3    3    0    0  0.34264789743E+02 -0.56237042775E+02 -0.90086663750E+02  0.16386667685E+03  0.12000000000E+03 0.  0.
<mgrwt>
<rscale>  0 0.27530343E+03</rscale>
<asrwt>0</asrwt>
<pdfrwt beam="1">  1        4 0.43682843E-01 0.27530343E+03</pdfrwt>
<pdfrwt beam="2">  1       -4 0.10266576E-01 0.27530343E+03</pdfrwt>
<totfact> 0.69422842E+02</totfact>
</mgrwt>
</event>
<event>
 5    1  0.1108889E+001  0.2750291E+03  0.7818608E-02  0.1098435E+00
         -2   -1    0    0    0  501 -0.00000000000E+00  0.00000000000E+00  0.51206627557E+02  0.51206627557E+02  0.00000000000E+00 0.  1.
          2   -1    0    0  501    0  0.00000000000E+00 -0.00000000000E+00 -0.36929317972E+03  0.36929317972E+03  0.00000000000E+00 0.  1.
         35    2    1    2    0    0  0.00000000000E+00  0.00000000000E+00 -0.31808655216E+03  0.42049980728E+03  0.27502914983E+03 0.  0.
         25    1    3    3    0    0  0.52644675531E+02 -0.88021823921E+00 -0.22278365897E+03  0.25846623639E+03  0.12000000000E+03 0.  0.
         25    1    3    3    0    0 -0.52644675531E+02  0.88021823921E+00 -0.95302893191E+02  0.16203357089E+03  0.12000000000E+03 0.  0.
<mgrwt>
<rscale>  0 0.27502915E+03</rscale>
<asrwt>0</asrwt>
<pdfrwt beam="1">  1        2 0.56814336E-01 0.27502915E+03</pdfrwt>
<pdfrwt beam="2">  1       -2 0.78779427E-02 0.27502915E+03</pdfrwt>
<totfact> 0.83827609E+03</totfact>
</mgrwt>
</event>
<event>
 5    1  0.1108889E+001  0.2718057E+03  0.7818608E-02  0.1100251E+00
         -1   -1    0    0    0  501 -0.00000000000E+00  0.00000000000E+00  0.25331166431E+03  0.25331166431E+03  0.00000000000E+00 0. -1.
          1   -1    0    0  501    0  0.00000000000E+00 -0.00000000000E+00 -0.72912484180E+02  0.72912484180E+02  0.00000000000E+00 0. -1.
         35    2    1    2    0    0  0.00000000000E+00  0.00000000000E+00  0.18039918013E+03  0.32622414849E+03  0.27180568586E+03 0.  0.
         25    1    3    3    0    0 -0.21982128393E+02  0.58021665965E+02  0.72403451925E+02  0.15327096118E+03  0.12000000000E+03 0.  0.
         25    1    3    3    0    0  0.21982128393E+02 -0.58021665965E+02  0.10799572820E+03  0.17295318731E+03  0.12000000000E+03 0.  0.
<mgrwt>
<rscale>  0 0.27180569E+03</rscale>
<asrwt>0</asrwt>
<pdfrwt beam="1">  1        1 0.11217305E-01 0.27180569E+03</pdfrwt>
<pdfrwt beam="2">  1       -1 0.38971025E-01 0.27180569E+03</pdfrwt>
<totfact> 0.35348035E+03</totfact>
</mgrwt>
</event>
<event>
 5    1  0.1108889E+001  0.2742342E+03  0.7818608E-02  0.1098880E+00
          2   -1    0    0  501    0  0.00000000000E+00  0.00000000000E+00  0.67386093670E+02  0.67386093670E+02  0.00000000000E+00 0. -1.
         -2   -1    0    0    0  501 -0.00000000000E+00 -0.00000000000E+00 -0.27900572120E+03  0.27900572120E+03  0.00000000000E+00 0. -1.
         35    2    1    2    0    0  0.00000000000E+00  0.00000000000E+00 -0.21161962753E+03  0.34639181487E+03  0.27423424778E+03 0.  0.
         25    1    3    3    0    0 -0.38204994456E+02 -0.18726416804E+02 -0.41516867920E+02  0.13391770088E+03  0.12000000000E+03 0.  0.
         25    1    3    3    0    0  0.38204994456E+02  0.18726416804E+02 -0.17010275961E+03  0.21247411399E+03  0.12000000000E+03 0.  0.
<mgrwt>
<rscale>  0 0.27423425E+03</rscale>
<asrwt>0</asrwt>
<pdfrwt beam="1">  1        2 0.10367091E-01 0.27423425E+03</pdfrwt>
<pdfrwt beam="2">  1       -2 0.42923957E-01 0.27423425E+03</pdfrwt>
<totfact> 0.31690783E+03</totfact>
</mgrwt>
</event>
<event>
 5    1  0.1108889E+001  0.2758824E+03  0.7818608E-02  0.1097959E+00
          1   -1    0    0  501    0  0.00000000000E+00  0.00000000000E+00  0.13825413097E+02  0.13825413097E+02  0.00000000000E+00 0.  1.
         -1   -1    0    0    0  501 -0.00000000000E+00 -0.00000000000E+00 -0.13762898481E+04  0.13762898481E+04  0.00000000000E+00 0.  1.
         35    2    1    2    0    0  0.00000000000E+00  0.00000000000E+00 -0.13624644350E+04  0.13901152612E+04  0.27588240749E+03 0.  0.
         25    1    3    3    0    0 -0.22117649840E+02 -0.74974570096E+01 -0.10031783160E+04  0.10105998892E+04  0.12000000000E+03 0.  0.
         25    1    3    3    0    0  0.22117649840E+02  0.74974570096E+01 -0.35928611899E+03  0.37951537201E+03  0.12000000000E+03 0.  0.
<mgrwt>
<rscale>  0 0.27588241E+03</rscale>
<asrwt>0</asrwt>
<pdfrwt beam="1">  1        1 0.21269866E-02 0.27588241E+03</pdfrwt>
<pdfrwt beam="2">  1       -1 0.21173690E+00 0.27588241E+03</pdfrwt>
<totfact> 0.77399739E+02</totfact>
</mgrwt>
</event>
<event>
 5    1  0.1108889E+001  0.2747887E+03  0.7818608E-02  0.1098570E+00
         -2   -1    0    0    0  501 -0.00000000000E+00  0.00000000000E+00  0.89911248547E+01  0.89911248547E+01  0.00000000000E+00 0. -1.
          2   -1    0    0  501    0  0.00000000000E+00 -0.00000000000E+00 -0.20995374286E+04  0.20995374286E+04  0.00000000000E+00 0. -1.
         35    2    1    2    0    0  0.00000000000E+00  0.00000000000E+00 -0.20905463037E+04  0.21085285534E+04  0.27478866904E+03 0.  0.
         25    1    3    3    0    0 -0.56348831924E+02 -0.23084010134E+01 -0.13215838322E+04  0.13282184855E+04  0.12000000000E+03 0.  0.
         25    1    3    3    0    0  0.56348831924E+02  0.23084010134E+01 -0.76896247150E+03  0.78031006796E+03  0.12000000000E+03 0.  0.
<mgrwt>
<rscale>  0 0.27478867E+03</rscale>
<asrwt>0</asrwt>
<pdfrwt beam="1">  1        2 0.32300647E+00 0.27478867E+03</pdfrwt>
<pdfrwt beam="2">  1       -2 0.13832469E-02 0.27478867E+03</pdfrwt>
<totfact> 0.87446999E+03</totfact>
</mgrwt>
</event>
<event>
 5    1  0.1108889E+001  0.2746076E+03  0.7818608E-02  0.1098671E+00
          3   -1    0    0  501    0  0.00000000000E+00  0.00000000000E+00  0.25424256929E+02  0.25424256929E+02  0.00000000000E+00 0. -1.
         -3   -1    0    0    0  501 -0.00000000000E+00 -0.00000000000E+00 -0.74150973964E+03  0.74150973964E+03  0.00000000000E+00 0. -1.
         35    2    1    2    0    0  0.00000000000E+00  0.00000000000E+00 -0.71608548271E+03  0.76693399656E+03  0.27460760467E+03 0.  0.
         25    1    3    3    0    0  0.51932965734E+02  0.26494252782E+02 -0.44868546983E+03  0.46810002051E+03  0.12000000000E+03 0.  0.
         25    1    3    3    0    0 -0.51932965734E+02 -0.26494252782E+02 -0.26740001287E+03  0.29883397605E+03  0.12000000000E+03 0.  0.
<mgrwt>
<rscale>  0 0.27460760E+03</rscale>
<asrwt>0</asrwt>
<pdfrwt beam="1">  1        3 0.39114242E-02 0.27460760E+03</pdfrwt>
<pdfrwt beam="2">  1       -3 0.11407842E+00 0.27460760E+03</pdfrwt>
<totfact> 0.56839568E+02</totfact>
</mgrwt>
</event>
<event>
 5    1  0.1108889E+001  0.2733035E+03  0.7818608E-02  0.1099404E+00
          1   -1    0    0  501    0  0.00000000000E+00  0.00000000000E+00  0.85020845058E+03  0.85020845058E+03  0.00000000000E+00 0. -1.
         -1   -1    0    0    0  501 -0.00000000000E+00 -0.00000000000E+00 -0.21963679066E+02  0.21963679066E+02  0.00000000000E+00 0. -1.
         35    2    1    2    0    0  0.00000000000E+00  0.00000000000E+00  0.82824477152E+03  0.87217212965E+03  0.27330353490E+03 0.  0.
         25    1    3    3    0    0  0.31068825710E+02 -0.49518183041E+02  0.32073439830E+03  0.34740160713E+03  0.12000000000E+03 0.  0.
         25    1    3    3    0    0 -0.31068825710E+02  0.49518183041E+02  0.50751037322E+03  0.52477052252E+03  0.12000000000E+03 0.  0.
<mgrwt>
<rscale>  0 0.27330353E+03</rscale>
<asrwt>0</asrwt>
<pdfrwt beam="1">  1        1 0.13080128E+00 0.27330353E+03</pdfrwt>
<pdfrwt beam="2">  1       -1 0.33790282E-02 0.27330353E+03</pdfrwt>
<totfact> 0.66084255E+03</totfact>
</mgrwt>
</event>
<event>
 5    1  0.1108889E+001  0.2747338E+03  0.7818608E-02  0.1098600E+00
         -2   -1    0    0    0  501 -0.00000000000E+00  0.00000000000E+00  0.68510723819E+01  0.68510723819E+01  0.00000000000E+00 0. -1.
          2   -1    0    0  501    0  0.00000000000E+00 -0.00000000000E+00 -0.27542646739E+04  0.27542646739E+04  0.00000000000E+00 0. -1.
         35    2    1    2    0    0  0.00000000000E+00  0.00000000000E+00 -0.27474136015E+04  0.27611157463E+04  0.27473381037E+03 0.  0.
         25    1    3    3    0    0 -0.63467370841E+02  0.20814619752E+02 -0.13447332772E+04  0.13517281318E+04  0.12000000000E+03 0.  0.
         25    1    3    3    0    0  0.63467370841E+02 -0.20814619752E+02 -0.14026803244E+04  0.14093876145E+04  0.12000000000E+03 0.  0.
<mgrwt>
<rscale>  0 0.27473381E+03</rscale>
<asrwt>0</asrwt>
<pdfrwt beam="1">  1        2 0.42373273E+00 0.27473381E+03</pdfrwt>
<pdfrwt beam="2">  1       -2 0.10540119E-02 0.27473381E+03</pdfrwt>
<totfact> 0.57142187E+03</totfact>
</mgrwt>
</event>
<event>
 5    1  0.1108889E+001  0.2743900E+03  0.7818608E-02  0.1098793E+00
          2   -1    0    0  501    0  0.00000000000E+00  0.00000000000E+00  0.23179939762E+03  0.23179939762E+03  0.00000000000E+00 0. -1.
         -2   -1    0    0    0  501 -0.00000000000E+00 -0.00000000000E+00 -0.81201565844E+02  0.81201565844E+02  0.00000000000E+00 0. -1.
         35    2    1    2    0    0  0.00000000000E+00  0.00000000000E+00  0.15059783177E+03  0.31300096346E+03  0.27439004390E+03 0.  0.
         25    1    3    3    0    0  0.16875657119E+02 -0.63903937197E+02  0.66918495036E+02  0.15246831136E+03  0.12000000000E+03 0.  0.
         25    1    3    3    0    0 -0.16875657119E+02  0.63903937197E+02  0.83679336738E+02  0.16053265210E+03  0.12000000000E+03 0.  0.
<mgrwt>
<rscale>  0 0.27439004E+03</rscale>
<asrwt>0</asrwt>
<pdfrwt beam="1">  1        2 0.35661446E-01 0.27439004E+03</pdfrwt>
<pdfrwt beam="2">  1       -2 0.12492549E-01 0.27439004E+03</pdfrwt>
<totfact> 0.66563107E+03</totfact>
</mgrwt>
</event>
<event>
 5    1  0.1108889E+001  0.2739826E+03  0.7818608E-02  0.1099022E+00
          2   -1    0    0  501    0  0.00000000000E+00  0.00000000000E+00  0.20716548258E+03  0.20716548258E+03  0.00000000000E+00 0. -1.
         -2   -1    0    0    0  501 -0.00000000000E+00 -0.00000000000E+00 -0.90587578478E+02  0.90587578478E+02  0.00000000000E+00 0. -1.
         35    2    1    2    0    0  0.00000000000E+00  0.00000000000E+00  0.11657790411E+03  0.29775306106E+03  0.27398262289E+03 0.  0.
         25    1    3    3    0    0 -0.61863709614E+02 -0.16823640380E+02  0.75692912540E+02  0.15569062416E+03  0.12000000000E+03 0.  0.
         25    1    3    3    0    0  0.61863709614E+02  0.16823640380E+02  0.40884991567E+02  0.14206243690E+03  0.12000000000E+03 0.  0.
<mgrwt>
<rscale>  0 0.27398262E+03</rscale>
<asrwt>0</asrwt>
<pdfrwt beam="1">  1        2 0.31871613E-01 0.27398262E+03</pdfrwt>
<pdfrwt beam="2">  1       -2 0.13936551E-01 0.27398262E+03</pdfrwt>
<totfact> 0.62933500E+03</totfact>
</mgrwt>
</event>
<event>
 5    1  0.1108889E+001  0.2756448E+03  0.7818608E-02  0.1098092E+00
         -1   -1    0    0    0  501 -0.00000000000E+00  0.00000000000E+00  0.21690123499E+02  0.21690123499E+02  0.00000000000E+00 0. -1.
          1   -1    0    0  501    0  0.00000000000E+00 -0.00000000000E+00 -0.87574472579E+03  0.87574472579E+03  0.00000000000E+00 0. -1.
         35    2    1    2    0    0  0.00000000000E+00  0.00000000000E+00 -0.85405460229E+03  0.89743484929E+03  0.27564478052E+03 0.  0.
         25    1    3    3    0    0  0.38638919855E+02  0.18580978409E+02 -0.25608278005E+03  0.28603602767E+03  0.12000000000E+03 0.  0.
         25    1    3    3    0    0 -0.38638919855E+02 -0.18580978409E+02 -0.59797182224E+03  0.61139882162E+03  0.12000000000E+03 0.  0.
<mgrwt>
<rscale>  0 0.27564478E+03</rscale>
<asrwt>0</asrwt>
<pdfrwt beam="1">  1        1 0.13472998E+00 0.27564478E+03</pdfrwt>
<pdfrwt beam="2">  1       -1 0.33369415E-02 0.27564478E+03</pdfrwt>
<totfact> 0.64232236E+03</totfact>
</mgrwt>
</event>
<event>
 5    1  0.1108889E+001  0.2737185E+03  0.7818608E-02  0.1099170E+00
          2   -1    0    0  501    0  0.00000000000E+00  0.00000000000E+00  0.23750914520E+04  0.23750914520E+04  0.00000000000E+00 0.  1.
         -2   -1    0    0    0  501 -0.00000000000E+00 -0.00000000000E+00 -0.78862051777E+01  0.78862051777E+01  0.00000000000E+00 0.  1.
         35    2    1    2    0    0  0.00000000000E+00  0.00000000000E+00  0.23672052469E+04  0.23829776572E+04  0.27371853066E+03 0.  0.
         25    1    3    3    0    0  0.27505173079E+02  0.42739644448E+02  0.81969354383E+03  0.82998838398E+03  0.12000000000E+03 0.  0.
         25    1    3    3    0    0 -0.27505173079E+02 -0.42739644448E+02  0.15475117030E+04  0.15529892732E+04  0.12000000000E+03 0.  0.
<mgrwt>
<rscale>  0 0.27371853E+03</rscale>
<asrwt>0</asrwt>
<pdfrwt beam="1">  1        2 0.36539812E+00 0.27371853E+03</pdfrwt>
<pdfrwt beam="2">  1       -2 0.12132642E-02 0.27371853E+03</pdfrwt>
<totfact> 0.75463454E+03</totfact>
</mgrwt>
</event>
<event>
 5    1  0.1108889E+001  0.2757953E+03  0.7818608E-02  0.1098008E+00
         -1   -1    0    0    0  501 -0.00000000000E+00  0.00000000000E+00  0.20898467854E+03  0.20898467854E+03  0.00000000000E+00 0.  1.
          1   -1    0    0  501    0  0.00000000000E+00 -0.00000000000E+00 -0.90991185048E+02  0.90991185048E+02  0.00000000000E+00 0.  1.
         35    2    1    2    0    0  0.00000000000E+00  0.00000000000E+00  0.11799349349E+03  0.29997586359E+03  0.27579531219E+03 0.  0.
         25    1    3    3    0    0  0.20680105054E+02  0.36902124412E+02  0.11723822568E+01  0.12724310595E+03  0.12000000000E+03 0.  0.
         25    1    3    3    0    0 -0.20680105054E+02 -0.36902124412E+02  0.11682111123E+03  0.17273275764E+03  0.12000000000E+03 0.  0.
<mgrwt>
<rscale>  0 0.27579531E+03</rscale>
<asrwt>0</asrwt>
<pdfrwt beam="1">  1        1 0.13998644E-01 0.27579531E+03</pdfrwt>
<pdfrwt beam="2">  1       -1 0.32151489E-01 0.27579531E+03</pdfrwt>
<totfact> 0.36845038E+03</totfact>
</mgrwt>
</event>
<event>
 5    1  0.1108889E+001  0.2745753E+03  0.7818608E-02  0.1098689E+00
         -2   -1    0    0    0  501 -0.00000000000E+00  0.00000000000E+00  0.19339708012E+02  0.19339708012E+02  0.00000000000E+00 0. -1.
          2   -1    0    0  501    0  0.00000000000E+00 -0.00000000000E+00 -0.97456968022E+03  0.97456968022E+03  0.00000000000E+00 0. -1.
         35    2    1    2    0    0  0.00000000000E+00  0.00000000000E+00 -0.95522997221E+03  0.99390938823E+03  0.27457525783E+03 0.  0.
         25    1    3    3    0    0  0.11445078808E+02 -0.65366853086E+02 -0.45358270153E+03  0.47385766052E+03  0.12000000000E+03 0.  0.
         25    1    3    3    0    0 -0.11445078808E+02  0.65366853086E+02 -0.50164727068E+03  0.52005172771E+03  0.12000000000E+03 0.  0.
<mgrwt>
<rscale>  0 0.27457526E+03</rscale>
<asrwt>0</asrwt>
<pdfrwt beam="1">  1        2 0.14993380E+00 0.27457526E+03</pdfrwt>
<pdfrwt beam="2">  1       -2 0.29753396E-02 0.27457526E+03</pdfrwt>
<totfact> 0.11645008E+04</totfact>
</mgrwt>
</event>
<event>
 5    1  0.1108889E+001  0.2749016E+03  0.7818608E-02  0.1098507E+00
         -1   -1    0    0    0  501 -0.00000000000E+00  0.00000000000E+00  0.55864664137E+02  0.55864664137E+02  0.00000000000E+00 0.  1.
          1   -1    0    0  501    0  0.00000000000E+00 -0.00000000000E+00 -0.33818736351E+03  0.33818736351E+03  0.00000000000E+00 0.  1.
         35    2    1    2    0    0  0.00000000000E+00  0.00000000000E+00 -0.28232269937E+03  0.39405202765E+03  0.27490160769E+03 0.  0.
         25    1    3    3    0    0 -0.50204670326E+02  0.44292994265E+02 -0.14577182856E+03  0.20032923967E+03  0.12000000000E+03 0.  0.
         25    1    3    3    0    0  0.50204670326E+02 -0.44292994265E+02 -0.13655087081E+03  0.19372278798E+03  0.12000000000E+03 0.  0.
<mgrwt>
<rscale>  0 0.27490161E+03</rscale>
<asrwt>0</asrwt>
<pdfrwt beam="1">  1        1 0.52028826E-01 0.27490161E+03</pdfrwt>
<pdfrwt beam="2">  1       -1 0.85945636E-02 0.27490161E+03</pdfrwt>
<totfact> 0.57610023E+03</totfact>
</mgrwt>
</event>
<event>
 5    1  0.1108889E+001  0.2768574E+03  0.7818608E-02  0.1097418E+00
          1   -1    0    0  501    0  0.00000000000E+00  0.00000000000E+00  0.15039560522E+03  0.15039560522E+03  0.00000000000E+00 0.  1.
         -1   -1    0    0    0  501 -0.00000000000E+00 -0.00000000000E+00 -0.12741398508E+03  0.12741398508E+03  0.00000000000E+00 0.  1.
         35    2    1    2    0    0  0.00000000000E+00  0.00000000000E+00  0.22981620131E+02  0.27780959030E+03  0.27685738856E+03 0.  0.
         25    1    3    3    0    0 -0.15112902468E+02  0.57840297095E+02  0.46085515614E+02  0.14176661997E+03  0.12000000000E+03 0.  0.
         25    1    3    3    0    0  0.15112902468E+02 -0.57840297095E+02 -0.23103895483E+02  0.13604297033E+03  0.12000000000E+03 0.  0.
<mgrwt>
<rscale>  0 0.27685739E+03</rscale>
<asrwt>0</asrwt>
<pdfrwt beam="1">  1        1 0.23137785E-01 0.27685739E+03</pdfrwt>
<pdfrwt beam="2">  1       -1 0.19602152E-01 0.27685739E+03</pdfrwt>
<totfact> 0.43787373E+03</totfact>
</mgrwt>
</event>
<event>
 5    1  0.1108889E+001  0.2763032E+03  0.7818608E-02  0.1097725E+00
          2   -1    0    0  501    0  0.00000000000E+00  0.00000000000E+00  0.51348952277E+03  0.51348952277E+03  0.00000000000E+00 0. -1.
         -2   -1    0    0    0  501 -0.00000000000E+00 -0.00000000000E+00 -0.37168938989E+02  0.37168938989E+02  0.00000000000E+00 0. -1.
         35    2    1    2    0    0  0.00000000000E+00  0.00000000000E+00  0.47632058378E+03  0.55065846176E+03  0.27630317221E+03 0.  0.
         25    1    3    3    0    0 -0.66577658008E+02 -0.11429673258E+02  0.21608988531E+03  0.25623828853E+03  0.12000000000E+03 0.  0.
         25    1    3    3    0    0  0.66577658008E+02  0.11429673258E+02  0.26023069847E+03  0.29442017323E+03  0.12000000000E+03 0.  0.
<mgrwt>
<rscale>  0 0.27630317E+03</rscale>
<asrwt>0</asrwt>
<pdfrwt beam="1">  1        2 0.78998383E-01 0.27630317E+03</pdfrwt>
<pdfrwt beam="2">  1       -2 0.57182987E-02 0.27630317E+03</pdfrwt>
<totfact> 0.95752250E+03</totfact>
</mgrwt>
</event>
<event>
 5    1  0.1108889E+001  0.2732391E+03  0.7818608E-02  0.1099440E+00
         -4   -1    0    0    0  501 -0.00000000000E+00  0.00000000000E+00  0.61218198835E+03  0.61218198835E+03  0.00000000000E+00 0.  1.
          4   -1    0    0  501    0  0.00000000000E+00 -0.00000000000E+00 -0.30489129151E+02  0.30489129151E+02  0.00000000000E+00 0.  1.
         35    2    1    2    0    0  0.00000000000E+00  0.00000000000E+00  0.58169285920E+03  0.64267111750E+03  0.27323905802E+03 0.  0.
         25    1    3    3    0    0 -0.20308849744E+02 -0.57914481668E+02  0.23833942809E+03  0.27381055412E+03  0.12000000000E+03 0.  0.
         25    1    3    3    0    0  0.20308849744E+02  0.57914481668E+02  0.34335343111E+03  0.36886056338E+03  0.12000000000E+03 0.  0.
<mgrwt>
<rscale>  0 0.27323906E+03</rscale>
<asrwt>0</asrwt>
<pdfrwt beam="1">  1        4 0.46906357E-02 0.27323906E+03</pdfrwt>
<pdfrwt beam="2">  1       -4 0.94181835E-01 0.27323906E+03</pdfrwt>
<totfact> 0.48619735E+02</totfact>
</mgrwt>
</event>
<event>
 5    1  0.1108889E+001  0.2757695E+03  0.7818608E-02  0.1098022E+00
         -2   -1    0    0    0  501 -0.00000000000E+00  0.00000000000E+00  0.10283272815E+03  0.10283272815E+03  0.00000000000E+00 0.  1.
          2   -1    0    0  501    0  0.00000000000E+00 -0.00000000000E+00 -0.18488480085E+03  0.18488480085E+03  0.00000000000E+00 0.  1.
         35    2    1    2    0    0  0.00000000000E+00  0.00000000000E+00 -0.82052072697E+02  0.28771752900E+03  0.27576953033E+03 0.  0.
         25    1    3    3    0    0  0.49946671979E+02  0.30363994735E+02 -0.77101079984E+02  0.15414674422E+03  0.12000000000E+03 0.  0.
         25    1    3    3    0    0 -0.49946671979E+02 -0.30363994735E+02 -0.49509927135E+01  0.13357078478E+03  0.12000000000E+03 0.  0.
<mgrwt>
<rscale>  0 0.27576953E+03</rscale>
<asrwt>0</asrwt>
<pdfrwt beam="1">  1        2 0.28443815E-01 0.27576953E+03</pdfrwt>
<pdfrwt beam="2">  1       -2 0.15820420E-01 0.27576953E+03</pdfrwt>
<totfact> 0.57854020E+03</totfact>
</mgrwt>
</event>
<event>
 5    1  0.1108889E+001  0.2757414E+03  0.7818608E-02  0.1098038E+00
         -1   -1    0    0    0  501 -0.00000000000E+00  0.00000000000E+00  0.22049676671E+03  0.22049676671E+03  0.00000000000E+00 0. -1.
          1   -1    0    0  501    0  0.00000000000E+00 -0.00000000000E+00 -0.86206861838E+02  0.86206861838E+02  0.00000000000E+00 0. -1.
         35    2    1    2    0    0  0.00000000000E+00  0.00000000000E+00  0.13428990487E+03  0.30670362855E+03  0.27574143180E+03 0.  0.
         25    1    3    3    0    0 -0.52109216707E+02 -0.10467178781E+01  0.18765346281E+02  0.13216884771E+03  0.12000000000E+03 0.  0.
         25    1    3    3    0    0  0.52109216707E+02  0.10467178781E+01  0.11552455859E+03  0.17453478084E+03  0.12000000000E+03 0.  0.
<mgrwt>
<rscale>  0 0.27574143E+03</rscale>
<asrwt>0</asrwt>
<pdfrwt beam="1">  1        1 0.13262594E-01 0.27574143E+03</pdfrwt>
<pdfrwt beam="2">  1       -1 0.33922579E-01 0.27574143E+03</pdfrwt>
<totfact> 0.36074785E+03</totfact>
</mgrwt>
</event>
<event>
 5    1  0.1108889E+001  0.2744433E+03  0.7818608E-02  0.1098763E+00
         -2   -1    0    0    0  501 -0.00000000000E+00  0.00000000000E+00  0.36510569880E+03  0.36510569880E+03  0.00000000000E+00 0. -1.
          2   -1    0    0  501    0  0.00000000000E+00 -0.00000000000E+00 -0.51573512736E+02  0.51573512736E+02  0.00000000000E+00 0. -1.
         35    2    1    2    0    0  0.00000000000E+00  0.00000000000E+00  0.31353218607E+03  0.41667921154E+03  0.27444331588E+03 0.  0.
         25    1    3    3    0    0 -0.98550909880E+01  0.61578358749E+02  0.19207253833E+03  0.23490610266E+03  0.12000000000E+03 0.  0.
         25    1    3    3    0    0  0.98550909880E+01 -0.61578358749E+02  0.12145964774E+03  0.18177310888E+03  0.12000000000E+03 0.  0.
<mgrwt>
<rscale>  0 0.27444332E+03</rscale>
<asrwt>0</asrwt>
<pdfrwt beam="1">  1        2 0.79343868E-02 0.27444332E+03</pdfrwt>
<pdfrwt beam="2">  1       -2 0.56170106E-01 0.27444332E+03</pdfrwt>
<totfact> 0.25969692E+03</totfact>
</mgrwt>
</event>
<event>
 5    1  0.1108889E+001  0.2746104E+03  0.7818608E-02  0.1098670E+00
         -2   -1    0    0    0  501 -0.00000000000E+00  0.00000000000E+00  0.12164889772E+03  0.12164889772E+03  0.00000000000E+00 0. -1.
          2   -1    0    0  501    0  0.00000000000E+00 -0.00000000000E+00 -0.15497645281E+03  0.15497645281E+03  0.00000000000E+00 0. -1.
         35    2    1    2    0    0  0.00000000000E+00  0.00000000000E+00 -0.33327555093E+02  0.27662535053E+03  0.27461037604E+03 0.  0.
         25    1    3    3    0    0 -0.13713902531E+02 -0.60029130364E+02 -0.42565226757E+02  0.14143325685E+03  0.12000000000E+03 0.  0.
         25    1    3    3    0    0  0.13713902531E+02  0.60029130364E+02  0.92376716646E+01  0.13519209368E+03  0.12000000000E+03 0.  0.
<mgrwt>
<rscale>  0 0.27461038E+03</rscale>
<asrwt>0</asrwt>
<pdfrwt beam="1">  1        2 0.23842531E-01 0.27461038E+03</pdfrwt>
<pdfrwt beam="2">  1       -2 0.18715215E-01 0.27461038E+03</pdfrwt>
<totfact> 0.53098229E+03</totfact>
</mgrwt>
</event>
<event>
 5    1  0.1108889E+001  0.2753663E+03  0.7818608E-02  0.1098247E+00
         -1   -1    0    0    0  501 -0.00000000000E+00  0.00000000000E+00  0.18932552264E+02  0.18932552264E+02  0.00000000000E+00 0.  1.
          1   -1    0    0  501    0  0.00000000000E+00 -0.00000000000E+00 -0.10012729242E+04  0.10012729242E+04  0.00000000000E+00 0.  1.
         35    2    1    2    0    0  0.00000000000E+00  0.00000000000E+00 -0.98234037198E+03  0.10202054765E+04  0.27536631580E+03 0.  0.
         25    1    3    3    0    0  0.57246150030E+02 -0.34113077646E+02 -0.45129671818E+03  0.47170918117E+03  0.12000000000E+03 0.  0.
         25    1    3    3    0    0 -0.57246150030E+02  0.34113077646E+02 -0.53104365380E+03  0.54849629534E+03  0.12000000000E+03 0.  0.
<mgrwt>
<rscale>  0 0.27536632E+03</rscale>
<asrwt>0</asrwt>
<pdfrwt beam="1">  1        1 0.15404198E+00 0.27536632E+03</pdfrwt>
<pdfrwt beam="2">  1       -1 0.29127006E-02 0.27536632E+03</pdfrwt>
<totfact> 0.62835052E+03</totfact>
</mgrwt>
</event>
<event>
 5    1  0.1108889E+001  0.2747914E+03  0.7818608E-02  0.1098568E+00
         -2   -1    0    0    0  501 -0.00000000000E+00  0.00000000000E+00  0.13473506534E+02  0.13473506534E+02  0.00000000000E+00 0.  1.
          2   -1    0    0  501    0  0.00000000000E+00 -0.00000000000E+00 -0.14010883083E+04  0.14010883083E+04  0.00000000000E+00 0.  1.
         35    2    1    2    0    0  0.00000000000E+00  0.00000000000E+00 -0.13876148017E+04  0.14145618148E+04  0.27479135704E+03 0.  0.
         25    1    3    3    0    0  0.38575102782E+02  0.15374671551E+02 -0.42370150360E+03  0.44232045310E+03  0.12000000000E+03 0.  0.
         25    1    3    3    0    0 -0.38575102782E+02 -0.15374671551E+02 -0.96391329815E+03  0.97224136172E+03  0.12000000000E+03 0.  0.
<mgrwt>
<rscale>  0 0.27479136E+03</rscale>
<asrwt>0</asrwt>
<pdfrwt beam="1">  1        2 0.21555197E+00 0.27479136E+03</pdfrwt>
<pdfrwt beam="2">  1       -2 0.20728480E-02 0.27479136E+03</pdfrwt>
<totfact> 0.11313886E+04</totfact>
</mgrwt>
</event>
<event>
 5    1  0.1108889E+001  0.2759850E+03  0.7818608E-02  0.1097902E+00
          1   -1    0    0  501    0  0.00000000000E+00  0.00000000000E+00  0.79187755481E+03  0.79187755481E+03  0.00000000000E+00 0.  1.
         -1   -1    0    0    0  501 -0.00000000000E+00 -0.00000000000E+00 -0.24046559079E+02  0.24046559079E+02  0.00000000000E+00 0.  1.
         35    2    1    2    0    0  0.00000000000E+00  0.00000000000E+00  0.76783099573E+03  0.81592411389E+03  0.27598500253E+03 0.  0.
         25    1    3    3    0    0  0.23221409520E+02 -0.64051092996E+02  0.38507579139E+03  0.40905395914E+03  0.12000000000E+03 0.  0.
         25    1    3    3    0    0 -0.23221409520E+02  0.64051092996E+02  0.38275520434E+03  0.40687015475E+03  0.12000000000E+03 0.  0.
<mgrwt>
<rscale>  0 0.27598500E+03</rscale>
<asrwt>0</asrwt>
<pdfrwt beam="1">  1        1 0.12182730E+00 0.27598500E+03</pdfrwt>
<pdfrwt beam="2">  1       -1 0.36994712E-02 0.27598500E+03</pdfrwt>
<totfact> 0.64561586E+03</totfact>
</mgrwt>
</event>
<event>
 5    1  0.1108889E+001  0.2747910E+03  0.7818608E-02  0.1098569E+00
          2   -1    0    0  501    0  0.00000000000E+00  0.00000000000E+00  0.23559134946E+04  0.23559134946E+04  0.00000000000E+00 0. -1.
         -2   -1    0    0    0  501 -0.00000000000E+00 -0.00000000000E+00 -0.80128231349E+01  0.80128231349E+01  0.00000000000E+00 0. -1.
         35    2    1    2    0    0  0.00000000000E+00  0.00000000000E+00  0.23479006715E+04  0.23639263178E+04  0.27479096167E+03 0.  0.
         25    1    3    3    0    0  0.56835207015E+02  0.22258616875E+02  0.93807001286E+03  0.94768192755E+03  0.12000000000E+03 0.  0.
         25    1    3    3    0    0 -0.56835207015E+02 -0.22258616875E+02  0.14098306586E+04  0.14162443902E+04  0.12000000000E+03 0.  0.
<mgrwt>
<rscale>  0 0.27479096E+03</rscale>
<asrwt>0</asrwt>
<pdfrwt beam="1">  1        2 0.36244768E+00 0.27479096E+03</pdfrwt>
<pdfrwt beam="2">  1       -2 0.12327439E-02 0.27479096E+03</pdfrwt>
<totfact> 0.75510182E+03</totfact>
</mgrwt>
</event>
<event>
 5    1  0.1108889E+001  0.2710207E+03  0.7818608E-02  0.1100697E+00
          1   -1    0    0  501    0  0.00000000000E+00  0.00000000000E+00  0.12672559596E+03  0.12672559596E+03  0.00000000000E+00 0.  1.
         -1   -1    0    0    0  501 -0.00000000000E+00 -0.00000000000E+00 -0.14490407992E+03  0.14490407992E+03  0.00000000000E+00 0.  1.
         35    2    1    2    0    0  0.00000000000E+00  0.00000000000E+00 -0.18178483965E+02  0.27162967588E+03  0.27102070685E+03 0.  0.
         25    1    3    3    0    0  0.41725141372E+02  0.45583218541E+00 -0.56331772627E+02  0.13897648655E+03  0.12000000000E+03 0.  0.
         25    1    3    3    0    0 -0.41725141372E+02 -0.45583218541E+00  0.38153288662E+02  0.13265318934E+03  0.12000000000E+03 0.  0.
<mgrwt>
<rscale>  0 0.27102071E+03</rscale>
<asrwt>0</asrwt>
<pdfrwt beam="1">  1        1 0.19496246E-01 0.27102071E+03</pdfrwt>
<pdfrwt beam="2">  1       -1 0.22292935E-01 0.27102071E+03</pdfrwt>
<totfact> 0.44192593E+03</totfact>
</mgrwt>
</event>
<event>
 5    1  0.1108889E+001  0.2742946E+03  0.7818608E-02  0.1098847E+00
          2   -1    0    0  501    0  0.00000000000E+00  0.00000000000E+00  0.72347671781E+03  0.72347671781E+03  0.00000000000E+00 0. -1.
         -2   -1    0    0    0  501 -0.00000000000E+00 -0.00000000000E+00 -0.25998599028E+02  0.25998599028E+02  0.00000000000E+00 0. -1.
         35    2    1    2    0    0  0.00000000000E+00  0.00000000000E+00  0.69747811878E+03  0.74947531683E+03  0.27429459413E+03 0.  0.
         25    1    3    3    0    0 -0.99826185682E+01  0.57602912245E+02  0.26269605748E+03  0.29466415932E+03  0.12000000000E+03 0.  0.
         25    1    3    3    0    0  0.99826185682E+01 -0.57602912245E+02  0.43478206130E+03  0.45481115752E+03  0.12000000000E+03 0.  0.
<mgrwt>
<rscale>  0 0.27429459E+03</rscale>
<asrwt>0</asrwt>
<pdfrwt beam="1">  1        2 0.11130410E+00 0.27429459E+03</pdfrwt>
<pdfrwt beam="2">  1       -2 0.39997850E-02 0.27429459E+03</pdfrwt>
<totfact> 0.11024851E+04</totfact>
</mgrwt>
</event>
<event>
 5    1  0.1108889E+001  0.2742185E+03  0.7818608E-02  0.1098889E+00
          2   -1    0    0  501    0  0.00000000000E+00  0.00000000000E+00  0.96012663317E+03  0.96012663317E+03  0.00000000000E+00 0.  1.
         -2   -1    0    0    0  501 -0.00000000000E+00 -0.00000000000E+00 -0.19579650199E+02  0.19579650199E+02  0.00000000000E+00 0.  1.
         35    2    1    2    0    0  0.00000000000E+00  0.00000000000E+00  0.94054698297E+03  0.97970628337E+03  0.27421847950E+03 0.  0.
         25    1    3    3    0    0  0.55503071982E+02 -0.36660853517E+01  0.59933295670E+03  0.61375404208E+03  0.12000000000E+03 0.  0.
         25    1    3    3    0    0 -0.55503071982E+02  0.36660853517E+01  0.34121402627E+03  0.36595224129E+03  0.12000000000E+03 0.  0.
<mgrwt>
<rscale>  0 0.27421848E+03</rscale>
<asrwt>0</asrwt>
<pdfrwt beam="1">  1        2 0.14771175E+00 0.27421848E+03</pdfrwt>
<pdfrwt beam="2">  1       -2 0.30122546E-02 0.27421848E+03</pdfrwt>
<totfact> 0.11671904E+04</totfact>
</mgrwt>
</event>
<event>
 5    1  0.1108889E+001  0.2763477E+03  0.7818608E-02  0.1097701E+00
         -3   -1    0    0    0  501 -0.00000000000E+00  0.00000000000E+00  0.68028628360E+02  0.68028628360E+02  0.00000000000E+00 0.  1.
          3   -1    0    0  501    0  0.00000000000E+00 -0.00000000000E+00 -0.28064684109E+03  0.28064684109E+03  0.00000000000E+00 0.  1.
         35    2    1    2    0    0  0.00000000000E+00  0.00000000000E+00 -0.21261821273E+03  0.34867546945E+03  0.27634774942E+03 0.  0.
         25    1    3    3    0    0 -0.14099956646E+02 -0.45835759736E+01 -0.21931703481E+02  0.12288538385E+03  0.12000000000E+03 0.  0.
         25    1    3    3    0    0  0.14099956646E+02  0.45835759736E+01 -0.19068650925E+03  0.22579008560E+03  0.12000000000E+03 0.  0.
<mgrwt>
<rscale>  0 0.27634775E+03</rscale>
<asrwt>0</asrwt>
<pdfrwt beam="1">  1        3 0.43176436E-01 0.27634775E+03</pdfrwt>
<pdfrwt beam="2">  1       -3 0.10465943E-01 0.27634775E+03</pdfrwt>
<totfact> 0.93074074E+02</totfact>
</mgrwt>
</event>
<event>
 5    1  0.1108889E+001  0.2789622E+03  0.7818608E-02  0.1096257E+00
          1   -1    0    0  501    0  0.00000000000E+00  0.00000000000E+00  0.73206623154E+03  0.73206623154E+03  0.00000000000E+00 0.  1.
         -1   -1    0    0    0  501 -0.00000000000E+00 -0.00000000000E+00 -0.26575426668E+02  0.26575426668E+02  0.00000000000E+00 0.  1.
         35    2    1    2    0    0  0.00000000000E+00  0.00000000000E+00  0.70549080487E+03  0.75864165821E+03  0.27896216555E+03 0.  0.
         25    1    3    3    0    0 -0.44465878900E+02 -0.40731600731E+02  0.25031335240E+03  0.28406522503E+03  0.12000000000E+03 0.  0.
         25    1    3    3    0    0  0.44465878900E+02  0.40731600731E+02  0.45517745247E+03  0.47457643317E+03  0.12000000000E+03 0.  0.
<mgrwt>
<rscale>  0 0.27896217E+03</rscale>
<asrwt>0</asrwt>
<pdfrwt beam="1">  1        1 0.11262556E+00 0.27896217E+03</pdfrwt>
<pdfrwt beam="2">  1       -1 0.40885277E-02 0.27896217E+03</pdfrwt>
<totfact> 0.62659773E+03</totfact>
</mgrwt>
</event>
<event>
 5    1  0.1108889E+001  0.2751321E+03  0.7818608E-02  0.1098378E+00
          2   -1    0    0  501    0  0.00000000000E+00  0.00000000000E+00  0.13367750854E+04  0.13367750854E+04  0.00000000000E+00 0. -1.
         -2   -1    0    0    0  501 -0.00000000000E+00 -0.00000000000E+00 -0.14156765996E+02  0.14156765996E+02  0.00000000000E+00 0. -1.
         35    2    1    2    0    0  0.00000000000E+00  0.00000000000E+00  0.13226183194E+04  0.13509318514E+04  0.27513205609E+03 0.  0.
         25    1    3    3    0    0  0.40753712085E+02 -0.44516081477E+01  0.39946888776E+03  0.41911343828E+03  0.12000000000E+03 0.  0.
         25    1    3    3    0    0 -0.40753712085E+02  0.44516081477E+01  0.92314943163E+03  0.93181841310E+03  0.12000000000E+03 0.  0.
<mgrwt>
<rscale>  0 0.27513206E+03</rscale>
<asrwt>0</asrwt>
<pdfrwt beam="1">  1        2 0.20565761E+00 0.27513206E+03</pdfrwt>
<pdfrwt beam="2">  1       -2 0.21779650E-02 0.27513206E+03</pdfrwt>
<totfact> 0.11404856E+04</totfact>
</mgrwt>
</event>
<event>
 5    1  0.1108889E+001  0.2755551E+03  0.7818608E-02  0.1098142E+00
          1   -1    0    0  501    0  0.00000000000E+00  0.00000000000E+00  0.45502700305E+03  0.45502700305E+03  0.00000000000E+00 0. -1.
         -1   -1    0    0    0  501 -0.00000000000E+00 -0.00000000000E+00 -0.41717629218E+02  0.41717629218E+02  0.00000000000E+00 0. -1.
         35    2    1    2    0    0  0.00000000000E+00  0.00000000000E+00  0.41330937383E+03  0.49674463227E+03  0.27555506018E+03 0.  0.
         25    1    3    3    0    0  0.12450816679E+02  0.64990362511E+02  0.23239475549E+03  0.26978897760E+03  0.12000000000E+03 0.  0.
         25    1    3    3    0    0 -0.12450816679E+02 -0.64990362511E+02  0.18091461834E+03  0.22695565467E+03  0.12000000000E+03 0.  0.
<mgrwt>
<rscale>  0 0.27555506E+03</rscale>
<asrwt>0</asrwt>
<pdfrwt beam="1">  1        1 0.70004151E-01 0.27555506E+03</pdfrwt>
<pdfrwt beam="2">  1       -1 0.64180971E-02 0.27555506E+03</pdfrwt>
<totfact> 0.61426406E+03</totfact>
</mgrwt>
</event>
<event>
 5    1  0.1108889E+001  0.2734722E+03  0.7818608E-02  0.1099309E+00
         -1   -1    0    0    0  501 -0.00000000000E+00  0.00000000000E+00  0.46020733617E+03  0.46020733617E+03  0.00000000000E+00 0. -1.
          1   -1    0    0  501    0  0.00000000000E+00 -0.00000000000E+00 -0.40626812886E+02  0.40626812886E+02  0.00000000000E+00 0. -1.
         35    2    1    2    0    0  0.00000000000E+00  0.00000000000E+00  0.41958052328E+03  0.50083414906E+03  0.27347217288E+03 0.  0.
         25    1    3    3    0    0 -0.48186167273E+02 -0.42244439314E+02  0.18452916407E+03  0.22925425135E+03  0.12000000000E+03 0.  0.
         25    1    3    3    0    0  0.48186167273E+02  0.42244439314E+02  0.23505135921E+03  0.27157989771E+03  0.12000000000E+03 0.  0.
<mgrwt>
<rscale>  0 0.27347217E+03</rscale>
<asrwt>0</asrwt>
<pdfrwt beam="1">  1        1 0.62502792E-02 0.27347217E+03</pdfrwt>
<pdfrwt beam="2">  1       -1 0.70801125E-01 0.27347217E+03</pdfrwt>
<totfact> 0.25522437E+03</totfact>
</mgrwt>
</event>
<event>
 5    1  0.1108889E+001  0.2753529E+03  0.7818608E-02  0.1098254E+00
         -2   -1    0    0    0  501 -0.00000000000E+00  0.00000000000E+00  0.33033172624E+02  0.33033172624E+02  0.00000000000E+00 0. -1.
          2   -1    0    0  501    0  0.00000000000E+00 -0.00000000000E+00 -0.57381125736E+03  0.57381125736E+03  0.00000000000E+00 0. -1.
         35    2    1    2    0    0  0.00000000000E+00  0.00000000000E+00 -0.54077808474E+03  0.60684442999E+03  0.27535291041E+03 0.  0.
         25    1    3    3    0    0  0.61070788451E+02  0.20862438317E+02 -0.22687017721E+03  0.26464119075E+03  0.12000000000E+03 0.  0.
         25    1    3    3    0    0 -0.61070788451E+02 -0.20862438317E+02 -0.31390790753E+03  0.34220323923E+03  0.12000000000E+03 0.  0.
<mgrwt>
<rscale>  0 0.27535291E+03</rscale>
<asrwt>0</asrwt>
<pdfrwt beam="1">  1        2 0.88278654E-01 0.27535291E+03</pdfrwt>
<pdfrwt beam="2">  1       -2 0.50820266E-02 0.27535291E+03</pdfrwt>
<totfact> 0.10102730E+04</totfact>
</mgrwt>
</event>
<event>
 5    1  0.1108889E+001  0.2685932E+03  0.7818608E-02  0.1102087E+00
         -2   -1    0    0    0  501 -0.00000000000E+00  0.00000000000E+00  0.59167167149E+01  0.59167167149E+01  0.00000000000E+00 0. -1.
          2   -1    0    0  501    0  0.00000000000E+00 -0.00000000000E+00 -0.30482406629E+04  0.30482406629E+04  0.00000000000E+00 0. -1.
         35    2    1    2    0    0  0.00000000000E+00  0.00000000000E+00 -0.30423239462E+04  0.30541573796E+04  0.26859319784E+03 0.  0.
         25    1    3    3    0    0 -0.16404577653E+02  0.41823506925E+02 -0.10638775550E+04  0.10715660352E+04  0.12000000000E+03 0.  0.
         25    1    3    3    0    0  0.16404577653E+02 -0.41823506925E+02 -0.19784463912E+04  0.19825913444E+04  0.12000000000E+03 0.  0.
<mgrwt>
<rscale>  0 0.26859320E+03</rscale>
<asrwt>0</asrwt>
<pdfrwt beam="1">  1        2 0.46896060E+00 0.26859320E+03</pdfrwt>
<pdfrwt beam="2">  1       -2 0.91026314E-03 0.26859320E+03</pdfrwt>
<totfact> 0.47685742E+03</totfact>
</mgrwt>
</event>
<event>
 5    1  0.1108889E+001  0.2753891E+03  0.7818608E-02  0.1098234E+00
          2   -1    0    0  501    0  0.00000000000E+00  0.00000000000E+00  0.10745828448E+04  0.10745828448E+04  0.00000000000E+00 0.  1.
         -2   -1    0    0    0  501 -0.00000000000E+00 -0.00000000000E+00 -0.17643860628E+02  0.17643860628E+02  0.00000000000E+00 0.  1.
         35    2    1    2    0    0  0.00000000000E+00  0.00000000000E+00  0.10569389842E+04  0.10922267055E+04  0.27538910616E+03 0.  0.
         25    1    3    3    0    0  0.49874012643E+02  0.45481002566E+02  0.53625281359E+03  0.55364521024E+03  0.12000000000E+03 0.  0.
         25    1    3    3    0    0 -0.49874012643E+02 -0.45481002566E+02  0.52068617062E+03  0.53858149523E+03  0.12000000000E+03 0.  0.
<mgrwt>
<rscale>  0 0.27538911E+03</rscale>
<asrwt>0</asrwt>
<pdfrwt beam="1">  1        2 0.16532039E+00 0.27538911E+03</pdfrwt>
<pdfrwt beam="2">  1       -2 0.27144409E-02 0.27538911E+03</pdfrwt>
<totfact> 0.11608589E+04</totfact>
</mgrwt>
</event>
<event>
 5    1  0.1108889E+001  0.2734805E+03  0.7818608E-02  0.1099304E+00
         -2   -1    0    0    0  501 -0.00000000000E+00  0.00000000000E+00  0.12315150476E+02  0.12315150476E+02  0.00000000000E+00 0. -1.
          2   -1    0    0  501    0  0.00000000000E+00 -0.00000000000E+00 -0.15182839201E+04  0.15182839201E+04  0.00000000000E+00 0. -1.
         35    2    1    2    0    0  0.00000000000E+00  0.00000000000E+00 -0.15059687696E+04  0.15305990706E+04  0.27348049248E+03 0.  0.
         25    1    3    3    0    0  0.27494679881E+02 -0.14175697964E+02 -0.42948572050E+03  0.44700659050E+03  0.12000000000E+03 0.  0.
         25    1    3    3    0    0 -0.27494679881E+02  0.14175697964E+02 -0.10764830491E+04  0.10835924801E+04  0.12000000000E+03 0.  0.
<mgrwt>
<rscale>  0 0.27348049E+03</rscale>
<asrwt>0</asrwt>
<pdfrwt beam="1">  1        2 0.23358203E+00 0.27348049E+03</pdfrwt>
<pdfrwt beam="2">  1       -2 0.18946394E-02 0.27348049E+03</pdfrwt>
<totfact> 0.11166462E+04</totfact>
</mgrwt>
</event>
<event>
 5    1  0.1108889E+001  0.2696746E+03  0.7818608E-02  0.1101466E+00
         -2   -1    0    0    0  501 -0.00000000000E+00  0.00000000000E+00  0.59414153637E+02  0.59414153637E+02  0.00000000000E+00 0.  1.
          2   -1    0    0  501    0  0.00000000000E+00 -0.00000000000E+00 -0.30600611545E+03  0.30600611545E+03  0.00000000000E+00 0.  1.
         35    2    1    2    0    0  0.00000000000E+00  0.00000000000E+00 -0.24659196181E+03  0.36542026909E+03  0.26967457691E+03 0.  0.
         25    1    3    3    0    0 -0.49851234475E+02  0.27804072728E+00 -0.17207505940E+03  0.21562710626E+03  0.12000000000E+03 0.  0.
         25    1    3    3    0    0  0.49851234475E+02 -0.27804072728E+00 -0.74516902412E+02  0.14979316283E+03  0.12000000000E+03 0.  0.
<mgrwt>
<rscale>  0 0.26967458E+03</rscale>
<asrwt>0</asrwt>
<pdfrwt beam="1">  1        2 0.47077863E-01 0.26967458E+03</pdfrwt>
<pdfrwt beam="2">  1       -2 0.91406391E-02 0.26967458E+03</pdfrwt>
<totfact> 0.81239125E+03</totfact>
</mgrwt>
</event>
<event>
 5    1  0.1108889E+001  0.2746901E+03  0.7818608E-02  0.1098625E+00
         -2   -1    0    0    0  501 -0.00000000000E+00  0.00000000000E+00  0.24493112803E+02  0.24493112803E+02  0.00000000000E+00 0. -1.
          2   -1    0    0  501    0  0.00000000000E+00 -0.00000000000E+00 -0.77016201347E+03  0.77016201347E+03  0.00000000000E+00 0. -1.
         35    2    1    2    0    0  0.00000000000E+00  0.00000000000E+00 -0.74566890067E+03  0.79465512628E+03  0.27469011684E+03 0.  0.
         25    1    3    3    0    0  0.42852214979E+02  0.15756610091E+02 -0.51393878627E+03  0.52973357372E+03  0.12000000000E+03 0.  0.
         25    1    3    3    0    0 -0.42852214979E+02 -0.15756610091E+02 -0.23173011440E+03  0.26492155256E+03  0.12000000000E+03 0.  0.
<mgrwt>
<rscale>  0 0.27469012E+03</rscale>
<asrwt>0</asrwt>
<pdfrwt beam="1">  1        2 0.11848648E+00 0.27469012E+03</pdfrwt>
<pdfrwt beam="2">  1       -2 0.37681707E-02 0.27469012E+03</pdfrwt>
<totfact> 0.11159229E+04</totfact>
</mgrwt>
</event>
<event>
 5    1  0.1108889E+001  0.2746967E+03  0.7818608E-02  0.1098621E+00
          2   -1    0    0  501    0  0.00000000000E+00  0.00000000000E+00  0.32361854748E+03  0.32361854748E+03  0.00000000000E+00 0. -1.
         -2   -1    0    0    0  501 -0.00000000000E+00 -0.00000000000E+00 -0.58292600983E+02  0.58292600983E+02  0.00000000000E+00 0. -1.
         35    2    1    2    0    0  0.00000000000E+00  0.00000000000E+00  0.26532594649E+03  0.38191114846E+03  0.27469668261E+03 0.  0.
         25    1    3    3    0    0  0.39731605688E+02  0.29792273327E+02  0.70511890404E+02  0.14777721993E+03  0.12000000000E+03 0.  0.
         25    1    3    3    0    0 -0.39731605688E+02 -0.29792273327E+02  0.19481405609E+03  0.23413392853E+03  0.12000000000E+03 0.  0.
<mgrwt>
<rscale>  0 0.27469668E+03</rscale>
<asrwt>0</asrwt>
<pdfrwt beam="1">  1        2 0.49787468E-01 0.27469668E+03</pdfrwt>
<pdfrwt beam="2">  1       -2 0.89680927E-02 0.27469668E+03</pdfrwt>
<totfact> 0.78883726E+03</totfact>
</mgrwt>
</event>
<event>
 5    1  0.1108889E+001  0.2738292E+03  0.7818608E-02  0.1099108E+00
          2   -1    0    0  501    0  0.00000000000E+00  0.00000000000E+00  0.11121391314E+04  0.11121391314E+04  0.00000000000E+00 0. -1.
         -2   -1    0    0    0  501 -0.00000000000E+00 -0.00000000000E+00 -0.16855451688E+02  0.16855451688E+02  0.00000000000E+00 0. -1.
         35    2    1    2    0    0  0.00000000000E+00  0.00000000000E+00  0.10952836797E+04  0.11289945831E+04  0.27382919786E+03 0.  0.
         25    1    3    3    0    0  0.44815867715E+02 -0.25526170858E+02  0.71691348400E+03  0.72871461557E+03  0.12000000000E+03 0.  0.
         25    1    3    3    0    0 -0.44815867715E+02  0.25526170858E+02  0.37837019573E+03  0.40027996755E+03  0.12000000000E+03 0.  0.
<mgrwt>
<rscale>  0 0.27382920E+03</rscale>
<asrwt>0</asrwt>
<pdfrwt beam="1">  1        2 0.17109827E+00 0.27382920E+03</pdfrwt>
<pdfrwt beam="2">  1       -2 0.25931473E-02 0.27382920E+03</pdfrwt>
<totfact> 0.11803763E+04</totfact>
</mgrwt>
</event>
<event>
 5    1  0.1108889E+001  0.2746299E+03  0.7818608E-02  0.1098659E+00
          2   -1    0    0  501    0  0.00000000000E+00  0.00000000000E+00  0.58652027669E+02  0.58652027669E+02  0.00000000000E+00 0.  1.
         -2   -1    0    0    0  501 -0.00000000000E+00 -0.00000000000E+00 -0.32147906653E+03  0.32147906653E+03  0.00000000000E+00 0.  1.
         35    2    1    2    0    0  0.00000000000E+00  0.00000000000E+00 -0.26282703886E+03  0.38013109420E+03  0.27462992630E+03 0.  0.
         25    1    3    3    0    0  0.34468556303E+02  0.54112567399E+02 -0.15690411752E+03  0.20769004170E+03  0.12000000000E+03 0.  0.
         25    1    3    3    0    0 -0.34468556303E+02 -0.54112567399E+02 -0.10592292134E+03  0.17244105251E+03  0.12000000000E+03 0.  0.
<mgrwt>
<rscale>  0 0.27462993E+03</rscale>
<asrwt>0</asrwt>
<pdfrwt beam="1">  1        2 0.90233889E-02 0.27462993E+03</pdfrwt>
<pdfrwt beam="2">  1       -2 0.49458318E-01 0.27462993E+03</pdfrwt>
<totfact> 0.28531401E+03</totfact>
</mgrwt>
</event>
<event>
 5    1  0.1108889E+001  0.2746719E+03  0.7818608E-02  0.1098635E+00
         -3   -1    0    0    0  501 -0.00000000000E+00  0.00000000000E+00  0.82878424436E+03  0.82878424436E+03  0.00000000000E+00 0.  1.
          3   -1    0    0  501    0  0.00000000000E+00 -0.00000000000E+00 -0.22757629115E+02  0.22757629115E+02  0.00000000000E+00 0.  1.
         35    2    1    2    0    0  0.00000000000E+00  0.00000000000E+00  0.80602661525E+03  0.85154187348E+03  0.27467190937E+03 0.  0.
         25    1    3    3    0    0 -0.52305630199E+02 -0.39374437297E+02  0.44401816571E+03  0.46458406854E+03  0.12000000000E+03 0.  0.
         25    1    3    3    0    0  0.52305630199E+02  0.39374437297E+02  0.36200844954E+03  0.38695780494E+03  0.12000000000E+03 0.  0.
<mgrwt>
<rscale>  0 0.27467191E+03</rscale>
<asrwt>0</asrwt>
<pdfrwt beam="1">  1        3 0.35011744E-02 0.27467191E+03</pdfrwt>
<pdfrwt beam="2">  1       -3 0.12750524E+00 0.27467191E+03</pdfrwt>
<totfact> 0.51850519E+02</totfact>
</mgrwt>
</event>
<event>
 5    1  0.1108889E+001  0.2746929E+03  0.7818608E-02  0.1098623E+00
         -3   -1    0    0    0  501 -0.00000000000E+00  0.00000000000E+00  0.22440379950E+04  0.22440379950E+04  0.00000000000E+00 0.  1.
          3   -1    0    0  501    0  0.00000000000E+00 -0.00000000000E+00 -0.84062969789E+01  0.84062969789E+01  0.00000000000E+00 0.  1.
         35    2    1    2    0    0  0.00000000000E+00  0.00000000000E+00  0.22356316980E+04  0.22524442920E+04  0.27469291813E+03 0.  0.
         25    1    3    3    0    0  0.46329437254E+02 -0.15557883921E+02  0.14913900617E+04  0.14970079427E+04  0.12000000000E+03 0.  0.
         25    1    3    3    0    0 -0.46329437254E+02  0.15557883921E+02  0.74424163635E+03  0.75543634927E+03  0.12000000000E+03 0.  0.
<mgrwt>
<rscale>  0 0.27469292E+03</rscale>
<asrwt>0</asrwt>
<pdfrwt beam="1">  1        3 0.12932782E-02 0.27469292E+03</pdfrwt>
<pdfrwt beam="2">  1       -3 0.34523614E+00 0.27469292E+03</pdfrwt>
<totfact> 0.11795912E+02</totfact>
</mgrwt>
</event>
<event>
 5    1  0.1108889E+001  0.2754202E+03  0.7818608E-02  0.1098217E+00
         -2   -1    0    0    0  501 -0.00000000000E+00  0.00000000000E+00  0.17552900439E+02  0.17552900439E+02  0.00000000000E+00 0. -1.
          2   -1    0    0  501    0  0.00000000000E+00 -0.00000000000E+00 -0.10803956552E+04  0.10803956552E+04  0.00000000000E+00 0. -1.
         35    2    1    2    0    0  0.00000000000E+00  0.00000000000E+00 -0.10628427548E+04  0.10979485557E+04  0.27542024160E+03 0.  0.
         25    1    3    3    0    0 -0.46245396669E+02 -0.44788873830E+02 -0.44978212406E+03  0.46994535752E+03  0.12000000000E+03 0.  0.
         25    1    3    3    0    0  0.46245396669E+02  0.44788873830E+02 -0.61306063072E+03  0.62800319814E+03  0.12000000000E+03 0.  0.
<mgrwt>
<rscale>  0 0.27542024E+03</rscale>
<asrwt>0</asrwt>
<pdfrwt beam="1">  1        2 0.16621472E+00 0.27542024E+03</pdfrwt>
<pdfrwt beam="2">  1       -2 0.27004462E-02 0.27542024E+03</pdfrwt>
<totfact> 0.11605574E+04</totfact>
</mgrwt>
</event>
<event>
 5    1  0.1108889E+001  0.2759055E+03  0.7818608E-02  0.1097947E+00
          1   -1    0    0  501    0  0.00000000000E+00  0.00000000000E+00  0.22077418391E+03  0.22077418391E+03  0.00000000000E+00 0. -1.
         -1   -1    0    0    0  501 -0.00000000000E+00 -0.00000000000E+00 -0.86201029391E+02  0.86201029391E+02  0.00000000000E+00 0. -1.
         35    2    1    2    0    0  0.00000000000E+00  0.00000000000E+00  0.13457315452E+03  0.30697521330E+03  0.27590550495E+03 0.  0.
         25    1    3    3    0    0  0.15061219308E+02 -0.51185178464E+02  0.20290176200E+02  0.13288511607E+03  0.12000000000E+03 0.  0.
         25    1    3    3    0    0 -0.15061219308E+02  0.51185178464E+02  0.11428297831E+03  0.17409009723E+03  0.12000000000E+03 0.  0.
<mgrwt>
<rscale>  0 0.27590550E+03</rscale>
<asrwt>0</asrwt>
<pdfrwt beam="1">  1        1 0.33965259E-01 0.27590550E+03</pdfrwt>
<pdfrwt beam="2">  1       -1 0.13261697E-01 0.27590550E+03</pdfrwt>
<totfact> 0.50245738E+03</totfact>
</mgrwt>
</event>
<event>
 5    1  0.1108889E+001  0.2752149E+03  0.7818608E-02  0.1098332E+00
          3   -1    0    0  501    0  0.00000000000E+00  0.00000000000E+00  0.58830138868E+02  0.58830138868E+02  0.00000000000E+00 0. -1.
         -3   -1    0    0    0  501 -0.00000000000E+00 -0.00000000000E+00 -0.32187253183E+03  0.32187253183E+03  0.00000000000E+00 0. -1.
         35    2    1    2    0    0  0.00000000000E+00  0.00000000000E+00 -0.26304239296E+03  0.38070267070E+03  0.27521486693E+03 0.  0.
         25    1    3    3    0    0 -0.45452050981E+02 -0.42306462189E+02 -0.16759517605E+03  0.21527626139E+03  0.12000000000E+03 0.  0.
         25    1    3    3    0    0  0.45452050981E+02  0.42306462189E+02 -0.95447216912E+02  0.16542640931E+03  0.12000000000E+03 0.  0.
<mgrwt>
<rscale>  0 0.27521487E+03</rscale>
<asrwt>0</asrwt>
<pdfrwt beam="1">  1        3 0.90507906E-02 0.27521487E+03</pdfrwt>
<pdfrwt beam="2">  1       -3 0.49518851E-01 0.27521487E+03</pdfrwt>
<totfact> 0.90167134E+02</totfact>
</mgrwt>
</event>
<event>
 5    1  0.1108889E+001  0.2749598E+03  0.7818608E-02  0.1098474E+00
          2   -1    0    0  501    0  0.00000000000E+00  0.00000000000E+00  0.26132161253E+04  0.26132161253E+04  0.00000000000E+00 0. -1.
         -2   -1    0    0    0  501 -0.00000000000E+00 -0.00000000000E+00 -0.72327436666E+01  0.72327436666E+01  0.00000000000E+00 0. -1.
         35    2    1    2    0    0  0.00000000000E+00  0.00000000000E+00  0.26059833816E+04  0.26204488690E+04  0.27495979619E+03 0.  0.
         25    1    3    3    0    0  0.47216706539E+02  0.37111679300E+02  0.15879505195E+04  0.15936102242E+04  0.12000000000E+03 0.  0.
         25    1    3    3    0    0 -0.47216706539E+02 -0.37111679300E+02  0.10180328621E+04  0.10268386448E+04  0.12000000000E+03 0.  0.
<mgrwt>
<rscale>  0 0.27495980E+03</rscale>
<asrwt>0</asrwt>
<pdfrwt beam="1">  1        2 0.40203250E+00 0.27495980E+03</pdfrwt>
<pdfrwt beam="2">  1       -2 0.11127319E-02 0.27495980E+03</pdfrwt>
<totfact> 0.63383232E+03</totfact>
</mgrwt>
</event>
<event>
 5    1  0.1108889E+001  0.2762537E+03  0.7818608E-02  0.1097753E+00
         -2   -1    0    0    0  501 -0.00000000000E+00  0.00000000000E+00  0.25038918039E+02  0.25038918039E+02  0.00000000000E+00 0. -1.
          2   -1    0    0  501    0  0.00000000000E+00 -0.00000000000E+00 -0.76197477241E+03  0.76197477241E+03  0.00000000000E+00 0. -1.
         35    2    1    2    0    0  0.00000000000E+00  0.00000000000E+00 -0.73693585437E+03  0.78701369045E+03  0.27625367961E+03 0.  0.
         25    1    3    3    0    0 -0.12963456457E+01  0.40851631884E+02 -0.21220774585E+03  0.24718952999E+03  0.12000000000E+03 0.  0.
         25    1    3    3    0    0  0.12963456457E+01 -0.40851631884E+02 -0.52472810852E+03  0.53982416046E+03  0.12000000000E+03 0.  0.
<mgrwt>
<rscale>  0 0.27625368E+03</rscale>
<asrwt>0</asrwt>
<pdfrwt beam="1">  1        2 0.11722687E+00 0.27625368E+03</pdfrwt>
<pdfrwt beam="2">  1       -2 0.38521419E-02 0.27625368E+03</pdfrwt>
<totfact> 0.10943659E+04</totfact>
</mgrwt>
</event>
<event>
 5    1  0.1108889E+001  0.2697100E+03  0.7818608E-02  0.1101446E+00
          1   -1    0    0  501    0  0.00000000000E+00  0.00000000000E+00  0.28595833095E+04  0.28595833095E+04  0.00000000000E+00 0.  1.
         -1   -1    0    0    0  501 -0.00000000000E+00 -0.00000000000E+00 -0.63596248263E+01  0.63596248263E+01  0.00000000000E+00 0.  1.
         35    2    1    2    0    0  0.00000000000E+00  0.00000000000E+00  0.28532236847E+04  0.28659429344E+04  0.26971004437E+03 0.  0.
         25    1    3    3    0    0  0.16497376008E+02  0.33526075341E+02  0.90716208040E+03  0.91582705860E+03  0.12000000000E+03 0.  0.
         25    1    3    3    0    0 -0.16497376008E+02 -0.33526075341E+02  0.19460616043E+04  0.19501158758E+04  0.12000000000E+03 0.  0.
<mgrwt>
<rscale>  0 0.26971004E+03</rscale>
<asrwt>0</asrwt>
<pdfrwt beam="1">  1        1 0.43993487E+00 0.26971004E+03</pdfrwt>
<pdfrwt beam="2">  1       -1 0.97840610E-03 0.26971004E+03</pdfrwt>
<totfact> 0.17596126E+03</totfact>
</mgrwt>
</event>
<event>
 5    1  0.1108889E+001  0.2749855E+03  0.7818608E-02  0.1098460E+00
         -1   -1    0    0    0  501 -0.00000000000E+00  0.00000000000E+00  0.31142212629E+02  0.31142212629E+02  0.00000000000E+00 0. -1.
          1   -1    0    0  501    0  0.00000000000E+00 -0.00000000000E+00 -0.60703004544E+03  0.60703004544E+03  0.00000000000E+00 0. -1.
         35    2    1    2    0    0  0.00000000000E+00  0.00000000000E+00 -0.57588783281E+03  0.63817225807E+03  0.27498551778E+03 0.  0.
         25    1    3    3    0    0 -0.45722489979E+02 -0.48412915860E+02 -0.26854070433E+03  0.30157663436E+03  0.12000000000E+03 0.  0.
         25    1    3    3    0    0  0.45722489979E+02  0.48412915860E+02 -0.30734712848E+03  0.33659562371E+03  0.12000000000E+03 0.  0.
<mgrwt>
<rscale>  0 0.27498552E+03</rscale>
<asrwt>0</asrwt>
<pdfrwt beam="1">  1        1 0.93389239E-01 0.27498552E+03</pdfrwt>
<pdfrwt beam="2">  1       -1 0.47911096E-02 0.27498552E+03</pdfrwt>
<totfact> 0.64698722E+03</totfact>
</mgrwt>
</event>
<event>
 5    1  0.1108889E+001  0.2758869E+03  0.7818608E-02  0.1097957E+00
          1   -1    0    0  501    0  0.00000000000E+00  0.00000000000E+00  0.43243929810E+03  0.43243929810E+03  0.00000000000E+00 0. -1.
         -1   -1    0    0    0  501 -0.00000000000E+00 -0.00000000000E+00 -0.44002471952E+02  0.44002471952E+02  0.00000000000E+00 0. -1.
         35    2    1    2    0    0  0.00000000000E+00  0.00000000000E+00  0.38843682615E+03  0.47644177006E+03  0.27588691949E+03 0.  0.
         25    1    3    3    0    0  0.23136186831E+02 -0.16749663983E+02  0.30085034406E+03  0.32515652217E+03  0.12000000000E+03 0.  0.
         25    1    3    3    0    0 -0.23136186831E+02  0.16749663983E+02  0.87586482091E+02  0.15128524789E+03  0.12000000000E+03 0.  0.
<mgrwt>
<rscale>  0 0.27588692E+03</rscale>
<asrwt>0</asrwt>
<pdfrwt beam="1">  1        1 0.66529120E-01 0.27588692E+03</pdfrwt>
<pdfrwt beam="2">  1       -1 0.67696114E-02 0.27588692E+03</pdfrwt>
<totfact> 0.60543562E+03</totfact>
</mgrwt>
</event>
<event>
 5    1  0.1108889E+001  0.2751153E+03  0.7818608E-02  0.1098387E+00
          2   -1    0    0  501    0  0.00000000000E+00  0.00000000000E+00  0.15417313349E+03  0.15417313349E+03  0.00000000000E+00 0. -1.
         -2   -1    0    0    0  501 -0.00000000000E+00 -0.00000000000E+00 -0.12273284720E+03  0.12273284720E+03  0.00000000000E+00 0. -1.
         35    2    1    2    0    0  0.00000000000E+00  0.00000000000E+00  0.31440286292E+02  0.27690598069E+03  0.27511530408E+03 0.  0.
         25    1    3    3    0    0 -0.49981962236E+02  0.16352418423E+02 -0.26463378853E+02  0.13366341518E+03  0.12000000000E+03 0.  0.
         25    1    3    3    0    0  0.49981962236E+02 -0.16352418423E+02  0.57903665145E+02  0.14324256551E+03  0.12000000000E+03 0.  0.
<mgrwt>
<rscale>  0 0.27511530E+03</rscale>
<asrwt>0</asrwt>
<pdfrwt beam="1">  1        2 0.23718943E-01 0.27511530E+03</pdfrwt>
<pdfrwt beam="2">  1       -2 0.18881977E-01 0.27511530E+03</pdfrwt>
<totfact> 0.52614557E+03</totfact>
</mgrwt>
</event>
<event>
 5    1  0.1108889E+001  0.2763896E+03  0.7818608E-02  0.1097677E+00
          2   -1    0    0  501    0  0.00000000000E+00  0.00000000000E+00  0.73494483765E+03  0.73494483765E+03  0.00000000000E+00 0.  1.
         -2   -1    0    0    0  501 -0.00000000000E+00 -0.00000000000E+00 -0.25985349058E+02  0.25985349058E+02  0.00000000000E+00 0.  1.
         35    2    1    2    0    0  0.00000000000E+00  0.00000000000E+00  0.70895948859E+03  0.76093018671E+03  0.27638956670E+03 0.  0.
         25    1    3    3    0    0 -0.99185833516E+01 -0.33694560661E+01  0.54096221979E+03  0.55421102007E+03  0.12000000000E+03 0.  0.
         25    1    3    3    0    0  0.99185833516E+01  0.33694560661E+01  0.16799726881E+03  0.20671916664E+03  0.12000000000E+03 0.  0.
<mgrwt>
<rscale>  0 0.27638957E+03</rscale>
<asrwt>0</asrwt>
<pdfrwt beam="1">  1        2 0.11306842E+00 0.27638957E+03</pdfrwt>
<pdfrwt beam="2">  1       -2 0.39977466E-02 0.27638957E+03</pdfrwt>
<totfact> 0.10824880E+04</totfact>
</mgrwt>
</event>
<event>
 5    1  0.1108889E+001  0.2746447E+03  0.7818608E-02  0.1098650E+00
         -1   -1    0    0    0  501 -0.00000000000E+00  0.00000000000E+00  0.37511277471E+03  0.37511277471E+03  0.00000000000E+00 0.  1.
          1   -1    0    0  501    0  0.00000000000E+00 -0.00000000000E+00 -0.50271353354E+02  0.50271353354E+02  0.00000000000E+00 0.  1.
         35    2    1    2    0    0  0.00000000000E+00  0.00000000000E+00  0.32484142135E+03  0.42538412806E+03  0.27464469298E+03 0.  0.
         25    1    3    3    0    0 -0.21064203900E+02  0.48037718614E+02  0.22639607808E+03  0.26154637690E+03  0.12000000000E+03 0.  0.
         25    1    3    3    0    0  0.21064203900E+02 -0.48037718614E+02  0.98445343269E+02  0.16383775117E+03  0.12000000000E+03 0.  0.
<mgrwt>
<rscale>  0 0.27464469E+03</rscale>
<asrwt>0</asrwt>
<pdfrwt beam="1">  1        1 0.77340546E-02 0.27464469E+03</pdfrwt>
<pdfrwt beam="2">  1       -1 0.57709656E-01 0.27464469E+03</pdfrwt>
<totfact> 0.28438849E+03</totfact>
</mgrwt>
</event>
<event>
 5    1  0.1108889E+001  0.2752272E+03  0.7818608E-02  0.1098325E+00
          2   -1    0    0  501    0  0.00000000000E+00  0.00000000000E+00  0.18681063848E+04  0.18681063848E+04  0.00000000000E+00 0. -1.
         -2   -1    0    0    0  501 -0.00000000000E+00 -0.00000000000E+00 -0.10137273112E+02  0.10137273112E+02  0.00000000000E+00 0. -1.
         35    2    1    2    0    0  0.00000000000E+00  0.00000000000E+00  0.18579691117E+04  0.18782436579E+04  0.27522721249E+03 0.  0.
         25    1    3    3    0    0 -0.65173773487E+02  0.27539796479E+01  0.10436455204E+04  0.10525450952E+04  0.12000000000E+03 0.  0.
         25    1    3    3    0    0  0.65173773487E+02 -0.27539796479E+01  0.81432359133E+03  0.82569856276E+03  0.12000000000E+03 0.  0.
<mgrwt>
<rscale>  0 0.27522721E+03</rscale>
<asrwt>0</asrwt>
<pdfrwt beam="1">  1        2 0.28740071E+00 0.27522721E+03</pdfrwt>
<pdfrwt beam="2">  1       -2 0.15595820E-02 0.27522721E+03</pdfrwt>
<totfact> 0.97122381E+03</totfact>
</mgrwt>
</event>
<event>
 5    1  0.1108889E+001  0.2755417E+03  0.7818608E-02  0.1098149E+00
          1   -1    0    0  501    0  0.00000000000E+00  0.00000000000E+00  0.24723761728E+03  0.24723761728E+03  0.00000000000E+00 0. -1.
         -1   -1    0    0    0  501 -0.00000000000E+00 -0.00000000000E+00 -0.76771506835E+02  0.76771506835E+02  0.00000000000E+00 0. -1.
         35    2    1    2    0    0  0.00000000000E+00  0.00000000000E+00  0.17046611045E+03  0.32400912412E+03  0.27554168051E+03 0.  0.
         25    1    3    3    0    0  0.27946579456E+02  0.61566374599E+02  0.88833426173E+02  0.16389877178E+03  0.12000000000E+03 0.  0.
         25    1    3    3    0    0 -0.27946579456E+02 -0.61566374599E+02  0.81632684276E+02  0.16011035234E+03  0.12000000000E+03 0.  0.
<mgrwt>
<rscale>  0 0.27554168E+03</rscale>
<asrwt>0</asrwt>
<pdfrwt beam="1">  1        1 0.38036556E-01 0.27554168E+03</pdfrwt>
<pdfrwt beam="2">  1       -1 0.11811001E-01 0.27554168E+03</pdfrwt>
<totfact> 0.52254793E+03</totfact>
</mgrwt>
</event>
<event>
 5    1  0.1108889E+001  0.2775780E+03  0.7818608E-02  0.1097019E+00
         -2   -1    0    0    0  501 -0.00000000000E+00  0.00000000000E+00  0.45731667362E+02  0.45731667362E+02  0.00000000000E+00 0. -1.
          2   -1    0    0  501    0  0.00000000000E+00 -0.00000000000E+00 -0.42120443767E+03  0.42120443767E+03  0.00000000000E+00 0. -1.
         35    2    1    2    0    0  0.00000000000E+00  0.00000000000E+00 -0.37547277031E+03  0.46693610503E+03  0.27757796191E+03 0.  0.
         25    1    3    3    0    0 -0.44959235951E+02  0.41385724943E+02 -0.24424036195E+03  0.27890404359E+03  0.12000000000E+03 0.  0.
         25    1    3    3    0    0  0.44959235951E+02 -0.41385724943E+02 -0.13123240836E+03  0.18803206144E+03  0.12000000000E+03 0.  0.
<mgrwt>
<rscale>  0 0.27757796E+03</rscale>
<asrwt>0</asrwt>
<pdfrwt beam="1">  1        2 0.64800683E-01 0.27757796E+03</pdfrwt>
<pdfrwt beam="2">  1       -2 0.70356411E-02 0.27757796E+03</pdfrwt>
<totfact> 0.86667272E+03</totfact>
</mgrwt>
</event>
<event>
 5    1  0.1108889E+001  0.2760239E+03  0.7818608E-02  0.1097881E+00
          1   -1    0    0  501    0  0.00000000000E+00  0.00000000000E+00  0.92662068730E+03  0.92662068730E+03  0.00000000000E+00 0.  1.
         -1   -1    0    0    0  501 -0.00000000000E+00 -0.00000000000E+00 -0.20555654625E+02  0.20555654625E+02  0.00000000000E+00 0.  1.
         35    2    1    2    0    0  0.00000000000E+00  0.00000000000E+00  0.90606503268E+03  0.94717634193E+03  0.27602387445E+03 0.  0.
         25    1    3    3    0    0 -0.40941693268E+02 -0.44105039691E+02  0.34312703285E+03  0.36845303289E+03  0.12000000000E+03 0.  0.
         25    1    3    3    0    0  0.40941693268E+02  0.44105039691E+02  0.56293799982E+03  0.57872330903E+03  0.12000000000E+03 0.  0.
<mgrwt>
<rscale>  0 0.27602387E+03</rscale>
<asrwt>0</asrwt>
<pdfrwt beam="1">  1        1 0.14255700E+00 0.27602387E+03</pdfrwt>
<pdfrwt beam="2">  1       -1 0.31624091E-02 0.27602387E+03</pdfrwt>
<totfact> 0.63431721E+03</totfact>
</mgrwt>
</event>
<event>
 5    1  0.1108889E+001  0.2785726E+03  0.7818608E-02  0.1096471E+00
         -2   -1    0    0    0  501 -0.00000000000E+00  0.00000000000E+00  0.46595174637E+02  0.46595174637E+02  0.00000000000E+00 0.  1.
          2   -1    0    0  501    0  0.00000000000E+00 -0.00000000000E+00 -0.41636644261E+03  0.41636644261E+03  0.00000000000E+00 0.  1.
         35    2    1    2    0    0  0.00000000000E+00  0.00000000000E+00 -0.36977126798E+03  0.46296161725E+03  0.27857255505E+03 0.  0.
         25    1    3    3    0    0 -0.60590596706E+02  0.36461429471E+02 -0.18471245766E+03  0.23134249126E+03  0.12000000000E+03 0.  0.
         25    1    3    3    0    0  0.60590596706E+02 -0.36461429471E+02 -0.18505881032E+03  0.23161912599E+03  0.12000000000E+03 0.  0.
<mgrwt>
<rscale>  0 0.27857256E+03</rscale>
<asrwt>0</asrwt>
<pdfrwt beam="1">  1        2 0.64056372E-01 0.27857256E+03</pdfrwt>
<pdfrwt beam="2">  1       -2 0.71684888E-02 0.27857256E+03</pdfrwt>
<totfact> 0.85270450E+03</totfact>
</mgrwt>
</event>
<event>
 5    1  0.1108889E+001  0.2732716E+03  0.7818608E-02  0.1099422E+00
          2   -1    0    0  501    0  0.00000000000E+00  0.00000000000E+00  0.18452839891E+04  0.18452839891E+04  0.00000000000E+00 0.  1.
         -2   -1    0    0    0  501 -0.00000000000E+00 -0.00000000000E+00 -0.10117323750E+02  0.10117323750E+02  0.00000000000E+00 0.  1.
         35    2    1    2    0    0  0.00000000000E+00  0.00000000000E+00  0.18351666654E+04  0.18554013129E+04  0.27327155380E+03 0.  0.
         25    1    3    3    0    0 -0.56972555767E+02 -0.34242197557E+01  0.11335454088E+04  0.11413074920E+04  0.12000000000E+03 0.  0.
         25    1    3    3    0    0  0.56972555767E+02  0.34242197557E+01  0.70162125656E+03  0.71409382090E+03  0.12000000000E+03 0.  0.
<mgrwt>
<rscale>  0 0.27327155E+03</rscale>
<asrwt>0</asrwt>
<pdfrwt beam="1">  1        2 0.28388958E+00 0.27327155E+03</pdfrwt>
<pdfrwt beam="2">  1       -2 0.15565128E-02 0.27327155E+03</pdfrwt>
<totfact> 0.10011680E+04</totfact>
</mgrwt>
</event>
<event>
 5    1  0.1108889E+001  0.2756735E+03  0.7818608E-02  0.1098076E+00
         -2   -1    0    0    0  501 -0.00000000000E+00  0.00000000000E+00  0.39856062389E+03  0.39856062389E+03  0.00000000000E+00 0. -1.
          2   -1    0    0  501    0  0.00000000000E+00 -0.00000000000E+00 -0.47668956460E+02  0.47668956460E+02  0.00000000000E+00 0. -1.
         35    2    1    2    0    0  0.00000000000E+00  0.00000000000E+00  0.35089166743E+03  0.44622958035E+03  0.27567349547E+03 0.  0.
         25    1    3    3    0    0  0.67823961764E+01  0.10861437421E+01  0.66237853143E+02  0.13723933035E+03  0.12000000000E+03 0.  0.
         25    1    3    3    0    0 -0.67823961764E+01 -0.10861437421E+01  0.28465381428E+03  0.30899025000E+03  0.12000000000E+03 0.  0.
<mgrwt>
<rscale>  0 0.27567350E+03</rscale>
<asrwt>0</asrwt>
<pdfrwt beam="1">  1        2 0.73336859E-02 0.27567350E+03</pdfrwt>
<pdfrwt beam="2">  1       -2 0.61317017E-01 0.27567350E+03</pdfrwt>
<totfact> 0.23971119E+03</totfact>
</mgrwt>
</event>
<event>
 5    1  0.1108889E+001  0.2752900E+03  0.7818608E-02  0.1098290E+00
         -2   -1    0    0    0  501 -0.00000000000E+00  0.00000000000E+00  0.16295250122E+03  0.16295250122E+03  0.00000000000E+00 0. -1.
          2   -1    0    0  501    0  0.00000000000E+00 -0.00000000000E+00 -0.11626788843E+03  0.11626788843E+03  0.00000000000E+00 0. -1.
         35    2    1    2    0    0  0.00000000000E+00  0.00000000000E+00  0.46684612791E+02  0.27922038965E+03  0.27528997970E+03 0.  0.
         25    1    3    3    0    0  0.31290017391E+02  0.10183545832E+02  0.83032967083E+02  0.14959025174E+03  0.12000000000E+03 0.  0.
         25    1    3    3    0    0 -0.31290017391E+02 -0.10183545832E+02 -0.36348354291E+02  0.12963013791E+03  0.12000000000E+03 0.  0.
<mgrwt>
<rscale>  0 0.27528998E+03</rscale>
<asrwt>0</asrwt>
<pdfrwt beam="1">  1        2 0.17887368E-01 0.27528998E+03</pdfrwt>
<pdfrwt beam="2">  1       -2 0.25069615E-01 0.27528998E+03</pdfrwt>
<totfact> 0.44461596E+03</totfact>
</mgrwt>
</event>
<event>
 5    1  0.1108889E+001  0.2749019E+03  0.7818608E-02  0.1098506E+00
          2   -1    0    0  501    0  0.00000000000E+00  0.00000000000E+00  0.15125315705E+03  0.15125315705E+03  0.00000000000E+00 0. -1.
         -2   -1    0    0    0  501 -0.00000000000E+00 -0.00000000000E+00 -0.12490818396E+03  0.12490818396E+03  0.00000000000E+00 0. -1.
         35    2    1    2    0    0  0.00000000000E+00  0.00000000000E+00  0.26344973093E+02  0.27616134102E+03  0.27490185279E+03 0.  0.
         25    1    3    3    0    0  0.37048261429E+02  0.51477745187E+02  0.34956514481E+02  0.14015880218E+03  0.12000000000E+03 0.  0.
         25    1    3    3    0    0 -0.37048261429E+02 -0.51477745187E+02 -0.86115413881E+01  0.13600253883E+03  0.12000000000E+03 0.  0.
<mgrwt>
<rscale>  0 0.27490185E+03</rscale>
<asrwt>0</asrwt>
<pdfrwt beam="1">  1        2 0.23269716E-01 0.27490185E+03</pdfrwt>
<pdfrwt beam="2">  1       -2 0.19216644E-01 0.27490185E+03</pdfrwt>
<totfact> 0.52175167E+03</totfact>
</mgrwt>
</event>
<event>
 5    1  0.1108889E+001  0.2751186E+03  0.7818608E-02  0.1098385E+00
          3   -1    0    0  501    0  0.00000000000E+00  0.00000000000E+00  0.22164591940E+03  0.22164591940E+03  0.00000000000E+00 0. -1.
         -3   -1    0    0    0  501 -0.00000000000E+00 -0.00000000000E+00 -0.85372929356E+02  0.85372929356E+02  0.00000000000E+00 0. -1.
         35    2    1    2    0    0  0.00000000000E+00  0.00000000000E+00  0.13627299005E+03  0.30701884876E+03  0.27511860293E+03 0.  0.
         25    1    3    3    0    0 -0.29243803348E+02  0.45339848897E+02  0.23336112114E+02  0.13362438423E+03  0.12000000000E+03 0.  0.
         25    1    3    3    0    0  0.29243803348E+02 -0.45339848897E+02  0.11293687794E+03  0.17339446453E+03  0.12000000000E+03 0.  0.
<mgrwt>
<rscale>  0 0.27511860E+03</rscale>
<asrwt>0</asrwt>
<pdfrwt beam="1">  1        3 0.34099372E-01 0.27511860E+03</pdfrwt>
<pdfrwt beam="2">  1       -3 0.13134297E-01 0.27511860E+03</pdfrwt>
<totfact> 0.10002994E+03</totfact>
</mgrwt>
</event>
<event>
 5    1  0.1108889E+001  0.2731748E+03  0.7818608E-02  0.1099476E+00
          2   -1    0    0  501    0  0.00000000000E+00  0.00000000000E+00  0.87885082656E+03  0.87885082656E+03  0.00000000000E+00 0. -1.
         -2   -1    0    0    0  501 -0.00000000000E+00 -0.00000000000E+00 -0.21227855954E+02  0.21227855954E+02  0.00000000000E+00 0. -1.
         35    2    1    2    0    0  0.00000000000E+00  0.00000000000E+00  0.85762297061E+03  0.90007868252E+03  0.27317480668E+03 0.  0.
         25    1    3    3    0    0  0.43372871481E+02 -0.17333374198E+02  0.27874176005E+03  0.30704823829E+03  0.12000000000E+03 0.  0.
         25    1    3    3    0    0 -0.43372871481E+02  0.17333374198E+02  0.57888121056E+03  0.59303044423E+03  0.12000000000E+03 0.  0.
<mgrwt>
<rscale>  0 0.27317481E+03</rscale>
<asrwt>0</asrwt>
<pdfrwt beam="1">  1        2 0.13520779E+00 0.27317481E+03</pdfrwt>
<pdfrwt beam="2">  1       -2 0.32658247E-02 0.27317481E+03</pdfrwt>
<totfact> 0.11659968E+04</totfact>
</mgrwt>
</event>
<event>
 5    1  0.1108889E+001  0.2752104E+03  0.7818608E-02  0.1098334E+00
          2   -1    0    0  501    0  0.00000000000E+00  0.00000000000E+00  0.71737105985E+03  0.71737105985E+03  0.00000000000E+00 0.  1.
         -2   -1    0    0    0  501 -0.00000000000E+00 -0.00000000000E+00 -0.26395259490E+02  0.26395259490E+02  0.00000000000E+00 0.  1.
         35    2    1    2    0    0  0.00000000000E+00  0.00000000000E+00  0.69097580036E+03  0.74376631934E+03  0.27521043058E+03 0.  0.
         25    1    3    3    0    0  0.17103636759E+02 -0.40892769302E+02  0.48250524526E+03  0.49917538468E+03  0.12000000000E+03 0.  0.
         25    1    3    3    0    0 -0.17103636759E+02  0.40892769302E+02  0.20847055510E+03  0.24459093465E+03  0.12000000000E+03 0.  0.
<mgrwt>
<rscale>  0 0.27521043E+03</rscale>
<asrwt>0</asrwt>
<pdfrwt beam="1">  1        2 0.11036476E+00 0.27521043E+03</pdfrwt>
<pdfrwt beam="2">  1       -2 0.40608097E-02 0.27521043E+03</pdfrwt>
<totfact> 0.10890299E+04</totfact>
</mgrwt>
</event>
<event>
 5    1  0.1108889E+001  0.2746636E+03  0.7818608E-02  0.1098640E+00
         -1   -1    0    0    0  501 -0.00000000000E+00  0.00000000000E+00  0.12112790011E+03  0.12112790011E+03  0.00000000000E+00 0.  1.
          1   -1    0    0  501    0  0.00000000000E+00 -0.00000000000E+00 -0.15570340674E+03  0.15570340674E+03  0.00000000000E+00 0.  1.
         35    2    1    2    0    0  0.00000000000E+00  0.00000000000E+00 -0.34575506624E+02  0.27683130685E+03  0.27466362481E+03 0.  0.
         25    1    3    3    0    0  0.59243176527E+02 -0.78796716087E+01  0.12749859035E+02  0.13466403416E+03  0.12000000000E+03 0.  0.
         25    1    3    3    0    0 -0.59243176527E+02  0.78796716087E+01 -0.47325365659E+02  0.14216727269E+03  0.12000000000E+03 0.  0.
<mgrwt>
<rscale>  0 0.27466362E+03</rscale>
<asrwt>0</asrwt>
<pdfrwt beam="1">  1        1 0.23954370E-01 0.27466362E+03</pdfrwt>
<pdfrwt beam="2">  1       -1 0.18635061E-01 0.27466362E+03</pdfrwt>
<totfact> 0.45455335E+03</totfact>
</mgrwt>
</event>
<event>
 5    1  0.1108889E+001  0.2754408E+03  0.7818608E-02  0.1098205E+00
          2   -1    0    0  501    0  0.00000000000E+00  0.00000000000E+00  0.64122504609E+03  0.64122504609E+03  0.00000000000E+00 0.  1.
         -2   -1    0    0    0  501 -0.00000000000E+00 -0.00000000000E+00 -0.29579165508E+02  0.29579165508E+02  0.00000000000E+00 0.  1.
         35    2    1    2    0    0  0.00000000000E+00  0.00000000000E+00  0.61164588058E+03  0.67080421160E+03  0.27544075055E+03 0.  0.
         25    1    3    3    0    0 -0.79756917404E+01 -0.35217231664E+02  0.44493941594E+03  0.46224987715E+03  0.12000000000E+03 0.  0.
         25    1    3    3    0    0  0.79756917404E+01  0.35217231664E+02  0.16670646464E+03  0.20855433445E+03  0.12000000000E+03 0.  0.
<mgrwt>
<rscale>  0 0.27544075E+03</rscale>
<asrwt>0</asrwt>
<pdfrwt beam="1">  1        2 0.98649997E-01 0.27544075E+03</pdfrwt>
<pdfrwt beam="2">  1       -2 0.45506413E-02 0.27544075E+03</pdfrwt>
<totfact> 0.10495296E+04</totfact>
</mgrwt>
</event>
<event>
 5    1  0.1108889E+001  0.2763835E+03  0.7818608E-02  0.1097681E+00
          2   -1    0    0  501    0  0.00000000000E+00  0.00000000000E+00  0.13324031243E+03  0.13324031243E+03  0.00000000000E+00 0. -1.
         -2   -1    0    0    0  501 -0.00000000000E+00 -0.00000000000E+00 -0.14332716178E+03  0.14332716178E+03  0.00000000000E+00 0. -1.
         35    2    1    2    0    0  0.00000000000E+00  0.00000000000E+00 -0.10086849347E+02  0.27656747421E+03  0.27638347139E+03 0.  0.
         25    1    3    3    0    0 -0.42524939257E+02  0.51045376685E+02 -0.21875886043E+02  0.13889764336E+03  0.12000000000E+03 0.  0.
         25    1    3    3    0    0  0.42524939257E+02 -0.51045376685E+02  0.11789036695E+02  0.13766983085E+03  0.12000000000E+03 0.  0.
<mgrwt>
<rscale>  0 0.27638347E+03</rscale>
<asrwt>0</asrwt>
<pdfrwt beam="1">  1        2 0.20498510E-01 0.27638347E+03</pdfrwt>
<pdfrwt beam="2">  1       -2 0.22050333E-01 0.27638347E+03</pdfrwt>
<totfact> 0.47576705E+03</totfact>
</mgrwt>
</event>
<event>
 5    1  0.1108889E+001  0.2751158E+03  0.7818608E-02  0.1098387E+00
         -1   -1    0    0    0  501 -0.00000000000E+00  0.00000000000E+00  0.86861508940E+02  0.86861508940E+02  0.00000000000E+00 0. -1.
          1   -1    0    0  501    0  0.00000000000E+00 -0.00000000000E+00 -0.21784310442E+03  0.21784310442E+03  0.00000000000E+00 0. -1.
         35    2    1    2    0    0  0.00000000000E+00  0.00000000000E+00 -0.13098159548E+03  0.30470461336E+03  0.27511583569E+03 0.  0.
         25    1    3    3    0    0  0.47224547760E+02 -0.44239680300E+02 -0.85758469196E+02  0.16106465243E+03  0.12000000000E+03 0.  0.
         25    1    3    3    0    0 -0.47224547760E+02  0.44239680300E+02 -0.45223126283E+02  0.14363996093E+03  0.12000000000E+03 0.  0.
<mgrwt>
<rscale>  0 0.27511584E+03</rscale>
<asrwt>0</asrwt>
<pdfrwt beam="1">  1        1 0.33514323E-01 0.27511584E+03</pdfrwt>
<pdfrwt beam="2">  1       -1 0.13363309E-01 0.27511584E+03</pdfrwt>
<totfact> 0.50482848E+03</totfact>
</mgrwt>
</event>
<event>
 5    1  0.1108889E+001  0.2749114E+03  0.7818608E-02  0.1098501E+00
          2   -1    0    0  501    0  0.00000000000E+00  0.00000000000E+00  0.16051530823E+04  0.16051530823E+04  0.00000000000E+00 0. -1.
         -2   -1    0    0    0  501 -0.00000000000E+00 -0.00000000000E+00 -0.11770881629E+02  0.11770881629E+02  0.00000000000E+00 0. -1.
         35    2    1    2    0    0  0.00000000000E+00  0.00000000000E+00  0.15933822007E+04  0.16169239639E+04  0.27491138157E+03 0.  0.
         25    1    3    3    0    0 -0.14643150107E+02 -0.50375151058E+02  0.10421730768E+04  0.10503698395E+04  0.12000000000E+03 0.  0.
         25    1    3    3    0    0  0.14643150107E+02  0.50375151058E+02  0.55120912388E+03  0.56655412446E+03  0.12000000000E+03 0.  0.
<mgrwt>
<rscale>  0 0.27491138E+03</rscale>
<asrwt>0</asrwt>
<pdfrwt beam="1">  1        2 0.24694645E+00 0.27491138E+03</pdfrwt>
<pdfrwt beam="2">  1       -2 0.18109061E-02 0.27491138E+03</pdfrwt>
<totfact> 0.10729931E+04</totfact>
</mgrwt>
</event>
<event>
 5    1  0.1108889E+001  0.2733417E+03  0.7818608E-02  0.1099382E+00
         -1   -1    0    0    0  501 -0.00000000000E+00  0.00000000000E+00  0.48916778143E+01  0.48916778143E+01  0.00000000000E+00 0. -1.
          1   -1    0    0  501    0  0.00000000000E+00 -0.00000000000E+00 -0.38185101128E+04  0.38185101128E+04  0.00000000000E+00 0. -1.
         35    2    1    2    0    0  0.00000000000E+00  0.00000000000E+00 -0.38136184350E+04  0.38234017906E+04  0.27334169973E+03 0.  0.
         25    1    3    3    0    0 -0.50131747118E+02  0.41838776319E+02 -0.18521930772E+04  0.18572245073E+04  0.12000000000E+03 0.  0.
         25    1    3    3    0    0  0.50131747118E+02 -0.41838776319E+02 -0.19614253578E+04  0.19661772833E+04  0.12000000000E+03 0.  0.
<mgrwt>
<rscale>  0 0.27334170E+03</rscale>
<asrwt>0</asrwt>
<pdfrwt beam="1">  1        1 0.58746227E+00 0.27334170E+03</pdfrwt>
<pdfrwt beam="2">  1       -1 0.75256687E-03 0.27334170E+03</pdfrwt>
<totfact> 0.50231581E+02</totfact>
</mgrwt>
</event>
<event>
 5    1  0.1108889E+001  0.2802902E+03  0.7818608E-02  0.1095531E+00
         -3   -1    0    0    0  501 -0.00000000000E+00  0.00000000000E+00  0.26709088616E+03  0.26709088616E+03  0.00000000000E+00 0. -1.
          3   -1    0    0  501    0  0.00000000000E+00 -0.00000000000E+00 -0.73535443803E+02  0.73535443803E+02  0.00000000000E+00 0. -1.
         35    2    1    2    0    0  0.00000000000E+00  0.00000000000E+00  0.19355544236E+03  0.34062632996E+03  0.28029018427E+03 0.  0.
         25    1    3    3    0    0 -0.66224238238E+02  0.21986405147E+02  0.73351333813E+02  0.15700149653E+03  0.12000000000E+03 0.  0.
         25    1    3    3    0    0  0.66224238238E+02 -0.21986405147E+02  0.12020410854E+03  0.18362483343E+03  0.12000000000E+03 0.  0.
<mgrwt>
<rscale>  0 0.28029018E+03</rscale>
<asrwt>0</asrwt>
<pdfrwt beam="1">  1        3 0.11313145E-01 0.28029018E+03</pdfrwt>
<pdfrwt beam="2">  1       -3 0.41090905E-01 0.28029018E+03</pdfrwt>
<totfact> 0.90093383E+02</totfact>
</mgrwt>
</event>
<event>
 5    1  0.1108889E+001  0.2749125E+03  0.7818608E-02  0.1098501E+00
         -2   -1    0    0    0  501 -0.00000000000E+00  0.00000000000E+00  0.86841177726E+02  0.86841177726E+02  0.00000000000E+00 0.  1.
          2   -1    0    0  501    0  0.00000000000E+00 -0.00000000000E+00 -0.21757216117E+03  0.21757216117E+03  0.00000000000E+00 0.  1.
         35    2    1    2    0    0  0.00000000000E+00  0.00000000000E+00 -0.13073098345E+03  0.30441333890E+03  0.27491251493E+03 0.  0.
         25    1    3    3    0    0 -0.53720650856E+02  0.25451287556E+01 -0.21047681989E+02  0.13317428778E+03  0.12000000000E+03 0.  0.
         25    1    3    3    0    0  0.53720650856E+02 -0.25451287556E+01 -0.10968330146E+03  0.17123905112E+03  0.12000000000E+03 0.  0.
<mgrwt>
<rscale>  0 0.27491251E+03</rscale>
<asrwt>0</asrwt>
<pdfrwt beam="1">  1        2 0.33472640E-01 0.27491251E+03</pdfrwt>
<pdfrwt beam="2">  1       -2 0.13360181E-01 0.27491251E+03</pdfrwt>
<totfact> 0.63933328E+03</totfact>
</mgrwt>
</event>
<event>
 5    1  0.1108889E+001  0.2752823E+03  0.7818608E-02  0.1098294E+00
          1   -1    0    0  501    0  0.00000000000E+00  0.00000000000E+00  0.38760176698E+03  0.38760176698E+03  0.00000000000E+00 0.  1.
         -1   -1    0    0    0  501 -0.00000000000E+00 -0.00000000000E+00 -0.48877703808E+02  0.48877703808E+02  0.00000000000E+00 0.  1.
         35    2    1    2    0    0  0.00000000000E+00  0.00000000000E+00  0.33872406317E+03  0.43647947079E+03  0.27528228684E+03 0.  0.
         25    1    3    3    0    0 -0.13178334417E+02 -0.62050018696E+02  0.13316338283E+03  0.19014825754E+03  0.12000000000E+03 0.  0.
         25    1    3    3    0    0  0.13178334417E+02  0.62050018696E+02  0.20556068034E+03  0.24633121325E+03  0.12000000000E+03 0.  0.
<mgrwt>
<rscale>  0 0.27528229E+03</rscale>
<asrwt>0</asrwt>
<pdfrwt beam="1">  1        1 0.59631039E-01 0.27528229E+03</pdfrwt>
<pdfrwt beam="2">  1       -1 0.75196470E-02 0.27528229E+03</pdfrwt>
<totfact> 0.59410882E+03</totfact>
</mgrwt>
</event>
<event>
 5    1  0.1108889E+001  0.2741399E+03  0.7818608E-02  0.1098933E+00
          3   -1    0    0  501    0  0.00000000000E+00  0.00000000000E+00  0.37297460539E+02  0.37297460539E+02  0.00000000000E+00 0. -1.
         -3   -1    0    0    0  501 -0.00000000000E+00 -0.00000000000E+00 -0.50373849618E+03  0.50373849618E+03  0.00000000000E+00 0. -1.
         35    2    1    2    0    0  0.00000000000E+00  0.00000000000E+00 -0.46644103565E+03  0.54103595672E+03  0.27413986710E+03 0.  0.
         25    1    3    3    0    0  0.42068071492E+02  0.47026513905E+02 -0.27303352747E+03  0.30484179958E+03  0.12000000000E+03 0.  0.
         25    1    3    3    0    0 -0.42068071492E+02 -0.47026513905E+02 -0.19340750817E+03  0.23619415714E+03  0.12000000000E+03 0.  0.
<mgrwt>
<rscale>  0 0.27413987E+03</rscale>
<asrwt>0</asrwt>
<pdfrwt beam="1">  1        3 0.57380716E-02 0.27413987E+03</pdfrwt>
<pdfrwt beam="2">  1       -3 0.77498220E-01 0.27413987E+03</pdfrwt>
<totfact> 0.74208706E+02</totfact>
</mgrwt>
</event>
<event>
 5    1  0.1108889E+001  0.2748570E+03  0.7818608E-02  0.1098532E+00
         -2   -1    0    0    0  501 -0.00000000000E+00  0.00000000000E+00  0.12099131076E+02  0.12099131076E+02  0.00000000000E+00 0. -1.
          2   -1    0    0  501    0  0.00000000000E+00 -0.00000000000E+00 -0.15609875718E+04  0.15609875718E+04  0.00000000000E+00 0. -1.
         35    2    1    2    0    0  0.00000000000E+00  0.00000000000E+00 -0.15488884407E+04  0.15730867029E+04  0.27485700456E+03 0.  0.
         25    1    3    3    0    0  0.87232889684E+01 -0.49464950666E+02 -0.10280652165E+04  0.10362629813E+04  0.12000000000E+03 0.  0.
         25    1    3    3    0    0 -0.87232889684E+01  0.49464950666E+02 -0.52082322422E+03  0.53682372154E+03  0.12000000000E+03 0.  0.
<mgrwt>
<rscale>  0 0.27485700E+03</rscale>
<asrwt>0</asrwt>
<pdfrwt beam="1">  1        2 0.24015197E+00 0.27485700E+03</pdfrwt>
<pdfrwt beam="2">  1       -2 0.18614045E-02 0.27485700E+03</pdfrwt>
<totfact> 0.10876640E+04</totfact>
</mgrwt>
</event>
<event>
 5    1  0.1108889E+001  0.2759013E+03  0.7818608E-02  0.1097949E+00
         -1   -1    0    0    0  501 -0.00000000000E+00  0.00000000000E+00  0.10186360841E+03  0.10186360841E+03  0.00000000000E+00 0.  1.
          1   -1    0    0  501    0  0.00000000000E+00 -0.00000000000E+00 -0.18682222574E+03  0.18682222574E+03  0.00000000000E+00 0.  1.
         35    2    1    2    0    0  0.00000000000E+00  0.00000000000E+00 -0.84958617330E+02  0.28868583415E+03  0.27590133051E+03 0.  0.
         25    1    3    3    0    0 -0.75858967063E+01  0.31091892544E+02 -0.10531300880E+03  0.16283452163E+03  0.12000000000E+03 0.  0.
         25    1    3    3    0    0  0.75858967063E+01 -0.31091892544E+02  0.20354391471E+02  0.12585131252E+03  0.12000000000E+03 0.  0.
<mgrwt>
<rscale>  0 0.27590133E+03</rscale>
<asrwt>0</asrwt>
<pdfrwt beam="1">  1        1 0.28741881E-01 0.27590133E+03</pdfrwt>
<pdfrwt beam="2">  1       -1 0.15671324E-01 0.27590133E+03</pdfrwt>
<totfact> 0.47618368E+03</totfact>
</mgrwt>
</event>
<event>
 5    1  0.1108889E+001  0.2755781E+03  0.7818608E-02  0.1098129E+00
          2   -1    0    0  501    0  0.00000000000E+00  0.00000000000E+00  0.33382615908E+03  0.33382615908E+03  0.00000000000E+00 0.  1.
         -2   -1    0    0    0  501 -0.00000000000E+00 -0.00000000000E+00 -0.56873393019E+02  0.56873393019E+02  0.00000000000E+00 0.  1.
         35    2    1    2    0    0  0.00000000000E+00  0.00000000000E+00  0.27695276606E+03  0.39069955210E+03  0.27557812936E+03 0.  0.
         25    1    3    3    0    0  0.33816024922E+02  0.12638232173E+02  0.57248396971E+02  0.13777019783E+03  0.12000000000E+03 0.  0.
         25    1    3    3    0    0 -0.33816024922E+02 -0.12638232173E+02  0.21970436909E+03  0.25292935427E+03  0.12000000000E+03 0.  0.
<mgrwt>
<rscale>  0 0.27557813E+03</rscale>
<asrwt>0</asrwt>
<pdfrwt beam="1">  1        2 0.51357870E-01 0.27557813E+03</pdfrwt>
<pdfrwt beam="2">  1       -2 0.87497530E-02 0.27557813E+03</pdfrwt>
<totfact> 0.79316693E+03</totfact>
</mgrwt>
</event>
<event>
 5    1  0.1108889E+001  0.2749457E+03  0.7818608E-02  0.1098482E+00
         -2   -1    0    0    0  501 -0.00000000000E+00  0.00000000000E+00  0.67272579139E+03  0.67272579139E+03  0.00000000000E+00 0.  1.
          2   -1    0    0  501    0  0.00000000000E+00 -0.00000000000E+00 -0.28092845580E+02  0.28092845580E+02  0.00000000000E+00 0.  1.
         35    2    1    2    0    0  0.00000000000E+00  0.00000000000E+00  0.64463294581E+03  0.70081863697E+03  0.27494568027E+03 0.  0.
         25    1    3    3    0    0  0.43039363935E+02 -0.51434239386E+02  0.32475326840E+03  0.35265075239E+03  0.12000000000E+03 0.  0.
         25    1    3    3    0    0 -0.43039363935E+02  0.51434239386E+02  0.31987967741E+03  0.34816788458E+03  0.12000000000E+03 0.  0.
<mgrwt>
<rscale>  0 0.27494568E+03</rscale>
<asrwt>0</asrwt>
<pdfrwt beam="1">  1        2 0.43219768E-02 0.27494568E+03</pdfrwt>
<pdfrwt beam="2">  1       -2 0.10349626E+00 0.27494568E+03</pdfrwt>
<totfact> 0.15099809E+03</totfact>
</mgrwt>
</event>
<event>
 5    1  0.1108889E+001  0.2757558E+03  0.7818608E-02  0.1098030E+00
          2   -1    0    0  501    0  0.00000000000E+00  0.00000000000E+00  0.23876401340E+03  0.23876401340E+03  0.00000000000E+00 0.  1.
         -2   -1    0    0    0  501 -0.00000000000E+00 -0.00000000000E+00 -0.79619700213E+02  0.79619700213E+02  0.00000000000E+00 0.  1.
         35    2    1    2    0    0  0.00000000000E+00  0.00000000000E+00  0.15914431319E+03  0.31838371361E+03  0.27575582800E+03 0.  0.
         25    1    3    3    0    0 -0.29967899880E+02 -0.14971993230E+02  0.11382330231E+02  0.12510712628E+03  0.12000000000E+03 0.  0.
         25    1    3    3    0    0  0.29967899880E+02  0.14971993230E+02  0.14776198296E+03  0.19327658733E+03  0.12000000000E+03 0.  0.
<mgrwt>
<rscale>  0 0.27575583E+03</rscale>
<asrwt>0</asrwt>
<pdfrwt beam="1">  1        2 0.36732925E-01 0.27575583E+03</pdfrwt>
<pdfrwt beam="2">  1       -2 0.12249185E-01 0.27575583E+03</pdfrwt>
<totfact> 0.66560106E+03</totfact>
</mgrwt>
</event>
<event>
 5    1  0.1108889E+001  0.2750963E+03  0.7818608E-02  0.1098398E+00
          1   -1    0    0  501    0  0.00000000000E+00  0.00000000000E+00  0.33952435460E+03  0.33952435460E+03  0.00000000000E+00 0.  1.
         -1   -1    0    0    0  501 -0.00000000000E+00 -0.00000000000E+00 -0.55723504816E+02  0.55723504816E+02  0.00000000000E+00 0.  1.
         35    2    1    2    0    0  0.00000000000E+00  0.00000000000E+00  0.28380084978E+03  0.39524785942E+03  0.27509625231E+03 0.  0.
         25    1    3    3    0    0  0.55414670395E+02  0.97067986874E+01  0.19477794152E+03  0.23559171067E+03  0.12000000000E+03 0.  0.
         25    1    3    3    0    0 -0.55414670395E+02 -0.97067986874E+01  0.89022908267E+02  0.15965614875E+03  0.12000000000E+03 0.  0.
<mgrwt>
<rscale>  0 0.27509625E+03</rscale>
<asrwt>0</asrwt>
<pdfrwt beam="1">  1        1 0.52234515E-01 0.27509625E+03</pdfrwt>
<pdfrwt beam="2">  1       -1 0.85728471E-02 0.27509625E+03</pdfrwt>
<totfact> 0.57547164E+03</totfact>
</mgrwt>
</event>
<event>
 5    1  0.1108889E+001  0.2758068E+03  0.7818608E-02  0.1098001E+00
         -2   -1    0    0    0  501 -0.00000000000E+00  0.00000000000E+00  0.27812754003E+02  0.27812754003E+02  0.00000000000E+00 0.  1.
          2   -1    0    0  501    0  0.00000000000E+00 -0.00000000000E+00 -0.68376353245E+03  0.68376353245E+03  0.00000000000E+00 0.  1.
         35    2    1    2    0    0  0.00000000000E+00  0.00000000000E+00 -0.65595077844E+03  0.71157628645E+03  0.27580679414E+03 0.  0.
         25    1    3    3    0    0  0.37946486680E+02 -0.55668362980E+02 -0.35082598766E+03  0.37685245933E+03  0.12000000000E+03 0.  0.
         25    1    3    3    0    0 -0.37946486680E+02  0.55668362980E+02 -0.30512479078E+03  0.33472382711E+03  0.12000000000E+03 0.  0.
<mgrwt>
<rscale>  0 0.27580679E+03</rscale>
<asrwt>0</asrwt>
<pdfrwt beam="1">  1        2 0.10519439E+00 0.27580679E+03</pdfrwt>
<pdfrwt beam="2">  1       -2 0.42788854E-02 0.27580679E+03</pdfrwt>
<totfact> 0.10669272E+04</totfact>
</mgrwt>
</event>
<event>
 5    1  0.1108889E+001  0.2747181E+03  0.7818608E-02  0.1098609E+00
         -1   -1    0    0    0  501 -0.00000000000E+00  0.00000000000E+00  0.45816973267E+03  0.45816973267E+03  0.00000000000E+00 0.  1.
          1   -1    0    0  501    0  0.00000000000E+00 -0.00000000000E+00 -0.41180179754E+02  0.41180179754E+02  0.00000000000E+00 0.  1.
         35    2    1    2    0    0  0.00000000000E+00  0.00000000000E+00  0.41698955291E+03  0.49934991242E+03  0.27471812426E+03 0.  0.
         25    1    3    3    0    0  0.35487460556E+02  0.36712029142E+02  0.13009435798E+03  0.18420552358E+03  0.12000000000E+03 0.  0.
         25    1    3    3    0    0 -0.35487460556E+02 -0.36712029142E+02  0.28689519493E+03  0.31514438884E+03  0.12000000000E+03 0.  0.
<mgrwt>
<rscale>  0 0.27471812E+03</rscale>
<asrwt>0</asrwt>
<pdfrwt beam="1">  1        1 0.63354126E-02 0.27471812E+03</pdfrwt>
<pdfrwt beam="2">  1       -1 0.70487647E-01 0.27471812E+03</pdfrwt>
<totfact> 0.25278801E+03</totfact>
</mgrwt>
</event>
<event>
 5    1  0.1108889E+001  0.2768234E+03  0.7818608E-02  0.1097437E+00
         -1   -1    0    0    0  501 -0.00000000000E+00  0.00000000000E+00  0.17901906606E+03  0.17901906606E+03  0.00000000000E+00 0.  1.
          1   -1    0    0  501    0  0.00000000000E+00 -0.00000000000E+00 -0.10701539104E+03  0.10701539104E+03  0.00000000000E+00 0.  1.
         35    2    1    2    0    0  0.00000000000E+00  0.00000000000E+00  0.72003675019E+02  0.28603445710E+03  0.27682337587E+03 0.  0.
         25    1    3    3    0    0 -0.20773796236E+01 -0.42281197056E+02 -0.20269219820E+02  0.12885207178E+03  0.12000000000E+03 0.  0.
         25    1    3    3    0    0  0.20773796236E+01  0.42281197056E+02  0.92272894839E+02  0.15718238531E+03  0.12000000000E+03 0.  0.
<mgrwt>
<rscale>  0 0.27682338E+03</rscale>
<asrwt>0</asrwt>
<pdfrwt beam="1">  1        1 0.16463906E-01 0.27682338E+03</pdfrwt>
<pdfrwt beam="2">  1       -1 0.27541395E-01 0.27682338E+03</pdfrwt>
<totfact> 0.38752224E+03</totfact>
</mgrwt>
</event>
<event>
 5    1  0.1108889E+001  0.2720900E+03  0.7818608E-02  0.1100089E+00
          1   -1    0    0  501    0  0.00000000000E+00  0.00000000000E+00  0.65176701244E+03  0.65176701244E+03  0.00000000000E+00 0. -1.
         -1   -1    0    0    0  501 -0.00000000000E+00 -0.00000000000E+00 -0.28397012898E+02  0.28397012898E+02  0.00000000000E+00 0. -1.
         35    2    1    2    0    0  0.00000000000E+00  0.00000000000E+00  0.62336999954E+03  0.68016402534E+03  0.27208995761E+03 0.  0.
         25    1    3    3    0    0  0.41981472707E+01 -0.54828847726E+02  0.22936644131E+03  0.26463709374E+03  0.12000000000E+03 0.  0.
         25    1    3    3    0    0 -0.41981472707E+01  0.54828847726E+02  0.39400355823E+03  0.41552693160E+03  0.12000000000E+03 0.  0.
<mgrwt>
<rscale>  0 0.27208996E+03</rscale>
<asrwt>0</asrwt>
<pdfrwt beam="1">  1        1 0.10027184E+00 0.27208996E+03</pdfrwt>
<pdfrwt beam="2">  1       -1 0.43687717E-02 0.27208996E+03</pdfrwt>
<totfact> 0.67163199E+03</totfact>
</mgrwt>
</event>
<event>
 5    1  0.1108889E+001  0.2763228E+03  0.7818608E-02  0.1097714E+00
          1   -1    0    0  501    0  0.00000000000E+00  0.00000000000E+00  0.65460201465E+03  0.65460201465E+03  0.00000000000E+00 0.  1.
         -1   -1    0    0    0  501 -0.00000000000E+00 -0.00000000000E+00 -0.29160580503E+02  0.29160580503E+02  0.00000000000E+00 0.  1.
         35    2    1    2    0    0  0.00000000000E+00  0.00000000000E+00  0.62544143415E+03  0.68376259515E+03  0.27632281661E+03 0.  0.
         25    1    3    3    0    0 -0.51147303313E+02  0.32022605442E+02  0.39279235282E+03  0.41512326643E+03  0.12000000000E+03 0.  0.
         25    1    3    3    0    0  0.51147303313E+02 -0.32022605442E+02  0.23264908133E+03  0.26863932872E+03  0.12000000000E+03 0.  0.
<mgrwt>
<rscale>  0 0.27632282E+03</rscale>
<asrwt>0</asrwt>
<pdfrwt beam="1">  1        1 0.10070799E+00 0.27632282E+03</pdfrwt>
<pdfrwt beam="2">  1       -1 0.44862437E-02 0.27632282E+03</pdfrwt>
<totfact> 0.64186072E+03</totfact>
</mgrwt>
</event>
<event>
 5    1  0.1108889E+001  0.2748940E+03  0.7818608E-02  0.1098511E+00
          2   -1    0    0  501    0  0.00000000000E+00  0.00000000000E+00  0.54967733865E+03  0.54967733865E+03  0.00000000000E+00 0.  1.
         -2   -1    0    0    0  501 -0.00000000000E+00 -0.00000000000E+00 -0.34368668273E+02  0.34368668273E+02  0.00000000000E+00 0.  1.
         35    2    1    2    0    0  0.00000000000E+00  0.00000000000E+00  0.51530867038E+03  0.58404600692E+03  0.27489400219E+03 0.  0.
         25    1    3    3    0    0  0.41840997978E+02  0.50804395384E+02  0.28452240414E+03  0.31572892512E+03  0.12000000000E+03 0.  0.
         25    1    3    3    0    0 -0.41840997978E+02 -0.50804395384E+02  0.23078626624E+03  0.26831708180E+03  0.12000000000E+03 0.  0.
<mgrwt>
<rscale>  0 0.27489400E+03</rscale>
<asrwt>0</asrwt>
<pdfrwt beam="1">  1        2 0.84565738E-01 0.27489400E+03</pdfrwt>
<pdfrwt beam="2">  1       -2 0.52874878E-02 0.27489400E+03</pdfrwt>
<totfact> 0.99896689E+03</totfact>
</mgrwt>
</event>
<event>
 5    1  0.1108889E+001  0.2750913E+03  0.7818608E-02  0.1098401E+00
         -2   -1    0    0    0  501 -0.00000000000E+00  0.00000000000E+00  0.18714229250E+02  0.18714229250E+02  0.00000000000E+00 0. -1.
          2   -1    0    0  501    0  0.00000000000E+00 -0.00000000000E+00 -0.10109315194E+04  0.10109315194E+04  0.00000000000E+00 0. -1.
         35    2    1    2    0    0  0.00000000000E+00  0.00000000000E+00 -0.99221729018E+03  0.10296457487E+04  0.27509128820E+03 0.  0.
         25    1    3    3    0    0  0.48391619587E+02  0.88719371403E+00 -0.67071787898E+03  0.68308492089E+03  0.12000000000E+03 0.  0.
         25    1    3    3    0    0 -0.48391619587E+02 -0.88719371403E+00 -0.32149941119E+03  0.34656082779E+03  0.12000000000E+03 0.  0.
<mgrwt>
<rscale>  0 0.27509129E+03</rscale>
<asrwt>0</asrwt>
<pdfrwt beam="1">  1        2 0.15552791E+00 0.27509129E+03</pdfrwt>
<pdfrwt beam="2">  1       -2 0.28791124E-02 0.27509129E+03</pdfrwt>
<totfact> 0.11615699E+04</totfact>
</mgrwt>
</event>
<event>
 5    1  0.1108889E+001  0.2753307E+03  0.7818608E-02  0.1098267E+00
          1   -1    0    0  501    0  0.00000000000E+00  0.00000000000E+00  0.26737252594E+04  0.26737252594E+04  0.00000000000E+00 0. -1.
         -1   -1    0    0    0  501 -0.00000000000E+00 -0.00000000000E+00 -0.70881412551E+01  0.70881412551E+01  0.00000000000E+00 0. -1.
         35    2    1    2    0    0  0.00000000000E+00  0.00000000000E+00  0.26666371181E+04  0.26808134006E+04  0.27533065442E+03 0.  0.
         25    1    3    3    0    0 -0.36058493260E+02 -0.53352672994E+02  0.15292707273E+04  0.15353226631E+04  0.12000000000E+03 0.  0.
         25    1    3    3    0    0  0.36058493260E+02  0.53352672994E+02  0.11373663909E+04  0.11454907375E+04  0.12000000000E+03 0.  0.
<mgrwt>
<rscale>  0 0.27533065E+03</rscale>
<asrwt>0</asrwt>
<pdfrwt beam="1">  1        1 0.41134154E+00 0.27533065E+03</pdfrwt>
<pdfrwt beam="2">  1       -1 0.10904854E-02 0.27533065E+03</pdfrwt>
<totfact> 0.20121755E+03</totfact>
</mgrwt>
</event>
<event>
 5    1  0.1108889E+001  0.2743589E+03  0.7818608E-02  0.1098811E+00
          2   -1    0    0  501    0  0.00000000000E+00  0.00000000000E+00  0.12195237241E+03  0.12195237241E+03  0.00000000000E+00 0. -1.
         -2   -1    0    0    0  501 -0.00000000000E+00 -0.00000000000E+00 -0.15430774509E+03  0.15430774509E+03  0.00000000000E+00 0. -1.
         35    2    1    2    0    0  0.00000000000E+00  0.00000000000E+00 -0.32355372686E+02  0.27626011750E+03  0.27435885693E+03 0.  0.
         25    1    3    3    0    0  0.61106594749E+02 -0.89216231870E+01  0.85810026450E+01  0.13523034012E+03  0.12000000000E+03 0.  0.
         25    1    3    3    0    0 -0.61106594749E+02  0.89216231870E+01 -0.40936375331E+02  0.14102977738E+03  0.12000000000E+03 0.  0.
<mgrwt>
<rscale>  0 0.27435886E+03</rscale>
<asrwt>0</asrwt>
<pdfrwt beam="1">  1        2 0.18761904E-01 0.27435886E+03</pdfrwt>
<pdfrwt beam="2">  1       -2 0.23739653E-01 0.27435886E+03</pdfrwt>
<totfact> 0.46297565E+03</totfact>
</mgrwt>
</event>
<event>
 5    1  0.1108889E+001  0.2749837E+03  0.7818608E-02  0.1098461E+00
         -2   -1    0    0    0  501 -0.00000000000E+00  0.00000000000E+00  0.10125896978E+02  0.10125896978E+02  0.00000000000E+00 0.  1.
          2   -1    0    0  501    0  0.00000000000E+00 -0.00000000000E+00 -0.18668972552E+04  0.18668972552E+04  0.00000000000E+00 0.  1.
         35    2    1    2    0    0  0.00000000000E+00  0.00000000000E+00 -0.18567713583E+04  0.18770231522E+04  0.27498370333E+03 0.  0.
         25    1    3    3    0    0  0.37756328963E+02  0.44636594272E+02 -0.11533358116E+04  0.11610346507E+04  0.12000000000E+03 0.  0.
         25    1    3    3    0    0 -0.37756328963E+02 -0.44636594272E+02 -0.70343554670E+03  0.71598850150E+03  0.12000000000E+03 0.  0.
<mgrwt>
<rscale>  0 0.27498370E+03</rscale>
<asrwt>0</asrwt>
<pdfrwt beam="1">  1        2 0.28721507E+00 0.27498370E+03</pdfrwt>
<pdfrwt beam="2">  1       -2 0.15578297E-02 0.27498370E+03</pdfrwt>
<totfact> 0.97423215E+03</totfact>
</mgrwt>
</event>
<event>
 5    1  0.1108889E+001  0.2775417E+03  0.7818608E-02  0.1097039E+00
         -2   -1    0    0    0  501 -0.00000000000E+00  0.00000000000E+00  0.12417849117E+02  0.12417849117E+02  0.00000000000E+00 0. -1.
          2   -1    0    0  501    0  0.00000000000E+00 -0.00000000000E+00 -0.15507792356E+04  0.15507792356E+04  0.00000000000E+00 0. -1.
         35    2    1    2    0    0  0.00000000000E+00  0.00000000000E+00 -0.15383613865E+04  0.15631970847E+04  0.27754165498E+03 0.  0.
         25    1    3    3    0    0 -0.39617112100E+01 -0.69357211862E+02 -0.73770800876E+03  0.75062588830E+03  0.12000000000E+03 0.  0.
         25    1    3    3    0    0  0.39617112100E+01  0.69357211862E+02 -0.80065337773E+03  0.81257119643E+03  0.12000000000E+03 0.  0.
<mgrwt>
<rscale>  0 0.27754165E+03</rscale>
<asrwt>0</asrwt>
<pdfrwt beam="1">  1        2 0.23858148E+00 0.27754165E+03</pdfrwt>
<pdfrwt beam="2">  1       -2 0.19104378E-02 0.27754165E+03</pdfrwt>
<totfact> 0.10602674E+04</totfact>
</mgrwt>
</event>
<event>
 5    1  0.1108889E+001  0.2757200E+03  0.7818608E-02  0.1098050E+00
         -2   -1    0    0    0  501 -0.00000000000E+00  0.00000000000E+00  0.31994860096E+02  0.31994860096E+02  0.00000000000E+00 0. -1.
          2   -1    0    0  501    0  0.00000000000E+00 -0.00000000000E+00 -0.59401364807E+03  0.59401364807E+03  0.00000000000E+00 0. -1.
         35    2    1    2    0    0  0.00000000000E+00  0.00000000000E+00 -0.56201878797E+03  0.62600850817E+03  0.27572002876E+03 0.  0.
         25    1    3    3    0    0  0.24895371671E+02 -0.30650963958E+02 -0.15569943181E+03  0.20050330219E+03  0.12000000000E+03 0.  0.
         25    1    3    3    0    0 -0.24895371671E+02  0.30650963958E+02 -0.40631935616E+03  0.42550520598E+03  0.12000000000E+03 0.  0.
<mgrwt>
<rscale>  0 0.27572003E+03</rscale>
<asrwt>0</asrwt>
<pdfrwt beam="1">  1        2 0.91386712E-01 0.27572003E+03</pdfrwt>
<pdfrwt beam="2">  1       -2 0.49222864E-02 0.27572003E+03</pdfrwt>
<totfact> 0.10190571E+04</totfact>
</mgrwt>
</event>
<event>
 5    1  0.1108889E+001  0.2760132E+03  0.7818608E-02  0.1097887E+00
          1   -1    0    0  501    0  0.00000000000E+00  0.00000000000E+00  0.23166387984E+03  0.23166387984E+03  0.00000000000E+00 0.  1.
         -1   -1    0    0    0  501 -0.00000000000E+00 -0.00000000000E+00 -0.82213165313E+02  0.82213165313E+02  0.00000000000E+00 0.  1.
         35    2    1    2    0    0  0.00000000000E+00  0.00000000000E+00  0.14945071453E+03  0.31387704516E+03  0.27601319425E+03 0.  0.
         25    1    3    3    0    0 -0.60329242988E+02  0.31720593706E+02  0.74822025411E+02  0.15698455055E+03  0.12000000000E+03 0.  0.
         25    1    3    3    0    0  0.60329242988E+02 -0.31720593706E+02  0.74628689120E+02  0.15689249461E+03  0.12000000000E+03 0.  0.
<mgrwt>
<rscale>  0 0.27601319E+03</rscale>
<asrwt>0</asrwt>
<pdfrwt beam="1">  1        1 0.35640597E-01 0.27601319E+03</pdfrwt>
<pdfrwt beam="2">  1       -1 0.12648179E-01 0.27601319E+03</pdfrwt>
<totfact> 0.50947515E+03</totfact>
</mgrwt>
</event>
<event>
 5    1  0.1108889E+001  0.2752852E+03  0.7818608E-02  0.1098292E+00
         -1   -1    0    0    0  501 -0.00000000000E+00  0.00000000000E+00  0.10710282874E+03  0.10710282874E+03  0.00000000000E+00 0. -1.
          1   -1    0    0  501    0  0.00000000000E+00 -0.00000000000E+00 -0.17689058058E+03  0.17689058058E+03  0.00000000000E+00 0. -1.
         35    2    1    2    0    0  0.00000000000E+00  0.00000000000E+00 -0.69787751839E+02  0.28399340932E+03  0.27528517256E+03 0.  0.
         25    1    3    3    0    0  0.17867786112E+01  0.54119694910E+02  0.65432299926E+01  0.13181406531E+03  0.12000000000E+03 0.  0.
         25    1    3    3    0    0 -0.17867786112E+01 -0.54119694910E+02 -0.76330981832E+02  0.15217934401E+03  0.12000000000E+03 0.  0.
<mgrwt>
<rscale>  0 0.27528517E+03</rscale>
<asrwt>0</asrwt>
<pdfrwt beam="1">  1        1 0.27213935E-01 0.27528517E+03</pdfrwt>
<pdfrwt beam="2">  1       -1 0.16477358E-01 0.27528517E+03</pdfrwt>
<totfact> 0.47099522E+03</totfact>
</mgrwt>
</event>
<event>
 5    1  0.1108889E+001  0.2750397E+03  0.7818608E-02  0.1098429E+00
          2   -1    0    0  501    0  0.00000000000E+00  0.00000000000E+00  0.82348873381E+03  0.82348873381E+03  0.00000000000E+00 0. -1.
         -2   -1    0    0    0  501 -0.00000000000E+00 -0.00000000000E+00 -0.22965348877E+02  0.22965348877E+02  0.00000000000E+00 0. -1.
         35    2    1    2    0    0  0.00000000000E+00  0.00000000000E+00  0.80052338493E+03  0.84645408269E+03  0.27503967764E+03 0.  0.
         25    1    3    3    0    0  0.60515612330E+02  0.27211717378E+02  0.36811776993E+03  0.39282732776E+03  0.12000000000E+03 0.  0.
         25    1    3    3    0    0 -0.60515612330E+02 -0.27211717378E+02  0.43240561500E+03  0.45362675492E+03  0.12000000000E+03 0.  0.
<mgrwt>
<rscale>  0 0.27503968E+03</rscale>
<asrwt>0</asrwt>
<pdfrwt beam="1">  1        2 0.12669055E+00 0.27503968E+03</pdfrwt>
<pdfrwt beam="2">  1       -2 0.35331312E-02 0.27503968E+03</pdfrwt>
<totfact> 0.11288168E+04</totfact>
</mgrwt>
</event>
<event>
 5    1  0.1108889E+001  0.2758818E+03  0.7818608E-02  0.1097960E+00
         -2   -1    0    0    0  501 -0.00000000000E+00  0.00000000000E+00  0.15153978033E+02  0.15153978033E+02  0.00000000000E+00 0. -1.
          2   -1    0    0  501    0  0.00000000000E+00 -0.00000000000E+00 -0.12556237277E+04  0.12556237277E+04  0.00000000000E+00 0. -1.
         35    2    1    2    0    0  0.00000000000E+00  0.00000000000E+00 -0.12404697497E+04  0.12707777057E+04  0.27588181809E+03 0.  0.
         25    1    3    3    0    0  0.27701313706E+02 -0.22331834889E+02 -0.35316748244E+03  0.37469099840E+03  0.12000000000E+03 0.  0.
         25    1    3    3    0    0 -0.27701313706E+02  0.22331834889E+02 -0.88730226723E+03  0.89608670734E+03  0.12000000000E+03 0.  0.
<mgrwt>
<rscale>  0 0.27588182E+03</rscale>
<asrwt>0</asrwt>
<pdfrwt beam="1">  1        2 0.19317293E+00 0.27588182E+03</pdfrwt>
<pdfrwt beam="2">  1       -2 0.23313806E-02 0.27588182E+03</pdfrwt>
<totfact> 0.11441514E+04</totfact>
</mgrwt>
</event>
<event>
 5    1  0.1108889E+001  0.2750738E+03  0.7818608E-02  0.1098410E+00
          2   -1    0    0  501    0  0.00000000000E+00  0.00000000000E+00  0.44573618556E+03  0.44573618556E+03  0.00000000000E+00 0.  1.
         -2   -1    0    0    0  501 -0.00000000000E+00 -0.00000000000E+00 -0.42438538884E+02  0.42438538884E+02  0.00000000000E+00 0.  1.
         35    2    1    2    0    0  0.00000000000E+00  0.00000000000E+00  0.40329764667E+03  0.48817472444E+03  0.27507375333E+03 0.  0.
         25    1    3    3    0    0  0.58234334682E+02  0.19708891988E+02  0.15347893035E+03  0.20429258484E+03  0.12000000000E+03 0.  0.
         25    1    3    3    0    0 -0.58234334682E+02 -0.19708891988E+02  0.24981871632E+03  0.28388213960E+03  0.12000000000E+03 0.  0.
<mgrwt>
<rscale>  0 0.27507375E+03</rscale>
<asrwt>0</asrwt>
<pdfrwt beam="1">  1        2 0.68574795E-01 0.27507375E+03</pdfrwt>
<pdfrwt beam="2">  1       -2 0.65290063E-02 0.27507375E+03</pdfrwt>
<totfact> 0.91394966E+03</totfact>
</mgrwt>
</event>
<event>
 5    1  0.1108889E+001  0.2748632E+03  0.7818608E-02  0.1098528E+00
         -1   -1    0    0    0  501 -0.00000000000E+00  0.00000000000E+00  0.16092146350E+02  0.16092146350E+02  0.00000000000E+00 0.  1.
          1   -1    0    0  501    0  0.00000000000E+00 -0.00000000000E+00 -0.11737058715E+04  0.11737058715E+04  0.00000000000E+00 0.  1.
         35    2    1    2    0    0  0.00000000000E+00  0.00000000000E+00 -0.11576137251E+04  0.11897980178E+04  0.27486321438E+03 0.  0.
         25    1    3    3    0    0 -0.22062383894E+02  0.61871301228E+02 -0.63568263120E+03  0.65023627575E+03  0.12000000000E+03 0.  0.
         25    1    3    3    0    0  0.22062383894E+02 -0.61871301228E+02 -0.52193109392E+03  0.53956174206E+03  0.12000000000E+03 0.  0.
<mgrwt>
<rscale>  0 0.27486321E+03</rscale>
<asrwt>0</asrwt>
<pdfrwt beam="1">  1        1 0.18057019E+00 0.27486321E+03</pdfrwt>
<pdfrwt beam="2">  1       -1 0.24757141E-02 0.27486321E+03</pdfrwt>
<totfact> 0.59854388E+03</totfact>
</mgrwt>
</event>
<event>
 5    1  0.1108889E+001  0.2753333E+03  0.7818608E-02  0.1098265E+00
          2   -1    0    0  501    0  0.00000000000E+00  0.00000000000E+00  0.25139194606E+04  0.25139194606E+04  0.00000000000E+00 0. -1.
         -2   -1    0    0    0  501 -0.00000000000E+00 -0.00000000000E+00 -0.75388681476E+01  0.75388681476E+01  0.00000000000E+00 0. -1.
         35    2    1    2    0    0  0.00000000000E+00  0.00000000000E+00  0.25063805925E+04  0.25214583287E+04  0.27533330599E+03 0.  0.
         25    1    3    3    0    0 -0.90983304232E+01  0.60554716177E+02  0.99377048423E+03  0.10028606227E+04  0.12000000000E+03 0.  0.
         25    1    3    3    0    0  0.90983304232E+01 -0.60554716177E+02  0.15126101082E+04  0.15185977060E+04  0.12000000000E+03 0.  0.
<mgrwt>
<rscale>  0 0.27533331E+03</rscale>
<asrwt>0</asrwt>
<pdfrwt beam="1">  1        2 0.38675617E+00 0.27533331E+03</pdfrwt>
<pdfrwt beam="2">  1       -2 0.11598279E-02 0.27533331E+03</pdfrwt>
<totfact> 0.67706617E+03</totfact>
</mgrwt>
</event>
<event>
 5    1  0.1108889E+001  0.2746026E+03  0.7818608E-02  0.1098674E+00
          2   -1    0    0  501    0  0.00000000000E+00  0.00000000000E+00  0.56232904064E+03  0.56232904064E+03  0.00000000000E+00 0. -1.
         -2   -1    0    0    0  501 -0.00000000000E+00 -0.00000000000E+00 -0.33524222077E+02  0.33524222077E+02  0.00000000000E+00 0. -1.
         35    2    1    2    0    0  0.00000000000E+00  0.00000000000E+00  0.52880481856E+03  0.59585326272E+03  0.27460257565E+03 0.  0.
         25    1    3    3    0    0 -0.64576044163E+02 -0.92613777846E+01  0.23403927160E+03  0.27098010859E+03  0.12000000000E+03 0.  0.
         25    1    3    3    0    0  0.64576044163E+02  0.92613777846E+01  0.29476554696E+03  0.32487315413E+03  0.12000000000E+03 0.  0.
<mgrwt>
<rscale>  0 0.27460258E+03</rscale>
<asrwt>0</asrwt>
<pdfrwt beam="1">  1        2 0.86512153E-01 0.27460258E+03</pdfrwt>
<pdfrwt beam="2">  1       -2 0.51575730E-02 0.27460258E+03</pdfrwt>
<totfact> 0.10109021E+04</totfact>
</mgrwt>
</event>
<event>
 5    1  0.1108889E+001  0.2758262E+03  0.7818608E-02  0.1097991E+00
          2   -1    0    0  501    0  0.00000000000E+00  0.00000000000E+00  0.87848626207E+03  0.87848626207E+03  0.00000000000E+00 0.  1.
         -2   -1    0    0    0  501 -0.00000000000E+00 -0.00000000000E+00 -0.21650898826E+02  0.21650898826E+02  0.00000000000E+00 0.  1.
         35    2    1    2    0    0  0.00000000000E+00  0.00000000000E+00  0.85683536325E+03  0.90013716090E+03  0.27582615670E+03 0.  0.
         25    1    3    3    0    0  0.60977053527E+02  0.30967405436E+01  0.33093875043E+03  0.35727894899E+03  0.12000000000E+03 0.  0.
         25    1    3    3    0    0 -0.60977053527E+02 -0.30967405436E+01  0.52589661282E+03  0.54285821190E+03  0.12000000000E+03 0.  0.
<mgrwt>
<rscale>  0 0.27582616E+03</rscale>
<asrwt>0</asrwt>
<pdfrwt beam="1">  1        2 0.13515170E+00 0.27582616E+03</pdfrwt>
<pdfrwt beam="2">  1       -2 0.33309082E-02 0.27582616E+03</pdfrwt>
<totfact> 0.11331371E+04</totfact>
</mgrwt>
</event>
<event>
 5    1  0.1108889E+001  0.2739730E+03  0.7818608E-02  0.1099027E+00
          2   -1    0    0  501    0  0.00000000000E+00  0.00000000000E+00  0.54997813759E+02  0.54997813759E+02  0.00000000000E+00 0. -1.
         -2   -1    0    0    0  501 -0.00000000000E+00 -0.00000000000E+00 -0.34120074668E+03  0.34120074668E+03  0.00000000000E+00 0. -1.
         35    2    1    2    0    0  0.00000000000E+00  0.00000000000E+00 -0.28620293292E+03  0.39619856044E+03  0.27397295575E+03 0.  0.
         25    1    3    3    0    0  0.38103030211E+02 -0.52698814157E+02 -0.12621899936E+03  0.18590385075E+03  0.12000000000E+03 0.  0.
         25    1    3    3    0    0 -0.38103030211E+02  0.52698814157E+02 -0.15998393356E+03  0.21029470969E+03  0.12000000000E+03 0.  0.
<mgrwt>
<rscale>  0 0.27397296E+03</rscale>
<asrwt>0</asrwt>
<pdfrwt beam="1">  1        2 0.84612020E-02 0.27397296E+03</pdfrwt>
<pdfrwt beam="2">  1       -2 0.52492423E-01 0.27397296E+03</pdfrwt>
<totfact> 0.27460690E+03</totfact>
</mgrwt>
</event>
<event>
 5    1  0.1108889E+001  0.2753946E+03  0.7818608E-02  0.1098231E+00
          1   -1    0    0  501    0  0.00000000000E+00  0.00000000000E+00  0.34335664305E+03  0.34335664305E+03  0.00000000000E+00 0.  1.
         -1   -1    0    0    0  501 -0.00000000000E+00 -0.00000000000E+00 -0.55221144925E+02  0.55221144925E+02  0.00000000000E+00 0.  1.
         35    2    1    2    0    0  0.00000000000E+00  0.00000000000E+00  0.28813549812E+03  0.39857778797E+03  0.27539460377E+03 0.  0.
         25    1    3    3    0    0  0.21672029751E+02  0.63129479634E+02  0.15893613738E+03  0.21003738676E+03  0.12000000000E+03 0.  0.
         25    1    3    3    0    0 -0.21672029751E+02 -0.63129479634E+02  0.12919936075E+03  0.18854040121E+03  0.12000000000E+03 0.  0.
<mgrwt>
<rscale>  0 0.27539460E+03</rscale>
<asrwt>0</asrwt>
<pdfrwt beam="1">  1        1 0.52824098E-01 0.27539460E+03</pdfrwt>
<pdfrwt beam="2">  1       -1 0.84955610E-02 0.27539460E+03</pdfrwt>
<totfact> 0.57530035E+03</totfact>
</mgrwt>
</event>
<event>
 5    1  0.1108889E+001  0.2751533E+03  0.7818608E-02  0.1098366E+00
          2   -1    0    0  501    0  0.00000000000E+00  0.00000000000E+00  0.45868026476E+03  0.45868026476E+03  0.00000000000E+00 0. -1.
         -2   -1    0    0    0  501 -0.00000000000E+00 -0.00000000000E+00 -0.41264766208E+02  0.41264766208E+02  0.00000000000E+00 0. -1.
         35    2    1    2    0    0  0.00000000000E+00  0.00000000000E+00  0.41741549855E+03  0.49994503097E+03  0.27515329465E+03 0.  0.
         25    1    3    3    0    0 -0.15066099433E+02  0.14631107131E+02  0.92559824862E+02  0.15299796674E+03  0.12000000000E+03 0.  0.
         25    1    3    3    0    0  0.15066099433E+02 -0.14631107131E+02  0.32485567369E+03  0.34694706423E+03  0.12000000000E+03 0.  0.
<mgrwt>
<rscale>  0 0.27515329E+03</rscale>
<asrwt>0</asrwt>
<pdfrwt beam="1">  1        2 0.70566191E-01 0.27515329E+03</pdfrwt>
<pdfrwt beam="2">  1       -2 0.63484259E-02 0.27515329E+03</pdfrwt>
<totfact> 0.92469082E+03</totfact>
</mgrwt>
</event>
<event>
 5    1  0.1108889E+001  0.2747493E+03  0.7818608E-02  0.1098592E+00
         -2   -1    0    0    0  501 -0.00000000000E+00  0.00000000000E+00  0.16788659446E+02  0.16788659446E+02  0.00000000000E+00 0.  1.
          2   -1    0    0  501    0  0.00000000000E+00 -0.00000000000E+00 -0.11240800003E+04  0.11240800003E+04  0.00000000000E+00 0.  1.
         35    2    1    2    0    0  0.00000000000E+00  0.00000000000E+00 -0.11072913408E+04  0.11408686597E+04  0.27474931348E+03 0.  0.
         25    1    3    3    0    0  0.47690941075E+02  0.40408043842E+02 -0.45498268371E+03  0.47467512926E+03  0.12000000000E+03 0.  0.
         25    1    3    3    0    0 -0.47690941075E+02 -0.40408043842E+02 -0.65230865713E+03  0.66619353046E+03  0.12000000000E+03 0.  0.
<mgrwt>
<rscale>  0 0.27474931E+03</rscale>
<asrwt>0</asrwt>
<pdfrwt beam="1">  1        2 0.17293543E+00 0.27474931E+03</pdfrwt>
<pdfrwt beam="2">  1       -2 0.25828700E-02 0.27474931E+03</pdfrwt>
<totfact> 0.11685587E+04</totfact>
</mgrwt>
</event>
<event>
 5    1  0.1108889E+001  0.2745464E+03  0.7818608E-02  0.1098705E+00
          2   -1    0    0  501    0  0.00000000000E+00  0.00000000000E+00  0.16320284749E+04  0.16320284749E+04  0.00000000000E+00 0. -1.
         -2   -1    0    0    0  501 -0.00000000000E+00 -0.00000000000E+00 -0.11546320998E+02  0.11546320998E+02  0.00000000000E+00 0. -1.
         35    2    1    2    0    0  0.00000000000E+00  0.00000000000E+00  0.16204821539E+04  0.16435747959E+04  0.27454635055E+03 0.  0.
         25    1    3    3    0    0 -0.21353564466E+02 -0.36422111924E+02  0.11190765780E+04  0.11262836821E+04  0.12000000000E+03 0.  0.
         25    1    3    3    0    0  0.21353564466E+02  0.36422111924E+02  0.50140557585E+03  0.51729111382E+03  0.12000000000E+03 0.  0.
<mgrwt>
<rscale>  0 0.27454635E+03</rscale>
<asrwt>0</asrwt>
<pdfrwt beam="1">  1        2 0.25108112E+00 0.27454635E+03</pdfrwt>
<pdfrwt beam="2">  1       -2 0.17763584E-02 0.27454635E+03</pdfrwt>
<totfact> 0.10681754E+04</totfact>
</mgrwt>
</event>
<event>
 5    1  0.1108889E+001  0.2742808E+03  0.7818608E-02  0.1098854E+00
         -2   -1    0    0    0  501 -0.00000000000E+00  0.00000000000E+00  0.44830485276E+03  0.44830485276E+03  0.00000000000E+00 0. -1.
          2   -1    0    0  501    0  0.00000000000E+00 -0.00000000000E+00 -0.41952450024E+02  0.41952450024E+02  0.00000000000E+00 0. -1.
         35    2    1    2    0    0  0.00000000000E+00  0.00000000000E+00  0.40635240274E+03  0.49025730278E+03  0.27428078264E+03 0.  0.
         25    1    3    3    0    0 -0.71616044953E+01 -0.31769961581E+02  0.30658273420E+03  0.33083771240E+03  0.12000000000E+03 0.  0.
         25    1    3    3    0    0  0.71616044953E+01  0.31769961581E+02  0.99769668538E+02  0.15941959038E+03  0.12000000000E+03 0.  0.
<mgrwt>
<rscale>  0 0.27428078E+03</rscale>
<asrwt>0</asrwt>
<pdfrwt beam="1">  1        2 0.64542234E-02 0.27428078E+03</pdfrwt>
<pdfrwt beam="2">  1       -2 0.68969974E-01 0.27428078E+03</pdfrwt>
<totfact> 0.22054653E+03</totfact>
</mgrwt>
</event>
<event>
 5    1  0.1108889E+001  0.2748766E+03  0.7818608E-02  0.1098521E+00
         -2   -1    0    0    0  501 -0.00000000000E+00  0.00000000000E+00  0.24033134883E+02  0.24033134883E+02  0.00000000000E+00 0. -1.
          2   -1    0    0  501    0  0.00000000000E+00 -0.00000000000E+00 -0.78596838559E+03  0.78596838559E+03  0.00000000000E+00 0. -1.
         35    2    1    2    0    0  0.00000000000E+00  0.00000000000E+00 -0.76193525071E+03  0.81000152047E+03  0.27487658485E+03 0.  0.
         25    1    3    3    0    0 -0.30593495219E+02  0.54983711280E+02 -0.44881493482E+03  0.46882194506E+03  0.12000000000E+03 0.  0.
         25    1    3    3    0    0  0.30593495219E+02 -0.54983711280E+02 -0.31312031589E+03  0.34117957541E+03  0.12000000000E+03 0.  0.
<mgrwt>
<rscale>  0 0.27487658E+03</rscale>
<asrwt>0</asrwt>
<pdfrwt beam="1">  1        2 0.12091823E+00 0.27487658E+03</pdfrwt>
<pdfrwt beam="2">  1       -2 0.36974049E-02 0.27487658E+03</pdfrwt>
<totfact> 0.11191388E+04</totfact>
</mgrwt>
</event>
<event>
 5    1  0.1108889E+001  0.2750436E+03  0.7818608E-02  0.1098427E+00
          2   -1    0    0  501    0  0.00000000000E+00  0.00000000000E+00  0.79253796001E+02  0.79253796001E+02  0.00000000000E+00 0. -1.
         -2   -1    0    0    0  501 -0.00000000000E+00 -0.00000000000E+00 -0.23862881495E+03  0.23862881495E+03  0.00000000000E+00 0. -1.
         35    2    1    2    0    0  0.00000000000E+00  0.00000000000E+00 -0.15937501895E+03  0.31788261095E+03  0.27504355597E+03 0.  0.
         25    1    3    3    0    0  0.44080419726E+02  0.48155933201E+02 -0.97967504228E+02  0.16810624376E+03  0.12000000000E+03 0.  0.
         25    1    3    3    0    0 -0.44080419726E+02 -0.48155933201E+02 -0.61407514721E+02  0.14977636719E+03  0.12000000000E+03 0.  0.
<mgrwt>
<rscale>  0 0.27504356E+03</rscale>
<asrwt>0</asrwt>
<pdfrwt beam="1">  1        2 0.12192892E-01 0.27504356E+03</pdfrwt>
<pdfrwt beam="2">  1       -2 0.36712125E-01 0.27504356E+03</pdfrwt>
<totfact> 0.35000676E+03</totfact>
</mgrwt>
</event>
<event>
 5    1  0.1108889E+001  0.2745739E+03  0.7818608E-02  0.1098690E+00
          1   -1    0    0  501    0  0.00000000000E+00  0.00000000000E+00  0.19247115016E+02  0.19247115016E+02  0.00000000000E+00 0. -1.
         -1   -1    0    0    0  501 -0.00000000000E+00 -0.00000000000E+00 -0.97924847764E+03  0.97924847764E+03  0.00000000000E+00 0. -1.
         35    2    1    2    0    0  0.00000000000E+00  0.00000000000E+00 -0.96000136262E+03  0.99849559265E+03  0.27457391047E+03 0.  0.
         25    1    3    3    0    0  0.44010388784E+02 -0.29002609939E+02 -0.62859377077E+03  0.64211229108E+03  0.12000000000E+03 0.  0.
         25    1    3    3    0    0 -0.44010388784E+02  0.29002609939E+02 -0.33140759185E+03  0.35638330157E+03  0.12000000000E+03 0.  0.
<mgrwt>
<rscale>  0 0.27457391E+03</rscale>
<asrwt>0</asrwt>
<pdfrwt beam="1">  1        1 0.29610938E-02 0.27457391E+03</pdfrwt>
<pdfrwt beam="2">  1       -1 0.15065365E+00 0.27457391E+03</pdfrwt>
<totfact> 0.12971926E+03</totfact>
</mgrwt>
</event>
<event>
 5    1  0.1108889E+001  0.2750026E+03  0.7818608E-02  0.1098450E+00
         -1   -1    0    0    0  501 -0.00000000000E+00  0.00000000000E+00  0.54402054423E+03  0.54402054423E+03  0.00000000000E+00 0.  1.
          1   -1    0    0  501    0  0.00000000000E+00 -0.00000000000E+00 -0.34753474711E+02  0.34753474711E+02  0.00000000000E+00 0.  1.
         35    2    1    2    0    0  0.00000000000E+00  0.00000000000E+00  0.50926706952E+03  0.57877401894E+03  0.27500257618E+03 0.  0.
         25    1    3    3    0    0  0.21606835410E+02  0.46261699089E+02  0.16290513589E+03  0.20867458743E+03  0.12000000000E+03 0.  0.
         25    1    3    3    0    0 -0.21606835410E+02 -0.46261699089E+02  0.34636193363E+03  0.37009943152E+03  0.12000000000E+03 0.  0.
<mgrwt>
<rscale>  0 0.27500258E+03</rscale>
<asrwt>0</asrwt>
<pdfrwt beam="1">  1        1 0.53466888E-02 0.27500258E+03</pdfrwt>
<pdfrwt beam="2">  1       -1 0.83695462E-01 0.27500258E+03</pdfrwt>
<totfact> 0.22460308E+03</totfact>
</mgrwt>
</event>
<event>
 5    1  0.1108889E+001  0.2784114E+03  0.7818608E-02  0.1096560E+00
         -1   -1    0    0    0  501 -0.00000000000E+00  0.00000000000E+00  0.18708766239E+03  0.18708766239E+03  0.00000000000E+00 0. -1.
          1   -1    0    0  501    0  0.00000000000E+00 -0.00000000000E+00 -0.10357833304E+03  0.10357833304E+03  0.00000000000E+00 0. -1.
         35    2    1    2    0    0  0.00000000000E+00  0.00000000000E+00  0.83509329353E+02  0.29066599543E+03  0.27841140927E+03 0.  0.
         25    1    3    3    0    0  0.53632879916E+02 -0.45010520875E+02  0.50843927021E+02  0.14794437371E+03  0.12000000000E+03 0.  0.
         25    1    3    3    0    0 -0.53632879916E+02  0.45010520875E+02  0.32665402332E+02  0.14272162172E+03  0.12000000000E+03 0.  0.
<mgrwt>
<rscale>  0 0.27841141E+03</rscale>
<asrwt>0</asrwt>
<pdfrwt beam="1">  1        1 0.15935128E-01 0.27841141E+03</pdfrwt>
<pdfrwt beam="2">  1       -1 0.28782717E-01 0.27841141E+03</pdfrwt>
<totfact> 0.37546637E+03</totfact>
</mgrwt>
</event>
<event>
 5    1  0.1108889E+001  0.2780364E+03  0.7818608E-02  0.1096766E+00
         -1   -1    0    0    0  501 -0.00000000000E+00  0.00000000000E+00  0.41813091223E+02  0.41813091223E+02  0.00000000000E+00 0.  1.
          1   -1    0    0  501    0  0.00000000000E+00 -0.00000000000E+00 -0.46220120650E+03  0.46220120650E+03  0.00000000000E+00 0.  1.
         35    2    1    2    0    0  0.00000000000E+00  0.00000000000E+00 -0.42038811528E+03  0.50401429773E+03  0.27803640920E+03 0.  0.
         25    1    3    3    0    0  0.31966704764E+02 -0.34126211287E+02 -0.30507613524E+03  0.33114636764E+03  0.12000000000E+03 0.  0.
         25    1    3    3    0    0 -0.31966704764E+02  0.34126211287E+02 -0.11531198004E+03  0.17286793008E+03  0.12000000000E+03 0.  0.
<mgrwt>
<rscale>  0 0.27803641E+03</rscale>
<asrwt>0</asrwt>
<pdfrwt beam="1">  1        1 0.71107880E-01 0.27803641E+03</pdfrwt>
<pdfrwt beam="2">  1       -1 0.64327831E-02 0.27803641E+03</pdfrwt>
<totfact> 0.59991073E+03</totfact>
</mgrwt>
</event>
<event>
 5    1  0.1108889E+001  0.2753302E+03  0.7818608E-02  0.1098267E+00
          2   -1    0    0  501    0  0.00000000000E+00  0.00000000000E+00  0.13080312306E+04  0.13080312306E+04  0.00000000000E+00 0.  1.
         -2   -1    0    0    0  501 -0.00000000000E+00 -0.00000000000E+00 -0.14488701254E+02  0.14488701254E+02  0.00000000000E+00 0.  1.
         35    2    1    2    0    0  0.00000000000E+00  0.00000000000E+00  0.12935425294E+04  0.13225199319E+04  0.27533015622E+03 0.  0.
         25    1    3    3    0    0  0.33773841502E+02 -0.39505592229E+02  0.85339044741E+03  0.86335196757E+03  0.12000000000E+03 0.  0.
         25    1    3    3    0    0 -0.33773841502E+02  0.39505592229E+02  0.44015208196E+03  0.45916796430E+03  0.12000000000E+03 0.  0.
<mgrwt>
<rscale>  0 0.27533016E+03</rscale>
<asrwt>0</asrwt>
<pdfrwt beam="1">  1        2 0.20123548E+00 0.27533016E+03</pdfrwt>
<pdfrwt beam="2">  1       -2 0.22290320E-02 0.27533016E+03</pdfrwt>
<totfact> 0.11431262E+04</totfact>
</mgrwt>
</event>
<event>
 5    1  0.1108889E+001  0.2749905E+03  0.7818608E-02  0.1098457E+00
         -2   -1    0    0    0  501 -0.00000000000E+00  0.00000000000E+00  0.17100301711E+04  0.17100301711E+04  0.00000000000E+00 0. -1.
          2   -1    0    0  501    0  0.00000000000E+00 -0.00000000000E+00 -0.11055330118E+02  0.11055330118E+02  0.00000000000E+00 0. -1.
         35    2    1    2    0    0  0.00000000000E+00  0.00000000000E+00  0.16989748409E+04  0.17210855012E+04  0.27499053113E+03 0.  0.
         25    1    3    3    0    0 -0.87000759253E+01 -0.64643768422E+02  0.94853331954E+03  0.95831621419E+03  0.12000000000E+03 0.  0.
         25    1    3    3    0    0  0.87000759253E+01  0.64643768422E+02  0.75044152140E+03  0.76276928698E+03  0.12000000000E+03 0.  0.
<mgrwt>
<rscale>  0 0.27499053E+03</rscale>
<asrwt>0</asrwt>
<pdfrwt beam="1">  1        2 0.17008214E-02 0.27499053E+03</pdfrwt>
<pdfrwt beam="2">  1       -2 0.26308135E+00 0.27499053E+03</pdfrwt>
<totfact> 0.41233430E+02</totfact>
</mgrwt>
</event>
<event>
 5    1  0.1108889E+001  0.2744197E+03  0.7818608E-02  0.1098776E+00
          1   -1    0    0  501    0  0.00000000000E+00  0.00000000000E+00  0.37600280749E+03  0.37600280749E+03  0.00000000000E+00 0.  1.
         -1   -1    0    0    0  501 -0.00000000000E+00 -0.00000000000E+00 -0.50070212171E+02  0.50070212171E+02  0.00000000000E+00 0.  1.
         35    2    1    2    0    0  0.00000000000E+00  0.00000000000E+00  0.32593259532E+03  0.42607301966E+03  0.27441968113E+03 0.  0.
         25    1    3    3    0    0 -0.40109513695E+01  0.27558286314E+02  0.25678173490E+03  0.28480239861E+03  0.12000000000E+03 0.  0.
         25    1    3    3    0    0  0.40109513695E+01 -0.27558286314E+02  0.69150860420E+02  0.14127062105E+03  0.12000000000E+03 0.  0.
<mgrwt>
<rscale>  0 0.27441968E+03</rscale>
<asrwt>0</asrwt>
<pdfrwt beam="1">  1        1 0.57846584E-01 0.27441968E+03</pdfrwt>
<pdfrwt beam="2">  1       -1 0.77031098E-02 0.27441968E+03</pdfrwt>
<totfact> 0.59526680E+03</totfact>
</mgrwt>
</event>
<event>
 5    1  0.1108889E+001  0.2773323E+03  0.7818608E-02  0.1097155E+00
          1   -1    0    0  501    0  0.00000000000E+00  0.00000000000E+00  0.99143110471E+03  0.99143110471E+03  0.00000000000E+00 0.  1.
         -1   -1    0    0    0  501 -0.00000000000E+00 -0.00000000000E+00 -0.19394488350E+02  0.19394488350E+02  0.00000000000E+00 0.  1.
         35    2    1    2    0    0  0.00000000000E+00  0.00000000000E+00  0.97203661636E+03  0.10108255931E+04  0.27733228453E+03 0.  0.
         25    1    3    3    0    0 -0.20897247387E+01 -0.57203379766E+02  0.34244277543E+03  0.36734676812E+03  0.12000000000E+03 0.  0.
         25    1    3    3    0    0  0.20897247387E+01  0.57203379766E+02  0.62959384093E+03  0.64347882494E+03  0.12000000000E+03 0.  0.
<mgrwt>
<rscale>  0 0.27733228E+03</rscale>
<asrwt>0</asrwt>
<pdfrwt beam="1">  1        1 0.15252782E+00 0.27733228E+03</pdfrwt>
<pdfrwt beam="2">  1       -1 0.29837682E-02 0.27733228E+03</pdfrwt>
<totfact> 0.61688154E+03</totfact>
</mgrwt>
</event>
<event>
 5    1  0.1108889E+001  0.2750842E+03  0.7818608E-02  0.1098405E+00
         -1   -1    0    0    0  501 -0.00000000000E+00  0.00000000000E+00  0.35253561561E+03  0.35253561561E+03  0.00000000000E+00 0. -1.
          1   -1    0    0  501    0  0.00000000000E+00 -0.00000000000E+00 -0.53662169122E+02  0.53662169122E+02  0.00000000000E+00 0. -1.
         35    2    1    2    0    0  0.00000000000E+00  0.00000000000E+00  0.29887344649E+03  0.40619778473E+03  0.27508417495E+03 0.  0.
         25    1    3    3    0    0 -0.57903690374E+02 -0.12416372846E+02  0.19638388257E+03  0.23764181662E+03  0.12000000000E+03 0.  0.
         25    1    3    3    0    0  0.57903690374E+02  0.12416372846E+02  0.10248956391E+03  0.16855596811E+03  0.12000000000E+03 0.  0.
<mgrwt>
<rscale>  0 0.27508417E+03</rscale>
<asrwt>0</asrwt>
<pdfrwt beam="1">  1        1 0.82557185E-02 0.27508417E+03</pdfrwt>
<pdfrwt beam="2">  1       -1 0.54236247E-01 0.27508417E+03</pdfrwt>
<totfact> 0.29269551E+03</totfact>
</mgrwt>
</event>
<event>
 5    1  0.1108889E+001  0.2751158E+03  0.7818608E-02  0.1098387E+00
         -2   -1    0    0    0  501 -0.00000000000E+00  0.00000000000E+00  0.68502413658E+02  0.68502413658E+02  0.00000000000E+00 0.  1.
          2   -1    0    0  501    0  0.00000000000E+00 -0.00000000000E+00 -0.27622636850E+03  0.27622636850E+03  0.00000000000E+00 0.  1.
         35    2    1    2    0    0  0.00000000000E+00  0.00000000000E+00 -0.20772395484E+03  0.34472878216E+03  0.27511577896E+03 0.  0.
         25    1    3    3    0    0 -0.45268320253E+02  0.27584831127E+02 -0.52015693558E+02  0.14112326563E+03  0.12000000000E+03 0.  0.
         25    1    3    3    0    0  0.45268320253E+02 -0.27584831127E+02 -0.15570826128E+03  0.20360551652E+03  0.12000000000E+03 0.  0.
<mgrwt>
<rscale>  0 0.27511578E+03</rscale>
<asrwt>0</asrwt>
<pdfrwt beam="1">  1        2 0.42496365E-01 0.27511578E+03</pdfrwt>
<pdfrwt beam="2">  1       -2 0.10538833E-01 0.27511578E+03</pdfrwt>
<totfact> 0.72414419E+03</totfact>
</mgrwt>
</event>
<event>
 5    1  0.1108889E+001  0.2750444E+03  0.7818608E-02  0.1098427E+00
          2   -1    0    0  501    0  0.00000000000E+00  0.00000000000E+00  0.11402849896E+04  0.11402849896E+04  0.00000000000E+00 0. -1.
         -2   -1    0    0    0  501 -0.00000000000E+00 -0.00000000000E+00 -0.16585633278E+02  0.16585633278E+02  0.00000000000E+00 0. -1.
         35    2    1    2    0    0  0.00000000000E+00  0.00000000000E+00  0.11236993563E+04  0.11568706228E+04  0.27504435038E+03 0.  0.
         25    1    3    3    0    0 -0.48598949645E+02 -0.24541266949E+02  0.72734967021E+03  0.73918987713E+03  0.12000000000E+03 0.  0.
         25    1    3    3    0    0  0.48598949645E+02  0.24541266949E+02  0.39634968607E+03  0.41768074571E+03  0.12000000000E+03 0.  0.
<mgrwt>
<rscale>  0 0.27504435E+03</rscale>
<asrwt>0</asrwt>
<pdfrwt beam="1">  1        2 0.17542840E+00 0.27504435E+03</pdfrwt>
<pdfrwt beam="2">  1       -2 0.25516368E-02 0.27504435E+03</pdfrwt>
<totfact> 0.11643422E+04</totfact>
</mgrwt>
</event>
<event>
 5    1  0.1108889E+001  0.2746058E+03  0.7818608E-02  0.1098672E+00
         -1   -1    0    0    0  501 -0.00000000000E+00  0.00000000000E+00  0.40240374681E+02  0.40240374681E+02  0.00000000000E+00 0.  1.
          1   -1    0    0  501    0  0.00000000000E+00 -0.00000000000E+00 -0.46848678786E+03  0.46848678786E+03  0.00000000000E+00 0.  1.
         35    2    1    2    0    0  0.00000000000E+00  0.00000000000E+00 -0.42824641318E+03  0.50872716254E+03  0.27460578200E+03 0.  0.
         25    1    3    3    0    0  0.33297019040E+02 -0.38957881235E+02 -0.29327979885E+03  0.32099758317E+03  0.12000000000E+03 0.  0.
         25    1    3    3    0    0 -0.33297019040E+02  0.38957881235E+02 -0.13496661433E+03  0.18772957937E+03  0.12000000000E+03 0.  0.
<mgrwt>
<rscale>  0 0.27460578E+03</rscale>
<asrwt>0</asrwt>
<pdfrwt beam="1">  1        1 0.72074889E-01 0.27460578E+03</pdfrwt>
<pdfrwt beam="2">  1       -1 0.61908270E-02 0.27460578E+03</pdfrwt>
<totfact> 0.62431013E+03</totfact>
</mgrwt>
</event>
<event>
 5    1  0.1108889E+001  0.2790711E+03  0.7818608E-02  0.1096197E+00
         -2   -1    0    0    0  501 -0.00000000000E+00  0.00000000000E+00  0.71956919404E+02  0.71956919404E+02  0.00000000000E+00 0. -1.
          2   -1    0    0  501    0  0.00000000000E+00 -0.00000000000E+00 -0.27058092065E+03  0.27058092065E+03  0.00000000000E+00 0. -1.
         35    2    1    2    0    0  0.00000000000E+00  0.00000000000E+00 -0.19862400125E+03  0.34253784006E+03  0.27907109847E+03 0.  0.
         25    1    3    3    0    0 -0.29108869848E+02 -0.62539030380E+02 -0.77641394256E+02  0.15870300163E+03  0.12000000000E+03 0.  0.
         25    1    3    3    0    0  0.29108869848E+02  0.62539030380E+02 -0.12098260699E+03  0.18383483843E+03  0.12000000000E+03 0.  0.
<mgrwt>
<rscale>  0 0.27907110E+03</rscale>
<asrwt>0</asrwt>
<pdfrwt beam="1">  1        2 0.41627834E-01 0.27907110E+03</pdfrwt>
<pdfrwt beam="2">  1       -2 0.11070295E-01 0.27907110E+03</pdfrwt>
<totfact> 0.68473842E+03</totfact>
</mgrwt>
</event>
<event>
 5    1  0.1108889E+001  0.2755862E+03  0.7818608E-02  0.1098124E+00
         -4   -1    0    0    0  501 -0.00000000000E+00  0.00000000000E+00  0.85259589351E+03  0.85259589351E+03  0.00000000000E+00 0. -1.
          4   -1    0    0  501    0  0.00000000000E+00 -0.00000000000E+00 -0.22269556377E+02  0.22269556377E+02  0.00000000000E+00 0. -1.
         35    2    1    2    0    0  0.00000000000E+00  0.00000000000E+00  0.83032633713E+03  0.87486544988E+03  0.27558615580E+03 0.  0.
         25    1    3    3    0    0 -0.17545421806E+02  0.65403405491E+02  0.41903176186E+03  0.44110436942E+03  0.12000000000E+03 0.  0.
         25    1    3    3    0    0  0.17545421806E+02 -0.65403405491E+02  0.41129457527E+03  0.43376108047E+03  0.12000000000E+03 0.  0.
<mgrwt>
<rscale>  0 0.27558616E+03</rscale>
<asrwt>0</asrwt>
<pdfrwt beam="1">  1        4 0.34260863E-02 0.27558616E+03</pdfrwt>
<pdfrwt beam="2">  1       -4 0.13116857E+00 0.27558616E+03</pdfrwt>
<totfact> 0.36388138E+02</totfact>
</mgrwt>
</event>
<event>
 5    1  0.1108889E+001  0.2752166E+03  0.7818608E-02  0.1098331E+00
         -1   -1    0    0    0  501 -0.00000000000E+00  0.00000000000E+00  0.61658321031E+01  0.61658321031E+01  0.00000000000E+00 0.  1.
          1   -1    0    0  501    0  0.00000000000E+00 -0.00000000000E+00 -0.30711256528E+04  0.30711256528E+04  0.00000000000E+00 0.  1.
         35    2    1    2    0    0  0.00000000000E+00  0.00000000000E+00 -0.30649598207E+04  0.30772914849E+04  0.27521660664E+03 0.  0.
         25    1    3    3    0    0  0.18688039355E+01  0.34225648211E+02 -0.88423600066E+03  0.89299954776E+03  0.12000000000E+03 0.  0.
         25    1    3    3    0    0 -0.18688039355E+01 -0.34225648211E+02 -0.21807238200E+04  0.21842919371E+04  0.12000000000E+03 0.  0.
<mgrwt>
<rscale>  0 0.27521661E+03</rscale>
<asrwt>0</asrwt>
<pdfrwt beam="1">  1        1 0.47248169E+00 0.27521661E+03</pdfrwt>
<pdfrwt beam="2">  1       -1 0.94858791E-03 0.27521661E+03</pdfrwt>
<totfact> 0.13095576E+03</totfact>
</mgrwt>
</event>
<event>
 5    1  0.1108889E+001  0.2751624E+03  0.7818608E-02  0.1098361E+00
          2   -1    0    0  501    0  0.00000000000E+00  0.00000000000E+00  0.23054774413E+02  0.23054774413E+02  0.00000000000E+00 0. -1.
         -2   -1    0    0    0  501 -0.00000000000E+00 -0.00000000000E+00 -0.82102700989E+03  0.82102700989E+03  0.00000000000E+00 0. -1.
         35    2    1    2    0    0  0.00000000000E+00  0.00000000000E+00 -0.79797223547E+03  0.84408178430E+03  0.27516244293E+03 0.  0.
         25    1    3    3    0    0 -0.15342309330E+02 -0.61950175197E+02 -0.33352502899E+03  0.36015573801E+03  0.12000000000E+03 0.  0.
         25    1    3    3    0    0  0.15342309330E+02  0.61950175197E+02 -0.46444720648E+03  0.48392604629E+03  0.12000000000E+03 0.  0.
<mgrwt>
<rscale>  0 0.27516244E+03</rscale>
<asrwt>0</asrwt>
<pdfrwt beam="1">  1        2 0.35468878E-02 0.27516244E+03</pdfrwt>
<pdfrwt beam="2">  1       -2 0.12631187E+00 0.27516244E+03</pdfrwt>
<totfact> 0.12210581E+03</totfact>
</mgrwt>
</event>
<event>
 5    1  0.1108889E+001  0.2752947E+03  0.7818608E-02  0.1098287E+00
         -1   -1    0    0    0  501 -0.00000000000E+00  0.00000000000E+00  0.11340496763E+02  0.11340496763E+02  0.00000000000E+00 0. -1.
          1   -1    0    0  501    0  0.00000000000E+00 -0.00000000000E+00 -0.16707195072E+04  0.16707195072E+04  0.00000000000E+00 0. -1.
         35    2    1    2    0    0  0.00000000000E+00  0.00000000000E+00 -0.16593790104E+04  0.16820600039E+04  0.27529467240E+03 0.  0.
         25    1    3    3    0    0  0.98737260364E+01 -0.62351693102E+02 -0.97448122236E+03  0.98386933931E+03  0.12000000000E+03 0.  0.
         25    1    3    3    0    0 -0.98737260364E+01  0.62351693102E+02 -0.68489778806E+03  0.69819066463E+03  0.12000000000E+03 0.  0.
<mgrwt>
<rscale>  0 0.27529467E+03</rscale>
<asrwt>0</asrwt>
<pdfrwt beam="1">  1        1 0.25703344E+00 0.27529467E+03</pdfrwt>
<pdfrwt beam="2">  1       -1 0.17446940E-02 0.27529467E+03</pdfrwt>
<totfact> 0.46258260E+03</totfact>
</mgrwt>
</event>
<event>
 5    1  0.1108889E+001  0.2837253E+03  0.7818608E-02  0.1093672E+00
         -1   -1    0    0    0  501 -0.00000000000E+00  0.00000000000E+00  0.43681527486E+02  0.43681527486E+02  0.00000000000E+00 0. -1.
          1   -1    0    0  501    0  0.00000000000E+00 -0.00000000000E+00 -0.46072116920E+03  0.46072116920E+03  0.00000000000E+00 0. -1.
         35    2    1    2    0    0  0.00000000000E+00  0.00000000000E+00 -0.41703964171E+03  0.50440269668E+03  0.28372525031E+03 0.  0.
         25    1    3    3    0    0 -0.25487920005E+02 -0.50847584248E+02 -0.29722925314E+03  0.32554621763E+03  0.12000000000E+03 0.  0.
         25    1    3    3    0    0  0.25487920005E+02  0.50847584248E+02 -0.11981038857E+03  0.17885647905E+03  0.12000000000E+03 0.  0.
<mgrwt>
<rscale>  0 0.28372525E+03</rscale>
<asrwt>0</asrwt>
<pdfrwt beam="1">  1        1 0.70880178E-01 0.28372525E+03</pdfrwt>
<pdfrwt beam="2">  1       -1 0.67202352E-02 0.28372525E+03</pdfrwt>
<totfact> 0.56415878E+03</totfact>
</mgrwt>
</event>
<event>
 5    1  0.1108889E+001  0.2748827E+03  0.7818608E-02  0.1098517E+00
          1   -1    0    0  501    0  0.00000000000E+00  0.00000000000E+00  0.42508090179E+03  0.42508090179E+03  0.00000000000E+00 0.  1.
         -1   -1    0    0    0  501 -0.00000000000E+00 -0.00000000000E+00 -0.44438886399E+02  0.44438886399E+02  0.00000000000E+00 0.  1.
         35    2    1    2    0    0  0.00000000000E+00  0.00000000000E+00  0.38064201539E+03  0.46951978819E+03  0.27488267974E+03 0.  0.
         25    1    3    3    0    0  0.94746603144E+01 -0.13967415072E+01  0.77040815753E+02  0.14292308199E+03  0.12000000000E+03 0.  0.
         25    1    3    3    0    0 -0.94746603144E+01  0.13967415072E+01  0.30360119963E+03  0.32659670619E+03  0.12000000000E+03 0.  0.
<mgrwt>
<rscale>  0 0.27488268E+03</rscale>
<asrwt>0</asrwt>
<pdfrwt beam="1">  1        1 0.65397059E-01 0.27488268E+03</pdfrwt>
<pdfrwt beam="2">  1       -1 0.68367521E-02 0.27488268E+03</pdfrwt>
<totfact> 0.60977031E+03</totfact>
</mgrwt>
</event>
<event>
 5    1  0.1108889E+001  0.2742366E+03  0.7818608E-02  0.1098879E+00
         -2   -1    0    0    0  501 -0.00000000000E+00  0.00000000000E+00  0.33297931736E+03  0.33297931736E+03  0.00000000000E+00 0. -1.
          2   -1    0    0  501    0  0.00000000000E+00 -0.00000000000E+00 -0.56464270563E+02  0.56464270563E+02  0.00000000000E+00 0. -1.
         35    2    1    2    0    0  0.00000000000E+00  0.00000000000E+00  0.27651504680E+03  0.38944358793E+03  0.27423664429E+03 0.  0.
         25    1    3    3    0    0  0.60422117202E+02 -0.90476533559E+01  0.17498138720E+03  0.22079668961E+03  0.12000000000E+03 0.  0.
         25    1    3    3    0    0 -0.60422117202E+02  0.90476533559E+01  0.10153365960E+03  0.16864689831E+03  0.12000000000E+03 0.  0.
<mgrwt>
<rscale>  0 0.27423664E+03</rscale>
<asrwt>0</asrwt>
<pdfrwt beam="1">  1        2 0.86868111E-02 0.27423664E+03</pdfrwt>
<pdfrwt beam="2">  1       -2 0.51227586E-01 0.27423664E+03</pdfrwt>
<totfact> 0.27898793E+03</totfact>
</mgrwt>
</event>
<event>
 5    1  0.1108889E+001  0.2739604E+03  0.7818608E-02  0.1099034E+00
         -2   -1    0    0    0  501 -0.00000000000E+00  0.00000000000E+00  0.19117581961E+02  0.19117581961E+02  0.00000000000E+00 0.  1.
          2   -1    0    0  501    0  0.00000000000E+00 -0.00000000000E+00 -0.98148258937E+03  0.98148258937E+03  0.00000000000E+00 0.  1.
         35    2    1    2    0    0  0.00000000000E+00  0.00000000000E+00 -0.96236500741E+03  0.10006001713E+04  0.27396039017E+03 0.  0.
         25    1    3    3    0    0  0.30668572099E+02 -0.38058434638E+02 -0.64347889130E+03  0.65639476636E+03  0.12000000000E+03 0.  0.
         25    1    3    3    0    0 -0.30668572099E+02  0.38058434638E+02 -0.31888611611E+03  0.34420540497E+03  0.12000000000E+03 0.  0.
<mgrwt>
<rscale>  0 0.27396039E+03</rscale>
<asrwt>0</asrwt>
<pdfrwt beam="1">  1        2 0.15099732E+00 0.27396039E+03</pdfrwt>
<pdfrwt beam="2">  1       -2 0.29411666E-02 0.27396039E+03</pdfrwt>
<totfact> 0.11729840E+04</totfact>
</mgrwt>
</event>
<event>
 5    1  0.1108889E+001  0.2831560E+03  0.7818608E-02  0.1093978E+00
          2   -1    0    0  501    0  0.00000000000E+00  0.00000000000E+00  0.19886135615E+04  0.19886135615E+04  0.00000000000E+00 0.  1.
         -2   -1    0    0    0  501 -0.00000000000E+00 -0.00000000000E+00 -0.10079549549E+02  0.10079549549E+02  0.00000000000E+00 0.  1.
         35    2    1    2    0    0  0.00000000000E+00  0.00000000000E+00  0.19785340120E+04  0.19986931111E+04  0.28315599183E+03 0.  0.
         25    1    3    3    0    0 -0.62292450508E+02 -0.17759420332E+02  0.72061382911E+03  0.73340305229E+03  0.12000000000E+03 0.  0.
         25    1    3    3    0    0  0.62292450508E+02  0.17759420332E+02  0.12579201829E+04  0.12652900588E+04  0.12000000000E+03 0.  0.
<mgrwt>
<rscale>  0 0.28315599E+03</rscale>
<asrwt>0</asrwt>
<pdfrwt beam="1">  1        2 0.30594024E+00 0.28315599E+03</pdfrwt>
<pdfrwt beam="2">  1       -2 0.15507015E-02 0.28315599E+03</pdfrwt>
<totfact> 0.84672734E+03</totfact>
</mgrwt>
</event>
<event>
 5    1  0.1108889E+001  0.2736956E+03  0.7818608E-02  0.1099183E+00
         -2   -1    0    0    0  501 -0.00000000000E+00  0.00000000000E+00  0.23171298482E+03  0.23171298482E+03  0.00000000000E+00 0. -1.
          2   -1    0    0  501    0  0.00000000000E+00 -0.00000000000E+00 -0.80821196646E+02  0.80821196646E+02  0.00000000000E+00 0. -1.
         35    2    1    2    0    0  0.00000000000E+00  0.00000000000E+00  0.15089178818E+03  0.31253418147E+03  0.27369560253E+03 0.  0.
         25    1    3    3    0    0  0.22647057494E+02  0.29049801277E+02  0.13209066805E+02  0.12621909370E+03  0.12000000000E+03 0.  0.
         25    1    3    3    0    0 -0.22647057494E+02 -0.29049801277E+02  0.13768272137E+03  0.18631508777E+03  0.12000000000E+03 0.  0.
<mgrwt>
<rscale>  0 0.27369560E+03</rscale>
<asrwt>0</asrwt>
<pdfrwt beam="1">  1        2 0.12434030E-01 0.27369560E+03</pdfrwt>
<pdfrwt beam="2">  1       -2 0.35648151E-01 0.27369560E+03</pdfrwt>
<totfact> 0.36110747E+03</totfact>
</mgrwt>
</event>
<event>
 5    1  0.1108889E+001  0.2747293E+03  0.7818608E-02  0.1098603E+00
          1   -1    0    0  501    0  0.00000000000E+00  0.00000000000E+00  0.13348348511E+04  0.13348348511E+04  0.00000000000E+00 0.  1.
         -1   -1    0    0    0  501 -0.00000000000E+00 -0.00000000000E+00 -0.14135864082E+02  0.14135864082E+02  0.00000000000E+00 0.  1.
         35    2    1    2    0    0  0.00000000000E+00  0.00000000000E+00  0.13206989870E+04  0.13489707152E+04  0.27472927785E+03 0.  0.
         25    1    3    3    0    0 -0.34039423735E+02  0.61046757250E+01  0.94126573907E+03  0.94951416049E+03  0.12000000000E+03 0.  0.
         25    1    3    3    0    0  0.34039423735E+02 -0.61046757250E+01  0.37943324794E+03  0.39945655468E+03  0.12000000000E+03 0.  0.
<mgrwt>
<rscale>  0 0.27472928E+03</rscale>
<asrwt>0</asrwt>
<pdfrwt beam="1">  1        1 0.20535911E+00 0.27472928E+03</pdfrwt>
<pdfrwt beam="2">  1       -1 0.21747494E-02 0.27472928E+03</pdfrwt>
<totfact> 0.56017545E+03</totfact>
</mgrwt>
</event>
<event>
 5    1  0.1108889E+001  0.2738322E+03  0.7818608E-02  0.1099106E+00
          2   -1    0    0  501    0  0.00000000000E+00  0.00000000000E+00  0.65399454509E+02  0.65399454509E+02  0.00000000000E+00 0. -1.
         -2   -1    0    0    0  501 -0.00000000000E+00 -0.00000000000E+00 -0.28663883878E+03  0.28663883878E+03  0.00000000000E+00 0. -1.
         35    2    1    2    0    0  0.00000000000E+00  0.00000000000E+00 -0.22123938427E+03  0.35203829328E+03  0.27383223840E+03 0.  0.
         25    1    3    3    0    0  0.27824748377E+02  0.34673284576E+02 -0.17320035218E+03  0.21534812579E+03  0.12000000000E+03 0.  0.
         25    1    3    3    0    0 -0.27824748377E+02 -0.34673284576E+02 -0.48039032082E+02  0.13669016749E+03  0.12000000000E+03 0.  0.
<mgrwt>
<rscale>  0 0.27383224E+03</rscale>
<asrwt>0</asrwt>
<pdfrwt beam="1">  1        2 0.10061454E-01 0.27383224E+03</pdfrwt>
<pdfrwt beam="2">  1       -2 0.44098284E-01 0.27383224E+03</pdfrwt>
<totfact> 0.31208436E+03</totfact>
</mgrwt>
</event>
<event>
 5    1  0.1108889E+001  0.2756104E+03  0.7818608E-02  0.1098111E+00
          4   -1    0    0  501    0  0.00000000000E+00  0.00000000000E+00  0.17970488878E+03  0.17970488878E+03  0.00000000000E+00 0. -1.
         -4   -1    0    0    0  501 -0.00000000000E+00 -0.00000000000E+00 -0.10567477196E+03  0.10567477196E+03  0.00000000000E+00 0. -1.
         35    2    1    2    0    0  0.00000000000E+00  0.00000000000E+00  0.74030116824E+02  0.28537966075E+03  0.27561039997E+03 0.  0.
         25    1    3    3    0    0 -0.58948367469E+02 -0.25603900590E+02  0.14811964271E+02  0.13693014291E+03  0.12000000000E+03 0.  0.
         25    1    3    3    0    0  0.58948367469E+02  0.25603900590E+02  0.59218152553E+02  0.14844951783E+03  0.12000000000E+03 0.  0.
<mgrwt>
<rscale>  0 0.27561040E+03</rscale>
<asrwt>0</asrwt>
<pdfrwt beam="1">  1        4 0.27646906E-01 0.27561040E+03</pdfrwt>
<pdfrwt beam="2">  1       -4 0.16257657E-01 0.27561040E+03</pdfrwt>
<totfact> 0.76129271E+02</totfact>
</mgrwt>
</event>
<event>
 5    1  0.1108889E+001  0.2756226E+03  0.7818608E-02  0.1098104E+00
         -2   -1    0    0    0  501 -0.00000000000E+00  0.00000000000E+00  0.10149899942E+02  0.10149899942E+02  0.00000000000E+00 0.  1.
          2   -1    0    0  501    0  0.00000000000E+00 -0.00000000000E+00 -0.18711475503E+04  0.18711475503E+04  0.00000000000E+00 0.  1.
         35    2    1    2    0    0  0.00000000000E+00  0.00000000000E+00 -0.18609976504E+04  0.18812974502E+04  0.27562264357E+03 0.  0.
         25    1    3    3    0    0 -0.51601172085E+02  0.36410046313E+02 -0.76280662462E+03  0.77476597693E+03  0.12000000000E+03 0.  0.
         25    1    3    3    0    0  0.51601172085E+02 -0.36410046313E+02 -0.10981910257E+04  0.11065314733E+04  0.12000000000E+03 0.  0.
<mgrwt>
<rscale>  0 0.27562264E+03</rscale>
<asrwt>0</asrwt>
<pdfrwt beam="1">  1        2 0.28786926E+00 0.27562264E+03</pdfrwt>
<pdfrwt beam="2">  1       -2 0.15615209E-02 0.27562264E+03</pdfrwt>
<totfact> 0.96591444E+03</totfact>
</mgrwt>
</event>
<event>
 5    1  0.1108889E+001  0.2750221E+03  0.7818608E-02  0.1098439E+00
         -1   -1    0    0    0  501 -0.00000000000E+00  0.00000000000E+00  0.38593001300E+04  0.38593001300E+04  0.00000000000E+00 0. -1.
          1   -1    0    0  501    0  0.00000000000E+00 -0.00000000000E+00 -0.48996686857E+01  0.48996686857E+01  0.00000000000E+00 0. -1.
         35    2    1    2    0    0  0.00000000000E+00  0.00000000000E+00  0.38544004613E+04  0.38641997987E+04  0.27502212272E+03 0.  0.
         25    1    3    3    0    0  0.17650076707E+01 -0.26694811941E+02  0.10618027279E+04  0.10688969835E+04  0.12000000000E+03 0.  0.
         25    1    3    3    0    0 -0.17650076707E+01  0.26694811941E+02  0.27925977334E+04  0.27953028152E+04  0.12000000000E+03 0.  0.
<mgrwt>
<rscale>  0 0.27502212E+03</rscale>
<asrwt>0</asrwt>
<pdfrwt beam="1">  1        1 0.75379827E-03 0.27502212E+03</pdfrwt>
<pdfrwt beam="2">  1       -1 0.59373605E+00 0.27502212E+03</pdfrwt>
<totfact> 0.13238242E+01</totfact>
</mgrwt>
</event>
<event>
 5    1  0.1108889E+001  0.2748634E+03  0.7818608E-02  0.1098528E+00
          2   -1    0    0  501    0  0.00000000000E+00  0.00000000000E+00  0.15556809214E+04  0.15556809214E+04  0.00000000000E+00 0.  1.
         -2   -1    0    0    0  501 -0.00000000000E+00 -0.00000000000E+00 -0.12140971684E+02  0.12140971684E+02  0.00000000000E+00 0.  1.
         35    2    1    2    0    0  0.00000000000E+00  0.00000000000E+00  0.15435399497E+04  0.15678218931E+04  0.27486344257E+03 0.  0.
         25    1    3    3    0    0 -0.31142652806E+02  0.15172833178E+02  0.44472618426E+03  0.46193230961E+03  0.12000000000E+03 0.  0.
         25    1    3    3    0    0  0.31142652806E+02 -0.15172833178E+02  0.10988137654E+04  0.11058895835E+04  0.12000000000E+03 0.  0.
<mgrwt>
<rscale>  0 0.27486344E+03</rscale>
<asrwt>0</asrwt>
<pdfrwt beam="1">  1        2 0.23933537E+00 0.27486344E+03</pdfrwt>
<pdfrwt beam="2">  1       -2 0.18678430E-02 0.27486344E+03</pdfrwt>
<totfact> 0.10892198E+04</totfact>
</mgrwt>
</event>
<event>
 5    1  0.1108889E+001  0.2766734E+03  0.7818608E-02  0.1097520E+00
          1   -1    0    0  501    0  0.00000000000E+00  0.00000000000E+00  0.50608450501E+03  0.50608450501E+03  0.00000000000E+00 0. -1.
         -1   -1    0    0    0  501 -0.00000000000E+00 -0.00000000000E+00 -0.37813921645E+02  0.37813921645E+02  0.00000000000E+00 0. -1.
         35    2    1    2    0    0  0.00000000000E+00  0.00000000000E+00  0.46827058337E+03  0.54389842666E+03  0.27667338013E+03 0.  0.
         25    1    3    3    0    0  0.44251698379E+02  0.52632323396E+02  0.22834836060E+03  0.26696694189E+03  0.12000000000E+03 0.  0.
         25    1    3    3    0    0 -0.44251698379E+02 -0.52632323396E+02  0.23992222277E+03  0.27693148477E+03  0.12000000000E+03 0.  0.
<mgrwt>
<rscale>  0 0.27667338E+03</rscale>
<asrwt>0</asrwt>
<pdfrwt beam="1">  1        1 0.77859150E-01 0.27667338E+03</pdfrwt>
<pdfrwt beam="2">  1       -1 0.58175268E-02 0.27667338E+03</pdfrwt>
<totfact> 0.61932891E+03</totfact>
</mgrwt>
</event>
<event>
 5    1  0.1108889E+001  0.2730132E+03  0.7818608E-02  0.1099567E+00
          1   -1    0    0  501    0  0.00000000000E+00  0.00000000000E+00  0.16476374480E+02  0.16476374480E+02  0.00000000000E+00 0. -1.
         -1   -1    0    0    0  501 -0.00000000000E+00 -0.00000000000E+00 -0.11309560678E+04  0.11309560678E+04  0.00000000000E+00 0. -1.
         35    2    1    2    0    0  0.00000000000E+00  0.00000000000E+00 -0.11144796933E+04  0.11474324423E+04  0.27301322820E+03 0.  0.
         25    1    3    3    0    0 -0.75978364120E+01  0.43805912390E+02 -0.75692458262E+03  0.76766627440E+03  0.12000000000E+03 0.  0.
         25    1    3    3    0    0  0.75978364120E+01 -0.43805912390E+02 -0.35755511073E+03  0.37976616791E+03  0.12000000000E+03 0.  0.
<mgrwt>
<rscale>  0 0.27301323E+03</rscale>
<asrwt>0</asrwt>
<pdfrwt beam="1">  1        1 0.25348264E-02 0.27301323E+03</pdfrwt>
<pdfrwt beam="2">  1       -1 0.17399327E+00 0.27301323E+03</pdfrwt>
<totfact> 0.10897646E+03</totfact>
</mgrwt>
</event>
<event>
 5    1  0.1108889E+001  0.2744428E+03  0.7818608E-02  0.1098763E+00
         -2   -1    0    0    0  501 -0.00000000000E+00  0.00000000000E+00  0.44990882533E+02  0.44990882533E+02  0.00000000000E+00 0. -1.
          2   -1    0    0  501    0  0.00000000000E+00 -0.00000000000E+00 -0.41852282483E+03  0.41852282483E+03  0.00000000000E+00 0. -1.
         35    2    1    2    0    0  0.00000000000E+00  0.00000000000E+00 -0.37353194230E+03  0.46351370736E+03  0.27444279003E+03 0.  0.
         25    1    3    3    0    0 -0.55898106126E+02  0.14754652027E+02 -0.24245992637E+03  0.27663895952E+03  0.12000000000E+03 0.  0.
         25    1    3    3    0    0  0.55898106126E+02 -0.14754652027E+02 -0.13107201592E+03  0.18687474785E+03  0.12000000000E+03 0.  0.
<mgrwt>
<rscale>  0 0.27444279E+03</rscale>
<asrwt>0</asrwt>
<pdfrwt beam="1">  1        2 0.64388125E-01 0.27444279E+03</pdfrwt>
<pdfrwt beam="2">  1       -2 0.69216745E-02 0.27444279E+03</pdfrwt>
<totfact> 0.89469999E+03</totfact>
</mgrwt>
</event>
<event>
 5    1  0.1108889E+001  0.2751766E+03  0.7818608E-02  0.1098353E+00
         -2   -1    0    0    0  501 -0.00000000000E+00  0.00000000000E+00  0.36250924813E+02  0.36250924813E+02  0.00000000000E+00 0.  1.
          2   -1    0    0  501    0  0.00000000000E+00 -0.00000000000E+00 -0.52220853618E+03  0.52220853618E+03  0.00000000000E+00 0.  1.
         35    2    1    2    0    0  0.00000000000E+00  0.00000000000E+00 -0.48595761137E+03  0.55845946100E+03  0.27517661515E+03 0.  0.
         25    1    3    3    0    0  0.15770599071E+02 -0.23518382563E+01 -0.11026558680E+03  0.16374596963E+03  0.12000000000E+03 0.  0.
         25    1    3    3    0    0 -0.15770599071E+02  0.23518382563E+01 -0.37569202457E+03  0.39471349137E+03  0.12000000000E+03 0.  0.
<mgrwt>
<rscale>  0 0.27517662E+03</rscale>
<asrwt>0</asrwt>
<pdfrwt beam="1">  1        2 0.80339772E-01 0.27517662E+03</pdfrwt>
<pdfrwt beam="2">  1       -2 0.55770655E-02 0.27517662E+03</pdfrwt>
<totfact> 0.97601495E+03</totfact>
</mgrwt>
</event>
<event>
 5    1  0.1108889E+001  0.2754032E+03  0.7818608E-02  0.1098226E+00
          3   -1    0    0  501    0  0.00000000000E+00  0.00000000000E+00  0.52093336640E+03  0.52093336640E+03  0.00000000000E+00 0.  1.
         -3   -1    0    0    0  501 -0.00000000000E+00 -0.00000000000E+00 -0.36399535635E+02  0.36399535635E+02  0.00000000000E+00 0.  1.
         35    2    1    2    0    0  0.00000000000E+00  0.00000000000E+00  0.48453383076E+03  0.55733290204E+03  0.27540321446E+03 0.  0.
         25    1    3    3    0    0  0.40207906490E+02 -0.51420527757E+01  0.35159561195E+03  0.37371458467E+03  0.12000000000E+03 0.  0.
         25    1    3    3    0    0 -0.40207906490E+02  0.51420527757E+01  0.13293821881E+03  0.18361831737E+03  0.12000000000E+03 0.  0.
<mgrwt>
<rscale>  0 0.27540321E+03</rscale>
<asrwt>0</asrwt>
<pdfrwt beam="1">  1        3 0.80143589E-01 0.27540321E+03</pdfrwt>
<pdfrwt beam="2">  1       -3 0.55999290E-02 0.27540321E+03</pdfrwt>
<totfact> 0.71841117E+02</totfact>
</mgrwt>
</event>
<event>
 5    1  0.1108889E+001  0.2754314E+03  0.7818608E-02  0.1098211E+00
          2   -1    0    0  501    0  0.00000000000E+00  0.00000000000E+00  0.42314157151E+03  0.42314157151E+03  0.00000000000E+00 0. -1.
         -2   -1    0    0    0  501 -0.00000000000E+00 -0.00000000000E+00 -0.44820970759E+02  0.44820970759E+02  0.00000000000E+00 0. -1.
         35    2    1    2    0    0  0.00000000000E+00  0.00000000000E+00  0.37832060075E+03  0.46796254227E+03  0.27543141436E+03 0.  0.
         25    1    3    3    0    0 -0.25915775764E+02  0.62300291922E+02  0.18311452305E+03  0.22909361047E+03  0.12000000000E+03 0.  0.
         25    1    3    3    0    0  0.25915775764E+02 -0.62300291922E+02  0.19520607770E+03  0.23886893180E+03  0.12000000000E+03 0.  0.
<mgrwt>
<rscale>  0 0.27543141E+03</rscale>
<asrwt>0</asrwt>
<pdfrwt beam="1">  1        2 0.65098701E-01 0.27543141E+03</pdfrwt>
<pdfrwt beam="2">  1       -2 0.68955342E-02 0.27543141E+03</pdfrwt>
<totfact> 0.88935197E+03</totfact>
</mgrwt>
</event>
<event>
 5    1  0.1108889E+001  0.2743509E+03  0.7818608E-02  0.1098815E+00
         -1   -1    0    0    0  501 -0.00000000000E+00  0.00000000000E+00  0.13600071969E+03  0.13600071969E+03  0.00000000000E+00 0. -1.
          1   -1    0    0  501    0  0.00000000000E+00 -0.00000000000E+00 -0.13836032629E+03  0.13836032629E+03  0.00000000000E+00 0. -1.
         35    2    1    2    0    0  0.00000000000E+00  0.00000000000E+00 -0.23596065979E+01  0.27436104599E+03  0.27435089905E+03 0.  0.
         25    1    3    3    0    0  0.34229505214E+02 -0.34191446845E+02  0.44389303370E+02  0.13678861180E+03  0.12000000000E+03 0.  0.
         25    1    3    3    0    0 -0.34229505214E+02  0.34191446845E+02 -0.46748909968E+02  0.13757243419E+03  0.12000000000E+03 0.  0.
<mgrwt>
<rscale>  0 0.27435090E+03</rscale>
<asrwt>0</asrwt>
<pdfrwt beam="1">  1        1 0.21286204E-01 0.27435090E+03</pdfrwt>
<pdfrwt beam="2">  1       -1 0.20923187E-01 0.27435090E+03</pdfrwt>
<totfact> 0.43804758E+03</totfact>
</mgrwt>
</event>
<event>
 5    1  0.1108889E+001  0.2729734E+03  0.7818608E-02  0.1099590E+00
          2   -1    0    0  501    0  0.00000000000E+00  0.00000000000E+00  0.36846579797E+03  0.36846579797E+03  0.00000000000E+00 0.  1.
         -2   -1    0    0    0  501 -0.00000000000E+00 -0.00000000000E+00 -0.50557270795E+02  0.50557270795E+02  0.00000000000E+00 0.  1.
         35    2    1    2    0    0  0.00000000000E+00  0.00000000000E+00  0.31790852717E+03  0.41902306876E+03  0.27297344286E+03 0.  0.
         25    1    3    3    0    0  0.48364058507E+01 -0.23144265039E+02  0.65966552803E+02  0.13896270692E+03  0.12000000000E+03 0.  0.
         25    1    3    3    0    0 -0.48364058507E+01  0.23144265039E+02  0.25194197437E+03  0.28006036184E+03  0.12000000000E+03 0.  0.
<mgrwt>
<rscale>  0 0.27297344E+03</rscale>
<asrwt>0</asrwt>
<pdfrwt beam="1">  1        2 0.56687044E-01 0.27297344E+03</pdfrwt>
<pdfrwt beam="2">  1       -2 0.77780419E-02 0.27297344E+03</pdfrwt>
<totfact> 0.85695873E+03</totfact>
</mgrwt>
</event>
<event>
 5    1  0.1108889E+001  0.2751325E+03  0.7818608E-02  0.1098378E+00
         -2   -1    0    0    0  501 -0.00000000000E+00  0.00000000000E+00  0.63458183430E+03  0.63458183430E+03  0.00000000000E+00 0.  1.
          2   -1    0    0  501    0  0.00000000000E+00 -0.00000000000E+00 -0.29821949508E+02  0.29821949508E+02  0.00000000000E+00 0.  1.
         35    2    1    2    0    0  0.00000000000E+00  0.00000000000E+00  0.60475988479E+03  0.66440378381E+03  0.27513245844E+03 0.  0.
         25    1    3    3    0    0  0.49698303953E+02 -0.45150341002E+02  0.29272273990E+03  0.32341162187E+03  0.12000000000E+03 0.  0.
         25    1    3    3    0    0 -0.49698303953E+02  0.45150341002E+02  0.31203714490E+03  0.34099216194E+03  0.12000000000E+03 0.  0.
<mgrwt>
<rscale>  0 0.27513246E+03</rscale>
<asrwt>0</asrwt>
<pdfrwt beam="1">  1        2 0.45879927E-02 0.27513246E+03</pdfrwt>
<pdfrwt beam="2">  1       -2 0.97627964E-01 0.27513246E+03</pdfrwt>
<totfact> 0.15974456E+03</totfact>
</mgrwt>
</event>
<event>
 5    1  0.1108889E+001  0.2718387E+03  0.7818608E-02  0.1100232E+00
         -3   -1    0    0    0  501 -0.00000000000E+00  0.00000000000E+00  0.12594744319E+03  0.12594744319E+03  0.00000000000E+00 0. -1.
          3   -1    0    0  501    0  0.00000000000E+00 -0.00000000000E+00 -0.14668080344E+03  0.14668080344E+03  0.00000000000E+00 0. -1.
         35    2    1    2    0    0  0.00000000000E+00  0.00000000000E+00 -0.20733360251E+02  0.27262824663E+03  0.27183871805E+03 0.  0.
         25    1    3    3    0    0 -0.26804101970E+02  0.57888167316E+02 -0.82221617939E+01  0.13615103284E+03  0.12000000000E+03 0.  0.
         25    1    3    3    0    0  0.26804101970E+02 -0.57888167316E+02 -0.12511198457E+02  0.13647721379E+03  0.12000000000E+03 0.  0.
<mgrwt>
<rscale>  0 0.27183872E+03</rscale>
<asrwt>0</asrwt>
<pdfrwt beam="1">  1        3 0.22566277E-01 0.27183872E+03</pdfrwt>
<pdfrwt beam="2">  1       -3 0.19376530E-01 0.27183872E+03</pdfrwt>
<totfact> 0.10905786E+03</totfact>
</mgrwt>
</event>
<event>
 5    1  0.1108889E+001  0.2749586E+03  0.7818608E-02  0.1098475E+00
          3   -1    0    0  501    0  0.00000000000E+00  0.00000000000E+00  0.12553077669E+03  0.12553077669E+03  0.00000000000E+00 0. -1.
         -3   -1    0    0    0  501 -0.00000000000E+00 -0.00000000000E+00 -0.15056517426E+03  0.15056517426E+03  0.00000000000E+00 0. -1.
         35    2    1    2    0    0  0.00000000000E+00  0.00000000000E+00 -0.25034397567E+02  0.27609595095E+03  0.27495863883E+03 0.  0.
         25    1    3    3    0    0 -0.18291754815E+02  0.59657309525E+02  0.12221679268E+02  0.13580483172E+03  0.12000000000E+03 0.  0.
         25    1    3    3    0    0  0.18291754815E+02 -0.59657309525E+02 -0.37256076835E+02  0.14029111923E+03  0.12000000000E+03 0.  0.
<mgrwt>
<rscale>  0 0.27495864E+03</rscale>
<asrwt>0</asrwt>
<pdfrwt beam="1">  1        3 0.19312427E-01 0.27495864E+03</pdfrwt>
<pdfrwt beam="2">  1       -3 0.23163873E-01 0.27495864E+03</pdfrwt>
<totfact> 0.10476974E+03</totfact>
</mgrwt>
</event>
<event>
 5    1  0.1108889E+001  0.2732867E+03  0.7818608E-02  0.1099413E+00
          4   -1    0    0  501    0  0.00000000000E+00  0.00000000000E+00  0.21736747147E+03  0.21736747147E+03  0.00000000000E+00 0.  1.
         -4   -1    0    0    0  501 -0.00000000000E+00 -0.00000000000E+00 -0.85897902612E+02  0.85897902612E+02  0.00000000000E+00 0.  1.
         35    2    1    2    0    0  0.00000000000E+00  0.00000000000E+00  0.13146956885E+03  0.30326537408E+03  0.27328673510E+03 0.  0.
         25    1    3    3    0    0  0.23389992288E+02  0.56990806518E+02  0.89954816355E+02  0.16213239267E+03  0.12000000000E+03 0.  0.
         25    1    3    3    0    0 -0.23389992288E+02 -0.56990806518E+02  0.41514752499E+02  0.14113298141E+03  0.12000000000E+03 0.  0.
<mgrwt>
<rscale>  0 0.27328674E+03</rscale>
<asrwt>0</asrwt>
<pdfrwt beam="1">  1        4 0.33441149E-01 0.27328674E+03</pdfrwt>
<pdfrwt beam="2">  1       -4 0.13215062E-01 0.27328674E+03</pdfrwt>
<totfact> 0.76086503E+02</totfact>
</mgrwt>
</event>
<event>
 5    1  0.1108889E+001  0.2778918E+03  0.7818608E-02  0.1096846E+00
          1   -1    0    0  501    0  0.00000000000E+00  0.00000000000E+00  0.21577578897E+03  0.21577578897E+03  0.00000000000E+00 0. -1.
         -1   -1    0    0    0  501 -0.00000000000E+00 -0.00000000000E+00 -0.89472330924E+02  0.89472330924E+02  0.00000000000E+00 0. -1.
         35    2    1    2    0    0  0.00000000000E+00  0.00000000000E+00  0.12630345805E+03  0.30524811990E+03  0.27789179762E+03 0.  0.
         25    1    3    3    0    0  0.35063350763E+02 -0.55821912199E+02  0.89155790956E+02  0.16338384103E+03  0.12000000000E+03 0.  0.
         25    1    3    3    0    0 -0.35063350763E+02  0.55821912199E+02  0.37147667093E+02  0.14186427887E+03  0.12000000000E+03 0.  0.
<mgrwt>
<rscale>  0 0.27789180E+03</rscale>
<asrwt>0</asrwt>
<pdfrwt beam="1">  1        1 0.33196275E-01 0.27789180E+03</pdfrwt>
<pdfrwt beam="2">  1       -1 0.13764974E-01 0.27789180E+03</pdfrwt>
<totfact> 0.48778735E+03</totfact>
</mgrwt>
</event>
<event>
 5    1  0.1108889E+001  0.2751760E+03  0.7818608E-02  0.1098353E+00
         -2   -1    0    0    0  501 -0.00000000000E+00  0.00000000000E+00  0.26948904465E+03  0.26948904465E+03  0.00000000000E+00 0. -1.
          2   -1    0    0  501    0  0.00000000000E+00 -0.00000000000E+00 -0.70245754482E+02  0.70245754482E+02  0.00000000000E+00 0. -1.
         35    2    1    2    0    0  0.00000000000E+00  0.00000000000E+00  0.19924329017E+03  0.33973479914E+03  0.27517602560E+03 0.  0.
         25    1    3    3    0    0  0.21991281575E+02  0.63598755611E+02  0.97856937564E+02  0.16883245662E+03  0.12000000000E+03 0.  0.
         25    1    3    3    0    0 -0.21991281575E+02 -0.63598755611E+02  0.10138635261E+03  0.17090234251E+03  0.12000000000E+03 0.  0.
<mgrwt>
<rscale>  0 0.27517603E+03</rscale>
<asrwt>0</asrwt>
<pdfrwt beam="1">  1        2 0.10807039E-01 0.27517603E+03</pdfrwt>
<pdfrwt beam="2">  1       -2 0.41459852E-01 0.27517603E+03</pdfrwt>
<totfact> 0.32193845E+03</totfact>
</mgrwt>
</event>
<event>
 5    1  0.1108889E+001  0.2744308E+03  0.7818608E-02  0.1098770E+00
          2   -1    0    0  501    0  0.00000000000E+00  0.00000000000E+00  0.43757387370E+03  0.43757387370E+03  0.00000000000E+00 0. -1.
         -2   -1    0    0    0  501 -0.00000000000E+00 -0.00000000000E+00 -0.43028314240E+02  0.43028314240E+02  0.00000000000E+00 0. -1.
         35    2    1    2    0    0  0.00000000000E+00  0.00000000000E+00  0.39454555946E+03  0.48060218794E+03  0.27443080105E+03 0.  0.
         25    1    3    3    0    0 -0.44677659462E+02  0.49296949015E+02  0.19493386579E+03  0.23838098597E+03  0.12000000000E+03 0.  0.
         25    1    3    3    0    0  0.44677659462E+02 -0.49296949015E+02  0.19961169367E+03  0.24222120197E+03  0.12000000000E+03 0.  0.
<mgrwt>
<rscale>  0 0.27443080E+03</rscale>
<asrwt>0</asrwt>
<pdfrwt beam="1">  1        2 0.67319054E-01 0.27443080E+03</pdfrwt>
<pdfrwt beam="2">  1       -2 0.66197409E-02 0.27443080E+03</pdfrwt>
<totfact> 0.91296352E+03</totfact>
</mgrwt>
</event>
<event>
 5    1  0.1108889E+001  0.2763854E+03  0.7818608E-02  0.1097680E+00
          2   -1    0    0  501    0  0.00000000000E+00  0.00000000000E+00  0.12655772507E+03  0.12655772507E+03  0.00000000000E+00 0. -1.
         -2   -1    0    0    0  501 -0.00000000000E+00 -0.00000000000E+00 -0.15089731596E+03  0.15089731596E+03  0.00000000000E+00 0. -1.
         35    2    1    2    0    0  0.00000000000E+00  0.00000000000E+00 -0.24339590893E+02  0.27745504103E+03  0.27638539054E+03 0.  0.
         25    1    3    3    0    0 -0.23000533453E+02  0.24101630977E+02 -0.72295733097E+02  0.14400203533E+03  0.12000000000E+03 0.  0.
         25    1    3    3    0    0  0.23000533453E+02 -0.24101630977E+02  0.47956142204E+02  0.13345300570E+03  0.12000000000E+03 0.  0.
<mgrwt>
<rscale>  0 0.27638539E+03</rscale>
<asrwt>0</asrwt>
<pdfrwt beam="1">  1        2 0.19470419E-01 0.27638539E+03</pdfrwt>
<pdfrwt beam="2">  1       -2 0.23214972E-01 0.27638539E+03</pdfrwt>
<totfact> 0.46143003E+03</totfact>
</mgrwt>
</event>
<event>
 5    1  0.1108889E+001  0.2746036E+03  0.7818608E-02  0.1098673E+00
          2   -1    0    0  501    0  0.00000000000E+00  0.00000000000E+00  0.61028643565E+03  0.61028643565E+03  0.00000000000E+00 0. -1.
         -2   -1    0    0    0  501 -0.00000000000E+00 -0.00000000000E+00 -0.30890065694E+02  0.30890065694E+02  0.00000000000E+00 0. -1.
         35    2    1    2    0    0  0.00000000000E+00  0.00000000000E+00  0.57939636995E+03  0.64117650134E+03  0.27460362772E+03 0.  0.
         25    1    3    3    0    0  0.43074564945E+02 -0.25297510274E+02  0.39297451842E+03  0.41391346233E+03  0.12000000000E+03 0.  0.
         25    1    3    3    0    0 -0.43074564945E+02  0.25297510274E+02  0.18642185153E+03  0.22726303901E+03  0.12000000000E+03 0.  0.
<mgrwt>
<rscale>  0 0.27460363E+03</rscale>
<asrwt>0</asrwt>
<pdfrwt beam="1">  1        2 0.93890212E-01 0.27460363E+03</pdfrwt>
<pdfrwt beam="2">  1       -2 0.47523182E-02 0.27460363E+03</pdfrwt>
<totfact> 0.10414577E+04</totfact>
</mgrwt>
</event>
<event>
 5    1  0.1108889E+001  0.2706768E+03  0.7818608E-02  0.1100893E+00
          1   -1    0    0  501    0  0.00000000000E+00  0.00000000000E+00  0.10591596794E+04  0.10591596794E+04  0.00000000000E+00 0.  1.
         -1   -1    0    0    0  501 -0.00000000000E+00 -0.00000000000E+00 -0.17293414267E+02  0.17293414267E+02  0.00000000000E+00 0.  1.
         35    2    1    2    0    0  0.00000000000E+00  0.00000000000E+00  0.10418662651E+04  0.10764530937E+04  0.27067683396E+03 0.  0.
         25    1    3    3    0    0 -0.53068049808E+02  0.26648465804E+02  0.59948343195E+03  0.61425299660E+03  0.12000000000E+03 0.  0.
         25    1    3    3    0    0  0.53068049808E+02 -0.26648465804E+02  0.44238283317E+03  0.46220009706E+03  0.12000000000E+03 0.  0.
<mgrwt>
<rscale>  0 0.27067683E+03</rscale>
<asrwt>0</asrwt>
<pdfrwt beam="1">  1        1 0.16294759E+00 0.27067683E+03</pdfrwt>
<pdfrwt beam="2">  1       -1 0.26605261E-02 0.27067683E+03</pdfrwt>
<totfact> 0.65036567E+03</totfact>
</mgrwt>
</event>
<event>
 5    1  0.1108889E+001  0.2801284E+03  0.7818608E-02  0.1095619E+00
          1   -1    0    0  501    0  0.00000000000E+00  0.00000000000E+00  0.17429890930E+04  0.17429890930E+04  0.00000000000E+00 0.  1.
         -1   -1    0    0    0  501 -0.00000000000E+00 -0.00000000000E+00 -0.11255363106E+02  0.11255363106E+02  0.00000000000E+00 0.  1.
         35    2    1    2    0    0  0.00000000000E+00  0.00000000000E+00  0.17317337299E+04  0.17542444561E+04  0.28012836437E+03 0.  0.
         25    1    3    3    0    0  0.53249135244E+02 -0.46909111401E+02  0.78137470077E+03  0.79371427992E+03  0.12000000000E+03 0.  0.
         25    1    3    3    0    0 -0.53249135244E+02  0.46909111401E+02  0.95035902915E+03  0.96053017622E+03  0.12000000000E+03 0.  0.
<mgrwt>
<rscale>  0 0.28012836E+03</rscale>
<asrwt>0</asrwt>
<pdfrwt beam="1">  1        1 0.26815195E+00 0.28012836E+03</pdfrwt>
<pdfrwt beam="2">  1       -1 0.17315957E-02 0.28012836E+03</pdfrwt>
<totfact> 0.41958715E+03</totfact>
</mgrwt>
</event>
<event>
 5    1  0.1108889E+001  0.2753226E+03  0.7818608E-02  0.1098271E+00
         -2   -1    0    0    0  501 -0.00000000000E+00  0.00000000000E+00  0.25163517475E+03  0.25163517475E+03  0.00000000000E+00 0.  1.
          2   -1    0    0  501    0  0.00000000000E+00 -0.00000000000E+00 -0.75309975573E+02  0.75309975573E+02  0.00000000000E+00 0.  1.
         35    2    1    2    0    0  0.00000000000E+00  0.00000000000E+00  0.17632519918E+03  0.32694515033E+03  0.27532263884E+03 0.  0.
         25    1    3    3    0    0 -0.13469756451E+02 -0.19648304830E+01  0.97037002964E+01  0.12115880776E+03  0.12000000000E+03 0.  0.
         25    1    3    3    0    0  0.13469756451E+02  0.19648304830E+01  0.16662149889E+03  0.20578634257E+03  0.12000000000E+03 0.  0.
<mgrwt>
<rscale>  0 0.27532264E+03</rscale>
<asrwt>0</asrwt>
<pdfrwt beam="1">  1        2 0.11586150E-01 0.27532264E+03</pdfrwt>
<pdfrwt beam="2">  1       -2 0.38713104E-01 0.27532264E+03</pdfrwt>
<totfact> 0.33694805E+03</totfact>
</mgrwt>
</event>
<event>
 5    1  0.1108889E+001  0.2740497E+03  0.7818608E-02  0.1098984E+00
         -1   -1    0    0    0  501 -0.00000000000E+00  0.00000000000E+00  0.11015157086E+02  0.11015157086E+02  0.00000000000E+00 0. -1.
          1   -1    0    0  501    0  0.00000000000E+00 -0.00000000000E+00 -0.17045433207E+04  0.17045433207E+04  0.00000000000E+00 0. -1.
         35    2    1    2    0    0  0.00000000000E+00  0.00000000000E+00 -0.16935281636E+04  0.17155584778E+04  0.27404972131E+03 0.  0.
         25    1    3    3    0    0 -0.62179052233E+02  0.22391612391E+02 -0.82884509580E+03  0.84009035923E+03  0.12000000000E+03 0.  0.
         25    1    3    3    0    0  0.62179052233E+02 -0.22391612391E+02 -0.86468306785E+03  0.87546811859E+03  0.12000000000E+03 0.  0.
<mgrwt>
<rscale>  0 0.27404972E+03</rscale>
<asrwt>0</asrwt>
<pdfrwt beam="1">  1        1 0.26223736E+00 0.27404972E+03</pdfrwt>
<pdfrwt beam="2">  1       -1 0.16946400E-02 0.27404972E+03</pdfrwt>
<totfact> 0.45870444E+03</totfact>
</mgrwt>
</event>
<event>
 5    1  0.1108889E+001  0.2718626E+03  0.7818608E-02  0.1100218E+00
         -4   -1    0    0    0  501 -0.00000000000E+00  0.00000000000E+00  0.45300924858E+03  0.45300924858E+03  0.00000000000E+00 0.  1.
          4   -1    0    0  501    0  0.00000000000E+00 -0.00000000000E+00 -0.40787958960E+02  0.40787958960E+02  0.00000000000E+00 0.  1.
         35    2    1    2    0    0  0.00000000000E+00  0.00000000000E+00  0.41222128962E+03  0.49379720754E+03  0.27186263178E+03 0.  0.
         25    1    3    3    0    0  0.32009438746E+02  0.36187811840E+02  0.13027596953E+03  0.18359191194E+03  0.12000000000E+03 0.  0.
         25    1    3    3    0    0 -0.32009438746E+02 -0.36187811840E+02  0.28194532009E+03  0.31020529560E+03  0.12000000000E+03 0.  0.
<mgrwt>
<rscale>  0 0.27186263E+03</rscale>
<asrwt>0</asrwt>
<pdfrwt beam="1">  1        4 0.62750709E-02 0.27186263E+03</pdfrwt>
<pdfrwt beam="2">  1       -4 0.69693727E-01 0.27186263E+03</pdfrwt>
<totfact> 0.59392125E+02</totfact>
</mgrwt>
</event>
<event>
 5    1  0.1108889E+001  0.2749940E+03  0.7818608E-02  0.1098455E+00
          2   -1    0    0  501    0  0.00000000000E+00  0.00000000000E+00  0.28555865461E+03  0.28555865461E+03  0.00000000000E+00 0. -1.
         -2   -1    0    0    0  501 -0.00000000000E+00 -0.00000000000E+00 -0.66205036304E+02  0.66205036304E+02  0.00000000000E+00 0. -1.
         35    2    1    2    0    0  0.00000000000E+00  0.00000000000E+00  0.21935361831E+03  0.35176369091E+03  0.27499397154E+03 0.  0.
         25    1    3    3    0    0  0.14194327648E+02  0.22275087951E+02  0.30743053121E+02  0.12666015078E+03  0.12000000000E+03 0.  0.
         25    1    3    3    0    0 -0.14194327648E+02 -0.22275087951E+02  0.18861056519E+03  0.22510354013E+03  0.12000000000E+03 0.  0.
<mgrwt>
<rscale>  0 0.27499397E+03</rscale>
<asrwt>0</asrwt>
<pdfrwt beam="1">  1        2 0.43932100E-01 0.27499397E+03</pdfrwt>
<pdfrwt beam="2">  1       -2 0.10185390E-01 0.27499397E+03</pdfrwt>
<totfact> 0.73775253E+03</totfact>
</mgrwt>
</event>
<event>
 5    1  0.1108889E+001  0.2727844E+03  0.7818608E-02  0.1099697E+00
         -1   -1    0    0    0  501 -0.00000000000E+00  0.00000000000E+00  0.37818035968E+03  0.37818035968E+03  0.00000000000E+00 0. -1.
          1   -1    0    0  501    0  0.00000000000E+00 -0.00000000000E+00 -0.49190371983E+02  0.49190371983E+02  0.00000000000E+00 0. -1.
         35    2    1    2    0    0  0.00000000000E+00  0.00000000000E+00  0.32898998770E+03  0.42737073167E+03  0.27278440256E+03 0.  0.
         25    1    3    3    0    0 -0.37312797282E+02 -0.45323106912E+02  0.20758356241E+03  0.24685494576E+03  0.12000000000E+03 0.  0.
         25    1    3    3    0    0  0.37312797282E+02  0.45323106912E+02  0.12140642529E+03  0.18051578591E+03  0.12000000000E+03 0.  0.
<mgrwt>
<rscale>  0 0.27278440E+03</rscale>
<asrwt>0</asrwt>
<pdfrwt beam="1">  1        1 0.75677498E-02 0.27278440E+03</pdfrwt>
<pdfrwt beam="2">  1       -1 0.58181592E-01 0.27278440E+03</pdfrwt>
<totfact> 0.28836668E+03</totfact>
</mgrwt>
</event>
<event>
 5    1  0.1108889E+001  0.2751881E+03  0.7818608E-02  0.1098346E+00
          2   -1    0    0  501    0  0.00000000000E+00  0.00000000000E+00  0.75703623734E+02  0.75703623734E+02  0.00000000000E+00 0.  1.
         -2   -1    0    0    0  501 -0.00000000000E+00 -0.00000000000E+00 -0.25008215260E+03  0.25008215260E+03  0.00000000000E+00 0.  1.
         35    2    1    2    0    0  0.00000000000E+00  0.00000000000E+00 -0.17437852887E+03  0.32578577633E+03  0.27518811881E+03 0.  0.
         25    1    3    3    0    0  0.37685652555E+02 -0.48968216269E+02 -0.55554774036E+02  0.14596036288E+03  0.12000000000E+03 0.  0.
         25    1    3    3    0    0 -0.37685652555E+02  0.48968216269E+02 -0.11882375483E+03  0.17982541346E+03  0.12000000000E+03 0.  0.
<mgrwt>
<rscale>  0 0.27518812E+03</rscale>
<asrwt>0</asrwt>
<pdfrwt beam="1">  1        2 0.11646711E-01 0.27518812E+03</pdfrwt>
<pdfrwt beam="2">  1       -2 0.38474177E-01 0.27518812E+03</pdfrwt>
<totfact> 0.33875903E+03</totfact>
</mgrwt>
</event>
<event>
 5    1  0.1108889E+001  0.2732259E+03  0.7818608E-02  0.1099447E+00
         -2   -1    0    0    0  501 -0.00000000000E+00  0.00000000000E+00  0.12415741941E+02  0.12415741941E+02  0.00000000000E+00 0.  1.
          2   -1    0    0  501    0  0.00000000000E+00 -0.00000000000E+00 -0.15031797218E+04  0.15031797218E+04  0.00000000000E+00 0.  1.
         35    2    1    2    0    0  0.00000000000E+00  0.00000000000E+00 -0.14907639799E+04  0.15155954638E+04  0.27322585176E+03 0.  0.
         25    1    3    3    0    0  0.16733938682E+02 -0.30183253107E+02 -0.43793177348E+03  0.45538477323E+03  0.12000000000E+03 0.  0.
         25    1    3    3    0    0 -0.16733938682E+02  0.30183253107E+02 -0.10528322064E+04  0.10602106905E+04  0.12000000000E+03 0.  0.
<mgrwt>
<rscale>  0 0.27322585E+03</rscale>
<asrwt>0</asrwt>
<pdfrwt beam="1">  1        2 0.23125846E+00 0.27322585E+03</pdfrwt>
<pdfrwt beam="2">  1       -2 0.19101138E-02 0.27322585E+03</pdfrwt>
<totfact> 0.11240580E+04</totfact>
</mgrwt>
</event>
<event>
 5    1  0.1108889E+001  0.2746420E+03  0.7818608E-02  0.1098652E+00
          2   -1    0    0  501    0  0.00000000000E+00  0.00000000000E+00  0.70052090079E+03  0.70052090079E+03  0.00000000000E+00 0.  1.
         -2   -1    0    0    0  501 -0.00000000000E+00 -0.00000000000E+00 -0.26918615243E+02  0.26918615243E+02  0.00000000000E+00 0.  1.
         35    2    1    2    0    0  0.00000000000E+00  0.00000000000E+00  0.67360228555E+03  0.72743951604E+03  0.27464196765E+03 0.  0.
         25    1    3    3    0    0 -0.54405985790E+01  0.40684037218E+02  0.19734196768E+03  0.23458184756E+03  0.12000000000E+03 0.  0.
         25    1    3    3    0    0  0.54405985790E+01 -0.40684037218E+02  0.47626031787E+03  0.49285766848E+03  0.12000000000E+03 0.  0.
<mgrwt>
<rscale>  0 0.27464197E+03</rscale>
<asrwt>0</asrwt>
<pdfrwt beam="1">  1        2 0.10777243E+00 0.27464197E+03</pdfrwt>
<pdfrwt beam="2">  1       -2 0.41413259E-02 0.27464197E+03</pdfrwt>
<totfact> 0.10882944E+04</totfact>
</mgrwt>
</event>
<event>
 5    1  0.1108889E+001  0.2736973E+03  0.7818608E-02  0.1099182E+00
         -2   -1    0    0    0  501 -0.00000000000E+00  0.00000000000E+00  0.55031037693E+02  0.55031037693E+02  0.00000000000E+00 0.  1.
          2   -1    0    0  501    0  0.00000000000E+00 -0.00000000000E+00 -0.34030902367E+03  0.34030902367E+03  0.00000000000E+00 0.  1.
         35    2    1    2    0    0  0.00000000000E+00  0.00000000000E+00 -0.28527798598E+03  0.39534006136E+03  0.27369734167E+03 0.  0.
         25    1    3    3    0    0 -0.33518124389E+02  0.17997397441E+02 -0.22015843610E+03  0.25360817803E+03  0.12000000000E+03 0.  0.
         25    1    3    3    0    0  0.33518124389E+02 -0.17997397441E+02 -0.65119549875E+02  0.14173188333E+03  0.12000000000E+03 0.  0.
<mgrwt>
<rscale>  0 0.27369734E+03</rscale>
<asrwt>0</asrwt>
<pdfrwt beam="1">  1        2 0.52355235E-01 0.27369734E+03</pdfrwt>
<pdfrwt beam="2">  1       -2 0.84663133E-02 0.27369734E+03</pdfrwt>
<totfact> 0.81791152E+03</totfact>
</mgrwt>
</event>
<event>
 5    1  0.1108889E+001  0.2755792E+03  0.7818608E-02  0.1098128E+00
         -2   -1    0    0    0  501 -0.00000000000E+00  0.00000000000E+00  0.44971253579E+02  0.44971253579E+02  0.00000000000E+00 0. -1.
          2   -1    0    0  501    0  0.00000000000E+00 -0.00000000000E+00 -0.42218014898E+03  0.42218014898E+03  0.00000000000E+00 0. -1.
         35    2    1    2    0    0  0.00000000000E+00  0.00000000000E+00 -0.37720889540E+03  0.46715140256E+03  0.27557917581E+03 0.  0.
         25    1    3    3    0    0  0.41862248302E+02  0.52520192777E+02 -0.20329985698E+03  0.24544174529E+03  0.12000000000E+03 0.  0.
         25    1    3    3    0    0 -0.41862248302E+02 -0.52520192777E+02 -0.17390903842E+03  0.22170965727E+03  0.12000000000E+03 0.  0.
<mgrwt>
<rscale>  0 0.27557918E+03</rscale>
<asrwt>0</asrwt>
<pdfrwt beam="1">  1        2 0.64950792E-01 0.27557918E+03</pdfrwt>
<pdfrwt beam="2">  1       -2 0.69186544E-02 0.27557918E+03</pdfrwt>
<totfact> 0.88697812E+03</totfact>
</mgrwt>
</event>
<event>
 5    1  0.1108889E+001  0.2740856E+03  0.7818608E-02  0.1098964E+00
          2   -1    0    0  501    0  0.00000000000E+00  0.00000000000E+00  0.92015566136E+03  0.92015566136E+03  0.00000000000E+00 0. -1.
         -2   -1    0    0    0  501 -0.00000000000E+00 -0.00000000000E+00 -0.20410377727E+02  0.20410377727E+02  0.00000000000E+00 0. -1.
         35    2    1    2    0    0  0.00000000000E+00  0.00000000000E+00  0.89974528363E+03  0.94056603909E+03  0.27408556778E+03 0.  0.
         25    1    3    3    0    0 -0.60504673497E+02  0.16071290409E+02  0.37614222039E+03  0.39975251325E+03  0.12000000000E+03 0.  0.
         25    1    3    3    0    0  0.60504673497E+02 -0.16071290409E+02  0.52360306324E+03  0.54081352583E+03  0.12000000000E+03 0.  0.
<mgrwt>
<rscale>  0 0.27408557E+03</rscale>
<asrwt>0</asrwt>
<pdfrwt beam="1">  1        2 0.14156238E+00 0.27408557E+03</pdfrwt>
<pdfrwt beam="2">  1       -2 0.31400588E-02 0.27408557E+03</pdfrwt>
<totfact> 0.11627693E+04</totfact>
</mgrwt>
</event>
<event>
 5    1  0.1108889E+001  0.2756166E+03  0.7818608E-02  0.1098107E+00
          2   -1    0    0  501    0  0.00000000000E+00  0.00000000000E+00  0.15928178379E+04  0.15928178379E+04  0.00000000000E+00 0. -1.
         -2   -1    0    0    0  501 -0.00000000000E+00 -0.00000000000E+00 -0.11922976812E+02  0.11922976812E+02  0.00000000000E+00 0. -1.
         35    2    1    2    0    0  0.00000000000E+00  0.00000000000E+00  0.15808948611E+04  0.16047408147E+04  0.27561661885E+03 0.  0.
         25    1    3    3    0    0  0.36059849193E+02  0.25744440585E+02  0.10889276688E+04  0.10964153213E+04  0.12000000000E+03 0.  0.
         25    1    3    3    0    0 -0.36059849193E+02 -0.25744440585E+02  0.49196719226E+03  0.50832549336E+03  0.12000000000E+03 0.  0.
<mgrwt>
<rscale>  0 0.27561662E+03</rscale>
<asrwt>0</asrwt>
<pdfrwt beam="1">  1        2 0.24504873E+00 0.27561662E+03</pdfrwt>
<pdfrwt beam="2">  1       -2 0.18343054E-02 0.27561662E+03</pdfrwt>
<totfact> 0.10689796E+04</totfact>
</mgrwt>
</event>
<event>
 4    1  0.1108889E+001  0.2463305E+03  0.7818608E-02  0.1115646E+00
          2   -1    0    0  501    0  0.00000000000E+00  0.00000000000E+00  0.30079051643E+04  0.30079051643E+04  0.00000000000E+00 0.  1.
         -2   -1    0    0    0  501 -0.00000000000E+00 -0.00000000000E+00 -0.50432719162E+01  0.50432719162E+01  0.00000000000E+00 0.  1.
         25    1    1    2    0    0  0.66292458805E+00 -0.64696995891E+01  0.11715507404E+04  0.11776983628E+04  0.12000000000E+03 0.  0.
         25    1    1    2    0    0 -0.66292458805E+00  0.64696995891E+01  0.18313111520E+04  0.18352500734E+04  0.12000000000E+03 0.  0.
<mgrwt>
<rscale>  0 0.24633054E+03</rscale>
<asrwt>0</asrwt>
<pdfrwt beam="1">  1        2 0.46275321E+00 0.24633054E+03</pdfrwt>
<pdfrwt beam="2">  1       -2 0.77589039E-03 0.24633054E+03</pdfrwt>
<totfact> 0.63577778E+03</totfact>
</mgrwt>
</event>
<event>
 5    1  0.1108889E+001  0.2749587E+03  0.7818608E-02  0.1098475E+00
          2   -1    0    0  501    0  0.00000000000E+00  0.00000000000E+00  0.57130834414E+03  0.57130834414E+03  0.00000000000E+00 0.  1.
         -2   -1    0    0    0  501 -0.00000000000E+00 -0.00000000000E+00 -0.33082967816E+02  0.33082967816E+02  0.00000000000E+00 0.  1.
         35    2    1    2    0    0  0.00000000000E+00  0.00000000000E+00  0.53822537632E+03  0.60439131196E+03  0.27495872827E+03 0.  0.
         25    1    3    3    0    0 -0.28574611406E+02  0.14405487340E+02  0.39871862176E+03  0.41761293780E+03  0.12000000000E+03 0.  0.
         25    1    3    3    0    0  0.28574611406E+02 -0.14405487340E+02  0.13950675456E+03  0.18677837415E+03  0.12000000000E+03 0.  0.
<mgrwt>
<rscale>  0 0.27495873E+03</rscale>
<asrwt>0</asrwt>
<pdfrwt beam="1">  1        2 0.87893584E-01 0.27495873E+03</pdfrwt>
<pdfrwt beam="2">  1       -2 0.50896878E-02 0.27495873E+03</pdfrwt>
<totfact> 0.10129799E+04</totfact>
</mgrwt>
</event>
<event>
 5    1  0.1108889E+001  0.2767474E+03  0.7818608E-02  0.1097479E+00
         -2   -1    0    0    0  501 -0.00000000000E+00  0.00000000000E+00  0.14551490006E+02  0.14551490006E+02  0.00000000000E+00 0. -1.
          2   -1    0    0  501    0  0.00000000000E+00 -0.00000000000E+00 -0.13158295878E+04  0.13158295878E+04  0.00000000000E+00 0. -1.
         35    2    1    2    0    0  0.00000000000E+00  0.00000000000E+00 -0.13012780978E+04  0.13303810778E+04  0.27674740177E+03 0.  0.
         25    1    3    3    0    0 -0.33482821955E+00  0.51161898862E+02 -0.42879668087E+03  0.44820112174E+03  0.12000000000E+03 0.  0.
         25    1    3    3    0    0  0.33482821955E+00 -0.51161898862E+02 -0.87248141696E+03  0.88217995610E+03  0.12000000000E+03 0.  0.
<mgrwt>
<rscale>  0 0.27674740E+03</rscale>
<asrwt>0</asrwt>
<pdfrwt beam="1">  1        2 0.20243536E+00 0.27674740E+03</pdfrwt>
<pdfrwt beam="2">  1       -2 0.22386903E-02 0.27674740E+03</pdfrwt>
<totfact> 0.11247868E+04</totfact>
</mgrwt>
</event>
<event>
 5    1  0.1108889E+001  0.2755862E+03  0.7818608E-02  0.1098124E+00
         -2   -1    0    0    0  501 -0.00000000000E+00  0.00000000000E+00  0.22485613544E+02  0.22485613544E+02  0.00000000000E+00 0.  1.
          2   -1    0    0  501    0  0.00000000000E+00 -0.00000000000E+00 -0.84440413588E+03  0.84440413588E+03  0.00000000000E+00 0.  1.
         35    2    1    2    0    0  0.00000000000E+00  0.00000000000E+00 -0.82191852233E+03  0.86688974942E+03  0.27558624839E+03 0.  0.
         25    1    3    3    0    0  0.99386851338E+01  0.46143609085E+02 -0.56373848794E+03  0.57829844623E+03  0.12000000000E+03 0.  0.
         25    1    3    3    0    0 -0.99386851338E+01 -0.46143609085E+02 -0.25818003439E+03  0.28859130320E+03  0.12000000000E+03 0.  0.
<mgrwt>
<rscale>  0 0.27558625E+03</rscale>
<asrwt>0</asrwt>
<pdfrwt beam="1">  1        2 0.12990831E+00 0.27558625E+03</pdfrwt>
<pdfrwt beam="2">  1       -2 0.34593255E-02 0.27558625E+03</pdfrwt>
<totfact> 0.11278992E+04</totfact>
</mgrwt>
</event>
<event>
 5    1  0.1108889E+001  0.2743261E+03  0.7818608E-02  0.1098829E+00
         -2   -1    0    0    0  501 -0.00000000000E+00  0.00000000000E+00  0.33949770719E+03  0.33949770719E+03  0.00000000000E+00 0.  1.
          2   -1    0    0  501    0  0.00000000000E+00 -0.00000000000E+00 -0.55416273616E+02  0.55416273616E+02  0.00000000000E+00 0.  1.
         35    2    1    2    0    0  0.00000000000E+00  0.00000000000E+00  0.28408143358E+03  0.39491398081E+03  0.27432606754E+03 0.  0.
         25    1    3    3    0    0 -0.90402675611E+00  0.47291633032E+01  0.23742859587E+03  0.26607427608E+03  0.12000000000E+03 0.  0.
         25    1    3    3    0    0  0.90402675611E+00 -0.47291633032E+01  0.46652837702E+02  0.12883970473E+03  0.12000000000E+03 0.  0.
<mgrwt>
<rscale>  0 0.27432607E+03</rscale>
<asrwt>0</asrwt>
<pdfrwt beam="1">  1        2 0.85255808E-02 0.27432607E+03</pdfrwt>
<pdfrwt beam="2">  1       -2 0.52230415E-01 0.27432607E+03</pdfrwt>
<totfact> 0.27475434E+03</totfact>
</mgrwt>
</event>
<event>
 5    1  0.1108889E+001  0.2756107E+03  0.7818608E-02  0.1098111E+00
         -2   -1    0    0    0  501 -0.00000000000E+00  0.00000000000E+00  0.23826018476E+02  0.23826018476E+02  0.00000000000E+00 0. -1.
          2   -1    0    0  501    0  0.00000000000E+00 -0.00000000000E+00 -0.79704084889E+03  0.79704084889E+03  0.00000000000E+00 0. -1.
         35    2    1    2    0    0  0.00000000000E+00  0.00000000000E+00 -0.77321483041E+03  0.82086686737E+03  0.27561066737E+03 0.  0.
         25    1    3    3    0    0  0.21002258028E+02 -0.45390407596E+02 -0.52273252298E+03  0.53865636033E+03  0.12000000000E+03 0.  0.
         25    1    3    3    0    0 -0.21002258028E+02  0.45390407596E+02 -0.25048230744E+03  0.28221050704E+03  0.12000000000E+03 0.  0.
<mgrwt>
<rscale>  0 0.27561067E+03</rscale>
<asrwt>0</asrwt>
<pdfrwt beam="1">  1        2 0.12262165E+00 0.27561067E+03</pdfrwt>
<pdfrwt beam="2">  1       -2 0.36655418E-02 0.27561067E+03</pdfrwt>
<totfact> 0.11139312E+04</totfact>
</mgrwt>
</event>
<event>
 5    1  0.1108889E+001  0.2753591E+03  0.7818608E-02  0.1098251E+00
         -2   -1    0    0    0  501 -0.00000000000E+00  0.00000000000E+00  0.79651663874E+01  0.79651663874E+01  0.00000000000E+00 0. -1.
          2   -1    0    0  501    0  0.00000000000E+00 -0.00000000000E+00 -0.23798199277E+04  0.23798199277E+04  0.00000000000E+00 0. -1.
         35    2    1    2    0    0  0.00000000000E+00  0.00000000000E+00 -0.23718547613E+04  0.23877850941E+04  0.27535912330E+03 0.  0.
         25    1    3    3    0    0  0.46142902824E+02 -0.30829387726E+02 -0.85277318948E+03  0.86296102538E+03  0.12000000000E+03 0.  0.
         25    1    3    3    0    0 -0.46142902824E+02  0.30829387726E+02 -0.15190815718E+04  0.15248240687E+04  0.12000000000E+03 0.  0.
<mgrwt>
<rscale>  0 0.27535912E+03</rscale>
<asrwt>0</asrwt>
<pdfrwt beam="1">  1        2 0.36612683E+00 0.27535912E+03</pdfrwt>
<pdfrwt beam="2">  1       -2 0.12254079E-02 0.27535912E+03</pdfrwt>
<totfact> 0.73938431E+03</totfact>
</mgrwt>
</event>
<event>
 5    1  0.1108889E+001  0.2752130E+03  0.7818608E-02  0.1098333E+00
         -2   -1    0    0    0  501 -0.00000000000E+00  0.00000000000E+00  0.39148524292E+02  0.39148524292E+02  0.00000000000E+00 0.  1.
          2   -1    0    0  501    0  0.00000000000E+00 -0.00000000000E+00 -0.48368495753E+03  0.48368495753E+03  0.00000000000E+00 0.  1.
         35    2    1    2    0    0  0.00000000000E+00  0.00000000000E+00 -0.44453643323E+03  0.52283348182E+03  0.27521302520E+03 0.  0.
         25    1    3    3    0    0 -0.17382531887E+02  0.62462862691E+02 -0.25687223214E+03  0.29083862411E+03  0.12000000000E+03 0.  0.
         25    1    3    3    0    0  0.17382531887E+02 -0.62462862691E+02 -0.18766420109E+03  0.23199485771E+03  0.12000000000E+03 0.  0.
<mgrwt>
<rscale>  0 0.27521303E+03</rscale>
<asrwt>0</asrwt>
<pdfrwt beam="1">  1        2 0.74413069E-01 0.27521303E+03</pdfrwt>
<pdfrwt beam="2">  1       -2 0.60228500E-02 0.27521303E+03</pdfrwt>
<totfact> 0.94535317E+03</totfact>
</mgrwt>
</event>
<event>
 5    1  0.1108889E+001  0.2751407E+03  0.7818608E-02  0.1098373E+00
         -1   -1    0    0    0  501 -0.00000000000E+00  0.00000000000E+00  0.46209502768E+02  0.46209502768E+02  0.00000000000E+00 0. -1.
          1   -1    0    0  501    0  0.00000000000E+00 -0.00000000000E+00 -0.40956086992E+03  0.40956086992E+03  0.00000000000E+00 0. -1.
         35    2    1    2    0    0  0.00000000000E+00  0.00000000000E+00 -0.36335136716E+03  0.45577037269E+03  0.27514072147E+03 0.  0.
         25    1    3    3    0    0 -0.16497845272E+02  0.27768393687E+02 -0.27942796500E+03  0.30581571283E+03  0.12000000000E+03 0.  0.
         25    1    3    3    0    0  0.16497845272E+02 -0.27768393687E+02 -0.83923402156E+02  0.14995465987E+03  0.12000000000E+03 0.  0.
<mgrwt>
<rscale>  0 0.27514072E+03</rscale>
<asrwt>0</asrwt>
<pdfrwt beam="1">  1        1 0.63009364E-01 0.27514072E+03</pdfrwt>
<pdfrwt beam="2">  1       -1 0.71091544E-02 0.27514072E+03</pdfrwt>
<totfact> 0.60291092E+03</totfact>
</mgrwt>
</event>
<event>
 5    1  0.1108889E+001  0.2753131E+03  0.7818608E-02  0.1098277E+00
          1   -1    0    0  501    0  0.00000000000E+00  0.00000000000E+00  0.18564967358E+03  0.18564967358E+03  0.00000000000E+00 0. -1.
         -1   -1    0    0    0  501 -0.00000000000E+00 -0.00000000000E+00 -0.10207034852E+03  0.10207034852E+03  0.00000000000E+00 0. -1.
         35    2    1    2    0    0  0.00000000000E+00  0.00000000000E+00  0.83579325067E+02  0.28772002210E+03  0.27531310818E+03 0.  0.
         25    1    3    3    0    0  0.19369400996E+02 -0.52325458285E+01  0.10908707416E+03  0.16340912759E+03  0.12000000000E+03 0.  0.
         25    1    3    3    0    0 -0.19369400996E+02  0.52325458285E+01 -0.25507749090E+02  0.12431089451E+03  0.12000000000E+03 0.  0.
<mgrwt>
<rscale>  0 0.27531311E+03</rscale>
<asrwt>0</asrwt>
<pdfrwt beam="1">  1        1 0.28561488E-01 0.27531311E+03</pdfrwt>
<pdfrwt beam="2">  1       -1 0.15703131E-01 0.27531311E+03</pdfrwt>
<totfact> 0.47840914E+03</totfact>
</mgrwt>
</event>
<event>
 5    1  0.1108889E+001  0.2754593E+03  0.7818608E-02  0.1098195E+00
          2   -1    0    0  501    0  0.00000000000E+00  0.00000000000E+00  0.12489352302E+04  0.12489352302E+04  0.00000000000E+00 0.  1.
         -2   -1    0    0    0  501 -0.00000000000E+00 -0.00000000000E+00 -0.15188505340E+02  0.15188505340E+02  0.00000000000E+00 0.  1.
         35    2    1    2    0    0  0.00000000000E+00  0.00000000000E+00  0.12337467249E+04  0.12641237356E+04  0.27545932124E+03 0.  0.
         25    1    3    3    0    0  0.24688567872E+02 -0.50430621327E+02  0.78960384443E+03  0.80064162026E+03  0.12000000000E+03 0.  0.
         25    1    3    3    0    0 -0.24688567872E+02  0.50430621327E+02  0.44414288046E+03  0.46348211531E+03  0.12000000000E+03 0.  0.
<mgrwt>
<rscale>  0 0.27545932E+03</rscale>
<asrwt>0</asrwt>
<pdfrwt beam="1">  1        2 0.19214380E+00 0.27545932E+03</pdfrwt>
<pdfrwt beam="2">  1       -2 0.23366941E-02 0.27545932E+03</pdfrwt>
<totfact> 0.11501464E+04</totfact>
</mgrwt>
</event>
<event>
 5    1  0.1108889E+001  0.2750764E+03  0.7818608E-02  0.1098409E+00
         -1   -1    0    0    0  501 -0.00000000000E+00  0.00000000000E+00  0.37171162074E+03  0.37171162074E+03  0.00000000000E+00 0. -1.
          1   -1    0    0  501    0  0.00000000000E+00 -0.00000000000E+00 -0.50890930955E+02  0.50890930955E+02  0.00000000000E+00 0. -1.
         35    2    1    2    0    0  0.00000000000E+00  0.00000000000E+00  0.32082068979E+03  0.42260255170E+03  0.27507635614E+03 0.  0.
         25    1    3    3    0    0  0.15053647415E+02  0.18978724311E+02  0.64100174323E+02  0.13818696257E+03  0.12000000000E+03 0.  0.
         25    1    3    3    0    0 -0.15053647415E+02 -0.18978724311E+02  0.25672051546E+03  0.28441558912E+03  0.12000000000E+03 0.  0.
<mgrwt>
<rscale>  0 0.27507636E+03</rscale>
<asrwt>0</asrwt>
<pdfrwt beam="1">  1        1 0.78293742E-02 0.27507636E+03</pdfrwt>
<pdfrwt beam="2">  1       -1 0.57186402E-01 0.27507636E+03</pdfrwt>
<totfact> 0.28459278E+03</totfact>
</mgrwt>
</event>
<event>
 5    1  0.1108889E+001  0.2744179E+03  0.7818608E-02  0.1098777E+00
          2   -1    0    0  501    0  0.00000000000E+00  0.00000000000E+00  0.40807913142E+04  0.40807913142E+04  0.00000000000E+00 0. -1.
         -2   -1    0    0    0  501 -0.00000000000E+00 -0.00000000000E+00 -0.46133926193E+01  0.46133926193E+01  0.00000000000E+00 0. -1.
         35    2    1    2    0    0  0.00000000000E+00  0.00000000000E+00  0.40761779216E+04  0.40854047068E+04  0.27441787500E+03 0.  0.
         25    1    3    3    0    0 -0.41559934738E+02  0.51689459630E+02  0.19603536373E+04  0.19651425932E+04  0.12000000000E+03 0.  0.
         25    1    3    3    0    0  0.41559934738E+02 -0.51689459630E+02  0.21158242843E+04  0.21202621137E+04  0.12000000000E+03 0.  0.
<mgrwt>
<rscale>  0 0.27441787E+03</rscale>
<asrwt>0</asrwt>
<pdfrwt beam="1">  1        2 0.62781116E+00 0.27441787E+03</pdfrwt>
<pdfrwt beam="2">  1       -2 0.70975598E-03 0.27441787E+03</pdfrwt>
<totfact> 0.13566362E+03</totfact>
</mgrwt>
</event>
<event>
 5    1  0.1108889E+001  0.2785370E+03  0.7818608E-02  0.1096491E+00
         -2   -1    0    0    0  501 -0.00000000000E+00  0.00000000000E+00  0.11473818731E+02  0.11473818731E+02  0.00000000000E+00 0.  1.
          2   -1    0    0  501    0  0.00000000000E+00 -0.00000000000E+00 -0.16904319627E+04  0.16904319627E+04  0.00000000000E+00 0.  1.
         35    2    1    2    0    0  0.00000000000E+00  0.00000000000E+00 -0.16789581439E+04  0.17019057814E+04  0.27853696284E+03 0.  0.
         25    1    3    3    0    0 -0.53392596145E+02  0.37550106499E+02 -0.10051230662E+04  0.10143634250E+04  0.12000000000E+03 0.  0.
         25    1    3    3    0    0  0.53392596145E+02 -0.37550106499E+02 -0.67383507779E+03  0.68754235643E+03  0.12000000000E+03 0.  0.
<mgrwt>
<rscale>  0 0.27853696E+03</rscale>
<asrwt>0</asrwt>
<pdfrwt beam="1">  1        2 0.26006645E+00 0.27853696E+03</pdfrwt>
<pdfrwt beam="2">  1       -2 0.17652029E-02 0.27853696E+03</pdfrwt>
<totfact> 0.10044644E+04</totfact>
</mgrwt>
</event>
<event>
 5    1  0.1108889E+001  0.2749194E+03  0.7818608E-02  0.1098497E+00
          4   -1    0    0  501    0  0.00000000000E+00  0.00000000000E+00  0.21793191921E+02  0.21793191921E+02  0.00000000000E+00 0.  1.
         -4   -1    0    0    0  501 -0.00000000000E+00 -0.00000000000E+00 -0.86702195048E+03  0.86702195048E+03  0.00000000000E+00 0.  1.
         35    2    1    2    0    0  0.00000000000E+00  0.00000000000E+00 -0.84522875856E+03  0.88881514240E+03  0.27491944832E+03 0.  0.
         25    1    3    3    0    0 -0.43343295902E+02  0.32224006370E+02 -0.55104832625E+03  0.56654327791E+03  0.12000000000E+03 0.  0.
         25    1    3    3    0    0  0.43343295902E+02 -0.32224006370E+02 -0.29418043231E+03  0.32227186449E+03  0.12000000000E+03 0.  0.
<mgrwt>
<rscale>  0 0.27491945E+03</rscale>
<asrwt>0</asrwt>
<pdfrwt beam="1">  1        4 0.33527986E-02 0.27491945E+03</pdfrwt>
<pdfrwt beam="2">  1       -4 0.13338800E+00 0.27491945E+03</pdfrwt>
<totfact> 0.36105930E+02</totfact>
</mgrwt>
</event>
<event>
 5    1  0.1108889E+001  0.2747517E+03  0.7818608E-02  0.1098590E+00
          1   -1    0    0  501    0  0.00000000000E+00  0.00000000000E+00  0.44859683194E+02  0.44859683194E+02  0.00000000000E+00 0. -1.
         -1   -1    0    0    0  501 -0.00000000000E+00 -0.00000000000E+00 -0.42069241466E+03  0.42069241466E+03  0.00000000000E+00 0. -1.
         35    2    1    2    0    0  0.00000000000E+00  0.00000000000E+00 -0.37583273147E+03  0.46555209785E+03  0.27475173116E+03 0.  0.
         25    1    3    3    0    0 -0.28718478698E+02 -0.60168629134E+02 -0.19673945328E+03  0.23989878580E+03  0.12000000000E+03 0.  0.
         25    1    3    3    0    0  0.28718478698E+02  0.60168629134E+02 -0.17909327819E+03  0.22565331206E+03  0.12000000000E+03 0.  0.
<mgrwt>
<rscale>  0 0.27475173E+03</rscale>
<asrwt>0</asrwt>
<pdfrwt beam="1">  1        1 0.69014893E-02 0.27475173E+03</pdfrwt>
<pdfrwt beam="2">  1       -1 0.64721914E-01 0.27475173E+03</pdfrwt>
<totfact> 0.26618782E+03</totfact>
</mgrwt>
</event>
<event>
 5    1  0.1108889E+001  0.2741191E+03  0.7818608E-02  0.1098945E+00
          2   -1    0    0  501    0  0.00000000000E+00  0.00000000000E+00  0.11361441449E+04  0.11361441449E+04  0.00000000000E+00 0.  1.
         -2   -1    0    0    0  501 -0.00000000000E+00 -0.00000000000E+00 -0.16534273051E+02  0.16534273051E+02  0.00000000000E+00 0.  1.
         35    2    1    2    0    0  0.00000000000E+00  0.00000000000E+00  0.11196098718E+04  0.11526784179E+04  0.27411908008E+03 0.  0.
         25    1    3    3    0    0 -0.56202298109E+02 -0.21870051796E+02  0.67483532356E+03  0.68806955419E+03  0.12000000000E+03 0.  0.
         25    1    3    3    0    0  0.56202298109E+02  0.21870051796E+02  0.44477454825E+03  0.46460886373E+03  0.12000000000E+03 0.  0.
<mgrwt>
<rscale>  0 0.27411908E+03</rscale>
<asrwt>0</asrwt>
<pdfrwt beam="1">  1        2 0.17479135E+00 0.27411908E+03</pdfrwt>
<pdfrwt beam="2">  1       -2 0.25437352E-02 0.27411908E+03</pdfrwt>
<totfact> 0.11760659E+04</totfact>
</mgrwt>
</event>
<event>
 5    1  0.1108889E+001  0.2740023E+03  0.7818608E-02  0.1099011E+00
         -2   -1    0    0    0  501 -0.00000000000E+00  0.00000000000E+00  0.36606677219E+02  0.36606677219E+02  0.00000000000E+00 0. -1.
          2   -1    0    0  501    0  0.00000000000E+00 -0.00000000000E+00 -0.51272945265E+03  0.51272945265E+03  0.00000000000E+00 0. -1.
         35    2    1    2    0    0  0.00000000000E+00  0.00000000000E+00 -0.47612277543E+03  0.54933612987E+03  0.27400234724E+03 0.  0.
         25    1    3    3    0    0 -0.63238860526E+02 -0.62400344295E+01 -0.27454927808E+03  0.30629299307E+03  0.12000000000E+03 0.  0.
         25    1    3    3    0    0  0.63238860526E+02  0.62400344295E+01 -0.20157349735E+03  0.24304313680E+03  0.12000000000E+03 0.  0.
<mgrwt>
<rscale>  0 0.27400235E+03</rscale>
<asrwt>0</asrwt>
<pdfrwt beam="1">  1        2 0.78881449E-01 0.27400235E+03</pdfrwt>
<pdfrwt beam="2">  1       -2 0.56317969E-02 0.27400235E+03</pdfrwt>
<totfact> 0.98142550E+03</totfact>
</mgrwt>
</event>
<event>
 5    1  0.1108889E+001  0.2749318E+03  0.7818608E-02  0.1098490E+00
         -1   -1    0    0    0  501 -0.00000000000E+00  0.00000000000E+00  0.21752782361E+03  0.21752782361E+03  0.00000000000E+00 0.  1.
          1   -1    0    0  501    0  0.00000000000E+00 -0.00000000000E+00 -0.86871074950E+02  0.86871074950E+02  0.00000000000E+00 0.  1.
         35    2    1    2    0    0  0.00000000000E+00  0.00000000000E+00  0.13065674866E+03  0.30439889857E+03  0.27493181605E+03 0.  0.
         25    1    3    3    0    0  0.16732384913E+02  0.62164969287E+02  0.86113286805E+02  0.16112093059E+03  0.12000000000E+03 0.  0.
         25    1    3    3    0    0 -0.16732384913E+02 -0.62164969287E+02  0.44543461860E+02  0.14327796797E+03  0.12000000000E+03 0.  0.
<mgrwt>
<rscale>  0 0.27493182E+03</rscale>
<asrwt>0</asrwt>
<pdfrwt beam="1">  1        1 0.13364781E-01 0.27493182E+03</pdfrwt>
<pdfrwt beam="2">  1       -1 0.33465819E-01 0.27493182E+03</pdfrwt>
<totfact> 0.36554131E+03</totfact>
</mgrwt>
</event>
<event>
 5    1  0.1108889E+001  0.2754106E+03  0.7818608E-02  0.1098222E+00
         -1   -1    0    0    0  501 -0.00000000000E+00  0.00000000000E+00  0.13183920846E+02  0.13183920846E+02  0.00000000000E+00 0. -1.
          1   -1    0    0  501    0  0.00000000000E+00 -0.00000000000E+00 -0.14383236243E+04  0.14383236243E+04  0.00000000000E+00 0. -1.
         35    2    1    2    0    0  0.00000000000E+00  0.00000000000E+00 -0.14251397034E+04  0.14515075451E+04  0.27541056489E+03 0.  0.
         25    1    3    3    0    0  0.64521138599E+02 -0.17596744179E+02 -0.66253710935E+03  0.67662991657E+03  0.12000000000E+03 0.  0.
         25    1    3    3    0    0 -0.64521138599E+02  0.17596744179E+02 -0.76260259409E+03  0.77487762856E+03  0.12000000000E+03 0.  0.
<mgrwt>
<rscale>  0 0.27541056E+03</rscale>
<asrwt>0</asrwt>
<pdfrwt beam="1">  1        1 0.22128058E+00 0.27541056E+03</pdfrwt>
<pdfrwt beam="2">  1       -1 0.20282953E-02 0.27541056E+03</pdfrwt>
<totfact> 0.52841667E+03</totfact>
</mgrwt>
</event>
<event>
 5    1  0.1108889E+001  0.2751073E+03  0.7818608E-02  0.1098392E+00
          2   -1    0    0  501    0  0.00000000000E+00  0.00000000000E+00  0.14234975337E+04  0.14234975337E+04  0.00000000000E+00 0. -1.
         -2   -1    0    0    0  501 -0.00000000000E+00 -0.00000000000E+00 -0.13291916890E+02  0.13291916890E+02  0.00000000000E+00 0. -1.
         35    2    1    2    0    0  0.00000000000E+00  0.00000000000E+00  0.14102056168E+04  0.14367894506E+04  0.27510733113E+03 0.  0.
         25    1    3    3    0    0 -0.10204590319E+02 -0.23653671637E+02  0.38073537904E+03  0.40002882233E+03  0.12000000000E+03 0.  0.
         25    1    3    3    0    0  0.10204590319E+02  0.23653671637E+02  0.10294702378E+04  0.10367606283E+04  0.12000000000E+03 0.  0.
<mgrwt>
<rscale>  0 0.27510733E+03</rscale>
<asrwt>0</asrwt>
<pdfrwt beam="1">  1        2 0.21899950E+00 0.27510733E+03</pdfrwt>
<pdfrwt beam="2">  1       -2 0.20449114E-02 0.27510733E+03</pdfrwt>
<totfact> 0.11224201E+04</totfact>
</mgrwt>
</event>
<event>
 5    1  0.1108889E+001  0.2743304E+03  0.7818608E-02  0.1098826E+00
         -4   -1    0    0    0  501 -0.00000000000E+00  0.00000000000E+00  0.24284108902E+03  0.24284108902E+03  0.00000000000E+00 0.  1.
          4   -1    0    0  501    0  0.00000000000E+00 -0.00000000000E+00 -0.77475762722E+02  0.77475762722E+02  0.00000000000E+00 0.  1.
         35    2    1    2    0    0  0.00000000000E+00  0.00000000000E+00  0.16536532630E+03  0.32031685175E+03  0.27433044740E+03 0.  0.
         25    1    3    3    0    0  0.23353457048E+01 -0.56329932171E+02  0.12372924251E+03  0.18134894692E+03  0.12000000000E+03 0.  0.
         25    1    3    3    0    0 -0.23353457048E+01  0.56329932171E+02  0.41636083797E+02  0.13896790483E+03  0.12000000000E+03 0.  0.
<mgrwt>
<rscale>  0 0.27433045E+03</rscale>
<asrwt>0</asrwt>
<pdfrwt beam="1">  1        4 0.11919348E-01 0.27433045E+03</pdfrwt>
<pdfrwt beam="2">  1       -4 0.37360167E-01 0.27433045E+03</pdfrwt>
<totfact> 0.73331498E+02</totfact>
</mgrwt>
</event>
<event>
 5    1  0.1108889E+001  0.2751572E+03  0.7818608E-02  0.1098364E+00
         -2   -1    0    0    0  501 -0.00000000000E+00  0.00000000000E+00  0.34531488782E+02  0.34531488782E+02  0.00000000000E+00 0.  1.
          2   -1    0    0  501    0  0.00000000000E+00 -0.00000000000E+00 -0.54813361093E+03  0.54813361093E+03  0.00000000000E+00 0.  1.
         35    2    1    2    0    0  0.00000000000E+00  0.00000000000E+00 -0.51360212215E+03  0.58266509971E+03  0.27515718880E+03 0.  0.
         25    1    3    3    0    0 -0.25358091142E+02  0.28364521838E+02 -0.37432707261E+03  0.39492826713E+03  0.12000000000E+03 0.  0.
         25    1    3    3    0    0  0.25358091142E+02 -0.28364521838E+02 -0.13927504953E+03  0.18773683258E+03  0.12000000000E+03 0.  0.
<mgrwt>
<rscale>  0 0.27515719E+03</rscale>
<asrwt>0</asrwt>
<pdfrwt beam="1">  1        2 0.84328252E-01 0.27515719E+03</pdfrwt>
<pdfrwt beam="2">  1       -2 0.53125365E-02 0.27515719E+03</pdfrwt>
<totfact> 0.99501311E+03</totfact>
</mgrwt>
</event>
<event>
 5    1  0.1108889E+001  0.2740239E+03  0.7818608E-02  0.1098998E+00
         -1   -1    0    0    0  501 -0.00000000000E+00  0.00000000000E+00  0.75159331020E+02  0.75159331020E+02  0.00000000000E+00 0.  1.
          1   -1    0    0  501    0  0.00000000000E+00 -0.00000000000E+00 -0.24976632609E+03  0.24976632609E+03  0.00000000000E+00 0.  1.
         35    2    1    2    0    0  0.00000000000E+00  0.00000000000E+00 -0.17460699507E+03  0.32492565711E+03  0.27402386743E+03 0.  0.
         25    1    3    3    0    0 -0.34479078693E+02 -0.41583505252E+02 -0.42084709923E+02  0.13816337281E+03  0.12000000000E+03 0.  0.
         25    1    3    3    0    0  0.34479078693E+02  0.41583505252E+02 -0.13252228514E+03  0.18676228430E+03  0.12000000000E+03 0.  0.
<mgrwt>
<rscale>  0 0.27402387E+03</rscale>
<asrwt>0</asrwt>
<pdfrwt beam="1">  1        1 0.38425589E-01 0.27402387E+03</pdfrwt>
<pdfrwt beam="2">  1       -1 0.11562974E-01 0.27402387E+03</pdfrwt>
<totfact> 0.53317964E+03</totfact>
</mgrwt>
</event>
<event>
 5    1  0.1108889E+001  0.2756366E+03  0.7818608E-02  0.1098096E+00
         -2   -1    0    0    0  501 -0.00000000000E+00  0.00000000000E+00  0.92242302363E+01  0.92242302363E+01  0.00000000000E+00 0. -1.
          2   -1    0    0  501    0  0.00000000000E+00 -0.00000000000E+00 -0.20591295478E+04  0.20591295478E+04  0.00000000000E+00 0. -1.
         35    2    1    2    0    0  0.00000000000E+00  0.00000000000E+00 -0.20499053176E+04  0.20683537781E+04  0.27563660886E+03 0.  0.
         25    1    3    3    0    0  0.44838360251E+02 -0.25378041536E+02 -0.69449386758E+03  0.70666558969E+03  0.12000000000E+03 0.  0.
         25    1    3    3    0    0 -0.44838360251E+02  0.25378041536E+02 -0.13554114500E+04  0.13616881884E+04  0.12000000000E+03 0.  0.
<mgrwt>
<rscale>  0 0.27563661E+03</rscale>
<asrwt>0</asrwt>
<pdfrwt beam="1">  1        2 0.31678932E+00 0.27563661E+03</pdfrwt>
<pdfrwt beam="2">  1       -2 0.14191116E-02 0.27563661E+03</pdfrwt>
<totfact> 0.88480377E+03</totfact>
</mgrwt>
</event>
<event>
 5    1  0.1108889E+001  0.2757862E+03  0.7818608E-02  0.1098013E+00
          2   -1    0    0  501    0  0.00000000000E+00  0.00000000000E+00  0.48643870640E+03  0.48643870640E+03  0.00000000000E+00 0. -1.
         -2   -1    0    0    0  501 -0.00000000000E+00 -0.00000000000E+00 -0.39089221828E+02  0.39089221828E+02  0.00000000000E+00 0. -1.
         35    2    1    2    0    0  0.00000000000E+00  0.00000000000E+00  0.44734948457E+03  0.52552792823E+03  0.27578622519E+03 0.  0.
         25    1    3    3    0    0 -0.64221343090E+02 -0.20347722581E+02  0.24029795358E+03  0.27691427774E+03  0.12000000000E+03 0.  0.
         25    1    3    3    0    0  0.64221343090E+02  0.20347722581E+02  0.20705153100E+03  0.24861365049E+03  0.12000000000E+03 0.  0.
<mgrwt>
<rscale>  0 0.27578623E+03</rscale>
<asrwt>0</asrwt>
<pdfrwt beam="1">  1        2 0.74836720E-01 0.27578623E+03</pdfrwt>
<pdfrwt beam="2">  1       -2 0.60137268E-02 0.27578623E+03</pdfrwt>
<totfact> 0.94166018E+03</totfact>
</mgrwt>
</event>
<event>
 5    1  0.1108889E+001  0.2736397E+03  0.7818608E-02  0.1099214E+00
         -1   -1    0    0    0  501 -0.00000000000E+00  0.00000000000E+00  0.13708428295E+02  0.13708428295E+02  0.00000000000E+00 0.  1.
          1   -1    0    0  501    0  0.00000000000E+00 -0.00000000000E+00 -0.13655589765E+04  0.13655589765E+04  0.00000000000E+00 0.  1.
         35    2    1    2    0    0  0.00000000000E+00  0.00000000000E+00 -0.13518505482E+04  0.13792674047E+04  0.27363967046E+03 0.  0.
         25    1    3    3    0    0 -0.33511746464E+02  0.27435503851E+02 -0.42674526391E+03  0.44540685255E+03  0.12000000000E+03 0.  0.
         25    1    3    3    0    0  0.33511746464E+02 -0.27435503851E+02 -0.92510528424E+03  0.93386055220E+03  0.12000000000E+03 0.  0.
<mgrwt>
<rscale>  0 0.27363967E+03</rscale>
<asrwt>0</asrwt>
<pdfrwt beam="1">  1        1 0.21008608E+00 0.27363967E+03</pdfrwt>
<pdfrwt beam="2">  1       -1 0.21089881E-02 0.27363967E+03</pdfrwt>
<totfact> 0.55849590E+03</totfact>
</mgrwt>
</event>
<event>
 5    1  0.1108889E+001  0.2741464E+03  0.7818608E-02  0.1098930E+00
          2   -1    0    0  501    0  0.00000000000E+00  0.00000000000E+00  0.26518706001E+04  0.26518706001E+04  0.00000000000E+00 0.  1.
         -2   -1    0    0    0  501 -0.00000000000E+00 -0.00000000000E+00 -0.70852087147E+01  0.70852087147E+01  0.00000000000E+00 0.  1.
         35    2    1    2    0    0  0.00000000000E+00  0.00000000000E+00  0.26447853913E+04  0.26589558088E+04  0.27414636008E+03 0.  0.
         25    1    3    3    0    0 -0.23278382056E+02 -0.17722799084E+02  0.74588497767E+03  0.75604257856E+03  0.12000000000E+03 0.  0.
         25    1    3    3    0    0  0.23278382056E+02  0.17722799084E+02  0.18989004137E+04  0.19029132302E+04  0.12000000000E+03 0.  0.
<mgrwt>
<rscale>  0 0.27414636E+03</rscale>
<asrwt>0</asrwt>
<pdfrwt beam="1">  1        2 0.40797930E+00 0.27414636E+03</pdfrwt>
<pdfrwt beam="2">  1       -2 0.10900342E-02 0.27414636E+03</pdfrwt>
<totfact> 0.62151128E+03</totfact>
</mgrwt>
</event>
<event>
 5    1  0.1108889E+001  0.2691683E+03  0.7818608E-02  0.1101757E+00
          2   -1    0    0  501    0  0.00000000000E+00  0.00000000000E+00  0.65235153302E+03  0.65235153302E+03  0.00000000000E+00 0. -1.
         -2   -1    0    0    0  501 -0.00000000000E+00 -0.00000000000E+00 -0.27765547888E+02  0.27765547888E+02  0.00000000000E+00 0. -1.
         35    2    1    2    0    0  0.00000000000E+00  0.00000000000E+00  0.62458598513E+03  0.68011708090E+03  0.26916833194E+03 0.  0.
         25    1    3    3    0    0 -0.22325993996E+02 -0.23600668552E+02  0.18203848127E+03  0.22043922116E+03  0.12000000000E+03 0.  0.
         25    1    3    3    0    0  0.22325993996E+02  0.23600668552E+02  0.44254750386E+03  0.45967785974E+03  0.12000000000E+03 0.  0.
<mgrwt>
<rscale>  0 0.26916833E+03</rscale>
<asrwt>0</asrwt>
<pdfrwt beam="1">  1        2 0.10036176E+00 0.26916833E+03</pdfrwt>
<pdfrwt beam="2">  1       -2 0.42716232E-02 0.26916833E+03</pdfrwt>
<totfact> 0.11305012E+04</totfact>
</mgrwt>
</event>
<event>
 5    1  0.1108889E+001  0.2754216E+03  0.7818608E-02  0.1098216E+00
          2   -1    0    0  501    0  0.00000000000E+00  0.00000000000E+00  0.22328088325E+04  0.22328088325E+04  0.00000000000E+00 0. -1.
         -2   -1    0    0    0  501 -0.00000000000E+00 -0.00000000000E+00 -0.84934537175E+01  0.84934537175E+01  0.00000000000E+00 0. -1.
         35    2    1    2    0    0  0.00000000000E+00  0.00000000000E+00  0.22243153788E+04  0.22413022862E+04  0.27542155674E+03 0.  0.
         25    1    3    3    0    0  0.33282611843E+02  0.42885070668E+02  0.78488420961E+03  0.79585808033E+03  0.12000000000E+03 0.  0.
         25    1    3    3    0    0 -0.33282611843E+02 -0.42885070668E+02  0.14394311692E+04  0.14454442059E+04  0.12000000000E+03 0.  0.
<mgrwt>
<rscale>  0 0.27542156E+03</rscale>
<asrwt>0</asrwt>
<pdfrwt beam="1">  1        2 0.34350858E+00 0.27542156E+03</pdfrwt>
<pdfrwt beam="2">  1       -2 0.13066870E-02 0.27542156E+03</pdfrwt>
<totfact> 0.80745453E+03</totfact>
</mgrwt>
</event>
<event>
 5    1  0.1108889E+001  0.2844839E+03  0.7818608E-02  0.1093265E+00
         -2   -1    0    0    0  501 -0.00000000000E+00  0.00000000000E+00  0.37393619137E+02  0.37393619137E+02  0.00000000000E+00 0. -1.
          2   -1    0    0  501    0  0.00000000000E+00 -0.00000000000E+00 -0.54107566701E+03  0.54107566701E+03  0.00000000000E+00 0. -1.
         35    2    1    2    0    0  0.00000000000E+00  0.00000000000E+00 -0.50368204787E+03  0.57846928614E+03  0.28448393569E+03 0.  0.
         25    1    3    3    0    0  0.13571864552E+02 -0.82972237342E+01 -0.99950926614E+02  0.15698161408E+03  0.12000000000E+03 0.  0.
         25    1    3    3    0    0 -0.13571864552E+02  0.82972237342E+01 -0.40373112126E+03  0.42148767206E+03  0.12000000000E+03 0.  0.
<mgrwt>
<rscale>  0 0.28448394E+03</rscale>
<asrwt>0</asrwt>
<pdfrwt beam="1">  1        2 0.83242405E-01 0.28448394E+03</pdfrwt>
<pdfrwt beam="2">  1       -2 0.57528648E-02 0.28448394E+03</pdfrwt>
<totfact> 0.89517998E+03</totfact>
</mgrwt>
</event>
<event>
 5    1  0.1108889E+001  0.2746877E+03  0.7818608E-02  0.1098626E+00
          2   -1    0    0  501    0  0.00000000000E+00  0.00000000000E+00  0.20518295832E+03  0.20518295832E+03  0.00000000000E+00 0. -1.
         -2   -1    0    0    0  501 -0.00000000000E+00 -0.00000000000E+00 -0.91934200500E+02  0.91934200500E+02  0.00000000000E+00 0. -1.
         35    2    1    2    0    0  0.00000000000E+00  0.00000000000E+00  0.11324875782E+03  0.29711715882E+03  0.27468768614E+03 0.  0.
         25    1    3    3    0    0 -0.12066298177E+01  0.66511807894E+02  0.49951817067E+02  0.14601527514E+03  0.12000000000E+03 0.  0.
         25    1    3    3    0    0  0.12066298177E+01 -0.66511807894E+02  0.63296940757E+02  0.15110188369E+03  0.12000000000E+03 0.  0.
<mgrwt>
<rscale>  0 0.27468769E+03</rscale>
<asrwt>0</asrwt>
<pdfrwt beam="1">  1        2 0.31566609E-01 0.27468769E+03</pdfrwt>
<pdfrwt beam="2">  1       -2 0.14143723E-01 0.27468769E+03</pdfrwt>
<totfact> 0.62083101E+03</totfact>
</mgrwt>
</event>
<event>
 5    1  0.1108889E+001  0.2751194E+03  0.7818608E-02  0.1098385E+00
         -1   -1    0    0    0  501 -0.00000000000E+00  0.00000000000E+00  0.34831146898E+03  0.34831146898E+03  0.00000000000E+00 0. -1.
          1   -1    0    0  501    0  0.00000000000E+00 -0.00000000000E+00 -0.54326868825E+02  0.54326868825E+02  0.00000000000E+00 0. -1.
         35    2    1    2    0    0  0.00000000000E+00  0.00000000000E+00  0.29398460016E+03  0.40263833781E+03  0.27511940307E+03 0.  0.
         25    1    3    3    0    0  0.30504477410E+02  0.20599236052E+02  0.64621337770E+02  0.14117637537E+03  0.12000000000E+03 0.  0.
         25    1    3    3    0    0 -0.30504477410E+02 -0.20599236052E+02  0.22936326239E+03  0.26146196244E+03  0.12000000000E+03 0.  0.
<mgrwt>
<rscale>  0 0.27511940E+03</rscale>
<asrwt>0</asrwt>
<pdfrwt beam="1">  1        1 0.83579800E-02 0.27511940E+03</pdfrwt>
<pdfrwt beam="2">  1       -1 0.53586378E-01 0.27511940E+03</pdfrwt>
<totfact> 0.29443635E+03</totfact>
</mgrwt>
</event>
<event>
 5    1  0.1108889E+001  0.2747270E+03  0.7818608E-02  0.1098604E+00
          2   -1    0    0  501    0  0.00000000000E+00  0.00000000000E+00  0.10094691407E+03  0.10094691407E+03  0.00000000000E+00 0. -1.
         -2   -1    0    0    0  501 -0.00000000000E+00 -0.00000000000E+00 -0.18691738169E+03  0.18691738169E+03  0.00000000000E+00 0. -1.
         35    2    1    2    0    0  0.00000000000E+00  0.00000000000E+00 -0.85970467622E+02  0.28786429575E+03  0.27472701263E+03 0.  0.
         25    1    3    3    0    0 -0.47154286768E+02  0.45864910008E+02 -0.55454554904E+02  0.14765610177E+03  0.12000000000E+03 0.  0.
         25    1    3    3    0    0  0.47154286768E+02 -0.45864910008E+02 -0.30515912718E+02  0.14020819398E+03  0.12000000000E+03 0.  0.
<mgrwt>
<rscale>  0 0.27472701E+03</rscale>
<asrwt>0</asrwt>
<pdfrwt beam="1">  1        2 0.15530295E-01 0.27472701E+03</pdfrwt>
<pdfrwt beam="2">  1       -2 0.28756520E-01 0.27472701E+03</pdfrwt>
<totfact> 0.41066447E+03</totfact>
</mgrwt>
</event>
<event>
 5    1  0.1108889E+001  0.2742755E+03  0.7818608E-02  0.1098857E+00
          2   -1    0    0  501    0  0.00000000000E+00  0.00000000000E+00  0.28292791711E+03  0.28292791711E+03  0.00000000000E+00 0.  1.
         -2   -1    0    0    0  501 -0.00000000000E+00 -0.00000000000E+00 -0.66471911910E+02  0.66471911910E+02  0.00000000000E+00 0.  1.
         35    2    1    2    0    0  0.00000000000E+00  0.00000000000E+00  0.21645600520E+03  0.34939982902E+03  0.27427547891E+03 0.  0.
         25    1    3    3    0    0 -0.50499779632E+02 -0.36198835344E+02  0.78456409418E+02  0.15625617300E+03  0.12000000000E+03 0.  0.
         25    1    3    3    0    0  0.50499779632E+02  0.36198835344E+02  0.13799959578E+03  0.19314365601E+03  0.12000000000E+03 0.  0.
<mgrwt>
<rscale>  0 0.27427548E+03</rscale>
<asrwt>0</asrwt>
<pdfrwt beam="1">  1        2 0.43527371E-01 0.27427548E+03</pdfrwt>
<pdfrwt beam="2">  1       -2 0.10226448E-01 0.27427548E+03</pdfrwt>
<totfact> 0.74030184E+03</totfact>
</mgrwt>
</event>
<event>
 5    1  0.1108889E+001  0.2748735E+03  0.7818608E-02  0.1098522E+00
         -2   -1    0    0    0  501 -0.00000000000E+00  0.00000000000E+00  0.12479977769E+03  0.12479977769E+03  0.00000000000E+00 0. -1.
          2   -1    0    0  501    0  0.00000000000E+00 -0.00000000000E+00 -0.15135329331E+03  0.15135329331E+03  0.00000000000E+00 0. -1.
         35    2    1    2    0    0  0.00000000000E+00  0.00000000000E+00 -0.26553515622E+02  0.27615307099E+03  0.27487347894E+03 0.  0.
         25    1    3    3    0    0  0.15845225742E+02  0.54648013063E+02 -0.48816296784E+02  0.14149384206E+03  0.12000000000E+03 0.  0.
         25    1    3    3    0    0 -0.15845225742E+02 -0.54648013063E+02  0.22262781162E+02  0.13465922893E+03  0.12000000000E+03 0.  0.
<mgrwt>
<rscale>  0 0.27487348E+03</rscale>
<asrwt>0</asrwt>
<pdfrwt beam="1">  1        2 0.23285122E-01 0.27487348E+03</pdfrwt>
<pdfrwt beam="2">  1       -2 0.19199966E-01 0.27487348E+03</pdfrwt>
<totfact> 0.52213205E+03</totfact>
</mgrwt>
</event>
<event>
 5    1  0.1108889E+001  0.2750405E+03  0.7818608E-02  0.1098429E+00
          1   -1    0    0  501    0  0.00000000000E+00  0.00000000000E+00  0.92576744325E+03  0.92576744325E+03  0.00000000000E+00 0. -1.
         -1   -1    0    0    0  501 -0.00000000000E+00 -0.00000000000E+00 -0.20428266447E+02  0.20428266447E+02  0.00000000000E+00 0. -1.
         35    2    1    2    0    0  0.00000000000E+00  0.00000000000E+00  0.90533917680E+03  0.94619570970E+03  0.27504053519E+03 0.  0.
         25    1    3    3    0    0  0.48482339605E+02  0.22024698949E+02  0.59351642854E+03  0.60786295788E+03  0.12000000000E+03 0.  0.
         25    1    3    3    0    0 -0.48482339605E+02 -0.22024698949E+02  0.31182274826E+03  0.33833275182E+03  0.12000000000E+03 0.  0.
<mgrwt>
<rscale>  0 0.27504054E+03</rscale>
<asrwt>0</asrwt>
<pdfrwt beam="1">  1        1 0.14242573E+00 0.27504054E+03</pdfrwt>
<pdfrwt beam="2">  1       -1 0.31428109E-02 0.27504054E+03</pdfrwt>
<totfact> 0.64109452E+03</totfact>
</mgrwt>
</event>
<event>
 5    1  0.1108889E+001  0.2751365E+03  0.7818608E-02  0.1098375E+00
          2   -1    0    0  501    0  0.00000000000E+00  0.00000000000E+00  0.87558045162E+03  0.87558045162E+03  0.00000000000E+00 0.  1.
         -2   -1    0    0    0  501 -0.00000000000E+00 -0.00000000000E+00 -0.21614267337E+02  0.21614267337E+02  0.00000000000E+00 0.  1.
         35    2    1    2    0    0  0.00000000000E+00  0.00000000000E+00  0.85396618428E+03  0.89719471896E+03  0.27513654760E+03 0.  0.
         25    1    3    3    0    0  0.39401546709E+02 -0.46532177867E+02  0.33433059884E+03  0.36040903815E+03  0.12000000000E+03 0.  0.
         25    1    3    3    0    0 -0.39401546709E+02  0.46532177867E+02  0.51963558544E+03  0.53678568080E+03  0.12000000000E+03 0.  0.
<mgrwt>
<rscale>  0 0.27513655E+03</rscale>
<asrwt>0</asrwt>
<pdfrwt beam="1">  1        2 0.13470466E+00 0.27513655E+03</pdfrwt>
<pdfrwt beam="2">  1       -2 0.33252726E-02 0.27513655E+03</pdfrwt>
<totfact> 0.11409019E+04</totfact>
</mgrwt>
</event>
<event>
 5    1  0.1108889E+001  0.2747763E+03  0.7818608E-02  0.1098577E+00
         -2   -1    0    0    0  501 -0.00000000000E+00  0.00000000000E+00  0.98095922427E+02  0.98095922427E+02  0.00000000000E+00 0.  1.
          2   -1    0    0  501    0  0.00000000000E+00 -0.00000000000E+00 -0.19241881468E+03  0.19241881468E+03  0.00000000000E+00 0.  1.
         35    2    1    2    0    0  0.00000000000E+00  0.00000000000E+00 -0.94322892257E+02  0.29051473711E+03  0.27477628077E+03 0.  0.
         25    1    3    3    0    0 -0.42338524272E+02  0.30496289853E+02 -0.28953914738E+01  0.13088528422E+03  0.12000000000E+03 0.  0.
         25    1    3    3    0    0  0.42338524272E+02 -0.30496289853E+02 -0.91427500783E+02  0.15962945290E+03  0.12000000000E+03 0.  0.
<mgrwt>
<rscale>  0 0.27477628E+03</rscale>
<asrwt>0</asrwt>
<pdfrwt beam="1">  1        2 0.29602894E-01 0.27477628E+03</pdfrwt>
<pdfrwt beam="2">  1       -2 0.15091680E-01 0.27477628E+03</pdfrwt>
<totfact> 0.59859320E+03</totfact>
</mgrwt>
</event>
<event>
 5    1  0.1108889E+001  0.2752450E+03  0.7818608E-02  0.1098315E+00
         -1   -1    0    0    0  501 -0.00000000000E+00  0.00000000000E+00  0.14598581364E+02  0.14598581364E+02  0.00000000000E+00 0.  1.
          1   -1    0    0  501    0  0.00000000000E+00 -0.00000000000E+00 -0.12973832066E+04  0.12973832066E+04  0.00000000000E+00 0.  1.
         35    2    1    2    0    0  0.00000000000E+00  0.00000000000E+00 -0.12827846253E+04  0.13119817880E+04  0.27524501305E+03 0.  0.
         25    1    3    3    0    0  0.17521203527E+02 -0.57732794357E+02 -0.78438115158E+03  0.79579762444E+03  0.12000000000E+03 0.  0.
         25    1    3    3    0    0 -0.17521203527E+02  0.57732794357E+02 -0.49840347370E+03  0.51618416357E+03  0.12000000000E+03 0.  0.
<mgrwt>
<rscale>  0 0.27524501E+03</rscale>
<asrwt>0</asrwt>
<pdfrwt beam="1">  1        1 0.19959745E+00 0.27524501E+03</pdfrwt>
<pdfrwt beam="2">  1       -1 0.22459353E-02 0.27524501E+03</pdfrwt>
<totfact> 0.56671484E+03</totfact>
</mgrwt>
</event>
<event>
 5    1  0.1108889E+001  0.2739962E+03  0.7818608E-02  0.1099014E+00
         -2   -1    0    0    0  501 -0.00000000000E+00  0.00000000000E+00  0.10420938820E+02  0.10420938820E+02  0.00000000000E+00 0. -1.
          2   -1    0    0  501    0  0.00000000000E+00 -0.00000000000E+00 -0.18010354388E+04  0.18010354388E+04  0.00000000000E+00 0. -1.
         35    2    1    2    0    0  0.00000000000E+00  0.00000000000E+00 -0.17906145000E+04  0.18114563776E+04  0.27399620523E+03 0.  0.
         25    1    3    3    0    0  0.19331823348E+02 -0.60639929292E+02 -0.10131210121E+04  0.10221864338E+04  0.12000000000E+03 0.  0.
         25    1    3    3    0    0 -0.19331823348E+02  0.60639929292E+02 -0.77749348791E+03  0.78926994379E+03  0.12000000000E+03 0.  0.
<mgrwt>
<rscale>  0 0.27399621E+03</rscale>
<asrwt>0</asrwt>
<pdfrwt beam="1">  1        2 0.27708238E+00 0.27399621E+03</pdfrwt>
<pdfrwt beam="2">  1       -2 0.16032214E-02 0.27399621E+03</pdfrwt>
<totfact> 0.10114544E+04</totfact>
</mgrwt>
</event>
<event>
 5    1  0.1108889E+001  0.2743424E+03  0.7818608E-02  0.1098820E+00
          2   -1    0    0  501    0  0.00000000000E+00  0.00000000000E+00  0.49563338907E+03  0.49563338907E+03  0.00000000000E+00 0. -1.
         -2   -1    0    0    0  501 -0.00000000000E+00 -0.00000000000E+00 -0.37963413906E+02  0.37963413906E+02  0.00000000000E+00 0. -1.
         35    2    1    2    0    0  0.00000000000E+00  0.00000000000E+00  0.45766997517E+03  0.53359680298E+03  0.27434238094E+03 0.  0.
         25    1    3    3    0    0 -0.22490108139E+02 -0.52641234485E+02  0.16319203905E+03  0.21049595279E+03  0.12000000000E+03 0.  0.
         25    1    3    3    0    0  0.22490108139E+02  0.52641234485E+02  0.29447793612E+03  0.32310085019E+03  0.12000000000E+03 0.  0.
<mgrwt>
<rscale>  0 0.27434238E+03</rscale>
<asrwt>0</asrwt>
<pdfrwt beam="1">  1        2 0.76251286E-01 0.27434238E+03</pdfrwt>
<pdfrwt beam="2">  1       -2 0.58405256E-02 0.27434238E+03</pdfrwt>
<totfact> 0.96425636E+03</totfact>
</mgrwt>
</event>
<event>
 5    1  0.1108889E+001  0.2758652E+03  0.7818608E-02  0.1097969E+00
         -2   -1    0    0    0  501 -0.00000000000E+00  0.00000000000E+00  0.11995871842E+04  0.11995871842E+04  0.00000000000E+00 0. -1.
          2   -1    0    0  501    0  0.00000000000E+00 -0.00000000000E+00 -0.15859961246E+02  0.15859961246E+02  0.00000000000E+00 0. -1.
         35    2    1    2    0    0  0.00000000000E+00  0.00000000000E+00  0.11837272230E+04  0.12154471455E+04  0.27586522980E+03 0.  0.
         25    1    3    3    0    0  0.21524305375E+02 -0.42656355277E+02  0.80511072734E+03  0.81540550872E+03  0.12000000000E+03 0.  0.
         25    1    3    3    0    0 -0.21524305375E+02  0.42656355277E+02  0.37861649566E+03  0.40004163677E+03  0.12000000000E+03 0.  0.
<mgrwt>
<rscale>  0 0.27586523E+03</rscale>
<asrwt>0</asrwt>
<pdfrwt beam="1">  1        2 0.24399950E-02 0.27586523E+03</pdfrwt>
<pdfrwt beam="2">  1       -2 0.18455180E+00 0.27586523E+03</pdfrwt>
<totfact> 0.75523914E+02</totfact>
</mgrwt>
</event>
<event>
 5    1  0.1108889E+001  0.2750465E+03  0.7818608E-02  0.1098426E+00
          1   -1    0    0  501    0  0.00000000000E+00  0.00000000000E+00  0.10947405101E+03  0.10947405101E+03  0.00000000000E+00 0.  1.
         -1   -1    0    0    0  501 -0.00000000000E+00 -0.00000000000E+00 -0.17275916789E+03  0.17275916789E+03  0.00000000000E+00 0.  1.
         35    2    1    2    0    0  0.00000000000E+00  0.00000000000E+00 -0.63285116876E+02  0.28223321890E+03  0.27504651212E+03 0.  0.
         25    1    3    3    0    0 -0.16401414359E+02  0.49914336645E+02 -0.74595572753E+02  0.15074795810E+03  0.12000000000E+03 0.  0.
         25    1    3    3    0    0  0.16401414359E+02 -0.49914336645E+02  0.11310455878E+02  0.13148526080E+03  0.12000000000E+03 0.  0.
<mgrwt>
<rscale>  0 0.27504651E+03</rscale>
<asrwt>0</asrwt>
<pdfrwt beam="1">  1        1 0.16842162E-01 0.27504651E+03</pdfrwt>
<pdfrwt beam="2">  1       -1 0.26578334E-01 0.27504651E+03</pdfrwt>
<totfact> 0.39930709E+03</totfact>
</mgrwt>
</event>
<event>
 5    1  0.1108889E+001  0.2754776E+03  0.7818608E-02  0.1098185E+00
         -1   -1    0    0    0  501 -0.00000000000E+00  0.00000000000E+00  0.11343255468E+02  0.11343255468E+02  0.00000000000E+00 0. -1.
          1   -1    0    0  501    0  0.00000000000E+00 -0.00000000000E+00 -0.16725333022E+04  0.16725333022E+04  0.00000000000E+00 0. -1.
         35    2    1    2    0    0  0.00000000000E+00  0.00000000000E+00 -0.16611900467E+04  0.16838765577E+04  0.27547756733E+03 0.  0.
         25    1    3    3    0    0 -0.60441352794E+01 -0.66681969777E+02 -0.77294343241E+03  0.78506341551E+03  0.12000000000E+03 0.  0.
         25    1    3    3    0    0  0.60441352794E+01  0.66681969777E+02 -0.88824661432E+03  0.89881314216E+03  0.12000000000E+03 0.  0.
<mgrwt>
<rscale>  0 0.27547757E+03</rscale>
<asrwt>0</asrwt>
<pdfrwt beam="1">  1        1 0.25731286E+00 0.27547757E+03</pdfrwt>
<pdfrwt beam="2">  1       -1 0.17451159E-02 0.27547757E+03</pdfrwt>
<totfact> 0.46115853E+03</totfact>
</mgrwt>
</event>
<event>
 5    1  0.1108889E+001  0.2750457E+03  0.7818608E-02  0.1098426E+00
         -2   -1    0    0    0  501 -0.00000000000E+00  0.00000000000E+00  0.21799109172E+03  0.21799109172E+03  0.00000000000E+00 0.  1.
          2   -1    0    0  501    0  0.00000000000E+00 -0.00000000000E+00 -0.86758259447E+02  0.86758259447E+02  0.00000000000E+00 0.  1.
         35    2    1    2    0    0  0.00000000000E+00  0.00000000000E+00  0.13123283228E+03  0.30474935117E+03  0.27504565216E+03 0.  0.
         25    1    3    3    0    0  0.18517842798E+02  0.26377543246E+02  0.13092090906E+03  0.18049645348E+03  0.12000000000E+03 0.  0.
         25    1    3    3    0    0 -0.18517842798E+02 -0.26377543246E+02  0.31192322153E+00  0.12425289770E+03  0.12000000000E+03 0.  0.
<mgrwt>
<rscale>  0 0.27504565E+03</rscale>
<asrwt>0</asrwt>
<pdfrwt beam="1">  1        2 0.13347425E-01 0.27504565E+03</pdfrwt>
<pdfrwt beam="2">  1       -2 0.33537091E-01 0.27504565E+03</pdfrwt>
<totfact> 0.37141552E+03</totfact>
</mgrwt>
</event>
<event>
 5    1  0.1108889E+001  0.2754784E+03  0.7818608E-02  0.1098184E+00
         -2   -1    0    0    0  501 -0.00000000000E+00  0.00000000000E+00  0.13927398630E+02  0.13927398630E+02  0.00000000000E+00 0. -1.
          2   -1    0    0  501    0  0.00000000000E+00 -0.00000000000E+00 -0.13622134738E+04  0.13622134738E+04  0.00000000000E+00 0. -1.
         35    2    1    2    0    0  0.00000000000E+00  0.00000000000E+00 -0.13482860752E+04  0.13761408724E+04  0.27547842071E+03 0.  0.
         25    1    3    3    0    0 -0.56932441743E+02  0.38881425082E+01 -0.49294699349E+03  0.51054202468E+03  0.12000000000E+03 0.  0.
         25    1    3    3    0    0  0.56932441743E+02 -0.38881425082E+01 -0.85533908166E+03  0.86559884773E+03  0.12000000000E+03 0.  0.
<mgrwt>
<rscale>  0 0.27547842E+03</rscale>
<asrwt>0</asrwt>
<pdfrwt beam="1">  1        2 0.20957126E+00 0.27547842E+03</pdfrwt>
<pdfrwt beam="2">  1       -2 0.21426771E-02 0.27547842E+03</pdfrwt>
<totfact> 0.11314029E+04</totfact>
</mgrwt>
</event>
<event>
 5    1  0.1108889E+001  0.2749357E+03  0.7818608E-02  0.1098488E+00
          1   -1    0    0  501    0  0.00000000000E+00  0.00000000000E+00  0.84758927542E+02  0.84758927542E+02  0.00000000000E+00 0.  1.
         -1   -1    0    0    0  501 -0.00000000000E+00 -0.00000000000E+00 -0.22295478291E+03  0.22295478291E+03  0.00000000000E+00 0.  1.
         35    2    1    2    0    0  0.00000000000E+00  0.00000000000E+00 -0.13819585537E+03  0.30771371045E+03  0.27493568914E+03 0.  0.
         25    1    3    3    0    0  0.63702143505E+02 -0.43157304981E+01 -0.46138357921E+02  0.14354559098E+03  0.12000000000E+03 0.  0.
         25    1    3    3    0    0 -0.63702143505E+02  0.43157304981E+01 -0.92057497449E+02  0.16416811948E+03  0.12000000000E+03 0.  0.
<mgrwt>
<rscale>  0 0.27493569E+03</rscale>
<asrwt>0</asrwt>
<pdfrwt beam="1">  1        1 0.13039835E-01 0.27493569E+03</pdfrwt>
<pdfrwt beam="2">  1       -1 0.34300736E-01 0.27493569E+03</pdfrwt>
<totfact> 0.36187847E+03</totfact>
</mgrwt>
</event>
<event>
 5    1  0.1108889E+001  0.2791411E+03  0.7818608E-02  0.1096159E+00
         -1   -1    0    0    0  501 -0.00000000000E+00  0.00000000000E+00  0.51252289936E+03  0.51252289936E+03  0.00000000000E+00 0. -1.
          1   -1    0    0  501    0  0.00000000000E+00 -0.00000000000E+00 -0.38007934820E+02  0.38007934820E+02  0.00000000000E+00 0. -1.
         35    2    1    2    0    0  0.00000000000E+00  0.00000000000E+00  0.47451496454E+03  0.55053083418E+03  0.27914108943E+03 0.  0.
         25    1    3    3    0    0  0.70415985865E+02 -0.57112584930E+01  0.25585379613E+03  0.29129400016E+03  0.12000000000E+03 0.  0.
         25    1    3    3    0    0 -0.70415985865E+02  0.57112584930E+01  0.21866116841E+03  0.25923683402E+03  0.12000000000E+03 0.  0.
<mgrwt>
<rscale>  0 0.27914109E+03</rscale>
<asrwt>0</asrwt>
<pdfrwt beam="1">  1        1 0.58473750E-02 0.27914109E+03</pdfrwt>
<pdfrwt beam="2">  1       -1 0.78849672E-01 0.27914109E+03</pdfrwt>
<totfact> 0.22482176E+03</totfact>
</mgrwt>
</event>
<event>
 5    1  0.1108889E+001  0.2744413E+03  0.7818608E-02  0.1098764E+00
          2   -1    0    0  501    0  0.00000000000E+00  0.00000000000E+00  0.44950766554E+03  0.44950766554E+03  0.00000000000E+00 0. -1.
         -2   -1    0    0    0  501 -0.00000000000E+00 -0.00000000000E+00 -0.41889189373E+02  0.41889189373E+02  0.00000000000E+00 0. -1.
         35    2    1    2    0    0  0.00000000000E+00  0.00000000000E+00  0.40761847617E+03  0.49139685491E+03  0.27444133600E+03 0.  0.
         25    1    3    3    0    0  0.28504303384E+02 -0.55045543598E+02  0.16042783647E+03  0.20971313239E+03  0.12000000000E+03 0.  0.
         25    1    3    3    0    0 -0.28504303384E+02  0.55045543598E+02  0.24719063970E+03  0.28168372253E+03  0.12000000000E+03 0.  0.
<mgrwt>
<rscale>  0 0.27444134E+03</rscale>
<asrwt>0</asrwt>
<pdfrwt beam="1">  1        2 0.69155022E-01 0.27444134E+03</pdfrwt>
<pdfrwt beam="2">  1       -2 0.64444910E-02 0.27444134E+03</pdfrwt>
<totfact> 0.92380238E+03</totfact>
</mgrwt>
</event>
<event>
 5    1  0.1108889E+001  0.2717220E+03  0.7818608E-02  0.1100298E+00
         -1   -1    0    0    0  501 -0.00000000000E+00  0.00000000000E+00  0.36166834975E+02  0.36166834975E+02  0.00000000000E+00 0. -1.
          1   -1    0    0  501    0  0.00000000000E+00 -0.00000000000E+00 -0.51036301142E+03  0.51036301142E+03  0.00000000000E+00 0. -1.
         35    2    1    2    0    0  0.00000000000E+00  0.00000000000E+00 -0.47419617645E+03  0.54652984640E+03  0.27172202569E+03 0.  0.
         25    1    3    3    0    0 -0.56741778196E+02  0.77492417308E+01 -0.29321942660E+03  0.32195855677E+03  0.12000000000E+03 0.  0.
         25    1    3    3    0    0  0.56741778196E+02 -0.77492417308E+01 -0.18097674985E+03  0.22457128963E+03  0.12000000000E+03 0.  0.
<mgrwt>
<rscale>  0 0.27172203E+03</rscale>
<asrwt>0</asrwt>
<pdfrwt beam="1">  1        1 0.78517383E-01 0.27172203E+03</pdfrwt>
<pdfrwt beam="2">  1       -1 0.55641287E-02 0.27172203E+03</pdfrwt>
<totfact> 0.65451033E+03</totfact>
</mgrwt>
</event>
<event>
 5    1  0.1108889E+001  0.2739404E+03  0.7818608E-02  0.1099045E+00
          2   -1    0    0  501    0  0.00000000000E+00  0.00000000000E+00  0.41842401856E+03  0.41842401856E+03  0.00000000000E+00 0.  1.
         -2   -1    0    0    0  501 -0.00000000000E+00 -0.00000000000E+00 -0.44836906423E+02  0.44836906423E+02  0.00000000000E+00 0.  1.
         35    2    1    2    0    0  0.00000000000E+00  0.00000000000E+00  0.37358711213E+03  0.46326092498E+03  0.27394042100E+03 0.  0.
         25    1    3    3    0    0  0.32579884382E+02 -0.45834803445E+02  0.12824724578E+03  0.18441701148E+03  0.12000000000E+03 0.  0.
         25    1    3    3    0    0 -0.32579884382E+02  0.45834803445E+02  0.24533986635E+03  0.27884391350E+03  0.12000000000E+03 0.  0.
<mgrwt>
<rscale>  0 0.27394042E+03</rscale>
<asrwt>0</asrwt>
<pdfrwt beam="1">  1        2 0.64372923E-01 0.27394042E+03</pdfrwt>
<pdfrwt beam="2">  1       -2 0.68979859E-02 0.27394042E+03</pdfrwt>
<totfact> 0.89962611E+03</totfact>
</mgrwt>
</event>
<event>
 5    1  0.1108889E+001  0.2751486E+03  0.7818608E-02  0.1098369E+00
         -1   -1    0    0    0  501 -0.00000000000E+00  0.00000000000E+00  0.62377666897E+03  0.62377666897E+03  0.00000000000E+00 0.  1.
          1   -1    0    0  501    0  0.00000000000E+00 -0.00000000000E+00 -0.30342098217E+02  0.30342098217E+02  0.00000000000E+00 0.  1.
         35    2    1    2    0    0  0.00000000000E+00  0.00000000000E+00  0.59343457075E+03  0.65411876719E+03  0.27514863587E+03 0.  0.
         25    1    3    3    0    0 -0.20565496063E+02  0.48656067761E+02  0.39577919150E+03  0.41693107462E+03  0.12000000000E+03 0.  0.
         25    1    3    3    0    0  0.20565496063E+02 -0.48656067761E+02  0.19765537925E+03  0.23718769257E+03  0.12000000000E+03 0.  0.
<mgrwt>
<rscale>  0 0.27514864E+03</rscale>
<asrwt>0</asrwt>
<pdfrwt beam="1">  1        1 0.46680156E-02 0.27514864E+03</pdfrwt>
<pdfrwt beam="2">  1       -1 0.95965632E-01 0.27514864E+03</pdfrwt>
<totfact> 0.20209746E+03</totfact>
</mgrwt>
</event>
<event>
 5    1  0.1108889E+001  0.2791751E+03  0.7818608E-02  0.1096140E+00
         -3   -1    0    0    0  501 -0.00000000000E+00  0.00000000000E+00  0.85347258385E+01  0.85347258385E+01  0.00000000000E+00 0. -1.
          3   -1    0    0  501    0  0.00000000000E+00 -0.00000000000E+00 -0.22829886273E+04  0.22829886273E+04  0.00000000000E+00 0. -1.
         35    2    1    2    0    0  0.00000000000E+00  0.00000000000E+00 -0.22744539015E+04  0.22915233532E+04  0.27917508504E+03 0.  0.
         25    1    3    3    0    0 -0.59980374228E+02  0.16321624015E+02 -0.85045170228E+03  0.86112260371E+03  0.12000000000E+03 0.  0.
         25    1    3    3    0    0  0.59980374228E+02 -0.16321624015E+02 -0.14240021992E+04  0.14304007495E+04  0.12000000000E+03 0.  0.
<mgrwt>
<rscale>  0 0.27917509E+03</rscale>
<asrwt>0</asrwt>
<pdfrwt beam="1">  1        3 0.35122893E+00 0.27917509E+03</pdfrwt>
<pdfrwt beam="2">  1       -3 0.13130351E-02 0.27917509E+03</pdfrwt>
<totfact> 0.11018742E+02</totfact>
</mgrwt>
</event>
<event>
 5    1  0.1108889E+001  0.2737071E+03  0.7818608E-02  0.1099177E+00
          2   -1    0    0  501    0  0.00000000000E+00  0.00000000000E+00  0.61210259791E+03  0.61210259791E+03  0.00000000000E+00 0.  1.
         -2   -1    0    0    0  501 -0.00000000000E+00 -0.00000000000E+00 -0.30597628359E+02  0.30597628359E+02  0.00000000000E+00 0.  1.
         35    2    1    2    0    0  0.00000000000E+00  0.00000000000E+00  0.58150496955E+03  0.64270022627E+03  0.27370705368E+03 0.  0.
         25    1    3    3    0    0  0.40843834152E+02 -0.51516397023E+02  0.29684400111E+03  0.32686162049E+03  0.12000000000E+03 0.  0.
         25    1    3    3    0    0 -0.40843834152E+02  0.51516397023E+02  0.28466096844E+03  0.31583860578E+03  0.12000000000E+03 0.  0.
<mgrwt>
<rscale>  0 0.27370705E+03</rscale>
<asrwt>0</asrwt>
<pdfrwt beam="1">  1        2 0.94169622E-01 0.27370705E+03</pdfrwt>
<pdfrwt beam="2">  1       -2 0.47073279E-02 0.27370705E+03</pdfrwt>
<totfact> 0.10527923E+04</totfact>
</mgrwt>
</event>
<event>
 5    1  0.1108889E+001  0.2745893E+03  0.7818608E-02  0.1098681E+00
         -2   -1    0    0    0  501 -0.00000000000E+00  0.00000000000E+00  0.21340236380E+04  0.21340236380E+04  0.00000000000E+00 0.  1.
          2   -1    0    0  501    0  0.00000000000E+00 -0.00000000000E+00 -0.88329976444E+01  0.88329976444E+01  0.00000000000E+00 0.  1.
         35    2    1    2    0    0  0.00000000000E+00  0.00000000000E+00  0.21251906403E+04  0.21428566356E+04  0.27458933532E+03 0.  0.
         25    1    3    3    0    0  0.29645603457E+02 -0.46023536771E+01  0.15275496651E+04  0.15325495172E+04  0.12000000000E+03 0.  0.
         25    1    3    3    0    0 -0.29645603457E+02  0.46023536771E+01  0.59764097528E+03  0.61030711842E+03  0.12000000000E+03 0.  0.
<mgrwt>
<rscale>  0 0.27458934E+03</rscale>
<asrwt>0</asrwt>
<pdfrwt beam="1">  1        2 0.13589244E-02 0.27458934E+03</pdfrwt>
<pdfrwt beam="2">  1       -2 0.32831092E+00 0.27458934E+03</pdfrwt>
<totfact> 0.23382460E+02</totfact>
</mgrwt>
</event>
<event>
 4    1  0.1108889E+001  0.2533182E+03  0.7818608E-02  0.1111226E+00
         -2   -1    0    0    0  501 -0.00000000000E+00  0.00000000000E+00  0.42320959520E+02  0.42320959520E+02  0.00000000000E+00 0. -1.
          2   -1    0    0  501    0  0.00000000000E+00 -0.00000000000E+00 -0.37906803300E+03  0.37906803300E+03  0.00000000000E+00 0. -1.
         25    1    1    2    0    0  0.26908610502E+02 -0.26329849046E+02 -0.14341092238E+03  0.19074597487E+03  0.12000000000E+03 0.  0.
         25    1    1    2    0    0 -0.26908610502E+02  0.26329849046E+02 -0.19333615110E+03  0.23064301765E+03  0.12000000000E+03 0.  0.
<mgrwt>
<rscale>  0 0.25331816E+03</rscale>
<asrwt>0</asrwt>
<pdfrwt beam="1">  1        2 0.58318162E-01 0.25331816E+03</pdfrwt>
<pdfrwt beam="2">  1       -2 0.65109165E-02 0.25331816E+03</pdfrwt>
<totfact> 0.10911762E+04</totfact>
</mgrwt>
</event>
<event>
 5    1  0.1108889E+001  0.2750328E+03  0.7818608E-02  0.1098433E+00
          2   -1    0    0  501    0  0.00000000000E+00  0.00000000000E+00  0.20145374045E+03  0.20145374045E+03  0.00000000000E+00 0.  1.
         -2   -1    0    0    0  501 -0.00000000000E+00 -0.00000000000E+00 -0.93871452138E+02  0.93871452138E+02  0.00000000000E+00 0.  1.
         35    2    1    2    0    0  0.00000000000E+00  0.00000000000E+00  0.10758228831E+03  0.29532519259E+03  0.27503276281E+03 0.  0.
         25    1    3    3    0    0 -0.16599953113E+02  0.15296779871E+02 -0.14131014298E+02  0.12291963018E+03  0.12000000000E+03 0.  0.
         25    1    3    3    0    0  0.16599953113E+02 -0.15296779871E+02  0.12171330261E+03  0.17240556241E+03  0.12000000000E+03 0.  0.
<mgrwt>
<rscale>  0 0.27503276E+03</rscale>
<asrwt>0</asrwt>
<pdfrwt beam="1">  1        2 0.30992883E-01 0.27503276E+03</pdfrwt>
<pdfrwt beam="2">  1       -2 0.14441762E-01 0.27503276E+03</pdfrwt>
<totfact> 0.61209996E+03</totfact>
</mgrwt>
</event>
<event>
 5    1  0.1108889E+001  0.2784903E+03  0.7818608E-02  0.1096516E+00
          2   -1    0    0  501    0  0.00000000000E+00  0.00000000000E+00  0.27625879393E+03  0.27625879393E+03  0.00000000000E+00 0.  1.
         -2   -1    0    0    0  501 -0.00000000000E+00 -0.00000000000E+00 -0.70184982053E+02  0.70184982053E+02  0.00000000000E+00 0.  1.
         35    2    1    2    0    0  0.00000000000E+00  0.00000000000E+00  0.20607381188E+03  0.34644377599E+03  0.27849034809E+03 0.  0.
         25    1    3    3    0    0  0.17277391721E+02  0.14310092969E+02  0.19716968967E+02  0.12366101201E+03  0.12000000000E+03 0.  0.
         25    1    3    3    0    0 -0.17277391721E+02 -0.14310092969E+02  0.18635684291E+03  0.22278276398E+03  0.12000000000E+03 0.  0.
<mgrwt>
<rscale>  0 0.27849035E+03</rscale>
<asrwt>0</asrwt>
<pdfrwt beam="1">  1        2 0.42501352E-01 0.27849035E+03</pdfrwt>
<pdfrwt beam="2">  1       -2 0.10797690E-01 0.27849035E+03</pdfrwt>
<totfact> 0.69682963E+03</totfact>
</mgrwt>
</event>
<event>
 5    1  0.1108889E+001  0.2755268E+03  0.7818608E-02  0.1098158E+00
         -2   -1    0    0    0  501 -0.00000000000E+00  0.00000000000E+00  0.11144715938E+02  0.11144715938E+02  0.00000000000E+00 0. -1.
          2   -1    0    0  501    0  0.00000000000E+00 -0.00000000000E+00 -0.17029371330E+04  0.17029371330E+04  0.00000000000E+00 0. -1.
         35    2    1    2    0    0  0.00000000000E+00  0.00000000000E+00 -0.16917924170E+04  0.17140818489E+04  0.27552677262E+03 0.  0.
         25    1    3    3    0    0 -0.32302478220E+02 -0.54430265250E+02 -0.69702485228E+03  0.71010544891E+03  0.12000000000E+03 0.  0.
         25    1    3    3    0    0  0.32302478220E+02  0.54430265250E+02 -0.99476756475E+03  0.10039764000E+04  0.12000000000E+03 0.  0.
<mgrwt>
<rscale>  0 0.27552677E+03</rscale>
<asrwt>0</asrwt>
<pdfrwt beam="1">  1        2 0.26199051E+00 0.27552677E+03</pdfrwt>
<pdfrwt beam="2">  1       -2 0.17145705E-02 0.27552677E+03</pdfrwt>
<totfact> 0.10323184E+04</totfact>
</mgrwt>
</event>
<event>
 5    1  0.1108889E+001  0.2749575E+03  0.7818608E-02  0.1098475E+00
         -2   -1    0    0    0  501 -0.00000000000E+00  0.00000000000E+00  0.29584047735E+02  0.29584047735E+02  0.00000000000E+00 0.  1.
          2   -1    0    0  501    0  0.00000000000E+00 -0.00000000000E+00 -0.63887172471E+03  0.63887172471E+03  0.00000000000E+00 0.  1.
         35    2    1    2    0    0  0.00000000000E+00  0.00000000000E+00 -0.60928767698E+03  0.66845577245E+03  0.27495753564E+03 0.  0.
         25    1    3    3    0    0  0.18291064348E+02  0.63730990102E+02 -0.27982618953E+03  0.31160696154E+03  0.12000000000E+03 0.  0.
         25    1    3    3    0    0 -0.18291064348E+02 -0.63730990102E+02 -0.32946148745E+03  0.35684881090E+03  0.12000000000E+03 0.  0.
<mgrwt>
<rscale>  0 0.27495754E+03</rscale>
<asrwt>0</asrwt>
<pdfrwt beam="1">  1        2 0.98287947E-01 0.27495754E+03</pdfrwt>
<pdfrwt beam="2">  1       -2 0.45513925E-02 0.27495754E+03</pdfrwt>
<totfact> 0.10537668E+04</totfact>
</mgrwt>
</event>
<event>
 5    1  0.1108889E+001  0.2730268E+03  0.7818608E-02  0.1099560E+00
         -2   -1    0    0    0  501 -0.00000000000E+00  0.00000000000E+00  0.88471710749E+02  0.88471710749E+02  0.00000000000E+00 0. -1.
          2   -1    0    0  501    0  0.00000000000E+00 -0.00000000000E+00 -0.21064253407E+03  0.21064253407E+03  0.00000000000E+00 0. -1.
         35    2    1    2    0    0  0.00000000000E+00  0.00000000000E+00 -0.12217082332E+03  0.29911424482E+03  0.27302677777E+03 0.  0.
         25    1    3    3    0    0 -0.34022786901E+02 -0.43760367497E+02 -0.23717942415E+02  0.13429467817E+03  0.12000000000E+03 0.  0.
         25    1    3    3    0    0  0.34022786901E+02  0.43760367497E+02 -0.98452880904E+02  0.16481956665E+03  0.12000000000E+03 0.  0.
<mgrwt>
<rscale>  0 0.27302678E+03</rscale>
<asrwt>0</asrwt>
<pdfrwt beam="1">  1        2 0.32406543E-01 0.27302678E+03</pdfrwt>
<pdfrwt beam="2">  1       -2 0.13611033E-01 0.27302678E+03</pdfrwt>
<totfact> 0.64230096E+03</totfact>
</mgrwt>
</event>
<event>
 5    1  0.1108889E+001  0.2751965E+03  0.7818608E-02  0.1098342E+00
          1   -1    0    0  501    0  0.00000000000E+00  0.00000000000E+00  0.86266355045E+03  0.86266355045E+03  0.00000000000E+00 0.  1.
         -1   -1    0    0    0  501 -0.00000000000E+00 -0.00000000000E+00 -0.21947469964E+02  0.21947469964E+02  0.00000000000E+00 0.  1.
         35    2    1    2    0    0  0.00000000000E+00  0.00000000000E+00  0.84071608048E+03  0.88461102041E+03  0.27519652877E+03 0.  0.
         25    1    3    3    0    0 -0.65683522765E+02 -0.74891900493E+01  0.46138118200E+03  0.48129305858E+03  0.12000000000E+03 0.  0.
         25    1    3    3    0    0  0.65683522765E+02  0.74891900493E+01  0.37933489848E+03  0.40331796183E+03  0.12000000000E+03 0.  0.
<mgrwt>
<rscale>  0 0.27519653E+03</rscale>
<asrwt>0</asrwt>
<pdfrwt beam="1">  1        1 0.13271744E+00 0.27519653E+03</pdfrwt>
<pdfrwt beam="2">  1       -1 0.33765345E-02 0.27519653E+03</pdfrwt>
<totfact> 0.64656618E+03</totfact>
</mgrwt>
</event>
<event>
 5    1  0.1108889E+001  0.2747625E+03  0.7818608E-02  0.1098584E+00
         -1   -1    0    0    0  501 -0.00000000000E+00  0.00000000000E+00  0.18959582944E+02  0.18959582944E+02  0.00000000000E+00 0. -1.
          1   -1    0    0  501    0  0.00000000000E+00 -0.00000000000E+00 -0.99546508624E+03  0.99546508624E+03  0.00000000000E+00 0. -1.
         35    2    1    2    0    0  0.00000000000E+00  0.00000000000E+00 -0.97650550329E+03  0.10144246692E+04  0.27476246374E+03 0.  0.
         25    1    3    3    0    0  0.50081928723E+02 -0.26364970750E+02 -0.35666540986E+03  0.38054372398E+03  0.12000000000E+03 0.  0.
         25    1    3    3    0    0 -0.50081928723E+02  0.26364970750E+02 -0.61984009343E+03  0.63388094520E+03  0.12000000000E+03 0.  0.
<mgrwt>
<rscale>  0 0.27476246E+03</rscale>
<asrwt>0</asrwt>
<pdfrwt beam="1">  1        1 0.15314844E+00 0.27476246E+03</pdfrwt>
<pdfrwt beam="2">  1       -1 0.29168596E-02 0.27476246E+03</pdfrwt>
<totfact> 0.63331381E+03</totfact>
</mgrwt>
</event>
<event>
 5    1  0.1108889E+001  0.2750802E+03  0.7818608E-02  0.1098407E+00
          2   -1    0    0  501    0  0.00000000000E+00  0.00000000000E+00  0.21744156455E+04  0.21744156455E+04  0.00000000000E+00 0. -1.
         -2   -1    0    0    0  501 -0.00000000000E+00 -0.00000000000E+00 -0.86999344685E+01  0.86999344685E+01  0.00000000000E+00 0. -1.
         35    2    1    2    0    0  0.00000000000E+00  0.00000000000E+00  0.21657157110E+04  0.21831155799E+04  0.27508016012E+03 0.  0.
         25    1    3    3    0    0 -0.59472898140E+01  0.60929950921E+02  0.13030014714E+04  0.13099468171E+04  0.12000000000E+03 0.  0.
         25    1    3    3    0    0  0.59472898140E+01 -0.60929950921E+02  0.86271423961E+03  0.87316876284E+03  0.12000000000E+03 0.  0.
<mgrwt>
<rscale>  0 0.27508016E+03</rscale>
<asrwt>0</asrwt>
<pdfrwt beam="1">  1        2 0.33452505E+00 0.27508016E+03</pdfrwt>
<pdfrwt beam="2">  1       -2 0.13384532E-02 0.27508016E+03</pdfrwt>
<totfact> 0.83746078E+03</totfact>
</mgrwt>
</event>
<event>
 5    1  0.1108889E+001  0.2748699E+03  0.7818608E-02  0.1098524E+00
         -1   -1    0    0    0  501 -0.00000000000E+00  0.00000000000E+00  0.15335139276E+02  0.15335139276E+02  0.00000000000E+00 0.  1.
          1   -1    0    0  501    0  0.00000000000E+00 -0.00000000000E+00 -0.12317050895E+04  0.12317050895E+04  0.00000000000E+00 0.  1.
         35    2    1    2    0    0  0.00000000000E+00  0.00000000000E+00 -0.12163699502E+04  0.12470402287E+04  0.27486992629E+03 0.  0.
         25    1    3    3    0    0 -0.67655044100E+01  0.58204052293E+02 -0.75553691795E+03  0.76724801605E+03  0.12000000000E+03 0.  0.
         25    1    3    3    0    0  0.67655044100E+01 -0.58204052293E+02 -0.46083303224E+03  0.47979221269E+03  0.12000000000E+03 0.  0.
<mgrwt>
<rscale>  0 0.27486993E+03</rscale>
<asrwt>0</asrwt>
<pdfrwt beam="1">  1        1 0.18949306E+00 0.27486993E+03</pdfrwt>
<pdfrwt beam="2">  1       -1 0.23592525E-02 0.27486993E+03</pdfrwt>
<totfact> 0.58513687E+03</totfact>
</mgrwt>
</event>
<event>
 5    1  0.1108889E+001  0.2694466E+03  0.7818608E-02  0.1101597E+00
         -2   -1    0    0    0  501 -0.00000000000E+00  0.00000000000E+00  0.51799785396E+04  0.51799785396E+04  0.00000000000E+00 0. -1.
          2   -1    0    0  501    0  0.00000000000E+00 -0.00000000000E+00 -0.35039461412E+01  0.35039461412E+01  0.00000000000E+00 0. -1.
         35    2    1    2    0    0  0.00000000000E+00  0.00000000000E+00  0.51764745934E+04  0.51834824857E+04  0.26944658703E+03 0.  0.
         25    1    3    3    0    0  0.35293992436E+02  0.39656969688E+02  0.20009337113E+04  0.20052316719E+04  0.12000000000E+03 0.  0.
         25    1    3    3    0    0 -0.35293992436E+02 -0.39656969688E+02  0.31755408821E+04  0.31782508138E+04  0.12000000000E+03 0.  0.
<mgrwt>
<rscale>  0 0.26944659E+03</rscale>
<asrwt>0</asrwt>
<pdfrwt beam="1">  1        2 0.53907278E-03 0.26944659E+03</pdfrwt>
<pdfrwt beam="2">  1       -2 0.79691365E+00 0.26944659E+03</pdfrwt>
<totfact> 0.40338164E+00</totfact>
</mgrwt>
</event>
<event>
 5    1  0.1108889E+001  0.2694340E+03  0.7818608E-02  0.1101604E+00
          2   -1    0    0  501    0  0.00000000000E+00  0.00000000000E+00  0.97542287438E+02  0.97542287438E+02  0.00000000000E+00 0.  1.
         -2   -1    0    0    0  501 -0.00000000000E+00 -0.00000000000E+00 -0.18605954176E+03  0.18605954176E+03  0.00000000000E+00 0.  1.
         35    2    1    2    0    0  0.00000000000E+00  0.00000000000E+00 -0.88517254318E+02  0.28360182919E+03  0.26943402385E+03 0.  0.
         25    1    3    3    0    0  0.55796429428E+02 -0.10495577908E+02 -0.20134600763E+02  0.13427137014E+03  0.12000000000E+03 0.  0.
         25    1    3    3    0    0 -0.55796429428E+02  0.10495577908E+02 -0.68382653554E+02  0.14933045905E+03  0.12000000000E+03 0.  0.
<mgrwt>
<rscale>  0 0.26943402E+03</rscale>
<asrwt>0</asrwt>
<pdfrwt beam="1">  1        2 0.15006506E-01 0.26943402E+03</pdfrwt>
<pdfrwt beam="2">  1       -2 0.28624545E-01 0.26943402E+03</pdfrwt>
<totfact> 0.43095161E+03</totfact>
</mgrwt>
</event>
<event>
 5    1  0.1108889E+001  0.2757699E+03  0.7818608E-02  0.1098022E+00
         -2   -1    0    0    0  501 -0.00000000000E+00  0.00000000000E+00  0.15090125148E+03  0.15090125148E+03  0.00000000000E+00 0. -1.
          2   -1    0    0  501    0  0.00000000000E+00 -0.00000000000E+00 -0.12599142229E+03  0.12599142229E+03  0.00000000000E+00 0. -1.
         35    2    1    2    0    0  0.00000000000E+00  0.00000000000E+00  0.24909829191E+02  0.27689267377E+03  0.27576992801E+03 0.  0.
         25    1    3    3    0    0 -0.28040486011E+02 -0.33037747391E+02  0.64960276631E+02  0.14316982625E+03  0.12000000000E+03 0.  0.
         25    1    3    3    0    0  0.28040486011E+02  0.33037747391E+02 -0.40050447440E+02  0.13372284752E+03  0.12000000000E+03 0.  0.
<mgrwt>
<rscale>  0 0.27576993E+03</rscale>
<asrwt>0</asrwt>
<pdfrwt beam="1">  1        2 0.19383296E-01 0.27576993E+03</pdfrwt>
<pdfrwt beam="2">  1       -2 0.23215577E-01 0.27576993E+03</pdfrwt>
<totfact> 0.46375779E+03</totfact>
</mgrwt>
</event>
<event>
 5    1  0.1108889E+001  0.2751484E+03  0.7818608E-02  0.1098369E+00
          2   -1    0    0  501    0  0.00000000000E+00  0.00000000000E+00  0.12923098614E+04  0.12923098614E+04  0.00000000000E+00 0. -1.
         -2   -1    0    0    0  501 -0.00000000000E+00 -0.00000000000E+00 -0.14645607196E+02  0.14645607196E+02  0.00000000000E+00 0. -1.
         35    2    1    2    0    0  0.00000000000E+00  0.00000000000E+00  0.12776642542E+04  0.13069554686E+04  0.27514841526E+03 0.  0.
         25    1    3    3    0    0  0.24791308894E+02  0.41172454169E+02  0.86248018148E+03  0.87211343495E+03  0.12000000000E+03 0.  0.
         25    1    3    3    0    0 -0.24791308894E+02 -0.41172454169E+02  0.41518407271E+03  0.43484203363E+03  0.12000000000E+03 0.  0.
<mgrwt>
<rscale>  0 0.27514842E+03</rscale>
<asrwt>0</asrwt>
<pdfrwt beam="1">  1        2 0.19881681E+00 0.27514842E+03</pdfrwt>
<pdfrwt beam="2">  1       -2 0.22531713E-02 0.27514842E+03</pdfrwt>
<totfact> 0.11478657E+04</totfact>
</mgrwt>
</event>
<event>
 5    1  0.1108889E+001  0.2734221E+03  0.7818608E-02  0.1099337E+00
         -2   -1    0    0    0  501 -0.00000000000E+00  0.00000000000E+00  0.72889556964E+02  0.72889556964E+02  0.00000000000E+00 0.  1.
          2   -1    0    0  501    0  0.00000000000E+00 -0.00000000000E+00 -0.25641407934E+03  0.25641407934E+03  0.00000000000E+00 0.  1.
         35    2    1    2    0    0  0.00000000000E+00  0.00000000000E+00 -0.18352452238E+03  0.32930363630E+03  0.27342208135E+03 0.  0.
         25    1    3    3    0    0 -0.75405302090E+01 -0.49869067547E+02 -0.14208921279E+03  0.19269957936E+03  0.12000000000E+03 0.  0.
         25    1    3    3    0    0  0.75405302090E+01  0.49869067547E+02 -0.41435309590E+02  0.13660405695E+03  0.12000000000E+03 0.  0.
<mgrwt>
<rscale>  0 0.27342208E+03</rscale>
<asrwt>0</asrwt>
<pdfrwt beam="1">  1        2 0.39448320E-01 0.27342208E+03</pdfrwt>
<pdfrwt beam="2">  1       -2 0.11213778E-01 0.27342208E+03</pdfrwt>
<totfact> 0.71020167E+03</totfact>
</mgrwt>
</event>
<event>
 5    1  0.1108889E+001  0.2748202E+03  0.7818608E-02  0.1098552E+00
         -2   -1    0    0    0  501 -0.00000000000E+00  0.00000000000E+00  0.30460945167E+02  0.30460945167E+02  0.00000000000E+00 0. -1.
          2   -1    0    0  501    0  0.00000000000E+00 -0.00000000000E+00 -0.61986044391E+03  0.61986044391E+03  0.00000000000E+00 0. -1.
         35    2    1    2    0    0  0.00000000000E+00  0.00000000000E+00 -0.58939949874E+03  0.65032138907E+03  0.27482019572E+03 0.  0.
         25    1    3    3    0    0  0.16725835676E+02  0.33434756051E+02 -0.42611005690E+03  0.44426052838E+03  0.12000000000E+03 0.  0.
         25    1    3    3    0    0 -0.16725835676E+02 -0.33434756051E+02 -0.16328944184E+03  0.20606086069E+03  0.12000000000E+03 0.  0.
<mgrwt>
<rscale>  0 0.27482020E+03</rscale>
<asrwt>0</asrwt>
<pdfrwt beam="1">  1        2 0.95363135E-01 0.27482020E+03</pdfrwt>
<pdfrwt beam="2">  1       -2 0.46862997E-02 0.27482020E+03</pdfrwt>
<totfact> 0.10446236E+04</totfact>
</mgrwt>
</event>
<event>
 5    1  0.1108889E+001  0.2752433E+03  0.7818608E-02  0.1098316E+00
          1   -1    0    0  501    0  0.00000000000E+00  0.00000000000E+00  0.10479828916E+03  0.10479828916E+03  0.00000000000E+00 0.  1.
         -1   -1    0    0    0  501 -0.00000000000E+00 -0.00000000000E+00 -0.18072543605E+03  0.18072543605E+03  0.00000000000E+00 0.  1.
         35    2    1    2    0    0  0.00000000000E+00  0.00000000000E+00 -0.75927146888E+02  0.28552372520E+03  0.27524328515E+03 0.  0.
         25    1    3    3    0    0  0.11894428202E+02 -0.64447655029E+02 -0.54192018906E+02  0.14707736935E+03  0.12000000000E+03 0.  0.
         25    1    3    3    0    0 -0.11894428202E+02  0.64447655029E+02 -0.21735127982E+02  0.13844635585E+03  0.12000000000E+03 0.  0.
<mgrwt>
<rscale>  0 0.27524329E+03</rscale>
<asrwt>0</asrwt>
<pdfrwt beam="1">  1        1 0.16122814E-01 0.27524329E+03</pdfrwt>
<pdfrwt beam="2">  1       -1 0.27803913E-01 0.27524329E+03</pdfrwt>
<totfact> 0.39188206E+03</totfact>
</mgrwt>
</event>
<event>
 5    1  0.1108889E+001  0.2815370E+03  0.7818608E-02  0.1094852E+00
          1   -1    0    0  501    0  0.00000000000E+00  0.00000000000E+00  0.90976390913E+02  0.90976390913E+02  0.00000000000E+00 0.  1.
         -1   -1    0    0    0  501 -0.00000000000E+00 -0.00000000000E+00 -0.21781230446E+03  0.21781230446E+03  0.00000000000E+00 0.  1.
         35    2    1    2    0    0  0.00000000000E+00  0.00000000000E+00 -0.12683591354E+03  0.30878869537E+03  0.28153704805E+03 0.  0.
         25    1    3    3    0    0  0.58510032827E+02 -0.44452117280E+02 -0.67854585706E+02  0.15621670677E+03  0.12000000000E+03 0.  0.
         25    1    3    3    0    0 -0.58510032827E+02  0.44452117280E+02 -0.58981327837E+02  0.15257198860E+03  0.12000000000E+03 0.  0.
<mgrwt>
<rscale>  0 0.28153705E+03</rscale>
<asrwt>0</asrwt>
<pdfrwt beam="1">  1        1 0.13996368E-01 0.28153705E+03</pdfrwt>
<pdfrwt beam="2">  1       -1 0.33509585E-01 0.28153705E+03</pdfrwt>
<totfact> 0.34337737E+03</totfact>
</mgrwt>
</event>
<event>
 5    1  0.1108889E+001  0.2749581E+03  0.7818608E-02  0.1098475E+00
          2   -1    0    0  501    0  0.00000000000E+00  0.00000000000E+00  0.15293903869E+04  0.15293903869E+04  0.00000000000E+00 0. -1.
         -2   -1    0    0    0  501 -0.00000000000E+00 -0.00000000000E+00 -0.12358188068E+02  0.12358188068E+02  0.00000000000E+00 0. -1.
         35    2    1    2    0    0  0.00000000000E+00  0.00000000000E+00  0.15170321988E+04  0.15417485750E+04  0.27495813522E+03 0.  0.
         25    1    3    3    0    0 -0.43303634637E+02  0.15918028350E+02  0.10315997407E+04  0.10395800178E+04  0.12000000000E+03 0.  0.
         25    1    3    3    0    0  0.43303634637E+02 -0.15918028350E+02  0.48543245815E+03  0.50216855718E+03  0.12000000000E+03 0.  0.
<mgrwt>
<rscale>  0 0.27495814E+03</rscale>
<asrwt>0</asrwt>
<pdfrwt beam="1">  1        2 0.23529068E+00 0.27495814E+03</pdfrwt>
<pdfrwt beam="2">  1       -2 0.19012609E-02 0.27495814E+03</pdfrwt>
<totfact> 0.10959980E+04</totfact>
</mgrwt>
</event>
<event>
 5    1  0.1108889E+001  0.2743242E+03  0.7818608E-02  0.1098830E+00
          1   -1    0    0  501    0  0.00000000000E+00  0.00000000000E+00  0.12591261220E+04  0.12591261220E+04  0.00000000000E+00 0. -1.
         -1   -1    0    0    0  501 -0.00000000000E+00 -0.00000000000E+00 -0.14941664530E+02  0.14941664530E+02  0.00000000000E+00 0. -1.
         35    2    1    2    0    0  0.00000000000E+00  0.00000000000E+00  0.12441844575E+04  0.12740677866E+04  0.27432418863E+03 0.  0.
         25    1    3    3    0    0 -0.54342141032E+02 -0.15979936069E+02  0.46087019982E+03  0.47959333579E+03  0.12000000000E+03 0.  0.
         25    1    3    3    0    0  0.54342141032E+02  0.15979936069E+02  0.78331425770E+03  0.79447445079E+03  0.12000000000E+03 0.  0.
<mgrwt>
<rscale>  0 0.27432419E+03</rscale>
<asrwt>0</asrwt>
<pdfrwt beam="1">  1        1 0.19371163E+00 0.27432419E+03</pdfrwt>
<pdfrwt beam="2">  1       -1 0.22987186E-02 0.27432419E+03</pdfrwt>
<totfact> 0.58187640E+03</totfact>
</mgrwt>
</event>
<event>
 5    1  0.1108889E+001  0.2751106E+03  0.7818608E-02  0.1098390E+00
          2   -1    0    0  501    0  0.00000000000E+00  0.00000000000E+00  0.22980976548E+03  0.22980976548E+03  0.00000000000E+00 0.  1.
         -2   -1    0    0    0  501 -0.00000000000E+00 -0.00000000000E+00 -0.82335311678E+02  0.82335311678E+02  0.00000000000E+00 0.  1.
         35    2    1    2    0    0  0.00000000000E+00  0.00000000000E+00  0.14747445380E+03  0.31214507715E+03  0.27511058625E+03 0.  0.
         25    1    3    3    0    0 -0.23794665826E+02  0.54886400344E+02  0.38899585161E+02  0.13961332598E+03  0.12000000000E+03 0.  0.
         25    1    3    3    0    0  0.23794665826E+02 -0.54886400344E+02  0.10857486864E+03  0.17253175118E+03  0.12000000000E+03 0.  0.
<mgrwt>
<rscale>  0 0.27511059E+03</rscale>
<asrwt>0</asrwt>
<pdfrwt beam="1">  1        2 0.35355348E-01 0.27511059E+03</pdfrwt>
<pdfrwt beam="2">  1       -2 0.12666971E-01 0.27511059E+03</pdfrwt>
<totfact> 0.65700888E+03</totfact>
</mgrwt>
</event>
<event>
 5    1  0.1108889E+001  0.2746831E+03  0.7818608E-02  0.1098629E+00
         -2   -1    0    0    0  501 -0.00000000000E+00  0.00000000000E+00  0.97098503759E+01  0.97098503759E+01  0.00000000000E+00 0.  1.
          2   -1    0    0  501    0  0.00000000000E+00 -0.00000000000E+00 -0.19426357314E+04  0.19426357314E+04  0.00000000000E+00 0.  1.
         35    2    1    2    0    0  0.00000000000E+00  0.00000000000E+00 -0.19329258811E+04  0.19523455818E+04  0.27468310678E+03 0.  0.
         25    1    3    3    0    0 -0.17646676354E+02 -0.45565009921E+02 -0.64268513087E+03  0.65561555256E+03  0.12000000000E+03 0.  0.
         25    1    3    3    0    0  0.17646676354E+02  0.45565009921E+02 -0.12902407502E+04  0.12967300292E+04  0.12000000000E+03 0.  0.
<mgrwt>
<rscale>  0 0.27468311E+03</rscale>
<asrwt>0</asrwt>
<pdfrwt beam="1">  1        2 0.29886675E+00 0.27468311E+03</pdfrwt>
<pdfrwt beam="2">  1       -2 0.14938246E-02 0.27468311E+03</pdfrwt>
<totfact> 0.94527352E+03</totfact>
</mgrwt>
</event>
<event>
 5    1  0.1108889E+001  0.2748893E+03  0.7818608E-02  0.1098514E+00
         -2   -1    0    0    0  501 -0.00000000000E+00  0.00000000000E+00  0.15313896035E+02  0.15313896035E+02  0.00000000000E+00 0. -1.
          2   -1    0    0  501    0  0.00000000000E+00 -0.00000000000E+00 -0.12335872649E+04  0.12335872649E+04  0.00000000000E+00 0. -1.
         35    2    1    2    0    0  0.00000000000E+00  0.00000000000E+00 -0.12182733689E+04  0.12489011610E+04  0.27488926589E+03 0.  0.
         25    1    3    3    0    0 -0.40914039417E+02 -0.16690107349E+02 -0.38022939320E+03  0.40115696399E+03  0.12000000000E+03 0.  0.
         25    1    3    3    0    0  0.40914039417E+02  0.16690107349E+02 -0.83804397570E+03  0.84774419698E+03  0.12000000000E+03 0.  0.
<mgrwt>
<rscale>  0 0.27488927E+03</rscale>
<asrwt>0</asrwt>
<pdfrwt beam="1">  1        2 0.18978267E+00 0.27488927E+03</pdfrwt>
<pdfrwt beam="2">  1       -2 0.23559838E-02 0.27488927E+03</pdfrwt>
<totfact> 0.11589831E+04</totfact>
</mgrwt>
</event>
<event>
 5    1  0.1108889E+001  0.2752461E+03  0.7818608E-02  0.1098314E+00
         -2   -1    0    0    0  501 -0.00000000000E+00  0.00000000000E+00  0.66643365976E+02  0.66643365976E+02  0.00000000000E+00 0.  1.
          2   -1    0    0  501    0  0.00000000000E+00 -0.00000000000E+00 -0.28420089533E+03  0.28420089533E+03  0.00000000000E+00 0.  1.
         35    2    1    2    0    0  0.00000000000E+00  0.00000000000E+00 -0.21755752936E+03  0.35084426131E+03  0.27524610281E+03 0.  0.
         25    1    3    3    0    0  0.56739126344E+02  0.33993529278E+02 -0.12516272815E+03  0.18558177984E+03  0.12000000000E+03 0.  0.
         25    1    3    3    0    0 -0.56739126344E+02 -0.33993529278E+02 -0.92394801205E+02  0.16526248147E+03  0.12000000000E+03 0.  0.
<mgrwt>
<rscale>  0 0.27524610E+03</rscale>
<asrwt>0</asrwt>
<pdfrwt beam="1">  1        2 0.43723215E-01 0.27524610E+03</pdfrwt>
<pdfrwt beam="2">  1       -2 0.10252825E-01 0.27524610E+03</pdfrwt>
<totfact> 0.73381892E+03</totfact>
</mgrwt>
</event>
<event>
 5    1  0.1108889E+001  0.2791049E+03  0.7818608E-02  0.1096179E+00
         -1   -1    0    0    0  501 -0.00000000000E+00  0.00000000000E+00  0.93300818398E+03  0.93300818398E+03  0.00000000000E+00 0.  1.
          1   -1    0    0  501    0  0.00000000000E+00 -0.00000000000E+00 -0.20873214541E+02  0.20873214541E+02  0.00000000000E+00 0.  1.
         35    2    1    2    0    0  0.00000000000E+00  0.00000000000E+00  0.91213496943E+03  0.95388139852E+03  0.27910485480E+03 0.  0.
         25    1    3    3    0    0  0.13695648157E+02  0.71535241219E+01  0.69373851867E+03  0.70421010783E+03  0.12000000000E+03 0.  0.
         25    1    3    3    0    0 -0.13695648157E+02 -0.71535241219E+01  0.21839645076E+03  0.24967129068E+03  0.12000000000E+03 0.  0.
<mgrwt>
<rscale>  0 0.27910485E+03</rscale>
<asrwt>0</asrwt>
<pdfrwt beam="1">  1        1 0.32112645E-02 0.27910485E+03</pdfrwt>
<pdfrwt beam="2">  1       -1 0.14353969E+00 0.27910485E+03</pdfrwt>
<totfact> 0.13129914E+03</totfact>
</mgrwt>
</event>
<event>
 5    1  0.1108889E+001  0.2744492E+03  0.7818608E-02  0.1098760E+00
         -1   -1    0    0    0  501 -0.00000000000E+00  0.00000000000E+00  0.17720038151E+03  0.17720038151E+03  0.00000000000E+00 0.  1.
          1   -1    0    0  501    0  0.00000000000E+00 -0.00000000000E+00 -0.10626722836E+03  0.10626722836E+03  0.00000000000E+00 0.  1.
         35    2    1    2    0    0  0.00000000000E+00  0.00000000000E+00  0.70933153148E+02  0.28346760987E+03  0.27444921868E+03 0.  0.
         25    1    3    3    0    0 -0.31200579251E+02 -0.21963197679E+02 -0.20866776246E+02  0.12763730077E+03  0.12000000000E+03 0.  0.
         25    1    3    3    0    0  0.31200579251E+02  0.21963197679E+02  0.91799929394E+02  0.15583030910E+03  0.12000000000E+03 0.  0.
<mgrwt>
<rscale>  0 0.27444922E+03</rscale>
<asrwt>0</asrwt>
<pdfrwt beam="1">  1        1 0.16348804E-01 0.27444922E+03</pdfrwt>
<pdfrwt beam="2">  1       -1 0.27261597E-01 0.27444922E+03</pdfrwt>
<totfact> 0.39776009E+03</totfact>
</mgrwt>
</event>
<event>
 5    1  0.1108889E+001  0.2735123E+03  0.7818608E-02  0.1099286E+00
          3   -1    0    0  501    0  0.00000000000E+00  0.00000000000E+00  0.58674806544E+02  0.58674806544E+02  0.00000000000E+00 0. -1.
         -3   -1    0    0    0  501 -0.00000000000E+00 -0.00000000000E+00 -0.31874394163E+03  0.31874394163E+03  0.00000000000E+00 0. -1.
         35    2    1    2    0    0  0.00000000000E+00  0.00000000000E+00 -0.26006913508E+03  0.37741874817E+03  0.27351226014E+03 0.  0.
         25    1    3    3    0    0  0.29736670034E+02 -0.90664304852E+01 -0.20973206456E+03  0.24362678139E+03  0.12000000000E+03 0.  0.
         25    1    3    3    0    0 -0.29736670034E+02  0.90664304852E+01 -0.50337070526E+02  0.13379196678E+03  0.12000000000E+03 0.  0.
<mgrwt>
<rscale>  0 0.27351226E+03</rscale>
<asrwt>0</asrwt>
<pdfrwt beam="1">  1        3 0.90268933E-02 0.27351226E+03</pdfrwt>
<pdfrwt beam="2">  1       -3 0.49037529E-01 0.27351226E+03</pdfrwt>
<totfact> 0.92299550E+02</totfact>
</mgrwt>
</event>
<event>
 5    1  0.1108889E+001  0.2756473E+03  0.7818608E-02  0.1098090E+00
         -2   -1    0    0    0  501 -0.00000000000E+00  0.00000000000E+00  0.11929217517E+02  0.11929217517E+02  0.00000000000E+00 0. -1.
          2   -1    0    0  501    0  0.00000000000E+00 -0.00000000000E+00 -0.15923386306E+04  0.15923386306E+04  0.00000000000E+00 0. -1.
         35    2    1    2    0    0  0.00000000000E+00  0.00000000000E+00 -0.15804094130E+04  0.16042678481E+04  0.27564726652E+03 0.  0.
         25    1    3    3    0    0  0.11228252376E+02  0.55870882272E+02 -0.10038649855E+04  0.10126166789E+04  0.12000000000E+03 0.  0.
         25    1    3    3    0    0 -0.11228252376E+02 -0.55870882272E+02 -0.57654442752E+03  0.59165116922E+03  0.12000000000E+03 0.  0.
<mgrwt>
<rscale>  0 0.27564727E+03</rscale>
<asrwt>0</asrwt>
<pdfrwt beam="1">  1        2 0.24497523E+00 0.27564727E+03</pdfrwt>
<pdfrwt beam="2">  1       -2 0.18352638E-02 0.27564727E+03</pdfrwt>
<totfact> 0.10687854E+04</totfact>
</mgrwt>
</event>
<event>
 5    1  0.1108889E+001  0.2751778E+03  0.7818608E-02  0.1098352E+00
          2   -1    0    0  501    0  0.00000000000E+00  0.00000000000E+00  0.20087206013E+03  0.20087206013E+03  0.00000000000E+00 0.  1.
         -2   -1    0    0    0  501 -0.00000000000E+00 -0.00000000000E+00 -0.94242626497E+02  0.94242626497E+02  0.00000000000E+00 0.  1.
         35    2    1    2    0    0  0.00000000000E+00  0.00000000000E+00  0.10662943363E+03  0.29511468663E+03  0.27517783731E+03 0.  0.
         25    1    3    3    0    0 -0.64514257264E+02 -0.19141802985E+02  0.51719493650E+02  0.14698096487E+03  0.12000000000E+03 0.  0.
         25    1    3    3    0    0  0.64514257264E+02  0.19141802985E+02  0.54909939984E+02  0.14813372175E+03  0.12000000000E+03 0.  0.
<mgrwt>
<rscale>  0 0.27517784E+03</rscale>
<asrwt>0</asrwt>
<pdfrwt beam="1">  1        2 0.30903394E-01 0.27517784E+03</pdfrwt>
<pdfrwt beam="2">  1       -2 0.14498866E-01 0.27517784E+03</pdfrwt>
<totfact> 0.61007747E+03</totfact>
</mgrwt>
</event>
<event>
 5    1  0.1108889E+001  0.2752710E+03  0.7818608E-02  0.1098300E+00
         -1   -1    0    0    0  501 -0.00000000000E+00  0.00000000000E+00  0.51484689309E+03  0.51484689309E+03  0.00000000000E+00 0. -1.
          1   -1    0    0  501    0  0.00000000000E+00 -0.00000000000E+00 -0.36794487175E+02  0.36794487175E+02  0.00000000000E+00 0. -1.
         35    2    1    2    0    0  0.00000000000E+00  0.00000000000E+00  0.47805240592E+03  0.55164138027E+03  0.27527097490E+03 0.  0.
         25    1    3    3    0    0 -0.62282776670E+02  0.24831041458E+02  0.25288168982E+03  0.28782785469E+03  0.12000000000E+03 0.  0.
         25    1    3    3    0    0  0.62282776670E+02 -0.24831041458E+02  0.22517071610E+03  0.26381352558E+03  0.12000000000E+03 0.  0.
<mgrwt>
<rscale>  0 0.27527097E+03</rscale>
<asrwt>0</asrwt>
<pdfrwt beam="1">  1        1 0.56606907E-02 0.27527097E+03</pdfrwt>
<pdfrwt beam="2">  1       -1 0.79207209E-01 0.27527097E+03</pdfrwt>
<totfact> 0.23285204E+03</totfact>
</mgrwt>
</event>
<event>
 5    1  0.1108889E+001  0.2753205E+03  0.7818608E-02  0.1098273E+00
          2   -1    0    0  501    0  0.00000000000E+00  0.00000000000E+00  0.14565460615E+03  0.14565460615E+03  0.00000000000E+00 0.  1.
         -2   -1    0    0    0  501 -0.00000000000E+00 -0.00000000000E+00 -0.13010469099E+03  0.13010469099E+03  0.00000000000E+00 0.  1.
         35    2    1    2    0    0  0.00000000000E+00  0.00000000000E+00  0.15549915157E+02  0.27575929714E+03  0.27532052248E+03 0.  0.
         25    1    3    3    0    0  0.70585235054E+01  0.50518409115E+02 -0.36436244464E+02  0.13538660319E+03  0.12000000000E+03 0.  0.
         25    1    3    3    0    0 -0.70585235054E+01 -0.50518409115E+02  0.51986159620E+02  0.14037269395E+03  0.12000000000E+03 0.  0.
<mgrwt>
<rscale>  0 0.27532052E+03</rscale>
<asrwt>0</asrwt>
<pdfrwt beam="1">  1        2 0.22408401E-01 0.27532052E+03</pdfrwt>
<pdfrwt beam="2">  1       -2 0.20016106E-01 0.27532052E+03</pdfrwt>
<totfact> 0.50788126E+03</totfact>
</mgrwt>
</event>
<event>
 5    1  0.1108889E+001  0.2736434E+03  0.7818608E-02  0.1099212E+00
         -2   -1    0    0    0  501 -0.00000000000E+00  0.00000000000E+00  0.17549448933E+02  0.17549448933E+02  0.00000000000E+00 0.  1.
          2   -1    0    0  501    0  0.00000000000E+00 -0.00000000000E+00 -0.10667103604E+04  0.10667103604E+04  0.00000000000E+00 0.  1.
         35    2    1    2    0    0  0.00000000000E+00  0.00000000000E+00 -0.10491609115E+04  0.10842598093E+04  0.27364341027E+03 0.  0.
         25    1    3    3    0    0 -0.34955641407E+02  0.37317314449E+02 -0.36093659669E+03  0.38378340982E+03  0.12000000000E+03 0.  0.
         25    1    3    3    0    0  0.34955641407E+02 -0.37317314449E+02 -0.68822431478E+03  0.70047639952E+03  0.12000000000E+03 0.  0.
<mgrwt>
<rscale>  0 0.27364341E+03</rscale>
<asrwt>0</asrwt>
<pdfrwt beam="1">  1        2 0.16410931E+00 0.27364341E+03</pdfrwt>
<pdfrwt beam="2">  1       -2 0.26999149E-02 0.27364341E+03</pdfrwt>
<totfact> 0.11825735E+04</totfact>
</mgrwt>
</event>
<event>
 5    1  0.1108889E+001  0.2753939E+03  0.7818608E-02  0.1098232E+00
         -1   -1    0    0    0  501 -0.00000000000E+00  0.00000000000E+00  0.10765615595E+03  0.10765615595E+03  0.00000000000E+00 0.  1.
          1   -1    0    0  501    0  0.00000000000E+00 -0.00000000000E+00 -0.17612050757E+03  0.17612050757E+03  0.00000000000E+00 0.  1.
         35    2    1    2    0    0  0.00000000000E+00  0.00000000000E+00 -0.68464351627E+02  0.28377666352E+03  0.27539394931E+03 0.  0.
         25    1    3    3    0    0  0.42476633675E+02  0.29532071526E+01  0.19779647923E+02  0.12885736422E+03  0.12000000000E+03 0.  0.
         25    1    3    3    0    0 -0.42476633675E+02 -0.29532071526E+01 -0.88243999549E+02  0.15491929931E+03  0.12000000000E+03 0.  0.
<mgrwt>
<rscale>  0 0.27539395E+03</rscale>
<asrwt>0</asrwt>
<pdfrwt beam="1">  1        1 0.27095463E-01 0.27539395E+03</pdfrwt>
<pdfrwt beam="2">  1       -1 0.16562486E-01 0.27539395E+03</pdfrwt>
<totfact> 0.46972775E+03</totfact>
</mgrwt>
</event>
<event>
 5    1  0.1108889E+001  0.2753851E+03  0.7818608E-02  0.1098237E+00
         -2   -1    0    0    0  501 -0.00000000000E+00  0.00000000000E+00  0.19027694654E+02  0.19027694654E+02  0.00000000000E+00 0. -1.
          2   -1    0    0  501    0  0.00000000000E+00 -0.00000000000E+00 -0.99640240922E+03  0.99640240922E+03  0.00000000000E+00 0. -1.
         35    2    1    2    0    0  0.00000000000E+00  0.00000000000E+00 -0.97737471457E+03  0.10154301039E+04  0.27538511793E+03 0.  0.
         25    1    3    3    0    0  0.15457476404E+02  0.23090708428E+02 -0.26177169760E+03  0.28930353619E+03  0.12000000000E+03 0.  0.
         25    1    3    3    0    0 -0.15457476404E+02 -0.23090708428E+02 -0.71560301697E+03  0.72612656768E+03  0.12000000000E+03 0.  0.
<mgrwt>
<rscale>  0 0.27538512E+03</rscale>
<asrwt>0</asrwt>
<pdfrwt beam="1">  1        2 0.15329266E+00 0.27538512E+03</pdfrwt>
<pdfrwt beam="2">  1       -2 0.29273381E-02 0.27538512E+03</pdfrwt>
<totfact> 0.11566991E+04</totfact>
</mgrwt>
</event>
<event>
 5    1  0.1108889E+001  0.2752052E+03  0.7818608E-02  0.1098337E+00
         -1   -1    0    0    0  501 -0.00000000000E+00  0.00000000000E+00  0.41949887617E+03  0.41949887617E+03  0.00000000000E+00 0. -1.
          1   -1    0    0  501    0  0.00000000000E+00 -0.00000000000E+00 -0.45135951052E+02  0.45135951052E+02  0.00000000000E+00 0. -1.
         35    2    1    2    0    0  0.00000000000E+00  0.00000000000E+00  0.37436292511E+03  0.46463482722E+03  0.27520523789E+03 0.  0.
         25    1    3    3    0    0  0.18509663355E+02 -0.12694313233E+02  0.29436961476E+03  0.31868044076E+03  0.12000000000E+03 0.  0.
         25    1    3    3    0    0 -0.18509663355E+02  0.12694313233E+02  0.79993310352E+02  0.14595438646E+03  0.12000000000E+03 0.  0.
<mgrwt>
<rscale>  0 0.27520524E+03</rscale>
<asrwt>0</asrwt>
<pdfrwt beam="1">  1        1 0.69439928E-02 0.27520524E+03</pdfrwt>
<pdfrwt beam="2">  1       -1 0.64538286E-01 0.27520524E+03</pdfrwt>
<totfact> 0.26544416E+03</totfact>
</mgrwt>
</event>
<event>
 5    1  0.1108889E+001  0.2754846E+03  0.7818608E-02  0.1098181E+00
         -2   -1    0    0    0  501 -0.00000000000E+00  0.00000000000E+00  0.33320150246E+03  0.33320150246E+03  0.00000000000E+00 0. -1.
          2   -1    0    0  501    0  0.00000000000E+00 -0.00000000000E+00 -0.56941335328E+02  0.56941335328E+02  0.00000000000E+00 0. -1.
         35    2    1    2    0    0  0.00000000000E+00  0.00000000000E+00  0.27626016713E+03  0.39014283779E+03  0.27548458021E+03 0.  0.
         25    1    3    3    0    0  0.87208112544E+01  0.53495079252E+02  0.80862772239E+02  0.15452043226E+03  0.12000000000E+03 0.  0.
         25    1    3    3    0    0 -0.87208112544E+01 -0.53495079252E+02  0.19539739489E+03  0.23562240552E+03  0.12000000000E+03 0.  0.
<mgrwt>
<rscale>  0 0.27548458E+03</rscale>
<asrwt>0</asrwt>
<pdfrwt beam="1">  1        2 0.87602056E-02 0.27548458E+03</pdfrwt>
<pdfrwt beam="2">  1       -2 0.51261768E-01 0.27548458E+03</pdfrwt>
<totfact> 0.27571344E+03</totfact>
</mgrwt>
</event>
<event>
 5    1  0.1108889E+001  0.2742981E+03  0.7818608E-02  0.1098845E+00
          3   -1    0    0  501    0  0.00000000000E+00  0.00000000000E+00  0.38071320674E+02  0.38071320674E+02  0.00000000000E+00 0.  1.
         -3   -1    0    0    0  501 -0.00000000000E+00 -0.00000000000E+00 -0.49406900544E+03  0.49406900544E+03  0.00000000000E+00 0.  1.
         35    2    1    2    0    0  0.00000000000E+00  0.00000000000E+00 -0.45599768477E+03  0.53214032612E+03  0.27429808269E+03 0.  0.
         25    1    3    3    0    0  0.26072083849E+02 -0.59993269379E+02 -0.20580176450E+03  0.24704921007E+03  0.12000000000E+03 0.  0.
         25    1    3    3    0    0 -0.26072083849E+02  0.59993269379E+02 -0.25019592027E+03  0.28509111604E+03  0.12000000000E+03 0.  0.
<mgrwt>
<rscale>  0 0.27429808E+03</rscale>
<asrwt>0</asrwt>
<pdfrwt beam="1">  1        3 0.58571265E-02 0.27429808E+03</pdfrwt>
<pdfrwt beam="2">  1       -3 0.76010613E-01 0.27429808E+03</pdfrwt>
<totfact> 0.74894962E+02</totfact>
</mgrwt>
</event>
<event>
 5    1  0.1108889E+001  0.2736518E+03  0.7818608E-02  0.1099208E+00
         -1   -1    0    0    0  501 -0.00000000000E+00  0.00000000000E+00  0.25539923492E+03  0.25539923492E+03  0.00000000000E+00 0.  1.
          1   -1    0    0  501    0  0.00000000000E+00 -0.00000000000E+00 -0.73302224615E+02  0.73302224615E+02  0.00000000000E+00 0.  1.
         35    2    1    2    0    0  0.00000000000E+00  0.00000000000E+00  0.18209701030E+03  0.32870145954E+03  0.27365183781E+03 0.  0.
         25    1    3    3    0    0  0.59594717617E+02 -0.24605188032E+02  0.10644905606E+03  0.17288246638E+03  0.12000000000E+03 0.  0.
         25    1    3    3    0    0 -0.59594717617E+02  0.24605188032E+02  0.75647954240E+02  0.15581899315E+03  0.12000000000E+03 0.  0.
<mgrwt>
<rscale>  0 0.27365184E+03</rscale>
<asrwt>0</asrwt>
<pdfrwt beam="1">  1        1 0.11277265E-01 0.27365184E+03</pdfrwt>
<pdfrwt beam="2">  1       -1 0.39292190E-01 0.27365184E+03</pdfrwt>
<totfact> 0.34598498E+03</totfact>
</mgrwt>
</event>
<event>
 5    1  0.1108889E+001  0.2754722E+03  0.7818608E-02  0.1098188E+00
         -2   -1    0    0    0  501 -0.00000000000E+00  0.00000000000E+00  0.78651244222E+02  0.78651244222E+02  0.00000000000E+00 0. -1.
          2   -1    0    0  501    0  0.00000000000E+00 -0.00000000000E+00 -0.24120700841E+03  0.24120700841E+03  0.00000000000E+00 0. -1.
         35    2    1    2    0    0  0.00000000000E+00  0.00000000000E+00 -0.16255576419E+03  0.31985825264E+03  0.27547218609E+03 0.  0.
         25    1    3    3    0    0  0.14885666281E+02  0.38315870221E+02 -0.14360719059E+03  0.19160562142E+03  0.12000000000E+03 0.  0.
         25    1    3    3    0    0 -0.14885666281E+02 -0.38315870221E+02 -0.18948573599E+02  0.12825263121E+03  0.12000000000E+03 0.  0.
<mgrwt>
<rscale>  0 0.27547219E+03</rscale>
<asrwt>0</asrwt>
<pdfrwt beam="1">  1        2 0.37108770E-01 0.27547219E+03</pdfrwt>
<pdfrwt beam="2">  1       -2 0.12100191E-01 0.27547219E+03</pdfrwt>
<totfact> 0.67143502E+03</totfact>
</mgrwt>
</event>
<event>
 5    1  0.1108889E+001  0.2757013E+03  0.7818608E-02  0.1098060E+00
         -1   -1    0    0    0  501 -0.00000000000E+00  0.00000000000E+00  0.95303503583E+03  0.95303503583E+03  0.00000000000E+00 0.  1.
          1   -1    0    0  501    0  0.00000000000E+00 -0.00000000000E+00 -0.19939251977E+02  0.19939251977E+02  0.00000000000E+00 0.  1.
         35    2    1    2    0    0  0.00000000000E+00  0.00000000000E+00  0.93309578386E+03  0.97297428781E+03  0.27570132914E+03 0.  0.
         25    1    3    3    0    0  0.58494608575E+02 -0.19996551924E+02  0.36790218314E+03  0.39188454636E+03  0.12000000000E+03 0.  0.
         25    1    3    3    0    0 -0.58494608575E+02  0.19996551924E+02  0.56519360072E+03  0.58108974145E+03  0.12000000000E+03 0.  0.
<mgrwt>
<rscale>  0 0.27570133E+03</rscale>
<asrwt>0</asrwt>
<pdfrwt beam="1">  1        1 0.30675780E-02 0.27570133E+03</pdfrwt>
<pdfrwt beam="2">  1       -1 0.14662074E+00 0.27570133E+03</pdfrwt>
<totfact> 0.13251288E+03</totfact>
</mgrwt>
</event>
<event>
 5    1  0.1108889E+001  0.2748932E+03  0.7818608E-02  0.1098511E+00
          2   -1    0    0  501    0  0.00000000000E+00  0.00000000000E+00  0.87908778779E+03  0.87908778779E+03  0.00000000000E+00 0.  1.
         -2   -1    0    0    0  501 -0.00000000000E+00 -0.00000000000E+00 -0.21489970504E+02  0.21489970504E+02  0.00000000000E+00 0.  1.
         35    2    1    2    0    0  0.00000000000E+00  0.00000000000E+00  0.85759781728E+03  0.90057775829E+03  0.27489322022E+03 0.  0.
         25    1    3    3    0    0 -0.32294609710E+02 -0.39631886129E+02  0.57076947789E+03  0.58548392386E+03  0.12000000000E+03 0.  0.
         25    1    3    3    0    0  0.32294609710E+02  0.39631886129E+02  0.28682833940E+03  0.31509383443E+03  0.12000000000E+03 0.  0.
<mgrwt>
<rscale>  0 0.27489322E+03</rscale>
<asrwt>0</asrwt>
<pdfrwt beam="1">  1        2 0.13524425E+00 0.27489322E+03</pdfrwt>
<pdfrwt beam="2">  1       -2 0.33061500E-02 0.27489322E+03</pdfrwt>
<totfact> 0.11446654E+04</totfact>
</mgrwt>
</event>
<event>
 5    1  0.1108889E+001  0.2746755E+03  0.7818608E-02  0.1098633E+00
          2   -1    0    0  501    0  0.00000000000E+00  0.00000000000E+00  0.48136262933E+03  0.48136262933E+03  0.00000000000E+00 0. -1.
         -2   -1    0    0    0  501 -0.00000000000E+00 -0.00000000000E+00 -0.39183870864E+02  0.39183870864E+02  0.00000000000E+00 0. -1.
         35    2    1    2    0    0  0.00000000000E+00  0.00000000000E+00  0.44217875846E+03  0.52054650019E+03  0.27467545290E+03 0.  0.
         25    1    3    3    0    0 -0.39550977509E+02 -0.37087884959E+02  0.14715830045E+03  0.19747241940E+03  0.12000000000E+03 0.  0.
         25    1    3    3    0    0  0.39550977509E+02  0.37087884959E+02  0.29502045801E+03  0.32307408079E+03  0.12000000000E+03 0.  0.
<mgrwt>
<rscale>  0 0.27467545E+03</rscale>
<asrwt>0</asrwt>
<pdfrwt beam="1">  1        2 0.74055785E-01 0.27467545E+03</pdfrwt>
<pdfrwt beam="2">  1       -2 0.60282882E-02 0.27467545E+03</pdfrwt>
<totfact> 0.94904057E+03</totfact>
</mgrwt>
</event>
<event>
 5    1  0.1108889E+001  0.2751752E+03  0.7818608E-02  0.1098354E+00
          2   -1    0    0  501    0  0.00000000000E+00  0.00000000000E+00  0.97905183108E+03  0.97905183108E+03  0.00000000000E+00 0. -1.
         -2   -1    0    0    0  501 -0.00000000000E+00 -0.00000000000E+00 -0.19335385842E+02  0.19335385842E+02  0.00000000000E+00 0. -1.
         35    2    1    2    0    0  0.00000000000E+00  0.00000000000E+00  0.95971644524E+03  0.99838721692E+03  0.27517517994E+03 0.  0.
         25    1    3    3    0    0 -0.86613095534E+00 -0.65465371803E+02  0.53651836878E+03  0.55365912358E+03  0.12000000000E+03 0.  0.
         25    1    3    3    0    0  0.86613095534E+00  0.65465371803E+02  0.42319807646E+03  0.44472809334E+03  0.12000000000E+03 0.  0.
<mgrwt>
<rscale>  0 0.27517518E+03</rscale>
<asrwt>0</asrwt>
<pdfrwt beam="1">  1        2 0.15062332E+00 0.27517518E+03</pdfrwt>
<pdfrwt beam="2">  1       -2 0.29746755E-02 0.27517518E+03</pdfrwt>
<totfact> 0.11575451E+04</totfact>
</mgrwt>
</event>
<event>
 5    1  0.1108889E+001  0.2752185E+03  0.7818608E-02  0.1098330E+00
          1   -1    0    0  501    0  0.00000000000E+00  0.00000000000E+00  0.58631005560E+03  0.58631005560E+03  0.00000000000E+00 0.  1.
         -1   -1    0    0    0  501 -0.00000000000E+00 -0.00000000000E+00 -0.32297418253E+02  0.32297418253E+02  0.00000000000E+00 0.  1.
         35    2    1    2    0    0  0.00000000000E+00  0.00000000000E+00  0.55401263734E+03  0.61860747385E+03  0.27521846661E+03 0.  0.
         25    1    3    3    0    0 -0.41182402561E+02  0.33277506401E+02  0.18343846968E+03  0.22550621914E+03  0.12000000000E+03 0.  0.
         25    1    3    3    0    0  0.41182402561E+02 -0.33277506401E+02  0.37057416766E+03  0.39310125471E+03  0.12000000000E+03 0.  0.
<mgrwt>
<rscale>  0 0.27521847E+03</rscale>
<asrwt>0</asrwt>
<pdfrwt beam="1">  1        1 0.90201539E-01 0.27521847E+03</pdfrwt>
<pdfrwt beam="2">  1       -1 0.49688340E-02 0.27521847E+03</pdfrwt>
<totfact> 0.64289800E+03</totfact>
</mgrwt>
</event>
<event>
 5    1  0.1108889E+001  0.2760716E+03  0.7818608E-02  0.1097854E+00
         -2   -1    0    0    0  501 -0.00000000000E+00  0.00000000000E+00  0.12699251953E+03  0.12699251953E+03  0.00000000000E+00 0.  1.
          2   -1    0    0  501    0  0.00000000000E+00 -0.00000000000E+00 -0.15003941082E+03  0.15003941082E+03  0.00000000000E+00 0.  1.
         35    2    1    2    0    0  0.00000000000E+00  0.00000000000E+00 -0.23046891284E+02  0.27703193035E+03  0.27607160526E+03 0.  0.
         25    1    3    3    0    0 -0.49168283421E+02 -0.36221938174E+02 -0.42032063299E+02  0.14105404370E+03  0.12000000000E+03 0.  0.
         25    1    3    3    0    0  0.49168283421E+02  0.36221938174E+02  0.18985172015E+02  0.13597788664E+03  0.12000000000E+03 0.  0.
<mgrwt>
<rscale>  0 0.27607161E+03</rscale>
<asrwt>0</asrwt>
<pdfrwt beam="1">  1        2 0.23082986E-01 0.27607161E+03</pdfrwt>
<pdfrwt beam="2">  1       -2 0.19537311E-01 0.27607161E+03</pdfrwt>
<totfact> 0.51194728E+03</totfact>
</mgrwt>
</event>
<event>
 5    1  0.1108889E+001  0.2706135E+03  0.7818608E-02  0.1100929E+00
         -2   -1    0    0    0  501 -0.00000000000E+00  0.00000000000E+00  0.24991970235E+02  0.24991970235E+02  0.00000000000E+00 0. -1.
          2   -1    0    0  501    0  0.00000000000E+00 -0.00000000000E+00 -0.73255181537E+03  0.73255181537E+03  0.00000000000E+00 0. -1.
         35    2    1    2    0    0  0.00000000000E+00  0.00000000000E+00 -0.70755984514E+03  0.75754378561E+03  0.27061347465E+03 0.  0.
         25    1    3    3    0    0  0.30701646138E+02 -0.46636650986E+02 -0.27508138846E+03  0.30526601279E+03  0.12000000000E+03 0.  0.
         25    1    3    3    0    0 -0.30701646138E+02  0.46636650986E+02 -0.43247845668E+03  0.45227777282E+03  0.12000000000E+03 0.  0.
<mgrwt>
<rscale>  0 0.27061347E+03</rscale>
<asrwt>0</asrwt>
<pdfrwt beam="1">  1        2 0.11270027E+00 0.27061347E+03</pdfrwt>
<pdfrwt beam="2">  1       -2 0.38449188E-02 0.27061347E+03</pdfrwt>
<totfact> 0.11515230E+04</totfact>
</mgrwt>
</event>
<event>
 5    1  0.1108889E+001  0.2748078E+03  0.7818608E-02  0.1098559E+00
          1   -1    0    0  501    0  0.00000000000E+00  0.00000000000E+00  0.23133290406E+04  0.23133290406E+04  0.00000000000E+00 0.  1.
         -1   -1    0    0    0  501 -0.00000000000E+00 -0.00000000000E+00 -0.81613249678E+01  0.81613249678E+01  0.00000000000E+00 0.  1.
         35    2    1    2    0    0  0.00000000000E+00  0.00000000000E+00  0.23051677157E+04  0.23214903656E+04  0.27480778779E+03 0.  0.
         25    1    3    3    0    0 -0.24352338386E+02  0.58133357558E+02  0.96231267174E+03  0.97181181400E+03  0.12000000000E+03 0.  0.
         25    1    3    3    0    0  0.24352338386E+02 -0.58133357558E+02  0.13428550439E+04  0.13496785516E+04  0.12000000000E+03 0.  0.
<mgrwt>
<rscale>  0 0.27480779E+03</rscale>
<asrwt>0</asrwt>
<pdfrwt beam="1">  1        1 0.35589625E+00 0.27480779E+03</pdfrwt>
<pdfrwt beam="2">  1       -1 0.12555903E-02 0.27480779E+03</pdfrwt>
<totfact> 0.28485009E+03</totfact>
</mgrwt>
</event>
<event>
 5    1  0.1108889E+001  0.2757813E+03  0.7818608E-02  0.1098016E+00
         -2   -1    0    0    0  501 -0.00000000000E+00  0.00000000000E+00  0.77450158610E+01  0.77450158610E+01  0.00000000000E+00 0. -1.
          2   -1    0    0  501    0  0.00000000000E+00 -0.00000000000E+00 -0.24549756160E+04  0.24549756160E+04  0.00000000000E+00 0. -1.
         35    2    1    2    0    0  0.00000000000E+00  0.00000000000E+00 -0.24472306001E+04  0.24627206319E+04  0.27578125451E+03 0.  0.
         25    1    3    3    0    0 -0.25693107240E+02 -0.42953150718E+02 -0.81354391051E+03  0.82386819531E+03  0.12000000000E+03 0.  0.
         25    1    3    3    0    0  0.25693107240E+02  0.42953150718E+02 -0.16336866896E+04  0.16388524365E+04  0.12000000000E+03 0.  0.
<mgrwt>
<rscale>  0 0.27578125E+03</rscale>
<asrwt>0</asrwt>
<pdfrwt beam="1">  1        2 0.37768861E+00 0.27578125E+03</pdfrwt>
<pdfrwt beam="2">  1       -2 0.11915407E-02 0.27578125E+03</pdfrwt>
<totfact> 0.70114443E+03</totfact>
</mgrwt>
</event>
<event>
 5    1  0.1108889E+001  0.2753409E+03  0.7818608E-02  0.1098261E+00
         -2   -1    0    0    0  501 -0.00000000000E+00  0.00000000000E+00  0.10515318118E+02  0.10515318118E+02  0.00000000000E+00 0. -1.
          2   -1    0    0  501    0  0.00000000000E+00 -0.00000000000E+00 -0.18024332047E+04  0.18024332047E+04  0.00000000000E+00 0. -1.
         35    2    1    2    0    0  0.00000000000E+00  0.00000000000E+00 -0.17919178865E+04  0.18129485228E+04  0.27534094163E+03 0.  0.
         25    1    3    3    0    0  0.31893453275E+02 -0.52630857054E+02 -0.10781879289E+04  0.10865893473E+04  0.12000000000E+03 0.  0.
         25    1    3    3    0    0 -0.31893453275E+02  0.52630857054E+02 -0.71372995760E+03  0.72635917552E+03  0.12000000000E+03 0.  0.
<mgrwt>
<rscale>  0 0.27534094E+03</rscale>
<asrwt>0</asrwt>
<pdfrwt beam="1">  1        2 0.27729749E+00 0.27534094E+03</pdfrwt>
<pdfrwt beam="2">  1       -2 0.16177408E-02 0.27534094E+03</pdfrwt>
<totfact> 0.99656977E+03</totfact>
</mgrwt>
</event>
<event>
 5    1  0.1108889E+001  0.2752232E+03  0.7818608E-02  0.1098327E+00
         -2   -1    0    0    0  501 -0.00000000000E+00  0.00000000000E+00  0.15044515485E+03  0.15044515485E+03  0.00000000000E+00 0. -1.
          2   -1    0    0  501    0  0.00000000000E+00 -0.00000000000E+00 -0.12587284190E+03  0.12587284190E+03  0.00000000000E+00 0. -1.
         35    2    1    2    0    0  0.00000000000E+00  0.00000000000E+00  0.24572312954E+02  0.27631799675E+03  0.27522324895E+03 0.  0.
         25    1    3    3    0    0  0.14580656419E+02 -0.63547760113E+02  0.29266319965E+02  0.13966900458E+03  0.12000000000E+03 0.  0.
         25    1    3    3    0    0 -0.14580656419E+02  0.63547760113E+02 -0.46940070112E+01  0.13664899216E+03  0.12000000000E+03 0.  0.
<mgrwt>
<rscale>  0 0.27522325E+03</rscale>
<asrwt>0</asrwt>
<pdfrwt beam="1">  1        2 0.19365053E-01 0.27522325E+03</pdfrwt>
<pdfrwt beam="2">  1       -2 0.23145408E-01 0.27522325E+03</pdfrwt>
<totfact> 0.46668772E+03</totfact>
</mgrwt>
</event>
<event>
 5    1  0.1108889E+001  0.2753622E+03  0.7818608E-02  0.1098249E+00
          3   -1    0    0  501    0  0.00000000000E+00  0.00000000000E+00  0.18865635916E+04  0.18865635916E+04  0.00000000000E+00 0. -1.
         -3   -1    0    0    0  501 -0.00000000000E+00 -0.00000000000E+00 -0.10047940434E+02  0.10047940434E+02  0.00000000000E+00 0. -1.
         35    2    1    2    0    0  0.00000000000E+00  0.00000000000E+00  0.18765156512E+04  0.18966115320E+04  0.27536215131E+03 0.  0.
         25    1    3    3    0    0  0.14123480106E+02 -0.48809352618E+02  0.63221969233E+03  0.64551031360E+03  0.12000000000E+03 0.  0.
         25    1    3    3    0    0 -0.14123480106E+02  0.48809352618E+02  0.12442959588E+04  0.12511012184E+04  0.12000000000E+03 0.  0.
<mgrwt>
<rscale>  0 0.27536215E+03</rscale>
<asrwt>0</asrwt>
<pdfrwt beam="1">  1        3 0.29024027E+00 0.27536215E+03</pdfrwt>
<pdfrwt beam="2">  1       -3 0.15458385E-02 0.27536215E+03</pdfrwt>
<totfact> 0.17953863E+02</totfact>
</mgrwt>
</event>
<event>
 5    1  0.1108889E+001  0.2749500E+03  0.7818608E-02  0.1098480E+00
          1   -1    0    0  501    0  0.00000000000E+00  0.00000000000E+00  0.45891925498E+03  0.45891925498E+03  0.00000000000E+00 0. -1.
         -1   -1    0    0    0  501 -0.00000000000E+00 -0.00000000000E+00 -0.41182364521E+02  0.41182364521E+02  0.00000000000E+00 0. -1.
         35    2    1    2    0    0  0.00000000000E+00  0.00000000000E+00  0.41773689046E+03  0.50010161950E+03  0.27495003214E+03 0.  0.
         25    1    3    3    0    0 -0.30481422980E+02  0.57736618158E+02  0.18088213482E+03  0.22667373231E+03  0.12000000000E+03 0.  0.
         25    1    3    3    0    0  0.30481422980E+02 -0.57736618158E+02  0.23685475563E+03  0.27342788718E+03  0.12000000000E+03 0.  0.
<mgrwt>
<rscale>  0 0.27495003E+03</rscale>
<asrwt>0</asrwt>
<pdfrwt beam="1">  1        1 0.70602959E-01 0.27495003E+03</pdfrwt>
<pdfrwt beam="2">  1       -1 0.63357487E-02 0.27495003E+03</pdfrwt>
<totfact> 0.61940115E+03</totfact>
</mgrwt>
</event>
<event>
 5    1  0.1108889E+001  0.2755751E+03  0.7818608E-02  0.1098131E+00
         -2   -1    0    0    0  501 -0.00000000000E+00  0.00000000000E+00  0.28529517472E+03  0.28529517472E+03  0.00000000000E+00 0. -1.
          2   -1    0    0  501    0  0.00000000000E+00 -0.00000000000E+00 -0.66546555982E+02  0.66546555982E+02  0.00000000000E+00 0. -1.
         35    2    1    2    0    0  0.00000000000E+00  0.00000000000E+00  0.21874861873E+03  0.35184173070E+03  0.27557511728E+03 0.  0.
         25    1    3    3    0    0 -0.58806870088E+01  0.66836792437E+02  0.12105308877E+03  0.18318184846E+03  0.12000000000E+03 0.  0.
         25    1    3    3    0    0  0.58806870088E+01 -0.66836792437E+02  0.97695529961E+02  0.16865988224E+03  0.12000000000E+03 0.  0.
<mgrwt>
<rscale>  0 0.27557512E+03</rscale>
<asrwt>0</asrwt>
<pdfrwt beam="1">  1        2 0.10237932E-01 0.27557512E+03</pdfrwt>
<pdfrwt beam="2">  1       -2 0.43891565E-01 0.27557512E+03</pdfrwt>
<totfact> 0.30828936E+03</totfact>
</mgrwt>
</event>
<event>
 5    1  0.1108889E+001  0.2756992E+03  0.7818608E-02  0.1098061E+00
          1   -1    0    0  501    0  0.00000000000E+00  0.00000000000E+00  0.96302029266E+03  0.96302029266E+03  0.00000000000E+00 0.  1.
         -1   -1    0    0    0  501 -0.00000000000E+00 -0.00000000000E+00 -0.19732199585E+02  0.19732199585E+02  0.00000000000E+00 0.  1.
         35    2    1    2    0    0  0.00000000000E+00  0.00000000000E+00  0.94328809308E+03  0.98275249225E+03  0.27569917388E+03 0.  0.
         25    1    3    3    0    0 -0.36127926751E+02  0.25871864862E+02  0.28891169989E+03  0.31598188368E+03  0.12000000000E+03 0.  0.
         25    1    3    3    0    0  0.36127926751E+02 -0.25871864862E+02  0.65437639319E+03  0.66677060857E+03  0.12000000000E+03 0.  0.
<mgrwt>
<rscale>  0 0.27569917E+03</rscale>
<asrwt>0</asrwt>
<pdfrwt beam="1">  1        1 0.14815693E+00 0.27569917E+03</pdfrwt>
<pdfrwt beam="2">  1       -1 0.30357238E-02 0.27569917E+03</pdfrwt>
<totfact> 0.63178406E+03</totfact>
</mgrwt>
</event>
<event>
 5    1  0.1108889E+001  0.2831012E+03  0.7818608E-02  0.1094007E+00
         -3   -1    0    0    0  501 -0.00000000000E+00  0.00000000000E+00  0.15287257395E+02  0.15287257395E+02  0.00000000000E+00 0. -1.
          3   -1    0    0  501    0  0.00000000000E+00 -0.00000000000E+00 -0.13106714389E+04  0.13106714389E+04  0.00000000000E+00 0. -1.
         35    2    1    2    0    0  0.00000000000E+00  0.00000000000E+00 -0.12953841815E+04  0.13259586963E+04  0.28310119496E+03 0.  0.
         25    1    3    3    0    0  0.42043665027E+02  0.21498983807E+02 -0.37431950757E+03  0.39591030528E+03  0.12000000000E+03 0.  0.
         25    1    3    3    0    0 -0.42043665027E+02 -0.21498983807E+02 -0.92106467392E+03  0.93004839101E+03  0.12000000000E+03 0.  0.
<mgrwt>
<rscale>  0 0.28310119E+03</rscale>
<asrwt>0</asrwt>
<pdfrwt beam="1">  1        3 0.20164171E+00 0.28310119E+03</pdfrwt>
<pdfrwt beam="2">  1       -3 0.23518863E-02 0.28310119E+03</pdfrwt>
<totfact> 0.29550893E+02</totfact>
</mgrwt>
</event>
<event>
 5    1  0.1108889E+001  0.2757390E+03  0.7818608E-02  0.1098039E+00
         -1   -1    0    0    0  501 -0.00000000000E+00  0.00000000000E+00  0.29052290833E+02  0.29052290833E+02  0.00000000000E+00 0. -1.
          1   -1    0    0  501    0  0.00000000000E+00 -0.00000000000E+00 -0.65426848849E+03  0.65426848849E+03  0.00000000000E+00 0. -1.
         35    2    1    2    0    0  0.00000000000E+00  0.00000000000E+00 -0.62521619765E+03  0.68332077932E+03  0.27573899550E+03 0.  0.
         25    1    3    3    0    0 -0.52403083347E+02 -0.42264193476E+02 -0.33416270715E+03  0.36138215236E+03  0.12000000000E+03 0.  0.
         25    1    3    3    0    0  0.52403083347E+02  0.42264193476E+02 -0.29105349050E+03  0.32193862696E+03  0.12000000000E+03 0.  0.
<mgrwt>
<rscale>  0 0.27573900E+03</rscale>
<asrwt>0</asrwt>
<pdfrwt beam="1">  1        1 0.10065669E+00 0.27573900E+03</pdfrwt>
<pdfrwt beam="2">  1       -1 0.44695834E-02 0.27573900E+03</pdfrwt>
<totfact> 0.64586702E+03</totfact>
</mgrwt>
</event>
<event>
 5    1  0.1108889E+001  0.2750200E+03  0.7818608E-02  0.1098440E+00
         -2   -1    0    0    0  501 -0.00000000000E+00  0.00000000000E+00  0.43847501997E+03  0.43847501997E+03  0.00000000000E+00 0.  1.
          2   -1    0    0  501    0  0.00000000000E+00 -0.00000000000E+00 -0.43124475257E+02  0.43124475257E+02  0.00000000000E+00 0.  1.
         35    2    1    2    0    0  0.00000000000E+00  0.00000000000E+00  0.39535054471E+03  0.48159949523E+03  0.27502003672E+03 0.  0.
         25    1    3    3    0    0 -0.15265152800E+02 -0.59763339784E+02  0.15120151675E+03  0.20264890905E+03  0.12000000000E+03 0.  0.
         25    1    3    3    0    0  0.15265152800E+02  0.59763339784E+02  0.24414902797E+03  0.27895058618E+03  0.12000000000E+03 0.  0.
<mgrwt>
<rscale>  0 0.27502004E+03</rscale>
<asrwt>0</asrwt>
<pdfrwt beam="1">  1        2 0.66345350E-02 0.27502004E+03</pdfrwt>
<pdfrwt beam="2">  1       -2 0.67457692E-01 0.27502004E+03</pdfrwt>
<totfact> 0.22312221E+03</totfact>
</mgrwt>
</event>
<event>
 5    1  0.1108889E+001  0.2753447E+03  0.7818608E-02  0.1098259E+00
          2   -1    0    0  501    0  0.00000000000E+00  0.00000000000E+00  0.22860800490E+04  0.22860800490E+04  0.00000000000E+00 0. -1.
         -2   -1    0    0    0  501 -0.00000000000E+00 -0.00000000000E+00 -0.82909069625E+01  0.82909069625E+01  0.00000000000E+00 0. -1.
         35    2    1    2    0    0  0.00000000000E+00  0.00000000000E+00  0.22777891421E+04  0.22943709560E+04  0.27534470756E+03 0.  0.
         25    1    3    3    0    0 -0.18659546175E+02 -0.39889580895E+02  0.71283900023E+03  0.72420908416E+03  0.12000000000E+03 0.  0.
         25    1    3    3    0    0  0.18659546175E+02  0.39889580895E+02  0.15649501419E+04  0.15701618719E+04  0.12000000000E+03 0.  0.
<mgrwt>
<rscale>  0 0.27534471E+03</rscale>
<asrwt>0</asrwt>
<pdfrwt beam="1">  1        2 0.35170412E+00 0.27534471E+03</pdfrwt>
<pdfrwt beam="2">  1       -2 0.12755260E-02 0.27534471E+03</pdfrwt>
<totfact> 0.78331355E+03</totfact>
</mgrwt>
</event>
<event>
 5    1  0.1108889E+001  0.2749363E+03  0.7818608E-02  0.1098487E+00
         -3   -1    0    0    0  501 -0.00000000000E+00  0.00000000000E+00  0.23229759583E+03  0.23229759583E+03  0.00000000000E+00 0.  1.
          3   -1    0    0  501    0  0.00000000000E+00 -0.00000000000E+00 -0.81350350122E+02  0.81350350122E+02  0.00000000000E+00 0.  1.
         35    2    1    2    0    0  0.00000000000E+00  0.00000000000E+00  0.15094724571E+03  0.31364794595E+03  0.27493628901E+03 0.  0.
         25    1    3    3    0    0  0.66056103510E+02 -0.10453704631E+02  0.81155001692E+02  0.15955821211E+03  0.12000000000E+03 0.  0.
         25    1    3    3    0    0 -0.66056103510E+02  0.10453704631E+02  0.69792244018E+02  0.15408973384E+03  0.12000000000E+03 0.  0.
<mgrwt>
<rscale>  0 0.27493629E+03</rscale>
<asrwt>0</asrwt>
<pdfrwt beam="1">  1        3 0.12515439E-01 0.27493629E+03</pdfrwt>
<pdfrwt beam="2">  1       -3 0.35738091E-01 0.27493629E+03</pdfrwt>
<totfact> 0.99268661E+02</totfact>
</mgrwt>
</event>
<event>
 5    1  0.1108889E+001  0.2792482E+03  0.7818608E-02  0.1096100E+00
         -2   -1    0    0    0  501 -0.00000000000E+00  0.00000000000E+00  0.39230042930E+02  0.39230042930E+02  0.00000000000E+00 0.  1.
          2   -1    0    0  501    0  0.00000000000E+00 -0.00000000000E+00 -0.49693763282E+03  0.49693763282E+03  0.00000000000E+00 0.  1.
         35    2    1    2    0    0  0.00000000000E+00  0.00000000000E+00 -0.45770758989E+03  0.53616767575E+03  0.27924816683E+03 0.  0.
         25    1    3    3    0    0 -0.39647910375E+02  0.54007206593E+01 -0.34234359653E+03  0.36496611167E+03  0.12000000000E+03 0.  0.
         25    1    3    3    0    0  0.39647910375E+02 -0.54007206593E+01 -0.11536399336E+03  0.17120156408E+03  0.12000000000E+03 0.  0.
<mgrwt>
<rscale>  0 0.27924817E+03</rscale>
<asrwt>0</asrwt>
<pdfrwt beam="1">  1        2 0.76451946E-01 0.27924817E+03</pdfrwt>
<pdfrwt beam="2">  1       -2 0.60353910E-02 0.27924817E+03</pdfrwt>
<totfact> 0.91485670E+03</totfact>
</mgrwt>
</event>
<event>
 5    1  0.1108889E+001  0.2742533E+03  0.7818608E-02  0.1098870E+00
          1   -1    0    0  501    0  0.00000000000E+00  0.00000000000E+00  0.10269442766E+04  0.10269442766E+04  0.00000000000E+00 0. -1.
         -1   -1    0    0    0  501 -0.00000000000E+00 -0.00000000000E+00 -0.18310357086E+02  0.18310357086E+02  0.00000000000E+00 0. -1.
         35    2    1    2    0    0  0.00000000000E+00  0.00000000000E+00  0.10086339195E+04  0.10452546337E+04  0.27425328739E+03 0.  0.
         25    1    3    3    0    0 -0.89715063012E+01  0.25839961992E+02  0.73475020158E+03  0.74498728196E+03  0.12000000000E+03 0.  0.
         25    1    3    3    0    0  0.89715063012E+01 -0.25839961992E+02  0.27388371790E+03  0.30026735169E+03  0.12000000000E+03 0.  0.
<mgrwt>
<rscale>  0 0.27425329E+03</rscale>
<asrwt>0</asrwt>
<pdfrwt beam="1">  1        1 0.15799138E+00 0.27425329E+03</pdfrwt>
<pdfrwt beam="2">  1       -1 0.28169788E-02 0.27425329E+03</pdfrwt>
<totfact> 0.63160643E+03</totfact>
</mgrwt>
</event>
<event>
 5    1  0.1108889E+001  0.2745443E+03  0.7818608E-02  0.1098707E+00
          2   -1    0    0  501    0  0.00000000000E+00  0.00000000000E+00  0.29164447681E+03  0.29164447681E+03  0.00000000000E+00 0. -1.
         -2   -1    0    0    0  501 -0.00000000000E+00 -0.00000000000E+00 -0.64611683787E+02  0.64611683787E+02  0.00000000000E+00 0. -1.
         35    2    1    2    0    0  0.00000000000E+00  0.00000000000E+00  0.22703279303E+03  0.35625616060E+03  0.27454428214E+03 0.  0.
         25    1    3    3    0    0 -0.23459817587E+02 -0.52500376349E+02  0.69761370105E+02  0.15024413904E+03  0.12000000000E+03 0.  0.
         25    1    3    3    0    0  0.23459817587E+02  0.52500376349E+02  0.15727142292E+03  0.20601202156E+03  0.12000000000E+03 0.  0.
<mgrwt>
<rscale>  0 0.27454428E+03</rscale>
<asrwt>0</asrwt>
<pdfrwt beam="1">  1        2 0.44868380E-01 0.27454428E+03</pdfrwt>
<pdfrwt beam="2">  1       -2 0.99402592E-02 0.27454428E+03</pdfrwt>
<totfact> 0.74965015E+03</totfact>
</mgrwt>
</event>
<event>
 5    1  0.1108889E+001  0.2747652E+03  0.7818608E-02  0.1098583E+00
         -1   -1    0    0    0  501 -0.00000000000E+00  0.00000000000E+00  0.27289759027E+02  0.27289759027E+02  0.00000000000E+00 0. -1.
          1   -1    0    0  501    0  0.00000000000E+00 -0.00000000000E+00 -0.69161422597E+03  0.69161422597E+03  0.00000000000E+00 0. -1.
         35    2    1    2    0    0  0.00000000000E+00  0.00000000000E+00 -0.66432446694E+03  0.71890398499E+03  0.27476524938E+03 0.  0.
         25    1    3    3    0    0  0.51582811938E+02 -0.41818451566E+02 -0.31116284759E+03  0.34004688956E+03  0.12000000000E+03 0.  0.
         25    1    3    3    0    0 -0.51582811938E+02  0.41818451566E+02 -0.35316161935E+03  0.37885709544E+03  0.12000000000E+03 0.  0.
<mgrwt>
<rscale>  0 0.27476525E+03</rscale>
<asrwt>0</asrwt>
<pdfrwt beam="1">  1        1 0.10640218E+00 0.27476525E+03</pdfrwt>
<pdfrwt beam="2">  1       -1 0.41984247E-02 0.27476525E+03</pdfrwt>
<totfact> 0.65451284E+03</totfact>
</mgrwt>
</event>
<event>
 5    1  0.1108889E+001  0.2751675E+03  0.7818608E-02  0.1098358E+00
          2   -1    0    0  501    0  0.00000000000E+00  0.00000000000E+00  0.87921408460E+03  0.87921408460E+03  0.00000000000E+00 0.  1.
         -2   -1    0    0    0  501 -0.00000000000E+00 -0.00000000000E+00 -0.21529784107E+02  0.21529784107E+02  0.00000000000E+00 0.  1.
         35    2    1    2    0    0  0.00000000000E+00  0.00000000000E+00  0.85768430049E+03  0.90074386871E+03  0.27516750844E+03 0.  0.
         25    1    3    3    0    0  0.40639482536E+01 -0.24344286442E+02  0.63379519209E+03  0.64552730807E+03  0.12000000000E+03 0.  0.
         25    1    3    3    0    0 -0.40639482536E+01  0.24344286442E+02  0.22388910841E+03  0.25521656063E+03  0.12000000000E+03 0.  0.
<mgrwt>
<rscale>  0 0.27516751E+03</rscale>
<asrwt>0</asrwt>
<pdfrwt beam="1">  1        2 0.13526368E+00 0.27516751E+03</pdfrwt>
<pdfrwt beam="2">  1       -2 0.33122752E-02 0.27516751E+03</pdfrwt>
<totfact> 0.11413269E+04</totfact>
</mgrwt>
</event>
<event>
 5    1  0.1108889E+001  0.2736991E+03  0.7818608E-02  0.1099181E+00
         -2   -1    0    0    0  501 -0.00000000000E+00  0.00000000000E+00  0.16928719995E+02  0.16928719995E+02  0.00000000000E+00 0.  1.
          2   -1    0    0  501    0  0.00000000000E+00 -0.00000000000E+00 -0.11062738070E+04  0.11062738070E+04  0.00000000000E+00 0.  1.
         35    2    1    2    0    0  0.00000000000E+00  0.00000000000E+00 -0.10893450870E+04  0.11232025270E+04  0.27369910133E+03 0.  0.
         25    1    3    3    0    0 -0.15895530222E+02  0.76583974272E+01 -0.28459219621E+03  0.30936069091E+03  0.12000000000E+03 0.  0.
         25    1    3    3    0    0  0.15895530222E+02 -0.76583974272E+01 -0.80475289078E+03  0.81384183608E+03  0.12000000000E+03 0.  0.
<mgrwt>
<rscale>  0 0.27369910E+03</rscale>
<asrwt>0</asrwt>
<pdfrwt beam="1">  1        2 0.17019603E+00 0.27369910E+03</pdfrwt>
<pdfrwt beam="2">  1       -2 0.26044175E-02 0.27369910E+03</pdfrwt>
<totfact> 0.11821071E+04</totfact>
</mgrwt>
</event>
<event>
 5    1  0.1108889E+001  0.2782682E+03  0.7818608E-02  0.1096639E+00
          1   -1    0    0  501    0  0.00000000000E+00  0.00000000000E+00  0.12510009685E+04  0.12510009685E+04  0.00000000000E+00 0.  1.
         -1   -1    0    0    0  501 -0.00000000000E+00 -0.00000000000E+00 -0.15474249443E+02  0.15474249443E+02  0.00000000000E+00 0.  1.
         35    2    1    2    0    0  0.00000000000E+00  0.00000000000E+00  0.12355267191E+04  0.12664752180E+04  0.27826822342E+03 0.  0.
         25    1    3    3    0    0  0.47657549129E+02  0.50580072041E+02  0.66939884630E+03  0.68361129387E+03  0.12000000000E+03 0.  0.
         25    1    3    3    0    0 -0.47657549129E+02 -0.50580072041E+02  0.56612787280E+03  0.58286392412E+03  0.12000000000E+03 0.  0.
<mgrwt>
<rscale>  0 0.27826822E+03</rscale>
<asrwt>0</asrwt>
<pdfrwt beam="1">  1        1 0.19246161E+00 0.27826822E+03</pdfrwt>
<pdfrwt beam="2">  1       -1 0.23806547E-02 0.27826822E+03</pdfrwt>
<totfact> 0.56003137E+03</totfact>
</mgrwt>
</event>
<event>
 5    1  0.1108889E+001  0.2753967E+03  0.7818608E-02  0.1098230E+00
          2   -1    0    0  501    0  0.00000000000E+00  0.00000000000E+00  0.24059255357E+04  0.24059255357E+04  0.00000000000E+00 0. -1.
         -2   -1    0    0    0  501 -0.00000000000E+00 -0.00000000000E+00 -0.78808909252E+01  0.78808909252E+01  0.00000000000E+00 0. -1.
         35    2    1    2    0    0  0.00000000000E+00  0.00000000000E+00  0.23980446448E+04  0.24138064267E+04  0.27539670820E+03 0.  0.
         25    1    3    3    0    0 -0.30613749549E+02  0.43053089007E+02  0.15677778138E+04  0.15732507886E+04  0.12000000000E+03 0.  0.
         25    1    3    3    0    0  0.30613749549E+02 -0.43053089007E+02  0.83026683098E+03  0.84055563811E+03  0.12000000000E+03 0.  0.
<mgrwt>
<rscale>  0 0.27539671E+03</rscale>
<asrwt>0</asrwt>
<pdfrwt beam="1">  1        2 0.37014181E+00 0.27539671E+03</pdfrwt>
<pdfrwt beam="2">  1       -2 0.12124467E-02 0.27539671E+03</pdfrwt>
<totfact> 0.72689462E+03</totfact>
</mgrwt>
</event>
<event>
 5    1  0.1108889E+001  0.2745445E+03  0.7818608E-02  0.1098706E+00
         -2   -1    0    0    0  501 -0.00000000000E+00  0.00000000000E+00  0.11176176414E+03  0.11176176414E+03  0.00000000000E+00 0. -1.
          2   -1    0    0  501    0  0.00000000000E+00 -0.00000000000E+00 -0.16860573786E+03  0.16860573786E+03  0.00000000000E+00 0. -1.
         35    2    1    2    0    0  0.00000000000E+00  0.00000000000E+00 -0.56843973716E+02  0.28036750200E+03  0.27454452977E+03 0.  0.
         25    1    3    3    0    0  0.19528258365E+02  0.61464233889E+02 -0.11198029203E+02  0.13669162659E+03  0.12000000000E+03 0.  0.
         25    1    3    3    0    0 -0.19528258365E+02 -0.61464233889E+02 -0.45645944513E+02  0.14367587540E+03  0.12000000000E+03 0.  0.
<mgrwt>
<rscale>  0 0.27454453E+03</rscale>
<asrwt>0</asrwt>
<pdfrwt beam="1">  1        2 0.25939344E-01 0.27454453E+03</pdfrwt>
<pdfrwt beam="2">  1       -2 0.17194118E-01 0.27454453E+03</pdfrwt>
<totfact> 0.55748109E+03</totfact>
</mgrwt>
</event>
<event>
 5    1  0.1108889E+001  0.2747432E+03  0.7818608E-02  0.1098595E+00
         -2   -1    0    0    0  501 -0.00000000000E+00  0.00000000000E+00  0.76255464522E+01  0.76255464522E+01  0.00000000000E+00 0. -1.
          2   -1    0    0  501    0  0.00000000000E+00 -0.00000000000E+00 -0.24747023021E+04  0.24747023021E+04  0.00000000000E+00 0. -1.
         35    2    1    2    0    0  0.00000000000E+00  0.00000000000E+00 -0.24670767556E+04  0.24823278485E+04  0.27474320636E+03 0.  0.
         25    1    3    3    0    0  0.73945724863E+01  0.63836396821E+02 -0.14004288947E+04  0.14070290880E+04  0.12000000000E+03 0.  0.
         25    1    3    3    0    0 -0.73945724863E+01 -0.63836396821E+02 -0.10666478609E+04  0.10752987606E+04  0.12000000000E+03 0.  0.
<mgrwt>
<rscale>  0 0.27474321E+03</rscale>
<asrwt>0</asrwt>
<pdfrwt beam="1">  1        2 0.38072397E+00 0.27474321E+03</pdfrwt>
<pdfrwt beam="2">  1       -2 0.11731593E-02 0.27474321E+03</pdfrwt>
<totfact> 0.69965169E+03</totfact>
</mgrwt>
</event>
<event>
 5    1  0.1108889E+001  0.2739977E+03  0.7818608E-02  0.1099013E+00
         -3   -1    0    0    0  501 -0.00000000000E+00  0.00000000000E+00  0.18987333059E+02  0.18987333059E+02  0.00000000000E+00 0. -1.
          3   -1    0    0  501    0  0.00000000000E+00 -0.00000000000E+00 -0.98848423710E+03  0.98848423710E+03  0.00000000000E+00 0. -1.
         35    2    1    2    0    0  0.00000000000E+00  0.00000000000E+00 -0.96949690404E+03  0.10074715702E+04  0.27399766009E+03 0.  0.
         25    1    3    3    0    0 -0.18907350914E+02 -0.10336165686E+02 -0.25499576159E+03  0.28264317198E+03  0.12000000000E+03 0.  0.
         25    1    3    3    0    0  0.18907350914E+02  0.10336165686E+02 -0.71450114246E+03  0.72482839818E+03  0.12000000000E+03 0.  0.
<mgrwt>
<rscale>  0 0.27399766E+03</rscale>
<asrwt>0</asrwt>
<pdfrwt beam="1">  1        3 0.15207451E+00 0.27399766E+03</pdfrwt>
<pdfrwt beam="2">  1       -3 0.29211279E-02 0.27399766E+03</pdfrwt>
<totfact> 0.44635978E+02</totfact>
</mgrwt>
</event>
<event>
 5    1  0.1108889E+001  0.2751074E+03  0.7818608E-02  0.1098392E+00
          1   -1    0    0  501    0  0.00000000000E+00  0.00000000000E+00  0.30534716709E+04  0.30534716709E+04  0.00000000000E+00 0. -1.
         -1   -1    0    0    0  501 -0.00000000000E+00 -0.00000000000E+00 -0.61965617374E+01  0.61965617374E+01  0.00000000000E+00 0. -1.
         35    2    1    2    0    0  0.00000000000E+00  0.00000000000E+00  0.30472751091E+04  0.30596682326E+04  0.27510743881E+03 0.  0.
         25    1    3    3    0    0  0.81279762630E+01 -0.23641230210E+02  0.82943775303E+03  0.83844615684E+03  0.12000000000E+03 0.  0.
         25    1    3    3    0    0 -0.81279762630E+01  0.23641230210E+02  0.22178373561E+04  0.22212220758E+04  0.12000000000E+03 0.  0.
<mgrwt>
<rscale>  0 0.27510744E+03</rscale>
<asrwt>0</asrwt>
<pdfrwt beam="1">  1        1 0.46976367E+00 0.27510744E+03</pdfrwt>
<pdfrwt beam="2">  1       -1 0.95331963E-03 0.27510744E+03</pdfrwt>
<totfact> 0.13380598E+03</totfact>
</mgrwt>
</event>
<event>
 5    1  0.1108889E+001  0.2741135E+03  0.7818608E-02  0.1098948E+00
         -1   -1    0    0    0  501 -0.00000000000E+00  0.00000000000E+00  0.80268484230E+02  0.80268484230E+02  0.00000000000E+00 0.  1.
          1   -1    0    0  501    0  0.00000000000E+00 -0.00000000000E+00 -0.23402146896E+03  0.23402146896E+03  0.00000000000E+00 0.  1.
         35    2    1    2    0    0  0.00000000000E+00  0.00000000000E+00 -0.15375298473E+03  0.31428995319E+03  0.27411346987E+03 0.  0.
         25    1    3    3    0    0  0.19090575091E+02  0.38250943434E+02 -0.13485438370E+03  0.18550819264E+03  0.12000000000E+03 0.  0.
         25    1    3    3    0    0 -0.19090575091E+02 -0.38250943434E+02 -0.18898601027E+02  0.12878176055E+03  0.12000000000E+03 0.  0.
<mgrwt>
<rscale>  0 0.27411347E+03</rscale>
<asrwt>0</asrwt>
<pdfrwt beam="1">  1        1 0.36003302E-01 0.27411347E+03</pdfrwt>
<pdfrwt beam="2">  1       -1 0.12348998E-01 0.27411347E+03</pdfrwt>
<totfact> 0.52213687E+03</totfact>
</mgrwt>
</event>
<event>
 5    1  0.1108889E+001  0.2748404E+03  0.7818608E-02  0.1098541E+00
         -3   -1    0    0    0  501 -0.00000000000E+00  0.00000000000E+00  0.25170905352E+03  0.25170905352E+03  0.00000000000E+00 0. -1.
          3   -1    0    0  501    0  0.00000000000E+00 -0.00000000000E+00 -0.75024380714E+02  0.75024380714E+02  0.00000000000E+00 0. -1.
         35    2    1    2    0    0  0.00000000000E+00  0.00000000000E+00  0.17668467281E+03  0.32673343424E+03  0.27484043269E+03 0.  0.
         25    1    3    3    0    0  0.62744965021E+02 -0.92126503093E+01  0.62775641016E+02  0.14954124737E+03  0.12000000000E+03 0.  0.
         25    1    3    3    0    0 -0.62744965021E+02  0.92126503093E+01  0.11390903179E+03  0.17719218686E+03  0.12000000000E+03 0.  0.
<mgrwt>
<rscale>  0 0.27484043E+03</rscale>
<asrwt>0</asrwt>
<pdfrwt beam="1">  1        3 0.11542213E-01 0.27484043E+03</pdfrwt>
<pdfrwt beam="2">  1       -3 0.38724469E-01 0.27484043E+03</pdfrwt>
<totfact> 0.97551430E+02</totfact>
</mgrwt>
</event>
<event>
 5    1  0.1108889E+001  0.2751591E+03  0.7818608E-02  0.1098363E+00
         -1   -1    0    0    0  501 -0.00000000000E+00  0.00000000000E+00  0.89714350817E+02  0.89714350817E+02  0.00000000000E+00 0.  1.
          1   -1    0    0  501    0  0.00000000000E+00 -0.00000000000E+00 -0.21098223964E+03  0.21098223964E+03  0.00000000000E+00 0.  1.
         35    2    1    2    0    0  0.00000000000E+00  0.00000000000E+00 -0.12126788882E+03  0.30069659046E+03  0.27515911515E+03 0.  0.
         25    1    3    3    0    0 -0.49752864800E+02  0.25049119827E+01 -0.11196979200E+02  0.13041086796E+03  0.12000000000E+03 0.  0.
         25    1    3    3    0    0  0.49752864800E+02 -0.25049119827E+01 -0.11007090962E+03  0.17028572249E+03  0.12000000000E+03 0.  0.
<mgrwt>
<rscale>  0 0.27515912E+03</rscale>
<asrwt>0</asrwt>
<pdfrwt beam="1">  1        1 0.32458806E-01 0.27515912E+03</pdfrwt>
<pdfrwt beam="2">  1       -1 0.13802208E-01 0.27515912E+03</pdfrwt>
<totfact> 0.49948568E+03</totfact>
</mgrwt>
</event>
<event>
 5    1  0.1108889E+001  0.2753129E+03  0.7818608E-02  0.1098277E+00
         -1   -1    0    0    0  501 -0.00000000000E+00  0.00000000000E+00  0.10567944151E+03  0.10567944151E+03  0.00000000000E+00 0. -1.
          1   -1    0    0  501    0  0.00000000000E+00 -0.00000000000E+00 -0.17930916186E+03  0.17930916186E+03  0.00000000000E+00 0. -1.
         35    2    1    2    0    0  0.00000000000E+00  0.00000000000E+00 -0.73629720342E+02  0.28498860337E+03  0.27531285537E+03 0.  0.
         25    1    3    3    0    0  0.34681431611E+02  0.21921599749E+02 -0.92230720917E+02  0.15681155606E+03  0.12000000000E+03 0.  0.
         25    1    3    3    0    0 -0.34681431611E+02 -0.21921599749E+02  0.18601000575E+02  0.12817704731E+03  0.12000000000E+03 0.  0.
<mgrwt>
<rscale>  0 0.27531286E+03</rscale>
<asrwt>0</asrwt>
<pdfrwt beam="1">  1        1 0.27586024E-01 0.27531286E+03</pdfrwt>
<pdfrwt beam="2">  1       -1 0.16258376E-01 0.27531286E+03</pdfrwt>
<totfact> 0.47296682E+03</totfact>
</mgrwt>
</event>
<event>
 5    1  0.1108889E+001  0.2749239E+03  0.7818608E-02  0.1098494E+00
         -2   -1    0    0    0  501 -0.00000000000E+00  0.00000000000E+00  0.75876064878E+01  0.75876064878E+01  0.00000000000E+00 0. -1.
          2   -1    0    0  501    0  0.00000000000E+00 -0.00000000000E+00 -0.24903481497E+04  0.24903481497E+04  0.00000000000E+00 0. -1.
         35    2    1    2    0    0  0.00000000000E+00  0.00000000000E+00 -0.24827605432E+04  0.24979357562E+04  0.27492385693E+03 0.  0.
         25    1    3    3    0    0  0.32114821757E+02  0.57229504051E+02 -0.11164021938E+04  0.11247490548E+04  0.12000000000E+03 0.  0.
         25    1    3    3    0    0 -0.32114821757E+02 -0.57229504051E+02 -0.13663583494E+04  0.13731867014E+04  0.12000000000E+03 0.  0.
<mgrwt>
<rscale>  0 0.27492386E+03</rscale>
<asrwt>0</asrwt>
<pdfrwt beam="1">  1        2 0.38313132E+00 0.27492386E+03</pdfrwt>
<pdfrwt beam="2">  1       -2 0.11673215E-02 0.27492386E+03</pdfrwt>
<totfact> 0.69100045E+03</totfact>
</mgrwt>
</event>
<event>
 5    1  0.1108889E+001  0.2737516E+03  0.7818608E-02  0.1099151E+00
         -1   -1    0    0    0  501 -0.00000000000E+00  0.00000000000E+00  0.19891555944E+03  0.19891555944E+03  0.00000000000E+00 0. -1.
          1   -1    0    0  501    0  0.00000000000E+00 -0.00000000000E+00 -0.94185604281E+02  0.94185604281E+02  0.00000000000E+00 0. -1.
         35    2    1    2    0    0  0.00000000000E+00  0.00000000000E+00  0.10472995516E+03  0.29310116372E+03  0.27375158204E+03 0.  0.
         25    1    3    3    0    0 -0.56491761895E+02 -0.29653176562E+02  0.69773115048E+02  0.15277080096E+03  0.12000000000E+03 0.  0.
         25    1    3    3    0    0  0.56491761895E+02  0.29653176562E+02  0.34956840112E+02  0.14033036276E+03  0.12000000000E+03 0.  0.
<mgrwt>
<rscale>  0 0.27375158E+03</rscale>
<asrwt>0</asrwt>
<pdfrwt beam="1">  1        1 0.14490093E-01 0.27375158E+03</pdfrwt>
<pdfrwt beam="2">  1       -1 0.30602394E-01 0.27375158E+03</pdfrwt>
<totfact> 0.38305224E+03</totfact>
</mgrwt>
</event>
<event>
 5    1  0.1108889E+001  0.2753456E+03  0.7818608E-02  0.1098259E+00
          2   -1    0    0  501    0  0.00000000000E+00  0.00000000000E+00  0.24951672101E+04  0.24951672101E+04  0.00000000000E+00 0. -1.
         -2   -1    0    0    0  501 -0.00000000000E+00 -0.00000000000E+00 -0.75962049021E+01  0.75962049021E+01  0.00000000000E+00 0. -1.
         35    2    1    2    0    0  0.00000000000E+00  0.00000000000E+00  0.24875710052E+04  0.25027634150E+04  0.27534561114E+03 0.  0.
         25    1    3    3    0    0 -0.33741412713E+02  0.10241330935E+02  0.72080670740E+03  0.73157752646E+03  0.12000000000E+03 0.  0.
         25    1    3    3    0    0  0.33741412713E+02 -0.10241330935E+02  0.17667642978E+04  0.17711858885E+04  0.12000000000E+03 0.  0.
<mgrwt>
<rscale>  0 0.27534561E+03</rscale>
<asrwt>0</asrwt>
<pdfrwt beam="1">  1        2 0.38387123E+00 0.27534561E+03</pdfrwt>
<pdfrwt beam="2">  1       -2 0.11686489E-02 0.27534561E+03</pdfrwt>
<totfact> 0.68568187E+03</totfact>
</mgrwt>
</event>
<event>
 5    1  0.1108889E+001  0.2750378E+03  0.7818608E-02  0.1098430E+00
         -3   -1    0    0    0  501 -0.00000000000E+00  0.00000000000E+00  0.28259715125E+03  0.28259715125E+03  0.00000000000E+00 0. -1.
          3   -1    0    0  501    0  0.00000000000E+00 -0.00000000000E+00 -0.66920176273E+02  0.66920176273E+02  0.00000000000E+00 0. -1.
         35    2    1    2    0    0  0.00000000000E+00  0.00000000000E+00  0.21567697497E+03  0.34951732752E+03  0.27503782413E+03 0.  0.
         25    1    3    3    0    0  0.44006779823E+02 -0.44774601386E+02  0.13818074134E+03  0.19348198592E+03  0.12000000000E+03 0.  0.
         25    1    3    3    0    0 -0.44006779823E+02  0.44774601386E+02  0.77496233638E+02  0.15603534160E+03  0.12000000000E+03 0.  0.
<mgrwt>
<rscale>  0 0.27503782E+03</rscale>
<asrwt>0</asrwt>
<pdfrwt beam="1">  1        3 0.10295412E-01 0.27503782E+03</pdfrwt>
<pdfrwt beam="2">  1       -3 0.43476484E-01 0.27503782E+03</pdfrwt>
<totfact> 0.94287558E+02</totfact>
</mgrwt>
</event>
<event>
 5    1  0.1108889E+001  0.2747962E+03  0.7818608E-02  0.1098566E+00
         -2   -1    0    0    0  501 -0.00000000000E+00  0.00000000000E+00  0.65911064179E+02  0.65911064179E+02  0.00000000000E+00 0.  1.
          2   -1    0    0  501    0  0.00000000000E+00 -0.00000000000E+00 -0.28641986285E+03  0.28641986285E+03  0.00000000000E+00 0.  1.
         35    2    1    2    0    0  0.00000000000E+00  0.00000000000E+00 -0.22050879868E+03  0.35233092703E+03  0.27479620058E+03 0.  0.
         25    1    3    3    0    0 -0.57194897320E+02  0.17564305420E+02 -0.14868644402E+03  0.20021843007E+03  0.12000000000E+03 0.  0.
         25    1    3    3    0    0  0.57194897320E+02 -0.17564305420E+02 -0.71822354657E+02  0.15211249696E+03  0.12000000000E+03 0.  0.
<mgrwt>
<rscale>  0 0.27479620E+03</rscale>
<asrwt>0</asrwt>
<pdfrwt beam="1">  1        2 0.44064595E-01 0.27479620E+03</pdfrwt>
<pdfrwt beam="2">  1       -2 0.10140164E-01 0.27479620E+03</pdfrwt>
<totfact> 0.74057348E+03</totfact>
</mgrwt>
</event>
<event>
 5    1  0.1108889E+001  0.2752925E+03  0.7818608E-02  0.1098288E+00
         -1   -1    0    0    0  501 -0.00000000000E+00  0.00000000000E+00  0.23310674123E+02  0.23310674123E+02  0.00000000000E+00 0.  1.
          1   -1    0    0  501    0  0.00000000000E+00 -0.00000000000E+00 -0.81278159838E+03  0.81278159838E+03  0.00000000000E+00 0.  1.
         35    2    1    2    0    0  0.00000000000E+00  0.00000000000E+00 -0.78947092426E+03  0.83609227250E+03  0.27529247700E+03 0.  0.
         25    1    3    3    0    0  0.36475005959E+02 -0.56574882814E+02 -0.40663205953E+03  0.42927936738E+03  0.12000000000E+03 0.  0.
         25    1    3    3    0    0 -0.36475005959E+02  0.56574882814E+02 -0.38283886473E+03  0.40681290512E+03  0.12000000000E+03 0.  0.
<mgrwt>
<rscale>  0 0.27529248E+03</rscale>
<asrwt>0</asrwt>
<pdfrwt beam="1">  1        1 0.12504331E+00 0.27529248E+03</pdfrwt>
<pdfrwt beam="2">  1       -1 0.35862578E-02 0.27529248E+03</pdfrwt>
<totfact> 0.64940719E+03</totfact>
</mgrwt>
</event>
<event>
 5    1  0.1108889E+001  0.2737039E+03  0.7818608E-02  0.1099178E+00
          2   -1    0    0  501    0  0.00000000000E+00  0.00000000000E+00  0.13601273946E+02  0.13601273946E+02  0.00000000000E+00 0.  1.
         -2   -1    0    0    0  501 -0.00000000000E+00 -0.00000000000E+00 -0.13769634214E+04  0.13769634214E+04  0.00000000000E+00 0.  1.
         35    2    1    2    0    0  0.00000000000E+00  0.00000000000E+00 -0.13633621474E+04  0.13905646953E+04  0.27370390357E+03 0.  0.
         25    1    3    3    0    0  0.55254056856E+02  0.35305349227E+02 -0.65433178125E+03  0.66846806837E+03  0.12000000000E+03 0.  0.
         25    1    3    3    0    0 -0.55254056856E+02 -0.35305349227E+02 -0.70903036620E+03  0.72209662697E+03  0.12000000000E+03 0.  0.
<mgrwt>
<rscale>  0 0.27370390E+03</rscale>
<asrwt>0</asrwt>
<pdfrwt beam="1">  1        2 0.20925026E-02 0.27370390E+03</pdfrwt>
<pdfrwt beam="2">  1       -2 0.21184063E+00 0.27370390E+03</pdfrwt>
<totfact> 0.62552001E+02</totfact>
</mgrwt>
</event>
<event>
 5    1  0.1108889E+001  0.2748868E+03  0.7818608E-02  0.1098515E+00
         -2   -1    0    0    0  501 -0.00000000000E+00  0.00000000000E+00  0.11454777846E+02  0.11454777846E+02  0.00000000000E+00 0. -1.
          2   -1    0    0  501    0  0.00000000000E+00 -0.00000000000E+00 -0.16491535200E+04  0.16491535200E+04  0.00000000000E+00 0. -1.
         35    2    1    2    0    0  0.00000000000E+00  0.00000000000E+00 -0.16376987422E+04  0.16606082979E+04  0.27488679275E+03 0.  0.
         25    1    3    3    0    0 -0.27384600459E+02  0.58189304740E+02 -0.93263574275E+03  0.94252073727E+03  0.12000000000E+03 0.  0.
         25    1    3    3    0    0  0.27384600459E+02 -0.58189304740E+02 -0.70506299945E+03  0.71808756063E+03  0.12000000000E+03 0.  0.
<mgrwt>
<rscale>  0 0.27488679E+03</rscale>
<asrwt>0</asrwt>
<pdfrwt beam="1">  1        2 0.25371596E+00 0.27488679E+03</pdfrwt>
<pdfrwt beam="2">  1       -2 0.17622733E-02 0.27488679E+03</pdfrwt>
<totfact> 0.10584643E+04</totfact>
</mgrwt>
</event>
<event>
 5    1  0.1108889E+001  0.2739857E+03  0.7818608E-02  0.1099020E+00
         -1   -1    0    0    0  501 -0.00000000000E+00  0.00000000000E+00  0.13093735969E+03  0.13093735969E+03  0.00000000000E+00 0. -1.
          1   -1    0    0  501    0  0.00000000000E+00 -0.00000000000E+00 -0.14332834658E+03  0.14332834658E+03  0.00000000000E+00 0. -1.
         35    2    1    2    0    0  0.00000000000E+00  0.00000000000E+00 -0.12390986889E+02  0.27426570627E+03  0.27398565853E+03 0.  0.
         25    1    3    3    0    0 -0.43099854140E+02  0.20625610007E+02  0.39502258109E+02  0.13506828499E+03  0.12000000000E+03 0.  0.
         25    1    3    3    0    0  0.43099854140E+02 -0.20625610007E+02 -0.51893244998E+02  0.13919742128E+03  0.12000000000E+03 0.  0.
<mgrwt>
<rscale>  0 0.27398566E+03</rscale>
<asrwt>0</asrwt>
<pdfrwt beam="1">  1        1 0.22050515E-01 0.27398566E+03</pdfrwt>
<pdfrwt beam="2">  1       -1 0.20144209E-01 0.27398566E+03</pdfrwt>
<totfact> 0.44535748E+03</totfact>
</mgrwt>
</event>
<event>
 5    1  0.1108889E+001  0.2739597E+03  0.7818608E-02  0.1099035E+00
         -2   -1    0    0    0  501 -0.00000000000E+00  0.00000000000E+00  0.99257636627E+02  0.99257636627E+02  0.00000000000E+00 0.  1.
          2   -1    0    0  501    0  0.00000000000E+00 -0.00000000000E+00 -0.18903809324E+03  0.18903809324E+03  0.00000000000E+00 0.  1.
         35    2    1    2    0    0  0.00000000000E+00  0.00000000000E+00 -0.89780456608E+02  0.28829572986E+03  0.27395966394E+03 0.  0.
         25    1    3    3    0    0 -0.72702283648E+01 -0.16990615688E+02 -0.11162761914E+03  0.16493108439E+03  0.12000000000E+03 0.  0.
         25    1    3    3    0    0  0.72702283648E+01  0.16990615688E+02  0.21847162537E+02  0.12336464547E+03  0.12000000000E+03 0.  0.
<mgrwt>
<rscale>  0 0.27395966E+03</rscale>
<asrwt>0</asrwt>
<pdfrwt beam="1">  1        2 0.29082783E-01 0.27395966E+03</pdfrwt>
<pdfrwt beam="2">  1       -2 0.15270406E-01 0.27395966E+03</pdfrwt>
<totfact> 0.59853670E+03</totfact>
</mgrwt>
</event>
<event>
 5    1  0.1108889E+001  0.2690316E+03  0.7818608E-02  0.1101835E+00
          2   -1    0    0  501    0  0.00000000000E+00  0.00000000000E+00  0.38021909315E+03  0.38021909315E+03  0.00000000000E+00 0. -1.
         -2   -1    0    0    0  501 -0.00000000000E+00 -0.00000000000E+00 -0.47589650779E+02  0.47589650779E+02  0.00000000000E+00 0. -1.
         35    2    1    2    0    0  0.00000000000E+00  0.00000000000E+00  0.33262944237E+03  0.42780874393E+03  0.26903155103E+03 0.  0.
         25    1    3    3    0    0 -0.57570258025E+02 -0.17483566495E+02  0.18003864797E+03  0.22457498629E+03  0.12000000000E+03 0.  0.
         25    1    3    3    0    0  0.57570258025E+02  0.17483566495E+02  0.15259079440E+03  0.20323375764E+03  0.12000000000E+03 0.  0.
<mgrwt>
<rscale>  0 0.26903155E+03</rscale>
<asrwt>0</asrwt>
<pdfrwt beam="1">  1        2 0.58495243E-01 0.26903155E+03</pdfrwt>
<pdfrwt beam="2">  1       -2 0.73214850E-02 0.26903155E+03</pdfrwt>
<totfact> 0.90955208E+03</totfact>
</mgrwt>
</event>
<event>
 5    1  0.1108889E+001  0.2740341E+03  0.7818608E-02  0.1098993E+00
          1   -1    0    0  501    0  0.00000000000E+00  0.00000000000E+00  0.28323707137E+03  0.28323707137E+03  0.00000000000E+00 0.  1.
         -1   -1    0    0    0  501 -0.00000000000E+00 -0.00000000000E+00 -0.66282529383E+02  0.66282529383E+02  0.00000000000E+00 0.  1.
         35    2    1    2    0    0  0.00000000000E+00  0.00000000000E+00  0.21695454198E+03  0.34951960075E+03  0.27403408186E+03 0.  0.
         25    1    3    3    0    0  0.47439233939E+02  0.24105832927E+02  0.58390520183E+02  0.14366984703E+03  0.12000000000E+03 0.  0.
         25    1    3    3    0    0 -0.47439233939E+02 -0.24105832927E+02  0.15856402180E+03  0.20584975372E+03  0.12000000000E+03 0.  0.
<mgrwt>
<rscale>  0 0.27403408E+03</rscale>
<asrwt>0</asrwt>
<pdfrwt beam="1">  1        1 0.43574933E-01 0.27403408E+03</pdfrwt>
<pdfrwt beam="2">  1       -1 0.10197312E-01 0.27403408E+03</pdfrwt>
<totfact> 0.55346793E+03</totfact>
</mgrwt>
</event>
<event>
 5    1  0.1108889E+001  0.2748727E+03  0.7818608E-02  0.1098523E+00
         -4   -1    0    0    0  501 -0.00000000000E+00  0.00000000000E+00  0.16707073685E+03  0.16707073685E+03  0.00000000000E+00 0. -1.
          4   -1    0    0  501    0  0.00000000000E+00 -0.00000000000E+00 -0.11305836850E+03  0.11305836850E+03  0.00000000000E+00 0. -1.
         35    2    1    2    0    0  0.00000000000E+00  0.00000000000E+00  0.54012368349E+02  0.28012910535E+03  0.27487266093E+03 0.  0.
         25    1    3    3    0    0 -0.20393849674E+02  0.63815271556E+02  0.27687507338E+02  0.14019592024E+03  0.12000000000E+03 0.  0.
         25    1    3    3    0    0  0.20393849674E+02 -0.63815271556E+02  0.26324861011E+02  0.13993318511E+03  0.12000000000E+03 0.  0.
<mgrwt>
<rscale>  0 0.27487266E+03</rscale>
<asrwt>0</asrwt>
<pdfrwt beam="1">  1        4 0.17393595E-01 0.27487266E+03</pdfrwt>
<pdfrwt beam="2">  1       -4 0.25703190E-01 0.27487266E+03</pdfrwt>
<totfact> 0.77372923E+02</totfact>
</mgrwt>
</event>
<event>
 5    1  0.1108889E+001  0.2748661E+03  0.7818608E-02  0.1098526E+00
         -1   -1    0    0    0  501 -0.00000000000E+00  0.00000000000E+00  0.47800167385E+02  0.47800167385E+02  0.00000000000E+00 0. -1.
          1   -1    0    0  501    0  0.00000000000E+00 -0.00000000000E+00 -0.39514169266E+03  0.39514169266E+03  0.00000000000E+00 0. -1.
         35    2    1    2    0    0  0.00000000000E+00  0.00000000000E+00 -0.34734152528E+03  0.44294186005E+03  0.27486606957E+03 0.  0.
         25    1    3    3    0    0  0.22459429333E+02  0.40012586230E+02 -0.25232705702E+03  0.28315080210E+03  0.12000000000E+03 0.  0.
         25    1    3    3    0    0 -0.22459429333E+02 -0.40012586230E+02 -0.95014468253E+02  0.15979105795E+03  0.12000000000E+03 0.  0.
<mgrwt>
<rscale>  0 0.27486607E+03</rscale>
<asrwt>0</asrwt>
<pdfrwt beam="1">  1        1 0.60791029E-01 0.27486607E+03</pdfrwt>
<pdfrwt beam="2">  1       -1 0.73538719E-02 0.27486607E+03</pdfrwt>
<totfact> 0.59961842E+03</totfact>
</mgrwt>
</event>
<event>
 5    1  0.1108889E+001  0.2749991E+03  0.7818608E-02  0.1098452E+00
         -2   -1    0    0    0  501 -0.00000000000E+00  0.00000000000E+00  0.47426124313E+02  0.47426124313E+02  0.00000000000E+00 0.  1.
          2   -1    0    0  501    0  0.00000000000E+00 -0.00000000000E+00 -0.39864363141E+03  0.39864363141E+03  0.00000000000E+00 0.  1.
         35    2    1    2    0    0  0.00000000000E+00  0.00000000000E+00 -0.35121750710E+03  0.44606975572E+03  0.27499907214E+03 0.  0.
         25    1    3    3    0    0 -0.23253434788E+02  0.28027556956E+02 -0.26707804039E+03  0.29505414051E+03  0.12000000000E+03 0.  0.
         25    1    3    3    0    0  0.23253434788E+02 -0.28027556956E+02 -0.84139466713E+02  0.15101561521E+03  0.12000000000E+03 0.  0.
<mgrwt>
<rscale>  0 0.27499907E+03</rscale>
<asrwt>0</asrwt>
<pdfrwt beam="1">  1        2 0.61329788E-01 0.27499907E+03</pdfrwt>
<pdfrwt beam="2">  1       -2 0.72963269E-02 0.27499907E+03</pdfrwt>
<totfact> 0.86944738E+03</totfact>
</mgrwt>
</event>
<event>
 5    1  0.1108889E+001  0.2748222E+03  0.7818608E-02  0.1098551E+00
         -4   -1    0    0    0  501 -0.00000000000E+00  0.00000000000E+00  0.55523029261E+02  0.55523029261E+02  0.00000000000E+00 0.  1.
          4   -1    0    0  501    0  0.00000000000E+00 -0.00000000000E+00 -0.34007173665E+03  0.34007173665E+03  0.00000000000E+00 0.  1.
         35    2    1    2    0    0  0.00000000000E+00  0.00000000000E+00 -0.28454870739E+03  0.39559476591E+03  0.27482221879E+03 0.  0.
         25    1    3    3    0    0 -0.29572739775E+02 -0.40846703697E+02 -0.78892251500E+02  0.15220705466E+03  0.12000000000E+03 0.  0.
         25    1    3    3    0    0  0.29572739775E+02  0.40846703697E+02 -0.20565645589E+03  0.24338771126E+03  0.12000000000E+03 0.  0.
<mgrwt>
<rscale>  0 0.27482222E+03</rscale>
<asrwt>0</asrwt>
<pdfrwt beam="1">  1        4 0.52318729E-01 0.27482222E+03</pdfrwt>
<pdfrwt beam="2">  1       -4 0.85420045E-02 0.27482222E+03</pdfrwt>
<totfact> 0.65529739E+02</totfact>
</mgrwt>
</event>
<event>
 5    1  0.1108889E+001  0.2749629E+03  0.7818608E-02  0.1098472E+00
         -3   -1    0    0    0  501 -0.00000000000E+00  0.00000000000E+00  0.12761126617E+03  0.12761126617E+03  0.00000000000E+00 0. -1.
          3   -1    0    0  501    0  0.00000000000E+00 -0.00000000000E+00 -0.14811505983E+03  0.14811505983E+03  0.00000000000E+00 0. -1.
         35    2    1    2    0    0  0.00000000000E+00  0.00000000000E+00 -0.20503793662E+02  0.27572632600E+03  0.27496290894E+03 0.  0.
         25    1    3    3    0    0 -0.20058170435E+02  0.36808604085E+02  0.42276235893E+02  0.13395702168E+03  0.12000000000E+03 0.  0.
         25    1    3    3    0    0  0.20058170435E+02 -0.36808604085E+02 -0.62780029555E+02  0.14176930432E+03  0.12000000000E+03 0.  0.
<mgrwt>
<rscale>  0 0.27496291E+03</rscale>
<asrwt>0</asrwt>
<pdfrwt beam="1">  1        3 0.22786932E-01 0.27496291E+03</pdfrwt>
<pdfrwt beam="2">  1       -3 0.19632502E-01 0.27496291E+03</pdfrwt>
<totfact> 0.10482420E+03</totfact>
</mgrwt>
</event>
<event>
 5    1  0.1108889E+001  0.2748912E+03  0.7818608E-02  0.1098512E+00
         -1   -1    0    0    0  501 -0.00000000000E+00  0.00000000000E+00  0.16190591026E+02  0.16190591026E+02  0.00000000000E+00 0. -1.
          1   -1    0    0  501    0  0.00000000000E+00 -0.00000000000E+00 -0.11668072241E+04  0.11668072241E+04  0.00000000000E+00 0. -1.
         35    2    1    2    0    0  0.00000000000E+00  0.00000000000E+00 -0.11506166330E+04  0.11829978151E+04  0.27489124083E+03 0.  0.
         25    1    3    3    0    0 -0.30791060553E+02 -0.54116100667E+02 -0.68200216723E+03  0.69527231922E+03  0.12000000000E+03 0.  0.
         25    1    3    3    0    0  0.30791060553E+02  0.54116100667E+02 -0.46861446581E+03  0.48772549587E+03  0.12000000000E+03 0.  0.
<mgrwt>
<rscale>  0 0.27489124E+03</rscale>
<asrwt>0</asrwt>
<pdfrwt beam="1">  1        1 0.17950880E+00 0.27489124E+03</pdfrwt>
<pdfrwt beam="2">  1       -1 0.24908602E-02 0.27489124E+03</pdfrwt>
<totfact> 0.59989110E+03</totfact>
</mgrwt>
</event>
<event>
 5    1  0.1108889E+001  0.2748980E+03  0.7818608E-02  0.1098509E+00
         -2   -1    0    0    0  501 -0.00000000000E+00  0.00000000000E+00  0.37607338863E+02  0.37607338863E+02  0.00000000000E+00 0. -1.
          2   -1    0    0  501    0  0.00000000000E+00 -0.00000000000E+00 -0.50235467293E+03  0.50235467293E+03  0.00000000000E+00 0. -1.
         35    2    1    2    0    0  0.00000000000E+00  0.00000000000E+00 -0.46474733407E+03  0.53996201180E+03  0.27489796227E+03 0.  0.
         25    1    3    3    0    0  0.86475112112E+00  0.14836511595E+02 -0.36074687536E+03  0.38047230905E+03  0.12000000000E+03 0.  0.
         25    1    3    3    0    0 -0.86475112112E+00 -0.14836511595E+02 -0.10400045871E+03  0.15948970275E+03  0.12000000000E+03 0.  0.
<mgrwt>
<rscale>  0 0.27489796E+03</rscale>
<asrwt>0</asrwt>
<pdfrwt beam="1">  1        2 0.77285334E-01 0.27489796E+03</pdfrwt>
<pdfrwt beam="2">  1       -2 0.57857445E-02 0.27489796E+03</pdfrwt>
<totfact> 0.96372159E+03</totfact>
</mgrwt>
</event>
<event>
 5    1  0.1108889E+001  0.2744970E+03  0.7818608E-02  0.1098733E+00
          2   -1    0    0  501    0  0.00000000000E+00  0.00000000000E+00  0.14090573479E+04  0.14090573479E+04  0.00000000000E+00 0. -1.
         -2   -1    0    0    0  501 -0.00000000000E+00 -0.00000000000E+00 -0.13368618762E+02  0.13368618762E+02  0.00000000000E+00 0. -1.
         35    2    1    2    0    0  0.00000000000E+00  0.00000000000E+00  0.13956887291E+04  0.14224259666E+04  0.27449699815E+03 0.  0.
         25    1    3    3    0    0  0.44756886985E+02  0.10550850325E+02  0.94758203873E+03  0.95625635658E+03  0.12000000000E+03 0.  0.
         25    1    3    3    0    0 -0.44756886985E+02 -0.10550850325E+02  0.44810669037E+03  0.46616961005E+03  0.12000000000E+03 0.  0.
<mgrwt>
<rscale>  0 0.27449700E+03</rscale>
<asrwt>0</asrwt>
<pdfrwt beam="1">  1        2 0.21677794E+00 0.27449700E+03</pdfrwt>
<pdfrwt beam="2">  1       -2 0.20567117E-02 0.27449700E+03</pdfrwt>
<totfact> 0.11331178E+04</totfact>
</mgrwt>
</event>
<event>
 5    1  0.1108889E+001  0.2734142E+03  0.7818608E-02  0.1099341E+00
          1   -1    0    0  501    0  0.00000000000E+00  0.00000000000E+00  0.21567823813E+03  0.21567823813E+03  0.00000000000E+00 0. -1.
         -1   -1    0    0    0  501 -0.00000000000E+00 -0.00000000000E+00 -0.86651456033E+02  0.86651456033E+02  0.00000000000E+00 0. -1.
         35    2    1    2    0    0  0.00000000000E+00  0.00000000000E+00  0.12902678210E+03  0.30232969416E+03  0.27341421593E+03 0.  0.
         25    1    3    3    0    0 -0.49639085312E+02  0.18567205409E+02  0.21973300048E+02  0.13300979596E+03  0.12000000000E+03 0.  0.
         25    1    3    3    0    0  0.49639085312E+02 -0.18567205409E+02  0.10705348205E+03  0.16931989820E+03  0.12000000000E+03 0.  0.
<mgrwt>
<rscale>  0 0.27341422E+03</rscale>
<asrwt>0</asrwt>
<pdfrwt beam="1">  1        1 0.33181267E-01 0.27341422E+03</pdfrwt>
<pdfrwt beam="2">  1       -1 0.13330993E-01 0.27341422E+03</pdfrwt>
<totfact> 0.51305803E+03</totfact>
</mgrwt>
</event>
<event>
 5    1  0.1108889E+001  0.2759606E+03  0.7818608E-02  0.1097916E+00
         -2   -1    0    0    0  501 -0.00000000000E+00  0.00000000000E+00  0.10697427737E+02  0.10697427737E+02  0.00000000000E+00 0.  1.
          2   -1    0    0  501    0  0.00000000000E+00 -0.00000000000E+00 -0.17797331874E+04  0.17797331874E+04  0.00000000000E+00 0.  1.
         35    2    1    2    0    0  0.00000000000E+00  0.00000000000E+00 -0.17690357597E+04  0.17904306151E+04  0.27596062881E+03 0.  0.
         25    1    3    3    0    0  0.17842681354E+02 -0.61348017242E+02 -0.73144707218E+03  0.74397362850E+03  0.12000000000E+03 0.  0.
         25    1    3    3    0    0 -0.17842681354E+02  0.61348017242E+02 -0.10375886875E+04  0.10464569867E+04  0.12000000000E+03 0.  0.
<mgrwt>
<rscale>  0 0.27596063E+03</rscale>
<asrwt>0</asrwt>
<pdfrwt beam="1">  1        2 0.27380505E+00 0.27596063E+03</pdfrwt>
<pdfrwt beam="2">  1       -2 0.16457585E-02 0.27596063E+03</pdfrwt>
<totfact> 0.99889017E+03</totfact>
</mgrwt>
</event>
<event>
 5    1  0.1108889E+001  0.2737151E+03  0.7818608E-02  0.1099172E+00
          2   -1    0    0  501    0  0.00000000000E+00  0.00000000000E+00  0.13249882409E+04  0.13249882409E+04  0.00000000000E+00 0. -1.
         -2   -1    0    0    0  501 -0.00000000000E+00 -0.00000000000E+00 -0.14135971244E+02  0.14135971244E+02  0.00000000000E+00 0. -1.
         35    2    1    2    0    0  0.00000000000E+00  0.00000000000E+00  0.13108522696E+04  0.13391242121E+04  0.27371514881E+03 0.  0.
         25    1    3    3    0    0 -0.58276515865E+02 -0.17479773378E+02  0.77805871532E+03  0.78960563528E+03  0.12000000000E+03 0.  0.
         25    1    3    3    0    0  0.58276515865E+02  0.17479773378E+02  0.53279355433E+03  0.54951857686E+03  0.12000000000E+03 0.  0.
<mgrwt>
<rscale>  0 0.27371515E+03</rscale>
<asrwt>0</asrwt>
<pdfrwt beam="1">  1        2 0.20384425E+00 0.27371515E+03</pdfrwt>
<pdfrwt beam="2">  1       -2 0.21747658E-02 0.27371515E+03</pdfrwt>
<totfact> 0.11600035E+04</totfact>
</mgrwt>
</event>
<event>
 5    1  0.1108889E+001  0.2745880E+03  0.7818608E-02  0.1098682E+00
          2   -1    0    0  501    0  0.00000000000E+00  0.00000000000E+00  0.50511302735E+02  0.50511302735E+02  0.00000000000E+00 0.  1.
         -2   -1    0    0    0  501 -0.00000000000E+00 -0.00000000000E+00 -0.37317667143E+03  0.37317667143E+03  0.00000000000E+00 0.  1.
         35    2    1    2    0    0  0.00000000000E+00  0.00000000000E+00 -0.32266536869E+03  0.42368797416E+03  0.27458798098E+03 0.  0.
         25    1    3    3    0    0  0.59418661046E+01  0.38771740786E+02 -0.78081169658E+02  0.14844265799E+03  0.12000000000E+03 0.  0.
         25    1    3    3    0    0 -0.59418661046E+01 -0.38771740786E+02 -0.24458419903E+03  0.27524531617E+03  0.12000000000E+03 0.  0.
<mgrwt>
<rscale>  0 0.27458798E+03</rscale>
<asrwt>0</asrwt>
<pdfrwt beam="1">  1        2 0.77709698E-02 0.27458798E+03</pdfrwt>
<pdfrwt beam="2">  1       -2 0.57411795E-01 0.27458798E+03</pdfrwt>
<totfact> 0.25499732E+03</totfact>
</mgrwt>
</event>
<event>
 5    1  0.1108889E+001  0.2766978E+03  0.7818608E-02  0.1097506E+00
         -1   -1    0    0    0  501 -0.00000000000E+00  0.00000000000E+00  0.13181900125E+03  0.13181900125E+03  0.00000000000E+00 0. -1.
          1   -1    0    0  501    0  0.00000000000E+00 -0.00000000000E+00 -0.14520227821E+03  0.14520227821E+03  0.00000000000E+00 0. -1.
         35    2    1    2    0    0  0.00000000000E+00  0.00000000000E+00 -0.13383276960E+02  0.27702127946E+03  0.27669780840E+03 0.  0.
         25    1    3    3    0    0  0.29063554592E+01 -0.35076725754E+02  0.52551821109E+02  0.13564850716E+03  0.12000000000E+03 0.  0.
         25    1    3    3    0    0 -0.29063554592E+01  0.35076725754E+02 -0.65935098068E+02  0.14137277230E+03  0.12000000000E+03 0.  0.
<mgrwt>
<rscale>  0 0.27669781E+03</rscale>
<asrwt>0</asrwt>
<pdfrwt beam="1">  1        1 0.22338812E-01 0.27669781E+03</pdfrwt>
<pdfrwt beam="2">  1       -1 0.20279846E-01 0.27669781E+03</pdfrwt>
<totfact> 0.43338272E+03</totfact>
</mgrwt>
</event>
<event>
 5    1  0.1108889E+001  0.2756365E+03  0.7818608E-02  0.1098096E+00
          2   -1    0    0  501    0  0.00000000000E+00  0.00000000000E+00  0.66164107396E+03  0.66164107396E+03  0.00000000000E+00 0.  1.
         -2   -1    0    0    0  501 -0.00000000000E+00 -0.00000000000E+00 -0.28707208111E+02  0.28707208111E+02  0.00000000000E+00 0.  1.
         35    2    1    2    0    0  0.00000000000E+00  0.00000000000E+00  0.63293386584E+03  0.69034828207E+03  0.27563648528E+03 0.  0.
         25    1    3    3    0    0 -0.62487926758E+02 -0.23244905189E+02  0.28591525623E+03  0.31716336540E+03  0.12000000000E+03 0.  0.
         25    1    3    3    0    0  0.62487926758E+02  0.23244905189E+02  0.34701860962E+03  0.37318491667E+03  0.12000000000E+03 0.  0.
<mgrwt>
<rscale>  0 0.27563649E+03</rscale>
<asrwt>0</asrwt>
<pdfrwt beam="1">  1        2 0.10179092E+00 0.27563649E+03</pdfrwt>
<pdfrwt beam="2">  1       -2 0.44164941E-02 0.27563649E+03</pdfrwt>
<totfact> 0.10580113E+04</totfact>
</mgrwt>
</event>
<event>
 5    1  0.1108889E+001  0.2809677E+03  0.7818608E-02  0.1095162E+00
          2   -1    0    0  501    0  0.00000000000E+00  0.00000000000E+00  0.10211032055E+04  0.10211032055E+04  0.00000000000E+00 0.  1.
         -2   -1    0    0    0  501 -0.00000000000E+00 -0.00000000000E+00 -0.19327833915E+02  0.19327833915E+02  0.00000000000E+00 0.  1.
         35    2    1    2    0    0  0.00000000000E+00  0.00000000000E+00  0.10017753716E+04  0.10404310394E+04  0.28096770751E+03 0.  0.
         25    1    3    3    0    0 -0.18476615384E+02  0.12179916210E+02  0.75866671771E+03  0.76841715509E+03  0.12000000000E+03 0.  0.
         25    1    3    3    0    0  0.18476615384E+02 -0.12179916210E+02  0.24310865384E+03  0.27201388429E+03  0.12000000000E+03 0.  0.
<mgrwt>
<rscale>  0 0.28096771E+03</rscale>
<asrwt>0</asrwt>
<pdfrwt beam="1">  1        2 0.15709276E+00 0.28096771E+03</pdfrwt>
<pdfrwt beam="2">  1       -2 0.29735137E-02 0.28096771E+03</pdfrwt>
<totfact> 0.10921842E+04</totfact>
</mgrwt>
</event>
<event>
 5    1  0.1108889E+001  0.2699433E+03  0.7818608E-02  0.1101312E+00
         -2   -1    0    0    0  501 -0.00000000000E+00  0.00000000000E+00  0.97565311662E+02  0.97565311662E+02  0.00000000000E+00 0.  1.
          2   -1    0    0  501    0  0.00000000000E+00 -0.00000000000E+00 -0.18671954686E+03  0.18671954686E+03  0.00000000000E+00 0.  1.
         35    2    1    2    0    0  0.00000000000E+00  0.00000000000E+00 -0.89154235196E+02  0.28428485852E+03  0.26994333318E+03 0.  0.
         25    1    3    3    0    0  0.10119845734E+02  0.59950512944E+02 -0.56155563470E+02  0.14577353185E+03  0.12000000000E+03 0.  0.
         25    1    3    3    0    0 -0.10119845734E+02 -0.59950512944E+02 -0.32998671727E+02  0.13851132667E+03  0.12000000000E+03 0.  0.
<mgrwt>
<rscale>  0 0.26994333E+03</rscale>
<asrwt>0</asrwt>
<pdfrwt beam="1">  1        2 0.28726084E-01 0.26994333E+03</pdfrwt>
<pdfrwt beam="2">  1       -2 0.15010048E-01 0.26994333E+03</pdfrwt>
<totfact> 0.62387912E+03</totfact>
</mgrwt>
</event>
<event>
 4    1  0.1108889E+001  0.2982253E+03  0.7818608E-02  0.1086131E+00
         -4   -1    0    0    0  501 -0.00000000000E+00  0.00000000000E+00  0.21975388255E+03  0.21975388255E+03  0.00000000000E+00 0. -1.
          4   -1    0    0  501    0  0.00000000000E+00 -0.00000000000E+00 -0.10117947122E+03  0.10117947122E+03  0.00000000000E+00 0. -1.
         25    1    1    2    0    0  0.43900343982E+02  0.20690555791E+02 -0.20371020650E+02  0.13103555923E+03  0.12000000000E+03 0.  0.
         25    1    1    2    0    0 -0.43900343982E+02 -0.20690555791E+02  0.13894543198E+03  0.18989779453E+03  0.12000000000E+03 0.  0.
<mgrwt>
<rscale>  0 0.29822529E+03</rscale>
<asrwt>0</asrwt>
<pdfrwt beam="1">  1        4 0.15566073E-01 0.29822529E+03</pdfrwt>
<pdfrwt beam="2">  1       -4 0.33808290E-01 0.29822529E+03</pdfrwt>
<totfact> 0.56528619E+02</totfact>
</mgrwt>
</event>
<event>
 5    1  0.1108889E+001  0.2744901E+03  0.7818608E-02  0.1098737E+00
         -2   -1    0    0    0  501 -0.00000000000E+00  0.00000000000E+00  0.31557938764E+02  0.31557938764E+02  0.00000000000E+00 0.  1.
          2   -1    0    0  501    0  0.00000000000E+00 -0.00000000000E+00 -0.59687676853E+03  0.59687676853E+03  0.00000000000E+00 0.  1.
         35    2    1    2    0    0  0.00000000000E+00  0.00000000000E+00 -0.56531882977E+03  0.62843470730E+03  0.27449007640E+03 0.  0.
         25    1    3    3    0    0  0.44418843225E+01 -0.60053455434E+02 -0.34782077515E+03  0.37283433247E+03  0.12000000000E+03 0.  0.
         25    1    3    3    0    0 -0.44418843225E+01  0.60053455434E+02 -0.21749805462E+03  0.25560037482E+03  0.12000000000E+03 0.  0.
<mgrwt>
<rscale>  0 0.27449008E+03</rscale>
<asrwt>0</asrwt>
<pdfrwt beam="1">  1        2 0.91827196E-01 0.27449008E+03</pdfrwt>
<pdfrwt beam="2">  1       -2 0.48550675E-02 0.27449008E+03</pdfrwt>
<totfact> 0.10345917E+04</totfact>
</mgrwt>
</event>
<event>
 5    1  0.1108889E+001  0.2762222E+03  0.7818608E-02  0.1097770E+00
          1   -1    0    0  501    0  0.00000000000E+00  0.00000000000E+00  0.19099285306E+04  0.19099285306E+04  0.00000000000E+00 0. -1.
         -1   -1    0    0    0  501 -0.00000000000E+00 -0.00000000000E+00 -0.99871119939E+01  0.99871119939E+01  0.00000000000E+00 0. -1.
         35    2    1    2    0    0  0.00000000000E+00  0.00000000000E+00  0.18999414186E+04  0.19199156426E+04  0.27622215795E+03 0.  0.
         25    1    3    3    0    0  0.35607640887E+02 -0.26801917617E+02  0.13103604798E+04  0.13165982052E+04  0.12000000000E+03 0.  0.
         25    1    3    3    0    0 -0.35607640887E+02  0.26801917617E+02  0.58958093883E+03  0.60331743743E+03  0.12000000000E+03 0.  0.
<mgrwt>
<rscale>  0 0.27622216E+03</rscale>
<asrwt>0</asrwt>
<pdfrwt beam="1">  1        1 0.29383487E+00 0.27622216E+03</pdfrwt>
<pdfrwt beam="2">  1       -1 0.15364803E-02 0.27622216E+03</pdfrwt>
<totfact> 0.38903742E+03</totfact>
</mgrwt>
</event>
<event>
 5    1  0.1108889E+001  0.2757023E+03  0.7818608E-02  0.1098060E+00
          1   -1    0    0  501    0  0.00000000000E+00  0.00000000000E+00  0.32307301189E+03  0.32307301189E+03  0.00000000000E+00 0.  1.
         -1   -1    0    0    0  501 -0.00000000000E+00 -0.00000000000E+00 -0.58819350523E+02  0.58819350523E+02  0.00000000000E+00 0.  1.
         35    2    1    2    0    0  0.00000000000E+00  0.00000000000E+00  0.26425366137E+03  0.38189236241E+03  0.27570233754E+03 0.  0.
         25    1    3    3    0    0 -0.40550121438E+02  0.10281596280E+02  0.20611212566E+03  0.24214093399E+03  0.12000000000E+03 0.  0.
         25    1    3    3    0    0  0.40550121438E+02 -0.10281596280E+02  0.58141535703E+02  0.13975142842E+03  0.12000000000E+03 0.  0.
<mgrwt>
<rscale>  0 0.27570234E+03</rscale>
<asrwt>0</asrwt>
<pdfrwt beam="1">  1        1 0.49703539E-01 0.27570234E+03</pdfrwt>
<pdfrwt beam="2">  1       -1 0.90491310E-02 0.27570234E+03</pdfrwt>
<totfact> 0.56398804E+03</totfact>
</mgrwt>
</event>
<event>
 5    1  0.1108889E+001  0.2745236E+03  0.7818608E-02  0.1098718E+00
          2   -1    0    0  501    0  0.00000000000E+00  0.00000000000E+00  0.27666958115E+03  0.27666958115E+03  0.00000000000E+00 0. -1.
         -2   -1    0    0    0  501 -0.00000000000E+00 -0.00000000000E+00 -0.68098558479E+02  0.68098558479E+02  0.00000000000E+00 0. -1.
         35    2    1    2    0    0  0.00000000000E+00  0.00000000000E+00  0.20857102267E+03  0.34476813963E+03  0.27452358479E+03 0.  0.
         25    1    3    3    0    0  0.55382285217E+02 -0.86654117589E+01  0.59030093679E+02  0.14500634068E+03  0.12000000000E+03 0.  0.
         25    1    3    3    0    0 -0.55382285217E+02  0.86654117589E+01  0.14954092899E+03  0.19976179895E+03  0.12000000000E+03 0.  0.
<mgrwt>
<rscale>  0 0.27452358E+03</rscale>
<asrwt>0</asrwt>
<pdfrwt beam="1">  1        2 0.42564550E-01 0.27452358E+03</pdfrwt>
<pdfrwt beam="2">  1       -2 0.10476701E-01 0.27452358E+03</pdfrwt>
<totfact> 0.72969017E+03</totfact>
</mgrwt>
</event>
<event>
 5    1  0.1108889E+001  0.2713119E+03  0.7818608E-02  0.1100531E+00
         -2   -1    0    0    0  501 -0.00000000000E+00  0.00000000000E+00  0.38784648464E+03  0.38784648464E+03  0.00000000000E+00 0.  1.
          2   -1    0    0  501    0  0.00000000000E+00 -0.00000000000E+00 -0.47447995166E+02  0.47447995166E+02  0.00000000000E+00 0.  1.
         35    2    1    2    0    0  0.00000000000E+00  0.00000000000E+00  0.34039848947E+03  0.43529447981E+03  0.27131191001E+03 0.  0.
         25    1    3    3    0    0  0.59142057985E+02  0.41466709822E+01  0.20562576004E+03  0.24535062889E+03  0.12000000000E+03 0.  0.
         25    1    3    3    0    0 -0.59142057985E+02 -0.41466709822E+01  0.13477272943E+03  0.18994385092E+03  0.12000000000E+03 0.  0.
<mgrwt>
<rscale>  0 0.27131191E+03</rscale>
<asrwt>0</asrwt>
<pdfrwt beam="1">  1        2 0.72996918E-02 0.27131191E+03</pdfrwt>
<pdfrwt beam="2">  1       -2 0.59668688E-01 0.27131191E+03</pdfrwt>
<totfact> 0.25504703E+03</totfact>
</mgrwt>
</event>
<event>
 5    1  0.1108889E+001  0.2752012E+03  0.7818608E-02  0.1098339E+00
          2   -1    0    0  501    0  0.00000000000E+00  0.00000000000E+00  0.12903371392E+04  0.12903371392E+04  0.00000000000E+00 0. -1.
         -2   -1    0    0    0  501 -0.00000000000E+00 -0.00000000000E+00 -0.14673627292E+02  0.14673627292E+02  0.00000000000E+00 0. -1.
         35    2    1    2    0    0  0.00000000000E+00  0.00000000000E+00  0.12756635119E+04  0.13050107665E+04  0.27520120830E+03 0.  0.
         25    1    3    3    0    0  0.51608998023E+02  0.35489364209E+02  0.75504156747E+03  0.76707936504E+03  0.12000000000E+03 0.  0.
         25    1    3    3    0    0 -0.51608998023E+02 -0.35489364209E+02  0.52062194448E+03  0.53793140150E+03  0.12000000000E+03 0.  0.
<mgrwt>
<rscale>  0 0.27520121E+03</rscale>
<asrwt>0</asrwt>
<pdfrwt beam="1">  1        2 0.19851332E+00 0.27520121E+03</pdfrwt>
<pdfrwt beam="2">  1       -2 0.22574821E-02 0.27520121E+03</pdfrwt>
<totfact> 0.11475268E+04</totfact>
</mgrwt>
</event>
<event>
 5    1  0.1108889E+001  0.2727878E+03  0.7818608E-02  0.1099695E+00
          4   -1    0    0  501    0  0.00000000000E+00  0.00000000000E+00  0.28650659703E+02  0.28650659703E+02  0.00000000000E+00 0. -1.
         -4   -1    0    0    0  501 -0.00000000000E+00 -0.00000000000E+00 -0.64931487234E+03  0.64931487234E+03  0.00000000000E+00 0. -1.
         35    2    1    2    0    0  0.00000000000E+00  0.00000000000E+00 -0.62066421264E+03  0.67796553205E+03  0.27278782559E+03 0.  0.
         25    1    3    3    0    0  0.32716431520E+02  0.28071466445E+02 -0.18998176543E+03  0.22880437784E+03  0.12000000000E+03 0.  0.
         25    1    3    3    0    0 -0.32716431520E+02 -0.28071466445E+02 -0.43068244720E+03  0.44916115421E+03  0.12000000000E+03 0.  0.
<mgrwt>
<rscale>  0 0.27278783E+03</rscale>
<asrwt>0</asrwt>
<pdfrwt beam="1">  1        4 0.44077938E-02 0.27278783E+03</pdfrwt>
<pdfrwt beam="2">  1       -4 0.99894595E-01 0.27278783E+03</pdfrwt>
<totfact> 0.46868463E+02</totfact>
</mgrwt>
</event>
<event>
 5    1  0.1108889E+001  0.2748154E+03  0.7818608E-02  0.1098555E+00
          2   -1    0    0  501    0  0.00000000000E+00  0.00000000000E+00  0.48135921085E+03  0.48135921085E+03  0.00000000000E+00 0. -1.
         -2   -1    0    0    0  501 -0.00000000000E+00 -0.00000000000E+00 -0.39224075642E+02  0.39224075642E+02  0.00000000000E+00 0. -1.
         35    2    1    2    0    0  0.00000000000E+00  0.00000000000E+00  0.44213513521E+03  0.52058328649E+03  0.27481535690E+03 0.  0.
         25    1    3    3    0    0  0.22367187435E+02 -0.45419102027E+02  0.13811348449E+03  0.18983814291E+03  0.12000000000E+03 0.  0.
         25    1    3    3    0    0 -0.22367187435E+02  0.45419102027E+02  0.30402165071E+03  0.33074514358E+03  0.12000000000E+03 0.  0.
<mgrwt>
<rscale>  0 0.27481536E+03</rscale>
<asrwt>0</asrwt>
<pdfrwt beam="1">  1        2 0.74055259E-01 0.27481536E+03</pdfrwt>
<pdfrwt beam="2">  1       -2 0.60344735E-02 0.27481536E+03</pdfrwt>
<totfact> 0.94757439E+03</totfact>
</mgrwt>
</event>
<event>
 5    1  0.1108889E+001  0.2753355E+03  0.7818608E-02  0.1098264E+00
          2   -1    0    0  501    0  0.00000000000E+00  0.00000000000E+00  0.17911767013E+03  0.17911767013E+03  0.00000000000E+00 0.  1.
         -2   -1    0    0    0  501 -0.00000000000E+00 -0.00000000000E+00 -0.10580984759E+03  0.10580984759E+03  0.00000000000E+00 0.  1.
         35    2    1    2    0    0  0.00000000000E+00  0.00000000000E+00  0.73307822538E+02  0.28492751772E+03  0.27533552896E+03 0.  0.
         25    1    3    3    0    0  0.22206720030E+02  0.63522341171E+02  0.31564537409E+02  0.14115433491E+03  0.12000000000E+03 0.  0.
         25    1    3    3    0    0 -0.22206720030E+02 -0.63522341171E+02  0.41743285129E+02  0.14377318281E+03  0.12000000000E+03 0.  0.
<mgrwt>
<rscale>  0 0.27533553E+03</rscale>
<asrwt>0</asrwt>
<pdfrwt beam="1">  1        2 0.27556565E-01 0.27533553E+03</pdfrwt>
<pdfrwt beam="2">  1       -2 0.16278438E-01 0.27533553E+03</pdfrwt>
<totfact> 0.57131194E+03</totfact>
</mgrwt>
</event>
<event>
 5    1  0.1108889E+001  0.2814756E+03  0.7818608E-02  0.1094886E+00
          2   -1    0    0  501    0  0.00000000000E+00  0.00000000000E+00  0.57258937763E+02  0.57258937763E+02  0.00000000000E+00 0. -1.
         -2   -1    0    0    0  501 -0.00000000000E+00 -0.00000000000E+00 -0.34592213935E+03  0.34592213935E+03  0.00000000000E+00 0. -1.
         35    2    1    2    0    0  0.00000000000E+00  0.00000000000E+00 -0.28866320158E+03  0.40318107711E+03  0.28147564191E+03 0.  0.
         25    1    3    3    0    0 -0.58268346993E+02  0.44239549985E+02 -0.13372845928E+03  0.19399906924E+03  0.12000000000E+03 0.  0.
         25    1    3    3    0    0  0.58268346993E+02 -0.44239549985E+02 -0.15493474230E+03  0.20918200787E+03  0.12000000000E+03 0.  0.
<mgrwt>
<rscale>  0 0.28147564E+03</rscale>
<asrwt>0</asrwt>
<pdfrwt beam="1">  1        2 0.88090672E-02 0.28147564E+03</pdfrwt>
<pdfrwt beam="2">  1       -2 0.53218792E-01 0.28147564E+03</pdfrwt>
<totfact> 0.25405162E+03</totfact>
</mgrwt>
</event>
<event>
 5    1  0.1108889E+001  0.2752924E+03  0.7818608E-02  0.1098288E+00
          1   -1    0    0  501    0  0.00000000000E+00  0.00000000000E+00  0.75555308609E+03  0.75555308609E+03  0.00000000000E+00 0.  1.
         -1   -1    0    0    0  501 -0.00000000000E+00 -0.00000000000E+00 -0.25076299799E+02  0.25076299799E+02  0.00000000000E+00 0.  1.
         35    2    1    2    0    0  0.00000000000E+00  0.00000000000E+00  0.73047678629E+03  0.78062938589E+03  0.27529239510E+03 0.  0.
         25    1    3    3    0    0  0.42276318435E+02 -0.92309974606E+01  0.21860612972E+03  0.25310301927E+03  0.12000000000E+03 0.  0.
         25    1    3    3    0    0 -0.42276318435E+02  0.92309974606E+01  0.51187065657E+03  0.52752636662E+03  0.12000000000E+03 0.  0.
<mgrwt>
<rscale>  0 0.27529240E+03</rscale>
<asrwt>0</asrwt>
<pdfrwt beam="1">  1        1 0.11623892E+00 0.27529240E+03</pdfrwt>
<pdfrwt beam="2">  1       -1 0.38578929E-02 0.27529240E+03</pdfrwt>
<totfact> 0.65141934E+03</totfact>
</mgrwt>
</event>
<event>
 5    1  0.1108889E+001  0.2756934E+03  0.7818608E-02  0.1098065E+00
          1   -1    0    0  501    0  0.00000000000E+00  0.00000000000E+00  0.89418055838E+03  0.89418055838E+03  0.00000000000E+00 0.  1.
         -1   -1    0    0    0  501 -0.00000000000E+00 -0.00000000000E+00 -0.21250412972E+02  0.21250412972E+02  0.00000000000E+00 0.  1.
         35    2    1    2    0    0  0.00000000000E+00  0.00000000000E+00  0.87293014541E+03  0.91543097135E+03  0.27569335238E+03 0.  0.
         25    1    3    3    0    0 -0.58010465441E+02 -0.31829888642E+02  0.48608915688E+03  0.50503566641E+03  0.12000000000E+03 0.  0.
         25    1    3    3    0    0  0.58010465441E+02  0.31829888642E+02  0.38684098854E+03  0.41039530495E+03  0.12000000000E+03 0.  0.
<mgrwt>
<rscale>  0 0.27569335E+03</rscale>
<asrwt>0</asrwt>
<pdfrwt beam="1">  1        1 0.13756621E+00 0.27569335E+03</pdfrwt>
<pdfrwt beam="2">  1       -1 0.32692950E-02 0.27569335E+03</pdfrwt>
<totfact> 0.64018673E+03</totfact>
</mgrwt>
</event>
<event>
 5    1  0.1108889E+001  0.2754950E+03  0.7818608E-02  0.1098175E+00
          4   -1    0    0  501    0  0.00000000000E+00  0.00000000000E+00  0.11509182976E+03  0.11509182976E+03  0.00000000000E+00 0.  1.
         -4   -1    0    0    0  501 -0.00000000000E+00 -0.00000000000E+00 -0.16486289122E+03  0.16486289122E+03  0.00000000000E+00 0.  1.
         35    2    1    2    0    0  0.00000000000E+00  0.00000000000E+00 -0.49771061459E+02  0.27995472098E+03  0.27549498587E+03 0.  0.
         25    1    3    3    0    0  0.25184812671E+01  0.20138374622E+02 -0.90447186327E+02  0.15163307817E+03  0.12000000000E+03 0.  0.
         25    1    3    3    0    0 -0.25184812671E+01 -0.20138374622E+02  0.40676124868E+02  0.12832164281E+03  0.12000000000E+03 0.  0.
<mgrwt>
<rscale>  0 0.27549499E+03</rscale>
<asrwt>0</asrwt>
<pdfrwt beam="1">  1        4 0.17706435E-01 0.27549499E+03</pdfrwt>
<pdfrwt beam="2">  1       -4 0.25363522E-01 0.27549499E+03</pdfrwt>
<totfact> 0.76853694E+02</totfact>
</mgrwt>
</event>
<event>
 5    1  0.1108889E+001  0.2754951E+03  0.7818608E-02  0.1098175E+00
          1   -1    0    0  501    0  0.00000000000E+00  0.00000000000E+00  0.61871910523E+03  0.61871910523E+03  0.00000000000E+00 0.  1.
         -1   -1    0    0    0  501 -0.00000000000E+00 -0.00000000000E+00 -0.30667205918E+02  0.30667205918E+02  0.00000000000E+00 0.  1.
         35    2    1    2    0    0  0.00000000000E+00  0.00000000000E+00  0.58805189931E+03  0.64938631115E+03  0.27549509038E+03 0.  0.
         25    1    3    3    0    0 -0.12960535060E+02 -0.32607367432E+02  0.15773452928E+03  0.20127443356E+03  0.12000000000E+03 0.  0.
         25    1    3    3    0    0  0.12960535060E+02  0.32607367432E+02  0.43031737003E+03  0.44811187758E+03  0.12000000000E+03 0.  0.
<mgrwt>
<rscale>  0 0.27549509E+03</rscale>
<asrwt>0</asrwt>
<pdfrwt beam="1">  1        1 0.95187546E-01 0.27549509E+03</pdfrwt>
<pdfrwt beam="2">  1       -1 0.47180321E-02 0.27549509E+03</pdfrwt>
<totfact> 0.64465581E+03</totfact>
</mgrwt>
</event>
<event>
 5    1  0.1108889E+001  0.2751539E+03  0.7818608E-02  0.1098366E+00
         -1   -1    0    0    0  501 -0.00000000000E+00  0.00000000000E+00  0.36661060903E+02  0.36661060903E+02  0.00000000000E+00 0.  1.
          1   -1    0    0  501    0  0.00000000000E+00 -0.00000000000E+00 -0.51628105732E+03  0.51628105732E+03  0.00000000000E+00 0.  1.
         35    2    1    2    0    0  0.00000000000E+00  0.00000000000E+00 -0.47961999642E+03  0.55294211822E+03  0.27515385722E+03 0.  0.
         25    1    3    3    0    0  0.48182708739E+02 -0.32492324116E+02 -0.30796054808E+03  0.33558459994E+03  0.12000000000E+03 0.  0.
         25    1    3    3    0    0 -0.48182708739E+02  0.32492324116E+02 -0.17165944834E+03  0.21735751828E+03  0.12000000000E+03 0.  0.
<mgrwt>
<rscale>  0 0.27515386E+03</rscale>
<asrwt>0</asrwt>
<pdfrwt beam="1">  1        1 0.79427857E-01 0.27515386E+03</pdfrwt>
<pdfrwt beam="2">  1       -1 0.56401631E-02 0.27515386E+03</pdfrwt>
<totfact> 0.63172962E+03</totfact>
</mgrwt>
</event>
<event>
 5    1  0.1108889E+001  0.2750034E+03  0.7818608E-02  0.1098450E+00
         -2   -1    0    0    0  501 -0.00000000000E+00  0.00000000000E+00  0.18606206204E+02  0.18606206204E+02  0.00000000000E+00 0. -1.
          2   -1    0    0  501    0  0.00000000000E+00 -0.00000000000E+00 -0.10161511012E+04  0.10161511012E+04  0.00000000000E+00 0. -1.
         35    2    1    2    0    0  0.00000000000E+00  0.00000000000E+00 -0.99754489500E+03  0.10347573074E+04  0.27500339579E+03 0.  0.
         25    1    3    3    0    0 -0.51956825340E+02 -0.40497750489E+02 -0.45012754865E+03  0.47048314480E+03  0.12000000000E+03 0.  0.
         25    1    3    3    0    0  0.51956825340E+02  0.40497750489E+02 -0.54741734635E+03  0.56427416260E+03  0.12000000000E+03 0.  0.
<mgrwt>
<rscale>  0 0.27500340E+03</rscale>
<asrwt>0</asrwt>
<pdfrwt beam="1">  1        2 0.15633099E+00 0.27500340E+03</pdfrwt>
<pdfrwt beam="2">  1       -2 0.28624924E-02 0.27500340E+03</pdfrwt>
<totfact> 0.11630534E+04</totfact>
</mgrwt>
</event>
<event>
 5    1  0.1108889E+001  0.2745461E+03  0.7818608E-02  0.1098706E+00
          3   -1    0    0  501    0  0.00000000000E+00  0.00000000000E+00  0.17089683262E+03  0.17089683262E+03  0.00000000000E+00 0.  1.
         -3   -1    0    0    0  501 -0.00000000000E+00 -0.00000000000E+00 -0.11026469943E+03  0.11026469943E+03  0.00000000000E+00 0.  1.
         35    2    1    2    0    0  0.00000000000E+00  0.00000000000E+00  0.60632133188E+02  0.28116153204E+03  0.27454608270E+03 0.  0.
         25    1    3    3    0    0 -0.28676214392E+02 -0.12510264039E+01  0.91932249081E+02  0.15386821881E+03  0.12000000000E+03 0.  0.
         25    1    3    3    0    0  0.28676214392E+02  0.12510264039E+01 -0.31300115893E+02  0.12729331323E+03  0.12000000000E+03 0.  0.
<mgrwt>
<rscale>  0 0.27454608E+03</rscale>
<asrwt>0</asrwt>
<pdfrwt beam="1">  1        3 0.26291820E-01 0.27454608E+03</pdfrwt>
<pdfrwt beam="2">  1       -3 0.16963800E-01 0.27454608E+03</pdfrwt>
<totfact> 0.10448581E+03</totfact>
</mgrwt>
</event>
<event>
 5    1  0.1108889E+001  0.2780388E+03  0.7818608E-02  0.1096765E+00
         -2   -1    0    0    0  501 -0.00000000000E+00  0.00000000000E+00  0.11441308552E+02  0.11441308552E+02  0.00000000000E+00 0.  1.
          2   -1    0    0  501    0  0.00000000000E+00 -0.00000000000E+00 -0.16891765828E+04  0.16891765828E+04  0.00000000000E+00 0.  1.
         35    2    1    2    0    0  0.00000000000E+00  0.00000000000E+00 -0.16777352743E+04  0.17006178914E+04  0.27803877775E+03 0.  0.
         25    1    3    3    0    0  0.38102877815E+01 -0.37135373452E+02 -0.47531849370E+03  0.49165152771E+03  0.12000000000E+03 0.  0.
         25    1    3    3    0    0 -0.38102877815E+01  0.37135373452E+02 -0.12024167806E+04  0.12089663637E+04  0.12000000000E+03 0.  0.
<mgrwt>
<rscale>  0 0.27803878E+03</rscale>
<asrwt>0</asrwt>
<pdfrwt beam="1">  1        2 0.25987331E+00 0.27803878E+03</pdfrwt>
<pdfrwt beam="2">  1       -2 0.17602014E-02 0.27803878E+03</pdfrwt>
<totfact> 0.10101662E+04</totfact>
</mgrwt>
</event>
<event>
 5    1  0.1108889E+001  0.2695617E+03  0.7818608E-02  0.1101531E+00
          1   -1    0    0  501    0  0.00000000000E+00  0.00000000000E+00  0.10807768524E+03  0.10807768524E+03  0.00000000000E+00 0. -1.
         -1   -1    0    0    0  501 -0.00000000000E+00 -0.00000000000E+00 -0.16808169622E+03  0.16808169622E+03  0.00000000000E+00 0. -1.
         35    2    1    2    0    0  0.00000000000E+00  0.00000000000E+00 -0.60004010973E+02  0.27615938146E+03  0.26956172324E+03 0.  0.
         25    1    3    3    0    0  0.58632272531E+01 -0.41554888248E+02  0.15867670812E+02  0.12811311076E+03  0.12000000000E+03 0.  0.
         25    1    3    3    0    0 -0.58632272531E+01  0.41554888248E+02 -0.75871681785E+02  0.14804627070E+03  0.12000000000E+03 0.  0.
<mgrwt>
<rscale>  0 0.26956172E+03</rscale>
<asrwt>0</asrwt>
<pdfrwt beam="1">  1        1 0.16627336E-01 0.26956172E+03</pdfrwt>
<pdfrwt beam="2">  1       -1 0.25858723E-01 0.26956172E+03</pdfrwt>
<totfact> 0.42484975E+03</totfact>
</mgrwt>
</event>
<event>
 5    1  0.1108889E+001  0.2748979E+03  0.7818608E-02  0.1098509E+00
         -2   -1    0    0    0  501 -0.00000000000E+00  0.00000000000E+00  0.16420050104E+02  0.16420050104E+02  0.00000000000E+00 0.  1.
          2   -1    0    0  501    0  0.00000000000E+00 -0.00000000000E+00 -0.11505579367E+04  0.11505579367E+04  0.00000000000E+00 0.  1.
         35    2    1    2    0    0  0.00000000000E+00  0.00000000000E+00 -0.11341378866E+04  0.11669779868E+04  0.27489793719E+03 0.  0.
         25    1    3    3    0    0  0.14730082653E+01  0.31953675883E+02 -0.31703781988E+03  0.34049403283E+03  0.12000000000E+03 0.  0.
         25    1    3    3    0    0 -0.14730082653E+01 -0.31953675883E+02 -0.81710006672E+03  0.82648395398E+03  0.12000000000E+03 0.  0.
<mgrwt>
<rscale>  0 0.27489794E+03</rscale>
<asrwt>0</asrwt>
<pdfrwt beam="1">  1        2 0.17700897E+00 0.27489794E+03</pdfrwt>
<pdfrwt beam="2">  1       -2 0.25261607E-02 0.27489794E+03</pdfrwt>
<totfact> 0.11657022E+04</totfact>
</mgrwt>
</event>
<event>
 5    1  0.1108889E+001  0.2782975E+03  0.7818608E-02  0.1096622E+00
         -2   -1    0    0    0  501 -0.00000000000E+00  0.00000000000E+00  0.12307759015E+02  0.12307759015E+02  0.00000000000E+00 0.  1.
          2   -1    0    0  501    0  0.00000000000E+00 -0.00000000000E+00 -0.15731838494E+04  0.15731838494E+04  0.00000000000E+00 0.  1.
         35    2    1    2    0    0  0.00000000000E+00  0.00000000000E+00 -0.15608760904E+04  0.15854916085E+04  0.27829745026E+03 0.  0.
         25    1    3    3    0    0  0.26004592361E+02 -0.65064639862E+02 -0.73907155413E+03  0.75202154777E+03  0.12000000000E+03 0.  0.
         25    1    3    3    0    0 -0.26004592361E+02  0.65064639862E+02 -0.82180453630E+03  0.83347006069E+03  0.12000000000E+03 0.  0.
<mgrwt>
<rscale>  0 0.27829745E+03</rscale>
<asrwt>0</asrwt>
<pdfrwt beam="1">  1        2 0.24202835E+00 0.27829745E+03</pdfrwt>
<pdfrwt beam="2">  1       -2 0.18935009E-02 0.27829745E+03</pdfrwt>
<totfact> 0.10452109E+04</totfact>
</mgrwt>
</event>
<event>
 5    1  0.1108889E+001  0.2748486E+03  0.7818608E-02  0.1098536E+00
          3   -1    0    0  501    0  0.00000000000E+00  0.00000000000E+00  0.11314944298E+03  0.11314944298E+03  0.00000000000E+00 0. -1.
         -3   -1    0    0    0  501 -0.00000000000E+00 -0.00000000000E+00 -0.16690700626E+03  0.16690700626E+03  0.00000000000E+00 0. -1.
         35    2    1    2    0    0  0.00000000000E+00  0.00000000000E+00 -0.53757563279E+02  0.28005644924E+03  0.27484857495E+03 0.  0.
         25    1    3    3    0    0  0.32992314056E+02  0.27921155377E+02  0.25250660740E+02  0.13002184267E+03  0.12000000000E+03 0.  0.
         25    1    3    3    0    0 -0.32992314056E+02 -0.27921155377E+02 -0.79008224019E+02  0.15003460656E+03  0.12000000000E+03 0.  0.
<mgrwt>
<rscale>  0 0.27484857E+03</rscale>
<asrwt>0</asrwt>
<pdfrwt beam="1">  1        3 0.17407607E-01 0.27484857E+03</pdfrwt>
<pdfrwt beam="2">  1       -3 0.25678001E-01 0.27484857E+03</pdfrwt>
<totfact> 0.10429237E+03</totfact>
</mgrwt>
</event>
<event>
 5    1  0.1108889E+001  0.2788951E+03  0.7818608E-02  0.1096294E+00
          1   -1    0    0  501    0  0.00000000000E+00  0.00000000000E+00  0.73978494397E+03  0.73978494397E+03  0.00000000000E+00 0.  1.
         -1   -1    0    0    0  501 -0.00000000000E+00 -0.00000000000E+00 -0.26285499248E+02  0.26285499248E+02  0.00000000000E+00 0.  1.
         35    2    1    2    0    0  0.00000000000E+00  0.00000000000E+00  0.71349944472E+03  0.76607044322E+03  0.27889508126E+03 0.  0.
         25    1    3    3    0    0 -0.32052126491E+02 -0.47710895846E+02  0.24210726965E+03  0.27626001957E+03  0.12000000000E+03 0.  0.
         25    1    3    3    0    0  0.32052126491E+02  0.47710895846E+02  0.47139217507E+03  0.48981042365E+03  0.12000000000E+03 0.  0.
<mgrwt>
<rscale>  0 0.27889508E+03</rscale>
<asrwt>0</asrwt>
<pdfrwt beam="1">  1        1 0.11381305E+00 0.27889508E+03</pdfrwt>
<pdfrwt beam="2">  1       -1 0.40439235E-02 0.27889508E+03</pdfrwt>
<totfact> 0.62704857E+03</totfact>
</mgrwt>
</event>
<event>
 5    1  0.1108889E+001  0.2727959E+03  0.7818608E-02  0.1099690E+00
          1   -1    0    0  501    0  0.00000000000E+00  0.00000000000E+00  0.30848193442E+02  0.30848193442E+02  0.00000000000E+00 0. -1.
         -1   -1    0    0    0  501 -0.00000000000E+00 -0.00000000000E+00 -0.60309532854E+03  0.60309532854E+03  0.00000000000E+00 0. -1.
         35    2    1    2    0    0  0.00000000000E+00  0.00000000000E+00 -0.57224713510E+03  0.63394352198E+03  0.27279590436E+03 0.  0.
         25    1    3    3    0    0  0.39245298861E+01  0.45811584211E+02 -0.39237060847E+03  0.41287867173E+03  0.12000000000E+03 0.  0.
         25    1    3    3    0    0 -0.39245298861E+01 -0.45811584211E+02 -0.17987652663E+03  0.22106485025E+03  0.12000000000E+03 0.  0.
<mgrwt>
<rscale>  0 0.27279590E+03</rscale>
<asrwt>0</asrwt>
<pdfrwt beam="1">  1        1 0.47458764E-02 0.27279590E+03</pdfrwt>
<pdfrwt beam="2">  1       -1 0.92783887E-01 0.27279590E+03</pdfrwt>
<totfact> 0.21255178E+03</totfact>
</mgrwt>
</event>
<event>
 5    1  0.1108889E+001  0.2745572E+03  0.7818608E-02  0.1098699E+00
         -1   -1    0    0    0  501 -0.00000000000E+00  0.00000000000E+00  0.80422471428E+01  0.80422471428E+01  0.00000000000E+00 0.  1.
          1   -1    0    0  501    0  0.00000000000E+00 -0.00000000000E+00 -0.23433016889E+04  0.23433016889E+04  0.00000000000E+00 0.  1.
         35    2    1    2    0    0  0.00000000000E+00  0.00000000000E+00 -0.23352594418E+04  0.23513439361E+04  0.27455718029E+03 0.  0.
         25    1    3    3    0    0  0.20407615623E+02  0.27786341029E+02 -0.16563753473E+04  0.16610743038E+04  0.12000000000E+03 0.  0.
         25    1    3    3    0    0 -0.20407615623E+02 -0.27786341029E+02 -0.67888409450E+03  0.69026963231E+03  0.12000000000E+03 0.  0.
<mgrwt>
<rscale>  0 0.27455718E+03</rscale>
<asrwt>0</asrwt>
<pdfrwt beam="1">  1        1 0.36050748E+00 0.27455718E+03</pdfrwt>
<pdfrwt beam="2">  1       -1 0.12372704E-02 0.27455718E+03</pdfrwt>
<totfact> 0.27808939E+03</totfact>
</mgrwt>
</event>
<event>
 5    1  0.1108889E+001  0.2752476E+03  0.7818608E-02  0.1098313E+00
         -2   -1    0    0    0  501 -0.00000000000E+00  0.00000000000E+00  0.85195701401E+02  0.85195701401E+02  0.00000000000E+00 0. -1.
          2   -1    0    0  501    0  0.00000000000E+00 -0.00000000000E+00 -0.22231540076E+03  0.22231540076E+03  0.00000000000E+00 0. -1.
         35    2    1    2    0    0  0.00000000000E+00  0.00000000000E+00 -0.13711969936E+03  0.30751110216E+03  0.27524764486E+03 0.  0.
         25    1    3    3    0    0 -0.29525001961E+02  0.60537251352E+02 -0.70746843517E+02  0.15473073518E+03  0.12000000000E+03 0.  0.
         25    1    3    3    0    0  0.29525001961E+02 -0.60537251352E+02 -0.66372855842E+02  0.15278036698E+03  0.12000000000E+03 0.  0.
<mgrwt>
<rscale>  0 0.27524764E+03</rscale>
<asrwt>0</asrwt>
<pdfrwt beam="1">  1        2 0.34202369E-01 0.27524764E+03</pdfrwt>
<pdfrwt beam="2">  1       -2 0.13107031E-01 0.27524764E+03</pdfrwt>
<totfact> 0.64432339E+03</totfact>
</mgrwt>
</event>
<event>
 5    1  0.1108889E+001  0.2750132E+03  0.7818608E-02  0.1098444E+00
         -2   -1    0    0    0  501 -0.00000000000E+00  0.00000000000E+00  0.82540497116E+01  0.82540497116E+01  0.00000000000E+00 0.  1.
          2   -1    0    0  501    0  0.00000000000E+00 -0.00000000000E+00 -0.22907629031E+04  0.22907629031E+04  0.00000000000E+00 0.  1.
         35    2    1    2    0    0  0.00000000000E+00  0.00000000000E+00 -0.22825088534E+04  0.22990169528E+04  0.27501324244E+03 0.  0.
         25    1    3    3    0    0  0.33928169028E+02  0.30853143521E+02 -0.73128718508E+03  0.74248500603E+03  0.12000000000E+03 0.  0.
         25    1    3    3    0    0 -0.33928169028E+02 -0.30853143521E+02 -0.15512216683E+04  0.15565319468E+04  0.12000000000E+03 0.  0.
<mgrwt>
<rscale>  0 0.27501324E+03</rscale>
<asrwt>0</asrwt>
<pdfrwt beam="1">  1        2 0.35242503E+00 0.27501324E+03</pdfrwt>
<pdfrwt beam="2">  1       -2 0.12698539E-02 0.27501324E+03</pdfrwt>
<totfact> 0.78387523E+03</totfact>
</mgrwt>
</event>
<event>
 5    1  0.1108889E+001  0.2740903E+03  0.7818608E-02  0.1098961E+00
         -4   -1    0    0    0  501 -0.00000000000E+00  0.00000000000E+00  0.89430613597E+02  0.89430613597E+02  0.00000000000E+00 0. -1.
          4   -1    0    0  501    0  0.00000000000E+00 -0.00000000000E+00 -0.21001055108E+03  0.21001055108E+03  0.00000000000E+00 0. -1.
         35    2    1    2    0    0  0.00000000000E+00  0.00000000000E+00 -0.12057993749E+03  0.29944116468E+03  0.27409029494E+03 0.  0.
         25    1    3    3    0    0 -0.31005689597E+02 -0.35732577842E+01  0.34805485562E+01  0.12404126401E+03  0.12000000000E+03 0.  0.
         25    1    3    3    0    0  0.31005689597E+02  0.35732577842E+01 -0.12406048604E+03  0.17539990067E+03  0.12000000000E+03 0.  0.
<mgrwt>
<rscale>  0 0.27409029E+03</rscale>
<asrwt>0</asrwt>
<pdfrwt beam="1">  1        4 0.32309315E-01 0.27409029E+03</pdfrwt>
<pdfrwt beam="2">  1       -4 0.13758556E-01 0.27409029E+03</pdfrwt>
<totfact> 0.75829016E+02</totfact>
</mgrwt>
</event>
<event>
 5    1  0.1108889E+001  0.2743732E+03  0.7818608E-02  0.1098802E+00
          2   -1    0    0  501    0  0.00000000000E+00  0.00000000000E+00  0.22212010480E+04  0.22212010480E+04  0.00000000000E+00 0.  1.
         -2   -1    0    0    0  501 -0.00000000000E+00 -0.00000000000E+00 -0.84729681021E+01  0.84729681021E+01  0.00000000000E+00 0.  1.
         35    2    1    2    0    0  0.00000000000E+00  0.00000000000E+00  0.22127280799E+04  0.22296740161E+04  0.27437321756E+03 0.  0.
         25    1    3    3    0    0  0.55194992556E+02  0.32669882233E+02  0.96412666905E+03  0.97368066756E+03  0.12000000000E+03 0.  0.
         25    1    3    3    0    0 -0.55194992556E+02 -0.32669882233E+02  0.12486014108E+04  0.12559933485E+04  0.12000000000E+03 0.  0.
<mgrwt>
<rscale>  0 0.27437322E+03</rscale>
<asrwt>0</asrwt>
<pdfrwt beam="1">  1        2 0.34172277E+00 0.27437322E+03</pdfrwt>
<pdfrwt beam="2">  1       -2 0.13035353E-02 0.27437322E+03</pdfrwt>
<totfact> 0.82192181E+03</totfact>
</mgrwt>
</event>
<event>
 5    1  0.1108889E+001  0.2747739E+03  0.7818608E-02  0.1098578E+00
         -2   -1    0    0    0  501 -0.00000000000E+00  0.00000000000E+00  0.46340709844E+01  0.46340709844E+01  0.00000000000E+00 0.  1.
          2   -1    0    0  501    0  0.00000000000E+00 -0.00000000000E+00 -0.40731288190E+04  0.40731288190E+04  0.00000000000E+00 0.  1.
         35    2    1    2    0    0  0.00000000000E+00  0.00000000000E+00 -0.40684947481E+04  0.40777628900E+04  0.27477385666E+03 0.  0.
         25    1    3    3    0    0  0.50788075274E+01  0.13322554286E+02 -0.30042127943E+04  0.30066422797E+04  0.12000000000E+03 0.  0.
         25    1    3    3    0    0 -0.50788075274E+01 -0.13322554286E+02 -0.10642819538E+04  0.10711206104E+04  0.12000000000E+03 0.  0.
<mgrwt>
<rscale>  0 0.27477386E+03</rscale>
<asrwt>0</asrwt>
<pdfrwt beam="1">  1        2 0.62663416E+00 0.27477386E+03</pdfrwt>
<pdfrwt beam="2">  1       -2 0.71293518E-03 0.27477386E+03</pdfrwt>
<totfact> 0.13666057E+03</totfact>
</mgrwt>
</event>
<event>
 5    1  0.1108889E+001  0.2750744E+03  0.7818608E-02  0.1098410E+00
         -1   -1    0    0    0  501 -0.00000000000E+00  0.00000000000E+00  0.84004867653E+02  0.84004867653E+02  0.00000000000E+00 0.  1.
          1   -1    0    0  501    0  0.00000000000E+00 -0.00000000000E+00 -0.22518309314E+03  0.22518309314E+03  0.00000000000E+00 0.  1.
         35    2    1    2    0    0  0.00000000000E+00  0.00000000000E+00 -0.14117822549E+03  0.30918796080E+03  0.27507436040E+03 0.  0.
         25    1    3    3    0    0 -0.66956577767E+02  0.19836411558E+01 -0.64498875546E+02  0.15181311895E+03  0.12000000000E+03 0.  0.
         25    1    3    3    0    0  0.66956577767E+02 -0.19836411558E+01 -0.76679349944E+02  0.15737484185E+03  0.12000000000E+03 0.  0.
<mgrwt>
<rscale>  0 0.27507436E+03</rscale>
<asrwt>0</asrwt>
<pdfrwt beam="1">  1        1 0.34643552E-01 0.27507436E+03</pdfrwt>
<pdfrwt beam="2">  1       -1 0.12923826E-01 0.27507436E+03</pdfrwt>
<totfact> 0.51035664E+03</totfact>
</mgrwt>
</event>
<event>
 5    1  0.1108889E+001  0.2746520E+03  0.7818608E-02  0.1098646E+00
         -2   -1    0    0    0  501 -0.00000000000E+00  0.00000000000E+00  0.19854801045E+02  0.19854801045E+02  0.00000000000E+00 0. -1.
          2   -1    0    0  501    0  0.00000000000E+00 -0.00000000000E+00 -0.94981746879E+03  0.94981746879E+03  0.00000000000E+00 0. -1.
         35    2    1    2    0    0  0.00000000000E+00  0.00000000000E+00 -0.92996266774E+03  0.96967226983E+03  0.27465204803E+03 0.  0.
         25    1    3    3    0    0  0.16743166708E+02 -0.58786235047E+02 -0.55986587748E+03  0.57583500747E+03  0.12000000000E+03 0.  0.
         25    1    3    3    0    0 -0.16743166708E+02  0.58786235047E+02 -0.37009679026E+03  0.39383726236E+03  0.12000000000E+03 0.  0.
<mgrwt>
<rscale>  0 0.27465205E+03</rscale>
<asrwt>0</asrwt>
<pdfrwt beam="1">  1        2 0.14612573E+00 0.27465205E+03</pdfrwt>
<pdfrwt beam="2">  1       -2 0.30545855E-02 0.27465205E+03</pdfrwt>
<totfact> 0.11603753E+04</totfact>
</mgrwt>
</event>
<event>
 5    1  0.1108889E+001  0.2727963E+03  0.7818608E-02  0.1099690E+00
          2   -1    0    0  501    0  0.00000000000E+00  0.00000000000E+00  0.18348735054E+02  0.18348735054E+02  0.00000000000E+00 0.  1.
         -2   -1    0    0    0  501 -0.00000000000E+00 -0.00000000000E+00 -0.10139370406E+04  0.10139370406E+04  0.00000000000E+00 0.  1.
         35    2    1    2    0    0  0.00000000000E+00  0.00000000000E+00 -0.99558830559E+03  0.10322857757E+04  0.27279634983E+03 0.  0.
         25    1    3    3    0    0 -0.18143517429E+02  0.41882815587E+02 -0.32351620526E+03  0.34806047253E+03  0.12000000000E+03 0.  0.
         25    1    3    3    0    0  0.18143517429E+02 -0.41882815587E+02 -0.67207210033E+03  0.68422530317E+03  0.12000000000E+03 0.  0.
<mgrwt>
<rscale>  0 0.27279635E+03</rscale>
<asrwt>0</asrwt>
<pdfrwt beam="1">  1        2 0.28228816E-02 0.27279635E+03</pdfrwt>
<pdfrwt beam="2">  1       -2 0.15599035E+00 0.27279635E+03</pdfrwt>
<totfact> 0.97497166E+02</totfact>
</mgrwt>
</event>
<event>
 5    1  0.1108889E+001  0.2731041E+03  0.7818608E-02  0.1099516E+00
          2   -1    0    0  501    0  0.00000000000E+00  0.00000000000E+00  0.26082224412E+04  0.26082224412E+04  0.00000000000E+00 0.  1.
         -2   -1    0    0    0  501 -0.00000000000E+00 -0.00000000000E+00 -0.71491051774E+01  0.71491051774E+01  0.00000000000E+00 0.  1.
         35    2    1    2    0    0  0.00000000000E+00  0.00000000000E+00  0.26010733361E+04  0.26153715464E+04  0.27310405752E+03 0.  0.
         25    1    3    3    0    0 -0.39572140925E+02  0.46886038996E+02  0.10902462176E+04  0.10985449785E+04  0.12000000000E+03 0.  0.
         25    1    3    3    0    0  0.39572140925E+02 -0.46886038996E+02  0.15108271185E+04  0.15168265679E+04  0.12000000000E+03 0.  0.
<mgrwt>
<rscale>  0 0.27310406E+03</rscale>
<asrwt>0</asrwt>
<pdfrwt beam="1">  1        2 0.40126423E+00 0.27310406E+03</pdfrwt>
<pdfrwt beam="2">  1       -2 0.10998644E-02 0.27310406E+03</pdfrwt>
<totfact> 0.64882054E+03</totfact>
</mgrwt>
</event>
<event>
 5    1  0.1108889E+001  0.2749146E+03  0.7818608E-02  0.1098499E+00
          2   -1    0    0  501    0  0.00000000000E+00  0.00000000000E+00  0.36471819345E+03  0.36471819345E+03  0.00000000000E+00 0. -1.
         -2   -1    0    0    0  501 -0.00000000000E+00 -0.00000000000E+00 -0.51805779143E+02  0.51805779143E+02  0.00000000000E+00 0. -1.
         35    2    1    2    0    0  0.00000000000E+00  0.00000000000E+00  0.31291241431E+03  0.41652397260E+03  0.27491460623E+03 0.  0.
         25    1    3    3    0    0 -0.46651034820E+02  0.35800247416E+02  0.20523531364E+03  0.24490714716E+03  0.12000000000E+03 0.  0.
         25    1    3    3    0    0  0.46651034820E+02 -0.35800247416E+02  0.10767710067E+03  0.17161682544E+03  0.12000000000E+03 0.  0.
<mgrwt>
<rscale>  0 0.27491461E+03</rscale>
<asrwt>0</asrwt>
<pdfrwt beam="1">  1        2 0.56110490E-01 0.27491461E+03</pdfrwt>
<pdfrwt beam="2">  1       -2 0.79701201E-02 0.27491461E+03</pdfrwt>
<totfact> 0.83435487E+03</totfact>
</mgrwt>
</event>
<event>
 5    1  0.1108889E+001  0.2750147E+03  0.7818608E-02  0.1098443E+00
          1   -1    0    0  501    0  0.00000000000E+00  0.00000000000E+00  0.35294859245E+03  0.35294859245E+03  0.00000000000E+00 0.  1.
         -1   -1    0    0    0  501 -0.00000000000E+00 -0.00000000000E+00 -0.53572293312E+02  0.53572293312E+02  0.00000000000E+00 0.  1.
         35    2    1    2    0    0  0.00000000000E+00  0.00000000000E+00  0.29937629913E+03  0.40652088576E+03  0.27501465793E+03 0.  0.
         25    1    3    3    0    0  0.41846502781E+02 -0.42595796139E+02  0.10430218416E+03  0.16983661933E+03  0.12000000000E+03 0.  0.
         25    1    3    3    0    0 -0.41846502781E+02  0.42595796139E+02  0.19507411497E+03  0.23668426643E+03  0.12000000000E+03 0.  0.
<mgrwt>
<rscale>  0 0.27501466E+03</rscale>
<asrwt>0</asrwt>
<pdfrwt beam="1">  1        1 0.54299782E-01 0.27501466E+03</pdfrwt>
<pdfrwt beam="2">  1       -1 0.82418915E-02 0.27501466E+03</pdfrwt>
<totfact> 0.58191437E+03</totfact>
</mgrwt>
</event>
<event>
 5    1  0.1108889E+001  0.2747721E+03  0.7818608E-02  0.1098579E+00
          2   -1    0    0  501    0  0.00000000000E+00  0.00000000000E+00  0.22877262386E+04  0.22877262386E+04  0.00000000000E+00 0.  1.
         -2   -1    0    0    0  501 -0.00000000000E+00 -0.00000000000E+00 -0.82505180444E+01  0.82505180444E+01  0.00000000000E+00 0.  1.
         35    2    1    2    0    0  0.00000000000E+00  0.00000000000E+00  0.22794757205E+04  0.22959767566E+04  0.27477209911E+03 0.  0.
         25    1    3    3    0    0  0.20626377621E+01  0.61257964893E+02  0.13636602716E+04  0.13703014738E+04  0.12000000000E+03 0.  0.
         25    1    3    3    0    0 -0.20626377621E+01 -0.61257964893E+02  0.91581544896E+03  0.92567528285E+03  0.12000000000E+03 0.  0.
<mgrwt>
<rscale>  0 0.27477210E+03</rscale>
<asrwt>0</asrwt>
<pdfrwt beam="1">  1        2 0.35195738E+00 0.27477210E+03</pdfrwt>
<pdfrwt beam="2">  1       -2 0.12693123E-02 0.27477210E+03</pdfrwt>
<totfact> 0.78730968E+03</totfact>
</mgrwt>
</event>
<event>
 5    1  0.1108889E+001  0.2765087E+03  0.7818608E-02  0.1097611E+00
          2   -1    0    0  501    0  0.00000000000E+00  0.00000000000E+00  0.11397411317E+03  0.11397411317E+03  0.00000000000E+00 0.  1.
         -2   -1    0    0    0  501 -0.00000000000E+00 -0.00000000000E+00 -0.16770712051E+03  0.16770712051E+03  0.00000000000E+00 0.  1.
         35    2    1    2    0    0  0.00000000000E+00  0.00000000000E+00 -0.53733007340E+02  0.28168123368E+03  0.27650873644E+03 0.  0.
         25    1    3    3    0    0 -0.57169012173E+02 -0.37147125831E+02 -0.35146614744E+02  0.14242011599E+03  0.12000000000E+03 0.  0.
         25    1    3    3    0    0  0.57169012173E+02  0.37147125831E+02 -0.18586392596E+02  0.13926111769E+03  0.12000000000E+03 0.  0.
<mgrwt>
<rscale>  0 0.27650874E+03</rscale>
<asrwt>0</asrwt>
<pdfrwt beam="1">  1        2 0.17534479E-01 0.27650874E+03</pdfrwt>
<pdfrwt beam="2">  1       -2 0.25801095E-01 0.27650874E+03</pdfrwt>
<totfact> 0.43252512E+03</totfact>
</mgrwt>
</event>
<event>
 5    1  0.1108889E+001  0.2749877E+03  0.7818608E-02  0.1098458E+00
         -2   -1    0    0    0  501 -0.00000000000E+00  0.00000000000E+00  0.12364049363E+03  0.12364049363E+03  0.00000000000E+00 0.  1.
          2   -1    0    0  501    0  0.00000000000E+00 -0.00000000000E+00 -0.15289942194E+03  0.15289942194E+03  0.00000000000E+00 0.  1.
         35    2    1    2    0    0  0.00000000000E+00  0.00000000000E+00 -0.29258928308E+02  0.27653991556E+03  0.27498770884E+03 0.  0.
         25    1    3    3    0    0 -0.18381004296E+01  0.40953651296E+02 -0.68070558030E+02  0.14392421978E+03  0.12000000000E+03 0.  0.
         25    1    3    3    0    0  0.18381004296E+01 -0.40953651296E+02  0.38811629722E+02  0.13261569579E+03  0.12000000000E+03 0.  0.
<mgrwt>
<rscale>  0 0.27498771E+03</rscale>
<asrwt>0</asrwt>
<pdfrwt beam="1">  1        2 0.23522988E-01 0.27498771E+03</pdfrwt>
<pdfrwt beam="2">  1       -2 0.19021614E-01 0.27498771E+03</pdfrwt>
<totfact> 0.52446049E+03</totfact>
</mgrwt>
</event>
<event>
 5    1  0.1108889E+001  0.2748554E+03  0.7818608E-02  0.1098532E+00
         -1   -1    0    0    0  501 -0.00000000000E+00  0.00000000000E+00  0.12211299528E+02  0.12211299528E+02  0.00000000000E+00 0.  1.
          1   -1    0    0  501    0  0.00000000000E+00 -0.00000000000E+00 -0.15466308566E+04  0.15466308566E+04  0.00000000000E+00 0.  1.
         35    2    1    2    0    0  0.00000000000E+00  0.00000000000E+00 -0.15344195571E+04  0.15588421561E+04  0.27485539944E+03 0.  0.
         25    1    3    3    0    0  0.31505983386E+02 -0.36532187523E+02 -0.50367449630E+03  0.52001464012E+03  0.12000000000E+03 0.  0.
         25    1    3    3    0    0 -0.31505983386E+02  0.36532187523E+02 -0.10307450608E+04  0.10388275160E+04  0.12000000000E+03 0.  0.
<mgrwt>
<rscale>  0 0.27485540E+03</rscale>
<asrwt>0</asrwt>
<pdfrwt beam="1">  1        1 0.23794311E+00 0.27485540E+03</pdfrwt>
<pdfrwt beam="2">  1       -1 0.18786623E-02 0.27485540E+03</pdfrwt>
<totfact> 0.50088387E+03</totfact>
</mgrwt>
</event>
<event>
 5    1  0.1108889E+001  0.2743305E+03  0.7818608E-02  0.1098826E+00
         -1   -1    0    0    0  501 -0.00000000000E+00  0.00000000000E+00  0.27195323673E+03  0.27195323673E+03  0.00000000000E+00 0. -1.
          1   -1    0    0  501    0  0.00000000000E+00 -0.00000000000E+00 -0.69182148436E+02  0.69182148436E+02  0.00000000000E+00 0. -1.
         35    2    1    2    0    0  0.00000000000E+00  0.00000000000E+00  0.20277108830E+03  0.34113538517E+03  0.27433052467E+03 0.  0.
         25    1    3    3    0    0 -0.32928582886E+01  0.65606400643E+02  0.88996039991E+02  0.16320336349E+03  0.12000000000E+03 0.  0.
         25    1    3    3    0    0  0.32928582886E+01 -0.65606400643E+02  0.11377504831E+03  0.17793202168E+03  0.12000000000E+03 0.  0.
<mgrwt>
<rscale>  0 0.27433052E+03</rscale>
<asrwt>0</asrwt>
<pdfrwt beam="1">  1        1 0.10643408E-01 0.27433052E+03</pdfrwt>
<pdfrwt beam="2">  1       -1 0.41838959E-01 0.27433052E+03</pdfrwt>
<totfact> 0.33430615E+03</totfact>
</mgrwt>
</event>
<event>
 5    1  0.1108889E+001  0.2770130E+03  0.7818608E-02  0.1097332E+00
         -2   -1    0    0    0  501 -0.00000000000E+00  0.00000000000E+00  0.11418752631E+02  0.11418752631E+02  0.00000000000E+00 0. -1.
          2   -1    0    0  501    0  0.00000000000E+00 -0.00000000000E+00 -0.16800484307E+04  0.16800484307E+04  0.00000000000E+00 0. -1.
         35    2    1    2    0    0  0.00000000000E+00  0.00000000000E+00 -0.16686296781E+04  0.16914671833E+04  0.27701304978E+03 0.  0.
         25    1    3    3    0    0  0.41373721324E+02 -0.55309554458E+02 -0.85643693939E+03  0.86755700837E+03  0.12000000000E+03 0.  0.
         25    1    3    3    0    0 -0.41373721324E+02  0.55309554458E+02 -0.81219273867E+03  0.82391017495E+03  0.12000000000E+03 0.  0.
<mgrwt>
<rscale>  0 0.27701305E+03</rscale>
<asrwt>0</asrwt>
<pdfrwt beam="1">  1        2 0.25846908E+00 0.27701305E+03</pdfrwt>
<pdfrwt beam="2">  1       -2 0.17567306E-02 0.27701305E+03</pdfrwt>
<totfact> 0.10243242E+04</totfact>
</mgrwt>
</event>
<event>
 5    1  0.1108889E+001  0.2751666E+03  0.7818608E-02  0.1098359E+00
         -2   -1    0    0    0  501 -0.00000000000E+00  0.00000000000E+00  0.90609962017E+01  0.90609962017E+01  0.00000000000E+00 0. -1.
          2   -1    0    0  501    0  0.00000000000E+00 -0.00000000000E+00 -0.20890820767E+04  0.20890820767E+04  0.00000000000E+00 0. -1.
         35    2    1    2    0    0  0.00000000000E+00  0.00000000000E+00 -0.20800210805E+04  0.20981430729E+04  0.27516660235E+03 0.  0.
         25    1    3    3    0    0 -0.49275966815E+02  0.32323049785E+02 -0.79219662977E+03  0.80339803378E+03  0.12000000000E+03 0.  0.
         25    1    3    3    0    0  0.49275966815E+02 -0.32323049785E+02 -0.12878244508E+04  0.12947450392E+04  0.12000000000E+03 0.  0.
<mgrwt>
<rscale>  0 0.27516660E+03</rscale>
<asrwt>0</asrwt>
<pdfrwt beam="1">  1        2 0.32139736E+00 0.27516660E+03</pdfrwt>
<pdfrwt beam="2">  1       -2 0.13939989E-02 0.27516660E+03</pdfrwt>
<totfact> 0.87571435E+03</totfact>
</mgrwt>
</event>
<event>
 5    1  0.1108889E+001  0.2749418E+03  0.7818608E-02  0.1098484E+00
         -2   -1    0    0    0  501 -0.00000000000E+00  0.00000000000E+00  0.61049297965E+01  0.61049297965E+01  0.00000000000E+00 0.  1.
          2   -1    0    0  501    0  0.00000000000E+00 -0.00000000000E+00 -0.30955722969E+04  0.30955722969E+04  0.00000000000E+00 0.  1.
         35    2    1    2    0    0  0.00000000000E+00  0.00000000000E+00 -0.30894673671E+04  0.31016772267E+04  0.27494182332E+03 0.  0.
         25    1    3    3    0    0  0.15851563150E+01  0.26589187252E+02 -0.22391245411E+04  0.22424959773E+04  0.12000000000E+03 0.  0.
         25    1    3    3    0    0 -0.15851563150E+01 -0.26589187252E+02 -0.85034282604E+03  0.85918124945E+03  0.12000000000E+03 0.  0.
<mgrwt>
<rscale>  0 0.27494182E+03</rscale>
<asrwt>0</asrwt>
<pdfrwt beam="1">  1        2 0.47624020E+00 0.27494182E+03</pdfrwt>
<pdfrwt beam="2">  1       -2 0.93922330E-03 0.27494182E+03</pdfrwt>
<totfact> 0.42657305E+03</totfact>
</mgrwt>
</event>
<event>
 5    1  0.1108889E+001  0.2741815E+03  0.7818608E-02  0.1098910E+00
          2   -1    0    0  501    0  0.00000000000E+00  0.00000000000E+00  0.28538802562E+04  0.28538802562E+04  0.00000000000E+00 0.  1.
         -2   -1    0    0    0  501 -0.00000000000E+00 -0.00000000000E+00 -0.65853740321E+01  0.65853740321E+01  0.00000000000E+00 0.  1.
         35    2    1    2    0    0  0.00000000000E+00  0.00000000000E+00  0.28472948821E+04  0.28604656302E+04  0.27418146494E+03 0.  0.
         25    1    3    3    0    0 -0.20071207713E+02  0.63120894102E+02  0.14507891852E+04  0.14572495875E+04  0.12000000000E+03 0.  0.
         25    1    3    3    0    0  0.20071207713E+02 -0.63120894102E+02  0.13965056970E+04  0.14032160426E+04  0.12000000000E+03 0.  0.
<mgrwt>
<rscale>  0 0.27418146E+03</rscale>
<asrwt>0</asrwt>
<pdfrwt beam="1">  1        2 0.43905751E+00 0.27418146E+03</pdfrwt>
<pdfrwt beam="2">  1       -2 0.10131367E-02 0.27418146E+03</pdfrwt>
<totfact> 0.53075902E+03</totfact>
</mgrwt>
</event>
<event>
 5    1  0.1108889E+001  0.2748594E+03  0.7818608E-02  0.1098530E+00
          1   -1    0    0  501    0  0.00000000000E+00  0.00000000000E+00  0.24791134566E+04  0.24791134566E+04  0.00000000000E+00 0. -1.
         -1   -1    0    0    0  501 -0.00000000000E+00 -0.00000000000E+00 -0.76184164380E+01  0.76184164380E+01  0.00000000000E+00 0. -1.
         35    2    1    2    0    0  0.00000000000E+00  0.00000000000E+00  0.24714950402E+04  0.24867318730E+04  0.27485937284E+03 0.  0.
         25    1    3    3    0    0  0.26142904897E+02  0.56539506590E+02  0.14586032542E+04  0.14648561774E+04  0.12000000000E+03 0.  0.
         25    1    3    3    0    0 -0.26142904897E+02 -0.56539506590E+02  0.10128917860E+04  0.10218756956E+04  0.12000000000E+03 0.  0.
<mgrwt>
<rscale>  0 0.27485937E+03</rscale>
<asrwt>0</asrwt>
<pdfrwt beam="1">  1        1 0.38140143E+00 0.27485937E+03</pdfrwt>
<pdfrwt beam="2">  1       -1 0.11720660E-02 0.27485937E+03</pdfrwt>
<totfact> 0.24464480E+03</totfact>
</mgrwt>
</event>
<event>
 5    1  0.1108889E+001  0.2744751E+03  0.7818608E-02  0.1098745E+00
          2   -1    0    0  501    0  0.00000000000E+00  0.00000000000E+00  0.22735383530E+02  0.22735383530E+02  0.00000000000E+00 0. -1.
         -2   -1    0    0    0  501 -0.00000000000E+00 -0.00000000000E+00 -0.82840680120E+03  0.82840680120E+03  0.00000000000E+00 0. -1.
         35    2    1    2    0    0  0.00000000000E+00  0.00000000000E+00 -0.80567141767E+03  0.85114218473E+03  0.27447510885E+03 0.  0.
         25    1    3    3    0    0  0.20864888507E+02  0.44247303013E+02 -0.54292934650E+03  0.55818047502E+03  0.12000000000E+03 0.  0.
         25    1    3    3    0    0 -0.20864888507E+02 -0.44247303013E+02 -0.26274207116E+03  0.29296170971E+03  0.12000000000E+03 0.  0.
<mgrwt>
<rscale>  0 0.27447511E+03</rscale>
<asrwt>0</asrwt>
<pdfrwt beam="1">  1        2 0.34977507E-02 0.27447511E+03</pdfrwt>
<pdfrwt beam="2">  1       -2 0.12744722E+00 0.27447511E+03</pdfrwt>
<totfact> 0.12170826E+03</totfact>
</mgrwt>
</event>
<event>
 5    1  0.1108889E+001  0.2772025E+03  0.7818608E-02  0.1097227E+00
         -2   -1    0    0    0  501 -0.00000000000E+00  0.00000000000E+00  0.52336525942E+01  0.52336525942E+01  0.00000000000E+00 0. -1.
          2   -1    0    0  501    0  0.00000000000E+00 -0.00000000000E+00 -0.36705345812E+04  0.36705345812E+04  0.00000000000E+00 0. -1.
         35    2    1    2    0    0  0.00000000000E+00  0.00000000000E+00 -0.36653009286E+04  0.36757682338E+04  0.27720247353E+03 0.  0.
         25    1    3    3    0    0 -0.61088476594E+02  0.31462119482E+02 -0.19574910635E+04  0.19623692136E+04  0.12000000000E+03 0.  0.
         25    1    3    3    0    0  0.61088476594E+02 -0.31462119482E+02 -0.17078098651E+04  0.17133990202E+04  0.12000000000E+03 0.  0.
<mgrwt>
<rscale>  0 0.27720247E+03</rscale>
<asrwt>0</asrwt>
<pdfrwt beam="1">  1        2 0.56469826E+00 0.27720247E+03</pdfrwt>
<pdfrwt beam="2">  1       -2 0.80517643E-03 0.27720247E+03</pdfrwt>
<totfact> 0.22685337E+03</totfact>
</mgrwt>
</event>
<event>
 5    1  0.1108889E+001  0.2745037E+03  0.7818608E-02  0.1098729E+00
          1   -1    0    0  501    0  0.00000000000E+00  0.00000000000E+00  0.44521409929E+02  0.44521409929E+02  0.00000000000E+00 0. -1.
         -1   -1    0    0    0  501 -0.00000000000E+00 -0.00000000000E+00 -0.42312381858E+03  0.42312381858E+03  0.00000000000E+00 0. -1.
         35    2    1    2    0    0  0.00000000000E+00  0.00000000000E+00 -0.37860240865E+03  0.46764522851E+03  0.27450369016E+03 0.  0.
         25    1    3    3    0    0  0.64385819767E+02 -0.92582423849E+01 -0.21380112806E+03  0.25365758652E+03  0.12000000000E+03 0.  0.
         25    1    3    3    0    0 -0.64385819767E+02  0.92582423849E+01 -0.16480128059E+03  0.21398764198E+03  0.12000000000E+03 0.  0.
<mgrwt>
<rscale>  0 0.27450369E+03</rscale>
<asrwt>0</asrwt>
<pdfrwt beam="1">  1        1 0.68494480E-02 0.27450369E+03</pdfrwt>
<pdfrwt beam="2">  1       -1 0.65095969E-01 0.27450369E+03</pdfrwt>
<totfact> 0.26593263E+03</totfact>
</mgrwt>
</event>
<event>
 5    1  0.1108889E+001  0.2759479E+03  0.7818608E-02  0.1097923E+00
          2   -1    0    0  501    0  0.00000000000E+00  0.00000000000E+00  0.32329643038E+02  0.32329643038E+02  0.00000000000E+00 0.  1.
         -2   -1    0    0    0  501 -0.00000000000E+00 -0.00000000000E+00 -0.58883475515E+03  0.58883475515E+03  0.00000000000E+00 0.  1.
         35    2    1    2    0    0  0.00000000000E+00  0.00000000000E+00 -0.55650511211E+03  0.62116439819E+03  0.27594794757E+03 0.  0.
         25    1    3    3    0    0  0.18846488007E+02  0.58070566355E+02 -0.34613627325E+03  0.37139965058E+03  0.12000000000E+03 0.  0.
         25    1    3    3    0    0 -0.18846488007E+02 -0.58070566355E+02 -0.21036883886E+03  0.24976474761E+03  0.12000000000E+03 0.  0.
<mgrwt>
<rscale>  0 0.27594795E+03</rscale>
<asrwt>0</asrwt>
<pdfrwt beam="1">  1        2 0.49737923E-02 0.27594795E+03</pdfrwt>
<pdfrwt beam="2">  1       -2 0.90589942E-01 0.27594795E+03</pdfrwt>
<totfact> 0.17032021E+03</totfact>
</mgrwt>
</event>
<event>
 5    1  0.1108889E+001  0.2731819E+03  0.7818608E-02  0.1099472E+00
          3   -1    0    0  501    0  0.00000000000E+00  0.00000000000E+00  0.67816506234E+02  0.67816506234E+02  0.00000000000E+00 0. -1.
         -3   -1    0    0    0  501 -0.00000000000E+00 -0.00000000000E+00 -0.27511127253E+03  0.27511127253E+03  0.00000000000E+00 0. -1.
         35    2    1    2    0    0  0.00000000000E+00  0.00000000000E+00 -0.20729476630E+03  0.34292777877E+03  0.27318188321E+03 0.  0.
         25    1    3    3    0    0  0.15926292047E+02  0.37740962156E+02 -0.16739755412E+03  0.20999992412E+03  0.12000000000E+03 0.  0.
         25    1    3    3    0    0 -0.15926292047E+02 -0.37740962156E+02 -0.39897212177E+02  0.13292785465E+03  0.12000000000E+03 0.  0.
<mgrwt>
<rscale>  0 0.27318188E+03</rscale>
<asrwt>0</asrwt>
<pdfrwt beam="1">  1        3 0.10433309E-01 0.27318188E+03</pdfrwt>
<pdfrwt beam="2">  1       -3 0.42324811E-01 0.27318188E+03</pdfrwt>
<totfact> 0.97142690E+02</totfact>
</mgrwt>
</event>
<event>
 5    1  0.1108889E+001  0.2739003E+03  0.7818608E-02  0.1099068E+00
         -2   -1    0    0    0  501 -0.00000000000E+00  0.00000000000E+00  0.12214482773E+02  0.12214482773E+02  0.00000000000E+00 0. -1.
          2   -1    0    0  501    0  0.00000000000E+00 -0.00000000000E+00 -0.15355007772E+04  0.15355007772E+04  0.00000000000E+00 0. -1.
         35    2    1    2    0    0  0.00000000000E+00  0.00000000000E+00 -0.15232862944E+04  0.15477152600E+04  0.27390033072E+03 0.  0.
         25    1    3    3    0    0  0.18943702012E+02  0.44743119584E+02 -0.10140026005E+04  0.10222338697E+04  0.12000000000E+03 0.  0.
         25    1    3    3    0    0 -0.18943702012E+02 -0.44743119584E+02 -0.50928369394E+03  0.52548139026E+03  0.12000000000E+03 0.  0.
<mgrwt>
<rscale>  0 0.27390033E+03</rscale>
<asrwt>0</asrwt>
<pdfrwt beam="1">  1        2 0.23623084E+00 0.27390033E+03</pdfrwt>
<pdfrwt beam="2">  1       -2 0.18791515E-02 0.27390033E+03</pdfrwt>
<totfact> 0.11065739E+04</totfact>
</mgrwt>
</event>
<event>
 5    1  0.1108889E+001  0.2762626E+03  0.7818608E-02  0.1097748E+00
         -2   -1    0    0    0  501 -0.00000000000E+00  0.00000000000E+00  0.20973449106E+03  0.20973449106E+03  0.00000000000E+00 0. -1.
          2   -1    0    0  501    0  0.00000000000E+00 -0.00000000000E+00 -0.90973386256E+02  0.90973386256E+02  0.00000000000E+00 0. -1.
         35    2    1    2    0    0  0.00000000000E+00  0.00000000000E+00  0.11876110480E+03  0.30070787731E+03  0.27626260598E+03 0.  0.
         25    1    3    3    0    0  0.16071912794E+02 -0.59681737984E+01  0.13147028598E+03  0.17882494674E+03  0.12000000000E+03 0.  0.
         25    1    3    3    0    0 -0.16071912794E+02  0.59681737984E+01 -0.12709181182E+02  0.12188293058E+03  0.12000000000E+03 0.  0.
<mgrwt>
<rscale>  0 0.27626261E+03</rscale>
<asrwt>0</asrwt>
<pdfrwt beam="1">  1        2 0.13995906E-01 0.27626261E+03</pdfrwt>
<pdfrwt beam="2">  1       -2 0.32266845E-01 0.27626261E+03</pdfrwt>
<totfact> 0.37683656E+03</totfact>
</mgrwt>
</event>
<event>
 5    1  0.1108889E+001  0.2747488E+03  0.7818608E-02  0.1098592E+00
         -2   -1    0    0    0  501 -0.00000000000E+00  0.00000000000E+00  0.12065821679E+02  0.12065821679E+02  0.00000000000E+00 0. -1.
          2   -1    0    0  501    0  0.00000000000E+00 -0.00000000000E+00 -0.15640652285E+04  0.15640652285E+04  0.00000000000E+00 0. -1.
         35    2    1    2    0    0  0.00000000000E+00  0.00000000000E+00 -0.15519994069E+04  0.15761310502E+04  0.27474884634E+03 0.  0.
         25    1    3    3    0    0  0.97314392589E+01 -0.39686314436E+02 -0.10796632484E+04  0.10870797738E+04  0.12000000000E+03 0.  0.
         25    1    3    3    0    0 -0.97314392589E+01  0.39686314436E+02 -0.47233615842E+03  0.48905127647E+03  0.12000000000E+03 0.  0.
<mgrwt>
<rscale>  0 0.27474885E+03</rscale>
<asrwt>0</asrwt>
<pdfrwt beam="1">  1        2 0.24062539E+00 0.27474885E+03</pdfrwt>
<pdfrwt beam="2">  1       -2 0.18562805E-02 0.27474885E+03</pdfrwt>
<totfact> 0.10879617E+04</totfact>
</mgrwt>
</event>
<event>
 5    1  0.1108889E+001  0.2635746E+03  0.7818608E-02  0.1105014E+00
         -1   -1    0    0    0  501 -0.00000000000E+00  0.00000000000E+00  0.26585884928E+02  0.26585884928E+02  0.00000000000E+00 0. -1.
          1   -1    0    0  501    0  0.00000000000E+00 -0.00000000000E+00 -0.65327504836E+03  0.65327504836E+03  0.00000000000E+00 0. -1.
         35    2    1    2    0    0  0.00000000000E+00  0.00000000000E+00 -0.62668916343E+03  0.67986093328E+03  0.26357462140E+03 0.  0.
         25    1    3    3    0    0 -0.30647602444E+02  0.40890805772E+02 -0.26463842535E+03  0.29503360775E+03  0.12000000000E+03 0.  0.
         25    1    3    3    0    0  0.30647602444E+02 -0.40890805772E+02 -0.36205073808E+03  0.38482732553E+03  0.12000000000E+03 0.  0.
<mgrwt>
<rscale>  0 0.26357462E+03</rscale>
<asrwt>0</asrwt>
<pdfrwt beam="1">  1        1 0.10050385E+00 0.26357462E+03</pdfrwt>
<pdfrwt beam="2">  1       -1 0.40901361E-02 0.26357462E+03</pdfrwt>
<totfact> 0.73773133E+03</totfact>
</mgrwt>
</event>
<event>
 5    1  0.1108889E+001  0.2743285E+03  0.7818608E-02  0.1098828E+00
         -1   -1    0    0    0  501 -0.00000000000E+00  0.00000000000E+00  0.41946339433E+02  0.41946339433E+02  0.00000000000E+00 0.  1.
          1   -1    0    0  501    0  0.00000000000E+00 -0.00000000000E+00 -0.44852615652E+03  0.44852615652E+03  0.00000000000E+00 0.  1.
         35    2    1    2    0    0  0.00000000000E+00  0.00000000000E+00 -0.40657981709E+03  0.49047249595E+03  0.27432849219E+03 0.  0.
         25    1    3    3    0    0  0.42982701637E+02 -0.10276271820E+01 -0.11273197286E+03  0.17016775947E+03  0.12000000000E+03 0.  0.
         25    1    3    3    0    0 -0.42982701637E+02  0.10276271820E+01 -0.29384784423E+03  0.32030473649E+03  0.12000000000E+03 0.  0.
<mgrwt>
<rscale>  0 0.27432849E+03</rscale>
<asrwt>0</asrwt>
<pdfrwt beam="1">  1        1 0.69004025E-01 0.27432849E+03</pdfrwt>
<pdfrwt beam="2">  1       -1 0.64532829E-02 0.27432849E+03</pdfrwt>
<totfact> 0.62066140E+03</totfact>
</mgrwt>
</event>
<event>
 5    1  0.1108889E+001  0.2679564E+03  0.7818608E-02  0.1102455E+00
          1   -1    0    0  501    0  0.00000000000E+00  0.00000000000E+00  0.84228996257E+03  0.84228996257E+03  0.00000000000E+00 0. -1.
         -1   -1    0    0    0  501 -0.00000000000E+00 -0.00000000000E+00 -0.21311137803E+02  0.21311137803E+02  0.00000000000E+00 0. -1.
         35    2    1    2    0    0  0.00000000000E+00  0.00000000000E+00  0.82097882477E+03  0.86360110038E+03  0.26795639543E+03 0.  0.
         25    1    3    3    0    0  0.65439292918E+00  0.59155410979E+02  0.43336226388E+03  0.45354453213E+03  0.12000000000E+03 0.  0.
         25    1    3    3    0    0 -0.65439292918E+00 -0.59155410979E+02  0.38761656090E+03  0.41005656824E+03  0.12000000000E+03 0.  0.
<mgrwt>
<rscale>  0 0.26795640E+03</rscale>
<asrwt>0</asrwt>
<pdfrwt beam="1">  1        1 0.12958305E+00 0.26795640E+03</pdfrwt>
<pdfrwt beam="2">  1       -1 0.32786372E-02 0.26795640E+03</pdfrwt>
<totfact> 0.70091634E+03</totfact>
</mgrwt>
</event>
<event>
 5    1  0.1108889E+001  0.2749240E+03  0.7818608E-02  0.1098494E+00
          2   -1    0    0  501    0  0.00000000000E+00  0.00000000000E+00  0.41095704656E+03  0.41095704656E+03  0.00000000000E+00 0.  1.
         -2   -1    0    0    0  501 -0.00000000000E+00 -0.00000000000E+00 -0.45979999375E+02  0.45979999375E+02  0.00000000000E+00 0.  1.
         35    2    1    2    0    0  0.00000000000E+00  0.00000000000E+00  0.36497704718E+03  0.45693704594E+03  0.27492402401E+03 0.  0.
         25    1    3    3    0    0 -0.13716030586E+02 -0.19437851293E+02  0.78297237528E+02  0.14524605662E+03  0.12000000000E+03 0.  0.
         25    1    3    3    0    0  0.13716030586E+02  0.19437851293E+02  0.28667980966E+03  0.31169098932E+03  0.12000000000E+03 0.  0.
<mgrwt>
<rscale>  0 0.27492402E+03</rscale>
<asrwt>0</asrwt>
<pdfrwt beam="1">  1        2 0.63224159E-01 0.27492402E+03</pdfrwt>
<pdfrwt beam="2">  1       -2 0.70738463E-02 0.27492402E+03</pdfrwt>
<totfact> 0.88251723E+03</totfact>
</mgrwt>
</event>
<event>
 5    1  0.1108889E+001  0.2762471E+03  0.7818608E-02  0.1097757E+00
         -1   -1    0    0    0  501 -0.00000000000E+00  0.00000000000E+00  0.22020981594E+02  0.22020981594E+02  0.00000000000E+00 0.  1.
          1   -1    0    0  501    0  0.00000000000E+00 -0.00000000000E+00 -0.86636065453E+03  0.86636065453E+03  0.00000000000E+00 0.  1.
         35    2    1    2    0    0  0.00000000000E+00  0.00000000000E+00 -0.84433967294E+03  0.88838163613E+03  0.27624707801E+03 0.  0.
         25    1    3    3    0    0  0.56897010830E+02 -0.36525748163E+02 -0.38894917163E+03  0.41261708427E+03  0.12000000000E+03 0.  0.
         25    1    3    3    0    0 -0.56897010830E+02  0.36525748163E+02 -0.45539050131E+03  0.47576455185E+03  0.12000000000E+03 0.  0.
<mgrwt>
<rscale>  0 0.27624708E+03</rscale>
<asrwt>0</asrwt>
<pdfrwt beam="1">  1        1 0.13328622E+00 0.27624708E+03</pdfrwt>
<pdfrwt beam="2">  1       -1 0.33878441E-02 0.27624708E+03</pdfrwt>
<totfact> 0.63905562E+03</totfact>
</mgrwt>
</event>
<event>
 5    1  0.1108889E+001  0.2753105E+03  0.7818608E-02  0.1098278E+00
         -2   -1    0    0    0  501 -0.00000000000E+00  0.00000000000E+00  0.32746237645E+03  0.32746237645E+03  0.00000000000E+00 0. -1.
          2   -1    0    0  501    0  0.00000000000E+00 -0.00000000000E+00 -0.57866083449E+02  0.57866083449E+02  0.00000000000E+00 0. -1.
         35    2    1    2    0    0  0.00000000000E+00  0.00000000000E+00  0.26959629300E+03  0.38532845990E+03  0.27531048074E+03 0.  0.
         25    1    3    3    0    0  0.57344608059E+02  0.20139998457E+02  0.17572200405E+03  0.22129673816E+03  0.12000000000E+03 0.  0.
         25    1    3    3    0    0 -0.57344608059E+02 -0.20139998457E+02  0.93874288945E+02  0.16403172174E+03  0.12000000000E+03 0.  0.
<mgrwt>
<rscale>  0 0.27531048E+03</rscale>
<asrwt>0</asrwt>
<pdfrwt beam="1">  1        2 0.89024746E-02 0.27531048E+03</pdfrwt>
<pdfrwt beam="2">  1       -2 0.50378826E-01 0.27531048E+03</pdfrwt>
<totfact> 0.27973463E+03</totfact>
</mgrwt>
</event>
<event>
 5    1  0.1108889E+001  0.2756509E+03  0.7818608E-02  0.1098088E+00
          2   -1    0    0  501    0  0.00000000000E+00  0.00000000000E+00  0.37876070478E+03  0.37876070478E+03  0.00000000000E+00 0. -1.
         -2   -1    0    0    0  501 -0.00000000000E+00 -0.00000000000E+00 -0.50152668675E+02  0.50152668675E+02  0.00000000000E+00 0. -1.
         35    2    1    2    0    0  0.00000000000E+00  0.00000000000E+00  0.32860803611E+03  0.42891337346E+03  0.27565093966E+03 0.  0.
         25    1    3    3    0    0  0.37141411370E+02 -0.56254347369E+02  0.15310252318E+03  0.20587476446E+03  0.12000000000E+03 0.  0.
         25    1    3    3    0    0 -0.37141411370E+02  0.56254347369E+02  0.17550551293E+03  0.22303860900E+03  0.12000000000E+03 0.  0.
<mgrwt>
<rscale>  0 0.27565094E+03</rscale>
<asrwt>0</asrwt>
<pdfrwt beam="1">  1        2 0.58270876E-01 0.27565094E+03</pdfrwt>
<pdfrwt beam="2">  1       -2 0.77157954E-02 0.27565094E+03</pdfrwt>
<totfact> 0.84258892E+03</totfact>
</mgrwt>
</event>
<event>
 5    1  0.1108889E+001  0.2748817E+03  0.7818608E-02  0.1098518E+00
          2   -1    0    0  501    0  0.00000000000E+00  0.00000000000E+00  0.15772192457E+04  0.15772192457E+04  0.00000000000E+00 0.  1.
         -2   -1    0    0    0  501 -0.00000000000E+00 -0.00000000000E+00 -0.11976767807E+02  0.11976767807E+02  0.00000000000E+00 0.  1.
         35    2    1    2    0    0  0.00000000000E+00  0.00000000000E+00  0.15652424779E+04  0.15891960135E+04  0.27488171046E+03 0.  0.
         25    1    3    3    0    0  0.76002169637E+01 -0.33300085300E+02  0.11159082106E+04  0.11228614311E+04  0.12000000000E+03 0.  0.
         25    1    3    3    0    0 -0.76002169637E+01  0.33300085300E+02  0.44933426727E+03  0.46633458237E+03  0.12000000000E+03 0.  0.
<mgrwt>
<rscale>  0 0.27488171E+03</rscale>
<asrwt>0</asrwt>
<pdfrwt beam="1">  1        2 0.24264895E+00 0.27488171E+03</pdfrwt>
<pdfrwt beam="2">  1       -2 0.18425809E-02 0.27488171E+03</pdfrwt>
<totfact> 0.10823160E+04</totfact>
</mgrwt>
</event>
<event>
 5    1  0.1108889E+001  0.2745574E+03  0.7818608E-02  0.1098699E+00
         -1   -1    0    0    0  501 -0.00000000000E+00  0.00000000000E+00  0.20421530700E+03  0.20421530700E+03  0.00000000000E+00 0. -1.
          1   -1    0    0  501    0  0.00000000000E+00 -0.00000000000E+00 -0.92282212374E+02  0.92282212374E+02  0.00000000000E+00 0. -1.
         35    2    1    2    0    0  0.00000000000E+00  0.00000000000E+00  0.11193309463E+03  0.29649751938E+03  0.27455739167E+03 0.  0.
         25    1    3    3    0    0  0.53898040592E+02 -0.39227693067E+02  0.54587958330E+02  0.14772831779E+03  0.12000000000E+03 0.  0.
         25    1    3    3    0    0 -0.53898040592E+02  0.39227693067E+02  0.57345136299E+02  0.14876920158E+03  0.12000000000E+03 0.  0.
<mgrwt>
<rscale>  0 0.27455739E+03</rscale>
<asrwt>0</asrwt>
<pdfrwt beam="1">  1        1 0.14197264E-01 0.27455739E+03</pdfrwt>
<pdfrwt beam="2">  1       -1 0.31417739E-01 0.27455739E+03</pdfrwt>
<totfact> 0.37622781E+03</totfact>
</mgrwt>
</event>
<event>
 5    1  0.1108889E+001  0.2743824E+03  0.7818608E-02  0.1098797E+00
         -2   -1    0    0    0  501 -0.00000000000E+00  0.00000000000E+00  0.32584164356E+02  0.32584164356E+02  0.00000000000E+00 0.  1.
          2   -1    0    0  501    0  0.00000000000E+00 -0.00000000000E+00 -0.57762508230E+03  0.57762508230E+03  0.00000000000E+00 0.  1.
         35    2    1    2    0    0  0.00000000000E+00  0.00000000000E+00 -0.54504091794E+03  0.61020924665E+03  0.27438243834E+03 0.  0.
         25    1    3    3    0    0  0.61068175302E+02 -0.22301219277E+02 -0.24148365159E+03  0.27738244430E+03  0.12000000000E+03 0.  0.
         25    1    3    3    0    0 -0.61068175302E+02  0.22301219277E+02 -0.30355726634E+03  0.33282680236E+03  0.12000000000E+03 0.  0.
<mgrwt>
<rscale>  0 0.27438244E+03</rscale>
<asrwt>0</asrwt>
<pdfrwt beam="1">  1        2 0.88865396E-01 0.27438244E+03</pdfrwt>
<pdfrwt beam="2">  1       -2 0.50129484E-02 0.27438244E+03</pdfrwt>
<totfact> 0.10235476E+04</totfact>
</mgrwt>
</event>
<event>
 5    1  0.1108889E+001  0.2670519E+03  0.7818608E-02  0.1102979E+00
          4   -1    0    0  501    0  0.00000000000E+00  0.00000000000E+00  0.44327146265E+03  0.44327146265E+03  0.00000000000E+00 0. -1.
         -4   -1    0    0    0  501 -0.00000000000E+00 -0.00000000000E+00 -0.40221796967E+02  0.40221796967E+02  0.00000000000E+00 0. -1.
         35    2    1    2    0    0  0.00000000000E+00  0.00000000000E+00  0.40304966569E+03  0.48349325962E+03  0.26705186591E+03 0.  0.
         25    1    3    3    0    0 -0.78866357294E+01 -0.14296029601E+02  0.30334103456E+03  0.32662265496E+03  0.12000000000E+03 0.  0.
         25    1    3    3    0    0  0.78866357294E+01  0.14296029601E+02  0.99708631130E+02  0.15687060466E+03  0.12000000000E+03 0.  0.
<mgrwt>
<rscale>  0 0.26705187E+03</rscale>
<asrwt>0</asrwt>
<pdfrwt beam="1">  1        4 0.68195606E-01 0.26705187E+03</pdfrwt>
<pdfrwt beam="2">  1       -4 0.61879691E-02 0.26705187E+03</pdfrwt>
<totfact> 0.63556323E+02</totfact>
</mgrwt>
</event>
<event>
 5    1  0.1108889E+001  0.2754422E+03  0.7818608E-02  0.1098205E+00
         -1   -1    0    0    0  501 -0.00000000000E+00  0.00000000000E+00  0.17680691730E+02  0.17680691730E+02  0.00000000000E+00 0.  1.
          1   -1    0    0  501    0  0.00000000000E+00 -0.00000000000E+00 -0.10727579869E+04  0.10727579869E+04  0.00000000000E+00 0.  1.
         35    2    1    2    0    0  0.00000000000E+00  0.00000000000E+00 -0.10550772952E+04  0.10904386787E+04  0.27544221367E+03 0.  0.
         25    1    3    3    0    0 -0.61745496193E+02 -0.22499393856E+02 -0.58992994639E+03  0.60558737658E+03  0.12000000000E+03 0.  0.
         25    1    3    3    0    0  0.61745496193E+02  0.22499393856E+02 -0.46514734881E+03  0.48485130208E+03  0.12000000000E+03 0.  0.
<mgrwt>
<rscale>  0 0.27544221E+03</rscale>
<asrwt>0</asrwt>
<pdfrwt beam="1">  1        1 0.16503970E+00 0.27544221E+03</pdfrwt>
<pdfrwt beam="2">  1       -1 0.27201063E-02 0.27544221E+03</pdfrwt>
<totfact> 0.61551799E+03</totfact>
</mgrwt>
</event>
<event>
 5    1  0.1108889E+001  0.2743993E+03  0.7818608E-02  0.1098788E+00
          1   -1    0    0  501    0  0.00000000000E+00  0.00000000000E+00  0.28445386059E+03  0.28445386059E+03  0.00000000000E+00 0. -1.
         -1   -1    0    0    0  501 -0.00000000000E+00 -0.00000000000E+00 -0.66175015345E+02  0.66175015345E+02  0.00000000000E+00 0. -1.
         35    2    1    2    0    0  0.00000000000E+00  0.00000000000E+00  0.21827884524E+03  0.35062887593E+03  0.27439926086E+03 0.  0.
         25    1    3    3    0    0 -0.63355890078E+02 -0.14377297330E+02  0.12734817759E+03  0.18665003033E+03  0.12000000000E+03 0.  0.
         25    1    3    3    0    0  0.63355890078E+02  0.14377297330E+02  0.90930667651E+02  0.16397884560E+03  0.12000000000E+03 0.  0.
<mgrwt>
<rscale>  0 0.27439926E+03</rscale>
<asrwt>0</asrwt>
<pdfrwt beam="1">  1        1 0.43762132E-01 0.27439926E+03</pdfrwt>
<pdfrwt beam="2">  1       -1 0.10180772E-01 0.27439926E+03</pdfrwt>
<totfact> 0.55190533E+03</totfact>
</mgrwt>
</event>
<event>
 5    1  0.1108889E+001  0.2722136E+03  0.7818608E-02  0.1100019E+00
          1   -1    0    0  501    0  0.00000000000E+00  0.00000000000E+00  0.10366492454E+03  0.10366492454E+03  0.00000000000E+00 0. -1.
         -1   -1    0    0    0  501 -0.00000000000E+00 -0.00000000000E+00 -0.17870138129E+03  0.17870138129E+03  0.00000000000E+00 0. -1.
         35    2    1    2    0    0  0.00000000000E+00  0.00000000000E+00 -0.75036456751E+02  0.28236630584E+03  0.27221363087E+03 0.  0.
         25    1    3    3    0    0  0.60530651489E+02  0.10035886003E+02 -0.57210110103E+02  0.14641610388E+03  0.12000000000E+03 0.  0.
         25    1    3    3    0    0 -0.60530651489E+02 -0.10035886003E+02 -0.17826346648E+02  0.13595020196E+03  0.12000000000E+03 0.  0.
<mgrwt>
<rscale>  0 0.27221363E+03</rscale>
<asrwt>0</asrwt>
<pdfrwt beam="1">  1        1 0.15948450E-01 0.27221363E+03</pdfrwt>
<pdfrwt beam="2">  1       -1 0.27492520E-01 0.27221363E+03</pdfrwt>
<totfact> 0.40496394E+03</totfact>
</mgrwt>
</event>
<event>
 5    1  0.1108889E+001  0.2743134E+03  0.7818608E-02  0.1098836E+00
         -1   -1    0    0    0  501 -0.00000000000E+00  0.00000000000E+00  0.40260040488E+02  0.40260040488E+02  0.00000000000E+00 0. -1.
          1   -1    0    0  501    0  0.00000000000E+00 -0.00000000000E+00 -0.46726148973E+03  0.46726148973E+03  0.00000000000E+00 0. -1.
         35    2    1    2    0    0  0.00000000000E+00  0.00000000000E+00 -0.42700144925E+03  0.50752153022E+03  0.27431344477E+03 0.  0.
         25    1    3    3    0    0  0.11893191285E+02 -0.63967754482E+02 -0.18877194598E+03  0.23295529442E+03  0.12000000000E+03 0.  0.
         25    1    3    3    0    0 -0.11893191285E+02  0.63967754482E+02 -0.23822950327E+03  0.27456623580E+03  0.12000000000E+03 0.  0.
<mgrwt>
<rscale>  0 0.27431344E+03</rscale>
<asrwt>0</asrwt>
<pdfrwt beam="1">  1        1 0.71886381E-01 0.27431344E+03</pdfrwt>
<pdfrwt beam="2">  1       -1 0.61938525E-02 0.27431344E+03</pdfrwt>
<totfact> 0.62597612E+03</totfact>
</mgrwt>
</event>
<event>
 5    1  0.1108889E+001  0.2754414E+03  0.7818608E-02  0.1098205E+00
          1   -1    0    0  501    0  0.00000000000E+00  0.00000000000E+00  0.19378237789E+03  0.19378237789E+03  0.00000000000E+00 0.  1.
         -1   -1    0    0    0  501 -0.00000000000E+00 -0.00000000000E+00 -0.97877766549E+02  0.97877766549E+02  0.00000000000E+00 0.  1.
         35    2    1    2    0    0  0.00000000000E+00  0.00000000000E+00  0.95904611339E+02  0.29166014444E+03  0.27544136468E+03 0.  0.
         25    1    3    3    0    0  0.36986813324E+02 -0.40793221631E+02  0.64679414221E+01  0.13218905233E+03  0.12000000000E+03 0.  0.
         25    1    3    3    0    0 -0.36986813324E+02  0.40793221631E+02  0.89436669917E+02  0.15947109210E+03  0.12000000000E+03 0.  0.
<mgrwt>
<rscale>  0 0.27544136E+03</rscale>
<asrwt>0</asrwt>
<pdfrwt beam="1">  1        1 0.29812673E-01 0.27544136E+03</pdfrwt>
<pdfrwt beam="2">  1       -1 0.15058118E-01 0.27544136E+03</pdfrwt>
<totfact> 0.48444448E+03</totfact>
</mgrwt>
</event>
<event>
 5    1  0.1108889E+001  0.2742547E+03  0.7818608E-02  0.1098869E+00
         -2   -1    0    0    0  501 -0.00000000000E+00  0.00000000000E+00  0.32464834823E+02  0.32464834823E+02  0.00000000000E+00 0. -1.
          2   -1    0    0  501    0  0.00000000000E+00 -0.00000000000E+00 -0.57920838339E+03  0.57920838339E+03  0.00000000000E+00 0. -1.
         35    2    1    2    0    0  0.00000000000E+00  0.00000000000E+00 -0.54674354856E+03  0.61167321821E+03  0.27425465899E+03 0.  0.
         25    1    3    3    0    0  0.44034938987E+02 -0.45436509647E+02 -0.22874591623E+03  0.26594782656E+03  0.12000000000E+03 0.  0.
         25    1    3    3    0    0 -0.44034938987E+02  0.45436509647E+02 -0.31799763233E+03  0.34572539165E+03  0.12000000000E+03 0.  0.
<mgrwt>
<rscale>  0 0.27425466E+03</rscale>
<asrwt>0</asrwt>
<pdfrwt beam="1">  1        2 0.89108981E-01 0.27425466E+03</pdfrwt>
<pdfrwt beam="2">  1       -2 0.49945901E-02 0.27425466E+03</pdfrwt>
<totfact> 0.10260135E+04</totfact>
</mgrwt>
</event>
<event>
 5    1  0.1108889E+001  0.2728589E+03  0.7818608E-02  0.1099654E+00
          2   -1    0    0  501    0  0.00000000000E+00  0.00000000000E+00  0.40938773348E+02  0.40938773348E+02  0.00000000000E+00 0. -1.
         -2   -1    0    0    0  501 -0.00000000000E+00 -0.00000000000E+00 -0.45465447911E+03  0.45465447911E+03  0.00000000000E+00 0. -1.
         35    2    1    2    0    0  0.00000000000E+00  0.00000000000E+00 -0.41371570576E+03  0.49559325246E+03  0.27285891352E+03 0.  0.
         25    1    3    3    0    0 -0.56798865652E+02  0.30290405807E+02 -0.22198630598E+03  0.26042568972E+03  0.12000000000E+03 0.  0.
         25    1    3    3    0    0  0.56798865652E+02 -0.30290405807E+02 -0.19172939978E+03  0.23516756273E+03  0.12000000000E+03 0.  0.
<mgrwt>
<rscale>  0 0.27285891E+03</rscale>
<asrwt>0</asrwt>
<pdfrwt beam="1">  1        2 0.62982728E-02 0.27285891E+03</pdfrwt>
<pdfrwt beam="2">  1       -2 0.69946843E-01 0.27285891E+03</pdfrwt>
<totfact> 0.22088187E+03</totfact>
</mgrwt>
</event>
<event>
 5    1  0.1108889E+001  0.2746874E+03  0.7818608E-02  0.1098626E+00
          2   -1    0    0  501    0  0.00000000000E+00  0.00000000000E+00  0.48972202253E+03  0.48972202253E+03  0.00000000000E+00 0.  1.
         -2   -1    0    0    0  501 -0.00000000000E+00 -0.00000000000E+00 -0.38518374626E+02  0.38518374626E+02  0.00000000000E+00 0.  1.
         35    2    1    2    0    0  0.00000000000E+00  0.00000000000E+00  0.45120364791E+03  0.52824039716E+03  0.27468743201E+03 0.  0.
         25    1    3    3    0    0  0.27665893616E+02 -0.31747266264E+02  0.32534183799E+03  0.34931447456E+03  0.12000000000E+03 0.  0.
         25    1    3    3    0    0 -0.27665893616E+02  0.31747266264E+02  0.12586180991E+03  0.17892592260E+03  0.12000000000E+03 0.  0.
<mgrwt>
<rscale>  0 0.27468743E+03</rscale>
<asrwt>0</asrwt>
<pdfrwt beam="1">  1        2 0.75341845E-01 0.27468743E+03</pdfrwt>
<pdfrwt beam="2">  1       -2 0.59259041E-02 0.27468743E+03</pdfrwt>
<totfact> 0.95580824E+03</totfact>
</mgrwt>
</event>
<event>
 5    1  0.1108889E+001  0.2751975E+03  0.7818608E-02  0.1098341E+00
          2   -1    0    0  501    0  0.00000000000E+00  0.00000000000E+00  0.90780374929E+03  0.90780374929E+03  0.00000000000E+00 0. -1.
         -2   -1    0    0    0  501 -0.00000000000E+00 -0.00000000000E+00 -0.20856288213E+02  0.20856288213E+02  0.00000000000E+00 0. -1.
         35    2    1    2    0    0  0.00000000000E+00  0.00000000000E+00  0.88694746108E+03  0.92866003750E+03  0.27519750461E+03 0.  0.
         25    1    3    3    0    0 -0.17752651306E+02 -0.54797780548E+02  0.56112136048E+03  0.57669327599E+03  0.12000000000E+03 0.  0.
         25    1    3    3    0    0  0.17752651306E+02  0.54797780548E+02  0.32582610059E+03  0.35196676151E+03  0.12000000000E+03 0.  0.
<mgrwt>
<rscale>  0 0.27519750E+03</rscale>
<asrwt>0</asrwt>
<pdfrwt beam="1">  1        2 0.13966208E+00 0.27519750E+03</pdfrwt>
<pdfrwt beam="2">  1       -2 0.32086604E-02 0.27519750E+03</pdfrwt>
<totfact> 0.11467539E+04</totfact>
</mgrwt>
</event>
<event>
 5    1  0.1108889E+001  0.2751295E+03  0.7818608E-02  0.1098379E+00
         -2   -1    0    0    0  501 -0.00000000000E+00  0.00000000000E+00  0.13323648104E+02  0.13323648104E+02  0.00000000000E+00 0.  1.
          2   -1    0    0  501    0  0.00000000000E+00 -0.00000000000E+00 -0.14203357569E+04  0.14203357569E+04  0.00000000000E+00 0.  1.
         35    2    1    2    0    0  0.00000000000E+00  0.00000000000E+00 -0.14070121088E+04  0.14336594050E+04  0.27512945182E+03 0.  0.
         25    1    3    3    0    0  0.61008217188E+02 -0.10627427530E+02 -0.56671651818E+03  0.58258266088E+03  0.12000000000E+03 0.  0.
         25    1    3    3    0    0 -0.61008217188E+02  0.10627427530E+02 -0.84029559059E+03  0.85107674410E+03  0.12000000000E+03 0.  0.
<mgrwt>
<rscale>  0 0.27512945E+03</rscale>
<asrwt>0</asrwt>
<pdfrwt beam="1">  1        2 0.21851316E+00 0.27512945E+03</pdfrwt>
<pdfrwt beam="2">  1       -2 0.20497923E-02 0.27512945E+03</pdfrwt>
<totfact> 0.11229039E+04</totfact>
</mgrwt>
</event>
<event>
 5    1  0.1108889E+001  0.2769584E+03  0.7818608E-02  0.1097362E+00
         -2   -1    0    0    0  501 -0.00000000000E+00  0.00000000000E+00  0.41698913735E+03  0.41698913735E+03  0.00000000000E+00 0. -1.
          2   -1    0    0  501    0  0.00000000000E+00 -0.00000000000E+00 -0.45987965383E+02  0.45987965383E+02  0.00000000000E+00 0. -1.
         35    2    1    2    0    0  0.00000000000E+00  0.00000000000E+00  0.37100117196E+03  0.46297710273E+03  0.27695835076E+03 0.  0.
         25    1    3    3    0    0  0.63707344880E+02 -0.13809227539E+02  0.14711953409E+03  0.20073235381E+03  0.12000000000E+03 0.  0.
         25    1    3    3    0    0 -0.63707344880E+02  0.13809227539E+02  0.22388163787E+03  0.26224474892E+03  0.12000000000E+03 0.  0.
<mgrwt>
<rscale>  0 0.27695835E+03</rscale>
<asrwt>0</asrwt>
<pdfrwt beam="1">  1        2 0.70750719E-02 0.27695835E+03</pdfrwt>
<pdfrwt beam="2">  1       -2 0.64152172E-01 0.27695835E+03</pdfrwt>
<totfact> 0.22841217E+03</totfact>
</mgrwt>
</event>
<event>
 5    1  0.1108889E+001  0.2781326E+03  0.7818608E-02  0.1096713E+00
         -3   -1    0    0    0  501 -0.00000000000E+00  0.00000000000E+00  0.63549261577E+02  0.63549261577E+02  0.00000000000E+00 0.  1.
          3   -1    0    0  501    0  0.00000000000E+00 -0.00000000000E+00 -0.30432187676E+03  0.30432187676E+03  0.00000000000E+00 0.  1.
         35    2    1    2    0    0  0.00000000000E+00  0.00000000000E+00 -0.24077261518E+03  0.36787113834E+03  0.27813256228E+03 0.  0.
         25    1    3    3    0    0 -0.18464603316E+02 -0.63212943294E+02 -0.87917746208E+02  0.16268481144E+03  0.12000000000E+03 0.  0.
         25    1    3    3    0    0  0.18464603316E+02  0.63212943294E+02 -0.15285486898E+03  0.20518632690E+03  0.12000000000E+03 0.  0.
<mgrwt>
<rscale>  0 0.27813256E+03</rscale>
<asrwt>0</asrwt>
<pdfrwt beam="1">  1        3 0.46818750E-01 0.27813256E+03</pdfrwt>
<pdfrwt beam="2">  1       -3 0.97768095E-02 0.27813256E+03</pdfrwt>
<totfact> 0.88890283E+02</totfact>
</mgrwt>
</event>
<event>
 5    1  0.1108889E+001  0.2749598E+03  0.7818608E-02  0.1098474E+00
          2   -1    0    0  501    0  0.00000000000E+00  0.00000000000E+00  0.22862242206E+03  0.22862242206E+03  0.00000000000E+00 0.  1.
         -2   -1    0    0    0  501 -0.00000000000E+00 -0.00000000000E+00 -0.82672215778E+02  0.82672215778E+02  0.00000000000E+00 0.  1.
         35    2    1    2    0    0  0.00000000000E+00  0.00000000000E+00  0.14595020629E+03  0.31129463784E+03  0.27495979494E+03 0.  0.
         25    1    3    3    0    0 -0.22077286381E+01  0.32888694293E+02  0.68226773333E+01  0.12463181457E+03  0.12000000000E+03 0.  0.
         25    1    3    3    0    0  0.22077286381E+01 -0.32888694293E+02  0.13912752895E+03  0.18666282327E+03  0.12000000000E+03 0.  0.
<mgrwt>
<rscale>  0 0.27495979E+03</rscale>
<asrwt>0</asrwt>
<pdfrwt beam="1">  1        2 0.35172680E-01 0.27495979E+03</pdfrwt>
<pdfrwt beam="2">  1       -2 0.12718803E-01 0.27495979E+03</pdfrwt>
<totfact> 0.65633457E+03</totfact>
</mgrwt>
</event>
<event>
 5    1  0.1108889E+001  0.2750619E+03  0.7818608E-02  0.1098417E+00
         -1   -1    0    0    0  501 -0.00000000000E+00  0.00000000000E+00  0.21959873084E+03  0.21959873084E+03  0.00000000000E+00 0.  1.
          1   -1    0    0  501    0  0.00000000000E+00 -0.00000000000E+00 -0.86133297972E+02  0.86133297972E+02  0.00000000000E+00 0.  1.
         35    2    1    2    0    0  0.00000000000E+00  0.00000000000E+00  0.13346543287E+03  0.30573202882E+03  0.27506190516E+03 0.  0.
         25    1    3    3    0    0 -0.41504328305E+02  0.30332519841E+02  0.18640579780E+02  0.13187168856E+03  0.12000000000E+03 0.  0.
         25    1    3    3    0    0  0.41504328305E+02 -0.30332519841E+02  0.11482485309E+03  0.17386034026E+03  0.12000000000E+03 0.  0.
<mgrwt>
<rscale>  0 0.27506191E+03</rscale>
<asrwt>0</asrwt>
<pdfrwt beam="1">  1        1 0.13251277E-01 0.27506191E+03</pdfrwt>
<pdfrwt beam="2">  1       -1 0.33784420E-01 0.27506191E+03</pdfrwt>
<totfact> 0.36368779E+03</totfact>
</mgrwt>
</event>
<event>
 5    1  0.1108889E+001  0.2755361E+03  0.7818608E-02  0.1098152E+00
          1   -1    0    0  501    0  0.00000000000E+00  0.00000000000E+00  0.22737259871E+02  0.22737259871E+02  0.00000000000E+00 0.  1.
         -1   -1    0    0    0  501 -0.00000000000E+00 -0.00000000000E+00 -0.83475470281E+03  0.83475470281E+03  0.00000000000E+00 0.  1.
         35    2    1    2    0    0  0.00000000000E+00  0.00000000000E+00 -0.81201744294E+03  0.85749196268E+03  0.27553609278E+03 0.  0.
         25    1    3    3    0    0 -0.30788346831E+02  0.38774009347E+02 -0.54959324122E+03  0.56471592584E+03  0.12000000000E+03 0.  0.
         25    1    3    3    0    0  0.30788346831E+02 -0.38774009347E+02 -0.26242420173E+03  0.29277603685E+03  0.12000000000E+03 0.  0.
<mgrwt>
<rscale>  0 0.27553609E+03</rscale>
<asrwt>0</asrwt>
<pdfrwt beam="1">  1        1 0.34980396E-02 0.27553609E+03</pdfrwt>
<pdfrwt beam="2">  1       -1 0.12842382E+00 0.27553609E+03</pdfrwt>
<totfact> 0.15393194E+03</totfact>
</mgrwt>
</event>
<event>
 5    1  0.1108889E+001  0.2753658E+03  0.7818608E-02  0.1098247E+00
         -1   -1    0    0    0  501 -0.00000000000E+00  0.00000000000E+00  0.12330251920E+03  0.12330251920E+03  0.00000000000E+00 0. -1.
          1   -1    0    0  501    0  0.00000000000E+00 -0.00000000000E+00 -0.15374042497E+03  0.15374042497E+03  0.00000000000E+00 0. -1.
         35    2    1    2    0    0  0.00000000000E+00  0.00000000000E+00 -0.30437905776E+02  0.27704294417E+03  0.27536580544E+03 0.  0.
         25    1    3    3    0    0  0.43476307685E+02 -0.38425008132E+02  0.19486230741E+02  0.13470851409E+03  0.12000000000E+03 0.  0.
         25    1    3    3    0    0 -0.43476307685E+02  0.38425008132E+02 -0.49924136516E+02  0.14233443008E+03  0.12000000000E+03 0.  0.
<mgrwt>
<rscale>  0 0.27536581E+03</rscale>
<asrwt>0</asrwt>
<pdfrwt beam="1">  1        1 0.23652373E-01 0.27536581E+03</pdfrwt>
<pdfrwt beam="2">  1       -1 0.18969618E-01 0.27536581E+03</pdfrwt>
<totfact> 0.44890919E+03</totfact>
</mgrwt>
</event>
<event>
 5    1  0.1108889E+001  0.2756191E+03  0.7818608E-02  0.1098106E+00
         -2   -1    0    0    0  501 -0.00000000000E+00  0.00000000000E+00  0.21170155643E+02  0.21170155643E+02  0.00000000000E+00 0. -1.
          2   -1    0    0  501    0  0.00000000000E+00 -0.00000000000E+00 -0.89708734790E+03  0.89708734790E+03  0.00000000000E+00 0. -1.
         35    2    1    2    0    0  0.00000000000E+00  0.00000000000E+00 -0.87591719226E+03  0.91825750354E+03  0.27561914868E+03 0.  0.
         25    1    3    3    0    0  0.53180190860E+02 -0.15307533066E+02 -0.56823401095E+03  0.58339724414E+03  0.12000000000E+03 0.  0.
         25    1    3    3    0    0 -0.53180190860E+02  0.15307533066E+02 -0.30768318130E+03  0.33486025940E+03  0.12000000000E+03 0.  0.
<mgrwt>
<rscale>  0 0.27561915E+03</rscale>
<asrwt>0</asrwt>
<pdfrwt beam="1">  1        2 0.13801345E+00 0.27561915E+03</pdfrwt>
<pdfrwt beam="2">  1       -2 0.32569467E-02 0.27561915E+03</pdfrwt>
<totfact> 0.11395304E+04</totfact>
</mgrwt>
</event>
<event>
 5    1  0.1108889E+001  0.2759120E+03  0.7818608E-02  0.1097943E+00
         -2   -1    0    0    0  501 -0.00000000000E+00  0.00000000000E+00  0.26349764276E+02  0.26349764276E+02  0.00000000000E+00 0. -1.
          2   -1    0    0  501    0  0.00000000000E+00 -0.00000000000E+00 -0.72227816844E+03  0.72227816844E+03  0.00000000000E+00 0. -1.
         35    2    1    2    0    0  0.00000000000E+00  0.00000000000E+00 -0.69592840416E+03  0.74862793271E+03  0.27591201119E+03 0.  0.
         25    1    3    3    0    0 -0.42053729851E+02  0.53394555214E+02 -0.35750507798E+03  0.38318321402E+03  0.12000000000E+03 0.  0.
         25    1    3    3    0    0  0.42053729851E+02 -0.53394555214E+02 -0.33842332618E+03  0.36544471870E+03  0.12000000000E+03 0.  0.
<mgrwt>
<rscale>  0 0.27591201E+03</rscale>
<asrwt>0</asrwt>
<pdfrwt beam="1">  1        2 0.11111970E+00 0.27591201E+03</pdfrwt>
<pdfrwt beam="2">  1       -2 0.40538106E-02 0.27591201E+03</pdfrwt>
<totfact> 0.10828825E+04</totfact>
</mgrwt>
</event>
<event>
 5    1  0.1108889E+001  0.2746805E+03  0.7818608E-02  0.1098630E+00
          2   -1    0    0  501    0  0.00000000000E+00  0.00000000000E+00  0.16073701034E+03  0.16073701034E+03  0.00000000000E+00 0. -1.
         -2   -1    0    0    0  501 -0.00000000000E+00 -0.00000000000E+00 -0.11734914177E+03  0.11734914177E+03  0.00000000000E+00 0. -1.
         35    2    1    2    0    0  0.00000000000E+00  0.00000000000E+00  0.43387868572E+02  0.27808615211E+03  0.27468054328E+03 0.  0.
         25    1    3    3    0    0  0.34613764777E+02  0.50758167803E+02  0.48245922262E+02  0.14318580001E+03  0.12000000000E+03 0.  0.
         25    1    3    3    0    0 -0.34613764777E+02 -0.50758167803E+02 -0.48580536897E+01  0.13490035210E+03  0.12000000000E+03 0.  0.
<mgrwt>
<rscale>  0 0.27468054E+03</rscale>
<asrwt>0</asrwt>
<pdfrwt beam="1">  1        2 0.24728771E-01 0.27468054E+03</pdfrwt>
<pdfrwt beam="2">  1       -2 0.18053714E-01 0.27468054E+03</pdfrwt>
<totfact> 0.54169160E+03</totfact>
</mgrwt>
</event>
<event>
 5    1  0.1108889E+001  0.2746807E+03  0.7818608E-02  0.1098630E+00
         -2   -1    0    0    0  501 -0.00000000000E+00  0.00000000000E+00  0.92366784501E+02  0.92366784501E+02  0.00000000000E+00 0.  1.
          2   -1    0    0  501    0  0.00000000000E+00 -0.00000000000E+00 -0.20421162497E+03  0.20421162497E+03  0.00000000000E+00 0.  1.
         35    2    1    2    0    0  0.00000000000E+00  0.00000000000E+00 -0.11184484047E+03  0.29657840947E+03  0.27468069576E+03 0.  0.
         25    1    3    3    0    0 -0.47405617370E+02  0.46991809122E+02 -0.53096835858E+02  0.14722362807E+03  0.12000000000E+03 0.  0.
         25    1    3    3    0    0  0.47405617370E+02 -0.46991809122E+02 -0.58748004611E+02  0.14935478141E+03  0.12000000000E+03 0.  0.
<mgrwt>
<rscale>  0 0.27468070E+03</rscale>
<asrwt>0</asrwt>
<pdfrwt beam="1">  1        2 0.31417173E-01 0.27468070E+03</pdfrwt>
<pdfrwt beam="2">  1       -2 0.14210275E-01 0.27468070E+03</pdfrwt>
<totfact> 0.61926742E+03</totfact>
</mgrwt>
</event>
<event>
 5    1  0.1108889E+001  0.2745647E+03  0.7818608E-02  0.1098695E+00
         -2   -1    0    0    0  501 -0.00000000000E+00  0.00000000000E+00  0.32281651904E+03  0.32281651904E+03  0.00000000000E+00 0. -1.
          2   -1    0    0  501    0  0.00000000000E+00 -0.00000000000E+00 -0.58381273049E+02  0.58381273049E+02  0.00000000000E+00 0. -1.
         35    2    1    2    0    0  0.00000000000E+00  0.00000000000E+00  0.26443524600E+03  0.38119779209E+03  0.27456466883E+03 0.  0.
         25    1    3    3    0    0  0.26541235343E+02 -0.51303594573E+02  0.17847235114E+03  0.22268559925E+03  0.12000000000E+03 0.  0.
         25    1    3    3    0    0 -0.26541235343E+02  0.51303594573E+02  0.85962894855E+02  0.15851219285E+03  0.12000000000E+03 0.  0.
<mgrwt>
<rscale>  0 0.27456467E+03</rscale>
<asrwt>0</asrwt>
<pdfrwt beam="1">  1        2 0.89817345E-02 0.27456467E+03</pdfrwt>
<pdfrwt beam="2">  1       -2 0.49664079E-01 0.27456467E+03</pdfrwt>
<totfact> 0.28461224E+03</totfact>
</mgrwt>
</event>
<event>
 5    1  0.1108889E+001  0.2753613E+03  0.7818608E-02  0.1098250E+00
          2   -1    0    0  501    0  0.00000000000E+00  0.00000000000E+00  0.46457588868E+03  0.46457588868E+03  0.00000000000E+00 0.  1.
         -2   -1    0    0    0  501 -0.00000000000E+00 -0.00000000000E+00 -0.40802728557E+02  0.40802728557E+02  0.00000000000E+00 0.  1.
         35    2    1    2    0    0  0.00000000000E+00  0.00000000000E+00  0.42377316013E+03  0.50537861724E+03  0.27536131812E+03 0.  0.
         25    1    3    3    0    0 -0.24345003138E+01  0.38143892415E+02  0.31399226186E+03  0.33830758760E+03  0.12000000000E+03 0.  0.
         25    1    3    3    0    0  0.24345003138E+01 -0.38143892415E+02  0.10978089827E+03  0.16707102964E+03  0.12000000000E+03 0.  0.
<mgrwt>
<rscale>  0 0.27536132E+03</rscale>
<asrwt>0</asrwt>
<pdfrwt beam="1">  1        2 0.71473210E-01 0.27536132E+03</pdfrwt>
<pdfrwt beam="2">  1       -2 0.62773432E-02 0.27536132E+03</pdfrwt>
<totfact> 0.92769702E+03</totfact>
</mgrwt>
</event>
<event>
 5    1  0.1108889E+001  0.2750866E+03  0.7818608E-02  0.1098403E+00
          2   -1    0    0  501    0  0.00000000000E+00  0.00000000000E+00  0.22072875955E+04  0.22072875955E+04  0.00000000000E+00 0.  1.
         -2   -1    0    0    0  501 -0.00000000000E+00 -0.00000000000E+00 -0.85707727094E+01  0.85707727094E+01  0.00000000000E+00 0.  1.
         35    2    1    2    0    0  0.00000000000E+00  0.00000000000E+00  0.21987168228E+04  0.22158583682E+04  0.27508660662E+03 0.  0.
         25    1    3    3    0    0  0.26480305054E+02 -0.38209221210E+02  0.14904272267E+04  0.14959727501E+04  0.12000000000E+03 0.  0.
         25    1    3    3    0    0 -0.26480305054E+02  0.38209221210E+02  0.70828959616E+03  0.71988561811E+03  0.12000000000E+03 0.  0.
<mgrwt>
<rscale>  0 0.27508661E+03</rscale>
<asrwt>0</asrwt>
<pdfrwt beam="1">  1        2 0.33958225E+00 0.27508661E+03</pdfrwt>
<pdfrwt beam="2">  1       -2 0.13185822E-02 0.27508661E+03</pdfrwt>
<totfact> 0.82218626E+03</totfact>
</mgrwt>
</event>
<event>
 5    1  0.1108889E+001  0.2756135E+03  0.7818608E-02  0.1098109E+00
          1   -1    0    0  501    0  0.00000000000E+00  0.00000000000E+00  0.24686307460E+03  0.24686307460E+03  0.00000000000E+00 0. -1.
         -1   -1    0    0    0  501 -0.00000000000E+00 -0.00000000000E+00 -0.76928057895E+02  0.76928057895E+02  0.00000000000E+00 0. -1.
         35    2    1    2    0    0  0.00000000000E+00  0.00000000000E+00  0.16993501670E+03  0.32379113249E+03  0.27561347496E+03 0.  0.
         25    1    3    3    0    0  0.27869023555E+02 -0.51225889665E+02  0.12549258729E+03  0.18316430796E+03  0.12000000000E+03 0.  0.
         25    1    3    3    0    0 -0.27869023555E+02  0.51225889665E+02  0.44442429413E+02  0.14062682453E+03  0.12000000000E+03 0.  0.
<mgrwt>
<rscale>  0 0.27561347E+03</rscale>
<asrwt>0</asrwt>
<pdfrwt beam="1">  1        1 0.37978934E-01 0.27561347E+03</pdfrwt>
<pdfrwt beam="2">  1       -1 0.11835086E-01 0.27561347E+03</pdfrwt>
<totfact> 0.52188613E+03</totfact>
</mgrwt>
</event>
<event>
 5    1  0.1108889E+001  0.2796173E+03  0.7818608E-02  0.1095898E+00
          2   -1    0    0  501    0  0.00000000000E+00  0.00000000000E+00  0.70702561711E+03  0.70702561711E+03  0.00000000000E+00 0.  1.
         -2   -1    0    0    0  501 -0.00000000000E+00 -0.00000000000E+00 -0.27646036173E+02  0.27646036173E+02  0.00000000000E+00 0.  1.
         35    2    1    2    0    0  0.00000000000E+00  0.00000000000E+00  0.67937958094E+03  0.73467165328E+03  0.27961727977E+03 0.  0.
         25    1    3    3    0    0 -0.46161650206E+02 -0.70508468779E+01  0.48277784683E+03  0.49965494272E+03  0.12000000000E+03 0.  0.
         25    1    3    3    0    0  0.46161650206E+02  0.70508468779E+01  0.19660173411E+03  0.23501671056E+03  0.12000000000E+03 0.  0.
<mgrwt>
<rscale>  0 0.27961728E+03</rscale>
<asrwt>0</asrwt>
<pdfrwt beam="1">  1        2 0.10877316E+00 0.27961728E+03</pdfrwt>
<pdfrwt beam="2">  1       -2 0.42532369E-02 0.27961728E+03</pdfrwt>
<totfact> 0.10343986E+04</totfact>
</mgrwt>
</event>
<event>
 5    1  0.1108889E+001  0.2670536E+03  0.7818608E-02  0.1102978E+00
          1   -1    0    0  501    0  0.00000000000E+00  0.00000000000E+00  0.15339437215E+04  0.15339437215E+04  0.00000000000E+00 0.  1.
         -1   -1    0    0    0  501 -0.00000000000E+00 -0.00000000000E+00 -0.11623249306E+02  0.11623249306E+02  0.00000000000E+00 0.  1.
         35    2    1    2    0    0  0.00000000000E+00  0.00000000000E+00  0.15223204722E+04  0.15455669708E+04  0.26705362979E+03 0.  0.
         25    1    3    3    0    0  0.50195616248E+02 -0.23300102996E+02  0.65030085876E+03  0.66359151712E+03  0.12000000000E+03 0.  0.
         25    1    3    3    0    0 -0.50195616248E+02  0.23300102996E+02  0.87201961343E+03  0.88197545369E+03  0.12000000000E+03 0.  0.
<mgrwt>
<rscale>  0 0.26705363E+03</rscale>
<asrwt>0</asrwt>
<pdfrwt beam="1">  1        1 0.23599118E+00 0.26705363E+03</pdfrwt>
<pdfrwt beam="2">  1       -1 0.17881934E-02 0.26705363E+03</pdfrwt>
<totfact> 0.54863272E+03</totfact>
</mgrwt>
</event>
<event>
 5    1  0.1108889E+001  0.2741312E+03  0.7818608E-02  0.1098938E+00
          2   -1    0    0  501    0  0.00000000000E+00  0.00000000000E+00  0.18922759147E+04  0.18922759147E+04  0.00000000000E+00 0.  1.
         -2   -1    0    0    0  501 -0.00000000000E+00 -0.00000000000E+00 -0.99282474632E+01  0.99282474632E+01  0.00000000000E+00 0.  1.
         35    2    1    2    0    0  0.00000000000E+00  0.00000000000E+00  0.18823476672E+04  0.19022041622E+04  0.27413123536E+03 0.  0.
         25    1    3    3    0    0 -0.56544177651E+02 -0.14483522135E+02  0.72395156030E+03  0.73614732093E+03  0.12000000000E+03 0.  0.
         25    1    3    3    0    0  0.56544177651E+02  0.14483522135E+02  0.11583961069E+04  0.11660568412E+04  0.12000000000E+03 0.  0.
<mgrwt>
<rscale>  0 0.27413124E+03</rscale>
<asrwt>0</asrwt>
<pdfrwt beam="1">  1        2 0.29111909E+00 0.27413124E+03</pdfrwt>
<pdfrwt beam="2">  1       -2 0.15274242E-02 0.27413124E+03</pdfrwt>
<totfact> 0.97242500E+03</totfact>
</mgrwt>
</event>
<event>
 5    1  0.1108889E+001  0.2759621E+03  0.7818608E-02  0.1097915E+00
          1   -1    0    0  501    0  0.00000000000E+00  0.00000000000E+00  0.88440210398E+03  0.88440210398E+03  0.00000000000E+00 0. -1.
         -1   -1    0    0    0  501 -0.00000000000E+00 -0.00000000000E+00 -0.21527275184E+02  0.21527275184E+02  0.00000000000E+00 0. -1.
         35    2    1    2    0    0  0.00000000000E+00  0.00000000000E+00  0.86287482879E+03  0.90592937916E+03  0.27596208048E+03 0.  0.
         25    1    3    3    0    0  0.58553559071E+02  0.24690685375E+02  0.51189077557E+03  0.52959448198E+03  0.12000000000E+03 0.  0.
         25    1    3    3    0    0 -0.58553559071E+02 -0.24690685375E+02  0.35098405322E+03  0.37633489719E+03  0.12000000000E+03 0.  0.
<mgrwt>
<rscale>  0 0.27596208E+03</rscale>
<asrwt>0</asrwt>
<pdfrwt beam="1">  1        1 0.13606183E+00 0.27596208E+03</pdfrwt>
<pdfrwt beam="2">  1       -1 0.33118892E-02 0.27596208E+03</pdfrwt>
<totfact> 0.63933722E+03</totfact>
</mgrwt>
</event>
<event>
 4    1  0.1108889E+001  0.2958737E+03  0.7818608E-02  0.1087322E+00
         -1   -1    0    0    0  501 -0.00000000000E+00  0.00000000000E+00  0.36540599079E+02  0.36540599079E+02  0.00000000000E+00 0.  1.
          1   -1    0    0  501    0  0.00000000000E+00 -0.00000000000E+00 -0.59893158492E+03  0.59893158492E+03  0.00000000000E+00 0.  1.
         25    1    1    2    0    0  0.38218310908E+02 -0.13494059463E+02 -0.11702586459E+03  0.17244646100E+03  0.12000000000E+03 0.  0.
         25    1    1    2    0    0 -0.38218310908E+02  0.13494059463E+02 -0.44536512125E+03  0.46302572300E+03  0.12000000000E+03 0.  0.
<mgrwt>
<rscale>  0 0.29587375E+03</rscale>
<asrwt>0</asrwt>
<pdfrwt beam="1">  1        1 0.92143326E-01 0.29587375E+03</pdfrwt>
<pdfrwt beam="2">  1       -1 0.56216303E-02 0.29587375E+03</pdfrwt>
<totfact> 0.51947871E+03</totfact>
</mgrwt>
</event>
<event>
 5    1  0.1108889E+001  0.2749342E+03  0.7818608E-02  0.1098488E+00
         -2   -1    0    0    0  501 -0.00000000000E+00  0.00000000000E+00  0.47239195216E+02  0.47239195216E+02  0.00000000000E+00 0.  1.
          2   -1    0    0  501    0  0.00000000000E+00 -0.00000000000E+00 -0.40003219464E+03  0.40003219464E+03  0.00000000000E+00 0.  1.
         35    2    1    2    0    0  0.00000000000E+00  0.00000000000E+00 -0.35279299943E+03  0.44727138986E+03  0.27493416620E+03 0.  0.
         25    1    3    3    0    0  0.43862536415E+02 -0.10200262816E+02 -0.25723594184E+03  0.28739919491E+03  0.12000000000E+03 0.  0.
         25    1    3    3    0    0 -0.43862536415E+02  0.10200262816E+02 -0.95557057585E+02  0.15987219495E+03  0.12000000000E+03 0.  0.
<mgrwt>
<rscale>  0 0.27493417E+03</rscale>
<asrwt>0</asrwt>
<pdfrwt beam="1">  1        2 0.61543416E-01 0.27493417E+03</pdfrwt>
<pdfrwt beam="2">  1       -2 0.72675684E-02 0.27493417E+03</pdfrwt>
<totfact> 0.87148687E+03</totfact>
</mgrwt>
</event>
<event>
 5    1  0.1108889E+001  0.2749012E+03  0.7818608E-02  0.1098507E+00
         -2   -1    0    0    0  501 -0.00000000000E+00  0.00000000000E+00  0.44621500849E+02  0.44621500849E+02  0.00000000000E+00 0.  1.
          2   -1    0    0  501    0  0.00000000000E+00 -0.00000000000E+00 -0.42339814736E+03  0.42339814736E+03  0.00000000000E+00 0.  1.
         35    2    1    2    0    0  0.00000000000E+00  0.00000000000E+00 -0.37877664652E+03  0.46801964821E+03  0.27490115163E+03 0.  0.
         25    1    3    3    0    0 -0.28841004007E+02 -0.37701359369E+02 -0.26995577825E+03  0.29921450202E+03  0.12000000000E+03 0.  0.
         25    1    3    3    0    0  0.28841004007E+02  0.37701359369E+02 -0.10882086827E+03  0.16880514619E+03  0.12000000000E+03 0.  0.
<mgrwt>
<rscale>  0 0.27490115E+03</rscale>
<asrwt>0</asrwt>
<pdfrwt beam="1">  1        2 0.65138175E-01 0.27490115E+03</pdfrwt>
<pdfrwt beam="2">  1       -2 0.68648465E-02 0.27490115E+03</pdfrwt>
<totfact> 0.89484980E+03</totfact>
</mgrwt>
</event>
<event>
 5    1  0.1108889E+001  0.2750562E+03  0.7818608E-02  0.1098420E+00
          2   -1    0    0  501    0  0.00000000000E+00  0.00000000000E+00  0.14084468360E+04  0.14084468360E+04  0.00000000000E+00 0. -1.
         -2   -1    0    0    0  501 -0.00000000000E+00 -0.00000000000E+00 -0.13428962712E+02  0.13428962712E+02  0.00000000000E+00 0. -1.
         35    2    1    2    0    0  0.00000000000E+00  0.00000000000E+00  0.13950178733E+04  0.14218757987E+04  0.27505621275E+03 0.  0.
         25    1    3    3    0    0  0.12616462056E+02  0.21632732579E+02  0.37522551505E+03  0.39474211503E+03  0.12000000000E+03 0.  0.
         25    1    3    3    0    0 -0.12616462056E+02 -0.21632732579E+02  0.10197923583E+04  0.10271336837E+04  0.12000000000E+03 0.  0.
<mgrwt>
<rscale>  0 0.27505621E+03</rscale>
<asrwt>0</asrwt>
<pdfrwt beam="1">  1        2 0.21668401E+00 0.27505621E+03</pdfrwt>
<pdfrwt beam="2">  1       -2 0.20659954E-02 0.27505621E+03</pdfrwt>
<totfact> 0.11265397E+04</totfact>
</mgrwt>
</event>
<event>
 5    1  0.1108889E+001  0.2751618E+03  0.7818608E-02  0.1098361E+00
         -2   -1    0    0    0  501 -0.00000000000E+00  0.00000000000E+00  0.11365048302E+02  0.11365048302E+02  0.00000000000E+00 0. -1.
          2   -1    0    0  501    0  0.00000000000E+00 -0.00000000000E+00 -0.16655013769E+04  0.16655013769E+04  0.00000000000E+00 0. -1.
         35    2    1    2    0    0  0.00000000000E+00  0.00000000000E+00 -0.16541363286E+04  0.16768664252E+04  0.27516179673E+03 0.  0.
         25    1    3    3    0    0 -0.71079534150E+01 -0.54775128705E+02 -0.10613283340E+04  0.10695179616E+04  0.12000000000E+03 0.  0.
         25    1    3    3    0    0  0.71079534150E+01  0.54775128705E+02 -0.59280799456E+03  0.60734846352E+03  0.12000000000E+03 0.  0.
<mgrwt>
<rscale>  0 0.27516180E+03</rscale>
<asrwt>0</asrwt>
<pdfrwt beam="1">  1        2 0.25623077E+00 0.27516180E+03</pdfrwt>
<pdfrwt beam="2">  1       -2 0.17484704E-02 0.27516180E+03</pdfrwt>
<totfact> 0.10497014E+04</totfact>
</mgrwt>
</event>
<event>
 5    1  0.1108889E+001  0.2735758E+03  0.7818608E-02  0.1099250E+00
          2   -1    0    0  501    0  0.00000000000E+00  0.00000000000E+00  0.12903239649E+02  0.12903239649E+02  0.00000000000E+00 0.  1.
         -2   -1    0    0    0  501 -0.00000000000E+00 -0.00000000000E+00 -0.14500951208E+04  0.14500951208E+04  0.00000000000E+00 0.  1.
         35    2    1    2    0    0  0.00000000000E+00  0.00000000000E+00 -0.14371918812E+04  0.14629983605E+04  0.27357576543E+03 0.  0.
         25    1    3    3    0    0  0.36059635256E+02  0.49539729260E+02 -0.84474280946E+03  0.85542088834E+03  0.12000000000E+03 0.  0.
         25    1    3    3    0    0 -0.36059635256E+02 -0.49539729260E+02 -0.59244907170E+03  0.60757747212E+03  0.12000000000E+03 0.  0.
<mgrwt>
<rscale>  0 0.27357577E+03</rscale>
<asrwt>0</asrwt>
<pdfrwt beam="1">  1        2 0.19851148E-02 0.27357577E+03</pdfrwt>
<pdfrwt beam="2">  1       -2 0.22309144E+00 0.27357577E+03</pdfrwt>
<totfact> 0.57424049E+02</totfact>
</mgrwt>
</event>
<event>
 5    1  0.1108889E+001  0.2747414E+03  0.7818608E-02  0.1098596E+00
         -1   -1    0    0    0  501 -0.00000000000E+00  0.00000000000E+00  0.12669089046E+02  0.12669089046E+02  0.00000000000E+00 0.  1.
          1   -1    0    0  501    0  0.00000000000E+00 -0.00000000000E+00 -0.14895083723E+04  0.14895083723E+04  0.00000000000E+00 0.  1.
         35    2    1    2    0    0  0.00000000000E+00  0.00000000000E+00 -0.14768392832E+04  0.15021774613E+04  0.27474143628E+03 0.  0.
         25    1    3    3    0    0 -0.15684120146E+02  0.64997278264E+02 -0.73993087738E+03  0.75257447545E+03  0.12000000000E+03 0.  0.
         25    1    3    3    0    0  0.15684120146E+02 -0.64997278264E+02 -0.73690840585E+03  0.74960298586E+03  0.12000000000E+03 0.  0.
<mgrwt>
<rscale>  0 0.27474144E+03</rscale>
<asrwt>0</asrwt>
<pdfrwt beam="1">  1        1 0.22915514E+00 0.27474144E+03</pdfrwt>
<pdfrwt beam="2">  1       -1 0.19490905E-02 0.27474144E+03</pdfrwt>
<totfact> 0.51781982E+03</totfact>
</mgrwt>
</event>
<event>
 5    1  0.1108889E+001  0.2761907E+03  0.7818608E-02  0.1097788E+00
         -2   -1    0    0    0  501 -0.00000000000E+00  0.00000000000E+00  0.84575885627E+01  0.84575885627E+01  0.00000000000E+00 0.  1.
          2   -1    0    0  501    0  0.00000000000E+00 -0.00000000000E+00 -0.22548185644E+04  0.22548185644E+04  0.00000000000E+00 0.  1.
         35    2    1    2    0    0  0.00000000000E+00  0.00000000000E+00 -0.22463609759E+04  0.22632761530E+04  0.27619071456E+03 0.  0.
         25    1    3    3    0    0 -0.25810337462E+02  0.19553756858E+02 -0.63001691278E+03  0.64216028631E+03  0.12000000000E+03 0.  0.
         25    1    3    3    0    0  0.25810337462E+02 -0.19553756858E+02 -0.16163440631E+04  0.16211158667E+04  0.12000000000E+03 0.  0.
<mgrwt>
<rscale>  0 0.27619071E+03</rscale>
<asrwt>0</asrwt>
<pdfrwt beam="1">  1        2 0.34689545E+00 0.27619071E+03</pdfrwt>
<pdfrwt beam="2">  1       -2 0.13011664E-02 0.27619071E+03</pdfrwt>
<totfact> 0.79077274E+03</totfact>
</mgrwt>
</event>
<event>
 5    1  0.1108889E+001  0.2747700E+03  0.7818608E-02  0.1098580E+00
         -2   -1    0    0    0  501 -0.00000000000E+00  0.00000000000E+00  0.81941484499E+01  0.81941484499E+01  0.00000000000E+00 0. -1.
          2   -1    0    0  501    0  0.00000000000E+00 -0.00000000000E+00 -0.23034287195E+04  0.23034287195E+04  0.00000000000E+00 0. -1.
         35    2    1    2    0    0  0.00000000000E+00  0.00000000000E+00 -0.22952345710E+04  0.23116228679E+04  0.27476999015E+03 0.  0.
         25    1    3    3    0    0 -0.50754542714E+02  0.39223595130E+02 -0.13072687929E+04  0.13143310887E+04  0.12000000000E+03 0.  0.
         25    1    3    3    0    0  0.50754542714E+02 -0.39223595130E+02 -0.98796577817E+03  0.99729177920E+03  0.12000000000E+03 0.  0.
<mgrwt>
<rscale>  0 0.27476999E+03</rscale>
<asrwt>0</asrwt>
<pdfrwt beam="1">  1        2 0.35437348E+00 0.27476999E+03</pdfrwt>
<pdfrwt beam="2">  1       -2 0.12606388E-02 0.27476999E+03</pdfrwt>
<totfact> 0.77995125E+03</totfact>
</mgrwt>
</event>
<event>
 5    1  0.1108889E+001  0.2759494E+03  0.7818608E-02  0.1097922E+00
          1   -1    0    0  501    0  0.00000000000E+00  0.00000000000E+00  0.22896982926E+03  0.22896982926E+03  0.00000000000E+00 0. -1.
         -1   -1    0    0    0  501 -0.00000000000E+00 -0.00000000000E+00 -0.83142050249E+02  0.83142050249E+02  0.00000000000E+00 0. -1.
         35    2    1    2    0    0  0.00000000000E+00  0.00000000000E+00  0.14582777901E+03  0.31211187951E+03  0.27594942326E+03 0.  0.
         25    1    3    3    0    0 -0.66640138398E+02  0.13135514335E+02  0.67422626116E+02  0.15349026124E+03  0.12000000000E+03 0.  0.
         25    1    3    3    0    0  0.66640138398E+02 -0.13135514335E+02  0.78405152894E+02  0.15862161827E+03  0.12000000000E+03 0.  0.
<mgrwt>
<rscale>  0 0.27594942E+03</rscale>
<asrwt>0</asrwt>
<pdfrwt beam="1">  1        1 0.35226127E-01 0.27594942E+03</pdfrwt>
<pdfrwt beam="2">  1       -1 0.12791085E-01 0.27594942E+03</pdfrwt>
<totfact> 0.50798606E+03</totfact>
</mgrwt>
</event>
<event>
 5    1  0.1108889E+001  0.2771703E+03  0.7818608E-02  0.1097245E+00
          2   -1    0    0  501    0  0.00000000000E+00  0.00000000000E+00  0.83871597893E+03  0.83871597893E+03  0.00000000000E+00 0. -1.
         -2   -1    0    0    0  501 -0.00000000000E+00 -0.00000000000E+00 -0.22899102115E+02  0.22899102115E+02  0.00000000000E+00 0. -1.
         35    2    1    2    0    0  0.00000000000E+00  0.00000000000E+00  0.81581687682E+03  0.86161508105E+03  0.27717029312E+03 0.  0.
         25    1    3    3    0    0 -0.28571872756E+02  0.19471369103E+02  0.22112357983E+03  0.25395102615E+03  0.12000000000E+03 0.  0.
         25    1    3    3    0    0  0.28571872756E+02 -0.19471369103E+02  0.59469329699E+03  0.60766405489E+03  0.12000000000E+03 0.  0.
<mgrwt>
<rscale>  0 0.27717029E+03</rscale>
<asrwt>0</asrwt>
<pdfrwt beam="1">  1        2 0.12903320E+00 0.27717029E+03</pdfrwt>
<pdfrwt beam="2">  1       -2 0.35229394E-02 0.27717029E+03</pdfrwt>
<totfact> 0.11074602E+04</totfact>
</mgrwt>
</event>
<event>
 5    1  0.1108889E+001  0.2763332E+03  0.7818608E-02  0.1097709E+00
          1   -1    0    0  501    0  0.00000000000E+00  0.00000000000E+00  0.80327730505E+03  0.80327730505E+03  0.00000000000E+00 0.  1.
         -1   -1    0    0    0  501 -0.00000000000E+00 -0.00000000000E+00 -0.23765162367E+02  0.23765162367E+02  0.00000000000E+00 0.  1.
         35    2    1    2    0    0  0.00000000000E+00  0.00000000000E+00  0.77951214268E+03  0.82704246741E+03  0.27633324505E+03 0.  0.
         25    1    3    3    0    0 -0.43706918705E+02  0.48933013970E+02  0.44850276905E+03  0.46889174491E+03  0.12000000000E+03 0.  0.
         25    1    3    3    0    0  0.43706918705E+02 -0.48933013970E+02  0.33100937363E+03  0.35815072250E+03  0.12000000000E+03 0.  0.
<mgrwt>
<rscale>  0 0.27633325E+03</rscale>
<asrwt>0</asrwt>
<pdfrwt beam="1">  1        1 0.12358110E+00 0.27633325E+03</pdfrwt>
<pdfrwt beam="2">  1       -1 0.36561794E-02 0.27633325E+03</pdfrwt>
<totfact> 0.64272326E+03</totfact>
</mgrwt>
</event>
<event>
 5    1  0.1108889E+001  0.2874784E+03  0.7818608E-02  0.1091673E+00
         -1   -1    0    0    0  501 -0.00000000000E+00  0.00000000000E+00  0.40346300092E+02  0.40346300092E+02  0.00000000000E+00 0.  1.
          1   -1    0    0  501    0  0.00000000000E+00 -0.00000000000E+00 -0.51209065418E+03  0.51209065418E+03  0.00000000000E+00 0.  1.
         35    2    1    2    0    0  0.00000000000E+00  0.00000000000E+00 -0.47174435409E+03  0.55243695427E+03  0.28747843890E+03 0.  0.
         25    1    3    3    0    0  0.27492013219E+02 -0.36571085040E+02 -0.11181380029E+03  0.17028088850E+03  0.12000000000E+03 0.  0.
         25    1    3    3    0    0 -0.27492013219E+02  0.36571085040E+02 -0.35993055380E+03  0.38215606578E+03  0.12000000000E+03 0.  0.
<mgrwt>
<rscale>  0 0.28747844E+03</rscale>
<asrwt>0</asrwt>
<pdfrwt beam="1">  1        1 0.78783182E-01 0.28747844E+03</pdfrwt>
<pdfrwt beam="2">  1       -1 0.62071228E-02 0.28747844E+03</pdfrwt>
<totfact> 0.55341182E+03</totfact>
</mgrwt>
</event>
<event>
 5    1  0.1108889E+001  0.2737721E+03  0.7818608E-02  0.1099140E+00
          1   -1    0    0  501    0  0.00000000000E+00  0.00000000000E+00  0.38056045470E+03  0.38056045470E+03  0.00000000000E+00 0. -1.
         -1   -1    0    0    0  501 -0.00000000000E+00 -0.00000000000E+00 -0.49237354294E+02  0.49237354294E+02  0.00000000000E+00 0. -1.
         35    2    1    2    0    0  0.00000000000E+00  0.00000000000E+00  0.33132310040E+03  0.42979780899E+03  0.27377209455E+03 0.  0.
         25    1    3    3    0    0  0.52179821064E+02 -0.27972600766E+02  0.21096075376E+03  0.24981921413E+03  0.12000000000E+03 0.  0.
         25    1    3    3    0    0 -0.52179821064E+02  0.27972600766E+02  0.12036234664E+03  0.17997859486E+03  0.12000000000E+03 0.  0.
<mgrwt>
<rscale>  0 0.27377209E+03</rscale>
<asrwt>0</asrwt>
<pdfrwt beam="1">  1        1 0.58547760E-01 0.27377209E+03</pdfrwt>
<pdfrwt beam="2">  1       -1 0.75749778E-02 0.27377209E+03</pdfrwt>
<totfact> 0.60132337E+03</totfact>
</mgrwt>
</event>
<event>
 5    1  0.1108889E+001  0.2747160E+03  0.7818608E-02  0.1098610E+00
         -2   -1    0    0    0  501 -0.00000000000E+00  0.00000000000E+00  0.11456197095E+03  0.11456197095E+03  0.00000000000E+00 0.  1.
          2   -1    0    0  501    0  0.00000000000E+00 -0.00000000000E+00 -0.16469004205E+03  0.16469004205E+03  0.00000000000E+00 0.  1.
         35    2    1    2    0    0  0.00000000000E+00  0.00000000000E+00 -0.50128071100E+02  0.27925201299E+03  0.27471596832E+03 0.  0.
         25    1    3    3    0    0  0.20556012183E+02 -0.36844704828E+02  0.27629466396E+02  0.13016708234E+03  0.12000000000E+03 0.  0.
         25    1    3    3    0    0 -0.20556012183E+02  0.36844704828E+02 -0.77757537496E+02  0.14908493065E+03  0.12000000000E+03 0.  0.
<mgrwt>
<rscale>  0 0.27471597E+03</rscale>
<asrwt>0</asrwt>
<pdfrwt beam="1">  1        2 0.25336929E-01 0.27471597E+03</pdfrwt>
<pdfrwt beam="2">  1       -2 0.17624919E-01 0.27471597E+03</pdfrwt>
<totfact> 0.54898049E+03</totfact>
</mgrwt>
</event>
<event>
 5    1  0.1108889E+001  0.2736765E+03  0.7818608E-02  0.1099194E+00
         -2   -1    0    0    0  501 -0.00000000000E+00  0.00000000000E+00  0.17823603819E+03  0.17823603819E+03  0.00000000000E+00 0. -1.
          2   -1    0    0  501    0  0.00000000000E+00 -0.00000000000E+00 -0.10505565424E+03  0.10505565424E+03  0.00000000000E+00 0. -1.
         35    2    1    2    0    0  0.00000000000E+00  0.00000000000E+00  0.73180383945E+02  0.28329169243E+03  0.27367647762E+03 0.  0.
         25    1    3    3    0    0 -0.56021750685E+02  0.82441460203E+01  0.71206101325E+02  0.15058788583E+03  0.12000000000E+03 0.  0.
         25    1    3    3    0    0  0.56021750685E+02 -0.82441460203E+01  0.19742826209E+01  0.13270380660E+03  0.12000000000E+03 0.  0.
<mgrwt>
<rscale>  0 0.27367648E+03</rscale>
<asrwt>0</asrwt>
<pdfrwt beam="1">  1        2 0.16162408E-01 0.27367648E+03</pdfrwt>
<pdfrwt beam="2">  1       -2 0.27420929E-01 0.27367648E+03</pdfrwt>
<totfact> 0.42671776E+03</totfact>
</mgrwt>
</event>
<event>
 4    1  0.1108889E+001  0.2466081E+03  0.7818608E-02  0.1115467E+00
          2   -1    0    0  501    0  0.00000000000E+00  0.00000000000E+00  0.17319589065E+04  0.17319589065E+04  0.00000000000E+00 0. -1.
         -2   -1    0    0    0  501 -0.00000000000E+00 -0.00000000000E+00 -0.87784370170E+01  0.87784370170E+01  0.00000000000E+00 0. -1.
         25    1    1    2    0    0 -0.20334054680E+02 -0.11959844372E+02  0.75056834661E+03  0.76046653746E+03  0.12000000000E+03 0.  0.
         25    1    1    2    0    0  0.20334054680E+02  0.11959844372E+02  0.97261212292E+03  0.98027080610E+03  0.12000000000E+03 0.  0.
<mgrwt>
<rscale>  0 0.24660813E+03</rscale>
<asrwt>0</asrwt>
<pdfrwt beam="1">  1        2 0.26645495E+00 0.24660813E+03</pdfrwt>
<pdfrwt beam="2">  1       -2 0.13505301E-02 0.24660813E+03</pdfrwt>
<totfact> 0.14092828E+04</totfact>
</mgrwt>
</event>
<event>
 5    1  0.1108889E+001  0.2748938E+03  0.7818608E-02  0.1098511E+00
         -2   -1    0    0    0  501 -0.00000000000E+00  0.00000000000E+00  0.35789118921E+02  0.35789118921E+02  0.00000000000E+00 0. -1.
          2   -1    0    0  501    0  0.00000000000E+00 -0.00000000000E+00 -0.52786009673E+03  0.52786009673E+03  0.00000000000E+00 0. -1.
         35    2    1    2    0    0  0.00000000000E+00  0.00000000000E+00 -0.49207097781E+03  0.56364921565E+03  0.27489378149E+03 0.  0.
         25    1    3    3    0    0 -0.60595395987E+02  0.25160719808E+02 -0.21801254506E+03  0.25736031869E+03  0.12000000000E+03 0.  0.
         25    1    3    3    0    0  0.60595395987E+02 -0.25160719808E+02 -0.27405843276E+03  0.30628889696E+03  0.12000000000E+03 0.  0.
<mgrwt>
<rscale>  0 0.27489378E+03</rscale>
<asrwt>0</asrwt>
<pdfrwt beam="1">  1        2 0.81209250E-01 0.27489378E+03</pdfrwt>
<pdfrwt beam="2">  1       -2 0.55060180E-02 0.27489378E+03</pdfrwt>
<totfact> 0.98325991E+03</totfact>
</mgrwt>
</event>
<event>
 5    1  0.1108889E+001  0.2730138E+03  0.7818608E-02  0.1099567E+00
         -2   -1    0    0    0  501 -0.00000000000E+00  0.00000000000E+00  0.43541441961E+03  0.43541441961E+03  0.00000000000E+00 0. -1.
          2   -1    0    0  501    0  0.00000000000E+00 -0.00000000000E+00 -0.42796313345E+02  0.42796313345E+02  0.00000000000E+00 0. -1.
         35    2    1    2    0    0  0.00000000000E+00  0.00000000000E+00  0.39261810627E+03  0.47821073296E+03  0.27301378673E+03 0.  0.
         25    1    3    3    0    0 -0.30130591037E+02 -0.80725834884E+01  0.29633614720E+03  0.32122909466E+03  0.12000000000E+03 0.  0.
         25    1    3    3    0    0  0.30130591037E+02  0.80725834884E+01  0.96281959074E+02  0.15698163830E+03  0.12000000000E+03 0.  0.
<mgrwt>
<rscale>  0 0.27301379E+03</rscale>
<asrwt>0</asrwt>
<pdfrwt beam="1">  1        2 0.65840485E-02 0.27301379E+03</pdfrwt>
<pdfrwt beam="2">  1       -2 0.66986831E-01 0.27301379E+03</pdfrwt>
<totfact> 0.22866445E+03</totfact>
</mgrwt>
</event>
<event>
 5    1  0.1108889E+001  0.2751324E+03  0.7818608E-02  0.1098378E+00
          1   -1    0    0  501    0  0.00000000000E+00  0.00000000000E+00  0.27107644490E+03  0.27107644490E+03  0.00000000000E+00 0. -1.
         -1   -1    0    0    0  501 -0.00000000000E+00 -0.00000000000E+00 -0.69812240611E+02  0.69812240611E+02  0.00000000000E+00 0. -1.
         35    2    1    2    0    0  0.00000000000E+00  0.00000000000E+00  0.20126420429E+03  0.34088868551E+03  0.27513236084E+03 0.  0.
         25    1    3    3    0    0 -0.13998779544E+02  0.55982138707E+02  0.14345360097E+03  0.19572659838E+03  0.12000000000E+03 0.  0.
         25    1    3    3    0    0  0.13998779544E+02 -0.55982138707E+02  0.57810603317E+02  0.14516208713E+03  0.12000000000E+03 0.  0.
<mgrwt>
<rscale>  0 0.27513236E+03</rscale>
<asrwt>0</asrwt>
<pdfrwt beam="1">  1        1 0.41704068E-01 0.27513236E+03</pdfrwt>
<pdfrwt beam="2">  1       -1 0.10740345E-01 0.27513236E+03</pdfrwt>
<totfact> 0.53970651E+03</totfact>
</mgrwt>
</event>
<event>
 5    1  0.1108889E+001  0.2670443E+03  0.7818608E-02  0.1102983E+00
          2   -1    0    0  501    0  0.00000000000E+00  0.00000000000E+00  0.73333228606E+03  0.73333228606E+03  0.00000000000E+00 0.  1.
         -2   -1    0    0    0  501 -0.00000000000E+00 -0.00000000000E+00 -0.24311164017E+02  0.24311164017E+02  0.00000000000E+00 0.  1.
         35    2    1    2    0    0  0.00000000000E+00  0.00000000000E+00  0.70902112205E+03  0.75764345008E+03  0.26704427712E+03 0.  0.
         25    1    3    3    0    0 -0.80116359511E+01 -0.42369420279E+02  0.46688470912E+03  0.48398417918E+03  0.12000000000E+03 0.  0.
         25    1    3    3    0    0  0.80116359511E+01  0.42369420279E+02  0.24213641293E+03  0.27365927090E+03  0.12000000000E+03 0.  0.
<mgrwt>
<rscale>  0 0.26704428E+03</rscale>
<asrwt>0</asrwt>
<pdfrwt beam="1">  1        2 0.11282033E+00 0.26704428E+03</pdfrwt>
<pdfrwt beam="2">  1       -2 0.37401796E-02 0.26704428E+03</pdfrwt>
<totfact> 0.11980615E+04</totfact>
</mgrwt>
</event>
<event>
 5    1  0.1108889E+001  0.2749965E+03  0.7818608E-02  0.1098454E+00
          4   -1    0    0  501    0  0.00000000000E+00  0.00000000000E+00  0.46736162547E+03  0.46736162547E+03  0.00000000000E+00 0.  1.
         -4   -1    0    0    0  501 -0.00000000000E+00 -0.00000000000E+00 -0.40452130541E+02  0.40452130541E+02  0.00000000000E+00 0.  1.
         35    2    1    2    0    0  0.00000000000E+00  0.00000000000E+00  0.42690949493E+03  0.50781375601E+03  0.27499653440E+03 0.  0.
         25    1    3    3    0    0 -0.24943711279E+02  0.31536836583E+02  0.11419984541E+03  0.17046514449E+03  0.12000000000E+03 0.  0.
         25    1    3    3    0    0  0.24943711279E+02 -0.31536836583E+02  0.31270964952E+03  0.33734861152E+03  0.12000000000E+03 0.  0.
<mgrwt>
<rscale>  0 0.27499653E+03</rscale>
<asrwt>0</asrwt>
<pdfrwt beam="1">  1        4 0.71901785E-01 0.27499653E+03</pdfrwt>
<pdfrwt beam="2">  1       -4 0.62234050E-02 0.27499653E+03</pdfrwt>
<totfact> 0.56325467E+02</totfact>
</mgrwt>
</event>
<event>
 5    1  0.1108889E+001  0.2749828E+03  0.7818608E-02  0.1098461E+00
          1   -1    0    0  501    0  0.00000000000E+00  0.00000000000E+00  0.63187007335E+02  0.63187007335E+02  0.00000000000E+00 0.  1.
         -1   -1    0    0    0  501 -0.00000000000E+00 -0.00000000000E+00 -0.29917370509E+03  0.29917370509E+03  0.00000000000E+00 0.  1.
         35    2    1    2    0    0  0.00000000000E+00  0.00000000000E+00 -0.23598669776E+03  0.36236071243E+03  0.27498284382E+03 0.  0.
         25    1    3    3    0    0 -0.55130674111E+02 -0.15963397804E+02 -0.72161336644E+02  0.15133234883E+03  0.12000000000E+03 0.  0.
         25    1    3    3    0    0  0.55130674111E+02  0.15963397804E+02 -0.16382536111E+03  0.21102836359E+03  0.12000000000E+03 0.  0.
<mgrwt>
<rscale>  0 0.27498284E+03</rscale>
<asrwt>0</asrwt>
<pdfrwt beam="1">  1        1 0.97210782E-02 0.27498284E+03</pdfrwt>
<pdfrwt beam="2">  1       -1 0.46026723E-01 0.27498284E+03</pdfrwt>
<totfact> 0.31789472E+03</totfact>
</mgrwt>
</event>
<event>
 5    1  0.1108889E+001  0.2730557E+03  0.7818608E-02  0.1099543E+00
          1   -1    0    0  501    0  0.00000000000E+00  0.00000000000E+00  0.45630239016E+03  0.45630239016E+03  0.00000000000E+00 0.  1.
         -1   -1    0    0    0  501 -0.00000000000E+00 -0.00000000000E+00 -0.40849774275E+02  0.40849774275E+02  0.00000000000E+00 0.  1.
         35    2    1    2    0    0  0.00000000000E+00  0.00000000000E+00  0.41545261589E+03  0.49715216444E+03  0.27305566934E+03 0.  0.
         25    1    3    3    0    0  0.39995248382E+02  0.49424918497E+02  0.18214518494E+03  0.22719883551E+03  0.12000000000E+03 0.  0.
         25    1    3    3    0    0 -0.39995248382E+02 -0.49424918497E+02  0.23330743095E+03  0.26995332893E+03  0.12000000000E+03 0.  0.
<mgrwt>
<rscale>  0 0.27305567E+03</rscale>
<asrwt>0</asrwt>
<pdfrwt beam="1">  1        1 0.70200364E-01 0.27305567E+03</pdfrwt>
<pdfrwt beam="2">  1       -1 0.62845810E-02 0.27305567E+03</pdfrwt>
<totfact> 0.63160627E+03</totfact>
</mgrwt>
</event>
<event>
 5    1  0.1108889E+001  0.2754031E+03  0.7818608E-02  0.1098226E+00
         -2   -1    0    0    0  501 -0.00000000000E+00  0.00000000000E+00  0.61996872793E+02  0.61996872793E+02  0.00000000000E+00 0.  1.
          2   -1    0    0  501    0  0.00000000000E+00 -0.00000000000E+00 -0.30584952562E+03  0.30584952562E+03  0.00000000000E+00 0.  1.
         35    2    1    2    0    0  0.00000000000E+00  0.00000000000E+00 -0.24385265282E+03  0.36784639841E+03  0.27540308011E+03 0.  0.
         25    1    3    3    0    0  0.53302189628E+02 -0.74899939796E+01 -0.67433616959E+02  0.14779890434E+03  0.12000000000E+03 0.  0.
         25    1    3    3    0    0 -0.53302189628E+02  0.74899939796E+01 -0.17641903586E+03  0.22004749406E+03  0.12000000000E+03 0.  0.
<mgrwt>
<rscale>  0 0.27540308E+03</rscale>
<asrwt>0</asrwt>
<pdfrwt beam="1">  1        2 0.47053773E-01 0.27540308E+03</pdfrwt>
<pdfrwt beam="2">  1       -2 0.95379804E-02 0.27540308E+03</pdfrwt>
<totfact> 0.76059651E+03</totfact>
</mgrwt>
</event>
<event>
 5    1  0.1108889E+001  0.2722174E+03  0.7818608E-02  0.1100017E+00
         -3   -1    0    0    0  501 -0.00000000000E+00  0.00000000000E+00  0.27275156234E+02  0.27275156234E+02  0.00000000000E+00 0.  1.
          3   -1    0    0  501    0  0.00000000000E+00 -0.00000000000E+00 -0.67921047599E+03  0.67921047599E+03  0.00000000000E+00 0.  1.
         35    2    1    2    0    0  0.00000000000E+00  0.00000000000E+00 -0.65193531975E+03  0.70648563222E+03  0.27221735322E+03 0.  0.
         25    1    3    3    0    0 -0.62368691715E+02  0.15348130709E+02 -0.32495241685E+03  0.35230596367E+03  0.12000000000E+03 0.  0.
         25    1    3    3    0    0  0.62368691715E+02 -0.15348130709E+02 -0.32698290290E+03  0.35417966855E+03  0.12000000000E+03 0.  0.
<mgrwt>
<rscale>  0 0.27221735E+03</rscale>
<asrwt>0</asrwt>
<pdfrwt beam="1">  1        3 0.10449391E+00 0.27221735E+03</pdfrwt>
<pdfrwt beam="2">  1       -3 0.41961782E-02 0.27221735E+03</pdfrwt>
<totfact> 0.62546620E+02</totfact>
</mgrwt>
</event>
<event>
 5    1  0.1108889E+001  0.2763428E+03  0.7818608E-02  0.1097703E+00
          2   -1    0    0  501    0  0.00000000000E+00  0.00000000000E+00  0.50128471330E+03  0.50128471330E+03  0.00000000000E+00 0. -1.
         -2   -1    0    0    0  501 -0.00000000000E+00 -0.00000000000E+00 -0.38084805582E+02  0.38084805582E+02  0.00000000000E+00 0. -1.
         35    2    1    2    0    0  0.00000000000E+00  0.00000000000E+00  0.46319990771E+03  0.53936951888E+03  0.27634276432E+03 0.  0.
         25    1    3    3    0    0 -0.33152117967E+01 -0.17410654452E+02  0.10246703723E+03  0.15878795683E+03  0.12000000000E+03 0.  0.
         25    1    3    3    0    0  0.33152117967E+01  0.17410654452E+02  0.36073287049E+03  0.38058156204E+03  0.12000000000E+03 0.  0.
<mgrwt>
<rscale>  0 0.27634276E+03</rscale>
<asrwt>0</asrwt>
<pdfrwt beam="1">  1        2 0.77120720E-01 0.27634276E+03</pdfrwt>
<pdfrwt beam="2">  1       -2 0.58592012E-02 0.27634276E+03</pdfrwt>
<totfact> 0.94772758E+03</totfact>
</mgrwt>
</event>
<event>
 5    1  0.1108889E+001  0.2752461E+03  0.7818608E-02  0.1098314E+00
         -1   -1    0    0    0  501 -0.00000000000E+00  0.00000000000E+00  0.39372757430E+02  0.39372757430E+02  0.00000000000E+00 0.  1.
          1   -1    0    0  501    0  0.00000000000E+00 -0.00000000000E+00 -0.48104587656E+03  0.48104587656E+03  0.00000000000E+00 0.  1.
         35    2    1    2    0    0  0.00000000000E+00  0.00000000000E+00 -0.44167311913E+03  0.52041863399E+03  0.27524609069E+03 0.  0.
         25    1    3    3    0    0 -0.11451771044E+02  0.66399984470E+02 -0.22076062304E+03  0.26014487057E+03  0.12000000000E+03 0.  0.
         25    1    3    3    0    0  0.11451771044E+02 -0.66399984470E+02 -0.22091249609E+03  0.26027376343E+03  0.12000000000E+03 0.  0.
<mgrwt>
<rscale>  0 0.27524609E+03</rscale>
<asrwt>0</asrwt>
<pdfrwt beam="1">  1        1 0.74007056E-01 0.27524609E+03</pdfrwt>
<pdfrwt beam="2">  1       -1 0.60573475E-02 0.27524609E+03</pdfrwt>
<totfact> 0.62317066E+03</totfact>
</mgrwt>
</event>
<event>
 5    1  0.1108889E+001  0.2754700E+03  0.7818608E-02  0.1098189E+00
         -1   -1    0    0    0  501 -0.00000000000E+00  0.00000000000E+00  0.37094053535E+03  0.37094053535E+03  0.00000000000E+00 0. -1.
          1   -1    0    0  501    0  0.00000000000E+00 -0.00000000000E+00 -0.51142766829E+02  0.51142766829E+02  0.00000000000E+00 0. -1.
         35    2    1    2    0    0  0.00000000000E+00  0.00000000000E+00  0.31979776852E+03  0.42208330218E+03  0.27546996429E+03 0.  0.
         25    1    3    3    0    0  0.32941959018E+02  0.58145577208E+02  0.14420983117E+03  0.19915460381E+03  0.12000000000E+03 0.  0.
         25    1    3    3    0    0 -0.32941959018E+02 -0.58145577208E+02  0.17558793735E+03  0.22292869836E+03  0.12000000000E+03 0.  0.
<mgrwt>
<rscale>  0 0.27546996E+03</rscale>
<asrwt>0</asrwt>
<pdfrwt beam="1">  1        1 0.78681182E-02 0.27546996E+03</pdfrwt>
<pdfrwt beam="2">  1       -1 0.57067773E-01 0.27546996E+03</pdfrwt>
<totfact> 0.28381596E+03</totfact>
</mgrwt>
</event>
<event>
 5    1  0.1108889E+001  0.2746811E+03  0.7818608E-02  0.1098630E+00
          1   -1    0    0  501    0  0.00000000000E+00  0.00000000000E+00  0.63023117417E+03  0.63023117417E+03  0.00000000000E+00 0. -1.
         -1   -1    0    0    0  501 -0.00000000000E+00 -0.00000000000E+00 -0.29929375891E+02  0.29929375891E+02  0.00000000000E+00 0. -1.
         35    2    1    2    0    0  0.00000000000E+00  0.00000000000E+00  0.60030179828E+03  0.66016055006E+03  0.27468109298E+03 0.  0.
         25    1    3    3    0    0  0.11318418607E+02  0.65672146113E+02  0.31129184809E+03  0.34021104048E+03  0.12000000000E+03 0.  0.
         25    1    3    3    0    0 -0.11318418607E+02 -0.65672146113E+02  0.28900995019E+03  0.31994950958E+03  0.12000000000E+03 0.  0.
<mgrwt>
<rscale>  0 0.27468109E+03</rscale>
<asrwt>0</asrwt>
<pdfrwt beam="1">  1        1 0.96958632E-01 0.27468109E+03</pdfrwt>
<pdfrwt beam="2">  1       -1 0.46045199E-02 0.27468109E+03</pdfrwt>
<totfact> 0.65140225E+03</totfact>
</mgrwt>
</event>
<event>
 5    1  0.1108889E+001  0.2724452E+03  0.7818608E-02  0.1099888E+00
          2   -1    0    0  501    0  0.00000000000E+00  0.00000000000E+00  0.12626925664E+04  0.12626925664E+04  0.00000000000E+00 0. -1.
         -2   -1    0    0    0  501 -0.00000000000E+00 -0.00000000000E+00 -0.14696056638E+02  0.14696056638E+02  0.00000000000E+00 0. -1.
         35    2    1    2    0    0  0.00000000000E+00  0.00000000000E+00  0.12479965098E+04  0.12773886231E+04  0.27244523466E+03 0.  0.
         25    1    3    3    0    0 -0.34325523999E+02 -0.54498377985E+02  0.61050135957E+03  0.62550797344E+03  0.12000000000E+03 0.  0.
         25    1    3    3    0    0  0.34325523999E+02  0.54498377985E+02  0.63749515022E+03  0.65188064962E+03  0.12000000000E+03 0.  0.
<mgrwt>
<rscale>  0 0.27244523E+03</rscale>
<asrwt>0</asrwt>
<pdfrwt beam="1">  1        2 0.19426031E+00 0.27244523E+03</pdfrwt>
<pdfrwt beam="2">  1       -2 0.22609328E-02 0.27244523E+03</pdfrwt>
<totfact> 0.11859332E+04</totfact>
</mgrwt>
</event>
<event>
 5    1  0.1108889E+001  0.2775786E+03  0.7818608E-02  0.1097019E+00
         -2   -1    0    0    0  501 -0.00000000000E+00  0.00000000000E+00  0.36999377937E+02  0.36999377937E+02  0.00000000000E+00 0.  1.
          2   -1    0    0  501    0  0.00000000000E+00 -0.00000000000E+00 -0.52061615633E+03  0.52061615633E+03  0.00000000000E+00 0.  1.
         35    2    1    2    0    0  0.00000000000E+00  0.00000000000E+00 -0.48361677839E+03  0.55761553427E+03  0.27757862978E+03 0.  0.
         25    1    3    3    0    0  0.48495798573E+02  0.40433075306E+02 -0.30125824132E+03  0.33036828544E+03  0.12000000000E+03 0.  0.
         25    1    3    3    0    0 -0.48495798573E+02 -0.40433075306E+02 -0.18235853707E+03  0.22724724883E+03  0.12000000000E+03 0.  0.
<mgrwt>
<rscale>  0 0.27757863E+03</rscale>
<asrwt>0</asrwt>
<pdfrwt beam="1">  1        2 0.80094789E-01 0.27757863E+03</pdfrwt>
<pdfrwt beam="2">  1       -2 0.56922123E-02 0.27757863E+03</pdfrwt>
<totfact> 0.94956487E+03</totfact>
</mgrwt>
</event>
<event>
 5    1  0.1108889E+001  0.2757305E+03  0.7818608E-02  0.1098044E+00
         -1   -1    0    0    0  501 -0.00000000000E+00  0.00000000000E+00  0.68909184543E+01  0.68909184543E+01  0.00000000000E+00 0. -1.
          1   -1    0    0  501    0  0.00000000000E+00 -0.00000000000E+00 -0.27582437107E+04  0.27582437107E+04  0.00000000000E+00 0. -1.
         35    2    1    2    0    0  0.00000000000E+00  0.00000000000E+00 -0.27513527922E+04  0.27651346291E+04  0.27573053866E+03 0.  0.
         25    1    3    3    0    0 -0.56337651314E+02 -0.92692278857E+01 -0.17437311745E+04  0.17487876539E+04  0.12000000000E+03 0.  0.
         25    1    3    3    0    0  0.56337651314E+02  0.92692278857E+01 -0.10076216177E+04  0.10163469752E+04  0.12000000000E+03 0.  0.
<mgrwt>
<rscale>  0 0.27573054E+03</rscale>
<asrwt>0</asrwt>
<pdfrwt beam="1">  1        1 0.42434544E+00 0.27573054E+03</pdfrwt>
<pdfrwt beam="2">  1       -1 0.10601407E-02 0.27573054E+03</pdfrwt>
<totfact> 0.18369404E+03</totfact>
</mgrwt>
</event>
<event>
 5    1  0.1108889E+001  0.2754632E+03  0.7818608E-02  0.1098193E+00
          2   -1    0    0  501    0  0.00000000000E+00  0.00000000000E+00  0.87076794605E+02  0.87076794605E+02  0.00000000000E+00 0.  1.
         -2   -1    0    0    0  501 -0.00000000000E+00 -0.00000000000E+00 -0.21785358667E+03  0.21785358667E+03  0.00000000000E+00 0.  1.
         35    2    1    2    0    0  0.00000000000E+00  0.00000000000E+00 -0.13077679207E+03  0.30493038128E+03  0.27546318825E+03 0.  0.
         25    1    3    3    0    0  0.28004357372E+02 -0.22116194641E+02 -0.18301800843E+01  0.12520670771E+03  0.12000000000E+03 0.  0.
         25    1    3    3    0    0 -0.28004357372E+02  0.22116194641E+02 -0.12894661198E+03  0.17972367356E+03  0.12000000000E+03 0.  0.
<mgrwt>
<rscale>  0 0.27546319E+03</rscale>
<asrwt>0</asrwt>
<pdfrwt beam="1">  1        2 0.13396430E-01 0.27546319E+03</pdfrwt>
<pdfrwt beam="2">  1       -2 0.33515936E-01 0.27546319E+03</pdfrwt>
<totfact> 0.37023315E+03</totfact>
</mgrwt>
</event>
<event>
 5    1  0.1108889E+001  0.2742965E+03  0.7818608E-02  0.1098846E+00
          2   -1    0    0  501    0  0.00000000000E+00  0.00000000000E+00  0.97595984853E+03  0.97595984853E+03  0.00000000000E+00 0.  1.
         -2   -1    0    0    0  501 -0.00000000000E+00 -0.00000000000E+00 -0.19272960584E+02  0.19272960584E+02  0.00000000000E+00 0.  1.
         35    2    1    2    0    0  0.00000000000E+00  0.00000000000E+00  0.95668688794E+03  0.99523280911E+03  0.27429645052E+03 0.  0.
         25    1    3    3    0    0  0.61059721776E+02  0.18333943861E+02  0.54575708721E+03  0.56241907984E+03  0.12000000000E+03 0.  0.
         25    1    3    3    0    0 -0.61059721776E+02 -0.18333943861E+02  0.41092980073E+03  0.43281372928E+03  0.12000000000E+03 0.  0.
<mgrwt>
<rscale>  0 0.27429645E+03</rscale>
<asrwt>0</asrwt>
<pdfrwt beam="1">  1        2 0.15014763E+00 0.27429645E+03</pdfrwt>
<pdfrwt beam="2">  1       -2 0.29650716E-02 0.27429645E+03</pdfrwt>
<totfact> 0.11681475E+04</totfact>
</mgrwt>
</event>
<event>
 5    1  0.1108889E+001  0.2755849E+03  0.7818608E-02  0.1098125E+00
          1   -1    0    0  501    0  0.00000000000E+00  0.00000000000E+00  0.17702221346E+03  0.17702221346E+03  0.00000000000E+00 0. -1.
         -1   -1    0    0    0  501 -0.00000000000E+00 -0.00000000000E+00 -0.10725634926E+03  0.10725634926E+03  0.00000000000E+00 0. -1.
         35    2    1    2    0    0  0.00000000000E+00  0.00000000000E+00  0.69765864203E+02  0.28427856272E+03  0.27558487879E+03 0.  0.
         25    1    3    3    0    0 -0.58573500177E+02  0.33816502575E+02  0.31258461715E+02  0.14124978654E+03  0.12000000000E+03 0.  0.
         25    1    3    3    0    0  0.58573500177E+02 -0.33816502575E+02  0.38507402487E+02  0.14302877618E+03  0.12000000000E+03 0.  0.
<mgrwt>
<rscale>  0 0.27558488E+03</rscale>
<asrwt>0</asrwt>
<pdfrwt beam="1">  1        1 0.27234187E-01 0.27558488E+03</pdfrwt>
<pdfrwt beam="2">  1       -1 0.16500977E-01 0.27558488E+03</pdfrwt>
<totfact> 0.46949166E+03</totfact>
</mgrwt>
</event>
<event>
 5    1  0.1108889E+001  0.2753614E+03  0.7818608E-02  0.1098250E+00
          2   -1    0    0  501    0  0.00000000000E+00  0.00000000000E+00  0.78333119343E+03  0.78333119343E+03  0.00000000000E+00 0.  1.
         -2   -1    0    0    0  501 -0.00000000000E+00 -0.00000000000E+00 -0.24199184076E+02  0.24199184076E+02  0.00000000000E+00 0.  1.
         35    2    1    2    0    0  0.00000000000E+00  0.00000000000E+00  0.75913200935E+03  0.80753037750E+03  0.27536140428E+03 0.  0.
         25    1    3    3    0    0  0.27034452329E+01 -0.67130424019E+02  0.39861072411E+03  0.42166848569E+03  0.12000000000E+03 0.  0.
         25    1    3    3    0    0 -0.27034452329E+01  0.67130424019E+02  0.36052128524E+03  0.38586189181E+03  0.12000000000E+03 0.  0.
<mgrwt>
<rscale>  0 0.27536140E+03</rscale>
<asrwt>0</asrwt>
<pdfrwt beam="1">  1        2 0.12051247E+00 0.27536140E+03</pdfrwt>
<pdfrwt beam="2">  1       -2 0.37229520E-02 0.27536140E+03</pdfrwt>
<totfact> 0.11124246E+04</totfact>
</mgrwt>
</event>
<event>
 5    1  0.1108889E+001  0.2720323E+03  0.7818608E-02  0.1100122E+00
          1   -1    0    0  501    0  0.00000000000E+00  0.00000000000E+00  0.68121618406E+03  0.68121618406E+03  0.00000000000E+00 0. -1.
         -1   -1    0    0    0  501 -0.00000000000E+00 -0.00000000000E+00 -0.27157889427E+02  0.27157889427E+02  0.00000000000E+00 0. -1.
         35    2    1    2    0    0  0.00000000000E+00  0.00000000000E+00  0.65405829464E+03  0.70837407349E+03  0.27203230545E+03 0.  0.
         25    1    3    3    0    0  0.28758397679E+02 -0.56603618398E+02  0.34871894050E+03  0.37421372839E+03  0.12000000000E+03 0.  0.
         25    1    3    3    0    0 -0.28758397679E+02  0.56603618398E+02  0.30533935414E+03  0.33416034510E+03  0.12000000000E+03 0.  0.
<mgrwt>
<rscale>  0 0.27203231E+03</rscale>
<asrwt>0</asrwt>
<pdfrwt beam="1">  1        1 0.10480248E+00 0.27203231E+03</pdfrwt>
<pdfrwt beam="2">  1       -1 0.41781373E-02 0.27203231E+03</pdfrwt>
<totfact> 0.67369625E+03</totfact>
</mgrwt>
</event>
<event>
 5    1  0.1108889E+001  0.2750488E+03  0.7818608E-02  0.1098424E+00
         -2   -1    0    0    0  501 -0.00000000000E+00  0.00000000000E+00  0.21729611994E+02  0.21729611994E+02  0.00000000000E+00 0. -1.
          2   -1    0    0  501    0  0.00000000000E+00 -0.00000000000E+00 -0.87037756874E+03  0.87037756874E+03  0.00000000000E+00 0. -1.
         35    2    1    2    0    0  0.00000000000E+00  0.00000000000E+00 -0.84864795675E+03  0.89210718074E+03  0.27504884553E+03 0.  0.
         25    1    3    3    0    0  0.10376331546E+02  0.37957312221E+02 -0.60092204428E+03  0.61404863741E+03  0.12000000000E+03 0.  0.
         25    1    3    3    0    0 -0.10376331546E+02 -0.37957312221E+02 -0.24772591247E+03  0.27805854333E+03  0.12000000000E+03 0.  0.
<mgrwt>
<rscale>  0 0.27504885E+03</rscale>
<asrwt>0</asrwt>
<pdfrwt beam="1">  1        2 0.13390424E+00 0.27504885E+03</pdfrwt>
<pdfrwt beam="2">  1       -2 0.33430172E-02 0.27504885E+03</pdfrwt>
<totfact> 0.11407972E+04</totfact>
</mgrwt>
</event>
<event>
 5    1  0.1108889E+001  0.2751773E+03  0.7818608E-02  0.1098353E+00
         -2   -1    0    0    0  501 -0.00000000000E+00  0.00000000000E+00  0.68984094834E+02  0.68984094834E+02  0.00000000000E+00 0. -1.
          2   -1    0    0  501    0  0.00000000000E+00 -0.00000000000E+00 -0.27442035165E+03  0.27442035165E+03  0.00000000000E+00 0. -1.
         35    2    1    2    0    0  0.00000000000E+00  0.00000000000E+00 -0.20543625682E+03  0.34340444649E+03  0.27517732147E+03 0.  0.
         25    1    3    3    0    0  0.15984196000E+02  0.76978944653E+01 -0.18374662479E+03  0.22017623446E+03  0.12000000000E+03 0.  0.
         25    1    3    3    0    0 -0.15984196000E+02 -0.76978944653E+01 -0.21689632029E+02  0.12322821202E+03  0.12000000000E+03 0.  0.
<mgrwt>
<rscale>  0 0.27517732E+03</rscale>
<asrwt>0</asrwt>
<pdfrwt beam="1">  1        2 0.42218515E-01 0.27517732E+03</pdfrwt>
<pdfrwt beam="2">  1       -2 0.10612938E-01 0.27517732E+03</pdfrwt>
<totfact> 0.72116546E+03</totfact>
</mgrwt>
</event>
<event>
 5    1  0.1108889E+001  0.2740886E+03  0.7818608E-02  0.1098962E+00
         -2   -1    0    0    0  501 -0.00000000000E+00  0.00000000000E+00  0.11695288138E+04  0.11695288138E+04  0.00000000000E+00 0.  1.
          2   -1    0    0  501    0  0.00000000000E+00 -0.00000000000E+00 -0.16058720148E+02  0.16058720148E+02  0.00000000000E+00 0.  1.
         35    2    1    2    0    0  0.00000000000E+00  0.00000000000E+00  0.11534700936E+04  0.11855875339E+04  0.27408856909E+03 0.  0.
         25    1    3    3    0    0 -0.37317186583E+02 -0.34323333411E+02  0.76078624212E+03  0.77185903495E+03  0.12000000000E+03 0.  0.
         25    1    3    3    0    0  0.37317186583E+02  0.34323333411E+02  0.39268385151E+03  0.41372849898E+03  0.12000000000E+03 0.  0.
<mgrwt>
<rscale>  0 0.27408857E+03</rscale>
<asrwt>0</asrwt>
<pdfrwt beam="1">  1        2 0.24705732E-02 0.27408857E+03</pdfrwt>
<pdfrwt beam="2">  1       -2 0.17992744E+00 0.27408857E+03</pdfrwt>
<totfact> 0.79674873E+02</totfact>
</mgrwt>
</event>
<event>
 5    1  0.1108889E+001  0.2749234E+03  0.7818608E-02  0.1098494E+00
          2   -1    0    0  501    0  0.00000000000E+00  0.00000000000E+00  0.21665633181E+02  0.21665633181E+02  0.00000000000E+00 0. -1.
         -2   -1    0    0    0  501 -0.00000000000E+00 -0.00000000000E+00 -0.87215157160E+03  0.87215157160E+03  0.00000000000E+00 0. -1.
         35    2    1    2    0    0  0.00000000000E+00  0.00000000000E+00 -0.85048593842E+03  0.89381720478E+03  0.27492337863E+03 0.  0.
         25    1    3    3    0    0 -0.31486058932E+02  0.47612133365E+02 -0.31087690883E+03  0.33808688172E+03  0.12000000000E+03 0.  0.
         25    1    3    3    0    0  0.31486058932E+02 -0.47612133365E+02 -0.53960902959E+03  0.55573032306E+03  0.12000000000E+03 0.  0.
<mgrwt>
<rscale>  0 0.27492338E+03</rscale>
<asrwt>0</asrwt>
<pdfrwt beam="1">  1        2 0.33331751E-02 0.27492338E+03</pdfrwt>
<pdfrwt beam="2">  1       -2 0.13417714E+00 0.27492338E+03</pdfrwt>
<totfact> 0.11435164E+03</totfact>
</mgrwt>
</event>
<event>
 5    1  0.1108889E+001  0.2736517E+03  0.7818608E-02  0.1099208E+00
         -1   -1    0    0    0  501 -0.00000000000E+00  0.00000000000E+00  0.78843686741E+03  0.78843686741E+03  0.00000000000E+00 0.  1.
          1   -1    0    0  501    0  0.00000000000E+00 -0.00000000000E+00 -0.23744843526E+02  0.23744843526E+02  0.00000000000E+00 0.  1.
         35    2    1    2    0    0  0.00000000000E+00  0.00000000000E+00  0.76469202389E+03  0.81218171094E+03  0.27365167675E+03 0.  0.
         25    1    3    3    0    0  0.99053387975E+00 -0.61719854650E+02  0.44943644978E+03  0.46925839791E+03  0.12000000000E+03 0.  0.
         25    1    3    3    0    0 -0.99053387975E+00  0.61719854650E+02  0.31525557411E+03  0.34292331303E+03  0.12000000000E+03 0.  0.
<mgrwt>
<rscale>  0 0.27365168E+03</rscale>
<asrwt>0</asrwt>
<pdfrwt beam="1">  1        1 0.36530535E-02 0.27365168E+03</pdfrwt>
<pdfrwt beam="2">  1       -1 0.12129796E+00 0.27365168E+03</pdfrwt>
<totfact> 0.16633035E+03</totfact>
</mgrwt>
</event>
<event>
 5    1  0.1108889E+001  0.2692313E+03  0.7818608E-02  0.1101720E+00
          2   -1    0    0  501    0  0.00000000000E+00  0.00000000000E+00  0.46977390394E+03  0.46977390394E+03  0.00000000000E+00 0. -1.
         -2   -1    0    0    0  501 -0.00000000000E+00 -0.00000000000E+00 -0.38574673048E+02  0.38574673048E+02  0.00000000000E+00 0. -1.
         35    2    1    2    0    0  0.00000000000E+00  0.00000000000E+00  0.43119923090E+03  0.50834857699E+03  0.26923131134E+03 0.  0.
         25    1    3    3    0    0 -0.22945747858E+02 -0.50426542566E+02  0.26381329067E+03  0.29507083196E+03  0.12000000000E+03 0.  0.
         25    1    3    3    0    0  0.22945747858E+02  0.50426542566E+02  0.16738594022E+03  0.21327774503E+03  0.12000000000E+03 0.  0.
<mgrwt>
<rscale>  0 0.26923131E+03</rscale>
<asrwt>0</asrwt>
<pdfrwt beam="1">  1        2 0.72272904E-01 0.26923131E+03</pdfrwt>
<pdfrwt beam="2">  1       -2 0.59345654E-02 0.26923131E+03</pdfrwt>
<totfact> 0.99797167E+03</totfact>
</mgrwt>
</event>
<event>
 5    1  0.1108889E+001  0.2746286E+03  0.7818608E-02  0.1098659E+00
          2   -1    0    0  501    0  0.00000000000E+00  0.00000000000E+00  0.41123460650E+03  0.41123460650E+03  0.00000000000E+00 0. -1.
         -2   -1    0    0    0  501 -0.00000000000E+00 -0.00000000000E+00 -0.45850268712E+02  0.45850268712E+02  0.00000000000E+00 0. -1.
         35    2    1    2    0    0  0.00000000000E+00  0.00000000000E+00  0.36538433779E+03  0.45708487522E+03  0.27462860166E+03 0.  0.
         25    1    3    3    0    0 -0.30341767915E+02  0.54610557542E+02  0.22180608221E+03  0.25980930311E+03  0.12000000000E+03 0.  0.
         25    1    3    3    0    0  0.30341767915E+02 -0.54610557542E+02  0.14357825558E+03  0.19727557211E+03  0.12000000000E+03 0.  0.
<mgrwt>
<rscale>  0 0.27462860E+03</rscale>
<asrwt>0</asrwt>
<pdfrwt beam="1">  1        2 0.63266860E-01 0.27462860E+03</pdfrwt>
<pdfrwt beam="2">  1       -2 0.70538878E-02 0.27462860E+03</pdfrwt>
<totfact> 0.88570044E+03</totfact>
</mgrwt>
</event>
<event>
 5    1  0.1108889E+001  0.2750969E+03  0.7818608E-02  0.1098397E+00
         -1   -1    0    0    0  501 -0.00000000000E+00  0.00000000000E+00  0.13034463829E+03  0.13034463829E+03  0.00000000000E+00 0. -1.
          1   -1    0    0  501    0  0.00000000000E+00 -0.00000000000E+00 -0.14515041849E+03  0.14515041849E+03  0.00000000000E+00 0. -1.
         35    2    1    2    0    0  0.00000000000E+00  0.00000000000E+00 -0.14805780199E+02  0.27549505678E+03  0.27509691962E+03 0.  0.
         25    1    3    3    0    0 -0.61876613178E+02 -0.14336847036E+02  0.14658935212E+02  0.13656187178E+03  0.12000000000E+03 0.  0.
         25    1    3    3    0    0  0.61876613178E+02  0.14336847036E+02 -0.29464715411E+02  0.13893318500E+03  0.12000000000E+03 0.  0.
<mgrwt>
<rscale>  0 0.27509692E+03</rscale>
<asrwt>0</asrwt>
<pdfrwt beam="1">  1        1 0.22330834E-01 0.27509692E+03</pdfrwt>
<pdfrwt beam="2">  1       -1 0.20053021E-01 0.27509692E+03</pdfrwt>
<totfact> 0.44151087E+03</totfact>
</mgrwt>
</event>
<event>
 5    1  0.1108889E+001  0.2758963E+03  0.7818608E-02  0.1097952E+00
          1   -1    0    0  501    0  0.00000000000E+00  0.00000000000E+00  0.57789660679E+03  0.57789660679E+03  0.00000000000E+00 0.  1.
         -1   -1    0    0    0  501 -0.00000000000E+00 -0.00000000000E+00 -0.32929230215E+02  0.32929230215E+02  0.00000000000E+00 0.  1.
         35    2    1    2    0    0  0.00000000000E+00  0.00000000000E+00  0.54496737658E+03  0.61082583701E+03  0.27589628780E+03 0.  0.
         25    1    3    3    0    0  0.49474943728E+02  0.44674568750E+02  0.30268658008E+03  0.33235937313E+03  0.12000000000E+03 0.  0.
         25    1    3    3    0    0 -0.49474943728E+02 -0.44674568750E+02  0.24228079650E+03  0.27846646387E+03  0.12000000000E+03 0.  0.
<mgrwt>
<rscale>  0 0.27589629E+03</rscale>
<asrwt>0</asrwt>
<pdfrwt beam="1">  1        1 0.88907162E-01 0.27589629E+03</pdfrwt>
<pdfrwt beam="2">  1       -1 0.50660359E-02 0.27589629E+03</pdfrwt>
<totfact> 0.63710661E+03</totfact>
</mgrwt>
</event>
<event>
 5    1  0.1108889E+001  0.2754940E+03  0.7818608E-02  0.1098176E+00
         -1   -1    0    0    0  501 -0.00000000000E+00  0.00000000000E+00  0.30626089394E+02  0.30626089394E+02  0.00000000000E+00 0.  1.
          1   -1    0    0  501    0  0.00000000000E+00 -0.00000000000E+00 -0.61954466364E+03  0.61954466364E+03  0.00000000000E+00 0.  1.
         35    2    1    2    0    0  0.00000000000E+00  0.00000000000E+00 -0.58891857424E+03  0.65017075303E+03  0.27549395821E+03 0.  0.
         25    1    3    3    0    0  0.42439004922E+02  0.27450472597E+02 -0.18839930636E+03  0.22901724001E+03  0.12000000000E+03 0.  0.
         25    1    3    3    0    0 -0.42439004922E+02 -0.27450472597E+02 -0.40051926789E+03  0.42115351303E+03  0.12000000000E+03 0.  0.
<mgrwt>
<rscale>  0 0.27549396E+03</rscale>
<asrwt>0</asrwt>
<pdfrwt beam="1">  1        1 0.95314556E-01 0.27549396E+03</pdfrwt>
<pdfrwt beam="2">  1       -1 0.47117065E-02 0.27549396E+03</pdfrwt>
<totfact> 0.64474417E+03</totfact>
</mgrwt>
</event>
<event>
 5    1  0.1108889E+001  0.2750543E+03  0.7818608E-02  0.1098421E+00
          1   -1    0    0  501    0  0.00000000000E+00  0.00000000000E+00  0.44801644136E+02  0.44801644136E+02  0.00000000000E+00 0. -1.
         -1   -1    0    0    0  501 -0.00000000000E+00 -0.00000000000E+00 -0.42216584010E+03  0.42216584010E+03  0.00000000000E+00 0. -1.
         35    2    1    2    0    0  0.00000000000E+00  0.00000000000E+00 -0.37736419597E+03  0.46696748424E+03  0.27505434906E+03 0.  0.
         25    1    3    3    0    0 -0.19189044426E+02  0.54081283668E+02 -0.12936553363E+03  0.18554903924E+03  0.12000000000E+03 0.  0.
         25    1    3    3    0    0  0.19189044426E+02 -0.54081283668E+02 -0.24799866233E+03  0.28141844500E+03  0.12000000000E+03 0.  0.
<mgrwt>
<rscale>  0 0.27505435E+03</rscale>
<asrwt>0</asrwt>
<pdfrwt beam="1">  1        1 0.68925607E-02 0.27505435E+03</pdfrwt>
<pdfrwt beam="2">  1       -1 0.64948590E-01 0.27505435E+03</pdfrwt>
<totfact> 0.26484578E+03</totfact>
</mgrwt>
</event>
<event>
 5    1  0.1108889E+001  0.2757457E+03  0.7818608E-02  0.1098036E+00
         -2   -1    0    0    0  501 -0.00000000000E+00  0.00000000000E+00  0.14707795169E+03  0.14707795169E+03  0.00000000000E+00 0.  1.
          2   -1    0    0  501    0  0.00000000000E+00 -0.00000000000E+00 -0.12924384677E+03  0.12924384677E+03  0.00000000000E+00 0.  1.
         35    2    1    2    0    0  0.00000000000E+00  0.00000000000E+00  0.17834104919E+02  0.27632179845E+03  0.27574568175E+03 0.  0.
         25    1    3    3    0    0 -0.39227367488E+02 -0.55400463093E+02  0.79545356670E+01  0.13809877736E+03  0.12000000000E+03 0.  0.
         25    1    3    3    0    0  0.39227367488E+02  0.55400463093E+02  0.98795692520E+01  0.13822302109E+03  0.12000000000E+03 0.  0.
<mgrwt>
<rscale>  0 0.27574568E+03</rscale>
<asrwt>0</asrwt>
<pdfrwt beam="1">  1        2 0.19883669E-01 0.27574568E+03</pdfrwt>
<pdfrwt beam="2">  1       -2 0.22627377E-01 0.27574568E+03</pdfrwt>
<totfact> 0.47098695E+03</totfact>
</mgrwt>
</event>
<event>
 5    1  0.1108889E+001  0.2746530E+03  0.7818608E-02  0.1098646E+00
         -2   -1    0    0    0  501 -0.00000000000E+00  0.00000000000E+00  0.67214810188E+02  0.67214810188E+02  0.00000000000E+00 0. -1.
          2   -1    0    0  501    0  0.00000000000E+00 -0.00000000000E+00 -0.28057166451E+03  0.28057166451E+03  0.00000000000E+00 0. -1.
         35    2    1    2    0    0  0.00000000000E+00  0.00000000000E+00 -0.21335685432E+03  0.34778647470E+03  0.27465302601E+03 0.  0.
         25    1    3    3    0    0 -0.28185475559E+02  0.39299699624E+02 -0.48379060677E+02  0.13812827710E+03  0.12000000000E+03 0.  0.
         25    1    3    3    0    0  0.28185475559E+02 -0.39299699624E+02 -0.16497779364E+03  0.20965819759E+03  0.12000000000E+03 0.  0.
<mgrwt>
<rscale>  0 0.27465303E+03</rscale>
<asrwt>0</asrwt>
<pdfrwt beam="1">  1        2 0.43164872E-01 0.27465303E+03</pdfrwt>
<pdfrwt beam="2">  1       -2 0.10340740E-01 0.27465303E+03</pdfrwt>
<totfact> 0.73392076E+03</totfact>
</mgrwt>
</event>
<event>
 5    1  0.1108889E+001  0.2755182E+03  0.7818608E-02  0.1098162E+00
         -3   -1    0    0    0  501 -0.00000000000E+00  0.00000000000E+00  0.20793086817E+03  0.20793086817E+03  0.00000000000E+00 0. -1.
          3   -1    0    0  501    0  0.00000000000E+00 -0.00000000000E+00 -0.91268639208E+02  0.91268639208E+02  0.00000000000E+00 0. -1.
         35    2    1    2    0    0  0.00000000000E+00  0.00000000000E+00  0.11666222896E+03  0.29919950738E+03  0.27551818370E+03 0.  0.
         25    1    3    3    0    0  0.31789578664E+02  0.71081347708E+01 -0.60656023070E+01  0.12449053949E+03  0.12000000000E+03 0.  0.
         25    1    3    3    0    0 -0.31789578664E+02 -0.71081347708E+01  0.12272783127E+03  0.17470896788E+03  0.12000000000E+03 0.  0.
<mgrwt>
<rscale>  0 0.27551818E+03</rscale>
<asrwt>0</asrwt>
<pdfrwt beam="1">  1        3 0.14041329E-01 0.27551818E+03</pdfrwt>
<pdfrwt beam="2">  1       -3 0.31989364E-01 0.27551818E+03</pdfrwt>
<totfact> 0.10068482E+03</totfact>
</mgrwt>
</event>
<event>
 5    1  0.1108889E+001  0.2768273E+03  0.7818608E-02  0.1097435E+00
         -2   -1    0    0    0  501 -0.00000000000E+00  0.00000000000E+00  0.11791743326E+03  0.11791743326E+03  0.00000000000E+00 0. -1.
          2   -1    0    0  501    0  0.00000000000E+00 -0.00000000000E+00 -0.16247245127E+03  0.16247245127E+03  0.00000000000E+00 0. -1.
         35    2    1    2    0    0  0.00000000000E+00  0.00000000000E+00 -0.44555018010E+02  0.28038988453E+03  0.27682727054E+03 0.  0.
         25    1    3    3    0    0  0.52072382715E+02 -0.27067013796E+02  0.14440624142E+02  0.13436029139E+03  0.12000000000E+03 0.  0.
         25    1    3    3    0    0 -0.52072382715E+02  0.27067013796E+02 -0.58995642153E+02  0.14602959313E+03  0.12000000000E+03 0.  0.
<mgrwt>
<rscale>  0 0.27682727E+03</rscale>
<asrwt>0</asrwt>
<pdfrwt beam="1">  1        2 0.24995762E-01 0.27682727E+03</pdfrwt>
<pdfrwt beam="2">  1       -2 0.18141144E-01 0.27682727E+03</pdfrwt>
<totfact> 0.53102405E+03</totfact>
</mgrwt>
</event>
<event>
 5    1  0.1108889E+001  0.2754484E+03  0.7818608E-02  0.1098201E+00
         -2   -1    0    0    0  501 -0.00000000000E+00  0.00000000000E+00  0.13478955181E+02  0.13478955181E+02  0.00000000000E+00 0. -1.
          2   -1    0    0  501    0  0.00000000000E+00 -0.00000000000E+00 -0.14072272668E+04  0.14072272668E+04  0.00000000000E+00 0. -1.
         35    2    1    2    0    0  0.00000000000E+00  0.00000000000E+00 -0.13937483116E+04  0.14207062220E+04  0.27544838543E+03 0.  0.
         25    1    3    3    0    0  0.18522295974E+02  0.16329102820E+02 -0.10213743903E+04  0.10286959513E+04  0.12000000000E+03 0.  0.
         25    1    3    3    0    0 -0.18522295974E+02 -0.16329102820E+02 -0.37237392133E+03  0.39201027070E+03  0.12000000000E+03 0.  0.
<mgrwt>
<rscale>  0 0.27544839E+03</rscale>
<asrwt>0</asrwt>
<pdfrwt beam="1">  1        2 0.21649640E+00 0.27544839E+03</pdfrwt>
<pdfrwt beam="2">  1       -2 0.20736864E-02 0.27544839E+03</pdfrwt>
<totfact> 0.11221363E+04</totfact>
</mgrwt>
</event>
<event>
 5    1  0.1108889E+001  0.2891764E+03  0.7818608E-02  0.1090780E+00
          1   -1    0    0  501    0  0.00000000000E+00  0.00000000000E+00  0.17059077083E+03  0.17059077083E+03  0.00000000000E+00 0. -1.
         -1   -1    0    0    0  501 -0.00000000000E+00 -0.00000000000E+00 -0.12254910761E+03  0.12254910761E+03  0.00000000000E+00 0. -1.
         35    2    1    2    0    0  0.00000000000E+00  0.00000000000E+00  0.48041663225E+02  0.29313987844E+03  0.28917639413E+03 0.  0.
         25    1    3    3    0    0 -0.80344501928E+02  0.37140442815E+01  0.17878607680E+02  0.14556331175E+03  0.12000000000E+03 0.  0.
         25    1    3    3    0    0  0.80344501928E+02 -0.37140442815E+01  0.30163055545E+02  0.14757656669E+03  0.12000000000E+03 0.  0.
<mgrwt>
<rscale>  0 0.28917639E+03</rscale>
<asrwt>0</asrwt>
<pdfrwt beam="1">  1        1 0.26244734E-01 0.28917639E+03</pdfrwt>
<pdfrwt beam="2">  1       -1 0.18853709E-01 0.28917639E+03</pdfrwt>
<totfact> 0.39766534E+03</totfact>
</mgrwt>
</event>
<event>
 5    1  0.1108889E+001  0.2762070E+03  0.7818608E-02  0.1097779E+00
         -2   -1    0    0    0  501 -0.00000000000E+00  0.00000000000E+00  0.78753112309E+02  0.78753112309E+02  0.00000000000E+00 0.  1.
          2   -1    0    0  501    0  0.00000000000E+00 -0.00000000000E+00 -0.24218182279E+03  0.24218182279E+03  0.00000000000E+00 0.  1.
         35    2    1    2    0    0  0.00000000000E+00  0.00000000000E+00 -0.16342871048E+03  0.32093493510E+03  0.27620696797E+03 0.  0.
         25    1    3    3    0    0 -0.15529101043E+02  0.62278764870E+02 -0.54395879432E+02  0.14655616409E+03  0.12000000000E+03 0.  0.
         25    1    3    3    0    0  0.15529101043E+02 -0.62278764870E+02 -0.10903283105E+03  0.17437877101E+03  0.12000000000E+03 0.  0.
<mgrwt>
<rscale>  0 0.27620697E+03</rscale>
<asrwt>0</asrwt>
<pdfrwt beam="1">  1        2 0.37258742E-01 0.27620697E+03</pdfrwt>
<pdfrwt beam="2">  1       -2 0.12115863E-01 0.27620697E+03</pdfrwt>
<totfact> 0.66717880E+03</totfact>
</mgrwt>
</event>
<event>
 5    1  0.1108889E+001  0.2853420E+03  0.7818608E-02  0.1092807E+00
         -2   -1    0    0    0  501 -0.00000000000E+00  0.00000000000E+00  0.57815243608E+02  0.57815243608E+02  0.00000000000E+00 0.  1.
          2   -1    0    0  501    0  0.00000000000E+00 -0.00000000000E+00 -0.35207007009E+03  0.35207007009E+03  0.00000000000E+00 0.  1.
         35    2    1    2    0    0  0.00000000000E+00  0.00000000000E+00 -0.29425482648E+03  0.40988531370E+03  0.28534201842E+03 0.  0.
         25    1    3    3    0    0  0.76333614057E+01 -0.76591561951E+02 -0.15505814715E+03  0.21063609512E+03  0.12000000000E+03 0.  0.
         25    1    3    3    0    0 -0.76333614057E+01  0.76591561951E+02 -0.13919667933E+03  0.19924921858E+03  0.12000000000E+03 0.  0.
<mgrwt>
<rscale>  0 0.28534202E+03</rscale>
<asrwt>0</asrwt>
<pdfrwt beam="1">  1        2 0.54164625E-01 0.28534202E+03</pdfrwt>
<pdfrwt beam="2">  1       -2 0.88946530E-02 0.28534202E+03</pdfrwt>
<totfact> 0.73070747E+03</totfact>
</mgrwt>
</event>
<event>
 5    1  0.1108889E+001  0.2748756E+03  0.7818608E-02  0.1098521E+00
         -2   -1    0    0    0  501 -0.00000000000E+00  0.00000000000E+00  0.58485529034E+02  0.58485529034E+02  0.00000000000E+00 0.  1.
          2   -1    0    0  501    0  0.00000000000E+00 -0.00000000000E+00 -0.32297134215E+03  0.32297134215E+03  0.00000000000E+00 0.  1.
         35    2    1    2    0    0  0.00000000000E+00  0.00000000000E+00 -0.26448581312E+03  0.38145687119E+03  0.27487560684E+03 0.  0.
         25    1    3    3    0    0  0.56183590451E+02 -0.19494948442E+02 -0.89413510377E+02  0.16103237156E+03  0.12000000000E+03 0.  0.
         25    1    3    3    0    0 -0.56183590451E+02  0.19494948442E+02 -0.17507230274E+03  0.22042449963E+03  0.12000000000E+03 0.  0.
<mgrwt>
<rscale>  0 0.27487561E+03</rscale>
<asrwt>0</asrwt>
<pdfrwt beam="1">  1        2 0.49687898E-01 0.27487561E+03</pdfrwt>
<pdfrwt beam="2">  1       -2 0.89977738E-02 0.27487561E+03</pdfrwt>
<totfact> 0.78645281E+03</totfact>
</mgrwt>
</event>
<event>
 5    1  0.1108889E+001  0.2756917E+03  0.7818608E-02  0.1098066E+00
         -2   -1    0    0    0  501 -0.00000000000E+00  0.00000000000E+00  0.10729891816E+04  0.10729891816E+04  0.00000000000E+00 0.  1.
          2   -1    0    0  501    0  0.00000000000E+00 -0.00000000000E+00 -0.17708920700E+02  0.17708920700E+02  0.00000000000E+00 0.  1.
         35    2    1    2    0    0  0.00000000000E+00  0.00000000000E+00  0.10552802609E+04  0.10906981023E+04  0.27569171426E+03 0.  0.
         25    1    3    3    0    0 -0.56590223538E+02  0.12608364412E+02  0.66695629376E+03  0.68014125154E+03  0.12000000000E+03 0.  0.
         25    1    3    3    0    0  0.56590223538E+02 -0.12608364412E+02  0.38832396710E+03  0.41055685073E+03  0.12000000000E+03 0.  0.
<mgrwt>
<rscale>  0 0.27569171E+03</rscale>
<asrwt>0</asrwt>
<pdfrwt beam="1">  1        2 0.27244502E-02 0.27569171E+03</pdfrwt>
<pdfrwt beam="2">  1       -2 0.16507521E+00 0.27569171E+03</pdfrwt>
<totfact> 0.88103100E+02</totfact>
</mgrwt>
</event>
<event>
 5    1  0.1108889E+001  0.2755930E+03  0.7818608E-02  0.1098121E+00
         -3   -1    0    0    0  501 -0.00000000000E+00  0.00000000000E+00  0.10181346090E+03  0.10181346090E+03  0.00000000000E+00 0. -1.
          3   -1    0    0  501    0  0.00000000000E+00 -0.00000000000E+00 -0.18649667550E+03  0.18649667550E+03  0.00000000000E+00 0. -1.
         35    2    1    2    0    0  0.00000000000E+00  0.00000000000E+00 -0.84683214600E+02  0.28831013641E+03  0.27559297509E+03 0.  0.
         25    1    3    3    0    0  0.42694665194E+02  0.39832335685E+02 -0.78253830849E+02  0.15470330134E+03  0.12000000000E+03 0.  0.
         25    1    3    3    0    0 -0.42694665194E+02 -0.39832335685E+02 -0.64293837506E+01  0.13360683507E+03  0.12000000000E+03 0.  0.
<mgrwt>
<rscale>  0 0.27559298E+03</rscale>
<asrwt>0</asrwt>
<pdfrwt beam="1">  1        3 0.28691796E-01 0.27559298E+03</pdfrwt>
<pdfrwt beam="2">  1       -3 0.15663609E-01 0.27559298E+03</pdfrwt>
<totfact> 0.10220832E+03</totfact>
</mgrwt>
</event>
<event>
 5    1  0.1108889E+001  0.2738167E+03  0.7818608E-02  0.1099115E+00
          1   -1    0    0  501    0  0.00000000000E+00  0.00000000000E+00  0.82794121677E+02  0.82794121677E+02  0.00000000000E+00 0. -1.
         -1   -1    0    0    0  501 -0.00000000000E+00 -0.00000000000E+00 -0.22639155837E+03  0.22639155837E+03  0.00000000000E+00 0. -1.
         35    2    1    2    0    0  0.00000000000E+00  0.00000000000E+00 -0.14359743669E+03  0.30918568004E+03  0.27381665567E+03 0.  0.
         25    1    3    3    0    0 -0.42735507236E+02  0.21446612039E+02 -0.12301888486E+03  0.17838140816E+03  0.12000000000E+03 0.  0.
         25    1    3    3    0    0  0.42735507236E+02 -0.21446612039E+02 -0.20578551833E+02  0.13080427188E+03  0.12000000000E+03 0.  0.
<mgrwt>
<rscale>  0 0.27381666E+03</rscale>
<asrwt>0</asrwt>
<pdfrwt beam="1">  1        1 0.12737557E-01 0.27381666E+03</pdfrwt>
<pdfrwt beam="2">  1       -1 0.34829470E-01 0.27381666E+03</pdfrwt>
<totfact> 0.36347856E+03</totfact>
</mgrwt>
</event>
<event>
 5    1  0.1108889E+001  0.2749525E+03  0.7818608E-02  0.1098478E+00
         -2   -1    0    0    0  501 -0.00000000000E+00  0.00000000000E+00  0.45115141459E+02  0.45115141459E+02  0.00000000000E+00 0. -1.
          2   -1    0    0  501    0  0.00000000000E+00 -0.00000000000E+00 -0.41892185449E+03  0.41892185449E+03  0.00000000000E+00 0. -1.
         35    2    1    2    0    0  0.00000000000E+00  0.00000000000E+00 -0.37380671303E+03  0.46403699595E+03  0.27495249572E+03 0.  0.
         25    1    3    3    0    0 -0.32446075987E+02  0.57098051798E+02 -0.16383779500E+03  0.21343794985E+03  0.12000000000E+03 0.  0.
         25    1    3    3    0    0  0.32446075987E+02 -0.57098051798E+02 -0.20996891803E+03  0.25059904610E+03  0.12000000000E+03 0.  0.
<mgrwt>
<rscale>  0 0.27495250E+03</rscale>
<asrwt>0</asrwt>
<pdfrwt beam="1">  1        2 0.64449516E-01 0.27495250E+03</pdfrwt>
<pdfrwt beam="2">  1       -2 0.69407910E-02 0.27495250E+03</pdfrwt>
<totfact> 0.89002683E+03</totfact>
</mgrwt>
</event>
<event>
 5    1  0.1108889E+001  0.2753928E+03  0.7818608E-02  0.1098232E+00
         -1   -1    0    0    0  501 -0.00000000000E+00  0.00000000000E+00  0.36650541910E+02  0.36650541910E+02  0.00000000000E+00 0. -1.
          1   -1    0    0  501    0  0.00000000000E+00 -0.00000000000E+00 -0.51732663983E+03  0.51732663983E+03  0.00000000000E+00 0. -1.
         35    2    1    2    0    0  0.00000000000E+00  0.00000000000E+00 -0.48067609792E+03  0.55397718174E+03  0.27539282267E+03 0.  0.
         25    1    3    3    0    0  0.39735077500E+02  0.15347964367E+02 -0.34574733544E+03  0.36845034449E+03  0.12000000000E+03 0.  0.
         25    1    3    3    0    0 -0.39735077500E+02 -0.15347964367E+02 -0.13492876248E+03  0.18552683725E+03  0.12000000000E+03 0.  0.
<mgrwt>
<rscale>  0 0.27539282E+03</rscale>
<asrwt>0</asrwt>
<pdfrwt beam="1">  1        1 0.79588714E-01 0.27539282E+03</pdfrwt>
<pdfrwt beam="2">  1       -1 0.56385449E-02 0.27539282E+03</pdfrwt>
<totfact> 0.63031067E+03</totfact>
</mgrwt>
</event>
<event>
 5    1  0.1108889E+001  0.2751279E+03  0.7818608E-02  0.1098380E+00
          1   -1    0    0  501    0  0.00000000000E+00  0.00000000000E+00  0.69437327259E+03  0.69437327259E+03  0.00000000000E+00 0.  1.
         -1   -1    0    0    0  501 -0.00000000000E+00 -0.00000000000E+00 -0.27253120574E+02  0.27253120574E+02  0.00000000000E+00 0.  1.
         35    2    1    2    0    0  0.00000000000E+00  0.00000000000E+00  0.66712015202E+03  0.72162639317E+03  0.27512788678E+03 0.  0.
         25    1    3    3    0    0  0.61831650928E+02 -0.22511385113E+02  0.29703488779E+03  0.32704684692E+03  0.12000000000E+03 0.  0.
         25    1    3    3    0    0 -0.61831650928E+02  0.22511385113E+02  0.37008526423E+03  0.39457954624E+03  0.12000000000E+03 0.  0.
<mgrwt>
<rscale>  0 0.27512789E+03</rscale>
<asrwt>0</asrwt>
<pdfrwt beam="1">  1        1 0.10682664E+00 0.27512789E+03</pdfrwt>
<pdfrwt beam="2">  1       -1 0.41927883E-02 0.27512789E+03</pdfrwt>
<totfact> 0.65206071E+03</totfact>
</mgrwt>
</event>
<event>
 5    1  0.1108889E+001  0.2755373E+03  0.7818608E-02  0.1098152E+00
         -2   -1    0    0    0  501 -0.00000000000E+00  0.00000000000E+00  0.39734180205E+02  0.39734180205E+02  0.00000000000E+00 0. -1.
          2   -1    0    0  501    0  0.00000000000E+00 -0.00000000000E+00 -0.47767941715E+03  0.47767941715E+03  0.00000000000E+00 0. -1.
         35    2    1    2    0    0  0.00000000000E+00  0.00000000000E+00 -0.43794523694E+03  0.51741359735E+03  0.27553729360E+03 0.  0.
         25    1    3    3    0    0 -0.57356801079E+02  0.20886951742E+02 -0.27385337797E+03  0.30515854897E+03  0.12000000000E+03 0.  0.
         25    1    3    3    0    0  0.57356801079E+02 -0.20886951742E+02 -0.16409185897E+03  0.21225504838E+03  0.12000000000E+03 0.  0.
<mgrwt>
<rscale>  0 0.27553729E+03</rscale>
<asrwt>0</asrwt>
<pdfrwt beam="1">  1        2 0.73489143E-01 0.27553729E+03</pdfrwt>
<pdfrwt beam="2">  1       -2 0.61129506E-02 0.27553729E+03</pdfrwt>
<totfact> 0.93701385E+03</totfact>
</mgrwt>
</event>
<event>
 5    1  0.1108889E+001  0.2745351E+03  0.7818608E-02  0.1098712E+00
         -2   -1    0    0    0  501 -0.00000000000E+00  0.00000000000E+00  0.13184394558E+02  0.13184394558E+02  0.00000000000E+00 0.  1.
          2   -1    0    0  501    0  0.00000000000E+00 -0.00000000000E+00 -0.14291430405E+04  0.14291430405E+04  0.00000000000E+00 0.  1.
         35    2    1    2    0    0  0.00000000000E+00  0.00000000000E+00 -0.14159586460E+04  0.14423274351E+04  0.27453513966E+03 0.  0.
         25    1    3    3    0    0  0.70171511570E+01 -0.54527780716E+02 -0.51001374971E+03  0.52681737270E+03  0.12000000000E+03 0.  0.
         25    1    3    3    0    0 -0.70171511570E+01  0.54527780716E+02 -0.90594489627E+03  0.91551006240E+03  0.12000000000E+03 0.  0.
<mgrwt>
<rscale>  0 0.27453514E+03</rscale>
<asrwt>0</asrwt>
<pdfrwt beam="1">  1        2 0.21986811E+00 0.27453514E+03</pdfrwt>
<pdfrwt beam="2">  1       -2 0.20283688E-02 0.27453514E+03</pdfrwt>
<totfact> 0.11279105E+04</totfact>
</mgrwt>
</event>
<event>
 5    1  0.1108889E+001  0.2750780E+03  0.7818608E-02  0.1098408E+00
         -2   -1    0    0    0  501 -0.00000000000E+00  0.00000000000E+00  0.68108256660E+01  0.68108256660E+01  0.00000000000E+00 0.  1.
          2   -1    0    0  501    0  0.00000000000E+00 -0.00000000000E+00 -0.27774867588E+04  0.27774867588E+04  0.00000000000E+00 0.  1.
         35    2    1    2    0    0  0.00000000000E+00  0.00000000000E+00 -0.27706759332E+04  0.27842975845E+04  0.27507801151E+03 0.  0.
         25    1    3    3    0    0  0.58578872366E+01  0.63068195154E+02 -0.16128130591E+04  0.16185110057E+04  0.12000000000E+03 0.  0.
         25    1    3    3    0    0 -0.58578872366E+01 -0.63068195154E+02 -0.11578628741E+04  0.11657865788E+04  0.12000000000E+03 0.  0.
<mgrwt>
<rscale>  0 0.27507801E+03</rscale>
<asrwt>0</asrwt>
<pdfrwt beam="1">  1        2 0.42730575E+00 0.27507801E+03</pdfrwt>
<pdfrwt beam="2">  1       -2 0.10478191E-02 0.27507801E+03</pdfrwt>
<totfact> 0.55905343E+03</totfact>
</mgrwt>
</event>
<event>
 5    1  0.1108889E+001  0.2750142E+03  0.7818608E-02  0.1098444E+00
          2   -1    0    0  501    0  0.00000000000E+00  0.00000000000E+00  0.34495268731E+04  0.34495268731E+04  0.00000000000E+00 0.  1.
         -2   -1    0    0    0  501 -0.00000000000E+00 -0.00000000000E+00 -0.54813898929E+01  0.54813898929E+01  0.00000000000E+00 0.  1.
         35    2    1    2    0    0  0.00000000000E+00  0.00000000000E+00  0.34440454832E+04  0.34550082630E+04  0.27501419409E+03 0.  0.
         25    1    3    3    0    0  0.22197270571E+00  0.67062045809E+02  0.17633748794E+04  0.17687250585E+04  0.12000000000E+03 0.  0.
         25    1    3    3    0    0 -0.22197270571E+00 -0.67062045809E+02  0.16806706038E+04  0.16862832045E+04  0.12000000000E+03 0.  0.
<mgrwt>
<rscale>  0 0.27501419E+03</rscale>
<asrwt>0</asrwt>
<pdfrwt beam="1">  1        2 0.53069471E+00 0.27501419E+03</pdfrwt>
<pdfrwt beam="2">  1       -2 0.84329351E-03 0.27501419E+03</pdfrwt>
<totfact> 0.29894863E+03</totfact>
</mgrwt>
</event>
<event>
 5    1  0.1108889E+001  0.2752423E+03  0.7818608E-02  0.1098316E+00
         -2   -1    0    0    0  501 -0.00000000000E+00  0.00000000000E+00  0.45504603544E+03  0.45504603544E+03  0.00000000000E+00 0.  1.
          2   -1    0    0  501    0  0.00000000000E+00 -0.00000000000E+00 -0.41621236591E+02  0.41621236591E+02  0.00000000000E+00 0.  1.
         35    2    1    2    0    0  0.00000000000E+00  0.00000000000E+00  0.41342479885E+03  0.49666727203E+03  0.27524228382E+03 0.  0.
         25    1    3    3    0    0 -0.39548890321E+00 -0.56169577432E+02  0.27385239690E+03  0.30422082954E+03  0.12000000000E+03 0.  0.
         25    1    3    3    0    0  0.39548890321E+00  0.56169577432E+02  0.13957240195E+03  0.19244644249E+03  0.12000000000E+03 0.  0.
<mgrwt>
<rscale>  0 0.27524228E+03</rscale>
<asrwt>0</asrwt>
<pdfrwt beam="1">  1        2 0.64032675E-02 0.27524228E+03</pdfrwt>
<pdfrwt beam="2">  1       -2 0.70007079E-01 0.27524228E+03</pdfrwt>
<totfact> 0.21584834E+03</totfact>
</mgrwt>
</event>
<event>
 5    1  0.1108889E+001  0.2719062E+03  0.7818608E-02  0.1100194E+00
          1   -1    0    0  501    0  0.00000000000E+00  0.00000000000E+00  0.15645381128E+03  0.15645381128E+03  0.00000000000E+00 0. -1.
         -1   -1    0    0    0  501 -0.00000000000E+00 -0.00000000000E+00 -0.11813864548E+03  0.11813864548E+03  0.00000000000E+00 0. -1.
         35    2    1    2    0    0  0.00000000000E+00  0.00000000000E+00  0.38315165803E+02  0.27459245676E+03  0.27190617018E+03 0.  0.
         25    1    3    3    0    0  0.12089154768E+02  0.32807157063E+02  0.73172297241E+02  0.14483315332E+03  0.12000000000E+03 0.  0.
         25    1    3    3    0    0 -0.12089154768E+02 -0.32807157063E+02 -0.34857131438E+02  0.12975930344E+03  0.12000000000E+03 0.  0.
<mgrwt>
<rscale>  0 0.27190617E+03</rscale>
<asrwt>0</asrwt>
<pdfrwt beam="1">  1        1 0.24069817E-01 0.27190617E+03</pdfrwt>
<pdfrwt beam="2">  1       -1 0.18175176E-01 0.27190617E+03</pdfrwt>
<totfact> 0.47020408E+03</totfact>
</mgrwt>
</event>
<event>
 5    1  0.1108889E+001  0.2747940E+03  0.7818608E-02  0.1098567E+00
          4   -1    0    0  501    0  0.00000000000E+00  0.00000000000E+00  0.10032587544E+03  0.10032587544E+03  0.00000000000E+00 0. -1.
         -4   -1    0    0    0  501 -0.00000000000E+00 -0.00000000000E+00 -0.18816616853E+03  0.18816616853E+03  0.00000000000E+00 0. -1.
         35    2    1    2    0    0  0.00000000000E+00  0.00000000000E+00 -0.87840293081E+02  0.28849204397E+03  0.27479399984E+03 0.  0.
         25    1    3    3    0    0 -0.51815754867E+02  0.31081816264E+02 -0.13729312943E+02  0.13505349232E+03  0.12000000000E+03 0.  0.
         25    1    3    3    0    0  0.51815754867E+02 -0.31081816264E+02 -0.74110980138E+02  0.15343855165E+03  0.12000000000E+03 0.  0.
<mgrwt>
<rscale>  0 0.27479400E+03</rscale>
<asrwt>0</asrwt>
<pdfrwt beam="1">  1        4 0.15434750E-01 0.27479400E+03</pdfrwt>
<pdfrwt beam="2">  1       -4 0.28948641E-01 0.27479400E+03</pdfrwt>
<totfact> 0.76471577E+02</totfact>
</mgrwt>
</event>
<event>
 5    1  0.1108889E+001  0.2766924E+03  0.7818608E-02  0.1097509E+00
          2   -1    0    0  501    0  0.00000000000E+00  0.00000000000E+00  0.94821047571E+03  0.94821047571E+03  0.00000000000E+00 0. -1.
         -2   -1    0    0    0  501 -0.00000000000E+00 -0.00000000000E+00 -0.20185044084E+02  0.20185044084E+02  0.00000000000E+00 0. -1.
         35    2    1    2    0    0  0.00000000000E+00  0.00000000000E+00  0.92802543163E+03  0.96839551979E+03  0.27669239421E+03 0.  0.
         25    1    3    3    0    0  0.14540281140E+02 -0.65955473157E+02  0.41730170615E+03  0.43943402027E+03  0.12000000000E+03 0.  0.
         25    1    3    3    0    0 -0.14540281140E+02  0.65955473157E+02  0.51072372548E+03  0.52896149953E+03  0.12000000000E+03 0.  0.
<mgrwt>
<rscale>  0 0.27669239E+03</rscale>
<asrwt>0</asrwt>
<pdfrwt beam="1">  1        2 0.14587850E+00 0.27669239E+03</pdfrwt>
<pdfrwt beam="2">  1       -2 0.31053921E-02 0.27669239E+03</pdfrwt>
<totfact> 0.11351139E+04</totfact>
</mgrwt>
</event>
<event>
 5    1  0.1108889E+001  0.2720923E+03  0.7818608E-02  0.1100088E+00
         -1   -1    0    0    0  501 -0.00000000000E+00  0.00000000000E+00  0.42414342354E+02  0.42414342354E+02  0.00000000000E+00 0. -1.
          1   -1    0    0  501    0  0.00000000000E+00 -0.00000000000E+00 -0.43637476900E+03  0.43637476900E+03  0.00000000000E+00 0. -1.
         35    2    1    2    0    0  0.00000000000E+00  0.00000000000E+00 -0.39396042665E+03  0.47878911136E+03  0.27209225529E+03 0.  0.
         25    1    3    3    0    0  0.44107281008E+02 -0.42478693834E+02 -0.16365539051E+03  0.21197400433E+03  0.12000000000E+03 0.  0.
         25    1    3    3    0    0 -0.44107281008E+02  0.42478693834E+02 -0.23030503614E+03  0.26681510703E+03  0.12000000000E+03 0.  0.
<mgrwt>
<rscale>  0 0.27209226E+03</rscale>
<asrwt>0</asrwt>
<pdfrwt beam="1">  1        1 0.67134581E-01 0.27209226E+03</pdfrwt>
<pdfrwt beam="2">  1       -1 0.65252834E-02 0.27209226E+03</pdfrwt>
<totfact> 0.63234897E+03</totfact>
</mgrwt>
</event>
<event>
 4    1  0.1108889E+001  0.2910196E+03  0.7818608E-02  0.1089818E+00
          2   -1    0    0  501    0  0.00000000000E+00  0.00000000000E+00  0.33610914130E+04  0.33610914130E+04  0.00000000000E+00 0. -1.
         -2   -1    0    0    0  501 -0.00000000000E+00 -0.00000000000E+00 -0.62994735975E+01  0.62994735975E+01  0.00000000000E+00 0. -1.
         25    1    1    2    0    0  0.18886032806E+02 -0.78183518411E+02  0.18790643655E+04  0.18846093056E+04  0.12000000000E+03 0.  0.
         25    1    1    2    0    0 -0.18886032806E+02  0.78183518411E+02  0.14757275739E+04  0.14827815810E+04  0.12000000000E+03 0.  0.
<mgrwt>
<rscale>  0 0.29101963E+03</rscale>
<asrwt>0</asrwt>
<pdfrwt beam="1">  1        2 0.51708955E+00 0.29101963E+03</pdfrwt>
<pdfrwt beam="2">  1       -2 0.96915247E-03 0.29101963E+03</pdfrwt>
<totfact> 0.27817069E+03</totfact>
</mgrwt>
</event>
<event>
 5    1  0.1108889E+001  0.2755850E+03  0.7818608E-02  0.1098125E+00
         -1   -1    0    0    0  501 -0.00000000000E+00  0.00000000000E+00  0.12049147220E+03  0.12049147220E+03  0.00000000000E+00 0.  1.
          1   -1    0    0  501    0  0.00000000000E+00 -0.00000000000E+00 -0.15757776193E+03  0.15757776193E+03  0.00000000000E+00 0.  1.
         35    2    1    2    0    0  0.00000000000E+00  0.00000000000E+00 -0.37086289731E+02  0.27806923413E+03  0.27558502515E+03 0.  0.
         25    1    3    3    0    0  0.24209715740E+02  0.61611541321E+02 -0.32978897930E+02  0.14095992363E+03  0.12000000000E+03 0.  0.
         25    1    3    3    0    0 -0.24209715740E+02 -0.61611541321E+02 -0.41073918019E+01  0.13710931051E+03  0.12000000000E+03 0.  0.
<mgrwt>
<rscale>  0 0.27558503E+03</rscale>
<asrwt>0</asrwt>
<pdfrwt beam="1">  1        1 0.24242733E-01 0.27558503E+03</pdfrwt>
<pdfrwt beam="2">  1       -1 0.18537149E-01 0.27558503E+03</pdfrwt>
<totfact> 0.45154094E+03</totfact>
</mgrwt>
</event>
<event>
 5    1  0.1108889E+001  0.2722334E+03  0.7818608E-02  0.1100008E+00
          3   -1    0    0  501    0  0.00000000000E+00  0.00000000000E+00  0.11877149869E+03  0.11877149869E+03  0.00000000000E+00 0.  1.
         -3   -1    0    0    0  501 -0.00000000000E+00 -0.00000000000E+00 -0.15599492451E+03  0.15599492451E+03  0.00000000000E+00 0.  1.
         35    2    1    2    0    0  0.00000000000E+00  0.00000000000E+00 -0.37223425824E+02  0.27476642320E+03  0.27223336292E+03 0.  0.
         25    1    3    3    0    0  0.36357116274E+02  0.42848982452E+02  0.12820891531E+02  0.13312494304E+03  0.12000000000E+03 0.  0.
         25    1    3    3    0    0 -0.36357116274E+02 -0.42848982452E+02 -0.50044317355E+02  0.14164148015E+03  0.12000000000E+03 0.  0.
<mgrwt>
<rscale>  0 0.27223336E+03</rscale>
<asrwt>0</asrwt>
<pdfrwt beam="1">  1        3 0.18272538E-01 0.27223336E+03</pdfrwt>
<pdfrwt beam="2">  1       -3 0.23999219E-01 0.27223336E+03</pdfrwt>
<totfact> 0.10823014E+03</totfact>
</mgrwt>
</event>
<event>
 5    1  0.1108889E+001  0.2744725E+03  0.7818608E-02  0.1098747E+00
          4   -1    0    0  501    0  0.00000000000E+00  0.00000000000E+00  0.50456028478E+03  0.50456028478E+03  0.00000000000E+00 0. -1.
         -4   -1    0    0    0  501 -0.00000000000E+00 -0.00000000000E+00 -0.37327130502E+02  0.37327130502E+02  0.00000000000E+00 0. -1.
         35    2    1    2    0    0  0.00000000000E+00  0.00000000000E+00  0.46723315428E+03  0.54188741528E+03  0.27447249477E+03 0.  0.
         25    1    3    3    0    0 -0.52253446732E+02  0.40307740044E+02  0.21610753688E+03  0.25584683719E+03  0.12000000000E+03 0.  0.
         25    1    3    3    0    0  0.52253446732E+02 -0.40307740044E+02  0.25112561740E+03  0.28604057809E+03  0.12000000000E+03 0.  0.
<mgrwt>
<rscale>  0 0.27447249E+03</rscale>
<asrwt>0</asrwt>
<pdfrwt beam="1">  1        4 0.77624654E-01 0.27447249E+03</pdfrwt>
<pdfrwt beam="2">  1       -4 0.57426358E-02 0.27447249E+03</pdfrwt>
<totfact> 0.54250847E+02</totfact>
</mgrwt>
</event>
<event>
 5    1  0.1108889E+001  0.2742813E+03  0.7818608E-02  0.1098854E+00
          2   -1    0    0  501    0  0.00000000000E+00  0.00000000000E+00  0.40617389354E+03  0.40617389354E+03  0.00000000000E+00 0. -1.
         -2   -1    0    0    0  501 -0.00000000000E+00 -0.00000000000E+00 -0.46304201062E+02  0.46304201062E+02  0.00000000000E+00 0. -1.
         35    2    1    2    0    0  0.00000000000E+00  0.00000000000E+00  0.35986969248E+03  0.45247809460E+03  0.27428129818E+03 0.  0.
         25    1    3    3    0    0  0.35538049346E+02  0.50214230247E+02  0.22111544916E+03  0.25899124257E+03  0.12000000000E+03 0.  0.
         25    1    3    3    0    0 -0.35538049346E+02 -0.50214230247E+02  0.13875424332E+03  0.19348685203E+03  0.12000000000E+03 0.  0.
<mgrwt>
<rscale>  0 0.27428130E+03</rscale>
<asrwt>0</asrwt>
<pdfrwt beam="1">  1        2 0.62488289E-01 0.27428130E+03</pdfrwt>
<pdfrwt beam="2">  1       -2 0.71237235E-02 0.27428130E+03</pdfrwt>
<totfact> 0.88407995E+03</totfact>
</mgrwt>
</event>
<event>
 5    1  0.1108889E+001  0.2767833E+03  0.7818608E-02  0.1097459E+00
          2   -1    0    0  501    0  0.00000000000E+00  0.00000000000E+00  0.29589632069E+03  0.29589632069E+03  0.00000000000E+00 0. -1.
         -2   -1    0    0    0  501 -0.00000000000E+00 -0.00000000000E+00 -0.64726231977E+02  0.64726231977E+02  0.00000000000E+00 0. -1.
         35    2    1    2    0    0  0.00000000000E+00  0.00000000000E+00  0.23117008871E+03  0.36062255266E+03  0.27678333688E+03 0.  0.
         25    1    3    3    0    0 -0.42135054661E+02  0.48549477924E+02  0.14802292573E+03  0.20110495066E+03  0.12000000000E+03 0.  0.
         25    1    3    3    0    0  0.42135054661E+02 -0.48549477924E+02  0.83147162984E+02  0.15951760201E+03  0.12000000000E+03 0.  0.
<mgrwt>
<rscale>  0 0.27678334E+03</rscale>
<asrwt>0</asrwt>
<pdfrwt beam="1">  1        2 0.45522510E-01 0.27678334E+03</pdfrwt>
<pdfrwt beam="2">  1       -2 0.99578821E-02 0.27678334E+03</pdfrwt>
<totfact> 0.73622543E+03</totfact>
</mgrwt>
</event>
<event>
 5    1  0.1108889E+001  0.2754863E+03  0.7818608E-02  0.1098180E+00
         -1   -1    0    0    0  501 -0.00000000000E+00  0.00000000000E+00  0.32668055028E+02  0.32668055028E+02  0.00000000000E+00 0. -1.
          1   -1    0    0  501    0  0.00000000000E+00 -0.00000000000E+00 -0.58078692785E+03  0.58078692785E+03  0.00000000000E+00 0. -1.
         35    2    1    2    0    0  0.00000000000E+00  0.00000000000E+00 -0.54811887282E+03  0.61345498288E+03  0.27548632865E+03 0.  0.
         25    1    3    3    0    0 -0.60133215930E+02  0.15188239353E+02 -0.21403910657E+03  0.25309963535E+03  0.12000000000E+03 0.  0.
         25    1    3    3    0    0  0.60133215930E+02 -0.15188239353E+02 -0.33407976625E+03  0.36035534753E+03  0.12000000000E+03 0.  0.
<mgrwt>
<rscale>  0 0.27548633E+03</rscale>
<asrwt>0</asrwt>
<pdfrwt beam="1">  1        1 0.89351830E-01 0.27548633E+03</pdfrwt>
<pdfrwt beam="2">  1       -1 0.50258549E-02 0.27548633E+03</pdfrwt>
<totfact> 0.64031791E+03</totfact>
</mgrwt>
</event>
<event>
 5    1  0.1108889E+001  0.2747359E+03  0.7818608E-02  0.1098599E+00
          2   -1    0    0  501    0  0.00000000000E+00  0.00000000000E+00  0.56049268810E+03  0.56049268810E+03  0.00000000000E+00 0.  1.
         -2   -1    0    0    0  501 -0.00000000000E+00 -0.00000000000E+00 -0.33666730429E+02  0.33666730429E+02  0.00000000000E+00 0.  1.
         35    2    1    2    0    0  0.00000000000E+00  0.00000000000E+00  0.52682595768E+03  0.59415941853E+03  0.27473591857E+03 0.  0.
         25    1    3    3    0    0  0.41144771712E+02  0.32761891024E+02  0.35267916342E+03  0.37622975169E+03  0.12000000000E+03 0.  0.
         25    1    3    3    0    0 -0.41144771712E+02 -0.32761891024E+02  0.17414679425E+03  0.21792966684E+03  0.12000000000E+03 0.  0.
<mgrwt>
<rscale>  0 0.27473592E+03</rscale>
<asrwt>0</asrwt>
<pdfrwt beam="1">  1        2 0.86229638E-01 0.27473592E+03</pdfrwt>
<pdfrwt beam="2">  1       -2 0.51794974E-02 0.27473592E+03</pdfrwt>
<totfact> 0.10081789E+04</totfact>
</mgrwt>
</event>
<event>
 5    1  0.1108889E+001  0.2733988E+03  0.7818608E-02  0.1099350E+00
          2   -1    0    0  501    0  0.00000000000E+00  0.00000000000E+00  0.18432256861E+04  0.18432256861E+04  0.00000000000E+00 0.  1.
         -2   -1    0    0    0  501 -0.00000000000E+00 -0.00000000000E+00 -0.10138058964E+02  0.10138058964E+02  0.00000000000E+00 0.  1.
         35    2    1    2    0    0  0.00000000000E+00  0.00000000000E+00  0.18330876271E+04  0.18533637450E+04  0.27339883459E+03 0.  0.
         25    1    3    3    0    0  0.21917824837E+02  0.58880535464E+02  0.79165195813E+03  0.80315635545E+03  0.12000000000E+03 0.  0.
         25    1    3    3    0    0 -0.21917824837E+02 -0.58880535464E+02  0.10414356690E+04  0.10502073896E+04  0.12000000000E+03 0.  0.
<mgrwt>
<rscale>  0 0.27339883E+03</rscale>
<asrwt>0</asrwt>
<pdfrwt beam="1">  1        2 0.28357292E+00 0.27339883E+03</pdfrwt>
<pdfrwt beam="2">  1       -2 0.15597028E-02 0.27339883E+03</pdfrwt>
<totfact> 0.10006641E+04</totfact>
</mgrwt>
</event>
<event>
 5    1  0.1108889E+001  0.2728487E+03  0.7818608E-02  0.1099660E+00
          2   -1    0    0  501    0  0.00000000000E+00  0.00000000000E+00  0.19946845646E+04  0.19946845646E+04  0.00000000000E+00 0.  1.
         -2   -1    0    0    0  501 -0.00000000000E+00 -0.00000000000E+00 -0.93306011149E+01  0.93306011149E+01  0.00000000000E+00 0.  1.
         35    2    1    2    0    0  0.00000000000E+00  0.00000000000E+00  0.19853539635E+04  0.20040151657E+04  0.27284872015E+03 0.  0.
         25    1    3    3    0    0 -0.37377799855E+02  0.52234337327E+02  0.10608214293E+04  0.10695174756E+04  0.12000000000E+03 0.  0.
         25    1    3    3    0    0  0.37377799855E+02 -0.52234337327E+02  0.92453253421E+03  0.93449769007E+03  0.12000000000E+03 0.  0.
<mgrwt>
<rscale>  0 0.27284872E+03</rscale>
<asrwt>0</asrwt>
<pdfrwt beam="1">  1        2 0.30687421E+00 0.27284872E+03</pdfrwt>
<pdfrwt beam="2">  1       -2 0.14354787E-02 0.27284872E+03</pdfrwt>
<totfact> 0.94074142E+03</totfact>
</mgrwt>
</event>
<event>
 5    1  0.1108889E+001  0.2758662E+03  0.7818608E-02  0.1097968E+00
          2   -1    0    0  501    0  0.00000000000E+00  0.00000000000E+00  0.88654743517E+03  0.88654743517E+03  0.00000000000E+00 0.  1.
         -2   -1    0    0    0  501 -0.00000000000E+00 -0.00000000000E+00 -0.21460267619E+02  0.21460267619E+02  0.00000000000E+00 0.  1.
         35    2    1    2    0    0  0.00000000000E+00  0.00000000000E+00  0.86508716755E+03  0.90800770279E+03  0.27586623727E+03 0.  0.
         25    1    3    3    0    0 -0.12533617048E+02 -0.45856744523E+02  0.59263306514E+03  0.60652607732E+03  0.12000000000E+03 0.  0.
         25    1    3    3    0    0  0.12533617048E+02  0.45856744523E+02  0.27245410242E+03  0.30148162548E+03  0.12000000000E+03 0.  0.
<mgrwt>
<rscale>  0 0.27586624E+03</rscale>
<asrwt>0</asrwt>
<pdfrwt beam="1">  1        2 0.13639188E+00 0.27586624E+03</pdfrwt>
<pdfrwt beam="2">  1       -2 0.33015803E-02 0.27586624E+03</pdfrwt>
<totfact> 0.11343764E+04</totfact>
</mgrwt>
</event>
<event>
 5    1  0.1108889E+001  0.2748939E+03  0.7818608E-02  0.1098511E+00
         -2   -1    0    0    0  501 -0.00000000000E+00  0.00000000000E+00  0.54344831124E+02  0.54344831124E+02  0.00000000000E+00 0. -1.
          2   -1    0    0  501    0  0.00000000000E+00 -0.00000000000E+00 -0.34762584358E+03  0.34762584358E+03  0.00000000000E+00 0. -1.
         35    2    1    2    0    0  0.00000000000E+00  0.00000000000E+00 -0.29328101246E+03  0.40197067471E+03  0.27489392692E+03 0.  0.
         25    1    3    3    0    0 -0.46606623595E+02 -0.44616263681E+02 -0.12012209068E+03  0.18163728972E+03  0.12000000000E+03 0.  0.
         25    1    3    3    0    0  0.46606623595E+02  0.44616263681E+02 -0.17315892178E+03  0.22033338499E+03  0.12000000000E+03 0.  0.
<mgrwt>
<rscale>  0 0.27489393E+03</rscale>
<asrwt>0</asrwt>
<pdfrwt beam="1">  1        2 0.53480898E-01 0.27489393E+03</pdfrwt>
<pdfrwt beam="2">  1       -2 0.83607435E-02 0.27489393E+03</pdfrwt>
<totfact> 0.81537834E+03</totfact>
</mgrwt>
</event>
<event>
 5    1  0.1108889E+001  0.2773051E+03  0.7818608E-02  0.1097170E+00
          2   -1    0    0  501    0  0.00000000000E+00  0.00000000000E+00  0.10015026068E+04  0.10015026068E+04  0.00000000000E+00 0. -1.
         -2   -1    0    0    0  501 -0.00000000000E+00 -0.00000000000E+00 -0.19195692136E+02  0.19195692136E+02  0.00000000000E+00 0. -1.
         35    2    1    2    0    0  0.00000000000E+00  0.00000000000E+00  0.98230691462E+03  0.10206982989E+04  0.27730514393E+03 0.  0.
         25    1    3    3    0    0  0.21965871466E+01 -0.68912614591E+02  0.52211626507E+03  0.54014735739E+03  0.12000000000E+03 0.  0.
         25    1    3    3    0    0 -0.21965871466E+01  0.68912614591E+02  0.46019064955E+03  0.48055094150E+03  0.12000000000E+03 0.  0.
<mgrwt>
<rscale>  0 0.27730514E+03</rscale>
<asrwt>0</asrwt>
<pdfrwt beam="1">  1        2 0.15407728E+00 0.27730514E+03</pdfrwt>
<pdfrwt beam="2">  1       -2 0.29531842E-02 0.27730514E+03</pdfrwt>
<totfact> 0.11337288E+04</totfact>
</mgrwt>
</event>
<event>
 5    1  0.1108889E+001  0.2719027E+03  0.7818608E-02  0.1100196E+00
         -2   -1    0    0    0  501 -0.00000000000E+00  0.00000000000E+00  0.29027871069E+02  0.29027871069E+02  0.00000000000E+00 0. -1.
          2   -1    0    0  501    0  0.00000000000E+00 -0.00000000000E+00 -0.63672476181E+03  0.63672476181E+03  0.00000000000E+00 0. -1.
         35    2    1    2    0    0  0.00000000000E+00  0.00000000000E+00 -0.60769689074E+03  0.66575263287E+03  0.27190266120E+03 0.  0.
         25    1    3    3    0    0 -0.36003334716E+02  0.43875624874E+02 -0.23198377949E+03  0.26727847747E+03  0.12000000000E+03 0.  0.
         25    1    3    3    0    0  0.36003334716E+02 -0.43875624874E+02 -0.37571311124E+03  0.39847415541E+03  0.12000000000E+03 0.  0.
<mgrwt>
<rscale>  0 0.27190266E+03</rscale>
<asrwt>0</asrwt>
<pdfrwt beam="1">  1        2 0.97957650E-01 0.27190266E+03</pdfrwt>
<pdfrwt beam="2">  1       -2 0.44658266E-02 0.27190266E+03</pdfrwt>
<totfact> 0.10883026E+04</totfact>
</mgrwt>
</event>
<event>
 5    1  0.1108889E+001  0.2743729E+03  0.7818608E-02  0.1098803E+00
          2   -1    0    0  501    0  0.00000000000E+00  0.00000000000E+00  0.64151544118E+02  0.64151544118E+02  0.00000000000E+00 0. -1.
         -2   -1    0    0    0  501 -0.00000000000E+00 -0.00000000000E+00 -0.29336973489E+03  0.29336973489E+03  0.00000000000E+00 0. -1.
         35    2    1    2    0    0  0.00000000000E+00  0.00000000000E+00 -0.22921819078E+03  0.35752127901E+03  0.27437289582E+03 0.  0.
         25    1    3    3    0    0  0.63036466589E+02  0.16387409114E+02 -0.13199287011E+03  0.18990592686E+03  0.12000000000E+03 0.  0.
         25    1    3    3    0    0 -0.63036466589E+02 -0.16387409114E+02 -0.97225320667E+02  0.16761535215E+03  0.12000000000E+03 0.  0.
<mgrwt>
<rscale>  0 0.27437290E+03</rscale>
<asrwt>0</asrwt>
<pdfrwt beam="1">  1        2 0.98694682E-02 0.27437290E+03</pdfrwt>
<pdfrwt beam="2">  1       -2 0.45133806E-01 0.27437290E+03</pdfrwt>
<totfact> 0.30551847E+03</totfact>
</mgrwt>
</event>
<event>
 5    1  0.1108889E+001  0.2749564E+03  0.7818608E-02  0.1098476E+00
          2   -1    0    0  501    0  0.00000000000E+00  0.00000000000E+00  0.30848761009E+03  0.30848761009E+03  0.00000000000E+00 0. -1.
         -2   -1    0    0    0  501 -0.00000000000E+00 -0.00000000000E+00 -0.61267451616E+02  0.61267451616E+02  0.00000000000E+00 0. -1.
         35    2    1    2    0    0  0.00000000000E+00  0.00000000000E+00  0.24722015848E+03  0.36975506171E+03  0.27495635818E+03 0.  0.
         25    1    3    3    0    0 -0.48430644741E+02 -0.41730392689E+02  0.96271160721E+02  0.16659858766E+03  0.12000000000E+03 0.  0.
         25    1    3    3    0    0  0.48430644741E+02  0.41730392689E+02  0.15094899776E+03  0.20315647405E+03  0.12000000000E+03 0.  0.
<mgrwt>
<rscale>  0 0.27495636E+03</rscale>
<asrwt>0</asrwt>
<pdfrwt beam="1">  1        2 0.47459631E-01 0.27495636E+03</pdfrwt>
<pdfrwt beam="2">  1       -2 0.94257620E-02 0.27495636E+03</pdfrwt>
<totfact> 0.76780396E+03</totfact>
</mgrwt>
</event>
<event>
 5    1  0.1108889E+001  0.2729781E+03  0.7818608E-02  0.1099587E+00
         -1   -1    0    0    0  501 -0.00000000000E+00  0.00000000000E+00  0.12235883702E+02  0.12235883702E+02  0.00000000000E+00 0. -1.
          1   -1    0    0  501    0  0.00000000000E+00 -0.00000000000E+00 -0.15225103894E+04  0.15225103894E+04  0.00000000000E+00 0. -1.
         35    2    1    2    0    0  0.00000000000E+00  0.00000000000E+00 -0.15102745057E+04  0.15347462731E+04  0.27297809479E+03 0.  0.
         25    1    3    3    0    0 -0.14758768635E+02  0.68662490417E+01 -0.11091278168E+04  0.11157192660E+04  0.12000000000E+03 0.  0.
         25    1    3    3    0    0  0.14758768635E+02 -0.68662490417E+01 -0.40114668888E+03  0.41902700704E+03  0.12000000000E+03 0.  0.
<mgrwt>
<rscale>  0 0.27297809E+03</rscale>
<asrwt>0</asrwt>
<pdfrwt beam="1">  1        1 0.23423226E+00 0.27297809E+03</pdfrwt>
<pdfrwt beam="2">  1       -1 0.18824446E-02 0.27297809E+03</pdfrwt>
<totfact> 0.51804608E+03</totfact>
</mgrwt>
</event>
<event>
 5    1  0.1108889E+001  0.2758717E+03  0.7818608E-02  0.1097965E+00
         -2   -1    0    0    0  501 -0.00000000000E+00  0.00000000000E+00  0.58633603809E+01  0.58633603809E+01  0.00000000000E+00 0.  1.
          2   -1    0    0  501    0  0.00000000000E+00 -0.00000000000E+00 -0.32449483133E+04  0.32449483133E+04  0.00000000000E+00 0.  1.
         35    2    1    2    0    0  0.00000000000E+00  0.00000000000E+00 -0.32390849530E+04  0.32508116737E+04  0.27587171931E+03 0.  0.
         25    1    3    3    0    0  0.44726238930E+02  0.51237634744E+02 -0.16284368149E+04  0.16342680906E+04  0.12000000000E+03 0.  0.
         25    1    3    3    0    0 -0.44726238930E+02 -0.51237634744E+02 -0.16106481380E+04  0.16165435832E+04  0.12000000000E+03 0.  0.
<mgrwt>
<rscale>  0 0.27587172E+03</rscale>
<asrwt>0</asrwt>
<pdfrwt beam="1">  1        2 0.49922209E+00 0.27587172E+03</pdfrwt>
<pdfrwt beam="2">  1       -2 0.90205675E-03 0.27587172E+03</pdfrwt>
<totfact> 0.36621428E+03</totfact>
</mgrwt>
</event>
<event>
 5    1  0.1108889E+001  0.2758556E+03  0.7818608E-02  0.1097974E+00
          3   -1    0    0  501    0  0.00000000000E+00  0.00000000000E+00  0.66015311617E+03  0.66015311617E+03  0.00000000000E+00 0. -1.
         -3   -1    0    0    0  501 -0.00000000000E+00 -0.00000000000E+00 -0.28817677308E+02  0.28817677308E+02  0.00000000000E+00 0. -1.
         35    2    1    2    0    0  0.00000000000E+00  0.00000000000E+00  0.63133543887E+03  0.68897079348E+03  0.27585561061E+03 0.  0.
         25    1    3    3    0    0 -0.18935221550E+02  0.61633526633E+02  0.36963188488E+03  0.39393522886E+03  0.12000000000E+03 0.  0.
         25    1    3    3    0    0  0.18935221550E+02 -0.61633526633E+02  0.26170355399E+03  0.29503556462E+03  0.12000000000E+03 0.  0.
<mgrwt>
<rscale>  0 0.27585561E+03</rscale>
<asrwt>0</asrwt>
<pdfrwt beam="1">  1        3 0.10156201E+00 0.27585561E+03</pdfrwt>
<pdfrwt beam="2">  1       -3 0.44334893E-02 0.27585561E+03</pdfrwt>
<totfact> 0.61304382E+02</totfact>
</mgrwt>
</event>
<event>
 5    1  0.1108889E+001  0.2754687E+03  0.7818608E-02  0.1098190E+00
         -1   -1    0    0    0  501 -0.00000000000E+00  0.00000000000E+00  0.17100900775E+03  0.17100900775E+03  0.00000000000E+00 0. -1.
          1   -1    0    0  501    0  0.00000000000E+00 -0.00000000000E+00 -0.11093418647E+03  0.11093418647E+03  0.00000000000E+00 0. -1.
         35    2    1    2    0    0  0.00000000000E+00  0.00000000000E+00  0.60074821277E+02  0.28194319422E+03  0.27546865633E+03 0.  0.
         25    1    3    3    0    0  0.43065362967E+02  0.41114017248E+02  0.62817620017E+02  0.14795621409E+03  0.12000000000E+03 0.  0.
         25    1    3    3    0    0 -0.43065362967E+02 -0.41114017248E+02 -0.27427987407E+01  0.13398698014E+03  0.12000000000E+03 0.  0.
<mgrwt>
<rscale>  0 0.27546866E+03</rscale>
<asrwt>0</asrwt>
<pdfrwt beam="1">  1        1 0.17066798E-01 0.27546866E+03</pdfrwt>
<pdfrwt beam="2">  1       -1 0.26309078E-01 0.27546866E+03</pdfrwt>
<totfact> 0.39924234E+03</totfact>
</mgrwt>
</event>
<event>
 5    1  0.1108889E+001  0.2743782E+03  0.7818608E-02  0.1098800E+00
         -2   -1    0    0    0  501 -0.00000000000E+00  0.00000000000E+00  0.26588948813E+03  0.26588948813E+03  0.00000000000E+00 0.  1.
          2   -1    0    0  501    0  0.00000000000E+00 -0.00000000000E+00 -0.70784500652E+02  0.70784500652E+02  0.00000000000E+00 0.  1.
         35    2    1    2    0    0  0.00000000000E+00  0.00000000000E+00  0.19510498748E+03  0.33667398878E+03  0.27437824000E+03 0.  0.
         25    1    3    3    0    0  0.30628257322E+02  0.13860162624E+02  0.27164039134E+02  0.12754638088E+03  0.12000000000E+03 0.  0.
         25    1    3    3    0    0 -0.30628257322E+02 -0.13860162624E+02  0.16794094834E+03  0.20912760790E+03  0.12000000000E+03 0.  0.
<mgrwt>
<rscale>  0 0.27437824E+03</rscale>
<asrwt>0</asrwt>
<pdfrwt beam="1">  1        2 0.10889923E-01 0.27437824E+03</pdfrwt>
<pdfrwt beam="2">  1       -2 0.40906074E-01 0.27437824E+03</pdfrwt>
<totfact> 0.32723863E+03</totfact>
</mgrwt>
</event>
<event>
 5    1  0.1108889E+001  0.2727066E+03  0.7818608E-02  0.1099740E+00
         -1   -1    0    0    0  501 -0.00000000000E+00  0.00000000000E+00  0.37282079690E+02  0.37282079690E+02  0.00000000000E+00 0.  1.
          1   -1    0    0  501    0  0.00000000000E+00 -0.00000000000E+00 -0.49869069722E+03  0.49869069722E+03  0.00000000000E+00 0.  1.
         35    2    1    2    0    0  0.00000000000E+00  0.00000000000E+00 -0.46140861753E+03  0.53597277691E+03  0.27270662855E+03 0.  0.
         25    1    3    3    0    0  0.26058154058E+02 -0.22467965208E+02 -0.12290547396E+03  0.17518445245E+03  0.12000000000E+03 0.  0.
         25    1    3    3    0    0 -0.26058154058E+02  0.22467965208E+02 -0.33850314358E+03  0.36078832446E+03  0.12000000000E+03 0.  0.
<mgrwt>
<rscale>  0 0.27270663E+03</rscale>
<asrwt>0</asrwt>
<pdfrwt beam="1">  1        1 0.76721641E-01 0.27270663E+03</pdfrwt>
<pdfrwt beam="2">  1       -1 0.57357049E-02 0.27270663E+03</pdfrwt>
<totfact> 0.64490149E+03</totfact>
</mgrwt>
</event>
<event>
 5    1  0.1108889E+001  0.2736504E+03  0.7818608E-02  0.1099208E+00
          1   -1    0    0  501    0  0.00000000000E+00  0.00000000000E+00  0.49056917232E+03  0.49056917232E+03  0.00000000000E+00 0. -1.
         -1   -1    0    0    0  501 -0.00000000000E+00 -0.00000000000E+00 -0.38162070606E+02  0.38162070606E+02  0.00000000000E+00 0. -1.
         35    2    1    2    0    0  0.00000000000E+00  0.00000000000E+00  0.45240710172E+03  0.52873124293E+03  0.27365040026E+03 0.  0.
         25    1    3    3    0    0  0.36640225834E+02  0.15018083765E+02  0.32758273848E+03  0.35111038084E+03  0.12000000000E+03 0.  0.
         25    1    3    3    0    0 -0.36640225834E+02 -0.15018083765E+02  0.12482436324E+03  0.17762086208E+03  0.12000000000E+03 0.  0.
<mgrwt>
<rscale>  0 0.27365040E+03</rscale>
<asrwt>0</asrwt>
<pdfrwt beam="1">  1        1 0.75472176E-01 0.27365040E+03</pdfrwt>
<pdfrwt beam="2">  1       -1 0.58710881E-02 0.27365040E+03</pdfrwt>
<totfact> 0.63640447E+03</totfact>
</mgrwt>
</event>
<event>
 5    1  0.1108889E+001  0.2747767E+03  0.7818608E-02  0.1098577E+00
          2   -1    0    0  501    0  0.00000000000E+00  0.00000000000E+00  0.84096409467E+03  0.84096409467E+03  0.00000000000E+00 0.  1.
         -2   -1    0    0    0  501 -0.00000000000E+00 -0.00000000000E+00 -0.22445134266E+02  0.22445134266E+02  0.00000000000E+00 0.  1.
         35    2    1    2    0    0  0.00000000000E+00  0.00000000000E+00  0.81851896040E+03  0.86340922893E+03  0.27477665125E+03 0.  0.
         25    1    3    3    0    0 -0.19753431986E+02 -0.29612844581E+02  0.23127449246E+03  0.26297340075E+03  0.12000000000E+03 0.  0.
         25    1    3    3    0    0  0.19753431986E+02  0.29612844581E+02  0.58724446794E+03  0.60043582818E+03  0.12000000000E+03 0.  0.
<mgrwt>
<rscale>  0 0.27477665E+03</rscale>
<asrwt>0</asrwt>
<pdfrwt beam="1">  1        2 0.12937907E+00 0.27477665E+03</pdfrwt>
<pdfrwt beam="2">  1       -2 0.34530982E-02 0.27477665E+03</pdfrwt>
<totfact> 0.11368475E+04</totfact>
</mgrwt>
</event>
<event>
 5    1  0.1108889E+001  0.2743357E+03  0.7818608E-02  0.1098824E+00
         -2   -1    0    0    0  501 -0.00000000000E+00  0.00000000000E+00  0.23823812906E+02  0.23823812906E+02  0.00000000000E+00 0. -1.
          2   -1    0    0  501    0  0.00000000000E+00 -0.00000000000E+00 -0.78975668097E+03  0.78975668097E+03  0.00000000000E+00 0. -1.
         35    2    1    2    0    0  0.00000000000E+00  0.00000000000E+00 -0.76593286806E+03  0.81358049387E+03  0.27433567328E+03 0.  0.
         25    1    3    3    0    0  0.13093842868E+02  0.36770306959E+02 -0.22349581387E+03  0.25665907935E+03  0.12000000000E+03 0.  0.
         25    1    3    3    0    0 -0.13093842868E+02 -0.36770306959E+02 -0.54243705419E+03  0.55692141453E+03  0.12000000000E+03 0.  0.
<mgrwt>
<rscale>  0 0.27433567E+03</rscale>
<asrwt>0</asrwt>
<pdfrwt beam="1">  1        2 0.12150103E+00 0.27433567E+03</pdfrwt>
<pdfrwt beam="2">  1       -2 0.36652019E-02 0.27433567E+03</pdfrwt>
<totfact> 0.11269561E+04</totfact>
</mgrwt>
</event>
<event>
 5    1  0.1108889E+001  0.2763303E+03  0.7818608E-02  0.1097710E+00
         -1   -1    0    0    0  501 -0.00000000000E+00  0.00000000000E+00  0.12659614734E+02  0.12659614734E+02  0.00000000000E+00 0. -1.
          1   -1    0    0  501    0  0.00000000000E+00 -0.00000000000E+00 -0.15079138125E+04  0.15079138125E+04  0.00000000000E+00 0. -1.
         35    2    1    2    0    0  0.00000000000E+00  0.00000000000E+00 -0.14952541978E+04  0.15205734272E+04  0.27633029453E+03 0.  0.
         25    1    3    3    0    0  0.26489804381E+02 -0.57034499333E+02 -0.89680756182E+03  0.90698315684E+03  0.12000000000E+03 0.  0.
         25    1    3    3    0    0 -0.26489804381E+02  0.57034499333E+02 -0.59844663595E+03  0.61359027040E+03  0.12000000000E+03 0.  0.
<mgrwt>
<rscale>  0 0.27633029E+03</rscale>
<asrwt>0</asrwt>
<pdfrwt beam="1">  1        1 0.23198673E+00 0.27633029E+03</pdfrwt>
<pdfrwt beam="2">  1       -1 0.19476331E-02 0.27633029E+03</pdfrwt>
<totfact> 0.50404569E+03</totfact>
</mgrwt>
</event>
<event>
 5    1  0.1108889E+001  0.2745895E+03  0.7818608E-02  0.1098681E+00
         -2   -1    0    0    0  501 -0.00000000000E+00  0.00000000000E+00  0.11442739542E+02  0.11442739542E+02  0.00000000000E+00 0. -1.
          2   -1    0    0  501    0  0.00000000000E+00 -0.00000000000E+00 -0.16473194320E+04  0.16473194320E+04  0.00000000000E+00 0. -1.
         35    2    1    2    0    0  0.00000000000E+00  0.00000000000E+00 -0.16358766925E+04  0.16587621716E+04  0.27458949145E+03 0.  0.
         25    1    3    3    0    0  0.28292124353E+01  0.91185889197E+01 -0.41911699093E+03  0.43606215749E+03  0.12000000000E+03 0.  0.
         25    1    3    3    0    0 -0.28292124353E+01 -0.91185889197E+01 -0.12167597015E+04  0.12227000141E+04  0.12000000000E+03 0.  0.
<mgrwt>
<rscale>  0 0.27458949E+03</rscale>
<asrwt>0</asrwt>
<pdfrwt beam="1">  1        2 0.25343386E+00 0.27458949E+03</pdfrwt>
<pdfrwt beam="2">  1       -2 0.17604208E-02 0.27458949E+03</pdfrwt>
<totfact> 0.10624448E+04</totfact>
</mgrwt>
</event>
<event>
 5    1  0.1108889E+001  0.2748176E+03  0.7818608E-02  0.1098554E+00
          1   -1    0    0  501    0  0.00000000000E+00  0.00000000000E+00  0.66832276556E+02  0.66832276556E+02  0.00000000000E+00 0. -1.
         -1   -1    0    0    0  501 -0.00000000000E+00 -0.00000000000E+00 -0.28251580196E+03  0.28251580196E+03  0.00000000000E+00 0. -1.
         35    2    1    2    0    0  0.00000000000E+00  0.00000000000E+00 -0.21568352541E+03  0.34934807852E+03  0.27481757010E+03 0.  0.
         25    1    3    3    0    0  0.24628668622E+02  0.23871222406E+02 -0.34764153987E+02  0.12955675582E+03  0.12000000000E+03 0.  0.
         25    1    3    3    0    0 -0.24628668622E+02 -0.23871222406E+02 -0.18091937142E+03  0.21979132269E+03  0.12000000000E+03 0.  0.
<mgrwt>
<rscale>  0 0.27481757E+03</rscale>
<asrwt>0</asrwt>
<pdfrwt beam="1">  1        1 0.10281889E-01 0.27481757E+03</pdfrwt>
<pdfrwt beam="2">  1       -1 0.43463969E-01 0.27481757E+03</pdfrwt>
<totfact> 0.32702471E+03</totfact>
</mgrwt>
</event>
<event>
 5    1  0.1108889E+001  0.2744050E+03  0.7818608E-02  0.1098785E+00
         -2   -1    0    0    0  501 -0.00000000000E+00  0.00000000000E+00  0.73041728646E+03  0.73041728646E+03  0.00000000000E+00 0.  1.
          2   -1    0    0  501    0  0.00000000000E+00 -0.00000000000E+00 -0.25772290085E+02  0.25772290085E+02  0.00000000000E+00 0.  1.
         35    2    1    2    0    0  0.00000000000E+00  0.00000000000E+00  0.70464499638E+03  0.75618957655E+03  0.27440500134E+03 0.  0.
         25    1    3    3    0    0 -0.49568430332E+02 -0.44356407789E+02  0.35210918052E+03  0.37789601110E+03  0.12000000000E+03 0.  0.
         25    1    3    3    0    0  0.49568430332E+02  0.44356407789E+02  0.35253581585E+03  0.37829356544E+03  0.12000000000E+03 0.  0.
<mgrwt>
<rscale>  0 0.27440500E+03</rscale>
<asrwt>0</asrwt>
<pdfrwt beam="1">  1        2 0.39649683E-02 0.27440500E+03</pdfrwt>
<pdfrwt beam="2">  1       -2 0.11237187E+00 0.27440500E+03</pdfrwt>
<totfact> 0.13949450E+03</totfact>
</mgrwt>
</event>
<event>
 5    1  0.1108889E+001  0.2745699E+03  0.7818608E-02  0.1098692E+00
         -3   -1    0    0    0  501 -0.00000000000E+00  0.00000000000E+00  0.40808700501E+03  0.40808700501E+03  0.00000000000E+00 0.  1.
          3   -1    0    0  501    0  0.00000000000E+00 -0.00000000000E+00 -0.46184166198E+02  0.46184166198E+02  0.00000000000E+00 0.  1.
         35    2    1    2    0    0  0.00000000000E+00  0.00000000000E+00  0.36190283881E+03  0.45427117120E+03  0.27456990412E+03 0.  0.
         25    1    3    3    0    0  0.22488705168E+01 -0.21123291134E+02  0.28553654982E+03  0.31045510485E+03  0.12000000000E+03 0.  0.
         25    1    3    3    0    0 -0.22488705168E+01  0.21123291134E+02  0.76366288992E+02  0.14381606635E+03  0.12000000000E+03 0.  0.
<mgrwt>
<rscale>  0 0.27456990E+03</rscale>
<asrwt>0</asrwt>
<pdfrwt beam="1">  1        3 0.71052566E-02 0.27456990E+03</pdfrwt>
<pdfrwt beam="2">  1       -3 0.62782614E-01 0.27456990E+03</pdfrwt>
<totfact> 0.82385353E+02</totfact>
</mgrwt>
</event>
<event>
 5    1  0.1108889E+001  0.2773269E+03  0.7818608E-02  0.1097158E+00
          1   -1    0    0  501    0  0.00000000000E+00  0.00000000000E+00  0.49441475202E+03  0.49441475202E+03  0.00000000000E+00 0.  1.
         -1   -1    0    0    0  501 -0.00000000000E+00 -0.00000000000E+00 -0.38889511534E+02  0.38889511534E+02  0.00000000000E+00 0.  1.
         35    2    1    2    0    0  0.00000000000E+00  0.00000000000E+00  0.45552524049E+03  0.53330426356E+03  0.27732686997E+03 0.  0.
         25    1    3    3    0    0 -0.17782129594E+01  0.45663192930E+02  0.12711589425E+03  0.18068408840E+03  0.12000000000E+03 0.  0.
         25    1    3    3    0    0  0.17782129594E+01 -0.45663192930E+02  0.32840934624E+03  0.35262017516E+03  0.12000000000E+03 0.  0.
<mgrwt>
<rscale>  0 0.27732687E+03</rscale>
<asrwt>0</asrwt>
<pdfrwt beam="1">  1        1 0.76063804E-01 0.27732687E+03</pdfrwt>
<pdfrwt beam="2">  1       -1 0.59830021E-02 0.27732687E+03</pdfrwt>
<totfact> 0.61242827E+03</totfact>
</mgrwt>
</event>
<event>
 5    1  0.1108889E+001  0.2749295E+03  0.7818608E-02  0.1098491E+00
         -1   -1    0    0    0  501 -0.00000000000E+00  0.00000000000E+00  0.66035412960E+02  0.66035412960E+02  0.00000000000E+00 0.  1.
          1   -1    0    0  501    0  0.00000000000E+00 -0.00000000000E+00 -0.28615801773E+03  0.28615801773E+03  0.00000000000E+00 0.  1.
         35    2    1    2    0    0  0.00000000000E+00  0.00000000000E+00 -0.22012260477E+03  0.35219343069E+03  0.27492953914E+03 0.  0.
         25    1    3    3    0    0 -0.89226754709E+01  0.18566145655E+01 -0.24957003760E+02  0.12290611536E+03  0.12000000000E+03 0.  0.
         25    1    3    3    0    0  0.89226754709E+01 -0.18566145655E+01 -0.19516560101E+03  0.22928731533E+03  0.12000000000E+03 0.  0.
<mgrwt>
<rscale>  0 0.27492954E+03</rscale>
<asrwt>0</asrwt>
<pdfrwt beam="1">  1        1 0.44024311E-01 0.27492954E+03</pdfrwt>
<pdfrwt beam="2">  1       -1 0.10159294E-01 0.27492954E+03</pdfrwt>
<totfact> 0.54960818E+03</totfact>
</mgrwt>
</event>
<event>
 5    1  0.1108889E+001  0.2746236E+03  0.7818608E-02  0.1098662E+00
          2   -1    0    0  501    0  0.00000000000E+00  0.00000000000E+00  0.18029724582E+04  0.18029724582E+04  0.00000000000E+00 0.  1.
         -2   -1    0    0    0  501 -0.00000000000E+00 -0.00000000000E+00 -0.10457467244E+02  0.10457467244E+02  0.00000000000E+00 0.  1.
         35    2    1    2    0    0  0.00000000000E+00  0.00000000000E+00  0.17925149909E+04  0.18134299254E+04  0.27462356362E+03 0.  0.
         25    1    3    3    0    0  0.88903760433E+01 -0.64915697194E+02  0.98015848217E+03  0.98964828939E+03  0.12000000000E+03 0.  0.
         25    1    3    3    0    0 -0.88903760433E+01  0.64915697194E+02  0.81235650877E+03  0.82378163604E+03  0.12000000000E+03 0.  0.
<mgrwt>
<rscale>  0 0.27462356E+03</rscale>
<asrwt>0</asrwt>
<pdfrwt beam="1">  1        2 0.27738013E+00 0.27462356E+03</pdfrwt>
<pdfrwt beam="2">  1       -2 0.16088425E-02 0.27462356E+03</pdfrwt>
<totfact> 0.10039645E+04</totfact>
</mgrwt>
</event>
<event>
 5    1  0.1108889E+001  0.2753879E+03  0.7818608E-02  0.1098235E+00
         -1   -1    0    0    0  501 -0.00000000000E+00  0.00000000000E+00  0.49624794827E+03  0.49624794827E+03  0.00000000000E+00 0. -1.
          1   -1    0    0  501    0  0.00000000000E+00 -0.00000000000E+00 -0.38205940091E+02  0.38205940091E+02  0.00000000000E+00 0. -1.
         35    2    1    2    0    0  0.00000000000E+00  0.00000000000E+00  0.45804200818E+03  0.53445388836E+03  0.27538786743E+03 0.  0.
         25    1    3    3    0    0 -0.38788633073E+02  0.26632968051E+02  0.13502574230E+03  0.18667036221E+03  0.12000000000E+03 0.  0.
         25    1    3    3    0    0  0.38788633073E+02 -0.26632968051E+02  0.32301626588E+03  0.34778352615E+03  0.12000000000E+03 0.  0.
<mgrwt>
<rscale>  0 0.27538787E+03</rscale>
<asrwt>0</asrwt>
<pdfrwt beam="1">  1        1 0.58778373E-02 0.27538787E+03</pdfrwt>
<pdfrwt beam="2">  1       -1 0.76345834E-01 0.27538787E+03</pdfrwt>
<totfact> 0.23845468E+03</totfact>
</mgrwt>
</event>
<event>
 5    1  0.1108889E+001  0.2755617E+03  0.7818608E-02  0.1098138E+00
          3   -1    0    0  501    0  0.00000000000E+00  0.00000000000E+00  0.35895371550E+02  0.35895371550E+02  0.00000000000E+00 0. -1.
         -3   -1    0    0    0  501 -0.00000000000E+00 -0.00000000000E+00 -0.52885830927E+03  0.52885830927E+03  0.00000000000E+00 0. -1.
         35    2    1    2    0    0  0.00000000000E+00  0.00000000000E+00 -0.49296293772E+03  0.56475368081E+03  0.27556172091E+03 0.  0.
         25    1    3    3    0    0  0.51727525018E+02  0.35706814811E+02 -0.29803890042E+03  0.32738035926E+03  0.12000000000E+03 0.  0.
         25    1    3    3    0    0 -0.51727525018E+02 -0.35706814811E+02 -0.19492403730E+03  0.23737332155E+03  0.12000000000E+03 0.  0.
<mgrwt>
<rscale>  0 0.27556172E+03</rscale>
<asrwt>0</asrwt>
<pdfrwt beam="1">  1        3 0.55223651E-02 0.27556172E+03</pdfrwt>
<pdfrwt beam="2">  1       -3 0.81362814E-01 0.27556172E+03</pdfrwt>
<totfact> 0.70974719E+02</totfact>
</mgrwt>
</event>
<event>
 5    1  0.1108889E+001  0.2749205E+03  0.7818608E-02  0.1098496E+00
          2   -1    0    0  501    0  0.00000000000E+00  0.00000000000E+00  0.83912648814E+03  0.83912648814E+03  0.00000000000E+00 0.  1.
         -2   -1    0    0    0  501 -0.00000000000E+00 -0.00000000000E+00 -0.22517842434E+02  0.22517842434E+02  0.00000000000E+00 0.  1.
         35    2    1    2    0    0  0.00000000000E+00  0.00000000000E+00  0.81660864570E+03  0.86164433057E+03  0.27492048335E+03 0.  0.
         25    1    3    3    0    0  0.25145797854E+02 -0.51639527737E+02  0.51671023782E+03  0.53356201312E+03  0.12000000000E+03 0.  0.
         25    1    3    3    0    0 -0.25145797854E+02  0.51639527737E+02  0.29989840789E+03  0.32808231746E+03  0.12000000000E+03 0.  0.
<mgrwt>
<rscale>  0 0.27492048E+03</rscale>
<asrwt>0</asrwt>
<pdfrwt beam="1">  1        2 0.12909636E+00 0.27492048E+03</pdfrwt>
<pdfrwt beam="2">  1       -2 0.34642841E-02 0.27492048E+03</pdfrwt>
<totfact> 0.11346001E+04</totfact>
</mgrwt>
</event>
<event>
 5    1  0.1108889E+001  0.2763674E+03  0.7818608E-02  0.1097690E+00
         -2   -1    0    0    0  501 -0.00000000000E+00  0.00000000000E+00  0.95193291410E+02  0.95193291410E+02  0.00000000000E+00 0. -1.
          2   -1    0    0  501    0  0.00000000000E+00 -0.00000000000E+00 -0.20058908734E+03  0.20058908734E+03  0.00000000000E+00 0. -1.
         35    2    1    2    0    0  0.00000000000E+00  0.00000000000E+00 -0.10539579593E+03  0.29578237875E+03  0.27636740361E+03 0.  0.
         25    1    3    3    0    0  0.59832680680E+02 -0.76167178811E+01 -0.87489625984E+02  0.16028848594E+03  0.12000000000E+03 0.  0.
         25    1    3    3    0    0 -0.59832680680E+02  0.76167178811E+01 -0.17906169949E+02  0.13549389282E+03  0.12000000000E+03 0.  0.
<mgrwt>
<rscale>  0 0.27636740E+03</rscale>
<asrwt>0</asrwt>
<pdfrwt beam="1">  1        2 0.30859859E-01 0.27636740E+03</pdfrwt>
<pdfrwt beam="2">  1       -2 0.14645122E-01 0.27636740E+03</pdfrwt>
<totfact> 0.60109612E+03</totfact>
</mgrwt>
</event>
<event>
 5    1  0.1108889E+001  0.2747098E+03  0.7818608E-02  0.1098614E+00
          1   -1    0    0  501    0  0.00000000000E+00  0.00000000000E+00  0.53031246329E+02  0.53031246329E+02  0.00000000000E+00 0.  1.
         -1   -1    0    0    0  501 -0.00000000000E+00 -0.00000000000E+00 -0.35575935802E+03  0.35575935802E+03  0.00000000000E+00 0.  1.
         35    2    1    2    0    0  0.00000000000E+00  0.00000000000E+00 -0.30272811169E+03  0.40879060435E+03  0.27470975337E+03 0.  0.
         25    1    3    3    0    0  0.39635329927E+02  0.47369935409E+02 -0.11338174649E+03  0.17626766747E+03  0.12000000000E+03 0.  0.
         25    1    3    3    0    0 -0.39635329927E+02 -0.47369935409E+02 -0.18934636520E+03  0.23252293687E+03  0.12000000000E+03 0.  0.
<mgrwt>
<rscale>  0 0.27470975E+03</rscale>
<asrwt>0</asrwt>
<pdfrwt beam="1">  1        1 0.81586536E-02 0.27470975E+03</pdfrwt>
<pdfrwt beam="2">  1       -1 0.54732206E-01 0.27470975E+03</pdfrwt>
<totfact> 0.29237226E+03</totfact>
</mgrwt>
</event>
<event>
 5    1  0.1108889E+001  0.2748190E+03  0.7818608E-02  0.1098553E+00
          1   -1    0    0  501    0  0.00000000000E+00  0.00000000000E+00  0.10283439528E+04  0.10283439528E+04  0.00000000000E+00 0.  1.
         -1   -1    0    0    0  501 -0.00000000000E+00 -0.00000000000E+00 -0.18360953803E+02  0.18360953803E+02  0.00000000000E+00 0.  1.
         35    2    1    2    0    0  0.00000000000E+00  0.00000000000E+00  0.10099829990E+04  0.10467049066E+04  0.27481903726E+03 0.  0.
         25    1    3    3    0    0  0.47521030802E+02 -0.24214219706E+02  0.35090126273E+03  0.37466821721E+03  0.12000000000E+03 0.  0.
         25    1    3    3    0    0 -0.47521030802E+02  0.24214219706E+02  0.65908173622E+03  0.67203668935E+03  0.12000000000E+03 0.  0.
<mgrwt>
<rscale>  0 0.27481904E+03</rscale>
<asrwt>0</asrwt>
<pdfrwt beam="1">  1        1 0.15820672E+00 0.27481904E+03</pdfrwt>
<pdfrwt beam="2">  1       -1 0.28247629E-02 0.27481904E+03</pdfrwt>
<totfact> 0.62757190E+03</totfact>
</mgrwt>
</event>
<event>
 5    1  0.1108889E+001  0.2750000E+03  0.7818608E-02  0.1098452E+00
         -1   -1    0    0    0  501 -0.00000000000E+00  0.00000000000E+00  0.59206237235E+02  0.59206237235E+02  0.00000000000E+00 0. -1.
          1   -1    0    0  501    0  0.00000000000E+00 -0.00000000000E+00 -0.31932858829E+03  0.31932858829E+03  0.00000000000E+00 0. -1.
         35    2    1    2    0    0  0.00000000000E+00  0.00000000000E+00 -0.26012235105E+03  0.37853482552E+03  0.27499995749E+03 0.  0.
         25    1    3    3    0    0 -0.66160695984E+02 -0.11357707301E+02 -0.13019136868E+03  0.18935687917E+03  0.12000000000E+03 0.  0.
         25    1    3    3    0    0  0.66160695984E+02  0.11357707301E+02 -0.12993098237E+03  0.18917794636E+03  0.12000000000E+03 0.  0.
<mgrwt>
<rscale>  0 0.27499996E+03</rscale>
<asrwt>0</asrwt>
<pdfrwt beam="1">  1        1 0.49127476E-01 0.27499996E+03</pdfrwt>
<pdfrwt beam="2">  1       -1 0.91086517E-02 0.27499996E+03</pdfrwt>
<totfact> 0.56655594E+03</totfact>
</mgrwt>
</event>
<event>
 5    1  0.1108889E+001  0.2736635E+03  0.7818608E-02  0.1099201E+00
          1   -1    0    0  501    0  0.00000000000E+00  0.00000000000E+00  0.90698436836E+03  0.90698436836E+03  0.00000000000E+00 0. -1.
         -1   -1    0    0    0  501 -0.00000000000E+00 -0.00000000000E+00 -0.20643053574E+02  0.20643053574E+02  0.00000000000E+00 0. -1.
         35    2    1    2    0    0  0.00000000000E+00  0.00000000000E+00  0.88634131479E+03  0.92762742194E+03  0.27366349341E+03 0.  0.
         25    1    3    3    0    0 -0.62098471253E+02  0.21461149631E+02  0.43478109636E+03  0.45579754588E+03  0.12000000000E+03 0.  0.
         25    1    3    3    0    0  0.62098471253E+02 -0.21461149631E+02  0.45156021843E+03  0.47182987606E+03  0.12000000000E+03 0.  0.
<mgrwt>
<rscale>  0 0.27366349E+03</rscale>
<asrwt>0</asrwt>
<pdfrwt beam="1">  1        1 0.13953603E+00 0.27366349E+03</pdfrwt>
<pdfrwt beam="2">  1       -1 0.31758551E-02 0.27366349E+03</pdfrwt>
<totfact> 0.65281561E+03</totfact>
</mgrwt>
</event>
<event>
 5    1  0.1108889E+001  0.2746322E+03  0.7818608E-02  0.1098657E+00
          1   -1    0    0  501    0  0.00000000000E+00  0.00000000000E+00  0.29867230865E+04  0.29867230865E+04  0.00000000000E+00 0. -1.
         -1   -1    0    0    0  501 -0.00000000000E+00 -0.00000000000E+00 -0.63131754709E+01  0.63131754709E+01  0.00000000000E+00 0. -1.
         35    2    1    2    0    0  0.00000000000E+00  0.00000000000E+00  0.29804099110E+04  0.29930362619E+04  0.27463216802E+03 0.  0.
         25    1    3    3    0    0  0.92431643760E+00 -0.64130291079E+02  0.12886125654E+04  0.12957761737E+04  0.12000000000E+03 0.  0.
         25    1    3    3    0    0 -0.92431643760E+00  0.64130291079E+02  0.16917973456E+04  0.16972600882E+04  0.12000000000E+03 0.  0.
<mgrwt>
<rscale>  0 0.27463217E+03</rscale>
<asrwt>0</asrwt>
<pdfrwt beam="1">  1        1 0.45949473E+00 0.27463217E+03</pdfrwt>
<pdfrwt beam="2">  1       -1 0.97126015E-03 0.27463217E+03</pdfrwt>
<totfact> 0.14509066E+03</totfact>
</mgrwt>
</event>
<event>
 5    1  0.1108889E+001  0.2756614E+03  0.7818608E-02  0.1098082E+00
          1   -1    0    0  501    0  0.00000000000E+00  0.00000000000E+00  0.65589595552E+03  0.65589595552E+03  0.00000000000E+00 0. -1.
         -1   -1    0    0    0  501 -0.00000000000E+00 -0.00000000000E+00 -0.28963904052E+02  0.28963904052E+02  0.00000000000E+00 0. -1.
         35    2    1    2    0    0  0.00000000000E+00  0.00000000000E+00  0.62693205146E+03  0.68485985957E+03  0.27566144107E+03 0.  0.
         25    1    3    3    0    0  0.10778727968E+02  0.24361122061E+02  0.46837263779E+03  0.48423400652E+03  0.12000000000E+03 0.  0.
         25    1    3    3    0    0 -0.10778727968E+02 -0.24361122061E+02  0.15855941368E+03  0.20062585305E+03  0.12000000000E+03 0.  0.
<mgrwt>
<rscale>  0 0.27566144E+03</rscale>
<asrwt>0</asrwt>
<pdfrwt beam="1">  1        1 0.10090706E+00 0.27566144E+03</pdfrwt>
<pdfrwt beam="2">  1       -1 0.44559857E-02 0.27566144E+03</pdfrwt>
<totfact> 0.64650943E+03</totfact>
</mgrwt>
</event>
<event>
 5    1  0.1108889E+001  0.2773266E+03  0.7818608E-02  0.1097158E+00
          1   -1    0    0  501    0  0.00000000000E+00  0.00000000000E+00  0.82190867579E+03  0.82190867579E+03  0.00000000000E+00 0.  1.
         -1   -1    0    0    0  501 -0.00000000000E+00 -0.00000000000E+00 -0.23393729296E+02  0.23393729296E+02  0.00000000000E+00 0.  1.
         35    2    1    2    0    0  0.00000000000E+00  0.00000000000E+00  0.79851494650E+03  0.84530240509E+03  0.27732658775E+03 0.  0.
         25    1    3    3    0    0 -0.21321693277E+02  0.64148200465E+02  0.35030792825E+03  0.37641101315E+03  0.12000000000E+03 0.  0.
         25    1    3    3    0    0  0.21321693277E+02 -0.64148200465E+02  0.44820701825E+03  0.46889139194E+03  0.12000000000E+03 0.  0.
<mgrwt>
<rscale>  0 0.27732659E+03</rscale>
<asrwt>0</asrwt>
<pdfrwt beam="1">  1        1 0.12644747E+00 0.27732659E+03</pdfrwt>
<pdfrwt beam="2">  1       -1 0.35990359E-02 0.27732659E+03</pdfrwt>
<totfact> 0.63498600E+03</totfact>
</mgrwt>
</event>
<event>
 5    1  0.1108889E+001  0.2873492E+03  0.7818608E-02  0.1091741E+00
         -2   -1    0    0    0  501 -0.00000000000E+00  0.00000000000E+00  0.15980948426E+02  0.15980948426E+02  0.00000000000E+00 0. -1.
          2   -1    0    0  501    0  0.00000000000E+00 -0.00000000000E+00 -0.12916873855E+04  0.12916873855E+04  0.00000000000E+00 0. -1.
         35    2    1    2    0    0  0.00000000000E+00  0.00000000000E+00 -0.12757064371E+04  0.13076683340E+04  0.28734919168E+03 0.  0.
         25    1    3    3    0    0  0.30618748498E+02  0.30774053765E+02 -0.93826934025E+03  0.94690754828E+03  0.12000000000E+03 0.  0.
         25    1    3    3    0    0 -0.30618748498E+02 -0.30774053765E+02 -0.33743709686E+03  0.36076078567E+03  0.12000000000E+03 0.  0.
<mgrwt>
<rscale>  0 0.28734919E+03</rscale>
<asrwt>0</asrwt>
<pdfrwt beam="1">  1        2 0.19872120E+00 0.28734919E+03</pdfrwt>
<pdfrwt beam="2">  1       -2 0.24586066E-02 0.28734919E+03</pdfrwt>
<totfact> 0.10107820E+04</totfact>
</mgrwt>
</event>
<event>
 5    1  0.1108889E+001  0.2753868E+03  0.7818608E-02  0.1098236E+00
         -2   -1    0    0    0  501 -0.00000000000E+00  0.00000000000E+00  0.34216255659E+03  0.34216255659E+03  0.00000000000E+00 0.  1.
          2   -1    0    0  501    0  0.00000000000E+00 -0.00000000000E+00 -0.55410699265E+02  0.55410699265E+02  0.00000000000E+00 0.  1.
         35    2    1    2    0    0  0.00000000000E+00  0.00000000000E+00  0.28675185732E+03  0.39757325585E+03  0.27538675729E+03 0.  0.
         25    1    3    3    0    0 -0.10056717445E+02 -0.11510211876E+01  0.46993996722E+02  0.12927063914E+03  0.12000000000E+03 0.  0.
         25    1    3    3    0    0  0.10056717445E+02  0.11510211876E+01  0.23975786060E+03  0.26830261671E+03  0.12000000000E+03 0.  0.
<mgrwt>
<rscale>  0 0.27538676E+03</rscale>
<asrwt>0</asrwt>
<pdfrwt beam="1">  1        2 0.85247231E-02 0.27538676E+03</pdfrwt>
<pdfrwt beam="2">  1       -2 0.52640392E-01 0.27538676E+03</pdfrwt>
<totfact> 0.27052592E+03</totfact>
</mgrwt>
</event>
<event>
 5    1  0.1108889E+001  0.2751468E+03  0.7818608E-02  0.1098370E+00
         -2   -1    0    0    0  501 -0.00000000000E+00  0.00000000000E+00  0.78442079305E+02  0.78442079305E+02  0.00000000000E+00 0.  1.
          2   -1    0    0  501    0  0.00000000000E+00 -0.00000000000E+00 -0.24127910918E+03  0.24127910918E+03  0.00000000000E+00 0.  1.
         35    2    1    2    0    0  0.00000000000E+00  0.00000000000E+00 -0.16283702988E+03  0.31972118849E+03  0.27514676096E+03 0.  0.
         25    1    3    3    0    0  0.27232092356E+02 -0.36172773528E+02 -0.13924350101E+03  0.18931140740E+03  0.12000000000E+03 0.  0.
         25    1    3    3    0    0 -0.27232092356E+02  0.36172773528E+02 -0.23593528869E+02  0.13040978109E+03  0.12000000000E+03 0.  0.
<mgrwt>
<rscale>  0 0.27514676E+03</rscale>
<asrwt>0</asrwt>
<pdfrwt beam="1">  1        2 0.37119863E-01 0.27514676E+03</pdfrwt>
<pdfrwt beam="2">  1       -2 0.12068012E-01 0.27514676E+03</pdfrwt>
<totfact> 0.67408245E+03</totfact>
</mgrwt>
</event>
<event>
 5    1  0.1108889E+001  0.2714942E+03  0.7818608E-02  0.1100427E+00
          2   -1    0    0  501    0  0.00000000000E+00  0.00000000000E+00  0.18538845537E+03  0.18538845537E+03  0.00000000000E+00 0. -1.
         -2   -1    0    0    0  501 -0.00000000000E+00 -0.00000000000E+00 -0.99398151071E+02  0.99398151071E+02  0.00000000000E+00 0. -1.
         35    2    1    2    0    0  0.00000000000E+00  0.00000000000E+00  0.85990304302E+02  0.28478660644E+03  0.27149415974E+03 0.  0.
         25    1    3    3    0    0 -0.61929780490E+02 -0.13434934378E+02  0.46548406894E+02  0.14346619587E+03  0.12000000000E+03 0.  0.
         25    1    3    3    0    0  0.61929780490E+02  0.13434934378E+02  0.39441897408E+02  0.14132041057E+03  0.12000000000E+03 0.  0.
<mgrwt>
<rscale>  0 0.27149416E+03</rscale>
<asrwt>0</asrwt>
<pdfrwt beam="1">  1        2 0.28521301E-01 0.27149416E+03</pdfrwt>
<pdfrwt beam="2">  1       -2 0.15292023E-01 0.27149416E+03</pdfrwt>
<totfact> 0.60989008E+03</totfact>
</mgrwt>
</event>
<event>
 5    1  0.1108889E+001  0.2794496E+03  0.7818608E-02  0.1095990E+00
         -2   -1    0    0    0  501 -0.00000000000E+00  0.00000000000E+00  0.37064513102E+03  0.37064513102E+03  0.00000000000E+00 0.  1.
          2   -1    0    0  501    0  0.00000000000E+00 -0.00000000000E+00 -0.52673065437E+02  0.52673065437E+02  0.00000000000E+00 0.  1.
         35    2    1    2    0    0  0.00000000000E+00  0.00000000000E+00  0.31797206558E+03  0.42331819646E+03  0.27944956783E+03 0.  0.
         25    1    3    3    0    0  0.63829202813E+02 -0.32163366080E+02  0.16472761103E+03  0.21597183864E+03  0.12000000000E+03 0.  0.
         25    1    3    3    0    0 -0.63829202813E+02  0.32163366080E+02  0.15324445455E+03  0.20734635782E+03  0.12000000000E+03 0.  0.
<mgrwt>
<rscale>  0 0.27944957E+03</rscale>
<asrwt>0</asrwt>
<pdfrwt beam="1">  1        2 0.81035488E-02 0.27944957E+03</pdfrwt>
<pdfrwt beam="2">  1       -2 0.57022326E-01 0.27944957E+03</pdfrwt>
<totfact> 0.24527870E+03</totfact>
</mgrwt>
</event>
<event>
 5    1  0.1108889E+001  0.2749832E+03  0.7818608E-02  0.1098461E+00
          1   -1    0    0  501    0  0.00000000000E+00  0.00000000000E+00  0.44106445470E+04  0.44106445470E+04  0.00000000000E+00 0. -1.
         -1   -1    0    0    0  501 -0.00000000000E+00 -0.00000000000E+00 -0.42859805476E+01  0.42859805476E+01  0.00000000000E+00 0. -1.
         35    2    1    2    0    0  0.00000000000E+00  0.00000000000E+00  0.44063585665E+04  0.44149305276E+04  0.27498317571E+03 0.  0.
         25    1    3    3    0    0 -0.53176991668E+02  0.39423470642E+02  0.23804678004E+04  0.23844095603E+04  0.12000000000E+03 0.  0.
         25    1    3    3    0    0  0.53176991668E+02 -0.39423470642E+02  0.20258907661E+04  0.20305209673E+04  0.12000000000E+03 0.  0.
<mgrwt>
<rscale>  0 0.27498318E+03</rscale>
<asrwt>0</asrwt>
<pdfrwt beam="1">  1        1 0.67855707E+00 0.27498318E+03</pdfrwt>
<pdfrwt beam="2">  1       -1 0.65938515E-03 0.27498318E+03</pdfrwt>
<totfact> 0.18493333E+02</totfact>
</mgrwt>
</event>
<event>
 5    1  0.1108889E+001  0.2748174E+03  0.7818608E-02  0.1098554E+00
          1   -1    0    0  501    0  0.00000000000E+00  0.00000000000E+00  0.87629823299E+03  0.87629823299E+03  0.00000000000E+00 0. -1.
         -1   -1    0    0    0  501 -0.00000000000E+00 -0.00000000000E+00 -0.21546494911E+02  0.21546494911E+02  0.00000000000E+00 0. -1.
         35    2    1    2    0    0  0.00000000000E+00  0.00000000000E+00  0.85475173807E+03  0.89784472790E+03  0.27481743335E+03 0.  0.
         25    1    3    3    0    0 -0.29850448684E+02 -0.41334408300E+02  0.56909140815E+03  0.58383611863E+03  0.12000000000E+03 0.  0.
         25    1    3    3    0    0  0.29850448684E+02  0.41334408300E+02  0.28566032993E+03  0.31400860926E+03  0.12000000000E+03 0.  0.
<mgrwt>
<rscale>  0 0.27481743E+03</rscale>
<asrwt>0</asrwt>
<pdfrwt beam="1">  1        1 0.13481509E+00 0.27481743E+03</pdfrwt>
<pdfrwt beam="2">  1       -1 0.33148460E-02 0.27481743E+03</pdfrwt>
<totfact> 0.64796356E+03</totfact>
</mgrwt>
</event>
<event>
 5    1  0.1108889E+001  0.2749591E+03  0.7818608E-02  0.1098474E+00
         -1   -1    0    0    0  501 -0.00000000000E+00  0.00000000000E+00  0.12504609774E+02  0.12504609774E+02  0.00000000000E+00 0.  1.
          1   -1    0    0  501    0  0.00000000000E+00 -0.00000000000E+00 -0.15114924828E+04  0.15114924828E+04  0.00000000000E+00 0.  1.
         35    2    1    2    0    0  0.00000000000E+00  0.00000000000E+00 -0.14989878730E+04  0.15239970926E+04  0.27495907822E+03 0.  0.
         25    1    3    3    0    0  0.50011341369E+02 -0.12309532917E+01 -0.99724242247E+03  0.10056814101E+04  0.12000000000E+03 0.  0.
         25    1    3    3    0    0 -0.50011341369E+02  0.12309532917E+01 -0.50174545057E+03  0.51831568245E+03  0.12000000000E+03 0.  0.
<mgrwt>
<rscale>  0 0.27495908E+03</rscale>
<asrwt>0</asrwt>
<pdfrwt beam="1">  1        1 0.23253730E+00 0.27495908E+03</pdfrwt>
<pdfrwt beam="2">  1       -1 0.19237862E-02 0.27495908E+03</pdfrwt>
<totfact> 0.51038972E+03</totfact>
</mgrwt>
</event>
<event>
 5    1  0.1108889E+001  0.2749873E+03  0.7818608E-02  0.1098459E+00
          2   -1    0    0  501    0  0.00000000000E+00  0.00000000000E+00  0.64552843112E+02  0.64552843112E+02  0.00000000000E+00 0. -1.
         -2   -1    0    0    0  501 -0.00000000000E+00 -0.00000000000E+00 -0.29285313476E+03  0.29285313476E+03  0.00000000000E+00 0. -1.
         35    2    1    2    0    0  0.00000000000E+00  0.00000000000E+00 -0.22830029165E+03  0.35740597788E+03  0.27498729035E+03 0.  0.
         25    1    3    3    0    0 -0.59038093338E+02  0.31883015430E+02 -0.11619666569E+03  0.18001024486E+03  0.12000000000E+03 0.  0.
         25    1    3    3    0    0  0.59038093338E+02 -0.31883015430E+02 -0.11210362596E+03  0.17739573301E+03  0.12000000000E+03 0.  0.
<mgrwt>
<rscale>  0 0.27498729E+03</rscale>
<asrwt>0</asrwt>
<pdfrwt beam="1">  1        2 0.99312064E-02 0.27498729E+03</pdfrwt>
<pdfrwt beam="2">  1       -2 0.45054329E-01 0.27498729E+03</pdfrwt>
<totfact> 0.30422486E+03</totfact>
</mgrwt>
</event>
<event>
 5    1  0.1108889E+001  0.2757904E+03  0.7818608E-02  0.1098011E+00
          2   -1    0    0  501    0  0.00000000000E+00  0.00000000000E+00  0.13083693839E+02  0.13083693839E+02  0.00000000000E+00 0.  1.
         -2   -1    0    0    0  501 -0.00000000000E+00 -0.00000000000E+00 -0.14533421290E+04  0.14533421290E+04  0.00000000000E+00 0.  1.
         35    2    1    2    0    0  0.00000000000E+00  0.00000000000E+00 -0.14402584352E+04  0.14664258229E+04  0.27579038025E+03 0.  0.
         25    1    3    3    0    0  0.88800118071E+01  0.60422547403E+02 -0.56191804070E+03  0.57782490714E+03  0.12000000000E+03 0.  0.
         25    1    3    3    0    0 -0.88800118071E+01 -0.60422547403E+02 -0.87834039450E+03  0.88860091574E+03  0.12000000000E+03 0.  0.
<mgrwt>
<rscale>  0 0.27579038E+03</rscale>
<asrwt>0</asrwt>
<pdfrwt beam="1">  1        2 0.20128767E-02 0.27579038E+03</pdfrwt>
<pdfrwt beam="2">  1       -2 0.22359102E+00 0.27579038E+03</pdfrwt>
<totfact> 0.55945466E+02</totfact>
</mgrwt>
</event>
<event>
 5    1  0.1108889E+001  0.2755727E+03  0.7818608E-02  0.1098132E+00
          2   -1    0    0  501    0  0.00000000000E+00  0.00000000000E+00  0.11264975023E+03  0.11264975023E+03  0.00000000000E+00 0. -1.
         -2   -1    0    0    0  501 -0.00000000000E+00 -0.00000000000E+00 -0.16853186046E+03  0.16853186046E+03  0.00000000000E+00 0. -1.
         35    2    1    2    0    0  0.00000000000E+00  0.00000000000E+00 -0.55882110238E+02  0.28118161069E+03  0.27557265457E+03 0.  0.
         25    1    3    3    0    0 -0.41971735754E+02  0.51530087894E+02 -0.14712002545E+02  0.13796165982E+03  0.12000000000E+03 0.  0.
         25    1    3    3    0    0  0.41971735754E+02 -0.51530087894E+02 -0.41170107693E+02  0.14321995087E+03  0.12000000000E+03 0.  0.
<mgrwt>
<rscale>  0 0.27557265E+03</rscale>
<asrwt>0</asrwt>
<pdfrwt beam="1">  1        2 0.17330731E-01 0.27557265E+03</pdfrwt>
<pdfrwt beam="2">  1       -2 0.25927979E-01 0.27557265E+03</pdfrwt>
<totfact> 0.43460550E+03</totfact>
</mgrwt>
</event>
<event>
 5    1  0.1108889E+001  0.2718315E+03  0.7818608E-02  0.1100236E+00
         -1   -1    0    0    0  501 -0.00000000000E+00  0.00000000000E+00  0.77365879300E+02  0.77365879300E+02  0.00000000000E+00 0.  1.
          1   -1    0    0  501    0  0.00000000000E+00 -0.00000000000E+00 -0.23877572436E+03  0.23877572436E+03  0.00000000000E+00 0.  1.
         35    2    1    2    0    0  0.00000000000E+00  0.00000000000E+00 -0.16140984506E+03  0.31614160366E+03  0.27183152040E+03 0.  0.
         25    1    3    3    0    0  0.15593827704E+02 -0.59613202971E+02 -0.10003295874E+03  0.16793895994E+03  0.12000000000E+03 0.  0.
         25    1    3    3    0    0 -0.15593827704E+02  0.59613202971E+02 -0.61376886318E+02  0.14820264372E+03  0.12000000000E+03 0.  0.
<mgrwt>
<rscale>  0 0.27183152E+03</rscale>
<asrwt>0</asrwt>
<pdfrwt beam="1">  1        1 0.36734727E-01 0.27183152E+03</pdfrwt>
<pdfrwt beam="2">  1       -1 0.11902443E-01 0.27183152E+03</pdfrwt>
<totfact> 0.53913207E+03</totfact>
</mgrwt>
</event>
<event>
 5    1  0.1108889E+001  0.2741116E+03  0.7818608E-02  0.1098949E+00
          1   -1    0    0  501    0  0.00000000000E+00  0.00000000000E+00  0.15301067938E+04  0.15301067938E+04  0.00000000000E+00 0.  1.
         -1   -1    0    0    0  501 -0.00000000000E+00 -0.00000000000E+00 -0.12276456836E+02  0.12276456836E+02  0.00000000000E+00 0.  1.
         35    2    1    2    0    0  0.00000000000E+00  0.00000000000E+00  0.15178303370E+04  0.15423832506E+04  0.27411158318E+03 0.  0.
         25    1    3    3    0    0  0.56520923499E+02  0.28399864279E+02  0.64877798101E+03  0.66280769136E+03  0.12000000000E+03 0.  0.
         25    1    3    3    0    0 -0.56520923499E+02 -0.28399864279E+02  0.86905235595E+03  0.87957555927E+03  0.12000000000E+03 0.  0.
<mgrwt>
<rscale>  0 0.27411158E+03</rscale>
<asrwt>0</asrwt>
<pdfrwt beam="1">  1        1 0.23540089E+00 0.27411158E+03</pdfrwt>
<pdfrwt beam="2">  1       -1 0.18886869E-02 0.27411158E+03</pdfrwt>
<totfact> 0.50963880E+03</totfact>
</mgrwt>
</event>
<event>
 5    1  0.1108889E+001  0.2745892E+03  0.7818608E-02  0.1098681E+00
         -2   -1    0    0    0  501 -0.00000000000E+00  0.00000000000E+00  0.17415152240E+02  0.17415152240E+02  0.00000000000E+00 0. -1.
          2   -1    0    0  501    0  0.00000000000E+00 -0.00000000000E+00 -0.10823796755E+04  0.10823796755E+04  0.00000000000E+00 0. -1.
         35    2    1    2    0    0  0.00000000000E+00  0.00000000000E+00 -0.10649645233E+04  0.10997948277E+04  0.27458919738E+03 0.  0.
         25    1    3    3    0    0 -0.65877782862E+02 -0.96305764796E+01 -0.54908180786E+03  0.56597125545E+03  0.12000000000E+03 0.  0.
         25    1    3    3    0    0  0.65877782862E+02  0.96305764796E+01 -0.51588271541E+03  0.53382357229E+03  0.12000000000E+03 0.  0.
<mgrwt>
<rscale>  0 0.27458920E+03</rscale>
<asrwt>0</asrwt>
<pdfrwt beam="1">  1        2 0.16651992E+00 0.27458920E+03</pdfrwt>
<pdfrwt beam="2">  1       -2 0.26792546E-02 0.27458920E+03</pdfrwt>
<totfact> 0.11709219E+04</totfact>
</mgrwt>
</event>
<event>
 5    1  0.1108889E+001  0.2745862E+03  0.7818608E-02  0.1098683E+00
         -1   -1    0    0    0  501 -0.00000000000E+00  0.00000000000E+00  0.73745361741E+02  0.73745361741E+02  0.00000000000E+00 0. -1.
          1   -1    0    0  501    0  0.00000000000E+00 -0.00000000000E+00 -0.25560101038E+03  0.25560101038E+03  0.00000000000E+00 0. -1.
         35    2    1    2    0    0  0.00000000000E+00  0.00000000000E+00 -0.18185564864E+03  0.32934637212E+03  0.27458615385E+03 0.  0.
         25    1    3    3    0    0 -0.54703422599E+01  0.30043893772E+02 -0.16205734171E+03  0.20394887153E+03  0.12000000000E+03 0.  0.
         25    1    3    3    0    0  0.54703422599E+01 -0.30043893772E+02 -0.19798306934E+02  0.12539750059E+03  0.12000000000E+03 0.  0.
<mgrwt>
<rscale>  0 0.27458615E+03</rscale>
<asrwt>0</asrwt>
<pdfrwt beam="1">  1        1 0.39323233E-01 0.27458615E+03</pdfrwt>
<pdfrwt beam="2">  1       -1 0.11345440E-01 0.27458615E+03</pdfrwt>
<totfact> 0.53353003E+03</totfact>
</mgrwt>
</event>
<event>
 5    1  0.1108889E+001  0.2738808E+03  0.7818608E-02  0.1099079E+00
          2   -1    0    0  501    0  0.00000000000E+00  0.00000000000E+00  0.16566467679E+03  0.16566467679E+03  0.00000000000E+00 0.  1.
         -2   -1    0    0    0  501 -0.00000000000E+00 -0.00000000000E+00 -0.11319655085E+03  0.11319655085E+03  0.00000000000E+00 0.  1.
         35    2    1    2    0    0  0.00000000000E+00  0.00000000000E+00  0.52468125937E+02  0.27886122764E+03  0.27388077705E+03 0.  0.
         25    1    3    3    0    0  0.33446944610E+02  0.13456830748E+02  0.82491747015E+02  0.15001557494E+03  0.12000000000E+03 0.  0.
         25    1    3    3    0    0 -0.33446944610E+02 -0.13456830748E+02 -0.30023621077E+02  0.12884565270E+03  0.12000000000E+03 0.  0.
<mgrwt>
<rscale>  0 0.27388078E+03</rscale>
<asrwt>0</asrwt>
<pdfrwt beam="1">  1        2 0.25486873E-01 0.27388078E+03</pdfrwt>
<pdfrwt beam="2">  1       -2 0.17414854E-01 0.27388078E+03</pdfrwt>
<totfact> 0.55642506E+03</totfact>
</mgrwt>
</event>
<event>
 5    1  0.1108889E+001  0.2746379E+03  0.7818608E-02  0.1098654E+00
          2   -1    0    0  501    0  0.00000000000E+00  0.00000000000E+00  0.89561762151E+03  0.89561762151E+03  0.00000000000E+00 0. -1.
         -2   -1    0    0    0  501 -0.00000000000E+00 -0.00000000000E+00 -0.21054175385E+02  0.21054175385E+02  0.00000000000E+00 0. -1.
         35    2    1    2    0    0  0.00000000000E+00  0.00000000000E+00  0.87456344612E+03  0.91667179689E+03  0.27463787416E+03 0.  0.
         25    1    3    3    0    0 -0.37356044305E+02 -0.53669873545E+02  0.39243140298E+03  0.41554582830E+03  0.12000000000E+03 0.  0.
         25    1    3    3    0    0  0.37356044305E+02  0.53669873545E+02  0.48213204315E+03  0.50112596859E+03  0.12000000000E+03 0.  0.
<mgrwt>
<rscale>  0 0.27463787E+03</rscale>
<asrwt>0</asrwt>
<pdfrwt beam="1">  1        2 0.13778730E+00 0.27463787E+03</pdfrwt>
<pdfrwt beam="2">  1       -2 0.32391046E-02 0.27463787E+03</pdfrwt>
<totfact> 0.11512941E+04</totfact>
</mgrwt>
</event>
<event>
 5    1  0.1108889E+001  0.2756702E+03  0.7818608E-02  0.1098078E+00
         -1   -1    0    0    0  501 -0.00000000000E+00  0.00000000000E+00  0.22333645061E+03  0.22333645061E+03  0.00000000000E+00 0. -1.
          1   -1    0    0  501    0  0.00000000000E+00 -0.00000000000E+00 -0.85066796748E+02  0.85066796748E+02  0.00000000000E+00 0. -1.
         35    2    1    2    0    0  0.00000000000E+00  0.00000000000E+00  0.13826965386E+03  0.30840324736E+03  0.27567021203E+03 0.  0.
         25    1    3    3    0    0  0.48667980361E+02  0.23232086644E+02  0.23140953435E+02  0.13358070927E+03  0.12000000000E+03 0.  0.
         25    1    3    3    0    0 -0.48667980361E+02 -0.23232086644E+02  0.11512870043E+03  0.17482253809E+03  0.12000000000E+03 0.  0.
<mgrwt>
<rscale>  0 0.27567021E+03</rscale>
<asrwt>0</asrwt>
<pdfrwt beam="1">  1        1 0.13087200E-01 0.27567021E+03</pdfrwt>
<pdfrwt beam="2">  1       -1 0.34359454E-01 0.27567021E+03</pdfrwt>
<totfact> 0.35910772E+03</totfact>
</mgrwt>
</event>
<event>
 5    1  0.1108889E+001  0.2742039E+03  0.7818608E-02  0.1098897E+00
         -1   -1    0    0    0  501 -0.00000000000E+00  0.00000000000E+00  0.70710967944E+02  0.70710967944E+02  0.00000000000E+00 0. -1.
          1   -1    0    0  501    0  0.00000000000E+00 -0.00000000000E+00 -0.26582792374E+03  0.26582792374E+03  0.00000000000E+00 0. -1.
         35    2    1    2    0    0  0.00000000000E+00  0.00000000000E+00 -0.19511695580E+03  0.33653889169E+03  0.27420393720E+03 0.  0.
         25    1    3    3    0    0  0.62880420484E+02 -0.19611243566E+02 -0.88179098688E+02  0.16283151292E+03  0.12000000000E+03 0.  0.
         25    1    3    3    0    0 -0.62880420484E+02  0.19611243566E+02 -0.10693785711E+03  0.17370737877E+03  0.12000000000E+03 0.  0.
<mgrwt>
<rscale>  0 0.27420394E+03</rscale>
<asrwt>0</asrwt>
<pdfrwt beam="1">  1        1 0.40896603E-01 0.27420394E+03</pdfrwt>
<pdfrwt beam="2">  1       -1 0.10878611E-01 0.27420394E+03</pdfrwt>
<totfact> 0.54217391E+03</totfact>
</mgrwt>
</event>
<event>
 5    1  0.1108889E+001  0.2766903E+03  0.7818608E-02  0.1097510E+00
          2   -1    0    0  501    0  0.00000000000E+00  0.00000000000E+00  0.15513942841E+03  0.15513942841E+03  0.00000000000E+00 0.  1.
         -2   -1    0    0    0  501 -0.00000000000E+00 -0.00000000000E+00 -0.12336890137E+03  0.12336890137E+03  0.00000000000E+00 0.  1.
         35    2    1    2    0    0  0.00000000000E+00  0.00000000000E+00  0.31770527042E+02  0.27850832979E+03  0.27669030227E+03 0.  0.
         25    1    3    3    0    0  0.12183270084E+02 -0.59055908801E+02 -0.17549679504E+02  0.13544011106E+03  0.12000000000E+03 0.  0.
         25    1    3    3    0    0 -0.12183270084E+02  0.59055908801E+02  0.49320206546E+02  0.14306821872E+03  0.12000000000E+03 0.  0.
<mgrwt>
<rscale>  0 0.27669030E+03</rscale>
<asrwt>0</asrwt>
<pdfrwt beam="1">  1        2 0.23867604E-01 0.27669030E+03</pdfrwt>
<pdfrwt beam="2">  1       -2 0.18979831E-01 0.27669030E+03</pdfrwt>
<totfact> 0.51800191E+03</totfact>
</mgrwt>
</event>
<event>
 5    1  0.1108889E+001  0.2745484E+03  0.7818608E-02  0.1098704E+00
         -2   -1    0    0    0  501 -0.00000000000E+00  0.00000000000E+00  0.57348980496E+03  0.57348980496E+03  0.00000000000E+00 0. -1.
          2   -1    0    0  501    0  0.00000000000E+00 -0.00000000000E+00 -0.32858823219E+02  0.32858823219E+02  0.00000000000E+00 0. -1.
         35    2    1    2    0    0  0.00000000000E+00  0.00000000000E+00  0.54063098174E+03  0.60634862818E+03  0.27454835726E+03 0.  0.
         25    1    3    3    0    0 -0.54657758667E+02 -0.21725118050E+02  0.20101021827E+03  0.24138052777E+03  0.12000000000E+03 0.  0.
         25    1    3    3    0    0  0.54657758667E+02  0.21725118050E+02  0.33962076347E+03  0.36496810041E+03  0.12000000000E+03 0.  0.
<mgrwt>
<rscale>  0 0.27454836E+03</rscale>
<asrwt>0</asrwt>
<pdfrwt beam="1">  1        2 0.50552040E-02 0.27454836E+03</pdfrwt>
<pdfrwt beam="2">  1       -2 0.88229193E-01 0.27454836E+03</pdfrwt>
<totfact> 0.17693010E+03</totfact>
</mgrwt>
</event>
<event>
 5    1  0.1108889E+001  0.2723808E+03  0.7818608E-02  0.1099925E+00
         -2   -1    0    0    0  501 -0.00000000000E+00  0.00000000000E+00  0.11455421753E+02  0.11455421753E+02  0.00000000000E+00 0.  1.
          2   -1    0    0  501    0  0.00000000000E+00 -0.00000000000E+00 -0.16191304370E+04  0.16191304370E+04  0.00000000000E+00 0.  1.
         35    2    1    2    0    0  0.00000000000E+00  0.00000000000E+00 -0.16076750153E+04  0.16305858588E+04  0.27238077781E+03 0.  0.
         25    1    3    3    0    0  0.43674281686E+02 -0.47281549051E+02 -0.81699983220E+03  0.82827031432E+03  0.12000000000E+03 0.  0.
         25    1    3    3    0    0 -0.43674281686E+02  0.47281549051E+02 -0.79067518308E+03  0.80231554447E+03  0.12000000000E+03 0.  0.
<mgrwt>
<rscale>  0 0.27238078E+03</rscale>
<asrwt>0</asrwt>
<pdfrwt beam="1">  1        2 0.24909693E+00 0.27238078E+03</pdfrwt>
<pdfrwt beam="2">  1       -2 0.17623730E-02 0.27238078E+03</pdfrwt>
<totfact> 0.10975761E+04</totfact>
</mgrwt>
</event>
<event>
 5    1  0.1108889E+001  0.2763939E+03  0.7818608E-02  0.1097675E+00
          3   -1    0    0  501    0  0.00000000000E+00  0.00000000000E+00  0.94943819527E+03  0.94943819527E+03  0.00000000000E+00 0.  1.
         -3   -1    0    0    0  501 -0.00000000000E+00 -0.00000000000E+00 -0.20115467063E+02  0.20115467063E+02  0.00000000000E+00 0.  1.
         35    2    1    2    0    0  0.00000000000E+00  0.00000000000E+00  0.92932272821E+03  0.96955366233E+03  0.27639386929E+03 0.  0.
         25    1    3    3    0    0  0.38188716099E+02  0.45556744987E+02  0.58437163360E+03  0.59951980885E+03  0.12000000000E+03 0.  0.
         25    1    3    3    0    0 -0.38188716099E+02 -0.45556744987E+02  0.34495109461E+03  0.37003385348E+03  0.12000000000E+03 0.  0.
<mgrwt>
<rscale>  0 0.27639387E+03</rscale>
<asrwt>0</asrwt>
<pdfrwt beam="1">  1        3 0.14606738E+00 0.27639387E+03</pdfrwt>
<pdfrwt beam="2">  1       -3 0.30946880E-02 0.27639387E+03</pdfrwt>
<totfact> 0.45185342E+02</totfact>
</mgrwt>
</event>
<event>
 4    1  0.1108889E+001  0.2508198E+03  0.7818608E-02  0.1112788E+00
         -1   -1    0    0    0  501 -0.00000000000E+00  0.00000000000E+00  0.16980756523E+04  0.16980756523E+04  0.00000000000E+00 0.  1.
          1   -1    0    0  501    0  0.00000000000E+00 -0.00000000000E+00 -0.92620415617E+01  0.92620415617E+01  0.00000000000E+00 0.  1.
         25    1    1    2    0    0  0.96052748492E+01  0.22396553849E+02  0.10287981739E+04  0.10360596265E+04  0.12000000000E+03 0.  0.
         25    1    1    2    0    0 -0.96052748492E+01 -0.22396553849E+02  0.66001543679E+03  0.67127806737E+03  0.12000000000E+03 0.  0.
<mgrwt>
<rscale>  0 0.25081983E+03</rscale>
<asrwt>0</asrwt>
<pdfrwt beam="1">  1        1 0.14249308E-02 0.25081983E+03</pdfrwt>
<pdfrwt beam="2">  1       -1 0.26124216E+00 0.25081983E+03</pdfrwt>
<totfact> 0.65971357E+02</totfact>
</mgrwt>
</event>
<event>
 5    1  0.1108889E+001  0.2756114E+03  0.7818608E-02  0.1098110E+00
         -1   -1    0    0    0  501 -0.00000000000E+00  0.00000000000E+00  0.49056363895E+01  0.49056363895E+01  0.00000000000E+00 0.  1.
          1   -1    0    0  501    0  0.00000000000E+00 -0.00000000000E+00 -0.38711406318E+04  0.38711406318E+04  0.00000000000E+00 0.  1.
         35    2    1    2    0    0  0.00000000000E+00  0.00000000000E+00 -0.38662349954E+04  0.38760462682E+04  0.27561138113E+03 0.  0.
         25    1    3    3    0    0  0.27226118638E+02 -0.35836686859E+02 -0.12208793681E+04  0.12275878629E+04  0.12000000000E+03 0.  0.
         25    1    3    3    0    0 -0.27226118638E+02  0.35836686859E+02 -0.26453556273E+04  0.26484584053E+04  0.12000000000E+03 0.  0.
<mgrwt>
<rscale>  0 0.27561138E+03</rscale>
<asrwt>0</asrwt>
<pdfrwt beam="1">  1        1 0.59555887E+00 0.27561138E+03</pdfrwt>
<pdfrwt beam="2">  1       -1 0.75471484E-03 0.27561138E+03</pdfrwt>
<totfact> 0.45317665E+02</totfact>
</mgrwt>
</event>
<event>
 5    1  0.1108889E+001  0.2771090E+03  0.7818608E-02  0.1097278E+00
          1   -1    0    0  501    0  0.00000000000E+00  0.00000000000E+00  0.13247724122E+04  0.13247724122E+04  0.00000000000E+00 0. -1.
         -1   -1    0    0    0  501 -0.00000000000E+00 -0.00000000000E+00 -0.14491058674E+02  0.14491058674E+02  0.00000000000E+00 0. -1.
         35    2    1    2    0    0  0.00000000000E+00  0.00000000000E+00  0.13102813535E+04  0.13392634709E+04  0.27710903814E+03 0.  0.
         25    1    3    3    0    0 -0.37050040257E+01 -0.49914979163E+02  0.88652516974E+03  0.89600898923E+03  0.12000000000E+03 0.  0.
         25    1    3    3    0    0  0.37050040257E+01  0.49914979163E+02  0.42375618377E+03  0.44325448163E+03  0.12000000000E+03 0.  0.
<mgrwt>
<rscale>  0 0.27710904E+03</rscale>
<asrwt>0</asrwt>
<pdfrwt beam="1">  1        1 0.20381104E+00 0.27710904E+03</pdfrwt>
<pdfrwt beam="2">  1       -1 0.22293947E-02 0.27710904E+03</pdfrwt>
<totfact> 0.54880631E+03</totfact>
</mgrwt>
</event>
<event>
 5    1  0.1108889E+001  0.2751015E+03  0.7818608E-02  0.1098395E+00
          3   -1    0    0  501    0  0.00000000000E+00  0.00000000000E+00  0.41828093145E+03  0.41828093145E+03  0.00000000000E+00 0.  1.
         -3   -1    0    0    0  501 -0.00000000000E+00 -0.00000000000E+00 -0.45233264055E+02  0.45233264055E+02  0.00000000000E+00 0.  1.
         35    2    1    2    0    0  0.00000000000E+00  0.00000000000E+00  0.37304766740E+03  0.46351419551E+03  0.27510152178E+03 0.  0.
         25    1    3    3    0    0  0.23194736551E+02  0.52512326029E+02  0.24548687492E+03  0.27921200896E+03  0.12000000000E+03 0.  0.
         25    1    3    3    0    0 -0.23194736551E+02 -0.52512326029E+02  0.12756079247E+03  0.18430218654E+03  0.12000000000E+03 0.  0.
<mgrwt>
<rscale>  0 0.27510152E+03</rscale>
<asrwt>0</asrwt>
<pdfrwt beam="1">  1        3 0.64350910E-01 0.27510152E+03</pdfrwt>
<pdfrwt beam="2">  1       -3 0.69589640E-02 0.27510152E+03</pdfrwt>
<totfact> 0.81007294E+02</totfact>
</mgrwt>
</event>
<event>
 5    1  0.1108889E+001  0.2724796E+03  0.7818608E-02  0.1099869E+00
          2   -1    0    0  501    0  0.00000000000E+00  0.00000000000E+00  0.41415214932E+03  0.41415214932E+03  0.00000000000E+00 0. -1.
         -2   -1    0    0    0  501 -0.00000000000E+00 -0.00000000000E+00 -0.44817542470E+02  0.44817542470E+02  0.00000000000E+00 0. -1.
         35    2    1    2    0    0  0.00000000000E+00  0.00000000000E+00  0.36933460685E+03  0.45896969179E+03  0.27247958853E+03 0.  0.
         25    1    3    3    0    0  0.36904371146E+02  0.27620520243E+02  0.10865436412E+03  0.16831695277E+03  0.12000000000E+03 0.  0.
         25    1    3    3    0    0 -0.36904371146E+02 -0.27620520243E+02  0.26068024273E+03  0.29065273902E+03  0.12000000000E+03 0.  0.
<mgrwt>
<rscale>  0 0.27247959E+03</rscale>
<asrwt>0</asrwt>
<pdfrwt beam="1">  1        2 0.63715713E-01 0.27247959E+03</pdfrwt>
<pdfrwt beam="2">  1       -2 0.68950068E-02 0.27247959E+03</pdfrwt>
<totfact> 0.91017131E+03</totfact>
</mgrwt>
</event>
<event>
 5    1  0.1108889E+001  0.2746707E+03  0.7818608E-02  0.1098636E+00
          1   -1    0    0  501    0  0.00000000000E+00  0.00000000000E+00  0.49950883016E+03  0.49950883016E+03  0.00000000000E+00 0.  1.
         -1   -1    0    0    0  501 -0.00000000000E+00 -0.00000000000E+00 -0.37759097548E+02  0.37759097548E+02  0.00000000000E+00 0.  1.
         35    2    1    2    0    0  0.00000000000E+00  0.00000000000E+00  0.46174973262E+03  0.53726792771E+03  0.27467073120E+03 0.  0.
         25    1    3    3    0    0 -0.17841887909E+02  0.19527660322E+02  0.11091117018E+03  0.16553232359E+03  0.12000000000E+03 0.  0.
         25    1    3    3    0    0  0.17841887909E+02 -0.19527660322E+02  0.35083856243E+03  0.37173560412E+03  0.12000000000E+03 0.  0.
<mgrwt>
<rscale>  0 0.27467073E+03</rscale>
<asrwt>0</asrwt>
<pdfrwt beam="1">  1        1 0.76847508E-01 0.27467073E+03</pdfrwt>
<pdfrwt beam="2">  1       -1 0.58090923E-02 0.27467073E+03</pdfrwt>
<totfact> 0.63143736E+03</totfact>
</mgrwt>
</event>
<event>
 5    1  0.1108889E+001  0.2750559E+03  0.7818608E-02  0.1098420E+00
          1   -1    0    0  501    0  0.00000000000E+00  0.00000000000E+00  0.64960079022E+03  0.64960079022E+03  0.00000000000E+00 0.  1.
         -1   -1    0    0    0  501 -0.00000000000E+00 -0.00000000000E+00 -0.29116243851E+02  0.29116243851E+02  0.00000000000E+00 0.  1.
         35    2    1    2    0    0  0.00000000000E+00  0.00000000000E+00  0.62048454637E+03  0.67871703407E+03  0.27505588533E+03 0.  0.
         25    1    3    3    0    0 -0.35947889430E+02 -0.23096598756E+02  0.18230380969E+03  0.22239690343E+03  0.12000000000E+03 0.  0.
         25    1    3    3    0    0  0.35947889430E+02  0.23096598756E+02  0.43818073668E+03  0.45632013064E+03  0.12000000000E+03 0.  0.
<mgrwt>
<rscale>  0 0.27505589E+03</rscale>
<asrwt>0</asrwt>
<pdfrwt beam="1">  1        1 0.99938573E-01 0.27505589E+03</pdfrwt>
<pdfrwt beam="2">  1       -1 0.44794226E-02 0.27505589E+03</pdfrwt>
<totfact> 0.65030675E+03</totfact>
</mgrwt>
</event>
<event>
 5    1  0.1108889E+001  0.2746676E+03  0.7818608E-02  0.1098638E+00
         -1   -1    0    0    0  501 -0.00000000000E+00  0.00000000000E+00  0.15911594474E+03  0.15911594474E+03  0.00000000000E+00 0.  1.
          1   -1    0    0  501    0  0.00000000000E+00 -0.00000000000E+00 -0.11853355295E+03  0.11853355295E+03  0.00000000000E+00 0.  1.
         35    2    1    2    0    0  0.00000000000E+00  0.00000000000E+00  0.40582391794E+02  0.27764949769E+03  0.27466764106E+03 0.  0.
         25    1    3    3    0    0  0.13039814588E+02  0.21461288272E+01  0.86468979276E+02  0.14849756567E+03  0.12000000000E+03 0.  0.
         25    1    3    3    0    0 -0.13039814588E+02 -0.21461288272E+01 -0.45886587482E+02  0.12915193202E+03  0.12000000000E+03 0.  0.
<mgrwt>
<rscale>  0 0.27466764E+03</rscale>
<asrwt>0</asrwt>
<pdfrwt beam="1">  1        1 0.18235931E-01 0.27466764E+03</pdfrwt>
<pdfrwt beam="2">  1       -1 0.24479376E-01 0.27466764E+03</pdfrwt>
<totfact> 0.41302776E+03</totfact>
</mgrwt>
</event>
<event>
 4    1  0.1108889E+001  0.3018544E+03  0.7818608E-02  0.1084317E+00
         -2   -1    0    0    0  501 -0.00000000000E+00  0.00000000000E+00  0.84637752862E+02  0.84637752862E+02  0.00000000000E+00 0.  1.
          2   -1    0    0  501    0  0.00000000000E+00 -0.00000000000E+00 -0.26913540619E+03  0.26913540619E+03  0.00000000000E+00 0.  1.
         25    1    1    2    0    0  0.64223545445E+02 -0.25481612062E+02 -0.21879656881E+02  0.14018807270E+03  0.12000000000E+03 0.  0.
         25    1    1    2    0    0 -0.64223545445E+02  0.25481612062E+02 -0.16261799645E+03  0.21358508635E+03  0.12000000000E+03 0.  0.
<mgrwt>
<rscale>  0 0.30185438E+03</rscale>
<asrwt>0</asrwt>
<pdfrwt beam="1">  1        2 0.41405447E-01 0.30185438E+03</pdfrwt>
<pdfrwt beam="2">  1       -2 0.13021193E-01 0.30185438E+03</pdfrwt>
<totfact> 0.53104157E+03</totfact>
</mgrwt>
</event>
<event>
 5    1  0.1108889E+001  0.2747588E+03  0.7818608E-02  0.1098586E+00
         -2   -1    0    0    0  501 -0.00000000000E+00  0.00000000000E+00  0.47586334039E+02  0.47586334039E+02  0.00000000000E+00 0. -1.
          2   -1    0    0  501    0  0.00000000000E+00 -0.00000000000E+00 -0.39660755208E+03  0.39660755208E+03  0.00000000000E+00 0. -1.
         35    2    1    2    0    0  0.00000000000E+00  0.00000000000E+00 -0.34902121804E+03  0.44419388612E+03  0.27475879935E+03 0.  0.
         25    1    3    3    0    0 -0.60103907114E+02  0.14417808592E+02 -0.13320649831E+03  0.18964262192E+03  0.12000000000E+03 0.  0.
         25    1    3    3    0    0  0.60103907114E+02 -0.14417808592E+02 -0.21581471973E+03  0.25455126420E+03  0.12000000000E+03 0.  0.
<mgrwt>
<rscale>  0 0.27475880E+03</rscale>
<asrwt>0</asrwt>
<pdfrwt beam="1">  1        2 0.61016545E-01 0.27475880E+03</pdfrwt>
<pdfrwt beam="2">  1       -2 0.73209747E-02 0.27475880E+03</pdfrwt>
<totfact> 0.86970164E+03</totfact>
</mgrwt>
</event>
<event>
 5    1  0.1108889E+001  0.2752540E+03  0.7818608E-02  0.1098310E+00
          2   -1    0    0  501    0  0.00000000000E+00  0.00000000000E+00  0.53207259178E+04  0.53207259178E+04  0.00000000000E+00 0. -1.
         -2   -1    0    0    0  501 -0.00000000000E+00 -0.00000000000E+00 -0.35598872548E+01  0.35598872548E+01  0.00000000000E+00 0. -1.
         35    2    1    2    0    0  0.00000000000E+00  0.00000000000E+00  0.53171660305E+04  0.53242858051E+04  0.27525395097E+03 0.  0.
         25    1    3    3    0    0  0.40323717986E+02 -0.46829199466E+02  0.21387557987E+04  0.21430108125E+04  0.12000000000E+03 0.  0.
         25    1    3    3    0    0 -0.40323717986E+02  0.46829199466E+02  0.31784102319E+04  0.31812749925E+04  0.12000000000E+03 0.  0.
<mgrwt>
<rscale>  0 0.27525395E+03</rscale>
<asrwt>0</asrwt>
<pdfrwt beam="1">  1        2 0.81856685E+00 0.27525395E+03</pdfrwt>
<pdfrwt beam="2">  1       -2 0.54767922E-03 0.27525395E+03</pdfrwt>
<totfact> 0.95959995E+01</totfact>
</mgrwt>
</event>
<event>
 5    1  0.1108889E+001  0.2748816E+03  0.7818608E-02  0.1098518E+00
         -1   -1    0    0    0  501 -0.00000000000E+00  0.00000000000E+00  0.25550128117E+02  0.25550128117E+02  0.00000000000E+00 0.  1.
          1   -1    0    0  501    0  0.00000000000E+00 -0.00000000000E+00 -0.73933002116E+03  0.73933002116E+03  0.00000000000E+00 0.  1.
         35    2    1    2    0    0  0.00000000000E+00  0.00000000000E+00 -0.71377989304E+03  0.76488014928E+03  0.27488162370E+03 0.  0.
         25    1    3    3    0    0  0.42070186940E+02  0.20517569444E+02 -0.49031184943E+03  0.50694830207E+03  0.12000000000E+03 0.  0.
         25    1    3    3    0    0 -0.42070186940E+02 -0.20517569444E+02 -0.22346804362E+03  0.25793184721E+03  0.12000000000E+03 0.  0.
<mgrwt>
<rscale>  0 0.27488162E+03</rscale>
<asrwt>0</asrwt>
<pdfrwt beam="1">  1        1 0.11374308E+00 0.27488162E+03</pdfrwt>
<pdfrwt beam="2">  1       -1 0.39307890E-02 0.27488162E+03</pdfrwt>
<totfact> 0.65443002E+03</totfact>
</mgrwt>
</event>
<event>
 5    1  0.1108889E+001  0.2751771E+03  0.7818608E-02  0.1098353E+00
          2   -1    0    0  501    0  0.00000000000E+00  0.00000000000E+00  0.21132035261E+04  0.21132035261E+04  0.00000000000E+00 0.  1.
         -2   -1    0    0    0  501 -0.00000000000E+00 -0.00000000000E+00 -0.89582543511E+01  0.89582543511E+01  0.00000000000E+00 0.  1.
         35    2    1    2    0    0  0.00000000000E+00  0.00000000000E+00  0.21042452718E+04  0.21221617805E+04  0.27517714064E+03 0.  0.
         25    1    3    3    0    0  0.44828295692E+01 -0.65462533853E+02  0.93639774410E+03  0.94633301446E+03  0.12000000000E+03 0.  0.
         25    1    3    3    0    0 -0.44828295692E+01  0.65462533853E+02  0.11678475277E+04  0.11758287660E+04  0.12000000000E+03 0.  0.
<mgrwt>
<rscale>  0 0.27517714E+03</rscale>
<asrwt>0</asrwt>
<pdfrwt beam="1">  1        2 0.32510784E+00 0.27517714E+03</pdfrwt>
<pdfrwt beam="2">  1       -2 0.13781947E-02 0.27517714E+03</pdfrwt>
<totfact> 0.86466645E+03</totfact>
</mgrwt>
</event>
<event>
 5    1  0.1108889E+001  0.2720364E+03  0.7818608E-02  0.1100120E+00
         -1   -1    0    0    0  501 -0.00000000000E+00  0.00000000000E+00  0.83703353580E+02  0.83703353580E+02  0.00000000000E+00 0. -1.
          1   -1    0    0  501    0  0.00000000000E+00 -0.00000000000E+00 -0.22102997943E+03  0.22102997943E+03  0.00000000000E+00 0. -1.
         35    2    1    2    0    0  0.00000000000E+00  0.00000000000E+00 -0.13732662585E+03  0.30473333301E+03  0.27203639845E+03 0.  0.
         25    1    3    3    0    0  0.39893156160E+02  0.55702720864E+01 -0.12443114818E+03  0.17749817598E+03  0.12000000000E+03 0.  0.
         25    1    3    3    0    0 -0.39893156160E+02 -0.55702720864E+01 -0.12895477670E+02  0.12723515703E+03  0.12000000000E+03 0.  0.
<mgrwt>
<rscale>  0 0.27203640E+03</rscale>
<asrwt>0</asrwt>
<pdfrwt beam="1">  1        1 0.34004612E-01 0.27203640E+03</pdfrwt>
<pdfrwt beam="2">  1       -1 0.12877439E-01 0.27203640E+03</pdfrwt>
<totfact> 0.52520483E+03</totfact>
</mgrwt>
</event>
<event>
 5    1  0.1108889E+001  0.2748550E+03  0.7818608E-02  0.1098533E+00
          1   -1    0    0  501    0  0.00000000000E+00  0.00000000000E+00  0.44613158183E+03  0.44613158183E+03  0.00000000000E+00 0. -1.
         -1   -1    0    0    0  501 -0.00000000000E+00 -0.00000000000E+00 -0.42333522294E+02  0.42333522294E+02  0.00000000000E+00 0. -1.
         35    2    1    2    0    0  0.00000000000E+00  0.00000000000E+00  0.40379805953E+03  0.48846510412E+03  0.27485502553E+03 0.  0.
         25    1    3    3    0    0 -0.34734798542E+01 -0.51186299320E+02  0.27842526888E+03  0.30749428068E+03  0.12000000000E+03 0.  0.
         25    1    3    3    0    0  0.34734798542E+01  0.51186299320E+02  0.12537279066E+03  0.18097082344E+03  0.12000000000E+03 0.  0.
<mgrwt>
<rscale>  0 0.27485503E+03</rscale>
<asrwt>0</asrwt>
<pdfrwt beam="1">  1        1 0.68635625E-01 0.27485503E+03</pdfrwt>
<pdfrwt beam="2">  1       -1 0.65128499E-02 0.27485503E+03</pdfrwt>
<totfact> 0.61641124E+03</totfact>
</mgrwt>
</event>
<event>
 5    1  0.1108889E+001  0.2750766E+03  0.7818608E-02  0.1098409E+00
          2   -1    0    0  501    0  0.00000000000E+00  0.00000000000E+00  0.65699485210E+03  0.65699485210E+03  0.00000000000E+00 0.  1.
         -2   -1    0    0    0  501 -0.00000000000E+00 -0.00000000000E+00 -0.28792891035E+02  0.28792891035E+02  0.00000000000E+00 0.  1.
         35    2    1    2    0    0  0.00000000000E+00  0.00000000000E+00  0.62820196106E+03  0.68578774313E+03  0.27507657979E+03 0.  0.
         25    1    3    3    0    0 -0.42037677563E+02  0.34313780402E+02  0.21524859742E+03  0.25234214977E+03  0.12000000000E+03 0.  0.
         25    1    3    3    0    0  0.42037677563E+02 -0.34313780402E+02  0.41295336365E+03  0.43344559336E+03  0.12000000000E+03 0.  0.
<mgrwt>
<rscale>  0 0.27507658E+03</rscale>
<asrwt>0</asrwt>
<pdfrwt beam="1">  1        2 0.10107612E+00 0.27507658E+03</pdfrwt>
<pdfrwt beam="2">  1       -2 0.44296761E-02 0.27507658E+03</pdfrwt>
<totfact> 0.10620594E+04</totfact>
</mgrwt>
</event>
<event>
 5    1  0.1108889E+001  0.2755677E+03  0.7818608E-02  0.1098135E+00
          2   -1    0    0  501    0  0.00000000000E+00  0.00000000000E+00  0.41613440832E+03  0.41613440832E+03  0.00000000000E+00 0.  1.
         -2   -1    0    0    0  501 -0.00000000000E+00 -0.00000000000E+00 -0.45620821871E+02  0.45620821871E+02  0.00000000000E+00 0.  1.
         35    2    1    2    0    0  0.00000000000E+00  0.00000000000E+00  0.37051358645E+03  0.46175523019E+03  0.27556773190E+03 0.  0.
         25    1    3    3    0    0  0.35406911053E+02  0.60870904639E+01  0.89090044358E+02  0.15371316803E+03  0.12000000000E+03 0.  0.
         25    1    3    3    0    0 -0.35406911053E+02 -0.60870904639E+01  0.28142354209E+03  0.30804206217E+03  0.12000000000E+03 0.  0.
<mgrwt>
<rscale>  0 0.27556773E+03</rscale>
<asrwt>0</asrwt>
<pdfrwt beam="1">  1        2 0.64020676E-01 0.27556773E+03</pdfrwt>
<pdfrwt beam="2">  1       -2 0.70185882E-02 0.27556773E+03</pdfrwt>
<totfact> 0.88127224E+03</totfact>
</mgrwt>
</event>
<event>
 5    1  0.1108889E+001  0.2730100E+03  0.7818608E-02  0.1099569E+00
         -2   -1    0    0    0  501 -0.00000000000E+00  0.00000000000E+00  0.59520765877E+02  0.59520765877E+02  0.00000000000E+00 0. -1.
          2   -1    0    0  501    0  0.00000000000E+00 -0.00000000000E+00 -0.31306079840E+03  0.31306079840E+03  0.00000000000E+00 0. -1.
         35    2    1    2    0    0  0.00000000000E+00  0.00000000000E+00 -0.25354003252E+03  0.37258156427E+03  0.27301002536E+03 0.  0.
         25    1    3    3    0    0  0.20347651845E+01 -0.63321544524E+02 -0.10653441598E+03  0.17252054967E+03  0.12000000000E+03 0.  0.
         25    1    3    3    0    0 -0.20347651845E+01  0.63321544524E+02 -0.14700561654E+03  0.20006101460E+03  0.12000000000E+03 0.  0.
<mgrwt>
<rscale>  0 0.27301003E+03</rscale>
<asrwt>0</asrwt>
<pdfrwt beam="1">  1        2 0.48163200E-01 0.27301003E+03</pdfrwt>
<pdfrwt beam="2">  1       -2 0.91570408E-02 0.27301003E+03</pdfrwt>
<totfact> 0.79086763E+03</totfact>
</mgrwt>
</event>
<event>
 5    1  0.1108889E+001  0.2753926E+03  0.7818608E-02  0.1098232E+00
          2   -1    0    0  501    0  0.00000000000E+00  0.00000000000E+00  0.97238894718E+02  0.97238894718E+02  0.00000000000E+00 0. -1.
         -2   -1    0    0    0  501 -0.00000000000E+00 -0.00000000000E+00 -0.19498652717E+03  0.19498652717E+03  0.00000000000E+00 0. -1.
         35    2    1    2    0    0  0.00000000000E+00  0.00000000000E+00 -0.97747632455E+02  0.29222542189E+03  0.27539262435E+03 0.  0.
         25    1    3    3    0    0 -0.21993707711E+02 -0.45810207772E+02 -0.96066666338E+02  0.16189843327E+03  0.12000000000E+03 0.  0.
         25    1    3    3    0    0  0.21993707711E+02  0.45810207772E+02 -0.16809661165E+01  0.13032698862E+03  0.12000000000E+03 0.  0.
<mgrwt>
<rscale>  0 0.27539262E+03</rscale>
<asrwt>0</asrwt>
<pdfrwt beam="1">  1        2 0.14959830E-01 0.27539262E+03</pdfrwt>
<pdfrwt beam="2">  1       -2 0.29997927E-01 0.27539262E+03</pdfrwt>
<totfact> 0.39767673E+03</totfact>
</mgrwt>
</event>
<event>
 5    1  0.1108889E+001  0.2745572E+03  0.7818608E-02  0.1098699E+00
         -1   -1    0    0    0  501 -0.00000000000E+00  0.00000000000E+00  0.10714305402E+02  0.10714305402E+02  0.00000000000E+00 0.  1.
          1   -1    0    0  501    0  0.00000000000E+00 -0.00000000000E+00 -0.17589020717E+04  0.17589020717E+04  0.00000000000E+00 0.  1.
         35    2    1    2    0    0  0.00000000000E+00  0.00000000000E+00 -0.17481877663E+04  0.17696163771E+04  0.27455719963E+03 0.  0.
         25    1    3    3    0    0 -0.22443196661E+01 -0.48506983971E+02 -0.11685728505E+04  0.11757212558E+04  0.12000000000E+03 0.  0.
         25    1    3    3    0    0  0.22443196661E+01  0.48506983971E+02 -0.57961491582E+03  0.59389512130E+03  0.12000000000E+03 0.  0.
<mgrwt>
<rscale>  0 0.27455720E+03</rscale>
<asrwt>0</asrwt>
<pdfrwt beam="1">  1        1 0.27060010E+00 0.27455720E+03</pdfrwt>
<pdfrwt beam="2">  1       -1 0.16483560E-02 0.27455720E+03</pdfrwt>
<totfact> 0.44020039E+03</totfact>
</mgrwt>
</event>
<event>
 5    1  0.1108889E+001  0.2752157E+03  0.7818608E-02  0.1098331E+00
          1   -1    0    0  501    0  0.00000000000E+00  0.00000000000E+00  0.12462986758E+03  0.12462986758E+03  0.00000000000E+00 0. -1.
         -1   -1    0    0    0  501 -0.00000000000E+00 -0.00000000000E+00 -0.15193727262E+03  0.15193727262E+03  0.00000000000E+00 0. -1.
         35    2    1    2    0    0  0.00000000000E+00  0.00000000000E+00 -0.27307405040E+02  0.27656714020E+03  0.27521571298E+03 0.  0.
         25    1    3    3    0    0  0.52749437317E+02 -0.41511550163E+02 -0.81303292567E+01  0.13773820889E+03  0.12000000000E+03 0.  0.
         25    1    3    3    0    0 -0.52749437317E+02  0.41511550163E+02 -0.19177075783E+02  0.13882893131E+03  0.12000000000E+03 0.  0.
<mgrwt>
<rscale>  0 0.27521571E+03</rscale>
<asrwt>0</asrwt>
<pdfrwt beam="1">  1        1 0.19173826E-01 0.27521571E+03</pdfrwt>
<pdfrwt beam="2">  1       -1 0.23374965E-01 0.27521571E+03</pdfrwt>
<totfact> 0.41783638E+03</totfact>
</mgrwt>
</event>
<event>
 5    1  0.1108889E+001  0.2749140E+03  0.7818608E-02  0.1098500E+00
          2   -1    0    0  501    0  0.00000000000E+00  0.00000000000E+00  0.98168113124E+03  0.98168113124E+03  0.00000000000E+00 0. -1.
         -2   -1    0    0    0  501 -0.00000000000E+00 -0.00000000000E+00 -0.19247016797E+02  0.19247016797E+02  0.00000000000E+00 0. -1.
         35    2    1    2    0    0  0.00000000000E+00  0.00000000000E+00  0.96243411444E+03  0.10009281480E+04  0.27491404637E+03 0.  0.
         25    1    3    3    0    0  0.57486134725E+01  0.34371934186E+02  0.27270074534E+03  0.29996695306E+03  0.12000000000E+03 0.  0.
         25    1    3    3    0    0 -0.57486134725E+01 -0.34371934186E+02  0.68973336910E+03  0.70096119498E+03  0.12000000000E+03 0.  0.
<mgrwt>
<rscale>  0 0.27491405E+03</rscale>
<asrwt>0</asrwt>
<pdfrwt beam="1">  1        2 0.15102783E+00 0.27491405E+03</pdfrwt>
<pdfrwt beam="2">  1       -2 0.29610803E-02 0.27491405E+03</pdfrwt>
<totfact> 0.11610709E+04</totfact>
</mgrwt>
</event>
<event>
 5    1  0.1108889E+001  0.2801277E+03  0.7818608E-02  0.1095619E+00
         -2   -1    0    0    0  501 -0.00000000000E+00  0.00000000000E+00  0.17338719349E+03  0.17338719349E+03  0.00000000000E+00 0. -1.
          2   -1    0    0  501    0  0.00000000000E+00 -0.00000000000E+00 -0.11314493962E+03  0.11314493962E+03  0.00000000000E+00 0. -1.
         35    2    1    2    0    0  0.00000000000E+00  0.00000000000E+00  0.60242253870E+02  0.28653213312E+03  0.28012771044E+03 0.  0.
         25    1    3    3    0    0  0.41572545154E+02 -0.56927092116E+02  0.46258812003E+02  0.14665895136E+03  0.12000000000E+03 0.  0.
         25    1    3    3    0    0 -0.41572545154E+02  0.56927092116E+02  0.13983441866E+02  0.13987318175E+03  0.12000000000E+03 0.  0.
<mgrwt>
<rscale>  0 0.28012771E+03</rscale>
<asrwt>0</asrwt>
<pdfrwt beam="1">  1        2 0.17406914E-01 0.28012771E+03</pdfrwt>
<pdfrwt beam="2">  1       -2 0.26674953E-01 0.28012771E+03</pdfrwt>
<totfact> 0.41131418E+03</totfact>
</mgrwt>
</event>
<event>
 5    1  0.1108889E+001  0.2719922E+03  0.7818608E-02  0.1100145E+00
          1   -1    0    0  501    0  0.00000000000E+00  0.00000000000E+00  0.15255067307E+04  0.15255067307E+04  0.00000000000E+00 0.  1.
         -1   -1    0    0    0  501 -0.00000000000E+00 -0.00000000000E+00 -0.12123804707E+02  0.12123804707E+02  0.00000000000E+00 0.  1.
         35    2    1    2    0    0  0.00000000000E+00  0.00000000000E+00  0.15133829260E+04  0.15376305354E+04  0.27199224755E+03 0.  0.
         25    1    3    3    0    0  0.40808474208E+02 -0.10341943120E+02  0.10291422917E+04  0.10369696928E+04  0.12000000000E+03 0.  0.
         25    1    3    3    0    0 -0.40808474208E+02  0.10341943120E+02  0.48424063430E+03  0.50066084255E+03  0.12000000000E+03 0.  0.
<mgrwt>
<rscale>  0 0.27199225E+03</rscale>
<asrwt>0</asrwt>
<pdfrwt beam="1">  1        1 0.23469319E+00 0.27199225E+03</pdfrwt>
<pdfrwt beam="2">  1       -1 0.18652019E-02 0.27199225E+03</pdfrwt>
<totfact> 0.52264858E+03</totfact>
</mgrwt>
</event>
<event>
 5    1  0.1108889E+001  0.2749729E+03  0.7818608E-02  0.1098467E+00
          1   -1    0    0  501    0  0.00000000000E+00  0.00000000000E+00  0.46174757406E+03  0.46174757406E+03  0.00000000000E+00 0. -1.
         -1   -1    0    0    0  501 -0.00000000000E+00 -0.00000000000E+00 -0.40936922771E+02  0.40936922771E+02  0.00000000000E+00 0. -1.
         35    2    1    2    0    0  0.00000000000E+00  0.00000000000E+00  0.42081065129E+03  0.50268449683E+03  0.27497290615E+03 0.  0.
         25    1    3    3    0    0 -0.21577359722E+01 -0.66214480095E+02  0.22988248747E+03  0.26764710206E+03  0.12000000000E+03 0.  0.
         25    1    3    3    0    0  0.21577359722E+01  0.66214480095E+02  0.19092816382E+03  0.23503739477E+03  0.12000000000E+03 0.  0.
<mgrwt>
<rscale>  0 0.27497291E+03</rscale>
<asrwt>0</asrwt>
<pdfrwt beam="1">  1        1 0.71038085E-01 0.27497291E+03</pdfrwt>
<pdfrwt beam="2">  1       -1 0.62979884E-02 0.27497291E+03</pdfrwt>
<totfact> 0.62002027E+03</totfact>
</mgrwt>
</event>
<event>
 5    1  0.1108889E+001  0.2745500E+03  0.7818608E-02  0.1098703E+00
         -2   -1    0    0    0  501 -0.00000000000E+00  0.00000000000E+00  0.22866217741E+02  0.22866217741E+02  0.00000000000E+00 0. -1.
          2   -1    0    0  501    0  0.00000000000E+00 -0.00000000000E+00 -0.82411650823E+03  0.82411650823E+03  0.00000000000E+00 0. -1.
         35    2    1    2    0    0  0.00000000000E+00  0.00000000000E+00 -0.80125029048E+03  0.84698272597E+03  0.27455001381E+03 0.  0.
         25    1    3    3    0    0  0.14491431210E+02  0.54726057089E+02 -0.29201418484E+03  0.32074480050E+03  0.12000000000E+03 0.  0.
         25    1    3    3    0    0 -0.14491431210E+02 -0.54726057089E+02 -0.50923610564E+03  0.52623792546E+03  0.12000000000E+03 0.  0.
<mgrwt>
<rscale>  0 0.27455001E+03</rscale>
<asrwt>0</asrwt>
<pdfrwt beam="1">  1        2 0.12678717E+00 0.27455001E+03</pdfrwt>
<pdfrwt beam="2">  1       -2 0.35178791E-02 0.27455001E+03</pdfrwt>
<totfact> 0.11349646E+04</totfact>
</mgrwt>
</event>
<event>
 5    1  0.1108889E+001  0.2743507E+03  0.7818608E-02  0.1098815E+00
         -1   -1    0    0    0  501 -0.00000000000E+00  0.00000000000E+00  0.20512290815E+02  0.20512290815E+02  0.00000000000E+00 0. -1.
          1   -1    0    0  501    0  0.00000000000E+00 -0.00000000000E+00 -0.91735593643E+03  0.91735593643E+03  0.00000000000E+00 0. -1.
         35    2    1    2    0    0  0.00000000000E+00  0.00000000000E+00 -0.89684364561E+03  0.93786822724E+03  0.27435066429E+03 0.  0.
         25    1    3    3    0    0  0.23703262269E+02 -0.60708534693E+02 -0.49295440804E+03  0.51151873791E+03  0.12000000000E+03 0.  0.
         25    1    3    3    0    0 -0.23703262269E+02  0.60708534693E+02 -0.40388923757E+03  0.42634948933E+03  0.12000000000E+03 0.  0.
<mgrwt>
<rscale>  0 0.27435066E+03</rscale>
<asrwt>0</asrwt>
<pdfrwt beam="1">  1        1 0.14113168E+00 0.27435066E+03</pdfrwt>
<pdfrwt beam="2">  1       -1 0.31557371E-02 0.27435066E+03</pdfrwt>
<totfact> 0.64684102E+03</totfact>
</mgrwt>
</event>
<event>
 5    1  0.1108889E+001  0.2745133E+03  0.7818608E-02  0.1098724E+00
          2   -1    0    0  501    0  0.00000000000E+00  0.00000000000E+00  0.60903724496E+02  0.60903724496E+02  0.00000000000E+00 0. -1.
         -2   -1    0    0    0  501 -0.00000000000E+00 -0.00000000000E+00 -0.30933064232E+03  0.30933064232E+03  0.00000000000E+00 0. -1.
         35    2    1    2    0    0  0.00000000000E+00  0.00000000000E+00 -0.24842691782E+03  0.37023436681E+03  0.27451330181E+03 0.  0.
         25    1    3    3    0    0 -0.24674760388E+01  0.10375084850E+02 -0.35510236847E+02  0.12559740342E+03  0.12000000000E+03 0.  0.
         25    1    3    3    0    0  0.24674760388E+01 -0.10375084850E+02 -0.21291668097E+03  0.24463696340E+03  0.12000000000E+03 0.  0.
<mgrwt>
<rscale>  0 0.27451330E+03</rscale>
<asrwt>0</asrwt>
<pdfrwt beam="1">  1        2 0.93698038E-02 0.27451330E+03</pdfrwt>
<pdfrwt beam="2">  1       -2 0.47589329E-01 0.27451330E+03</pdfrwt>
<totfact> 0.29375425E+03</totfact>
</mgrwt>
</event>
<event>
 5    1  0.1108889E+001  0.2720118E+03  0.7818608E-02  0.1100134E+00
         -2   -1    0    0    0  501 -0.00000000000E+00  0.00000000000E+00  0.71594260596E+03  0.71594260596E+03  0.00000000000E+00 0.  1.
          2   -1    0    0  501    0  0.00000000000E+00 -0.00000000000E+00 -0.25836710304E+02  0.25836710304E+02  0.00000000000E+00 0.  1.
         35    2    1    2    0    0  0.00000000000E+00  0.00000000000E+00  0.69010589565E+03  0.74177931626E+03  0.27201177698E+03 0.  0.
         25    1    3    3    0    0 -0.35767506660E+02  0.52377645721E+02  0.36864899141E+03  0.39284196718E+03  0.12000000000E+03 0.  0.
         25    1    3    3    0    0  0.35767506660E+02 -0.52377645721E+02  0.32145690424E+03  0.34893734909E+03  0.12000000000E+03 0.  0.
<mgrwt>
<rscale>  0 0.27201178E+03</rscale>
<asrwt>0</asrwt>
<pdfrwt beam="1">  1        2 0.39748790E-02 0.27201178E+03</pdfrwt>
<pdfrwt beam="2">  1       -2 0.11014500E+00 0.27201178E+03</pdfrwt>
<totfact> 0.14577293E+03</totfact>
</mgrwt>
</event>
<event>
 5    1  0.1108889E+001  0.2750566E+03  0.7818608E-02  0.1098420E+00
         -2   -1    0    0    0  501 -0.00000000000E+00  0.00000000000E+00  0.65375316361E+01  0.65375316361E+01  0.00000000000E+00 0.  1.
          2   -1    0    0  501    0  0.00000000000E+00 -0.00000000000E+00 -0.28931467921E+04  0.28931467921E+04  0.00000000000E+00 0.  1.
         35    2    1    2    0    0  0.00000000000E+00  0.00000000000E+00 -0.28866092604E+04  0.28996843237E+04  0.27505663912E+03 0.  0.
         25    1    3    3    0    0 -0.28198836871E+02  0.41130080370E+02 -0.96865316334E+03  0.97733096173E+03  0.12000000000E+03 0.  0.
         25    1    3    3    0    0  0.28198836871E+02 -0.41130080370E+02 -0.19179560971E+04  0.19223533620E+04  0.12000000000E+03 0.  0.
<mgrwt>
<rscale>  0 0.27505664E+03</rscale>
<asrwt>0</asrwt>
<pdfrwt beam="1">  1        2 0.44510131E+00 0.27505664E+03</pdfrwt>
<pdfrwt beam="2">  1       -2 0.10057700E-02 0.27505664E+03</pdfrwt>
<totfact> 0.50900088E+03</totfact>
</mgrwt>
</event>
<event>
 5    1  0.1108889E+001  0.2740893E+03  0.7818608E-02  0.1098962E+00
         -1   -1    0    0    0  501 -0.00000000000E+00  0.00000000000E+00  0.94612990769E+01  0.94612990769E+01  0.00000000000E+00 0.  1.
          1   -1    0    0  501    0  0.00000000000E+00 -0.00000000000E+00 -0.19850587103E+04  0.19850587103E+04  0.00000000000E+00 0.  1.
         35    2    1    2    0    0  0.00000000000E+00  0.00000000000E+00 -0.19755974112E+04  0.19945200094E+04  0.27408928577E+03 0.  0.
         25    1    3    3    0    0 -0.39037500228E+02  0.30040597044E+02 -0.66605852080E+03  0.67857226368E+03  0.12000000000E+03 0.  0.
         25    1    3    3    0    0  0.39037500228E+02 -0.30040597044E+02 -0.13095388904E+04  0.13159477457E+04  0.12000000000E+03 0.  0.
<mgrwt>
<rscale>  0 0.27408929E+03</rscale>
<asrwt>0</asrwt>
<pdfrwt beam="1">  1        1 0.30539422E+00 0.27408929E+03</pdfrwt>
<pdfrwt beam="2">  1       -1 0.14555817E-02 0.27408929E+03</pdfrwt>
<totfact> 0.37620073E+03</totfact>
</mgrwt>
</event>
<event>
 5    1  0.1108889E+001  0.2757078E+03  0.7818608E-02  0.1098057E+00
         -2   -1    0    0    0  501 -0.00000000000E+00  0.00000000000E+00  0.71929262395E+01  0.71929262395E+01  0.00000000000E+00 0.  1.
          2   -1    0    0  501    0  0.00000000000E+00 -0.00000000000E+00 -0.26419981471E+04  0.26419981471E+04  0.00000000000E+00 0.  1.
         35    2    1    2    0    0  0.00000000000E+00  0.00000000000E+00 -0.26348052208E+04  0.26491910733E+04  0.27570780037E+03 0.  0.
         25    1    3    3    0    0 -0.21268216529E+02 -0.64057889098E+02 -0.12508679879E+04  0.12584222159E+04  0.12000000000E+03 0.  0.
         25    1    3    3    0    0  0.21268216529E+02  0.64057889098E+02 -0.13839372329E+04  0.13907688575E+04  0.12000000000E+03 0.  0.
<mgrwt>
<rscale>  0 0.27570780E+03</rscale>
<asrwt>0</asrwt>
<pdfrwt beam="1">  1        2 0.40646164E+00 0.27570780E+03</pdfrwt>
<pdfrwt beam="2">  1       -2 0.11066030E-02 0.27570780E+03</pdfrwt>
<totfact> 0.61575308E+03</totfact>
</mgrwt>
</event>
<event>
 5    1  0.1108889E+001  0.2753424E+03  0.7818608E-02  0.1098260E+00
         -2   -1    0    0    0  501 -0.00000000000E+00  0.00000000000E+00  0.39099458400E+02  0.39099458400E+02  0.00000000000E+00 0. -1.
          2   -1    0    0  501    0  0.00000000000E+00 -0.00000000000E+00 -0.48474725770E+03  0.48474725770E+03  0.00000000000E+00 0. -1.
         35    2    1    2    0    0  0.00000000000E+00  0.00000000000E+00 -0.44564779930E+03  0.52384671610E+03  0.27534237042E+03 0.  0.
         25    1    3    3    0    0  0.47910328138E+02 -0.56676871666E+00 -0.31322172693E+03  0.33882675660E+03  0.12000000000E+03 0.  0.
         25    1    3    3    0    0 -0.47910328138E+02  0.56676871666E+00 -0.13242607237E+03  0.18501995950E+03  0.12000000000E+03 0.  0.
<mgrwt>
<rscale>  0 0.27534237E+03</rscale>
<asrwt>0</asrwt>
<pdfrwt beam="1">  1        2 0.74576495E-01 0.27534237E+03</pdfrwt>
<pdfrwt beam="2">  1       -2 0.60153018E-02 0.27534237E+03</pdfrwt>
<totfact> 0.94488133E+03</totfact>
</mgrwt>
</event>
<event>
 4    1  0.1108889E+001  0.2901866E+03  0.7818608E-02  0.1090252E+00
         -1   -1    0    0    0  501 -0.00000000000E+00  0.00000000000E+00  0.17960992202E+02  0.17960992202E+02  0.00000000000E+00 0. -1.
          1   -1    0    0  501    0  0.00000000000E+00 -0.00000000000E+00 -0.11720996494E+04  0.11720996494E+04  0.00000000000E+00 0. -1.
         25    1    1    2    0    0  0.51436917679E+02 -0.63190020687E+02 -0.59204643891E+03  0.60955534699E+03  0.12000000000E+03 0.  0.
         25    1    1    2    0    0 -0.51436917679E+02  0.63190020687E+02 -0.56209221827E+03  0.58050529460E+03  0.12000000000E+03 0.  0.
<mgrwt>
<rscale>  0 0.29018665E+03</rscale>
<asrwt>0</asrwt>
<pdfrwt beam="1">  1        1 0.18032301E+00 0.29018665E+03</pdfrwt>
<pdfrwt beam="2">  1       -1 0.27632298E-02 0.29018665E+03</pdfrwt>
<totfact> 0.51091576E+03</totfact>
</mgrwt>
</event>
<event>
 5    1  0.1108889E+001  0.2754435E+03  0.7818608E-02  0.1098204E+00
          1   -1    0    0  501    0  0.00000000000E+00  0.00000000000E+00  0.63731237243E+02  0.63731237243E+02  0.00000000000E+00 0.  1.
         -1   -1    0    0    0  501 -0.00000000000E+00 -0.00000000000E+00 -0.29761346011E+03  0.29761346011E+03  0.00000000000E+00 0.  1.
         35    2    1    2    0    0  0.00000000000E+00  0.00000000000E+00 -0.23388222287E+03  0.36134469736E+03  0.27544345360E+03 0.  0.
         25    1    3    3    0    0  0.33610782614E+02  0.12775691658E+02 -0.41873400090E+02  0.13208438454E+03  0.12000000000E+03 0.  0.
         25    1    3    3    0    0 -0.33610782614E+02 -0.12775691658E+02 -0.19200882278E+03  0.22926031281E+03  0.12000000000E+03 0.  0.
<mgrwt>
<rscale>  0 0.27544345E+03</rscale>
<asrwt>0</asrwt>
<pdfrwt beam="1">  1        1 0.98048058E-02 0.27544345E+03</pdfrwt>
<pdfrwt beam="2">  1       -1 0.45786686E-01 0.27544345E+03</pdfrwt>
<totfact> 0.31726406E+03</totfact>
</mgrwt>
</event>
<event>
 5    1  0.1108889E+001  0.2747368E+03  0.7818608E-02  0.1098599E+00
         -2   -1    0    0    0  501 -0.00000000000E+00  0.00000000000E+00  0.36602782354E+02  0.36602782354E+02  0.00000000000E+00 0. -1.
          2   -1    0    0  501    0  0.00000000000E+00 -0.00000000000E+00 -0.51553682437E+03  0.51553682437E+03  0.00000000000E+00 0. -1.
         35    2    1    2    0    0  0.00000000000E+00  0.00000000000E+00 -0.47893404202E+03  0.55213960673E+03  0.27473683538E+03 0.  0.
         25    1    3    3    0    0  0.95644253527E+01  0.33550774785E+00 -0.37244944951E+03  0.39142072408E+03  0.12000000000E+03 0.  0.
         25    1    3    3    0    0 -0.95644253527E+01 -0.33550774785E+00 -0.10648459251E+03  0.16071888265E+03  0.12000000000E+03 0.  0.
<mgrwt>
<rscale>  0 0.27473684E+03</rscale>
<asrwt>0</asrwt>
<pdfrwt beam="1">  1        2 0.79313355E-01 0.27473684E+03</pdfrwt>
<pdfrwt beam="2">  1       -2 0.56311975E-02 0.27473684E+03</pdfrwt>
<totfact> 0.97567890E+03</totfact>
</mgrwt>
</event>
<event>
 5    1  0.1108889E+001  0.2756620E+03  0.7818608E-02  0.1098082E+00
          1   -1    0    0  501    0  0.00000000000E+00  0.00000000000E+00  0.14194078904E+03  0.14194078904E+03  0.00000000000E+00 0. -1.
         -1   -1    0    0    0  501 -0.00000000000E+00 -0.00000000000E+00 -0.13384021160E+03  0.13384021160E+03  0.00000000000E+00 0. -1.
         35    2    1    2    0    0  0.00000000000E+00  0.00000000000E+00  0.81005774441E+01  0.27578100064E+03  0.27566200492E+03 0.  0.
         25    1    3    3    0    0  0.42483161146E+02  0.15509319799E+02  0.54589689329E+02  0.13937500552E+03  0.12000000000E+03 0.  0.
         25    1    3    3    0    0 -0.42483161146E+02 -0.15509319799E+02 -0.46489111885E+02  0.13640599512E+03  0.12000000000E+03 0.  0.
<mgrwt>
<rscale>  0 0.27566200E+03</rscale>
<asrwt>0</asrwt>
<pdfrwt beam="1">  1        1 0.21837044E-01 0.27566200E+03</pdfrwt>
<pdfrwt beam="2">  1       -1 0.20590802E-01 0.27566200E+03</pdfrwt>
<totfact> 0.43520776E+03</totfact>
</mgrwt>
</event>
<event>
 5    1  0.1108889E+001  0.2748367E+03  0.7818608E-02  0.1098543E+00
          2   -1    0    0  501    0  0.00000000000E+00  0.00000000000E+00  0.26033321310E+03  0.26033321310E+03  0.00000000000E+00 0. -1.
         -2   -1    0    0    0  501 -0.00000000000E+00 -0.00000000000E+00 -0.72537036950E+02  0.72537036950E+02  0.00000000000E+00 0. -1.
         35    2    1    2    0    0  0.00000000000E+00  0.00000000000E+00  0.18779617615E+03  0.33287025005E+03  0.27483667803E+03 0.  0.
         25    1    3    3    0    0 -0.28195232989E+02  0.16427215015E+02  0.23079334964E+02  0.12648114586E+03  0.12000000000E+03 0.  0.
         25    1    3    3    0    0  0.28195232989E+02 -0.16427215015E+02  0.16471684118E+03  0.20638910418E+03  0.12000000000E+03 0.  0.
<mgrwt>
<rscale>  0 0.27483668E+03</rscale>
<asrwt>0</asrwt>
<pdfrwt beam="1">  1        2 0.40051263E-01 0.27483668E+03</pdfrwt>
<pdfrwt beam="2">  1       -2 0.11159544E-01 0.27483668E+03</pdfrwt>
<totfact> 0.70427957E+03</totfact>
</mgrwt>
</event>
<event>
 5    1  0.1108889E+001  0.2755590E+03  0.7818608E-02  0.1098140E+00
          2   -1    0    0  501    0  0.00000000000E+00  0.00000000000E+00  0.30517585947E+03  0.30517585947E+03  0.00000000000E+00 0.  1.
         -2   -1    0    0    0  501 -0.00000000000E+00 -0.00000000000E+00 -0.62204122539E+02  0.62204122539E+02  0.00000000000E+00 0.  1.
         35    2    1    2    0    0  0.00000000000E+00  0.00000000000E+00  0.24297173693E+03  0.36737998201E+03  0.27555904310E+03 0.  0.
         25    1    3    3    0    0 -0.62497541277E+02  0.21777953445E+02  0.14048009907E+03  0.19625208319E+03  0.12000000000E+03 0.  0.
         25    1    3    3    0    0  0.62497541277E+02 -0.21777953445E+02  0.10249163785E+03  0.17112789881E+03  0.12000000000E+03 0.  0.
<mgrwt>
<rscale>  0 0.27555904E+03</rscale>
<asrwt>0</asrwt>
<pdfrwt beam="1">  1        2 0.46950131E-01 0.27555904E+03</pdfrwt>
<pdfrwt beam="2">  1       -2 0.95698652E-02 0.27555904E+03</pdfrwt>
<totfact> 0.75840012E+03</totfact>
</mgrwt>
</event>
<event>
 5    1  0.1108889E+001  0.2762361E+03  0.7818608E-02  0.1097763E+00
         -2   -1    0    0    0  501 -0.00000000000E+00  0.00000000000E+00  0.25160131391E+02  0.25160131391E+02  0.00000000000E+00 0. -1.
          2   -1    0    0  501    0  0.00000000000E+00 -0.00000000000E+00 -0.75820704645E+03  0.75820704645E+03  0.00000000000E+00 0. -1.
         35    2    1    2    0    0  0.00000000000E+00  0.00000000000E+00 -0.73304691506E+03  0.78336717784E+03  0.27623605058E+03 0.  0.
         25    1    3    3    0    0  0.24441723759E+02 -0.57786259053E+02 -0.28938284794E+03  0.31949817258E+03  0.12000000000E+03 0.  0.
         25    1    3    3    0    0 -0.24441723759E+02  0.57786259053E+02 -0.44366406711E+03  0.46386900526E+03  0.12000000000E+03 0.  0.
<mgrwt>
<rscale>  0 0.27623605E+03</rscale>
<asrwt>0</asrwt>
<pdfrwt beam="1">  1        2 0.11664722E+00 0.27623605E+03</pdfrwt>
<pdfrwt beam="2">  1       -2 0.38707900E-02 0.27623605E+03</pdfrwt>
<totfact> 0.10931972E+04</totfact>
</mgrwt>
</event>
<event>
 5    1  0.1108889E+001  0.2763005E+03  0.7818608E-02  0.1097727E+00
          2   -1    0    0  501    0  0.00000000000E+00  0.00000000000E+00  0.74020971093E+03  0.74020971093E+03  0.00000000000E+00 0. -1.
         -2   -1    0    0    0  501 -0.00000000000E+00 -0.00000000000E+00 -0.25783899760E+02  0.25783899760E+02  0.00000000000E+00 0. -1.
         35    2    1    2    0    0  0.00000000000E+00  0.00000000000E+00  0.71442581117E+03  0.76599361069E+03  0.27630051023E+03 0.  0.
         25    1    3    3    0    0  0.48297210172E+02  0.24522485943E+02  0.24118805161E+03  0.27478291262E+03  0.12000000000E+03 0.  0.
         25    1    3    3    0    0 -0.48297210172E+02 -0.24522485943E+02  0.47323775956E+03  0.49121069808E+03  0.12000000000E+03 0.  0.
<mgrwt>
<rscale>  0 0.27630051E+03</rscale>
<asrwt>0</asrwt>
<pdfrwt beam="1">  1        2 0.11387840E+00 0.27630051E+03</pdfrwt>
<pdfrwt beam="2">  1       -2 0.39667544E-02 0.27630051E+03</pdfrwt>
<totfact> 0.10856076E+04</totfact>
</mgrwt>
</event>
<event>
 5    1  0.1108889E+001  0.2740253E+03  0.7818608E-02  0.1098998E+00
         -3   -1    0    0    0  501 -0.00000000000E+00  0.00000000000E+00  0.10269619879E+03  0.10269619879E+03  0.00000000000E+00 0. -1.
          3   -1    0    0  501    0  0.00000000000E+00 -0.00000000000E+00 -0.18279616842E+03  0.18279616842E+03  0.00000000000E+00 0. -1.
         35    2    1    2    0    0  0.00000000000E+00  0.00000000000E+00 -0.80099969628E+02  0.28549236721E+03  0.27402533934E+03 0.  0.
         25    1    3    3    0    0  0.13341886586E+01  0.15686784768E+02 -0.10696068247E+03  0.16151917184E+03  0.12000000000E+03 0.  0.
         25    1    3    3    0    0 -0.13341886586E+01 -0.15686784768E+02  0.26860712846E+02  0.12397319537E+03  0.12000000000E+03 0.  0.
<mgrwt>
<rscale>  0 0.27402534E+03</rscale>
<asrwt>0</asrwt>
<pdfrwt beam="1">  1        3 0.28122487E-01 0.27402534E+03</pdfrwt>
<pdfrwt beam="2">  1       -3 0.15799415E-01 0.27402534E+03</pdfrwt>
<totfact> 0.10443761E+03</totfact>
</mgrwt>
</event>
<event>
 5    1  0.1108889E+001  0.2743700E+03  0.7818608E-02  0.1098804E+00
          2   -1    0    0  501    0  0.00000000000E+00  0.00000000000E+00  0.85137905491E+03  0.85137905491E+03  0.00000000000E+00 0. -1.
         -2   -1    0    0    0  501 -0.00000000000E+00 -0.00000000000E+00 -0.22104983742E+02  0.22104983742E+02  0.00000000000E+00 0. -1.
         35    2    1    2    0    0  0.00000000000E+00  0.00000000000E+00  0.82927407116E+03  0.87348403865E+03  0.27436997042E+03 0.  0.
         25    1    3    3    0    0 -0.66041031321E+02  0.29077745576E+01  0.43711405731E+03  0.45808140332E+03  0.12000000000E+03 0.  0.
         25    1    3    3    0    0  0.66041031321E+02 -0.29077745576E+01  0.39216001385E+03  0.41540263532E+03  0.12000000000E+03 0.  0.
<mgrwt>
<rscale>  0 0.27436997E+03</rscale>
<asrwt>0</asrwt>
<pdfrwt beam="1">  1        2 0.13098137E+00 0.27436997E+03</pdfrwt>
<pdfrwt beam="2">  1       -2 0.34007674E-02 0.27436997E+03</pdfrwt>
<totfact> 0.11445471E+04</totfact>
</mgrwt>
</event>
<event>
 5    1  0.1108889E+001  0.2745437E+03  0.7818608E-02  0.1098707E+00
          2   -1    0    0  501    0  0.00000000000E+00  0.00000000000E+00  0.17207411824E+04  0.17207411824E+04  0.00000000000E+00 0.  1.
         -2   -1    0    0    0  501 -0.00000000000E+00 -0.00000000000E+00 -0.10950837158E+02  0.10950837158E+02  0.00000000000E+00 0.  1.
         35    2    1    2    0    0  0.00000000000E+00  0.00000000000E+00  0.17097903452E+04  0.17316920195E+04  0.27454366851E+03 0.  0.
         25    1    3    3    0    0  0.17684128810E+02  0.57037545569E+02  0.10417456807E+04  0.10503333153E+04  0.12000000000E+03 0.  0.
         25    1    3    3    0    0 -0.17684128810E+02 -0.57037545569E+02  0.66804466455E+03  0.68135870425E+03  0.12000000000E+03 0.  0.
<mgrwt>
<rscale>  0 0.27454367E+03</rscale>
<asrwt>0</asrwt>
<pdfrwt beam="1">  1        2 0.26472920E+00 0.27454367E+03</pdfrwt>
<pdfrwt beam="2">  1       -2 0.16847455E-02 0.27454367E+03</pdfrwt>
<totfact> 0.10365534E+04</totfact>
</mgrwt>
</event>
<event>
 5    1  0.1108889E+001  0.2774501E+03  0.7818608E-02  0.1097090E+00
         -1   -1    0    0    0  501 -0.00000000000E+00  0.00000000000E+00  0.53138332655E+03  0.53138332655E+03  0.00000000000E+00 0. -1.
          1   -1    0    0  501    0  0.00000000000E+00 -0.00000000000E+00 -0.36216126953E+02  0.36216126953E+02  0.00000000000E+00 0. -1.
         35    2    1    2    0    0  0.00000000000E+00  0.00000000000E+00  0.49516719959E+03  0.56759945350E+03  0.27745014698E+03 0.  0.
         25    1    3    3    0    0  0.15898941042E+01 -0.35563031731E+02  0.36994377625E+03  0.39054532973E+03  0.12000000000E+03 0.  0.
         25    1    3    3    0    0 -0.15898941042E+01  0.35563031731E+02  0.12522342334E+03  0.17705412377E+03  0.12000000000E+03 0.  0.
<mgrwt>
<rscale>  0 0.27745015E+03</rscale>
<asrwt>0</asrwt>
<pdfrwt beam="1">  1        1 0.55717122E-02 0.27745015E+03</pdfrwt>
<pdfrwt beam="2">  1       -1 0.81751275E-01 0.27745015E+03</pdfrwt>
<totfact> 0.22291322E+03</totfact>
</mgrwt>
</event>
<event>
 5    1  0.1108889E+001  0.2745493E+03  0.7818608E-02  0.1098704E+00
          2   -1    0    0  501    0  0.00000000000E+00  0.00000000000E+00  0.11320056714E+02  0.11320056714E+02  0.00000000000E+00 0. -1.
         -2   -1    0    0    0  501 -0.00000000000E+00 -0.00000000000E+00 -0.16646847839E+04  0.16646847839E+04  0.00000000000E+00 0. -1.
         35    2    1    2    0    0  0.00000000000E+00  0.00000000000E+00 -0.16533647272E+04  0.16760048406E+04  0.27454927547E+03 0.  0.
         25    1    3    3    0    0 -0.16807123842E+02 -0.49337030652E+02 -0.10804227846E+04  0.10883152188E+04  0.12000000000E+03 0.  0.
         25    1    3    3    0    0  0.16807123842E+02  0.49337030652E+02 -0.57294194260E+03  0.58768962182E+03  0.12000000000E+03 0.  0.
<mgrwt>
<rscale>  0 0.27454928E+03</rscale>
<asrwt>0</asrwt>
<pdfrwt beam="1">  1        2 0.17415479E-02 0.27454928E+03</pdfrwt>
<pdfrwt beam="2">  1       -2 0.25610525E+00 0.27454928E+03</pdfrwt>
<totfact> 0.43830495E+02</totfact>
</mgrwt>
</event>
<event>
 5    1  0.1108889E+001  0.2767861E+03  0.7818608E-02  0.1097457E+00
          2   -1    0    0  501    0  0.00000000000E+00  0.00000000000E+00  0.44416963407E+03  0.44416963407E+03  0.00000000000E+00 0.  1.
         -2   -1    0    0    0  501 -0.00000000000E+00 -0.00000000000E+00 -0.43120087794E+02  0.43120087794E+02  0.00000000000E+00 0.  1.
         35    2    1    2    0    0  0.00000000000E+00  0.00000000000E+00  0.40104954627E+03  0.48728972186E+03  0.27678608069E+03 0.  0.
         25    1    3    3    0    0  0.47327630711E+02  0.49796298447E+02  0.21064706800E+03  0.25197571951E+03  0.12000000000E+03 0.  0.
         25    1    3    3    0    0 -0.47327630711E+02 -0.49796298447E+02  0.19040247827E+03  0.23531400235E+03  0.12000000000E+03 0.  0.
<mgrwt>
<rscale>  0 0.27678608E+03</rscale>
<asrwt>0</asrwt>
<pdfrwt beam="1">  1        2 0.68333787E-01 0.27678608E+03</pdfrwt>
<pdfrwt beam="2">  1       -2 0.66338600E-02 0.27678608E+03</pdfrwt>
<totfact> 0.89543028E+03</totfact>
</mgrwt>
</event>
<event>
 5    1  0.1108889E+001  0.2752355E+03  0.7818608E-02  0.1098320E+00
          1   -1    0    0  501    0  0.00000000000E+00  0.00000000000E+00  0.19176645294E+03  0.19176645294E+03  0.00000000000E+00 0. -1.
         -1   -1    0    0    0  501 -0.00000000000E+00 -0.00000000000E+00 -0.98758884916E+02  0.98758884916E+02  0.00000000000E+00 0. -1.
         35    2    1    2    0    0  0.00000000000E+00  0.00000000000E+00  0.93007568020E+02  0.29052533785E+03  0.27523547051E+03 0.  0.
         25    1    3    3    0    0  0.46774189559E+02  0.46994163707E+02  0.33909283104E+02  0.14123071802E+03  0.12000000000E+03 0.  0.
         25    1    3    3    0    0 -0.46774189559E+02 -0.46994163707E+02  0.59098284916E+02  0.14929461983E+03  0.12000000000E+03 0.  0.
<mgrwt>
<rscale>  0 0.27523547E+03</rscale>
<asrwt>0</asrwt>
<pdfrwt beam="1">  1        1 0.29502531E-01 0.27523547E+03</pdfrwt>
<pdfrwt beam="2">  1       -1 0.15193675E-01 0.27523547E+03</pdfrwt>
<totfact> 0.48393511E+03</totfact>
</mgrwt>
</event>
<event>
 5    1  0.1108889E+001  0.2743719E+03  0.7818608E-02  0.1098803E+00
         -2   -1    0    0    0  501 -0.00000000000E+00  0.00000000000E+00  0.19961176049E+02  0.19961176049E+02  0.00000000000E+00 0.  1.
          2   -1    0    0  501    0  0.00000000000E+00 -0.00000000000E+00 -0.94282917482E+03  0.94282917482E+03  0.00000000000E+00 0.  1.
         35    2    1    2    0    0  0.00000000000E+00  0.00000000000E+00 -0.92286799877E+03  0.96279035087E+03  0.27437185820E+03 0.  0.
         25    1    3    3    0    0 -0.48975077977E+02  0.40252021256E+01 -0.30429896326E+03  0.33077578441E+03  0.12000000000E+03 0.  0.
         25    1    3    3    0    0  0.48975077977E+02 -0.40252021256E+01 -0.61856903552E+03  0.63201456646E+03  0.12000000000E+03 0.  0.
<mgrwt>
<rscale>  0 0.27437186E+03</rscale>
<asrwt>0</asrwt>
<pdfrwt beam="1">  1        2 0.14505064E+00 0.27437186E+03</pdfrwt>
<pdfrwt beam="2">  1       -2 0.30709502E-02 0.27437186E+03</pdfrwt>
<totfact> 0.11628548E+04</totfact>
</mgrwt>
</event>
<event>
 5    1  0.1108889E+001  0.2736395E+03  0.7818608E-02  0.1099214E+00
         -2   -1    0    0    0  501 -0.00000000000E+00  0.00000000000E+00  0.29212146827E+02  0.29212146827E+02  0.00000000000E+00 0.  1.
          2   -1    0    0  501    0  0.00000000000E+00 -0.00000000000E+00 -0.64081735476E+03  0.64081735476E+03  0.00000000000E+00 0.  1.
         35    2    1    2    0    0  0.00000000000E+00  0.00000000000E+00 -0.61160520794E+03  0.67002950159E+03  0.27363954872E+03 0.  0.
         25    1    3    3    0    0 -0.39982559952E+02 -0.47945303133E+02 -0.35612047287E+03  0.38094507267E+03  0.12000000000E+03 0.  0.
         25    1    3    3    0    0  0.39982559952E+02  0.47945303133E+02 -0.25548473506E+03  0.28908442892E+03  0.12000000000E+03 0.  0.
<mgrwt>
<rscale>  0 0.27363955E+03</rscale>
<asrwt>0</asrwt>
<pdfrwt beam="1">  1        2 0.98587286E-01 0.27363955E+03</pdfrwt>
<pdfrwt beam="2">  1       -2 0.44941764E-02 0.27363955E+03</pdfrwt>
<totfact> 0.10700785E+04</totfact>
</mgrwt>
</event>
<event>
 5    1  0.1108889E+001  0.2758118E+03  0.7818608E-02  0.1097999E+00
          1   -1    0    0  501    0  0.00000000000E+00  0.00000000000E+00  0.55308374312E+03  0.55308374312E+03  0.00000000000E+00 0.  1.
         -1   -1    0    0    0  501 -0.00000000000E+00 -0.00000000000E+00 -0.34385444545E+02  0.34385444545E+02  0.00000000000E+00 0.  1.
         35    2    1    2    0    0  0.00000000000E+00  0.00000000000E+00  0.51869829857E+03  0.58746918766E+03  0.27581175013E+03 0.  0.
         25    1    3    3    0    0 -0.30395341634E+02  0.47545765680E+02  0.33999449717E+03  0.36493935761E+03  0.12000000000E+03 0.  0.
         25    1    3    3    0    0  0.30395341634E+02 -0.47545765680E+02  0.17870380140E+03  0.22252983005E+03  0.12000000000E+03 0.  0.
<mgrwt>
<rscale>  0 0.27581175E+03</rscale>
<asrwt>0</asrwt>
<pdfrwt beam="1">  1        1 0.85089800E-01 0.27581175E+03</pdfrwt>
<pdfrwt beam="2">  1       -1 0.52900688E-02 0.27581175E+03</pdfrwt>
<totfact> 0.63397424E+03</totfact>
</mgrwt>
</event>
<event>
 5    1  0.1108889E+001  0.2755674E+03  0.7818608E-02  0.1098135E+00
          2   -1    0    0  501    0  0.00000000000E+00  0.00000000000E+00  0.18416600755E+04  0.18416600755E+04  0.00000000000E+00 0. -1.
         -2   -1    0    0    0  501 -0.00000000000E+00 -0.00000000000E+00 -0.10308283352E+02  0.10308283352E+02  0.00000000000E+00 0. -1.
         35    2    1    2    0    0  0.00000000000E+00  0.00000000000E+00  0.18313517921E+04  0.18519683588E+04  0.27556744290E+03 0.  0.
         25    1    3    3    0    0 -0.62050732671E+02  0.16416653458E+02  0.77082414831E+03  0.78274495690E+03  0.12000000000E+03 0.  0.
         25    1    3    3    0    0  0.62050732671E+02 -0.16416653458E+02  0.10605276438E+04  0.10692234019E+04  0.12000000000E+03 0.  0.
<mgrwt>
<rscale>  0 0.27556744E+03</rscale>
<asrwt>0</asrwt>
<pdfrwt beam="1">  1        2 0.28333206E+00 0.27556744E+03</pdfrwt>
<pdfrwt beam="2">  1       -2 0.15858912E-02 0.27556744E+03</pdfrwt>
<totfact> 0.97851799E+03</totfact>
</mgrwt>
</event>
<event>
 4    1  0.1108889E+001  0.2541267E+03  0.7818608E-02  0.1110724E+00
          2   -1    0    0  501    0  0.00000000000E+00  0.00000000000E+00  0.94328091504E+01  0.94328091504E+01  0.00000000000E+00 0. -1.
         -2   -1    0    0    0  501 -0.00000000000E+00 -0.00000000000E+00 -0.17115890126E+04  0.17115890126E+04  0.00000000000E+00 0. -1.
         25    1    1    2    0    0 -0.44387604937E+01 -0.38734088298E+02 -0.95267619729E+03  0.96099530127E+03  0.12000000000E+03 0.  0.
         25    1    1    2    0    0  0.44387604937E+01  0.38734088298E+02 -0.74948000612E+03  0.76002652044E+03  0.12000000000E+03 0.  0.
<mgrwt>
<rscale>  0 0.25412668E+03</rscale>
<asrwt>0</asrwt>
<pdfrwt beam="1">  1        2 0.14512014E-02 0.25412668E+03</pdfrwt>
<pdfrwt beam="2">  1       -2 0.26332139E+00 0.25412668E+03</pdfrwt>
<totfact> 0.51239359E+02</totfact>
</mgrwt>
</event>
<event>
 5    1  0.1108889E+001  0.2747999E+03  0.7818608E-02  0.1098563E+00
         -1   -1    0    0    0  501 -0.00000000000E+00  0.00000000000E+00  0.51566865874E+02  0.51566865874E+02  0.00000000000E+00 0. -1.
          1   -1    0    0  501    0  0.00000000000E+00 -0.00000000000E+00 -0.36610237220E+03  0.36610237220E+03  0.00000000000E+00 0. -1.
         35    2    1    2    0    0  0.00000000000E+00  0.00000000000E+00 -0.31453550632E+03  0.41766923807E+03  0.27479994122E+03 0.  0.
         25    1    3    3    0    0  0.54731633909E+02  0.37111163882E+02 -0.17291328351E+03  0.22061684852E+03  0.12000000000E+03 0.  0.
         25    1    3    3    0    0 -0.54731633909E+02 -0.37111163882E+02 -0.14162222281E+03  0.19705238955E+03  0.12000000000E+03 0.  0.
<mgrwt>
<rscale>  0 0.27479994E+03</rscale>
<asrwt>0</asrwt>
<pdfrwt beam="1">  1        1 0.56323441E-01 0.27479994E+03</pdfrwt>
<pdfrwt beam="2">  1       -1 0.79333641E-02 0.27479994E+03</pdfrwt>
<totfact> 0.58881030E+03</totfact>
</mgrwt>
</event>
<event>
 5    1  0.1108889E+001  0.2745482E+03  0.7818608E-02  0.1098704E+00
          1   -1    0    0  501    0  0.00000000000E+00  0.00000000000E+00  0.19262104970E+03  0.19262104970E+03  0.00000000000E+00 0. -1.
         -1   -1    0    0    0  501 -0.00000000000E+00 -0.00000000000E+00 -0.97830294105E+02  0.97830294105E+02  0.00000000000E+00 0. -1.
         35    2    1    2    0    0  0.00000000000E+00  0.00000000000E+00  0.94790755595E+02  0.29045134381E+03  0.27454816658E+03 0.  0.
         25    1    3    3    0    0  0.28181548720E+02  0.24050205501E+02 -0.11236590805E+02  0.12609073339E+03  0.12000000000E+03 0.  0.
         25    1    3    3    0    0 -0.28181548720E+02 -0.24050205501E+02  0.10602734640E+03  0.16436061042E+03  0.12000000000E+03 0.  0.
<mgrwt>
<rscale>  0 0.27454817E+03</rscale>
<asrwt>0</asrwt>
<pdfrwt beam="1">  1        1 0.29634008E-01 0.27454817E+03</pdfrwt>
<pdfrwt beam="2">  1       -1 0.15050814E-01 0.27454817E+03</pdfrwt>
<totfact> 0.48845917E+03</totfact>
</mgrwt>
</event>
<event>
 5    1  0.1108889E+001  0.2751916E+03  0.7818608E-02  0.1098345E+00
         -1   -1    0    0    0  501 -0.00000000000E+00  0.00000000000E+00  0.71381125175E+01  0.71381125175E+01  0.00000000000E+00 0. -1.
          1   -1    0    0  501    0  0.00000000000E+00 -0.00000000000E+00 -0.26523266019E+04  0.26523266019E+04  0.00000000000E+00 0. -1.
         35    2    1    2    0    0  0.00000000000E+00  0.00000000000E+00 -0.26451884894E+04  0.26594647144E+04  0.27519161119E+03 0.  0.
         25    1    3    3    0    0  0.63744202384E+02  0.26040817846E+01 -0.11147607958E+04  0.11230145754E+04  0.12000000000E+03 0.  0.
         25    1    3    3    0    0 -0.63744202384E+02 -0.26040817846E+01 -0.15304276936E+04  0.15364501391E+04  0.12000000000E+03 0.  0.
<mgrwt>
<rscale>  0 0.27519161E+03</rscale>
<asrwt>0</asrwt>
<pdfrwt beam="1">  1        1 0.40805048E+00 0.27519161E+03</pdfrwt>
<pdfrwt beam="2">  1       -1 0.10981705E-02 0.27519161E+03</pdfrwt>
<totfact> 0.20591175E+03</totfact>
</mgrwt>
</event>
<event>
 4    1  0.1108889E+001  0.2999849E+03  0.7818608E-02  0.1085248E+00
          2   -1    0    0  501    0  0.00000000000E+00  0.00000000000E+00  0.88503422952E+02  0.88503422952E+02  0.00000000000E+00 0. -1.
         -2   -1    0    0    0  501 -0.00000000000E+00 -0.00000000000E+00 -0.25420182453E+03  0.25420182453E+03  0.00000000000E+00 0. -1.
         25    1    1    2    0    0 -0.81370790698E+02  0.23817009756E+02 -0.48400783658E+02  0.15469677240E+03  0.12000000000E+03 0.  0.
         25    1    1    2    0    0  0.81370790698E+02 -0.23817009756E+02 -0.11729761792E+03  0.18800847508E+03  0.12000000000E+03 0.  0.
<mgrwt>
<rscale>  0 0.29998488E+03</rscale>
<asrwt>0</asrwt>
<pdfrwt beam="1">  1        2 0.13615911E-01 0.29998488E+03</pdfrwt>
<pdfrwt beam="2">  1       -2 0.39107973E-01 0.29998488E+03</pdfrwt>
<totfact> 0.27237869E+03</totfact>
</mgrwt>
</event>
<event>
 5    1  0.1108889E+001  0.2743931E+03  0.7818608E-02  0.1098791E+00
          3   -1    0    0  501    0  0.00000000000E+00  0.00000000000E+00  0.44201445628E+03  0.44201445628E+03  0.00000000000E+00 0.  1.
         -3   -1    0    0    0  501 -0.00000000000E+00 -0.00000000000E+00 -0.42584352922E+02  0.42584352922E+02  0.00000000000E+00 0.  1.
         35    2    1    2    0    0  0.00000000000E+00  0.00000000000E+00  0.39943010336E+03  0.48459880920E+03  0.27439314571E+03 0.  0.
         25    1    3    3    0    0 -0.41187085172E+02  0.38305736472E+02  0.26238443719E+03  0.29395458545E+03  0.12000000000E+03 0.  0.
         25    1    3    3    0    0  0.41187085172E+02 -0.38305736472E+02  0.13704566617E+03  0.19064422374E+03  0.12000000000E+03 0.  0.
<mgrwt>
<rscale>  0 0.27439315E+03</rscale>
<asrwt>0</asrwt>
<pdfrwt beam="1">  1        3 0.68002221E-01 0.27439315E+03</pdfrwt>
<pdfrwt beam="2">  1       -3 0.65514392E-02 0.27439315E+03</pdfrwt>
<totfact> 0.79483090E+02</totfact>
</mgrwt>
</event>
<event>
 5    1  0.1108889E+001  0.2749451E+03  0.7818608E-02  0.1098482E+00
         -2   -1    0    0    0  501 -0.00000000000E+00  0.00000000000E+00  0.25093475971E+02  0.25093475971E+02  0.00000000000E+00 0.  1.
          2   -1    0    0  501    0  0.00000000000E+00 -0.00000000000E+00 -0.75313203683E+03  0.75313203683E+03  0.00000000000E+00 0.  1.
         35    2    1    2    0    0  0.00000000000E+00  0.00000000000E+00 -0.72803856086E+03  0.77822551280E+03  0.27494509029E+03 0.  0.
         25    1    3    3    0    0 -0.48384923020E+02  0.13340826518E+02 -0.48995550157E+03  0.50692748194E+03  0.12000000000E+03 0.  0.
         25    1    3    3    0    0  0.48384923020E+02 -0.13340826518E+02 -0.23808305929E+03  0.27129803086E+03  0.12000000000E+03 0.  0.
<mgrwt>
<rscale>  0 0.27494509E+03</rscale>
<asrwt>0</asrwt>
<pdfrwt beam="1">  1        2 0.11586645E+00 0.27494509E+03</pdfrwt>
<pdfrwt beam="2">  1       -2 0.38605353E-02 0.27494509E+03</pdfrwt>
<totfact> 0.11065981E+04</totfact>
</mgrwt>
</event>
<event>
 5    1  0.1108889E+001  0.2756938E+03  0.7818608E-02  0.1098064E+00
          1   -1    0    0  501    0  0.00000000000E+00  0.00000000000E+00  0.43245393651E+03  0.43245393651E+03  0.00000000000E+00 0. -1.
         -1   -1    0    0    0  501 -0.00000000000E+00 -0.00000000000E+00 -0.43939410109E+02  0.43939410109E+02  0.00000000000E+00 0. -1.
         35    2    1    2    0    0  0.00000000000E+00  0.00000000000E+00  0.38851452640E+03  0.47639334662E+03  0.27569382198E+03 0.  0.
         25    1    3    3    0    0 -0.47537770764E+02 -0.39294592072E+02  0.24306668936E+03  0.27800237425E+03  0.12000000000E+03 0.  0.
         25    1    3    3    0    0  0.47537770764E+02  0.39294592072E+02  0.14544783704E+03  0.19839097237E+03  0.12000000000E+03 0.  0.
<mgrwt>
<rscale>  0 0.27569382E+03</rscale>
<asrwt>0</asrwt>
<pdfrwt beam="1">  1        1 0.66531372E-01 0.27569382E+03</pdfrwt>
<pdfrwt beam="2">  1       -1 0.67599095E-02 0.27569382E+03</pdfrwt>
<totfact> 0.60671353E+03</totfact>
</mgrwt>
</event>
<event>
 5    1  0.1108889E+001  0.2747010E+03  0.7818608E-02  0.1098619E+00
          2   -1    0    0  501    0  0.00000000000E+00  0.00000000000E+00  0.24079147373E+03  0.24079147373E+03  0.00000000000E+00 0.  1.
         -2   -1    0    0    0  501 -0.00000000000E+00 -0.00000000000E+00 -0.78346468868E+02  0.78346468868E+02  0.00000000000E+00 0.  1.
         35    2    1    2    0    0  0.00000000000E+00  0.00000000000E+00  0.16244500486E+03  0.31913794260E+03  0.27470101347E+03 0.  0.
         25    1    3    3    0    0  0.39360689099E+02 -0.51330919293E+02  0.61746579002E+02  0.14965549486E+03  0.12000000000E+03 0.  0.
         25    1    3    3    0    0 -0.39360689099E+02  0.51330919293E+02  0.10069842586E+03  0.16948244774E+03  0.12000000000E+03 0.  0.
<mgrwt>
<rscale>  0 0.27470101E+03</rscale>
<asrwt>0</asrwt>
<pdfrwt beam="1">  1        2 0.37044842E-01 0.27470101E+03</pdfrwt>
<pdfrwt beam="2">  1       -2 0.12053303E-01 0.27470101E+03</pdfrwt>
<totfact> 0.67685174E+03</totfact>
</mgrwt>
</event>
<event>
 5    1  0.1108889E+001  0.2753231E+03  0.7818608E-02  0.1098271E+00
         -2   -1    0    0    0  501 -0.00000000000E+00  0.00000000000E+00  0.91000185632E+01  0.91000185632E+01  0.00000000000E+00 0.  1.
          2   -1    0    0  501    0  0.00000000000E+00 -0.00000000000E+00 -0.20824906066E+04  0.20824906066E+04  0.00000000000E+00 0.  1.
         35    2    1    2    0    0  0.00000000000E+00  0.00000000000E+00 -0.20733905880E+04  0.20915906252E+04  0.27532310602E+03 0.  0.
         25    1    3    3    0    0 -0.47516261765E+02  0.39606067363E+02 -0.83224698773E+03  0.84312601922E+03  0.12000000000E+03 0.  0.
         25    1    3    3    0    0  0.47516261765E+02 -0.39606067363E+02 -0.12411436003E+04  0.12484646059E+04  0.12000000000E+03 0.  0.
<mgrwt>
<rscale>  0 0.27532311E+03</rscale>
<asrwt>0</asrwt>
<pdfrwt beam="1">  1        2 0.32038338E+00 0.27532311E+03</pdfrwt>
<pdfrwt beam="2">  1       -2 0.14000019E-02 0.27532311E+03</pdfrwt>
<totfact> 0.87723957E+03</totfact>
</mgrwt>
</event>
<event>
 5    1  0.1108889E+001  0.2667767E+03  0.7818608E-02  0.1103139E+00
         -3   -1    0    0    0  501 -0.00000000000E+00  0.00000000000E+00  0.28288294848E+02  0.28288294848E+02  0.00000000000E+00 0.  1.
          3   -1    0    0  501    0  0.00000000000E+00 -0.00000000000E+00 -0.62896853706E+03  0.62896853706E+03  0.00000000000E+00 0.  1.
         35    2    1    2    0    0  0.00000000000E+00  0.00000000000E+00 -0.60068024221E+03  0.65725683191E+03  0.26677666634E+03 0.  0.
         25    1    3    3    0    0 -0.90220203866E+01 -0.54495610303E+02 -0.25482642860E+03  0.28703253667E+03  0.12000000000E+03 0.  0.
         25    1    3    3    0    0  0.90220203866E+01  0.54495610303E+02 -0.34585381362E+03  0.37022429524E+03  0.12000000000E+03 0.  0.
<mgrwt>
<rscale>  0 0.26677667E+03</rscale>
<asrwt>0</asrwt>
<pdfrwt beam="1">  1        3 0.96764384E-01 0.26677667E+03</pdfrwt>
<pdfrwt beam="2">  1       -3 0.43520457E-02 0.26677667E+03</pdfrwt>
<totfact> 0.70299390E+02</totfact>
</mgrwt>
</event>
<event>
 5    1  0.1108889E+001  0.2751620E+03  0.7818608E-02  0.1098361E+00
          2   -1    0    0  501    0  0.00000000000E+00  0.00000000000E+00  0.18340592951E+04  0.18340592951E+04  0.00000000000E+00 0.  1.
         -2   -1    0    0    0  501 -0.00000000000E+00 -0.00000000000E+00 -0.10320567220E+02  0.10320567220E+02  0.00000000000E+00 0.  1.
         35    2    1    2    0    0  0.00000000000E+00  0.00000000000E+00  0.18237387279E+04  0.18443798623E+04  0.27516200493E+03 0.  0.
         25    1    3    3    0    0 -0.64331292315E+02  0.15792936654E+02  0.83238990389E+03  0.84359995503E+03  0.12000000000E+03 0.  0.
         25    1    3    3    0    0  0.64331292315E+02 -0.15792936654E+02  0.99134882396E+03  0.10007799073E+04  0.12000000000E+03 0.  0.
<mgrwt>
<rscale>  0 0.27516200E+03</rscale>
<asrwt>0</asrwt>
<pdfrwt beam="1">  1        2 0.28216271E+00 0.27516200E+03</pdfrwt>
<pdfrwt beam="2">  1       -2 0.15877810E-02 0.27516200E+03</pdfrwt>
<totfact> 0.98580862E+03</totfact>
</mgrwt>
</event>
<event>
 5    1  0.1108889E+001  0.2750507E+03  0.7818608E-02  0.1098423E+00
         -2   -1    0    0    0  501 -0.00000000000E+00  0.00000000000E+00  0.14376958536E+02  0.14376958536E+02  0.00000000000E+00 0.  1.
          2   -1    0    0  501    0  0.00000000000E+00 -0.00000000000E+00 -0.13155229912E+04  0.13155229912E+04  0.00000000000E+00 0.  1.
         35    2    1    2    0    0  0.00000000000E+00  0.00000000000E+00 -0.13011460326E+04  0.13298999497E+04  0.27505068258E+03 0.  0.
         25    1    3    3    0    0  0.63196102882E+02 -0.15239515468E+02 -0.73251766014E+03  0.74512288427E+03  0.12000000000E+03 0.  0.
         25    1    3    3    0    0 -0.63196102882E+02  0.15239515468E+02 -0.56862837250E+03  0.58477706544E+03  0.12000000000E+03 0.  0.
<mgrwt>
<rscale>  0 0.27505068E+03</rscale>
<asrwt>0</asrwt>
<pdfrwt beam="1">  1        2 0.20238814E+00 0.27505068E+03</pdfrwt>
<pdfrwt beam="2">  1       -2 0.22118399E-02 0.27505068E+03</pdfrwt>
<totfact> 0.11452624E+04</totfact>
</mgrwt>
</event>
<event>
 5    1  0.1108889E+001  0.2730800E+03  0.7818608E-02  0.1099530E+00
         -2   -1    0    0    0  501 -0.00000000000E+00  0.00000000000E+00  0.12568316480E+02  0.12568316480E+02  0.00000000000E+00 0.  1.
          2   -1    0    0  501    0  0.00000000000E+00 -0.00000000000E+00 -0.14833463693E+04  0.14833463693E+04  0.00000000000E+00 0.  1.
         35    2    1    2    0    0  0.00000000000E+00  0.00000000000E+00 -0.14707780528E+04  0.14959146858E+04  0.27307996352E+03 0.  0.
         25    1    3    3    0    0  0.40072996879E+02  0.50953354115E+02 -0.70028009282E+03  0.71343836299E+03  0.12000000000E+03 0.  0.
         25    1    3    3    0    0 -0.40072996879E+02 -0.50953354115E+02 -0.77049795998E+03  0.78247632278E+03  0.12000000000E+03 0.  0.
<mgrwt>
<rscale>  0 0.27307996E+03</rscale>
<asrwt>0</asrwt>
<pdfrwt beam="1">  1        2 0.22820709E+00 0.27307996E+03</pdfrwt>
<pdfrwt beam="2">  1       -2 0.19335876E-02 0.27307996E+03</pdfrwt>
<totfact> 0.11313859E+04</totfact>
</mgrwt>
</event>
<event>
 5    1  0.1108889E+001  0.2756065E+03  0.7818608E-02  0.1098113E+00
          3   -1    0    0  501    0  0.00000000000E+00  0.00000000000E+00  0.85010181615E+02  0.85010181615E+02  0.00000000000E+00 0.  1.
         -3   -1    0    0    0  501 -0.00000000000E+00 -0.00000000000E+00 -0.22338190438E+03  0.22338190438E+03  0.00000000000E+00 0.  1.
         35    2    1    2    0    0  0.00000000000E+00  0.00000000000E+00 -0.13837172276E+03  0.30839208599E+03  0.27560650399E+03 0.  0.
         25    1    3    3    0    0  0.57247684654E+02 -0.22048467070E+02 -0.10135087059E+03  0.16862808564E+03  0.12000000000E+03 0.  0.
         25    1    3    3    0    0 -0.57247684654E+02  0.22048467070E+02 -0.37020852175E+02  0.13976400035E+03  0.12000000000E+03 0.  0.
<mgrwt>
<rscale>  0 0.27560650E+03</rscale>
<asrwt>0</asrwt>
<pdfrwt beam="1">  1        3 0.13078490E-01 0.27560650E+03</pdfrwt>
<pdfrwt beam="2">  1       -3 0.34366446E-01 0.27560650E+03</pdfrwt>
<totfact> 0.99272121E+02</totfact>
</mgrwt>
</event>
<event>
 5    1  0.1108889E+001  0.2754172E+03  0.7818608E-02  0.1098219E+00
          2   -1    0    0  501    0  0.00000000000E+00  0.00000000000E+00  0.16693681670E+04  0.16693681670E+04  0.00000000000E+00 0.  1.
         -2   -1    0    0    0  501 -0.00000000000E+00 -0.00000000000E+00 -0.11359784009E+02  0.11359784009E+02  0.00000000000E+00 0.  1.
         35    2    1    2    0    0  0.00000000000E+00  0.00000000000E+00  0.16580083830E+04  0.16807279510E+04  0.27541722393E+03 0.  0.
         25    1    3    3    0    0  0.11599694760E+02  0.55394716956E+02  0.10540967105E+04  0.10624137625E+04  0.12000000000E+03 0.  0.
         25    1    3    3    0    0 -0.11599694760E+02 -0.55394716956E+02  0.60391167245E+03  0.61831418850E+03  0.12000000000E+03 0.  0.
<mgrwt>
<rscale>  0 0.27541722E+03</rscale>
<asrwt>0</asrwt>
<pdfrwt beam="1">  1        2 0.25682568E+00 0.27541722E+03</pdfrwt>
<pdfrwt beam="2">  1       -2 0.17476604E-02 0.27541722E+03</pdfrwt>
<totfact> 0.10455094E+04</totfact>
</mgrwt>
</event>
<event>
 5    1  0.1108889E+001  0.2767700E+03  0.7818608E-02  0.1097466E+00
          1   -1    0    0  501    0  0.00000000000E+00  0.00000000000E+00  0.99811722525E+03  0.99811722525E+03  0.00000000000E+00 0.  1.
         -1   -1    0    0    0  501 -0.00000000000E+00 -0.00000000000E+00 -0.19186537528E+02  0.19186537528E+02  0.00000000000E+00 0.  1.
         35    2    1    2    0    0  0.00000000000E+00  0.00000000000E+00  0.97893068772E+03  0.10173037628E+04  0.27677003884E+03 0.  0.
         25    1    3    3    0    0 -0.67707893300E+02 -0.75073329042E+01  0.52796212982E+03  0.54569655431E+03  0.12000000000E+03 0.  0.
         25    1    3    3    0    0  0.67707893300E+02  0.75073329042E+01  0.45096855790E+03  0.47160720846E+03  0.12000000000E+03 0.  0.
<mgrwt>
<rscale>  0 0.27677004E+03</rscale>
<asrwt>0</asrwt>
<pdfrwt beam="1">  1        1 0.15355646E+00 0.27677004E+03</pdfrwt>
<pdfrwt beam="2">  1       -1 0.29517758E-02 0.27677004E+03</pdfrwt>
<totfact> 0.61954700E+03</totfact>
</mgrwt>
</event>
<event>
 5    1  0.1108889E+001  0.2758129E+03  0.7818608E-02  0.1097998E+00
          2   -1    0    0  501    0  0.00000000000E+00  0.00000000000E+00  0.21207395528E+04  0.21207395528E+04  0.00000000000E+00 0. -1.
         -2   -1    0    0    0  501 -0.00000000000E+00 -0.00000000000E+00 -0.89677186543E+01  0.89677186543E+01  0.00000000000E+00 0. -1.
         35    2    1    2    0    0  0.00000000000E+00  0.00000000000E+00  0.21117718342E+04  0.21297072715E+04  0.27581294856E+03 0.  0.
         25    1    3    3    0    0  0.31106975949E+02  0.59994366121E+02  0.10006199445E+04  0.10100530883E+04  0.12000000000E+03 0.  0.
         25    1    3    3    0    0 -0.31106975949E+02 -0.59994366121E+02  0.11111518897E+04  0.11196541832E+04  0.12000000000E+03 0.  0.
<mgrwt>
<rscale>  0 0.27581295E+03</rscale>
<asrwt>0</asrwt>
<pdfrwt beam="1">  1        2 0.32626722E+00 0.27581295E+03</pdfrwt>
<pdfrwt beam="2">  1       -2 0.13796507E-02 0.27581295E+03</pdfrwt>
<totfact> 0.85545652E+03</totfact>
</mgrwt>
</event>
<event>
 5    1  0.1108889E+001  0.2747982E+03  0.7818608E-02  0.1098564E+00
          2   -1    0    0  501    0  0.00000000000E+00  0.00000000000E+00  0.32332825225E+04  0.32332825225E+04  0.00000000000E+00 0.  1.
         -2   -1    0    0    0  501 -0.00000000000E+00 -0.00000000000E+00 -0.58388064546E+01  0.58388064546E+01  0.00000000000E+00 0.  1.
         35    2    1    2    0    0  0.00000000000E+00  0.00000000000E+00  0.32274437160E+04  0.32391213289E+04  0.27479818676E+03 0.  0.
         25    1    3    3    0    0 -0.13138133846E+02 -0.12441172207E+00  0.84024992781E+03  0.84887723919E+03  0.12000000000E+03 0.  0.
         25    1    3    3    0    0  0.13138133846E+02  0.12441172207E+00  0.23871937882E+04  0.23902440897E+04  0.12000000000E+03 0.  0.
<mgrwt>
<rscale>  0 0.27479819E+03</rscale>
<asrwt>0</asrwt>
<pdfrwt beam="1">  1        2 0.49742665E+00 0.27479819E+03</pdfrwt>
<pdfrwt beam="2">  1       -2 0.89828050E-03 0.27479819E+03</pdfrwt>
<totfact> 0.37471013E+03</totfact>
</mgrwt>
</event>
<event>
 5    1  0.1108889E+001  0.2721030E+03  0.7818608E-02  0.1100082E+00
          2   -1    0    0  501    0  0.00000000000E+00  0.00000000000E+00  0.31594316771E+02  0.31594316771E+02  0.00000000000E+00 0.  1.
         -2   -1    0    0    0  501 -0.00000000000E+00 -0.00000000000E+00 -0.58586524345E+03  0.58586524345E+03  0.00000000000E+00 0.  1.
         35    2    1    2    0    0  0.00000000000E+00  0.00000000000E+00 -0.55427092668E+03  0.61745956023E+03  0.27210301055E+03 0.  0.
         25    1    3    3    0    0  0.19441935842E+02 -0.14185781768E+02 -0.41197303433E+03  0.42976854968E+03  0.12000000000E+03 0.  0.
         25    1    3    3    0    0 -0.19441935842E+02  0.14185781768E+02 -0.14229789235E+03  0.18769101055E+03  0.12000000000E+03 0.  0.
<mgrwt>
<rscale>  0 0.27210301E+03</rscale>
<asrwt>0</asrwt>
<pdfrwt beam="1">  1        2 0.48606642E-02 0.27210301E+03</pdfrwt>
<pdfrwt beam="2">  1       -2 0.90133113E-01 0.27210301E+03</pdfrwt>
<totfact> 0.17754035E+03</totfact>
</mgrwt>
</event>
<event>
 5    1  0.1108889E+001  0.2734516E+03  0.7818608E-02  0.1099320E+00
         -1   -1    0    0    0  501 -0.00000000000E+00  0.00000000000E+00  0.58319117422E+01  0.58319117422E+01  0.00000000000E+00 0. -1.
          1   -1    0    0  501    0  0.00000000000E+00 -0.00000000000E+00 -0.32054570043E+04  0.32054570043E+04  0.00000000000E+00 0. -1.
         35    2    1    2    0    0  0.00000000000E+00  0.00000000000E+00 -0.31996250926E+04  0.32112889160E+04  0.27345158506E+03 0.  0.
         25    1    3    3    0    0  0.26408274225E+02 -0.55948532254E+02 -0.18534042054E+04  0.18583150389E+04  0.12000000000E+03 0.  0.
         25    1    3    3    0    0 -0.26408274225E+02  0.55948532254E+02 -0.13462208872E+04  0.13529738772E+04  0.12000000000E+03 0.  0.
<mgrwt>
<rscale>  0 0.27345159E+03</rscale>
<asrwt>0</asrwt>
<pdfrwt beam="1">  1        1 0.49314805E+00 0.27345159E+03</pdfrwt>
<pdfrwt beam="2">  1       -1 0.89721570E-03 0.27345159E+03</pdfrwt>
<totfact> 0.11385965E+03</totfact>
</mgrwt>
</event>
<event>
 5    1  0.1108889E+001  0.2751256E+03  0.7818608E-02  0.1098381E+00
         -2   -1    0    0    0  501 -0.00000000000E+00  0.00000000000E+00  0.17659127624E+02  0.17659127624E+02  0.00000000000E+00 0. -1.
          2   -1    0    0  501    0  0.00000000000E+00 -0.00000000000E+00 -0.10715999303E+04  0.10715999303E+04  0.00000000000E+00 0. -1.
         35    2    1    2    0    0  0.00000000000E+00  0.00000000000E+00 -0.10539408026E+04  0.10892590579E+04  0.27512557082E+03 0.  0.
         25    1    3    3    0    0 -0.14504123162E+01  0.65284831362E+02 -0.59072439096E+03  0.60631635222E+03  0.12000000000E+03 0.  0.
         25    1    3    3    0    0  0.14504123162E+01 -0.65284831362E+02 -0.46321641169E+03  0.48294270567E+03  0.12000000000E+03 0.  0.
<mgrwt>
<rscale>  0 0.27512557E+03</rscale>
<asrwt>0</asrwt>
<pdfrwt beam="1">  1        2 0.16486153E+00 0.27512557E+03</pdfrwt>
<pdfrwt beam="2">  1       -2 0.27167889E-02 0.27512557E+03</pdfrwt>
<totfact> 0.11640726E+04</totfact>
</mgrwt>
</event>
<event>
 5    1  0.1108889E+001  0.2749280E+03  0.7818608E-02  0.1098492E+00
         -1   -1    0    0    0  501 -0.00000000000E+00  0.00000000000E+00  0.52995136256E+03  0.52995136256E+03  0.00000000000E+00 0.  1.
          1   -1    0    0  501    0  0.00000000000E+00 -0.00000000000E+00 -0.35656775952E+02  0.35656775952E+02  0.00000000000E+00 0.  1.
         35    2    1    2    0    0  0.00000000000E+00  0.00000000000E+00  0.49429458661E+03  0.56560813852E+03  0.27492804150E+03 0.  0.
         25    1    3    3    0    0 -0.16111313362E+02  0.40354908727E+02  0.14207883040E+03  0.19098294982E+03  0.12000000000E+03 0.  0.
         25    1    3    3    0    0  0.16111313362E+02 -0.40354908727E+02  0.35221575622E+03  0.37462518869E+03  0.12000000000E+03 0.  0.
<mgrwt>
<rscale>  0 0.27492804E+03</rscale>
<asrwt>0</asrwt>
<pdfrwt beam="1">  1        1 0.54856582E-02 0.27492804E+03</pdfrwt>
<pdfrwt beam="2">  1       -1 0.81530973E-01 0.27492804E+03</pdfrwt>
<totfact> 0.22899691E+03</totfact>
</mgrwt>
</event>
<event>
 5    1  0.1108889E+001  0.2751324E+03  0.7818608E-02  0.1098378E+00
          2   -1    0    0  501    0  0.00000000000E+00  0.00000000000E+00  0.14653459024E+03  0.14653459024E+03  0.00000000000E+00 0.  1.
         -2   -1    0    0    0  501 -0.00000000000E+00 -0.00000000000E+00 -0.12914666744E+03  0.12914666744E+03  0.00000000000E+00 0.  1.
         35    2    1    2    0    0  0.00000000000E+00  0.00000000000E+00  0.17387922796E+02  0.27568125769E+03  0.27513236084E+03 0.  0.
         25    1    3    3    0    0 -0.66005475001E+01 -0.62279060051E+02 -0.15894870977E+02  0.13628974823E+03  0.12000000000E+03 0.  0.
         25    1    3    3    0    0  0.66005475001E+01  0.62279060051E+02  0.33282793773E+02  0.13939150946E+03  0.12000000000E+03 0.  0.
<mgrwt>
<rscale>  0 0.27513236E+03</rscale>
<asrwt>0</asrwt>
<pdfrwt beam="1">  1        2 0.22543783E-01 0.27513236E+03</pdfrwt>
<pdfrwt beam="2">  1       -2 0.19868718E-01 0.27513236E+03</pdfrwt>
<totfact> 0.51083906E+03</totfact>
</mgrwt>
</event>
<event>
 5    1  0.1108889E+001  0.2750079E+03  0.7818608E-02  0.1098447E+00
          2   -1    0    0  501    0  0.00000000000E+00  0.00000000000E+00  0.16202866480E+03  0.16202866480E+03  0.00000000000E+00 0.  1.
         -2   -1    0    0    0  501 -0.00000000000E+00 -0.00000000000E+00 -0.11669127276E+03  0.11669127276E+03  0.00000000000E+00 0.  1.
         35    2    1    2    0    0  0.00000000000E+00  0.00000000000E+00  0.45337392038E+02  0.27871993757E+03  0.27500786258E+03 0.  0.
         25    1    3    3    0    0 -0.40340326161E+02  0.23611832840E+02  0.71511212723E+02  0.14730483397E+03  0.12000000000E+03 0.  0.
         25    1    3    3    0    0  0.40340326161E+02 -0.23611832840E+02 -0.26173820685E+02  0.13141510360E+03  0.12000000000E+03 0.  0.
<mgrwt>
<rscale>  0 0.27500786E+03</rscale>
<asrwt>0</asrwt>
<pdfrwt beam="1">  1        2 0.24927487E-01 0.27500786E+03</pdfrwt>
<pdfrwt beam="2">  1       -2 0.17952503E-01 0.27500786E+03</pdfrwt>
<totfact> 0.54200398E+03</totfact>
</mgrwt>
</event>
<event>
 5    1  0.1108889E+001  0.2741269E+03  0.7818608E-02  0.1098941E+00
          2   -1    0    0  501    0  0.00000000000E+00  0.00000000000E+00  0.56137055460E+02  0.56137055460E+02  0.00000000000E+00 0.  1.
         -2   -1    0    0    0  501 -0.00000000000E+00 -0.00000000000E+00 -0.33465220653E+03  0.33465220653E+03  0.00000000000E+00 0.  1.
         35    2    1    2    0    0  0.00000000000E+00  0.00000000000E+00 -0.27851515107E+03  0.39078926199E+03  0.27412690111E+03 0.  0.
         25    1    3    3    0    0 -0.45269724723E+01 -0.22095022004E+02 -0.50485084950E+02  0.13212655781E+03  0.12000000000E+03 0.  0.
         25    1    3    3    0    0  0.45269724723E+01  0.22095022004E+02 -0.22803006612E+03  0.25866270418E+03  0.12000000000E+03 0.  0.
<mgrwt>
<rscale>  0 0.27412690E+03</rscale>
<asrwt>0</asrwt>
<pdfrwt beam="1">  1        2 0.86364701E-02 0.27412690E+03</pdfrwt>
<pdfrwt beam="2">  1       -2 0.51484955E-01 0.27412690E+03</pdfrwt>
<totfact> 0.27822618E+03</totfact>
</mgrwt>
</event>
<event>
 5    1  0.1108889E+001  0.2753901E+03  0.7818608E-02  0.1098234E+00
         -1   -1    0    0    0  501 -0.00000000000E+00  0.00000000000E+00  0.23281315795E+02  0.23281315795E+02  0.00000000000E+00 0. -1.
          1   -1    0    0  501    0  0.00000000000E+00 -0.00000000000E+00 -0.81438353817E+03  0.81438353817E+03  0.00000000000E+00 0. -1.
         35    2    1    2    0    0  0.00000000000E+00  0.00000000000E+00 -0.79110222238E+03  0.83766485397E+03  0.27539005306E+03 0.  0.
         25    1    3    3    0    0  0.22352317928E+01 -0.66928129557E+02 -0.36911254092E+03  0.39386347717E+03  0.12000000000E+03 0.  0.
         25    1    3    3    0    0 -0.22352317928E+01  0.66928129557E+02 -0.42198968146E+03  0.44380137680E+03  0.12000000000E+03 0.  0.
<mgrwt>
<rscale>  0 0.27539005E+03</rscale>
<asrwt>0</asrwt>
<pdfrwt beam="1">  1        1 0.12528977E+00 0.27539005E+03</pdfrwt>
<pdfrwt beam="2">  1       -1 0.35817410E-02 0.27539005E+03</pdfrwt>
<totfact> 0.64864268E+03</totfact>
</mgrwt>
</event>
<event>
 5    1  0.1108889E+001  0.2754973E+03  0.7818608E-02  0.1098174E+00
         -2   -1    0    0    0  501 -0.00000000000E+00  0.00000000000E+00  0.66231355387E+01  0.66231355387E+01  0.00000000000E+00 0. -1.
          2   -1    0    0  501    0  0.00000000000E+00 -0.00000000000E+00 -0.28649098482E+04  0.28649098482E+04  0.00000000000E+00 0. -1.
         35    2    1    2    0    0  0.00000000000E+00  0.00000000000E+00 -0.28582867127E+04  0.28715329838E+04  0.27549726845E+03 0.  0.
         25    1    3    3    0    0 -0.56668876252E+02 -0.13143905411E+02 -0.17887871761E+04  0.17937512886E+04  0.12000000000E+03 0.  0.
         25    1    3    3    0    0  0.56668876252E+02  0.13143905411E+02 -0.10694995365E+04  0.10777816952E+04  0.12000000000E+03 0.  0.
<mgrwt>
<rscale>  0 0.27549727E+03</rscale>
<asrwt>0</asrwt>
<pdfrwt beam="1">  1        2 0.44075517E+00 0.27549727E+03</pdfrwt>
<pdfrwt beam="2">  1       -2 0.10189444E-02 0.27549727E+03</pdfrwt>
<totfact> 0.51865423E+03</totfact>
</mgrwt>
</event>
<event>
 5    1  0.1108889E+001  0.2735342E+03  0.7818608E-02  0.1099274E+00
         -1   -1    0    0    0  501 -0.00000000000E+00  0.00000000000E+00  0.10667305680E+03  0.10667305680E+03  0.00000000000E+00 0. -1.
          1   -1    0    0  501    0  0.00000000000E+00 -0.00000000000E+00 -0.17535117180E+03  0.17535117180E+03  0.00000000000E+00 0. -1.
         35    2    1    2    0    0  0.00000000000E+00  0.00000000000E+00 -0.68678115002E+02  0.28202422860E+03  0.27353424290E+03 0.  0.
         25    1    3    3    0    0  0.14715282385E+02 -0.51192101626E+02 -0.73843760024E+02  0.15063223991E+03  0.12000000000E+03 0.  0.
         25    1    3    3    0    0 -0.14715282385E+02  0.51192101626E+02  0.51656450220E+01  0.13139198869E+03  0.12000000000E+03 0.  0.
<mgrwt>
<rscale>  0 0.27353424E+03</rscale>
<asrwt>0</asrwt>
<pdfrwt beam="1">  1        1 0.26977103E-01 0.27353424E+03</pdfrwt>
<pdfrwt beam="2">  1       -1 0.16411240E-01 0.27353424E+03</pdfrwt>
<totfact> 0.47921554E+03</totfact>
</mgrwt>
</event>
<event>
 5    1  0.1108889E+001  0.2781566E+03  0.7818608E-02  0.1096700E+00
          2   -1    0    0  501    0  0.00000000000E+00  0.00000000000E+00  0.26122653026E+03  0.26122653026E+03  0.00000000000E+00 0. -1.
         -2   -1    0    0    0  501 -0.00000000000E+00 -0.00000000000E+00 -0.74045968912E+02  0.74045968912E+02  0.00000000000E+00 0. -1.
         35    2    1    2    0    0  0.00000000000E+00  0.00000000000E+00  0.18718056135E+03  0.33527249917E+03  0.27815658568E+03 0.  0.
         25    1    3    3    0    0 -0.47758765957E+01  0.68674906455E+02  0.11079411169E+03  0.17724104197E+03  0.12000000000E+03 0.  0.
         25    1    3    3    0    0  0.47758765957E+01 -0.68674906455E+02  0.76386449664E+02  0.15803145720E+03  0.12000000000E+03 0.  0.
<mgrwt>
<rscale>  0 0.27815659E+03</rscale>
<asrwt>0</asrwt>
<pdfrwt beam="1">  1        2 0.40188696E-01 0.27815659E+03</pdfrwt>
<pdfrwt beam="2">  1       -2 0.11391688E-01 0.27815659E+03</pdfrwt>
<totfact> 0.67916895E+03</totfact>
</mgrwt>
</event>
<event>
 5    1  0.1108889E+001  0.2741795E+03  0.7818608E-02  0.1098911E+00
         -1   -1    0    0    0  501 -0.00000000000E+00  0.00000000000E+00  0.37872950394E+02  0.37872950394E+02  0.00000000000E+00 0.  1.
          1   -1    0    0  501    0  0.00000000000E+00 -0.00000000000E+00 -0.49622733782E+03  0.49622733782E+03  0.00000000000E+00 0.  1.
         35    2    1    2    0    0  0.00000000000E+00  0.00000000000E+00 -0.45835438743E+03  0.53410028821E+03  0.27417945473E+03 0.  0.
         25    1    3    3    0    0  0.15362002610E+02 -0.48765227254E+02 -0.31135292762E+03  0.33757174653E+03  0.12000000000E+03 0.  0.
         25    1    3    3    0    0 -0.15362002610E+02  0.48765227254E+02 -0.14700145980E+03  0.19652854169E+03  0.12000000000E+03 0.  0.
<mgrwt>
<rscale>  0 0.27417945E+03</rscale>
<asrwt>0</asrwt>
<pdfrwt beam="1">  1        1 0.76342663E-01 0.27417945E+03</pdfrwt>
<pdfrwt beam="2">  1       -1 0.58266081E-02 0.27417945E+03</pdfrwt>
<totfact> 0.63406879E+03</totfact>
</mgrwt>
</event>
<event>
 5    1  0.1108889E+001  0.2738468E+03  0.7818608E-02  0.1099098E+00
         -1   -1    0    0    0  501 -0.00000000000E+00  0.00000000000E+00  0.14850925119E+03  0.14850925119E+03  0.00000000000E+00 0.  1.
          1   -1    0    0  501    0  0.00000000000E+00 -0.00000000000E+00 -0.12624144080E+03  0.12624144080E+03  0.00000000000E+00 0.  1.
         35    2    1    2    0    0  0.00000000000E+00  0.00000000000E+00  0.22267810389E+02  0.27475069200E+03  0.27384683196E+03 0.  0.
         25    1    3    3    0    0 -0.46676934883E+02 -0.46423084810E+02  0.73554706214E+01  0.13706911396E+03  0.12000000000E+03 0.  0.
         25    1    3    3    0    0  0.46676934883E+02  0.46423084810E+02  0.14912339768E+02  0.13768157804E+03  0.12000000000E+03 0.  0.
<mgrwt>
<rscale>  0 0.27384683E+03</rscale>
<asrwt>0</asrwt>
<pdfrwt beam="1">  1        1 0.19421760E-01 0.27384683E+03</pdfrwt>
<pdfrwt beam="2">  1       -1 0.22847577E-01 0.27384683E+03</pdfrwt>
<totfact> 0.42665772E+03</totfact>
</mgrwt>
</event>
<event>
 5    1  0.1108889E+001  0.2760666E+03  0.7818608E-02  0.1097857E+00
          1   -1    0    0  501    0  0.00000000000E+00  0.00000000000E+00  0.11882597304E+03  0.11882597304E+03  0.00000000000E+00 0.  1.
         -1   -1    0    0    0  501 -0.00000000000E+00 -0.00000000000E+00 -0.16034536144E+03  0.16034536144E+03  0.00000000000E+00 0.  1.
         35    2    1    2    0    0  0.00000000000E+00  0.00000000000E+00 -0.41519388401E+02  0.27917133448E+03  0.27606661222E+03 0.  0.
         25    1    3    3    0    0  0.35707569768E+02  0.18307819312E+02  0.35023961484E+02  0.13128931664E+03  0.12000000000E+03 0.  0.
         25    1    3    3    0    0 -0.35707569768E+02 -0.18307819312E+02 -0.76543349885E+02  0.14788201783E+03  0.12000000000E+03 0.  0.
<mgrwt>
<rscale>  0 0.27606661E+03</rscale>
<asrwt>0</asrwt>
<pdfrwt beam="1">  1        1 0.18280919E-01 0.27606661E+03</pdfrwt>
<pdfrwt beam="2">  1       -1 0.24668517E-01 0.27606661E+03</pdfrwt>
<totfact> 0.40654518E+03</totfact>
</mgrwt>
</event>
<event>
 5    1  0.1108889E+001  0.2737589E+03  0.7818608E-02  0.1099147E+00
          3   -1    0    0  501    0  0.00000000000E+00  0.00000000000E+00  0.10322612907E+04  0.10322612907E+04  0.00000000000E+00 0.  1.
         -3   -1    0    0    0  501 -0.00000000000E+00 -0.00000000000E+00 -0.18150424490E+02  0.18150424490E+02  0.00000000000E+00 0.  1.
         35    2    1    2    0    0  0.00000000000E+00  0.00000000000E+00  0.10141108662E+04  0.10504117152E+04  0.27375887646E+03 0.  0.
         25    1    3    3    0    0 -0.22123662063E+02 -0.53688888702E+02  0.62618951978E+03  0.64022282674E+03  0.12000000000E+03 0.  0.
         25    1    3    3    0    0  0.22123662063E+02  0.53688888702E+02  0.38792134640E+03  0.41018888842E+03  0.12000000000E+03 0.  0.
<mgrwt>
<rscale>  0 0.27375888E+03</rscale>
<asrwt>0</asrwt>
<pdfrwt beam="1">  1        3 0.15880938E+00 0.27375888E+03</pdfrwt>
<pdfrwt beam="2">  1       -3 0.27923738E-02 0.27375888E+03</pdfrwt>
<totfact> 0.42864012E+02</totfact>
</mgrwt>
</event>
<event>
 5    1  0.1108889E+001  0.2750518E+03  0.7818608E-02  0.1098423E+00
          2   -1    0    0  501    0  0.00000000000E+00  0.00000000000E+00  0.53967707175E+03  0.53967707175E+03  0.00000000000E+00 0.  1.
         -2   -1    0    0    0  501 -0.00000000000E+00 -0.00000000000E+00 -0.35045716393E+02  0.35045716393E+02  0.00000000000E+00 0.  1.
         35    2    1    2    0    0  0.00000000000E+00  0.00000000000E+00  0.50463135536E+03  0.57472278815E+03  0.27505177404E+03 0.  0.
         25    1    3    3    0    0  0.39855475089E+02 -0.38438201929E+02  0.33181081290E+03  0.35716154583E+03  0.12000000000E+03 0.  0.
         25    1    3    3    0    0 -0.39855475089E+02  0.38438201929E+02  0.17282054246E+03  0.21756124232E+03  0.12000000000E+03 0.  0.
<mgrwt>
<rscale>  0 0.27505177E+03</rscale>
<asrwt>0</asrwt>
<pdfrwt beam="1">  1        2 0.83027236E-01 0.27505177E+03</pdfrwt>
<pdfrwt beam="2">  1       -2 0.53916491E-02 0.27505177E+03</pdfrwt>
<totfact> 0.99015662E+03</totfact>
</mgrwt>
</event>
<event>
 5    1  0.1108889E+001  0.2746382E+03  0.7818608E-02  0.1098654E+00
          1   -1    0    0  501    0  0.00000000000E+00  0.00000000000E+00  0.10919718936E+03  0.10919718936E+03  0.00000000000E+00 0.  1.
         -1   -1    0    0    0  501 -0.00000000000E+00 -0.00000000000E+00 -0.17268332921E+03  0.17268332921E+03  0.00000000000E+00 0.  1.
         35    2    1    2    0    0  0.00000000000E+00  0.00000000000E+00 -0.63486139850E+02  0.28188051858E+03  0.27463819254E+03 0.  0.
         25    1    3    3    0    0 -0.50280098688E+02  0.19020433875E+02 -0.72368011614E+02  0.15008995414E+03  0.12000000000E+03 0.  0.
         25    1    3    3    0    0  0.50280098688E+02 -0.19020433875E+02  0.88818717649E+01  0.13179056444E+03  0.12000000000E+03 0.  0.
<mgrwt>
<rscale>  0 0.27463819E+03</rscale>
<asrwt>0</asrwt>
<pdfrwt beam="1">  1        1 0.16799568E-01 0.27463819E+03</pdfrwt>
<pdfrwt beam="2">  1       -1 0.26566666E-01 0.27463819E+03</pdfrwt>
<totfact> 0.40090356E+03</totfact>
</mgrwt>
</event>
<event>
 5    1  0.1108889E+001  0.2759393E+03  0.7818608E-02  0.1097928E+00
         -2   -1    0    0    0  501 -0.00000000000E+00  0.00000000000E+00  0.48034313348E+02  0.48034313348E+02  0.00000000000E+00 0.  1.
          2   -1    0    0  501    0  0.00000000000E+00 -0.00000000000E+00 -0.39629219464E+03  0.39629219464E+03  0.00000000000E+00 0.  1.
         35    2    1    2    0    0  0.00000000000E+00  0.00000000000E+00 -0.34825788129E+03  0.44432650799E+03  0.27593929372E+03 0.  0.
         25    1    3    3    0    0  0.28052540236E+02  0.51376253183E+02 -0.11813637209E+03  0.17827693854E+03  0.12000000000E+03 0.  0.
         25    1    3    3    0    0 -0.28052540236E+02 -0.51376253183E+02 -0.23012150920E+03  0.26604956945E+03  0.12000000000E+03 0.  0.
<mgrwt>
<rscale>  0 0.27593929E+03</rscale>
<asrwt>0</asrwt>
<pdfrwt beam="1">  1        2 0.60968031E-01 0.27593929E+03</pdfrwt>
<pdfrwt beam="2">  1       -2 0.73898942E-02 0.27593929E+03</pdfrwt>
<totfact> 0.85801627E+03</totfact>
</mgrwt>
</event>
<event>
 5    1  0.1108889E+001  0.2732117E+03  0.7818608E-02  0.1099455E+00
         -2   -1    0    0    0  501 -0.00000000000E+00  0.00000000000E+00  0.49237241106E+01  0.49237241106E+01  0.00000000000E+00 0.  1.
          2   -1    0    0  501    0  0.00000000000E+00 -0.00000000000E+00 -0.37900492570E+04  0.37900492570E+04  0.00000000000E+00 0.  1.
         35    2    1    2    0    0  0.00000000000E+00  0.00000000000E+00 -0.37851255329E+04  0.37949729811E+04  0.27321169014E+03 0.  0.
         25    1    3    3    0    0 -0.31415187099E+02 -0.57219557592E+02 -0.18869178732E+04  0.18918562451E+04  0.12000000000E+03 0.  0.
         25    1    3    3    0    0  0.31415187099E+02  0.57219557592E+02 -0.18982076596E+04  0.19031167360E+04  0.12000000000E+03 0.  0.
<mgrwt>
<rscale>  0 0.27321169E+03</rscale>
<asrwt>0</asrwt>
<pdfrwt beam="1">  1        2 0.58308558E+00 0.27321169E+03</pdfrwt>
<pdfrwt beam="2">  1       -2 0.75749461E-03 0.27321169E+03</pdfrwt>
<totfact> 0.20423430E+03</totfact>
</mgrwt>
</event>
<event>
 5    1  0.1108889E+001  0.2755736E+03  0.7818608E-02  0.1098131E+00
         -2   -1    0    0    0  501 -0.00000000000E+00  0.00000000000E+00  0.48281841033E+02  0.48281841033E+02  0.00000000000E+00 0. -1.
          2   -1    0    0  501    0  0.00000000000E+00 -0.00000000000E+00 -0.39321629215E+03  0.39321629215E+03  0.00000000000E+00 0. -1.
         35    2    1    2    0    0  0.00000000000E+00  0.00000000000E+00 -0.34493445112E+03  0.44149813319E+03  0.27557363088E+03 0.  0.
         25    1    3    3    0    0  0.45772795743E+02 -0.45280475120E+02 -0.13887124290E+03  0.19450113717E+03  0.12000000000E+03 0.  0.
         25    1    3    3    0    0 -0.45772795743E+02  0.45280475120E+02 -0.20606320822E+03  0.24699699601E+03  0.12000000000E+03 0.  0.
<mgrwt>
<rscale>  0 0.27557363E+03</rscale>
<asrwt>0</asrwt>
<pdfrwt beam="1">  1        2 0.60494812E-01 0.27557363E+03</pdfrwt>
<pdfrwt beam="2">  1       -2 0.74279759E-02 0.27557363E+03</pdfrwt>
<totfact> 0.85837734E+03</totfact>
</mgrwt>
</event>
<event>
 5    1  0.1108889E+001  0.2775061E+03  0.7818608E-02  0.1097059E+00
         -2   -1    0    0    0  501 -0.00000000000E+00  0.00000000000E+00  0.24601477796E+02  0.24601477796E+02  0.00000000000E+00 0.  1.
          2   -1    0    0  501    0  0.00000000000E+00 -0.00000000000E+00 -0.78257151193E+03  0.78257151193E+03  0.00000000000E+00 0.  1.
         35    2    1    2    0    0  0.00000000000E+00  0.00000000000E+00 -0.75797003413E+03  0.80717298972E+03  0.27750614894E+03 0.  0.
         25    1    3    3    0    0  0.56548046457E+02 -0.39644222970E+02 -0.40549535939E+03  0.42848084258E+03  0.12000000000E+03 0.  0.
         25    1    3    3    0    0 -0.56548046457E+02  0.39644222970E+02 -0.35247467475E+03  0.37869214715E+03  0.12000000000E+03 0.  0.
<mgrwt>
<rscale>  0 0.27750615E+03</rscale>
<asrwt>0</asrwt>
<pdfrwt beam="1">  1        2 0.12039561E+00 0.27750615E+03</pdfrwt>
<pdfrwt beam="2">  1       -2 0.37848430E-02 0.27750615E+03</pdfrwt>
<totfact> 0.10868655E+04</totfact>
</mgrwt>
</event>
<event>
 5    1  0.1108889E+001  0.2793335E+03  0.7818608E-02  0.1096054E+00
         -1   -1    0    0    0  501 -0.00000000000E+00  0.00000000000E+00  0.68925794639E+03  0.68925794639E+03  0.00000000000E+00 0. -1.
          1   -1    0    0  501    0  0.00000000000E+00 -0.00000000000E+00 -0.28301170100E+02  0.28301170100E+02  0.00000000000E+00 0. -1.
         35    2    1    2    0    0  0.00000000000E+00  0.00000000000E+00  0.66095677628E+03  0.71755911649E+03  0.27933353815E+03 0.  0.
         25    1    3    3    0    0 -0.35891031240E+01  0.69115934894E+02  0.28474807991E+03  0.31665653811E+03  0.12000000000E+03 0.  0.
         25    1    3    3    0    0  0.35891031240E+01 -0.69115934894E+02  0.37620869637E+03  0.40090257837E+03  0.12000000000E+03 0.  0.
<mgrwt>
<rscale>  0 0.27933354E+03</rscale>
<asrwt>0</asrwt>
<pdfrwt beam="1">  1        1 0.43540267E-02 0.27933354E+03</pdfrwt>
<pdfrwt beam="2">  1       -1 0.10603967E+00 0.27933354E+03</pdfrwt>
<totfact> 0.17815590E+03</totfact>
</mgrwt>
</event>
<event>
 5    1  0.1108889E+001  0.2752643E+03  0.7818608E-02  0.1098304E+00
         -2   -1    0    0    0  501 -0.00000000000E+00  0.00000000000E+00  0.10583326481E+02  0.10583326481E+02  0.00000000000E+00 0. -1.
          2   -1    0    0  501    0  0.00000000000E+00 -0.00000000000E+00 -0.17898534231E+04  0.17898534231E+04  0.00000000000E+00 0. -1.
         35    2    1    2    0    0  0.00000000000E+00  0.00000000000E+00 -0.17792700966E+04  0.18004367496E+04  0.27526425942E+03 0.  0.
         25    1    3    3    0    0 -0.22932503911E+02 -0.99397015382E+01 -0.12990418315E+04  0.13048120085E+04  0.12000000000E+03 0.  0.
         25    1    3    3    0    0  0.22932503911E+02  0.99397015382E+01 -0.48022826507E+03  0.49562474108E+03  0.12000000000E+03 0.  0.
<mgrwt>
<rscale>  0 0.27526426E+03</rscale>
<asrwt>0</asrwt>
<pdfrwt beam="1">  1        2 0.27536210E+00 0.27526426E+03</pdfrwt>
<pdfrwt beam="2">  1       -2 0.16282038E-02 0.27526426E+03</pdfrwt>
<totfact> 0.10023289E+04</totfact>
</mgrwt>
</event>
<event>
 5    1  0.1108889E+001  0.2756464E+03  0.7818608E-02  0.1098091E+00
         -1   -1    0    0    0  501 -0.00000000000E+00  0.00000000000E+00  0.54842380945E+02  0.54842380945E+02  0.00000000000E+00 0.  1.
          1   -1    0    0  501    0  0.00000000000E+00 -0.00000000000E+00 -0.34636058784E+03  0.34636058784E+03  0.00000000000E+00 0.  1.
         35    2    1    2    0    0  0.00000000000E+00  0.00000000000E+00 -0.29151820690E+03  0.40120296879E+03  0.27564643515E+03 0.  0.
         25    1    3    3    0    0  0.28195083090E+02 -0.32653284809E+02 -0.22186427282E+03  0.25590028384E+03  0.12000000000E+03 0.  0.
         25    1    3    3    0    0 -0.28195083090E+02  0.32653284809E+02 -0.69653934083E+02  0.14530268495E+03  0.12000000000E+03 0.  0.
<mgrwt>
<rscale>  0 0.27564644E+03</rscale>
<asrwt>0</asrwt>
<pdfrwt beam="1">  1        1 0.53286244E-01 0.27564644E+03</pdfrwt>
<pdfrwt beam="2">  1       -1 0.84372895E-02 0.27564644E+03</pdfrwt>
<totfact> 0.57503368E+03</totfact>
</mgrwt>
</event>
<event>
 5    1  0.1108889E+001  0.2768494E+03  0.7818608E-02  0.1097422E+00
         -2   -1    0    0    0  501 -0.00000000000E+00  0.00000000000E+00  0.15833149753E+02  0.15833149753E+02  0.00000000000E+00 0.  1.
          2   -1    0    0  501    0  0.00000000000E+00 -0.00000000000E+00 -0.12102078614E+04  0.12102078614E+04  0.00000000000E+00 0.  1.
         35    2    1    2    0    0  0.00000000000E+00  0.00000000000E+00 -0.11943747117E+04  0.12260410112E+04  0.27684943419E+03 0.  0.
         25    1    3    3    0    0  0.42581313735E+02  0.47869584558E+02 -0.48369749436E+03  0.50246187065E+03  0.12000000000E+03 0.  0.
         25    1    3    3    0    0 -0.42581313735E+02 -0.47869584558E+02 -0.71067721733E+03  0.72357914055E+03  0.12000000000E+03 0.  0.
<mgrwt>
<rscale>  0 0.27684943E+03</rscale>
<asrwt>0</asrwt>
<pdfrwt beam="1">  1        2 0.18618591E+00 0.27684943E+03</pdfrwt>
<pdfrwt beam="2">  1       -2 0.24358680E-02 0.27684943E+03</pdfrwt>
<totfact> 0.11375169E+04</totfact>
</mgrwt>
</event>
<event>
 5    1  0.1108889E+001  0.2732337E+03  0.7818608E-02  0.1099443E+00
          2   -1    0    0  501    0  0.00000000000E+00  0.00000000000E+00  0.52074312889E+03  0.52074312889E+03  0.00000000000E+00 0.  1.
         -2   -1    0    0    0  501 -0.00000000000E+00 -0.00000000000E+00 -0.35841388662E+02  0.35841388662E+02  0.00000000000E+00 0.  1.
         35    2    1    2    0    0  0.00000000000E+00  0.00000000000E+00  0.48490174023E+03  0.55658451756E+03  0.27323365002E+03 0.  0.
         25    1    3    3    0    0 -0.31190377174E+02 -0.29756493186E+02  0.34236637060E+03  0.36533959576E+03  0.12000000000E+03 0.  0.
         25    1    3    3    0    0  0.31190377174E+02  0.29756493186E+02  0.14253536963E+03  0.19124492179E+03  0.12000000000E+03 0.  0.
<mgrwt>
<rscale>  0 0.27323365E+03</rscale>
<asrwt>0</asrwt>
<pdfrwt beam="1">  1        2 0.80114322E-01 0.27323365E+03</pdfrwt>
<pdfrwt beam="2">  1       -2 0.55140602E-02 0.27323365E+03</pdfrwt>
<totfact> 0.99597888E+03</totfact>
</mgrwt>
</event>
<event>
 5    1  0.1108889E+001  0.2724653E+03  0.7818608E-02  0.1099877E+00
          2   -1    0    0  501    0  0.00000000000E+00  0.00000000000E+00  0.13117337920E+04  0.13117337920E+04  0.00000000000E+00 0. -1.
         -2   -1    0    0    0  501 -0.00000000000E+00 -0.00000000000E+00 -0.14148706881E+02  0.14148706881E+02  0.00000000000E+00 0. -1.
         35    2    1    2    0    0  0.00000000000E+00  0.00000000000E+00  0.12975850852E+04  0.13258824989E+04  0.27246531470E+03 0.  0.
         25    1    3    3    0    0 -0.43879039302E+01  0.47836578512E+02  0.85819626761E+03  0.86787581237E+03  0.12000000000E+03 0.  0.
         25    1    3    3    0    0  0.43879039302E+01 -0.47836578512E+02  0.43938881755E+03  0.45800668656E+03  0.12000000000E+03 0.  0.
<mgrwt>
<rscale>  0 0.27246531E+03</rscale>
<asrwt>0</asrwt>
<pdfrwt beam="1">  1        2 0.20180510E+00 0.27246531E+03</pdfrwt>
<pdfrwt beam="2">  1       -2 0.21767252E-02 0.27246531E+03</pdfrwt>
<totfact> 0.11779885E+04</totfact>
</mgrwt>
</event>
<event>
 5    1  0.1108889E+001  0.2752482E+03  0.7818608E-02  0.1098313E+00
         -2   -1    0    0    0  501 -0.00000000000E+00  0.00000000000E+00  0.60780065772E+03  0.60780065772E+03  0.00000000000E+00 0. -1.
          2   -1    0    0  501    0  0.00000000000E+00 -0.00000000000E+00 -0.31162176539E+02  0.31162176539E+02  0.00000000000E+00 0. -1.
         35    2    1    2    0    0  0.00000000000E+00  0.00000000000E+00  0.57663848118E+03  0.63896283426E+03  0.27524818907E+03 0.  0.
         25    1    3    3    0    0  0.19878329683E+01 -0.65593651418E+02  0.32382330974E+03  0.35152242392E+03  0.12000000000E+03 0.  0.
         25    1    3    3    0    0 -0.19878329683E+01  0.65593651418E+02  0.25281517144E+03  0.28744041034E+03  0.12000000000E+03 0.  0.
<mgrwt>
<rscale>  0 0.27524819E+03</rscale>
<asrwt>0</asrwt>
<pdfrwt beam="1">  1        2 0.47941815E-02 0.27524819E+03</pdfrwt>
<pdfrwt beam="2">  1       -2 0.93507784E-01 0.27524819E+03</pdfrwt>
<totfact> 0.16636574E+03</totfact>
</mgrwt>
</event>
<event>
 5    1  0.1108889E+001  0.2753028E+03  0.7818608E-02  0.1098282E+00
          1   -1    0    0  501    0  0.00000000000E+00  0.00000000000E+00  0.90270154009E+03  0.90270154009E+03  0.00000000000E+00 0.  1.
         -1   -1    0    0    0  501 -0.00000000000E+00 -0.00000000000E+00 -0.20990218214E+02  0.20990218214E+02  0.00000000000E+00 0.  1.
         35    2    1    2    0    0  0.00000000000E+00  0.00000000000E+00  0.88171132187E+03  0.92369175830E+03  0.27530275922E+03 0.  0.
         25    1    3    3    0    0 -0.49252556156E+02 -0.40071508203E+02  0.51709756732E+03  0.53462270264E+03  0.12000000000E+03 0.  0.
         25    1    3    3    0    0  0.49252556156E+02  0.40071508203E+02  0.36461375455E+03  0.38906905565E+03  0.12000000000E+03 0.  0.
<mgrwt>
<rscale>  0 0.27530276E+03</rscale>
<asrwt>0</asrwt>
<pdfrwt beam="1">  1        1 0.13887713E+00 0.27530276E+03</pdfrwt>
<pdfrwt beam="2">  1       -1 0.32292650E-02 0.27530276E+03</pdfrwt>
<totfact> 0.64195119E+03</totfact>
</mgrwt>
</event>
<event>
 5    1  0.1108889E+001  0.2753855E+03  0.7818608E-02  0.1098236E+00
          1   -1    0    0  501    0  0.00000000000E+00  0.00000000000E+00  0.83490895411E+02  0.83490895411E+02  0.00000000000E+00 0. -1.
         -1   -1    0    0    0  501 -0.00000000000E+00 -0.00000000000E+00 -0.22708216279E+03  0.22708216279E+03  0.00000000000E+00 0. -1.
         35    2    1    2    0    0  0.00000000000E+00  0.00000000000E+00 -0.14359126738E+03  0.31057305820E+03  0.27538549783E+03 0.  0.
         25    1    3    3    0    0  0.48334751402E+02 -0.52382247347E+01 -0.18951119670E+02  0.13085424001E+03  0.12000000000E+03 0.  0.
         25    1    3    3    0    0 -0.48334751402E+02  0.52382247347E+01 -0.12464014771E+03  0.17971881819E+03  0.12000000000E+03 0.  0.
<mgrwt>
<rscale>  0 0.27538550E+03</rscale>
<asrwt>0</asrwt>
<pdfrwt beam="1">  1        1 0.12844753E-01 0.27538550E+03</pdfrwt>
<pdfrwt beam="2">  1       -1 0.34935717E-01 0.27538550E+03</pdfrwt>
<totfact> 0.35762622E+03</totfact>
</mgrwt>
</event>
<event>
 5    1  0.1108889E+001  0.2753700E+03  0.7818608E-02  0.1098245E+00
          1   -1    0    0  501    0  0.00000000000E+00  0.00000000000E+00  0.57779114128E+02  0.57779114128E+02  0.00000000000E+00 0.  1.
         -1   -1    0    0    0  501 -0.00000000000E+00 -0.00000000000E+00 -0.32809697371E+03  0.32809697371E+03  0.00000000000E+00 0.  1.
         35    2    1    2    0    0  0.00000000000E+00  0.00000000000E+00 -0.27031785958E+03  0.38587608784E+03  0.27536995108E+03 0.  0.
         25    1    3    3    0    0  0.22596061907E+02  0.50640425024E+02 -0.81211260670E+02  0.15514607156E+03  0.12000000000E+03 0.  0.
         25    1    3    3    0    0 -0.22596061907E+02 -0.50640425024E+02 -0.18910659891E+03  0.23073001628E+03  0.12000000000E+03 0.  0.
<mgrwt>
<rscale>  0 0.27536995E+03</rscale>
<asrwt>0</asrwt>
<pdfrwt beam="1">  1        1 0.88890944E-02 0.27536995E+03</pdfrwt>
<pdfrwt beam="2">  1       -1 0.50476458E-01 0.27536995E+03</pdfrwt>
<totfact> 0.30279589E+03</totfact>
</mgrwt>
</event>
<event>
 5    1  0.1108889E+001  0.2822401E+03  0.7818608E-02  0.1094472E+00
          1   -1    0    0  501    0  0.00000000000E+00  0.00000000000E+00  0.11136683705E+03  0.11136683705E+03  0.00000000000E+00 0.  1.
         -1   -1    0    0    0  501 -0.00000000000E+00 -0.00000000000E+00 -0.17882228000E+03  0.17882228000E+03  0.00000000000E+00 0.  1.
         35    2    1    2    0    0  0.00000000000E+00  0.00000000000E+00 -0.67455442950E+02  0.29018911705E+03  0.28224012271E+03 0.  0.
         25    1    3    3    0    0  0.30858270102E+02  0.39361183106E+01  0.35603972489E+02  0.12897817148E+03  0.12000000000E+03 0.  0.
         25    1    3    3    0    0 -0.30858270102E+02 -0.39361183106E+01 -0.10305941544E+03  0.16121094557E+03  0.12000000000E+03 0.  0.
<mgrwt>
<rscale>  0 0.28224012E+03</rscale>
<asrwt>0</asrwt>
<pdfrwt beam="1">  1        1 0.17133360E-01 0.28224012E+03</pdfrwt>
<pdfrwt beam="2">  1       -1 0.27511120E-01 0.28224012E+03</pdfrwt>
<totfact> 0.36878467E+03</totfact>
</mgrwt>
</event>
<event>
 5    1  0.1108889E+001  0.2748025E+03  0.7818608E-02  0.1098562E+00
         -1   -1    0    0    0  501 -0.00000000000E+00  0.00000000000E+00  0.19467505552E+02  0.19467505552E+02  0.00000000000E+00 0.  1.
          1   -1    0    0  501    0  0.00000000000E+00 -0.00000000000E+00 -0.96977521523E+03  0.96977521523E+03  0.00000000000E+00 0.  1.
         35    2    1    2    0    0  0.00000000000E+00  0.00000000000E+00 -0.95030770967E+03  0.98924272078E+03  0.27480250644E+03 0.  0.
         25    1    3    3    0    0  0.75807424609E+01  0.46623889236E+02 -0.64582724166E+03  0.65857731571E+03  0.12000000000E+03 0.  0.
         25    1    3    3    0    0 -0.75807424609E+01 -0.46623889236E+02 -0.30448046802E+03  0.33066540507E+03  0.12000000000E+03 0.  0.
<mgrwt>
<rscale>  0 0.27480251E+03</rscale>
<asrwt>0</asrwt>
<pdfrwt beam="1">  1        1 0.14919619E+00 0.27480251E+03</pdfrwt>
<pdfrwt beam="2">  1       -1 0.29950008E-02 0.27480251E+03</pdfrwt>
<totfact> 0.63688532E+03</totfact>
</mgrwt>
</event>
<event>
 5    1  0.1108889E+001  0.2755733E+03  0.7818608E-02  0.1098132E+00
          2   -1    0    0  501    0  0.00000000000E+00  0.00000000000E+00  0.30680726715E+02  0.30680726715E+02  0.00000000000E+00 0.  1.
         -2   -1    0    0    0  501 -0.00000000000E+00 -0.00000000000E+00 -0.61879774862E+03  0.61879774862E+03  0.00000000000E+00 0.  1.
         35    2    1    2    0    0  0.00000000000E+00  0.00000000000E+00 -0.58811702191E+03  0.64947847534E+03  0.27557332685E+03 0.  0.
         25    1    3    3    0    0 -0.32781958335E+02  0.16839217020E+02 -0.16017607463E+03  0.20350575153E+03  0.12000000000E+03 0.  0.
         25    1    3    3    0    0  0.32781958335E+02 -0.16839217020E+02 -0.42794094728E+03  0.44597272381E+03  0.12000000000E+03 0.  0.
<mgrwt>
<rscale>  0 0.27557333E+03</rscale>
<asrwt>0</asrwt>
<pdfrwt beam="1">  1        2 0.47201124E-02 0.27557333E+03</pdfrwt>
<pdfrwt beam="2">  1       -2 0.95199641E-01 0.27557333E+03</pdfrwt>
<totfact> 0.16301448E+03</totfact>
</mgrwt>
</event>
<event>
 5    1  0.1108889E+001  0.2749101E+03  0.7818608E-02  0.1098502E+00
          2   -1    0    0  501    0  0.00000000000E+00  0.00000000000E+00  0.35626766451E+03  0.35626766451E+03  0.00000000000E+00 0. -1.
         -2   -1    0    0    0  501 -0.00000000000E+00 -0.00000000000E+00 -0.53032845147E+02  0.53032845147E+02  0.00000000000E+00 0. -1.
         35    2    1    2    0    0  0.00000000000E+00  0.00000000000E+00  0.30323481937E+03  0.40930050966E+03  0.27491007899E+03 0.  0.
         25    1    3    3    0    0  0.38887425953E+02  0.33926250138E+02  0.21531985823E+03  0.25184491993E+03  0.12000000000E+03 0.  0.
         25    1    3    3    0    0 -0.38887425953E+02 -0.33926250138E+02  0.87914961134E+02  0.15745558973E+03  0.12000000000E+03 0.  0.
<mgrwt>
<rscale>  0 0.27491008E+03</rscale>
<asrwt>0</asrwt>
<pdfrwt beam="1">  1        2 0.54810408E-01 0.27491008E+03</pdfrwt>
<pdfrwt beam="2">  1       -2 0.81588995E-02 0.27491008E+03</pdfrwt>
<totfact> 0.82501924E+03</totfact>
</mgrwt>
</event>
<event>
 4    1  0.1108889E+001  0.2552277E+03  0.7818608E-02  0.1110045E+00
          2   -1    0    0  501    0  0.00000000000E+00  0.00000000000E+00  0.75636091683E+03  0.75636091683E+03  0.00000000000E+00 0.  1.
         -2   -1    0    0    0  501 -0.00000000000E+00 -0.00000000000E+00 -0.21531122948E+02  0.21531122948E+02  0.00000000000E+00 0.  1.
         25    1    1    2    0    0  0.42703788926E+02  0.27735672751E+01  0.38981049740E+03  0.41010185338E+03  0.12000000000E+03 0.  0.
         25    1    1    2    0    0 -0.42703788926E+02 -0.27735672751E+01  0.34501929648E+03  0.36779018640E+03  0.12000000000E+03 0.  0.
<mgrwt>
<rscale>  0 0.25522774E+03</rscale>
<asrwt>0</asrwt>
<pdfrwt beam="1">  1        2 0.11636320E+00 0.25522774E+03</pdfrwt>
<pdfrwt beam="2">  1       -2 0.33124810E-02 0.25522774E+03</pdfrwt>
<totfact> 0.13801479E+04</totfact>
</mgrwt>
</event>
<event>
 5    1  0.1108889E+001  0.2750638E+03  0.7818608E-02  0.1098416E+00
         -1   -1    0    0    0  501 -0.00000000000E+00  0.00000000000E+00  0.12119836355E+03  0.12119836355E+03  0.00000000000E+00 0.  1.
          1   -1    0    0  501    0  0.00000000000E+00 -0.00000000000E+00 -0.15606660639E+03  0.15606660639E+03  0.00000000000E+00 0.  1.
         35    2    1    2    0    0  0.00000000000E+00  0.00000000000E+00 -0.34868242835E+02  0.27726496994E+03  0.27506375479E+03 0.  0.
         25    1    3    3    0    0 -0.16291638229E+02 -0.64120681328E+02 -0.29281391699E+02  0.14012237205E+03  0.12000000000E+03 0.  0.
         25    1    3    3    0    0  0.16291638229E+02  0.64120681328E+02 -0.55868511367E+01  0.13714259789E+03  0.12000000000E+03 0.  0.
<mgrwt>
<rscale>  0 0.27506375E+03</rscale>
<asrwt>0</asrwt>
<pdfrwt beam="1">  1        1 0.24010247E-01 0.27506375E+03</pdfrwt>
<pdfrwt beam="2">  1       -1 0.18645902E-01 0.27506375E+03</pdfrwt>
<totfact> 0.45279971E+03</totfact>
</mgrwt>
</event>
<event>
 5    1  0.1108889E+001  0.2745405E+03  0.7818608E-02  0.1098709E+00
         -1   -1    0    0    0  501 -0.00000000000E+00  0.00000000000E+00  0.25533879112E+03  0.25533879112E+03  0.00000000000E+00 0. -1.
          1   -1    0    0  501    0  0.00000000000E+00 -0.00000000000E+00 -0.73796529263E+02  0.73796529263E+02  0.00000000000E+00 0. -1.
         35    2    1    2    0    0  0.00000000000E+00  0.00000000000E+00  0.18154226186E+03  0.32913532038E+03  0.27454046384E+03 0.  0.
         25    1    3    3    0    0 -0.29399973036E+02  0.22995979461E+02  0.15697966840E+03  0.20108652311E+03  0.12000000000E+03 0.  0.
         25    1    3    3    0    0  0.29399973036E+02 -0.22995979461E+02  0.24562593460E+02  0.12804879727E+03  0.12000000000E+03 0.  0.
<mgrwt>
<rscale>  0 0.27454046E+03</rscale>
<asrwt>0</asrwt>
<pdfrwt beam="1">  1        1 0.11353312E-01 0.27454046E+03</pdfrwt>
<pdfrwt beam="2">  1       -1 0.39282890E-01 0.27454046E+03</pdfrwt>
<totfact> 0.34307026E+03</totfact>
</mgrwt>
</event>
<event>
 5    1  0.1108889E+001  0.2754499E+03  0.7818608E-02  0.1098200E+00
         -2   -1    0    0    0  501 -0.00000000000E+00  0.00000000000E+00  0.12521775452E+02  0.12521775452E+02  0.00000000000E+00 0. -1.
          2   -1    0    0  501    0  0.00000000000E+00 -0.00000000000E+00 -0.15148144894E+04  0.15148144894E+04  0.00000000000E+00 0. -1.
         35    2    1    2    0    0  0.00000000000E+00  0.00000000000E+00 -0.15022927139E+04  0.15273362648E+04  0.27544993655E+03 0.  0.
         25    1    3    3    0    0  0.63608276722E+02  0.14875353426E+02 -0.65496583775E+03  0.66906467373E+03  0.12000000000E+03 0.  0.
         25    1    3    3    0    0 -0.63608276722E+02 -0.14875353426E+02 -0.84732687616E+03  0.85827159109E+03  0.12000000000E+03 0.  0.
<mgrwt>
<rscale>  0 0.27544994E+03</rscale>
<asrwt>0</asrwt>
<pdfrwt beam="1">  1        2 0.23304834E+00 0.27544994E+03</pdfrwt>
<pdfrwt beam="2">  1       -2 0.19264273E-02 0.27544994E+03</pdfrwt>
<totfact> 0.10944957E+04</totfact>
</mgrwt>
</event>
<event>
 5    1  0.1108889E+001  0.2747118E+03  0.7818608E-02  0.1098613E+00
          1   -1    0    0  501    0  0.00000000000E+00  0.00000000000E+00  0.13752597832E+04  0.13752597832E+04  0.00000000000E+00 0.  1.
         -1   -1    0    0    0  501 -0.00000000000E+00 -0.00000000000E+00 -0.13718605135E+02  0.13718605135E+02  0.00000000000E+00 0.  1.
         35    2    1    2    0    0  0.00000000000E+00  0.00000000000E+00  0.13615411781E+04  0.13889783883E+04  0.27471181936E+03 0.  0.
         25    1    3    3    0    0  0.13687842658E+02  0.26161243062E+02  0.37761872958E+03  0.39732565057E+03  0.12000000000E+03 0.  0.
         25    1    3    3    0    0 -0.13687842658E+02 -0.26161243062E+02  0.98392244849E+03  0.99165273777E+03  0.12000000000E+03 0.  0.
<mgrwt>
<rscale>  0 0.27471182E+03</rscale>
<asrwt>0</asrwt>
<pdfrwt beam="1">  1        1 0.21157832E+00 0.27471182E+03</pdfrwt>
<pdfrwt beam="2">  1       -1 0.21105557E-02 0.27471182E+03</pdfrwt>
<totfact> 0.54956864E+03</totfact>
</mgrwt>
</event>
<event>
 5    1  0.1108889E+001  0.2776542E+03  0.7818608E-02  0.1096977E+00
         -2   -1    0    0    0  501 -0.00000000000E+00  0.00000000000E+00  0.95464738313E+02  0.95464738313E+02  0.00000000000E+00 0.  1.
          2   -1    0    0  501    0  0.00000000000E+00 -0.00000000000E+00 -0.20188562027E+03  0.20188562027E+03  0.00000000000E+00 0.  1.
         35    2    1    2    0    0  0.00000000000E+00  0.00000000000E+00 -0.10642088195E+03  0.29735035858E+03  0.27765415832E+03 0.  0.
         25    1    3    3    0    0  0.59836872017E+02 -0.35816193825E+02 -0.49873835169E+02  0.14748101718E+03  0.12000000000E+03 0.  0.
         25    1    3    3    0    0 -0.59836872017E+02  0.35816193825E+02 -0.56547046784E+02  0.14986934140E+03  0.12000000000E+03 0.  0.
<mgrwt>
<rscale>  0 0.27765416E+03</rscale>
<asrwt>0</asrwt>
<pdfrwt beam="1">  1        2 0.31059326E-01 0.27765416E+03</pdfrwt>
<pdfrwt beam="2">  1       -2 0.14686883E-01 0.27765416E+03</pdfrwt>
<totfact> 0.59417482E+03</totfact>
</mgrwt>
</event>
<event>
 5    1  0.1108889E+001  0.2748894E+03  0.7818608E-02  0.1098513E+00
          2   -1    0    0  501    0  0.00000000000E+00  0.00000000000E+00  0.40113158026E+03  0.40113158026E+03  0.00000000000E+00 0.  1.
         -2   -1    0    0    0  501 -0.00000000000E+00 -0.00000000000E+00 -0.47094381287E+02  0.47094381287E+02  0.00000000000E+00 0.  1.
         35    2    1    2    0    0  0.00000000000E+00  0.00000000000E+00  0.35403719897E+03  0.44822596155E+03  0.27488938566E+03 0.  0.
         25    1    3    3    0    0 -0.49221604722E+02 -0.20571864416E+02  0.11088350648E+03  0.17187530359E+03  0.12000000000E+03 0.  0.
         25    1    3    3    0    0  0.49221604722E+02  0.20571864416E+02  0.24315369249E+03  0.27635065795E+03  0.12000000000E+03 0.  0.
<mgrwt>
<rscale>  0 0.27488939E+03</rscale>
<asrwt>0</asrwt>
<pdfrwt beam="1">  1        2 0.61712549E-01 0.27488939E+03</pdfrwt>
<pdfrwt beam="2">  1       -2 0.72452897E-02 0.27488939E+03</pdfrwt>
<totfact> 0.87303560E+03</totfact>
</mgrwt>
</event>
<event>
 5    1  0.1108889E+001  0.2744449E+03  0.7818608E-02  0.1098762E+00
          1   -1    0    0  501    0  0.00000000000E+00  0.00000000000E+00  0.35731395567E+03  0.35731395567E+03  0.00000000000E+00 0. -1.
         -1   -1    0    0    0  501 -0.00000000000E+00 -0.00000000000E+00 -0.52698767741E+02  0.52698767741E+02  0.00000000000E+00 0. -1.
         35    2    1    2    0    0  0.00000000000E+00  0.00000000000E+00  0.30461518793E+03  0.41001272342E+03  0.27444493190E+03 0.  0.
         25    1    3    3    0    0  0.42516300219E+02 -0.48772347267E+02  0.12898884272E+03  0.18768190959E+03  0.12000000000E+03 0.  0.
         25    1    3    3    0    0 -0.42516300219E+02  0.48772347267E+02  0.17562634521E+03  0.22233081382E+03  0.12000000000E+03 0.  0.
<mgrwt>
<rscale>  0 0.27444493E+03</rscale>
<asrwt>0</asrwt>
<pdfrwt beam="1">  1        1 0.54971376E-01 0.27444493E+03</pdfrwt>
<pdfrwt beam="2">  1       -1 0.81075030E-02 0.27444493E+03</pdfrwt>
<totfact> 0.58744756E+03</totfact>
</mgrwt>
</event>
<event>
 5    1  0.1108889E+001  0.2779497E+03  0.7818608E-02  0.1096814E+00
          2   -1    0    0  501    0  0.00000000000E+00  0.00000000000E+00  0.50926516758E+03  0.50926516758E+03  0.00000000000E+00 0.  1.
         -2   -1    0    0    0  501 -0.00000000000E+00 -0.00000000000E+00 -0.37925254321E+02  0.37925254321E+02  0.00000000000E+00 0.  1.
         35    2    1    2    0    0  0.00000000000E+00  0.00000000000E+00  0.47133991326E+03  0.54719042190E+03  0.27794971486E+03 0.  0.
         25    1    3    3    0    0  0.16024544634E+02 -0.45209512114E+02  0.13503034226E+03  0.18690607092E+03  0.12000000000E+03 0.  0.
         25    1    3    3    0    0 -0.16024544634E+02  0.45209512114E+02  0.33630957100E+03  0.36028435098E+03  0.12000000000E+03 0.  0.
<mgrwt>
<rscale>  0 0.27794971E+03</rscale>
<asrwt>0</asrwt>
<pdfrwt beam="1">  1        2 0.78348482E-01 0.27794971E+03</pdfrwt>
<pdfrwt beam="2">  1       -2 0.58346549E-02 0.27794971E+03</pdfrwt>
<totfact> 0.93730785E+03</totfact>
</mgrwt>
</event>
<event>
 5    1  0.1108889E+001  0.2734762E+03  0.7818608E-02  0.1099306E+00
         -3   -1    0    0    0  501 -0.00000000000E+00  0.00000000000E+00  0.40126365680E+03  0.40126365680E+03  0.00000000000E+00 0. -1.
          3   -1    0    0  501    0  0.00000000000E+00 -0.00000000000E+00 -0.46596077730E+02  0.46596077730E+02  0.00000000000E+00 0. -1.
         35    2    1    2    0    0  0.00000000000E+00  0.00000000000E+00  0.35466757907E+03  0.44785973453E+03  0.27347623328E+03 0.  0.
         25    1    3    3    0    0  0.58027215984E+02  0.20647088234E+02  0.21409367381E+03  0.25304063154E+03  0.12000000000E+03 0.  0.
         25    1    3    3    0    0 -0.58027215984E+02 -0.20647088234E+02  0.14057390526E+03  0.19481910298E+03  0.12000000000E+03 0.  0.
<mgrwt>
<rscale>  0 0.27347623E+03</rscale>
<asrwt>0</asrwt>
<pdfrwt beam="1">  1        3 0.71686276E-02 0.27347623E+03</pdfrwt>
<pdfrwt beam="2">  1       -3 0.61732868E-01 0.27347623E+03</pdfrwt>
<totfact> 0.84085518E+02</totfact>
</mgrwt>
</event>
<event>
 5    1  0.1108889E+001  0.2804696E+03  0.7818608E-02  0.1095433E+00
         -1   -1    0    0    0  501 -0.00000000000E+00  0.00000000000E+00  0.52055136351E+02  0.52055136351E+02  0.00000000000E+00 0. -1.
          1   -1    0    0  501    0  0.00000000000E+00 -0.00000000000E+00 -0.37778786041E+03  0.37778786041E+03  0.00000000000E+00 0. -1.
         35    2    1    2    0    0  0.00000000000E+00  0.00000000000E+00 -0.32573272406E+03  0.42984299677E+03  0.28046959611E+03 0.  0.
         25    1    3    3    0    0 -0.55417480271E+02 -0.37595579090E+02 -0.12002870356E+03  0.18245934990E+03  0.12000000000E+03 0.  0.
         25    1    3    3    0    0  0.55417480271E+02  0.37595579090E+02 -0.20570402050E+03  0.24738364687E+03  0.12000000000E+03 0.  0.
<mgrwt>
<rscale>  0 0.28046960E+03</rscale>
<asrwt>0</asrwt>
<pdfrwt beam="1">  1        1 0.58121211E-01 0.28046960E+03</pdfrwt>
<pdfrwt beam="2">  1       -1 0.80084823E-02 0.28046960E+03</pdfrwt>
<totfact> 0.55797495E+03</totfact>
</mgrwt>
</event>
<event>
 5    1  0.1108889E+001  0.2759364E+03  0.7818608E-02  0.1097929E+00
         -2   -1    0    0    0  501 -0.00000000000E+00  0.00000000000E+00  0.63057668831E+02  0.63057668831E+02  0.00000000000E+00 0.  1.
          2   -1    0    0  501    0  0.00000000000E+00 -0.00000000000E+00 -0.30187012863E+03  0.30187012863E+03  0.00000000000E+00 0.  1.
         35    2    1    2    0    0  0.00000000000E+00  0.00000000000E+00 -0.23881245980E+03  0.36492779746E+03  0.27593641732E+03 0.  0.
         25    1    3    3    0    0  0.55319084052E+02  0.38310390419E+02 -0.10570442553E+03  0.17349729868E+03  0.12000000000E+03 0.  0.
         25    1    3    3    0    0 -0.55319084052E+02 -0.38310390419E+02 -0.13310803427E+03  0.19143049878E+03  0.12000000000E+03 0.  0.
<mgrwt>
<rscale>  0 0.27593642E+03</rscale>
<asrwt>0</asrwt>
<pdfrwt beam="1">  1        2 0.46441559E-01 0.27593642E+03</pdfrwt>
<pdfrwt beam="2">  1       -2 0.97011797E-02 0.27593642E+03</pdfrwt>
<totfact> 0.75098044E+03</totfact>
</mgrwt>
</event>
<event>
 5    1  0.1108889E+001  0.2748787E+03  0.7818608E-02  0.1098519E+00
         -2   -1    0    0    0  501 -0.00000000000E+00  0.00000000000E+00  0.28459406676E+02  0.28459406676E+02  0.00000000000E+00 0.  1.
          2   -1    0    0  501    0  0.00000000000E+00 -0.00000000000E+00 -0.66373768547E+03  0.66373768547E+03  0.00000000000E+00 0.  1.
         35    2    1    2    0    0  0.00000000000E+00  0.00000000000E+00 -0.63527827879E+03  0.69219709214E+03  0.27487874212E+03 0.  0.
         25    1    3    3    0    0 -0.36461276802E+02 -0.16997047654E+02 -0.45257413602E+03  0.46993794583E+03  0.12000000000E+03 0.  0.
         25    1    3    3    0    0  0.36461276802E+02  0.16997047654E+02 -0.18270414277E+03  0.22225914631E+03  0.12000000000E+03 0.  0.
<mgrwt>
<rscale>  0 0.27487874E+03</rscale>
<asrwt>0</asrwt>
<pdfrwt beam="1">  1        2 0.10211349E+00 0.27487874E+03</pdfrwt>
<pdfrwt beam="2">  1       -2 0.43783704E-02 0.27487874E+03</pdfrwt>
<totfact> 0.10678103E+04</totfact>
</mgrwt>
</event>
<event>
 5    1  0.1108889E+001  0.2747902E+03  0.7818608E-02  0.1098569E+00
          2   -1    0    0  501    0  0.00000000000E+00  0.00000000000E+00  0.38001713870E+03  0.38001713870E+03  0.00000000000E+00 0. -1.
         -2   -1    0    0    0  501 -0.00000000000E+00 -0.00000000000E+00 -0.49675168268E+02  0.49675168268E+02  0.00000000000E+00 0. -1.
         35    2    1    2    0    0  0.00000000000E+00  0.00000000000E+00  0.33034197043E+03  0.42969230697E+03  0.27479021314E+03 0.  0.
         25    1    3    3    0    0 -0.16855983292E+02  0.64630227127E+02  0.17146962899E+03  0.21968847056E+03  0.12000000000E+03 0.  0.
         25    1    3    3    0    0  0.16855983292E+02 -0.64630227127E+02  0.15887234145E+03  0.21000383641E+03  0.12000000000E+03 0.  0.
<mgrwt>
<rscale>  0 0.27479021E+03</rscale>
<asrwt>0</asrwt>
<pdfrwt beam="1">  1        2 0.58464173E-01 0.27479021E+03</pdfrwt>
<pdfrwt beam="2">  1       -2 0.76423338E-02 0.27479021E+03</pdfrwt>
<totfact> 0.85207768E+03</totfact>
</mgrwt>
</event>
<event>
 5    1  0.1108889E+001  0.2743228E+03  0.7818608E-02  0.1098831E+00
         -2   -1    0    0    0  501 -0.00000000000E+00  0.00000000000E+00  0.28222409839E+03  0.28222409839E+03  0.00000000000E+00 0.  1.
          2   -1    0    0  501    0  0.00000000000E+00 -0.00000000000E+00 -0.66660679203E+02  0.66660679203E+02  0.00000000000E+00 0.  1.
         35    2    1    2    0    0  0.00000000000E+00  0.00000000000E+00  0.21556341919E+03  0.34888477759E+03  0.27432280318E+03 0.  0.
         25    1    3    3    0    0  0.18424196590E+02  0.60477327540E+02  0.81832800678E+02  0.15840948656E+03  0.12000000000E+03 0.  0.
         25    1    3    3    0    0 -0.18424196590E+02 -0.60477327540E+02  0.13373061851E+03  0.19047529103E+03  0.12000000000E+03 0.  0.
<mgrwt>
<rscale>  0 0.27432280E+03</rscale>
<asrwt>0</asrwt>
<pdfrwt beam="1">  1        2 0.10255489E-01 0.27432280E+03</pdfrwt>
<pdfrwt beam="2">  1       -2 0.43419091E-01 0.27432280E+03</pdfrwt>
<totfact> 0.31412670E+03</totfact>
</mgrwt>
</event>
<event>
 5    1  0.1108889E+001  0.2770878E+03  0.7818608E-02  0.1097290E+00
         -4   -1    0    0    0  501 -0.00000000000E+00  0.00000000000E+00  0.17207404691E+03  0.17207404691E+03  0.00000000000E+00 0.  1.
          4   -1    0    0  501    0  0.00000000000E+00 -0.00000000000E+00 -0.11154742296E+03  0.11154742296E+03  0.00000000000E+00 0.  1.
         35    2    1    2    0    0  0.00000000000E+00  0.00000000000E+00  0.60526623955E+02  0.28362146987E+03  0.27708783077E+03 0.  0.
         25    1    3    3    0    0 -0.21458379107E+02 -0.26317021431E+02  0.92029953309E+02  0.15499212869E+03  0.12000000000E+03 0.  0.
         25    1    3    3    0    0  0.21458379107E+02  0.26317021431E+02 -0.31503329354E+02  0.12862934118E+03  0.12000000000E+03 0.  0.
<mgrwt>
<rscale>  0 0.27708783E+03</rscale>
<asrwt>0</asrwt>
<pdfrwt beam="1">  1        4 0.17161142E-01 0.27708783E+03</pdfrwt>
<pdfrwt beam="2">  1       -4 0.26472930E-01 0.27708783E+03</pdfrwt>
<totfact> 0.75078510E+02</totfact>
</mgrwt>
</event>
<event>
 5    1  0.1108889E+001  0.2757349E+03  0.7818608E-02  0.1098041E+00
          4   -1    0    0  501    0  0.00000000000E+00  0.00000000000E+00  0.10630158948E+03  0.10630158948E+03  0.00000000000E+00 0.  1.
         -4   -1    0    0    0  501 -0.00000000000E+00 -0.00000000000E+00 -0.17880671383E+03  0.17880671383E+03  0.00000000000E+00 0.  1.
         35    2    1    2    0    0  0.00000000000E+00  0.00000000000E+00 -0.72505124353E+02  0.28510830331E+03  0.27573492989E+03 0.  0.
         25    1    3    3    0    0 -0.10400955474E+01 -0.16453639700E+02 -0.10433645481E+03  0.15986838293E+03  0.12000000000E+03 0.  0.
         25    1    3    3    0    0  0.10400955474E+01  0.16453639700E+02  0.31831330459E+02  0.12523992038E+03  0.12000000000E+03 0.  0.
<mgrwt>
<rscale>  0 0.27573493E+03</rscale>
<asrwt>0</asrwt>
<pdfrwt beam="1">  1        4 0.16354091E-01 0.27573493E+03</pdfrwt>
<pdfrwt beam="2">  1       -4 0.27508725E-01 0.27573493E+03</pdfrwt>
<totfact> 0.76054125E+02</totfact>
</mgrwt>
</event>
<event>
 5    1  0.1108889E+001  0.2748733E+03  0.7818608E-02  0.1098522E+00
          2   -1    0    0  501    0  0.00000000000E+00  0.00000000000E+00  0.99524672652E+03  0.99524672652E+03  0.00000000000E+00 0. -1.
         -2   -1    0    0    0  501 -0.00000000000E+00 -0.00000000000E+00 -0.18979044511E+02  0.18979044511E+02  0.00000000000E+00 0. -1.
         35    2    1    2    0    0  0.00000000000E+00  0.00000000000E+00  0.97626768201E+03  0.10142257710E+04  0.27487329388E+03 0.  0.
         25    1    3    3    0    0 -0.39270130192E+01  0.49711041486E+02  0.65323810937E+03  0.66603801438E+03  0.12000000000E+03 0.  0.
         25    1    3    3    0    0  0.39270130192E+01 -0.49711041486E+02  0.32302957265E+03  0.34818775665E+03  0.12000000000E+03 0.  0.
<mgrwt>
<rscale>  0 0.27487329E+03</rscale>
<asrwt>0</asrwt>
<pdfrwt beam="1">  1        2 0.15311484E+00 0.27487329E+03</pdfrwt>
<pdfrwt beam="2">  1       -2 0.29198538E-02 0.27487329E+03</pdfrwt>
<totfact> 0.11629409E+04</totfact>
</mgrwt>
</event>
<event>
 5    1  0.1108889E+001  0.2738249E+03  0.7818608E-02  0.1099110E+00
         -4   -1    0    0    0  501 -0.00000000000E+00  0.00000000000E+00  0.10970475985E+03  0.10970475985E+03  0.00000000000E+00 0. -1.
          4   -1    0    0  501    0  0.00000000000E+00 -0.00000000000E+00 -0.17086784075E+03  0.17086784075E+03  0.00000000000E+00 0. -1.
         35    2    1    2    0    0  0.00000000000E+00  0.00000000000E+00 -0.61163080903E+02  0.28057260060E+03  0.27382487422E+03 0.  0.
         25    1    3    3    0    0 -0.79704980994E+01  0.21822722565E+02  0.32625326667E+02  0.12650759661E+03  0.12000000000E+03 0.  0.
         25    1    3    3    0    0  0.79704980994E+01 -0.21822722565E+02 -0.93788407570E+02  0.15406500399E+03  0.12000000000E+03 0.  0.
<mgrwt>
<rscale>  0 0.27382487E+03</rscale>
<asrwt>0</asrwt>
<pdfrwt beam="1">  1        4 0.26287360E-01 0.27382487E+03</pdfrwt>
<pdfrwt beam="2">  1       -4 0.16877655E-01 0.27382487E+03</pdfrwt>
<totfact> 0.78239949E+02</totfact>
</mgrwt>
</event>
<event>
 5    1  0.1108889E+001  0.2775281E+03  0.7818608E-02  0.1097047E+00
         -2   -1    0    0    0  501 -0.00000000000E+00  0.00000000000E+00  0.48302028428E+02  0.48302028428E+02  0.00000000000E+00 0. -1.
          2   -1    0    0  501    0  0.00000000000E+00 -0.00000000000E+00 -0.39864699156E+03  0.39864699156E+03  0.00000000000E+00 0. -1.
         35    2    1    2    0    0  0.00000000000E+00  0.00000000000E+00 -0.35034496313E+03  0.44694901999E+03  0.27752807655E+03 0.  0.
         25    1    3    3    0    0  0.10615693837E+01  0.55468135947E+02 -0.10727241567E+03  0.17025043964E+03  0.12000000000E+03 0.  0.
         25    1    3    3    0    0 -0.10615693837E+01 -0.55468135947E+02 -0.24307254746E+03  0.27669858034E+03  0.12000000000E+03 0.  0.
<mgrwt>
<rscale>  0 0.27752808E+03</rscale>
<asrwt>0</asrwt>
<pdfrwt beam="1">  1        2 0.61330308E-01 0.27752808E+03</pdfrwt>
<pdfrwt beam="2">  1       -2 0.74310811E-02 0.27752808E+03</pdfrwt>
<totfact> 0.84536239E+03</totfact>
</mgrwt>
</event>
<event>
 5    1  0.1108889E+001  0.2759407E+03  0.7818608E-02  0.1097927E+00
          2   -1    0    0  501    0  0.00000000000E+00  0.00000000000E+00  0.13565877180E+04  0.13565877180E+04  0.00000000000E+00 0.  1.
         -2   -1    0    0    0  501 -0.00000000000E+00 -0.00000000000E+00 -0.14032128832E+02  0.14032128832E+02  0.00000000000E+00 0.  1.
         35    2    1    2    0    0  0.00000000000E+00  0.00000000000E+00  0.13425555892E+04  0.13706198468E+04  0.27594067211E+03 0.  0.
         25    1    3    3    0    0  0.26437683981E+02  0.34418170712E+02  0.93186038563E+03  0.94055693072E+03  0.12000000000E+03 0.  0.
         25    1    3    3    0    0 -0.26437683981E+02 -0.34418170712E+02  0.41069520353E+03  0.43006291611E+03  0.12000000000E+03 0.  0.
<mgrwt>
<rscale>  0 0.27594067E+03</rscale>
<asrwt>0</asrwt>
<pdfrwt beam="1">  1        2 0.20870570E+00 0.27594067E+03</pdfrwt>
<pdfrwt beam="2">  1       -2 0.21587901E-02 0.27594067E+03</pdfrwt>
<totfact> 0.11269810E+04</totfact>
</mgrwt>
</event>
<event>
 5    1  0.1108889E+001  0.2747559E+03  0.7818608E-02  0.1098588E+00
          2   -1    0    0  501    0  0.00000000000E+00  0.00000000000E+00  0.19024044372E+03  0.19024044372E+03  0.00000000000E+00 0. -1.
         -2   -1    0    0    0  501 -0.00000000000E+00 -0.00000000000E+00 -0.99204453086E+02  0.99204453086E+02  0.00000000000E+00 0. -1.
         35    2    1    2    0    0  0.00000000000E+00  0.00000000000E+00  0.91035990633E+02  0.28944489681E+03  0.27475588564E+03 0.  0.
         25    1    3    3    0    0 -0.19776083515E+02  0.58334575707E+02  0.72962308651E+02  0.15335421313E+03  0.12000000000E+03 0.  0.
         25    1    3    3    0    0  0.19776083515E+02 -0.58334575707E+02  0.18073681982E+02  0.13609068367E+03  0.12000000000E+03 0.  0.
<mgrwt>
<rscale>  0 0.27475589E+03</rscale>
<asrwt>0</asrwt>
<pdfrwt beam="1">  1        2 0.29267761E-01 0.27475589E+03</pdfrwt>
<pdfrwt beam="2">  1       -2 0.15262224E-01 0.27475589E+03</pdfrwt>
<totfact> 0.59496734E+03</totfact>
</mgrwt>
</event>
<event>
 5    1  0.1108889E+001  0.2745761E+03  0.7818608E-02  0.1098689E+00
         -2   -1    0    0    0  501 -0.00000000000E+00  0.00000000000E+00  0.32608504095E+02  0.32608504095E+02  0.00000000000E+00 0.  1.
          2   -1    0    0  501    0  0.00000000000E+00 -0.00000000000E+00 -0.57800920483E+03  0.57800920483E+03  0.00000000000E+00 0.  1.
         35    2    1    2    0    0  0.00000000000E+00  0.00000000000E+00 -0.54540070074E+03  0.61061770893E+03  0.27457614989E+03 0.  0.
         25    1    3    3    0    0 -0.39162318496E+02  0.20486541742E+02 -0.16162705688E+03  0.20609874114E+03  0.12000000000E+03 0.  0.
         25    1    3    3    0    0  0.39162318496E+02 -0.20486541742E+02 -0.38377364386E+03  0.40451896779E+03  0.12000000000E+03 0.  0.
<mgrwt>
<rscale>  0 0.27457615E+03</rscale>
<asrwt>0</asrwt>
<pdfrwt beam="1">  1        2 0.88924489E-01 0.27457615E+03</pdfrwt>
<pdfrwt beam="2">  1       -2 0.50166932E-02 0.27457615E+03</pdfrwt>
<totfact> 0.10216322E+04</totfact>
</mgrwt>
</event>
<event>
 5    1  0.1108889E+001  0.2719932E+03  0.7818608E-02  0.1100144E+00
         -2   -1    0    0    0  501 -0.00000000000E+00  0.00000000000E+00  0.23647265679E+03  0.23647265679E+03  0.00000000000E+00 0.  1.
          2   -1    0    0  501    0  0.00000000000E+00 -0.00000000000E+00 -0.78212313700E+02  0.78212313700E+02  0.00000000000E+00 0.  1.
         35    2    1    2    0    0  0.00000000000E+00  0.00000000000E+00  0.15826034309E+03  0.31468497049E+03  0.27199318826E+03 0.  0.
         25    1    3    3    0    0  0.57056094888E+02  0.26042107949E+02  0.93832396998E+02  0.16473648071E+03  0.12000000000E+03 0.  0.
         25    1    3    3    0    0 -0.57056094888E+02 -0.26042107949E+02  0.64427946096E+02  0.14994848978E+03  0.12000000000E+03 0.  0.
<mgrwt>
<rscale>  0 0.27199319E+03</rscale>
<asrwt>0</asrwt>
<pdfrwt beam="1">  1        2 0.12032664E-01 0.27199319E+03</pdfrwt>
<pdfrwt beam="2">  1       -2 0.36380408E-01 0.27199319E+03</pdfrwt>
<totfact> 0.36167034E+03</totfact>
</mgrwt>
</event>
<event>
 5    1  0.1108889E+001  0.2753382E+03  0.7818608E-02  0.1098263E+00
         -1   -1    0    0    0  501 -0.00000000000E+00  0.00000000000E+00  0.10106466419E+04  0.10106466419E+04  0.00000000000E+00 0. -1.
          1   -1    0    0  501    0  0.00000000000E+00 -0.00000000000E+00 -0.18753116595E+02  0.18753116595E+02  0.00000000000E+00 0. -1.
         35    2    1    2    0    0  0.00000000000E+00  0.00000000000E+00  0.99189352535E+03  0.10293997585E+04  0.27533815074E+03 0.  0.
         25    1    3    3    0    0  0.13166735653E+02 -0.54503897951E+02  0.35562256965E+03  0.37948840544E+03  0.12000000000E+03 0.  0.
         25    1    3    3    0    0 -0.13166735653E+02  0.54503897951E+02  0.63627095570E+03  0.64991135310E+03  0.12000000000E+03 0.  0.
<mgrwt>
<rscale>  0 0.27533815E+03</rscale>
<asrwt>0</asrwt>
<pdfrwt beam="1">  1        1 0.28850956E-02 0.27533815E+03</pdfrwt>
<pdfrwt beam="2">  1       -1 0.15548406E+00 0.27533815E+03</pdfrwt>
<totfact> 0.12376515E+03</totfact>
</mgrwt>
</event>
<event>
 5    1  0.1108889E+001  0.2635741E+03  0.7818608E-02  0.1105015E+00
         -2   -1    0    0    0  501 -0.00000000000E+00  0.00000000000E+00  0.56690688372E+01  0.56690688372E+01  0.00000000000E+00 0.  1.
          2   -1    0    0  501    0  0.00000000000E+00 -0.00000000000E+00 -0.30636125528E+04  0.30636125528E+04  0.00000000000E+00 0.  1.
         35    2    1    2    0    0  0.00000000000E+00  0.00000000000E+00 -0.30579434840E+04  0.30692816217E+04  0.26357412963E+03 0.  0.
         25    1    3    3    0    0 -0.23488601707E+02 -0.21743864884E+02 -0.20423129884E+04  0.20460857393E+04  0.12000000000E+03 0.  0.
         25    1    3    3    0    0  0.23488601707E+02  0.21743864884E+02 -0.10156304956E+04  0.10231958824E+04  0.12000000000E+03 0.  0.
<mgrwt>
<rscale>  0 0.26357413E+03</rscale>
<asrwt>0</asrwt>
<pdfrwt beam="1">  1        2 0.47132609E+00 0.26357413E+03</pdfrwt>
<pdfrwt beam="2">  1       -2 0.87216244E-03 0.26357413E+03</pdfrwt>
<totfact> 0.49688259E+03</totfact>
</mgrwt>
</event>
<event>
 5    1  0.1108889E+001  0.2743265E+03  0.7818608E-02  0.1098829E+00
          2   -1    0    0  501    0  0.00000000000E+00  0.00000000000E+00  0.18681328884E+03  0.18681328884E+03  0.00000000000E+00 0. -1.
         -2   -1    0    0    0  501 -0.00000000000E+00 -0.00000000000E+00 -0.10070891313E+03  0.10070891313E+03  0.00000000000E+00 0. -1.
         35    2    1    2    0    0  0.00000000000E+00  0.00000000000E+00  0.86104375717E+02  0.28752220197E+03  0.27432654466E+03 0.  0.
         25    1    3    3    0    0 -0.24941674236E+02  0.18738293353E+02  0.10452989315E+03  0.16217185118E+03  0.12000000000E+03 0.  0.
         25    1    3    3    0    0  0.24941674236E+02 -0.18738293353E+02 -0.18425517434E+02  0.12535035079E+03  0.12000000000E+03 0.  0.
<mgrwt>
<rscale>  0 0.27432654E+03</rscale>
<asrwt>0</asrwt>
<pdfrwt beam="1">  1        2 0.28740506E-01 0.27432654E+03</pdfrwt>
<pdfrwt beam="2">  1       -2 0.15493679E-01 0.27432654E+03</pdfrwt>
<totfact> 0.59201025E+03</totfact>
</mgrwt>
</event>
<event>
 5    1  0.1108889E+001  0.2746693E+03  0.7818608E-02  0.1098637E+00
          2   -1    0    0  501    0  0.00000000000E+00  0.00000000000E+00  0.21647969159E+04  0.21647969159E+04  0.00000000000E+00 0. -1.
         -2   -1    0    0    0  501 -0.00000000000E+00 -0.00000000000E+00 -0.87125038224E+01  0.87125038224E+01  0.00000000000E+00 0. -1.
         35    2    1    2    0    0  0.00000000000E+00  0.00000000000E+00  0.21560844120E+04  0.21735094197E+04  0.27466926588E+03 0.  0.
         25    1    3    3    0    0  0.18032582163E+02 -0.58498180922E+02  0.12894280511E+04  0.12964458763E+04  0.12000000000E+03 0.  0.
         25    1    3    3    0    0 -0.18032582163E+02  0.58498180922E+02  0.86665636089E+03  0.87706354335E+03  0.12000000000E+03 0.  0.
<mgrwt>
<rscale>  0 0.27466927E+03</rscale>
<asrwt>0</asrwt>
<pdfrwt beam="1">  1        2 0.33304525E+00 0.27466927E+03</pdfrwt>
<pdfrwt beam="2">  1       -2 0.13403869E-02 0.27466927E+03</pdfrwt>
<totfact> 0.84557439E+03</totfact>
</mgrwt>
</event>
<event>
 4    1  0.1108889E+001  0.3065759E+03  0.7818608E-02  0.1081999E+00
         -2   -1    0    0    0  501 -0.00000000000E+00  0.00000000000E+00  0.10760568800E+02  0.10760568800E+02  0.00000000000E+00 0. -1.
          2   -1    0    0  501    0  0.00000000000E+00 -0.00000000000E+00 -0.21836387727E+04  0.21836387727E+04  0.00000000000E+00 0. -1.
         25    1    1    2    0    0  0.25775475052E+02 -0.67462575610E+02 -0.64049110087E+03  0.65562521650E+03  0.12000000000E+03 0.  0.
         25    1    1    2    0    0 -0.25775475052E+02  0.67462575610E+02 -0.15323871030E+04  0.15387741249E+04  0.12000000000E+03 0.  0.
<mgrwt>
<rscale>  0 0.30657590E+03</rscale>
<asrwt>0</asrwt>
<pdfrwt beam="1">  1        2 0.33594379E+00 0.30657590E+03</pdfrwt>
<pdfrwt beam="2">  1       -2 0.16554753E-02 0.30657590E+03</pdfrwt>
<totfact> 0.60654188E+03</totfact>
</mgrwt>
</event>
<event>
 5    1  0.1108889E+001  0.2746793E+03  0.7818608E-02  0.1098631E+00
          2   -1    0    0  501    0  0.00000000000E+00  0.00000000000E+00  0.57016011060E+03  0.57016011060E+03  0.00000000000E+00 0.  1.
         -2   -1    0    0    0  501 -0.00000000000E+00 -0.00000000000E+00 -0.33082250149E+02  0.33082250149E+02  0.00000000000E+00 0.  1.
         35    2    1    2    0    0  0.00000000000E+00  0.00000000000E+00  0.53707786046E+03  0.60324236075E+03  0.27467929957E+03 0.  0.
         25    1    3    3    0    0  0.16834888954E+02  0.64601401010E+02  0.27365412264E+03  0.30617533104E+03  0.12000000000E+03 0.  0.
         25    1    3    3    0    0 -0.16834888954E+02 -0.64601401010E+02  0.26342373782E+03  0.29706702972E+03  0.12000000000E+03 0.  0.
<mgrwt>
<rscale>  0 0.27467930E+03</rscale>
<asrwt>0</asrwt>
<pdfrwt beam="1">  1        2 0.87716933E-01 0.27467930E+03</pdfrwt>
<pdfrwt beam="2">  1       -2 0.50895774E-02 0.27467930E+03</pdfrwt>
<totfact> 0.10153159E+04</totfact>
</mgrwt>
</event>
<event>
 4    1  0.1108889E+001  0.2515514E+03  0.7818608E-02  0.1112328E+00
         -1   -1    0    0    0  501 -0.00000000000E+00  0.00000000000E+00  0.89651916884E+02  0.89651916884E+02  0.00000000000E+00 0. -1.
          1   -1    0    0  501    0  0.00000000000E+00 -0.00000000000E+00 -0.17645492563E+03  0.17645492563E+03  0.00000000000E+00 0. -1.
         25    1    1    2    0    0  0.17633824633E+02  0.18423394440E+02 -0.14063225712E+02  0.12348338978E+03  0.12000000000E+03 0.  0.
         25    1    1    2    0    0 -0.17633824633E+02 -0.18423394440E+02 -0.72739783032E+02  0.14262345273E+03  0.12000000000E+03 0.  0.
<mgrwt>
<rscale>  0 0.25155137E+03</rscale>
<asrwt>0</asrwt>
<pdfrwt beam="1">  1        1 0.27146912E-01 0.25155137E+03</pdfrwt>
<pdfrwt beam="2">  1       -1 0.13792603E-01 0.25155137E+03</pdfrwt>
<totfact> 0.62444250E+03</totfact>
</mgrwt>
</event>
<event>
 5    1  0.1108889E+001  0.2746938E+03  0.7818608E-02  0.1098623E+00
         -1   -1    0    0    0  501 -0.00000000000E+00  0.00000000000E+00  0.97212775786E+02  0.97212775786E+02  0.00000000000E+00 0. -1.
          1   -1    0    0  501    0  0.00000000000E+00 -0.00000000000E+00 -0.19405034388E+03  0.19405034388E+03  0.00000000000E+00 0. -1.
         35    2    1    2    0    0  0.00000000000E+00  0.00000000000E+00 -0.96837568098E+02  0.29126311967E+03  0.27469381188E+03 0.  0.
         25    1    3    3    0    0 -0.14778656815E+02 -0.38645841707E+02 -0.10404526294E+03  0.16412594712E+03  0.12000000000E+03 0.  0.
         25    1    3    3    0    0  0.14778656815E+02  0.38645841707E+02  0.72076948422E+01  0.12713717255E+03  0.12000000000E+03 0.  0.
<mgrwt>
<rscale>  0 0.27469381E+03</rscale>
<asrwt>0</asrwt>
<pdfrwt beam="1">  1        1 0.29853898E-01 0.27469381E+03</pdfrwt>
<pdfrwt beam="2">  1       -1 0.14955812E-01 0.27469381E+03</pdfrwt>
<totfact> 0.48881752E+03</totfact>
</mgrwt>
</event>
