<event>
 9    1  0.2031653E-002  0.2753603E+03  0.7818608E-02  0.1098250E+00
         -2   -1    0    0    0  501 -0.00000000000E+00  0.00000000000E+00  0.76322746317E+01  0.76322746317E+01  0.00000000000E+00 0.  1.
          2   -1    0    0  501    0  0.00000000000E+00 -0.00000000000E+00 -0.24836404651E+04  0.24836404651E+04  0.00000000000E+00 0.  1.
         36    2    1    2    0    0 -0.10658141036E-13 -0.53290705182E-14 -0.24760081905E+04  0.24912727398E+04  0.27536031752E+03 0.  0.
         25    2    3    3    0    0 -0.24039415988E+02 -0.14409244811E+02 -0.16782383279E+04  0.16833314041E+04  0.12780927549E+03 0.  0.
         25    2    3    3    0    0  0.24039415988E+02  0.14409244811E+02 -0.79776986257E+03  0.80794133565E+03  0.12468732238E+03 0.  0.
          5    1    4    4  502    0  0.32613987477E+02 -0.51694666359E+02 -0.66744193106E+03  0.67025132006E+03  0.47000000000E+01 0.  1.
         -5    1    4    4    0  502 -0.56653403464E+02  0.37285421548E+02 -0.10107963969E+04  0.10130800840E+04  0.47000000000E+01 0.  1.
          5    1    5    5  503    0  0.53927273158E+01  0.12136043596E+02 -0.78412838218E+03  0.78425491698E+03  0.47000000000E+01 0. -1.
         -5    1    5    5    0  503  0.18646688672E+02  0.22732012149E+01 -0.13641480394E+02  0.23686418673E+02  0.47000000000E+01 0. -1.
<mgrwt>
<rscale>  0 0.27536032E+03</rscale>
<asrwt>0</asrwt>
<pdfrwt beam="1">  1        2 0.38209862E+00 0.27536032E+03</pdfrwt>
<pdfrwt beam="2">  1       -2 0.11741958E-02 0.27536032E+03</pdfrwt>
<totfact> 0.69093026E+03</totfact>
</mgrwt>
</event>
<event>
 9    1  0.2031653E-002  0.2735298E+03  0.7818608E-02  0.1099276E+00
          1   -1    0    0  501    0  0.00000000000E+00  0.00000000000E+00  0.25292384497E+02  0.25292384497E+02  0.00000000000E+00 0. -1.
         -1   -1    0    0    0  501 -0.00000000000E+00 -0.00000000000E+00 -0.73953650095E+03  0.73953650095E+03  0.00000000000E+00 0. -1.
         36    2    1    2    0    0 -0.17763568394E-14  0.35527136788E-14 -0.71424411645E+03  0.76482888545E+03  0.27352982676E+03 0.  0.
         25    2    3    3    0    0  0.52073030331E+01  0.28436023498E+02 -0.22238291369E+03  0.25650822971E+03  0.12452545190E+03 0.  0.
         25    2    3    3    0    0 -0.52073030331E+01 -0.28436023498E+02 -0.49186120276E+03  0.50832065573E+03  0.12500689112E+03 0.  0.
          5    1    4    4  502    0 -0.16499836159E+01  0.77660457004E+02 -0.13060219993E+03  0.15202925263E+03  0.47000000000E+01 0.  1.
         -5    1    4    4    0  502  0.68572866491E+01 -0.49224433505E+02 -0.91780713763E+02  0.10447897709E+03  0.47000000000E+01 0.  1.
          5    1    5    5  503    0  0.43157480552E+02 -0.23010889963E+02 -0.41026299584E+03  0.41319473004E+03  0.47000000000E+01 0.  1.
         -5    1    5    5    0  503 -0.48364783585E+02 -0.54251335350E+01 -0.81598206924E+02  0.95125925689E+02  0.47000000000E+01 0.  1.
<mgrwt>
<rscale>  0 0.27352983E+03</rscale>
<asrwt>0</asrwt>
<pdfrwt beam="1">  1        1 0.38911358E-02 0.27352983E+03</pdfrwt>
<pdfrwt beam="2">  1       -1 0.11377486E+00 0.27352983E+03</pdfrwt>
<totfact> 0.17712801E+03</totfact>
</mgrwt>
</event>
<event>
 9    1  0.2031653E-002  0.2751939E+03  0.7818608E-02  0.1098343E+00
         -1   -1    0    0    0  501 -0.00000000000E+00  0.00000000000E+00  0.22348387250E+02  0.22348387250E+02  0.00000000000E+00 0.  1.
          1   -1    0    0  501    0  0.00000000000E+00 -0.00000000000E+00 -0.84717157328E+03  0.84717157328E+03  0.00000000000E+00 0.  1.
         36    2    1    2    0    0  0.35527136788E-14 -0.71054273576E-14 -0.82482318603E+03  0.86951996053E+03  0.27519388356E+03 0.  0.
         25    2    3    3    0    0 -0.27629107802E+02 -0.25252905896E+02 -0.29627260942E+03  0.32434926766E+03  0.12658558955E+03 0.  0.
         25    2    3    3    0    0  0.27629107802E+02  0.25252905896E+02 -0.52855057661E+03  0.54517069287E+03  0.12823531291E+03 0.  0.
          5    1    4    4  502    0  0.17388842446E+02  0.33315360657E+02 -0.30998103942E+02  0.48941368446E+02  0.47000000000E+01 0. -1.
         -5    1    4    4    0  502 -0.45017950248E+02 -0.58568266553E+02 -0.26527450548E+03  0.27540789921E+03  0.47000000000E+01 0. -1.
          5    1    5    5  503    0 -0.16346127175E+02  0.29722926593E+02 -0.32760263128E+02  0.47391698419E+02  0.47000000000E+01 0. -1.
         -5    1    5    5    0  503  0.43975234977E+02 -0.44700206967E+01 -0.49579031348E+03  0.49777899445E+03  0.47000000000E+01 0. -1.
<mgrwt>
<rscale>  0 0.27519388E+03</rscale>
<asrwt>0</asrwt>
<pdfrwt beam="1">  1        1 0.13033408E+00 0.27519388E+03</pdfrwt>
<pdfrwt beam="2">  1       -1 0.34382136E-02 0.27519388E+03</pdfrwt>
<totfact> 0.64783675E+03</totfact>
</mgrwt>
</event>
<event>
 9    1  0.2031653E-002  0.2736585E+03  0.7818608E-02  0.1099204E+00
         -3   -1    0    0    0  501 -0.00000000000E+00  0.00000000000E+00  0.63583612962E+02  0.63583612962E+02  0.00000000000E+00 0.  1.
          3   -1    0    0  501    0  0.00000000000E+00 -0.00000000000E+00 -0.29445086780E+03  0.29445086780E+03  0.00000000000E+00 0.  1.
         36    2    1    2    0    0  0.71054273576E-14  0.17763568394E-14 -0.23086725484E+03  0.35803448076E+03  0.27365854647E+03 0.  0.
         25    2    3    3    0    0 -0.41405530130E+02 -0.14479532616E+01 -0.15988080355E+03  0.20513634660E+03  0.12166566835E+03 0.  0.
         25    2    3    3    0    0  0.41405530130E+02  0.14479532616E+01 -0.70986451286E+02  0.15289813417E+03  0.12892729995E+03 0.  0.
          5    1    4    4  502    0 -0.35405829822E+02  0.52164935996E+02 -0.12678115257E+03  0.14166970029E+03  0.47000000000E+01 0.  1.
         -5    1    4    4    0  502 -0.59997003085E+01 -0.53612889258E+02 -0.33099650983E+02  0.63466646308E+02  0.47000000000E+01 0.  1.
          5    1    5    5  503    0 -0.77155166764E+01 -0.86546399298E+01  0.34122516186E+02  0.36343749129E+02  0.47000000000E+01 0.  1.
         -5    1    5    5    0  503  0.49121046807E+02  0.10102593191E+02 -0.10510896747E+03  0.11655438504E+03  0.47000000000E+01 0.  1.
<mgrwt>
<rscale>  0 0.27365855E+03</rscale>
<asrwt>0</asrwt>
<pdfrwt beam="1">  1        3 0.45300134E-01 0.27365855E+03</pdfrwt>
<pdfrwt beam="2">  1       -3 0.97820942E-02 0.27365855E+03</pdfrwt>
<totfact> 0.94667499E+02</totfact>
</mgrwt>
</event>
<event>
 9    1  0.2031653E-002  0.2761630E+03  0.7818608E-02  0.1097803E+00
          2   -1    0    0  501    0  0.00000000000E+00  0.00000000000E+00  0.75300385062E+03  0.75300385062E+03  0.00000000000E+00 0.  1.
         -2   -1    0    0    0  501 -0.00000000000E+00 -0.00000000000E+00 -0.25320589967E+02  0.25320589967E+02  0.00000000000E+00 0.  1.
         36    2    1    2    0    0  0.00000000000E+00  0.35527136788E-14  0.72768326065E+03  0.77832444059E+03  0.27616300799E+03 0.  0.
         25    2    3    3    0    0  0.59782564925E+02 -0.14233468733E+02  0.34739491097E+03  0.37317290794E+03  0.12164805117E+03 0.  0.
         25    2    3    3    0    0 -0.59782564925E+02  0.14233468733E+02  0.38028834968E+03  0.40515153264E+03  0.12550692729E+03 0.  0.
          5    1    4    4  502    0  0.14774373273E+02 -0.62337760361E+02  0.11671058249E+03  0.13322060102E+03  0.47000000000E+01 0. -1.
         -5    1    4    4    0  502  0.45008191653E+02  0.48104291629E+02  0.23068432848E+03  0.23995230692E+03  0.47000000000E+01 0. -1.
          5    1    5    5  503    0 -0.23764276124E+02 -0.34276844640E+00  0.14218062893E+01  0.24268700893E+02  0.47000000000E+01 0.  1.
         -5    1    5    5    0  503 -0.36018288801E+02  0.14576237179E+02  0.37886654339E+03  0.38088283175E+03  0.47000000000E+01 0.  1.
<mgrwt>
<rscale>  0 0.27616301E+03</rscale>
<asrwt>0</asrwt>
<pdfrwt beam="1">  1        2 0.11584673E+00 0.27616301E+03</pdfrwt>
<pdfrwt beam="2">  1       -2 0.38954759E-02 0.27616301E+03</pdfrwt>
<totfact> 0.10921231E+04</totfact>
</mgrwt>
</event>
<event>
 9    1  0.2031653E-002  0.2751397E+03  0.7818608E-02  0.1098374E+00
         -1   -1    0    0    0  501 -0.00000000000E+00  0.00000000000E+00  0.13995578592E+04  0.13995578592E+04  0.00000000000E+00 0. -1.
          1   -1    0    0  501    0  0.00000000000E+00 -0.00000000000E+00 -0.13522460150E+02  0.13522460150E+02  0.00000000000E+00 0. -1.
         36    2    1    2    0    0 -0.14210854715E-13  0.00000000000E+00  0.13860353990E+04  0.14130803193E+04  0.27513971272E+03 0.  0.
         25    2    3    3    0    0 -0.57587737869E+02 -0.52423862787E+02  0.66711080618E+03  0.67886954918E+03  0.98805000606E+02 0.  0.
         25    2    3    3    0    0  0.57587737869E+02  0.52423862787E+02  0.71892459284E+03  0.73421077013E+03  0.12707586652E+03 0.  0.
          5    1    4    4  502    0 -0.77708819556E+02 -0.11724612630E+02  0.37099165037E+03  0.37925324234E+03  0.47000000000E+01 0. -1.
         -5    1    4    4    0  502  0.20121081687E+02 -0.40699250157E+02  0.29611915581E+03  0.29961630685E+03  0.47000000000E+01 0. -1.
          5    1    5    5  503    0  0.35466440257E+01  0.54092026596E+02  0.61091398405E+03  0.61333230139E+03  0.47000000000E+01 0.  1.
         -5    1    5    5    0  503  0.54041093844E+02 -0.16681638085E+01  0.10801060879E+03  0.12087846874E+03  0.47000000000E+01 0.  1.
<mgrwt>
<rscale>  0 0.27513971E+03</rscale>
<asrwt>0</asrwt>
<pdfrwt beam="1">  1        1 0.20803796E-02 0.27513971E+03</pdfrwt>
<pdfrwt beam="2">  1       -1 0.21531648E+00 0.27513971E+03</pdfrwt>
<totfact> 0.75670952E+02</totfact>
</mgrwt>
</event>
<event>
 9    1  0.2031653E-002  0.2753713E+03  0.7818608E-02  0.1098244E+00
         -1   -1    0    0    0  501 -0.00000000000E+00  0.00000000000E+00  0.23808908409E+02  0.23808908409E+02  0.00000000000E+00 0. -1.
          1   -1    0    0  501    0  0.00000000000E+00 -0.00000000000E+00 -0.79622875084E+03  0.79622875084E+03  0.00000000000E+00 0. -1.
         36    2    1    2    0    0  0.71054273576E-14 -0.71054273576E-14 -0.77241984243E+03  0.82003765924E+03  0.27537129408E+03 0.  0.
         25    2    3    3    0    0  0.41284842703E+02 -0.34973134332E+02 -0.31700582966E+03  0.34487953264E+03  0.12458586450E+03 0.  0.
         25    2    3    3    0    0 -0.41284842703E+02  0.34973134332E+02 -0.45541401276E+03  0.47515812660E+03  0.12428098766E+03 0.  0.
          5    1    4    4  502    0 -0.34394025906E+02  0.16316734970E+02 -0.52783270370E+02  0.65248360049E+02  0.47000000000E+01 0. -1.
         -5    1    4    4    0  502  0.75678868609E+02 -0.51289869303E+02 -0.26422255929E+03  0.27963117259E+03  0.47000000000E+01 0. -1.
          5    1    5    5  503    0 -0.16065224577E+02  0.25910471849E+02 -0.15717098298E+02  0.34620242215E+02  0.47000000000E+01 0.  1.
         -5    1    5    5    0  503 -0.25219618126E+02  0.90626624836E+01 -0.43969691447E+03  0.44053788439E+03  0.47000000000E+01 0.  1.
<mgrwt>
<rscale>  0 0.27537129E+03</rscale>
<asrwt>0</asrwt>
<pdfrwt beam="1">  1        1 0.12249670E+00 0.27537129E+03</pdfrwt>
<pdfrwt beam="2">  1       -1 0.36629098E-02 0.27537129E+03</pdfrwt>
<totfact> 0.64967470E+03</totfact>
</mgrwt>
</event>
<event>
 9    1  0.2031653E-002  0.2763574E+03  0.7818608E-02  0.1097695E+00
          2   -1    0    0  501    0  0.00000000000E+00  0.00000000000E+00  0.46765116180E+03  0.46765116180E+03  0.00000000000E+00 0. -1.
         -2   -1    0    0    0  501 -0.00000000000E+00 -0.00000000000E+00 -0.40828199188E+02  0.40828199188E+02  0.00000000000E+00 0. -1.
         36    2    1    2    0    0  0.00000000000E+00  0.00000000000E+00  0.42682296261E+03  0.50847936099E+03  0.27635741195E+03 0.  0.
         25    2    3    3    0    0  0.38124317693E+02 -0.10482444376E+02  0.31062972882E+03  0.33760924834E+03  0.12619758674E+03 0.  0.
         25    2    3    3    0    0 -0.38124317693E+02  0.10482444376E+02  0.11619323379E+03  0.17087011265E+03  0.11887969792E+03 0.  0.
          5    1    4    4  502    0  0.58288411724E+02  0.44477827962E+02  0.17701288421E+03  0.19165455199E+03  0.47000000000E+01 0.  1.
         -5    1    4    4    0  502 -0.20164094031E+02 -0.54960272338E+02  0.13361684460E+03  0.14595469635E+03  0.47000000000E+01 0.  1.
          5    1    5    5  503    0 -0.24162592800E+02 -0.46869153385E+02  0.17465221640E+02  0.55746501207E+02  0.47000000000E+01 0.  1.
         -5    1    5    5    0  503 -0.13961724893E+02  0.57351597761E+02  0.98728012155E+02  0.11512361144E+03  0.47000000000E+01 0.  1.
<mgrwt>
<rscale>  0 0.27635741E+03</rscale>
<asrwt>0</asrwt>
<pdfrwt beam="1">  1        2 0.71946329E-01 0.27635741E+03</pdfrwt>
<pdfrwt beam="2">  1       -2 0.62812618E-02 0.27635741E+03</pdfrwt>
<totfact> 0.92019228E+03</totfact>
</mgrwt>
</event>
<event>
 9    1  0.2031653E-002  0.2740995E+03  0.7818608E-02  0.1098956E+00
         -4   -1    0    0    0  501 -0.00000000000E+00  0.00000000000E+00  0.35103463595E+02  0.35103463595E+02  0.00000000000E+00 0. -1.
          4   -1    0    0  501    0  0.00000000000E+00 -0.00000000000E+00 -0.53506486084E+03  0.53506486084E+03  0.00000000000E+00 0. -1.
         36    2    1    2    0    0  0.17763568394E-14 -0.14210854715E-13 -0.49996139724E+03  0.57016832443E+03  0.27409947000E+03 0.  0.
         25    2    3    3    0    0 -0.15073825750E+01  0.44902663548E+02 -0.17772128403E+03  0.22454797558E+03  0.12968584019E+03 0.  0.
         25    2    3    3    0    0  0.15073825750E+01 -0.44902663548E+02 -0.32224011321E+03  0.34562034885E+03  0.11660280262E+03 0.  0.
          5    1    4    4  502    0  0.40373178903E+02  0.73883628133E+02 -0.92599308622E+02  0.12524179030E+03  0.47000000000E+01 0. -1.
         -5    1    4    4    0  502 -0.41880561478E+02 -0.28980964585E+02 -0.85121975404E+02  0.99306185279E+02  0.47000000000E+01 0. -1.
          5    1    5    5  503    0 -0.14676356090E+02 -0.17889338085E+02 -0.18849098314E+01  0.23686847200E+02  0.47000000000E+01 0.  1.
         -5    1    5    5    0  503  0.16183738665E+02 -0.27013325463E+02 -0.32035520338E+03  0.32193350165E+03  0.47000000000E+01 0.  1.
<mgrwt>
<rscale>  0 0.27409947E+03</rscale>
<asrwt>0</asrwt>
<pdfrwt beam="1">  1        4 0.82317676E-01 0.27409947E+03</pdfrwt>
<pdfrwt beam="2">  1       -4 0.54005325E-02 0.27409947E+03</pdfrwt>
<totfact> 0.52585138E+02</totfact>
</mgrwt>
</event>
<event>
 9    1  0.2031653E-002  0.2742710E+03  0.7818608E-02  0.1098860E+00
          4   -1    0    0  501    0  0.00000000000E+00  0.00000000000E+00  0.33338027072E+02  0.33338027072E+02  0.00000000000E+00 0.  1.
         -4   -1    0    0    0  501 -0.00000000000E+00 -0.00000000000E+00 -0.56410507458E+03  0.56410507458E+03  0.00000000000E+00 0.  1.
         36    2    1    2    0    0  0.00000000000E+00 -0.71054273576E-14 -0.53076704751E+03  0.59744310165E+03  0.27427103564E+03 0.  0.
         25    2    3    3    0    0 -0.79820820441E+00 -0.32462062000E+02 -0.16709441685E+03  0.21103378224E+03  0.12474089346E+03 0.  0.
         25    2    3    3    0    0  0.79820820441E+00  0.32462062000E+02 -0.36367263066E+03  0.38640931941E+03  0.12649093734E+03 0.  0.
          5    1    4    4  502    0  0.17265590709E+02 -0.73642124711E+02 -0.13748375420E+03  0.15698769322E+03  0.47000000000E+01 0.  1.
         -5    1    4    4    0  502 -0.18063798914E+02  0.41180062711E+02 -0.29610662649E+02  0.54046089022E+02  0.47000000000E+01 0.  1.
          5    1    5    5  503    0  0.27650287600E+02 -0.72565091651E+01 -0.32023865956E+03  0.32154639541E+03  0.47000000000E+01 0. -1.
         -5    1    5    5    0  503 -0.26852079396E+02  0.39718571165E+02 -0.43433971106E+02  0.64862923996E+02  0.47000000000E+01 0. -1.
<mgrwt>
<rscale>  0 0.27427104E+03</rscale>
<asrwt>0</asrwt>
<pdfrwt beam="1">  1        4 0.51289276E-02 0.27427104E+03</pdfrwt>
<pdfrwt beam="2">  1       -4 0.86785390E-01 0.27427104E+03</pdfrwt>
<totfact> 0.50757441E+02</totfact>
</mgrwt>
</event>
<event>
 9    1  0.2031653E-002  0.2804222E+03  0.7818608E-02  0.1095459E+00
         -1   -1    0    0    0  501 -0.00000000000E+00  0.00000000000E+00  0.25666219275E+03  0.25666219275E+03  0.00000000000E+00 0.  1.
          1   -1    0    0  501    0  0.00000000000E+00 -0.00000000000E+00 -0.76595415264E+02  0.76595415264E+02  0.00000000000E+00 0.  1.
         36    2    1    2    0    0 -0.35527136788E-14 -0.17763568394E-14  0.18006677748E+03  0.33325760801E+03  0.28042216201E+03 0.  0.
         25    2    3    3    0    0  0.94034337414E+01 -0.64004345290E+01  0.16833356083E+03  0.20738154133E+03  0.12058824924E+03 0.  0.
         25    2    3    3    0    0 -0.94034337414E+01  0.64004345290E+01  0.11733216654E+02  0.12587606668E+03  0.12481075940E+03 0.  0.
          5    1    4    4  502    0 -0.12002722878E+02  0.33677190006E+02  0.33773104822E+01  0.36217602203E+02  0.47000000000E+01 0. -1.
         -5    1    4    4    0  502  0.21406156619E+02 -0.40077624535E+02  0.16495625035E+03  0.17116393913E+03  0.47000000000E+01 0. -1.
          5    1    5    5  503    0  0.24410673098E+02  0.58722018199E+01 -0.49536978961E+02  0.55734782675E+02  0.47000000000E+01 0. -1.
         -5    1    5    5    0  503 -0.33814106839E+02  0.52823270910E+00  0.61270195614E+02  0.70141284004E+02  0.47000000000E+01 0. -1.
<mgrwt>
<rscale>  0 0.28042216E+03</rscale>
<asrwt>0</asrwt>
<pdfrwt beam="1">  1        1 0.11783910E-01 0.28042216E+03</pdfrwt>
<pdfrwt beam="2">  1       -1 0.39486491E-01 0.28042216E+03</pdfrwt>
<totfact> 0.32366984E+03</totfact>
</mgrwt>
</event>
<event>
 9    1  0.2031653E-002  0.2751941E+03  0.7818608E-02  0.1098343E+00
          1   -1    0    0  501    0  0.00000000000E+00  0.00000000000E+00  0.62083474782E+03  0.62083474782E+03  0.00000000000E+00 0.  1.
         -1   -1    0    0    0  501 -0.00000000000E+00 -0.00000000000E+00 -0.30495964832E+02  0.30495964832E+02  0.00000000000E+00 0.  1.
         36    2    1    2    0    0  0.35527136788E-14  0.00000000000E+00  0.59033878299E+03  0.65133071266E+03  0.27519414700E+03 0.  0.
         25    2    3    3    0    0 -0.83830195598E+00 -0.32347203744E+02  0.37606051923E+03  0.40277295282E+03  0.14056134979E+03 0.  0.
         25    2    3    3    0    0  0.83830195598E+00  0.32347203744E+02  0.21427826376E+03  0.24855775984E+03  0.12173225257E+03 0.  0.
          5    1    4    4  502    0  0.20824726501E+02 -0.63486200318E+02  0.35037879409E+03  0.35672336090E+03  0.47000000000E+01 0. -1.
         -5    1    4    4    0  502 -0.21663028457E+02  0.31138996574E+02  0.25681725147E+02  0.46049591921E+02  0.47000000000E+01 0. -1.
          5    1    5    5  503    0 -0.18575689550E+02 -0.28836134469E+02  0.12574890837E+02  0.36834722382E+02  0.47000000000E+01 0.  1.
         -5    1    5    5    0  503  0.19413991506E+02  0.61183338214E+02  0.20170337292E+03  0.21172303746E+03  0.47000000000E+01 0.  1.
<mgrwt>
<rscale>  0 0.27519415E+03</rscale>
<asrwt>0</asrwt>
<pdfrwt beam="1">  1        1 0.95513028E-01 0.27519415E+03</pdfrwt>
<pdfrwt beam="2">  1       -1 0.46916874E-02 0.27519415E+03</pdfrwt>
<totfact> 0.64695157E+03</totfact>
</mgrwt>
</event>
<event>
 9    1  0.2031653E-002  0.2746630E+03  0.7818608E-02  0.1098640E+00
          2   -1    0    0  501    0  0.00000000000E+00  0.00000000000E+00  0.98050969061E+03  0.98050969061E+03  0.00000000000E+00 0. -1.
         -2   -1    0    0    0  501 -0.00000000000E+00 -0.00000000000E+00 -0.19234829962E+02  0.19234829962E+02  0.00000000000E+00 0. -1.
         36    2    1    2    0    0  0.71054273576E-14  0.00000000000E+00  0.96127486064E+03  0.99974452057E+03  0.27466297293E+03 0.  0.
         25    2    3    3    0    0 -0.52711913312E+01  0.24400312236E+02  0.40255972347E+03  0.42634762304E+03  0.13818394992E+03 0.  0.
         25    2    3    3    0    0  0.52711913312E+01 -0.24400312236E+02  0.55871513718E+03  0.57339689753E+03  0.12648413692E+03 0.  0.
          5    1    4    4  502    0 -0.67222283562E+02 -0.11147888367E+02  0.21524319924E+03  0.22582036145E+03  0.47000000000E+01 0. -1.
         -5    1    4    4    0  502  0.61951092231E+02  0.35548200603E+02  0.18731652422E+03  0.20052726159E+03  0.47000000000E+01 0. -1.
          5    1    5    5  503    0  0.64088466840E+02 -0.35505840117E+01  0.23303727708E+03  0.24176104057E+03  0.47000000000E+01 0. -1.
         -5    1    5    5    0  503 -0.58817275509E+02 -0.20849728224E+02  0.32567786009E+03  0.33163585696E+03  0.47000000000E+01 0. -1.
<mgrwt>
<rscale>  0 0.27466297E+03</rscale>
<asrwt>0</asrwt>
<pdfrwt beam="1">  1        2 0.15084761E+00 0.27466297E+03</pdfrwt>
<pdfrwt beam="2">  1       -2 0.29592054E-02 0.27466297E+03</pdfrwt>
<totfact> 0.11640709E+04</totfact>
</mgrwt>
</event>
<event>
 9    1  0.2031653E-002  0.2742503E+03  0.7818608E-02  0.1098871E+00
          1   -1    0    0  501    0  0.00000000000E+00  0.00000000000E+00  0.96749422292E+02  0.96749422292E+02  0.00000000000E+00 0. -1.
         -1   -1    0    0    0  501 -0.00000000000E+00 -0.00000000000E+00 -0.19435058218E+03  0.19435058218E+03  0.00000000000E+00 0. -1.
         36    2    1    2    0    0  0.00000000000E+00 -0.14210854715E-13 -0.97601159885E+02  0.29110000447E+03  0.27425029843E+03 0.  0.
         25    2    3    3    0    0  0.29665209992E+02 -0.52035479487E+02 -0.38731800338E+02  0.14337605584E+03  0.12437373204E+03 0.  0.
         25    2    3    3    0    0 -0.29665209992E+02  0.52035479487E+02 -0.58869359547E+02  0.14772394863E+03  0.12152797084E+03 0.  0.
          5    1    4    4  502    0 -0.29547463812E+02 -0.69878681010E+02 -0.20466588815E+02  0.78721368987E+02  0.47000000000E+01 0. -1.
         -5    1    4    4    0  502  0.59212673804E+02  0.17843201523E+02 -0.18265211523E+02  0.64654686849E+02  0.47000000000E+01 0. -1.
          5    1    5    5  503    0  0.26973544000E+02  0.17454194312E+02 -0.72836373674E+02  0.79746149155E+02  0.47000000000E+01 0. -1.
         -5    1    5    5    0  503 -0.56638753992E+02  0.34581285175E+02  0.13967014127E+02  0.67977799477E+02  0.47000000000E+01 0. -1.
<mgrwt>
<rscale>  0 0.27425030E+03</rscale>
<asrwt>0</asrwt>
<pdfrwt beam="1">  1        1 0.14884527E-01 0.27425030E+03</pdfrwt>
<pdfrwt beam="2">  1       -1 0.29900089E-01 0.27425030E+03</pdfrwt>
<totfact> 0.38470514E+03</totfact>
</mgrwt>
</event>
<event>
 9    1  0.2031653E-002  0.2759487E+03  0.7818608E-02  0.1097922E+00
         -2   -1    0    0    0  501 -0.00000000000E+00  0.00000000000E+00  0.30682566045E+02  0.30682566045E+02  0.00000000000E+00 0. -1.
          2   -1    0    0  501    0  0.00000000000E+00 -0.00000000000E+00 -0.62044734617E+03  0.62044734617E+03  0.00000000000E+00 0. -1.
         36    2    1    2    0    0  0.00000000000E+00  0.00000000000E+00 -0.58976478012E+03  0.65112991221E+03  0.27594866679E+03 0.  0.
         25    2    3    3    0    0  0.30499645986E+02  0.20392118425E+02 -0.31826278917E+03  0.35077708982E+03  0.14285411046E+03 0.  0.
         25    2    3    3    0    0 -0.30499645986E+02 -0.20392118425E+02 -0.27150199095E+03  0.30035282239E+03  0.12309516614E+03 0.  0.
          5    1    4    4  502    0 -0.37780866398E+02 -0.16404767194E+02 -0.27350612569E+02  0.49665443322E+02  0.47000000000E+01 0.  1.
         -5    1    4    4    0  502  0.68280512384E+02  0.36796885620E+02 -0.29091217660E+03  0.30111164650E+03  0.47000000000E+01 0.  1.
          5    1    5    5  503    0 -0.34598264243E+02  0.42962940742E+02 -0.71281139432E+02  0.90254889090E+02  0.47000000000E+01 0. -1.
         -5    1    5    5    0  503  0.40986182568E+01 -0.63355059168E+02 -0.20022085152E+03  0.21009793330E+03  0.47000000000E+01 0. -1.
<mgrwt>
<rscale>  0 0.27594867E+03</rscale>
<asrwt>0</asrwt>
<pdfrwt beam="1">  1        2 0.95453425E-01 0.27594867E+03</pdfrwt>
<pdfrwt beam="2">  1       -2 0.47203954E-02 0.27594867E+03</pdfrwt>
<totfact> 0.10322251E+04</totfact>
</mgrwt>
</event>
<event>
 9    1  0.2031653E-002  0.2750196E+03  0.7818608E-02  0.1098441E+00
         -1   -1    0    0    0  501 -0.00000000000E+00  0.00000000000E+00  0.22904247716E+02  0.22904247716E+02  0.00000000000E+00 0.  1.
          1   -1    0    0  501    0  0.00000000000E+00 -0.00000000000E+00 -0.82556481828E+03  0.82556481828E+03  0.00000000000E+00 0.  1.
         36    2    1    2    0    0  0.35527136788E-14 -0.71054273576E-14 -0.80266057056E+03  0.84846906600E+03  0.27501957097E+03 0.  0.
         25    2    3    3    0    0  0.26336126816E+02  0.16290766207E+02 -0.53798286853E+03  0.55444800003E+03  0.13049152181E+03 0.  0.
         25    2    3    3    0    0 -0.26336126816E+02 -0.16290766207E+02 -0.26467770203E+03  0.29402106597E+03  0.12423816097E+03 0.  0.
          5    1    4    4  502    0 -0.26916035259E+02  0.57462933511E+02 -0.31983911459E+03  0.32610674771E+03  0.47000000000E+01 0.  1.
         -5    1    4    4    0  502  0.53252162075E+02 -0.41172167303E+02 -0.21814375394E+03  0.22834125232E+03  0.47000000000E+01 0.  1.
          5    1    5    5  503    0 -0.23816845467E+02  0.51274283149E+02 -0.87067929565E+02  0.10391924076E+03  0.47000000000E+01 0.  1.
         -5    1    5    5    0  503 -0.25192813490E+01 -0.67565049356E+02 -0.17760977247E+03  0.19010182521E+03  0.47000000000E+01 0.  1.
<mgrwt>
<rscale>  0 0.27501957E+03</rscale>
<asrwt>0</asrwt>
<pdfrwt beam="1">  1        1 0.12700997E+00 0.27501957E+03</pdfrwt>
<pdfrwt beam="2">  1       -1 0.35237303E-02 0.27501957E+03</pdfrwt>
<totfact> 0.65055021E+03</totfact>
</mgrwt>
</event>
<event>
 9    1  0.2031653E-002  0.2743367E+03  0.7818608E-02  0.1098823E+00
         -2   -1    0    0    0  501 -0.00000000000E+00  0.00000000000E+00  0.87031598822E+02  0.87031598822E+02  0.00000000000E+00 0. -1.
          2   -1    0    0  501    0  0.00000000000E+00 -0.00000000000E+00 -0.21618769783E+03  0.21618769783E+03  0.00000000000E+00 0. -1.
         36    2    1    2    0    0 -0.14210854715E-13  0.00000000000E+00 -0.12915609901E+03  0.30321929666E+03  0.27433673460E+03 0.  0.
         25    2    3    3    0    0 -0.49760453062E+02 -0.16419687730E+02 -0.42011621060E+02  0.14289095968E+03  0.12612351573E+03 0.  0.
         25    2    3    3    0    0  0.49760453062E+02  0.16419687730E+02 -0.87144477952E+02  0.16032833697E+03  0.12395687462E+03 0.  0.
          5    1    4    4  502    0 -0.27604820824E+02 -0.69435336362E+01  0.44460769905E+02  0.53000838225E+02  0.47000000000E+01 0.  1.
         -5    1    4    4    0  502 -0.22155632239E+02 -0.94761540940E+01 -0.86472390965E+02  0.89890121456E+02  0.47000000000E+01 0.  1.
          5    1    5    5  503    0 -0.29439417384E+02  0.36842497259E+01 -0.72732168516E+02  0.78691240485E+02  0.47000000000E+01 0. -1.
         -5    1    5    5    0  503  0.79199870447E+02  0.12735438004E+02 -0.14412309435E+02  0.81637096489E+02  0.47000000000E+01 0. -1.
<mgrwt>
<rscale>  0 0.27433673E+03</rscale>
<asrwt>0</asrwt>
<pdfrwt beam="1">  1        2 0.33259646E-01 0.27433673E+03</pdfrwt>
<pdfrwt beam="2">  1       -2 0.13389477E-01 0.27433673E+03</pdfrwt>
<totfact> 0.64144559E+03</totfact>
</mgrwt>
</event>
<event>
 9    1  0.2031653E-002  0.2753268E+03  0.7818608E-02  0.1098269E+00
         -2   -1    0    0    0  501 -0.00000000000E+00  0.00000000000E+00  0.21581662856E+02  0.21581662856E+02  0.00000000000E+00 0. -1.
          2   -1    0    0  501    0  0.00000000000E+00 -0.00000000000E+00 -0.87811653945E+03  0.87811653945E+03  0.00000000000E+00 0. -1.
         36    2    1    2    0    0 -0.71054273576E-14  0.00000000000E+00 -0.85653487659E+03  0.89969820230E+03  0.27532682472E+03 0.  0.
         25    2    3    3    0    0  0.39343261422E+02 -0.67944112847E+01 -0.38518709460E+03  0.40683013888E+03  0.12469004696E+03 0.  0.
         25    2    3    3    0    0 -0.39343261422E+02  0.67944112847E+01 -0.47134778199E+03  0.49286806342E+03  0.13840570837E+03 0.  0.
          5    1    4    4  502    0  0.45662670814E+02  0.41895720391E+02 -0.10247690772E+03  0.11984964542E+03  0.47000000000E+01 0.  1.
         -5    1    4    4    0  502 -0.63194093921E+01 -0.48690131675E+02 -0.28271018689E+03  0.28698049346E+03  0.47000000000E+01 0.  1.
          5    1    5    5  503    0  0.28934891429E+02  0.50995678768E+02 -0.25479439630E+03  0.26149581561E+03  0.47000000000E+01 0.  1.
         -5    1    5    5    0  503 -0.68278152851E+02 -0.44201267483E+02 -0.21655338568E+03  0.23137224781E+03  0.47000000000E+01 0.  1.
<mgrwt>
<rscale>  0 0.27532682E+03</rscale>
<asrwt>0</asrwt>
<pdfrwt beam="1">  1        2 0.13509483E+00 0.27532682E+03</pdfrwt>
<pdfrwt beam="2">  1       -2 0.33202564E-02 0.27532682E+03</pdfrwt>
<totfact> 0.11391367E+04</totfact>
</mgrwt>
</event>
<event>
 9    1  0.2031653E-002  0.2754890E+03  0.7818608E-02  0.1098179E+00
          1   -1    0    0  501    0  0.00000000000E+00  0.00000000000E+00  0.16164403793E+03  0.16164403793E+03  0.00000000000E+00 0. -1.
         -1   -1    0    0    0  501 -0.00000000000E+00 -0.00000000000E+00 -0.11737854938E+03  0.11737854938E+03  0.00000000000E+00 0. -1.
         36    2    1    2    0    0  0.00000000000E+00  0.00000000000E+00  0.44265488554E+02  0.27902258731E+03  0.27548896666E+03 0.  0.
         25    2    3    3    0    0 -0.36177728366E+02  0.39419456714E+02  0.23228232327E+01  0.13384227400E+03  0.12266065875E+03 0.  0.
         25    2    3    3    0    0  0.36177728366E+02 -0.39419456714E+02  0.41942665322E+02  0.14518031331E+03  0.12827865996E+03 0.  0.
          5    1    4    4  502    0  0.10046250566E+02  0.71762512378E+02 -0.15968210814E+02  0.74349573568E+02  0.47000000000E+01 0.  1.
         -5    1    4    4    0  502 -0.46223978933E+02 -0.32343055664E+02  0.18291034046E+02  0.59492700431E+02  0.47000000000E+01 0.  1.
          5    1    5    5  503    0 -0.53032543966E+01 -0.58619227241E+02 -0.24888219457E+02  0.64076920785E+02  0.47000000000E+01 0.  1.
         -5    1    5    5    0  503  0.41480982763E+02  0.19199770528E+02  0.66830884779E+02  0.81103392528E+02  0.47000000000E+01 0.  1.
<mgrwt>
<rscale>  0 0.27548897E+03</rscale>
<asrwt>0</asrwt>
<pdfrwt beam="1">  1        1 0.24868314E-01 0.27548897E+03</pdfrwt>
<pdfrwt beam="2">  1       -1 0.18058238E-01 0.27548897E+03</pdfrwt>
<totfact> 0.45595727E+03</totfact>
</mgrwt>
</event>
<event>
 9    1  0.2031653E-002  0.2740361E+03  0.7818608E-02  0.1098992E+00
         -2   -1    0    0    0  501 -0.00000000000E+00  0.00000000000E+00  0.85109415829E+02  0.85109415829E+02  0.00000000000E+00 0.  1.
          2   -1    0    0  501    0  0.00000000000E+00 -0.00000000000E+00 -0.22058601950E+03  0.22058601950E+03  0.00000000000E+00 0.  1.
         36    2    1    2    0    0  0.00000000000E+00 -0.35527136788E-14 -0.13547660367E+03  0.30569543532E+03  0.27403610900E+03 0.  0.
         25    2    3    3    0    0 -0.27982761348E+01  0.12424470792E+02 -0.11964806468E+03  0.17742603680E+03  0.13039225947E+03 0.  0.
         25    2    3    3    0    0  0.27982761348E+01 -0.12424470792E+02 -0.15828538987E+02  0.12826939852E+03  0.12665029857E+03 0.  0.
          5    1    4    4  502    0  0.39615954248E+02  0.41479501467E+02 -0.11106690846E+03  0.12509165051E+03  0.47000000000E+01 0. -1.
         -5    1    4    4    0  502 -0.42414230383E+02 -0.29055030675E+02 -0.85811562245E+01  0.52334386293E+02  0.47000000000E+01 0. -1.
          5    1    5    5  503    0 -0.34360540591E+02 -0.49498477191E+02 -0.37675517776E+02  0.71219945476E+02  0.47000000000E+01 0.  1.
         -5    1    5    5    0  503  0.37158816725E+02  0.37074006398E+02  0.21846978789E+02  0.57049453048E+02  0.47000000000E+01 0.  1.
<mgrwt>
<rscale>  0 0.27403611E+03</rscale>
<asrwt>0</asrwt>
<pdfrwt beam="1">  1        2 0.33936311E-01 0.27403611E+03</pdfrwt>
<pdfrwt beam="2">  1       -2 0.13093756E-01 0.27403611E+03</pdfrwt>
<totfact> 0.65078607E+03</totfact>
</mgrwt>
</event>
<event>
 9    1  0.2031653E-002  0.2747033E+03  0.7818608E-02  0.1098618E+00
         -1   -1    0    0    0  501 -0.00000000000E+00  0.00000000000E+00  0.69276774328E+01  0.69276774328E+01  0.00000000000E+00 0. -1.
          1   -1    0    0  501    0  0.00000000000E+00 -0.00000000000E+00 -0.27232030375E+04  0.27232030375E+04  0.00000000000E+00 0. -1.
         36    2    1    2    0    0  0.00000000000E+00  0.00000000000E+00 -0.27162753600E+04  0.27301307149E+04  0.27470327430E+03 0.  0.
         25    2    3    3    0    0  0.46673059256E+02 -0.97711783265E+01 -0.14506592035E+04  0.14568039724E+04  0.12486728614E+03 0.  0.
         25    2    3    3    0    0 -0.46673059256E+02  0.97711783265E+01 -0.12656161566E+04  0.12733267425E+04  0.13154043825E+03 0.  0.
          5    1    4    4  502    0 -0.25667194049E+02 -0.45669344731E+02 -0.53608042111E+03  0.53865462200E+03  0.47000000000E+01 0. -1.
         -5    1    4    4    0  502  0.72340253305E+02  0.35898166404E+02 -0.91457878235E+03  0.91814935045E+03  0.47000000000E+01 0. -1.
          5    1    5    5  503    0 -0.80933973387E+02  0.67189225144E+01 -0.47252969102E+03  0.47948081386E+03  0.47000000000E+01 0.  1.
         -5    1    5    5    0  503  0.34260914131E+02  0.30522558122E+01 -0.79308646556E+03  0.79384592860E+03  0.47000000000E+01 0.  1.
<mgrwt>
<rscale>  0 0.27470327E+03</rscale>
<asrwt>0</asrwt>
<pdfrwt beam="1">  1        1 0.41895364E+00 0.27470327E+03</pdfrwt>
<pdfrwt beam="2">  1       -1 0.10657982E-02 0.27470327E+03</pdfrwt>
<totfact> 0.19257844E+03</totfact>
</mgrwt>
</event>
<event>
 9    1  0.2031653E-002  0.2745753E+03  0.7818608E-02  0.1098689E+00
          2   -1    0    0  501    0  0.00000000000E+00  0.00000000000E+00  0.13301606029E+03  0.13301606029E+03  0.00000000000E+00 0.  1.
         -2   -1    0    0    0  501 -0.00000000000E+00 -0.00000000000E+00 -0.14169638238E+03  0.14169638238E+03  0.00000000000E+00 0.  1.
         36    2    1    2    0    0  0.71054273576E-14 -0.35527136788E-14 -0.86803220855E+01  0.27471244267E+03  0.27457526867E+03 0.  0.
         25    2    3    3    0    0 -0.12445173362E+02 -0.18314949271E+02 -0.66071135449E+02  0.13404421950E+03  0.11450824483E+03 0.  0.
         25    2    3    3    0    0  0.12445173362E+02  0.18314949271E+02  0.57390813363E+02  0.14066822317E+03  0.12650503486E+03 0.  0.
          5    1    4    4  502    0 -0.61542821396E+02 -0.65869779954E+01 -0.19132890434E+02  0.64954327345E+02  0.47000000000E+01 0. -1.
         -5    1    4    4    0  502  0.49097648034E+02 -0.11727971276E+02 -0.46938245015E+02  0.69089892153E+02  0.47000000000E+01 0. -1.
          5    1    5    5  503    0 -0.32559561475E+02 -0.40444783703E+02  0.11286137550E+02  0.53342032892E+02  0.47000000000E+01 0. -1.
         -5    1    5    5    0  503  0.45004734837E+02  0.58759732975E+02  0.46104675813E+02  0.87326190280E+02  0.47000000000E+01 0. -1.
<mgrwt>
<rscale>  0 0.27457527E+03</rscale>
<asrwt>0</asrwt>
<pdfrwt beam="1">  1        2 0.20464009E-01 0.27457527E+03</pdfrwt>
<pdfrwt beam="2">  1       -2 0.21799443E-01 0.27457527E+03</pdfrwt>
<totfact> 0.48611453E+03</totfact>
</mgrwt>
</event>
<event>
 9    1  0.2031653E-002  0.2747125E+03  0.7818608E-02  0.1098612E+00
          1   -1    0    0  501    0  0.00000000000E+00  0.00000000000E+00  0.20628306524E+04  0.20628306524E+04  0.00000000000E+00 0. -1.
         -1   -1    0    0    0  501 -0.00000000000E+00 -0.00000000000E+00 -0.91460445926E+01  0.91460445926E+01  0.00000000000E+00 0. -1.
         36    2    1    2    0    0 -0.21316282073E-13  0.00000000000E+00  0.20536846078E+04  0.20719766970E+04  0.27471251252E+03 0.  0.
         25    2    3    3    0    0 -0.36877238433E+02 -0.61343031286E+02  0.83723682099E+03  0.84715453074E+03  0.10762158855E+03 0.  0.
         25    2    3    3    0    0  0.36877238433E+02  0.61343031286E+02  0.12164477868E+04  0.12248221663E+04  0.12377892673E+03 0.  0.
          5    1    4    4  502    0  0.36854318241E+02 -0.92952088779E+01  0.28730805117E+03  0.28984935389E+03  0.47000000000E+01 0.  1.
         -5    1    4    4    0  502 -0.73731556675E+02 -0.52047822408E+02  0.54992876983E+03  0.55730517685E+03  0.47000000000E+01 0.  1.
          5    1    5    5  503    0  0.37216353686E+02 -0.25099204366E+02  0.21770183895E+03  0.22233130172E+03  0.47000000000E+01 0. -1.
         -5    1    5    5    0  503 -0.33911525238E+00  0.86442235651E+02  0.99874594788E+03  0.10024908646E+04  0.47000000000E+01 0. -1.
<mgrwt>
<rscale>  0 0.27471251E+03</rscale>
<asrwt>0</asrwt>
<pdfrwt beam="1">  1        1 0.31735819E+00 0.27471251E+03</pdfrwt>
<pdfrwt beam="2">  1       -1 0.14070854E-02 0.27471251E+03</pdfrwt>
<totfact> 0.35180794E+03</totfact>
</mgrwt>
</event>
<event>
 9    1  0.2031653E-002  0.2750639E+03  0.7818608E-02  0.1098416E+00
         -2   -1    0    0    0  501 -0.00000000000E+00  0.00000000000E+00  0.56682229024E+03  0.56682229024E+03  0.00000000000E+00 0.  1.
          2   -1    0    0  501    0  0.00000000000E+00 -0.00000000000E+00 -0.33370313725E+02  0.33370313725E+02  0.00000000000E+00 0.  1.
         36    2    1    2    0    0  0.00000000000E+00  0.00000000000E+00  0.53345197651E+03  0.60019260396E+03  0.27506390277E+03 0.  0.
         25    2    3    3    0    0  0.49095858323E+02  0.33101216841E+02  0.29566366945E+03  0.32701192048E+03  0.12654523635E+03 0.  0.
         25    2    3    3    0    0 -0.49095858323E+02 -0.33101216841E+02  0.23778830706E+03  0.27318068348E+03  0.12074068491E+03 0.  0.
          5    1    4    4  502    0  0.83505392792E+01  0.63607464780E+02  0.67695361947E+02  0.93383045095E+02  0.47000000000E+01 0.  1.
         -5    1    4    4    0  502  0.40745319044E+02 -0.30506247939E+02  0.22796830751E+03  0.23362887539E+03  0.47000000000E+01 0.  1.
          5    1    5    5  503    0 -0.69908263773E+02 -0.60576592466E+02  0.12788292097E+03  0.15790129947E+03  0.47000000000E+01 0. -1.
         -5    1    5    5    0  503  0.20812405450E+02  0.27475375625E+02  0.10990538609E+03  0.11527938401E+03  0.47000000000E+01 0. -1.
<mgrwt>
<rscale>  0 0.27506390E+03</rscale>
<asrwt>0</asrwt>
<pdfrwt beam="1">  1        2 0.51338948E-02 0.27506390E+03</pdfrwt>
<pdfrwt beam="2">  1       -2 0.87203422E-01 0.27506390E+03</pdfrwt>
<totfact> 0.17798932E+03</totfact>
</mgrwt>
</event>
<event>
 9    1  0.2031653E-002  0.2757092E+03  0.7818608E-02  0.1098056E+00
         -1   -1    0    0    0  501 -0.00000000000E+00  0.00000000000E+00  0.17249259335E+04  0.17249259335E+04  0.00000000000E+00 0.  1.
          1   -1    0    0  501    0  0.00000000000E+00 -0.00000000000E+00 -0.11017224507E+02  0.11017224507E+02  0.00000000000E+00 0.  1.
         36    2    1    2    0    0  0.00000000000E+00  0.00000000000E+00  0.17139087090E+04  0.17359431580E+04  0.27570924009E+03 0.  0.
         25    2    3    3    0    0  0.44374295904E+02  0.55792673964E+02  0.10083150125E+04  0.10183598655E+04  0.12359510716E+03 0.  0.
         25    2    3    3    0    0 -0.44374295904E+02 -0.55792673964E+02  0.70559369651E+03  0.71758329258E+03  0.10945965754E+03 0.  0.
          5    1    4    4  502    0  0.14564103136E+02  0.16898648430E+02  0.88894260668E+03  0.88923491013E+03  0.47000000000E+01 0.  1.
         -5    1    4    4    0  502  0.29810192768E+02  0.38894025534E+02  0.11937240584E+03  0.12912495533E+03  0.47000000000E+01 0.  1.
          5    1    5    5  503    0 -0.55365085755E+02 -0.54385393425E+02  0.70001070941E+03  0.70431537469E+03  0.47000000000E+01 0. -1.
         -5    1    5    5    0  503  0.10990789851E+02 -0.14072805386E+01  0.55829870992E+01  0.13267917886E+02  0.47000000000E+01 0. -1.
<mgrwt>
<rscale>  0 0.27570924E+03</rscale>
<asrwt>0</asrwt>
<pdfrwt beam="1">  1        1 0.16949590E-02 0.27570924E+03</pdfrwt>
<pdfrwt beam="2">  1       -1 0.26537301E+00 0.27570924E+03</pdfrwt>
<totfact> 0.48603903E+02</totfact>
</mgrwt>
</event>
<event>
 9    1  0.2031653E-002  0.2758223E+03  0.7818608E-02  0.1097993E+00
         -2   -1    0    0    0  501 -0.00000000000E+00  0.00000000000E+00  0.45541943227E+02  0.45541943227E+02  0.00000000000E+00 0.  1.
          2   -1    0    0  501    0  0.00000000000E+00 -0.00000000000E+00 -0.41762558708E+03  0.41762558708E+03  0.00000000000E+00 0.  1.
         36    2    1    2    0    0 -0.71054273576E-14  0.00000000000E+00 -0.37208364386E+03  0.46316753031E+03  0.27582226725E+03 0.  0.
         25    2    3    3    0    0 -0.15041180474E+02 -0.35724585681E+02 -0.20590279706E+03  0.24410520772E+03  0.12525536901E+03 0.  0.
         25    2    3    3    0    0  0.15041180474E+02  0.35724585681E+02 -0.16618084679E+03  0.21906232259E+03  0.13736718752E+03 0.  0.
          5    1    4    4  502    0 -0.42618064541E+02 -0.52382399899E+02 -0.48257790673E+02  0.83133143842E+02  0.47000000000E+01 0. -1.
         -5    1    4    4    0  502  0.27576884068E+02  0.16657814218E+02 -0.15764500639E+03  0.16097206388E+03  0.47000000000E+01 0. -1.
          5    1    5    5  503    0  0.62898196799E+02  0.52374136320E+02 -0.60900254513E+02  0.10212817591E+03  0.47000000000E+01 0.  1.
         -5    1    5    5    0  503 -0.47857016325E+02 -0.16649550639E+02 -0.10528059228E+03  0.11693414668E+03  0.47000000000E+01 0.  1.
<mgrwt>
<rscale>  0 0.27582227E+03</rscale>
<asrwt>0</asrwt>
<pdfrwt beam="1">  1        2 0.64250090E-01 0.27582227E+03</pdfrwt>
<pdfrwt beam="2">  1       -2 0.70064529E-02 0.27582227E+03</pdfrwt>
<totfact> 0.88022589E+03</totfact>
</mgrwt>
</event>
<event>
 9    1  0.2031653E-002  0.2749537E+03  0.7818608E-02  0.1098477E+00
         -2   -1    0    0    0  501 -0.00000000000E+00  0.00000000000E+00  0.21841366666E+02  0.21841366666E+02  0.00000000000E+00 0. -1.
          2   -1    0    0  501    0  0.00000000000E+00 -0.00000000000E+00 -0.86532510412E+03  0.86532510412E+03  0.00000000000E+00 0. -1.
         36    2    1    2    0    0  0.00000000000E+00  0.71054273576E-14 -0.84348373745E+03  0.88716647079E+03  0.27495368981E+03 0.  0.
         25    2    3    3    0    0 -0.46794710234E+02 -0.37607191281E+02 -0.45779798228E+03  0.47814697518E+03  0.12426379824E+03 0.  0.
         25    2    3    3    0    0  0.46794710234E+02  0.37607191281E+02 -0.38568575518E+03  0.40901949561E+03  0.12222683952E+03 0.  0.
          5    1    4    4  502    0 -0.28626293134E+02 -0.83245584710E+02 -0.27344495475E+03  0.28730389018E+03  0.47000000000E+01 0. -1.
         -5    1    4    4    0  502 -0.18168417100E+02  0.45638393428E+02 -0.18435302752E+03  0.19084308500E+03  0.47000000000E+01 0. -1.
          5    1    5    5  503    0  0.52613985954E+02  0.70910103700E+01 -0.54082403101E+02  0.75930957265E+02  0.47000000000E+01 0. -1.
         -5    1    5    5    0  503 -0.58192757202E+01  0.30516180911E+02 -0.33160335208E+03  0.33308853834E+03  0.47000000000E+01 0. -1.
<mgrwt>
<rscale>  0 0.27495369E+03</rscale>
<asrwt>0</asrwt>
<pdfrwt beam="1">  1        2 0.13312693E+00 0.27495369E+03</pdfrwt>
<pdfrwt beam="2">  1       -2 0.33602104E-02 0.27495369E+03</pdfrwt>
<totfact> 0.11407868E+04</totfact>
</mgrwt>
</event>
<event>
 9    1  0.2031653E-002  0.2762492E+03  0.7818608E-02  0.1097755E+00
          2   -1    0    0  501    0  0.00000000000E+00  0.00000000000E+00  0.76861513221E+03  0.76861513221E+03  0.00000000000E+00 0. -1.
         -2   -1    0    0    0  501 -0.00000000000E+00 -0.00000000000E+00 -0.24821798414E+02  0.24821798414E+02  0.00000000000E+00 0. -1.
         36    2    1    2    0    0 -0.35527136788E-14  0.00000000000E+00  0.74379333379E+03  0.79343693062E+03  0.27624923435E+03 0.  0.
         25    2    3    3    0    0  0.22550640891E+02 -0.48432179669E+02  0.28042351370E+03  0.31093463895E+03  0.12324283034E+03 0.  0.
         25    2    3    3    0    0 -0.22550640891E+02  0.48432179669E+02  0.46336982010E+03  0.48250229167E+03  0.12346118363E+03 0.  0.
          5    1    4    4  502    0 -0.22967288257E+02  0.26803667158E+02  0.14567386454E+03  0.14996298781E+03  0.47000000000E+01 0. -1.
         -5    1    4    4    0  502  0.45517929147E+02 -0.75235846827E+02  0.13474964916E+03  0.16097165114E+03  0.47000000000E+01 0. -1.
          5    1    5    5  503    0 -0.27024374034E+02 -0.15822434804E+02  0.27700128158E+02  0.42072001795E+02  0.47000000000E+01 0. -1.
         -5    1    5    5    0  503  0.44737331429E+01  0.64254614474E+02  0.43566969194E+03  0.44043028988E+03  0.47000000000E+01 0. -1.
<mgrwt>
<rscale>  0 0.27624923E+03</rscale>
<asrwt>0</asrwt>
<pdfrwt beam="1">  1        2 0.11824846E+00 0.27624923E+03</pdfrwt>
<pdfrwt beam="2">  1       -2 0.38187388E-02 0.27624923E+03</pdfrwt>
<totfact> 0.10967972E+04</totfact>
</mgrwt>
</event>
<event>
 9    1  0.2031653E-002  0.2724140E+03  0.7818608E-02  0.1099906E+00
         -2   -1    0    0    0  501 -0.00000000000E+00  0.00000000000E+00  0.19556447999E+02  0.19556447999E+02  0.00000000000E+00 0. -1.
          2   -1    0    0  501    0  0.00000000000E+00 -0.00000000000E+00 -0.94865618120E+03  0.94865618120E+03  0.00000000000E+00 0. -1.
         36    2    1    2    0    0 -0.35527136788E-14  0.00000000000E+00 -0.92909973320E+03  0.96821262920E+03  0.27241398846E+03 0.  0.
         25    2    3    3    0    0  0.17998615542E+02 -0.54432055627E+02 -0.49338582165E+03  0.51242795307E+03  0.12596046697E+03 0.  0.
         25    2    3    3    0    0 -0.17998615542E+02  0.54432055627E+02 -0.43571391155E+03  0.45578467613E+03  0.12085635869E+03 0.  0.
          5    1    4    4  502    0  0.44866265244E+02 -0.67017287285E+02 -0.46189893325E+03  0.46891045317E+03  0.47000000000E+01 0.  1.
         -5    1    4    4    0  502 -0.26867649702E+02  0.12585231657E+02 -0.31486888395E+02  0.43517499895E+02  0.47000000000E+01 0.  1.
          5    1    5    5  503    0  0.18480941839E+02  0.79811760188E+02 -0.20557575816E+03  0.22134801698E+03  0.47000000000E+01 0.  1.
         -5    1    5    5    0  503 -0.36479557381E+02 -0.25379704561E+02 -0.23013815339E+03  0.23443665916E+03  0.47000000000E+01 0.  1.
<mgrwt>
<rscale>  0 0.27241399E+03</rscale>
<asrwt>0</asrwt>
<pdfrwt beam="1">  1        2 0.14594713E+00 0.27241399E+03</pdfrwt>
<pdfrwt beam="2">  1       -2 0.30086839E-02 0.27241399E+03</pdfrwt>
<totfact> 0.11885022E+04</totfact>
</mgrwt>
</event>
<event>
 9    1  0.2031653E-002  0.2754317E+03  0.7818608E-02  0.1098211E+00
         -3   -1    0    0    0  501 -0.00000000000E+00  0.00000000000E+00  0.27742015217E+02  0.27742015217E+02  0.00000000000E+00 0. -1.
          3   -1    0    0  501    0  0.00000000000E+00 -0.00000000000E+00 -0.68364397959E+03  0.68364397959E+03  0.00000000000E+00 0. -1.
         36    2    1    2    0    0 -0.14210854715E-13  0.35527136788E-14 -0.65590196437E+03  0.71138599481E+03  0.27543174607E+03 0.  0.
         25    2    3    3    0    0 -0.39050634338E+02  0.94636563624E+01 -0.33160164063E+03  0.35720267430E+03  0.12656851751E+03 0.  0.
         25    2    3    3    0    0  0.39050634338E+02 -0.94636563624E+01 -0.32430032374E+03  0.35418332050E+03  0.13660384955E+03 0.  0.
          5    1    4    4  502    0  0.36170772712E+02 -0.93003256980E+01 -0.20686358197E+03  0.21026043946E+03  0.47000000000E+01 0.  1.
         -5    1    4    4    0  502 -0.75221407050E+02  0.18763982060E+02 -0.12473805866E+03  0.14694223484E+03  0.47000000000E+01 0.  1.
          5    1    5    5  503    0  0.62085091796E+02  0.12890396386E+02 -0.31366417896E+03  0.32004379092E+03  0.47000000000E+01 0.  1.
         -5    1    5    5    0  503 -0.23034457458E+02 -0.22354052748E+02 -0.10636144780E+02  0.34139529587E+02  0.47000000000E+01 0.  1.
<mgrwt>
<rscale>  0 0.27543175E+03</rscale>
<asrwt>0</asrwt>
<pdfrwt beam="1">  1        3 0.10517599E+00 0.27543175E+03</pdfrwt>
<pdfrwt beam="2">  1       -3 0.42680026E-02 0.27543175E+03</pdfrwt>
<totfact> 0.60043943E+02</totfact>
</mgrwt>
</event>
<event>
 9    1  0.2031653E-002  0.2749965E+03  0.7818608E-02  0.1098454E+00
          1   -1    0    0  501    0  0.00000000000E+00  0.00000000000E+00  0.17394360999E+03  0.17394360999E+03  0.00000000000E+00 0. -1.
         -1   -1    0    0    0  501 -0.00000000000E+00 -0.00000000000E+00 -0.10868907283E+03  0.10868907283E+03  0.00000000000E+00 0. -1.
         36    2    1    2    0    0  0.71054273576E-14 -0.14210854715E-13  0.65254537154E+02  0.28263268282E+03  0.27499650685E+03 0.  0.
         25    2    3    3    0    0 -0.33214713845E+02  0.75915251178E+02  0.34631345228E+02  0.15493508602E+03  0.12625057715E+03 0.  0.
         25    2    3    3    0    0  0.33214713845E+02 -0.75915251178E+02  0.30623191926E+02  0.12769759680E+03  0.92209293278E+02 0.  0.
          5    1    4    4  502    0 -0.46677494150E+02  0.10378539200E+03  0.86001595646E+01  0.11422017684E+03  0.47000000000E+01 0. -1.
         -5    1    4    4    0  502  0.13462780305E+02 -0.27870140819E+02  0.26031185664E+02  0.40714909184E+02  0.47000000000E+01 0. -1.
          5    1    5    5  503    0  0.43813922956E+01  0.21322754269E+02  0.81042924417E+01  0.23698649836E+02  0.47000000000E+01 0.  1.
         -5    1    5    5    0  503  0.28833321550E+02 -0.97238005448E+02  0.22518899485E+02  0.10399894696E+03  0.47000000000E+01 0.  1.
<mgrwt>
<rscale>  0 0.27499651E+03</rscale>
<asrwt>0</asrwt>
<pdfrwt beam="1">  1        1 0.26760555E-01 0.27499651E+03</pdfrwt>
<pdfrwt beam="2">  1       -1 0.16721396E-01 0.27499651E+03</pdfrwt>
<totfact> 0.46994149E+03</totfact>
</mgrwt>
</event>
<event>
 9    1  0.2031653E-002  0.2804037E+03  0.7818608E-02  0.1095469E+00
          4   -1    0    0  501    0  0.00000000000E+00  0.00000000000E+00  0.20437706806E+03  0.20437706806E+03  0.00000000000E+00 0.  1.
         -4   -1    0    0    0  501 -0.00000000000E+00 -0.00000000000E+00 -0.96177925462E+02  0.96177925462E+02  0.00000000000E+00 0.  1.
         36    2    1    2    0    0  0.71054273576E-14  0.17763568394E-14  0.10819914260E+03  0.30055499352E+03  0.28040372621E+03 0.  0.
         25    2    3    3    0    0  0.60450051862E+02 -0.98911528981E+01  0.63756500677E+02  0.15604764513E+03  0.12858434001E+03 0.  0.
         25    2    3    3    0    0 -0.60450051862E+02  0.98911528981E+01  0.44442641919E+02  0.14450734839E+03  0.12310638343E+03 0.  0.
          5    1    4    4  502    0  0.83127267014E+02 -0.39677296875E+01  0.88547758762E+02  0.12160872083E+03  0.47000000000E+01 0. -1.
         -5    1    4    4    0  502 -0.22677215152E+02 -0.59234232106E+01 -0.24791258085E+02  0.34438924301E+02  0.47000000000E+01 0. -1.
          5    1    5    5  503    0  0.40852745023E+01  0.57045037638E+02  0.20567694151E+02  0.60958558296E+02  0.47000000000E+01 0. -1.
         -5    1    5    5    0  503 -0.64535326364E+02 -0.47153884740E+02  0.23874947768E+02  0.83548790093E+02  0.47000000000E+01 0. -1.
<mgrwt>
<rscale>  0 0.28040373E+03</rscale>
<asrwt>0</asrwt>
<pdfrwt beam="1">  1        4 0.31442626E-01 0.28040373E+03</pdfrwt>
<pdfrwt beam="2">  1       -4 0.14796604E-01 0.28040373E+03</pdfrwt>
<totfact> 0.70555518E+02</totfact>
</mgrwt>
</event>
<event>
 9    1  0.2031653E-002  0.2735554E+03  0.7818608E-02  0.1099262E+00
          1   -1    0    0  501    0  0.00000000000E+00  0.00000000000E+00  0.87750436884E+03  0.87750436884E+03  0.00000000000E+00 0.  1.
         -1   -1    0    0    0  501 -0.00000000000E+00 -0.00000000000E+00 -0.21319706282E+02  0.21319706282E+02  0.00000000000E+00 0.  1.
         36    2    1    2    0    0  0.00000000000E+00  0.00000000000E+00  0.85618466256E+03  0.89882407512E+03  0.27355537213E+03 0.  0.
         25    2    3    3    0    0 -0.10366162868E+02 -0.36217653395E+02  0.22638886672E+03  0.25550579979E+03  0.11230369094E+03 0.  0.
         25    2    3    3    0    0  0.10366162868E+02  0.36217653395E+02  0.62979579584E+03  0.64331827533E+03  0.12568406094E+03 0.  0.
          5    1    4    4  502    0 -0.85519401020E+01  0.36489027424E+02  0.12540036607E+03  0.13096536417E+03  0.47000000000E+01 0.  1.
         -5    1    4    4    0  502 -0.18142227661E+01 -0.72706680819E+02  0.10098850065E+03  0.12454043562E+03  0.47000000000E+01 0.  1.
          5    1    5    5  503    0  0.56096614267E+01  0.18664684647E+02  0.62303136932E+03  0.62335384486E+03  0.47000000000E+01 0.  1.
         -5    1    5    5    0  503  0.47565014414E+01  0.17552968749E+02  0.67644265198E+01  0.19964430470E+02  0.47000000000E+01 0.  1.
<mgrwt>
<rscale>  0 0.27355537E+03</rscale>
<asrwt>0</asrwt>
<pdfrwt beam="1">  1        1 0.13500064E+00 0.27355537E+03</pdfrwt>
<pdfrwt beam="2">  1       -1 0.32799555E-02 0.27355537E+03</pdfrwt>
<totfact> 0.65665919E+03</totfact>
</mgrwt>
</event>
<event>
 9    1  0.2031653E-002  0.2739402E+03  0.7818608E-02  0.1099045E+00
         -2   -1    0    0    0  501 -0.00000000000E+00  0.00000000000E+00  0.20341592460E+02  0.20341592460E+02  0.00000000000E+00 0.  1.
          2   -1    0    0  501    0  0.00000000000E+00 -0.00000000000E+00 -0.92228826774E+03  0.92228826774E+03  0.00000000000E+00 0.  1.
         36    2    1    2    0    0  0.35527136788E-14  0.00000000000E+00 -0.90194667528E+03  0.94262986020E+03  0.27394022759E+03 0.  0.
         25    2    3    3    0    0  0.16760189225E+02 -0.50531103153E+02 -0.38240302154E+03  0.40539419669E+03  0.12360456101E+03 0.  0.
         25    2    3    3    0    0 -0.16760189225E+02  0.50531103153E+02 -0.51954365374E+03  0.53723566350E+03  0.12594543926E+03 0.  0.
          5    1    4    4  502    0  0.88844892524E+01  0.46246970376E+01  0.62719734244E+01  0.12718082505E+02  0.47000000000E+01 0.  1.
         -5    1    4    4    0  502  0.78756999725E+01 -0.55155800191E+02 -0.38867499496E+03  0.39267611419E+03  0.47000000000E+01 0.  1.
          5    1    5    5  503    0 -0.62185016036E+02  0.29843079077E+02 -0.42134503217E+03  0.42697928723E+03  0.47000000000E+01 0.  1.
         -5    1    5    5    0  503  0.45424826812E+02  0.20688024076E+02 -0.98198621568E+02  0.11025637627E+03  0.47000000000E+01 0.  1.
<mgrwt>
<rscale>  0 0.27394023E+03</rscale>
<asrwt>0</asrwt>
<pdfrwt beam="1">  1        2 0.14189051E+00 0.27394023E+03</pdfrwt>
<pdfrwt beam="2">  1       -2 0.31294756E-02 0.27394023E+03</pdfrwt>
<totfact> 0.11649583E+04</totfact>
</mgrwt>
</event>
<event>
 9    1  0.2031653E-002  0.2757908E+03  0.7818608E-02  0.1098010E+00
          1   -1    0    0  501    0  0.00000000000E+00  0.00000000000E+00  0.39170953888E+02  0.39170953888E+02  0.00000000000E+00 0.  1.
         -1   -1    0    0    0  501 -0.00000000000E+00 -0.00000000000E+00 -0.48544000799E+03  0.48544000799E+03  0.00000000000E+00 0.  1.
         36    2    1    2    0    0  0.00000000000E+00 -0.71054273576E-14 -0.44626905410E+03  0.52461096187E+03  0.27579084951E+03 0.  0.
         25    2    3    3    0    0  0.63923790046E+01 -0.53233930204E+02 -0.23763802630E+03  0.27969447028E+03  0.13741343212E+03 0.  0.
         25    2    3    3    0    0 -0.63923790046E+01  0.53233930204E+02 -0.20863102780E+03  0.24491649159E+03  0.11654384694E+03 0.  0.
          5    1    4    4  502    0 -0.58326664164E+01 -0.58487786292E+01  0.17472666990E+02  0.19890005046E+02  0.47000000000E+01 0. -1.
         -5    1    4    4    0  502  0.12225045421E+02 -0.47385151575E+02 -0.25511069329E+03  0.25980446524E+03  0.47000000000E+01 0. -1.
          5    1    5    5  503    0  0.14410783844E+02  0.86790406408E+01 -0.19200400009E+03  0.19279684252E+03  0.47000000000E+01 0.  1.
         -5    1    5    5    0  503 -0.20803162849E+02  0.44554889563E+02 -0.16627027711E+02  0.52119649069E+02  0.47000000000E+01 0.  1.
<mgrwt>
<rscale>  0 0.27579085E+03</rscale>
<asrwt>0</asrwt>
<pdfrwt beam="1">  1        1 0.60263004E-02 0.27579085E+03</pdfrwt>
<pdfrwt beam="2">  1       -1 0.74683081E-01 0.27579085E+03</pdfrwt>
<totfact> 0.24099458E+03</totfact>
</mgrwt>
</event>
<event>
 9    1  0.2031653E-002  0.2752333E+03  0.7818608E-02  0.1098321E+00
         -1   -1    0    0    0  501 -0.00000000000E+00  0.00000000000E+00  0.23732664645E+02  0.23732664645E+02  0.00000000000E+00 0.  1.
          1   -1    0    0  501    0  0.00000000000E+00 -0.00000000000E+00 -0.79798617769E+03  0.79798617769E+03  0.00000000000E+00 0.  1.
         36    2    1    2    0    0  0.00000000000E+00  0.00000000000E+00 -0.77425351305E+03  0.82171884233E+03  0.27523327085E+03 0.  0.
         25    2    3    3    0    0 -0.32110390742E+02 -0.26057789381E+02 -0.39376825056E+03  0.41829716306E+03  0.13494071253E+03 0.  0.
         25    2    3    3    0    0  0.32110390742E+02  0.26057789381E+02 -0.38048526249E+03  0.40342167927E+03  0.12755363874E+03 0.  0.
          5    1    4    4  502    0 -0.36137223055E+01  0.45751885787E+02 -0.25733696396E+03  0.26143966237E+03  0.47000000000E+01 0.  1.
         -5    1    4    4    0  502 -0.28496668436E+02 -0.71809675168E+02 -0.13643128660E+03  0.15685750069E+03  0.47000000000E+01 0.  1.
          5    1    5    5  503    0  0.37195524803E+02  0.64484456115E+02 -0.12973499167E+03  0.14964962483E+03  0.47000000000E+01 0.  1.
         -5    1    5    5    0  503 -0.50851340612E+01 -0.38426666735E+02 -0.25075027081E+03  0.25377205445E+03  0.47000000000E+01 0.  1.
<mgrwt>
<rscale>  0 0.27523327E+03</rscale>
<asrwt>0</asrwt>
<pdfrwt beam="1">  1        1 0.12276711E+00 0.27523327E+03</pdfrwt>
<pdfrwt beam="2">  1       -1 0.36511790E-02 0.27523327E+03</pdfrwt>
<totfact> 0.65055548E+03</totfact>
</mgrwt>
</event>
<event>
 9    1  0.2031653E-002  0.2769636E+03  0.7818608E-02  0.1097359E+00
         -1   -1    0    0    0  501 -0.00000000000E+00  0.00000000000E+00  0.66383912156E+02  0.66383912156E+02  0.00000000000E+00 0. -1.
          1   -1    0    0  501    0  0.00000000000E+00 -0.00000000000E+00 -0.28888344861E+03  0.28888344861E+03  0.00000000000E+00 0. -1.
         36    2    1    2    0    0  0.00000000000E+00  0.00000000000E+00 -0.22249953646E+03  0.35526736077E+03  0.27696363282E+03 0.  0.
         25    2    3    3    0    0 -0.17203544158E+01 -0.71690400813E+02 -0.20572971856E+02  0.10767601126E+03  0.77642791310E+02 0.  0.
         25    2    3    3    0    0  0.17203544158E+01  0.71690400813E+02 -0.20192656460E+03  0.24759134950E+03  0.12403493730E+03 0.  0.
          5    1    4    4  502    0 -0.15021900282E+02 -0.52007383965E+02 -0.46991229412E+02  0.71837950392E+02  0.47000000000E+01 0.  1.
         -5    1    4    4    0  502  0.13301545866E+02 -0.19683016848E+02  0.26418257556E+02  0.35838060871E+02  0.47000000000E+01 0.  1.
          5    1    5    5  503    0 -0.19568716430E+02  0.91521201448E+02 -0.19639449224E+03  0.21760503569E+03  0.47000000000E+01 0. -1.
         -5    1    5    5    0  503  0.21289070846E+02 -0.19830800635E+02 -0.55320723594E+01  0.29986313810E+02  0.47000000000E+01 0. -1.
<mgrwt>
<rscale>  0 0.27696363E+03</rscale>
<asrwt>0</asrwt>
<pdfrwt beam="1">  1        1 0.44443608E-01 0.27696363E+03</pdfrwt>
<pdfrwt beam="2">  1       -1 0.10212910E-01 0.27696363E+03</pdfrwt>
<totfact> 0.53882658E+03</totfact>
</mgrwt>
</event>
<event>
 9    1  0.2031653E-002  0.2743765E+03  0.7818608E-02  0.1098801E+00
         -2   -1    0    0    0  501 -0.00000000000E+00  0.00000000000E+00  0.72553234427E+03  0.72553234427E+03  0.00000000000E+00 0. -1.
          2   -1    0    0  501    0  0.00000000000E+00 -0.00000000000E+00 -0.25940426720E+02  0.25940426720E+02  0.00000000000E+00 0. -1.
         36    2    1    2    0    0 -0.71054273576E-14 -0.35527136788E-14  0.69959191755E+03  0.75147277099E+03  0.27437651947E+03 0.  0.
         25    2    3    3    0    0 -0.45846604795E+02 -0.12774274884E+02  0.26301199295E+03  0.29522978133E+03  0.12538030978E+03 0.  0.
         25    2    3    3    0    0  0.45846604795E+02  0.12774274884E+02  0.43657992461E+03  0.45624298966E+03  0.12365493026E+03 0.  0.
          5    1    4    4  502    0 -0.88308731509E+02  0.10780346303E+01  0.15912569126E+03  0.18205128354E+03  0.47000000000E+01 0. -1.
         -5    1    4    4    0  502  0.42462126714E+02 -0.13852309514E+02  0.10388630169E+03  0.11317849779E+03  0.47000000000E+01 0. -1.
          5    1    5    5  503    0 -0.59327479902E+01 -0.38245033040E+02  0.28949573745E+03  0.29210914407E+03  0.47000000000E+01 0.  1.
         -5    1    5    5    0  503  0.51779352785E+02  0.51019307924E+02  0.14708418716E+03  0.16413384559E+03  0.47000000000E+01 0.  1.
<mgrwt>
<rscale>  0 0.27437652E+03</rscale>
<asrwt>0</asrwt>
<pdfrwt beam="1">  1        2 0.39908354E-02 0.27437652E+03</pdfrwt>
<pdfrwt beam="2">  1       -2 0.11162035E+00 0.27437652E+03</pdfrwt>
<totfact> 0.14051010E+03</totfact>
</mgrwt>
</event>
<event>
 9    1  0.2031653E-002  0.2736825E+03  0.7818608E-02  0.1099190E+00
          2   -1    0    0  501    0  0.00000000000E+00  0.00000000000E+00  0.26343178868E+03  0.26343178868E+03  0.00000000000E+00 0.  1.
         -2   -1    0    0    0  501 -0.00000000000E+00 -0.00000000000E+00 -0.71083015579E+02  0.71083015579E+02  0.00000000000E+00 0.  1.
         36    2    1    2    0    0  0.35527136788E-14  0.00000000000E+00  0.19234877310E+03  0.33451480426E+03  0.27368248712E+03 0.  0.
         25    2    3    3    0    0 -0.84411000711E+01  0.14464018146E+02  0.15998546059E+03  0.20279747351E+03  0.12349497023E+03 0.  0.
         25    2    3    3    0    0  0.84411000711E+01 -0.14464018146E+02  0.32363312509E+02  0.13171733075E+03  0.12657650347E+03 0.  0.
          5    1    4    4  502    0  0.45446021017E+02  0.20408555222E+01  0.13385783395E+03  0.14145499506E+03  0.47000000000E+01 0. -1.
         -5    1    4    4    0  502 -0.53887121088E+02  0.12423162624E+02  0.26127626638E+02  0.61342478450E+02  0.47000000000E+01 0. -1.
          5    1    5    5  503    0 -0.14845311195E+02 -0.27556596740E+02 -0.41982814097E+02  0.52577523410E+02  0.47000000000E+01 0. -1.
         -5    1    5    5    0  503  0.23286411266E+02  0.13092578594E+02  0.74346126606E+02  0.79139807336E+02  0.47000000000E+01 0. -1.
<mgrwt>
<rscale>  0 0.27368249E+03</rscale>
<asrwt>0</asrwt>
<pdfrwt beam="1">  1        2 0.40527967E-01 0.27368249E+03</pdfrwt>
<pdfrwt beam="2">  1       -2 0.10935849E-01 0.27368249E+03</pdfrwt>
<totfact> 0.71818125E+03</totfact>
</mgrwt>
</event>
<event>
 9    1  0.2031653E-002  0.2757706E+03  0.7818608E-02  0.1098022E+00
          2   -1    0    0  501    0  0.00000000000E+00  0.00000000000E+00  0.20657315779E+04  0.20657315779E+04  0.00000000000E+00 0.  1.
         -2   -1    0    0    0  501 -0.00000000000E+00 -0.00000000000E+00 -0.92036920657E+01  0.92036920657E+01  0.00000000000E+00 0.  1.
         36    2    1    2    0    0  0.71054273576E-14  0.71054273576E-14  0.20565278859E+04  0.20749352700E+04  0.27577060999E+03 0.  0.
         25    2    3    3    0    0  0.36484173551E+02  0.54470280414E+02  0.63051770264E+03  0.64017480272E+03  0.89292207556E+02 0.  0.
         25    2    3    3    0    0 -0.36484173551E+02 -0.54470280414E+02  0.14260101832E+04  0.14347604673E+04  0.14399461595E+03 0.  0.
          5    1    4    4  502    0  0.50013039287E+02  0.61222150852E+02  0.60487766368E+03  0.61003978057E+03  0.47000000000E+01 0. -1.
         -5    1    4    4    0  502 -0.13528865736E+02 -0.67518704380E+01  0.25640038959E+02  0.30135022156E+02  0.47000000000E+01 0. -1.
          5    1    5    5  503    0 -0.40098564893E+02 -0.10232205493E+03  0.99080630577E+03  0.99689363695E+03  0.47000000000E+01 0.  1.
         -5    1    5    5    0  503  0.36143913420E+01  0.47851774514E+02  0.43520387744E+03  0.43786683032E+03  0.47000000000E+01 0.  1.
<mgrwt>
<rscale>  0 0.27577061E+03</rscale>
<asrwt>0</asrwt>
<pdfrwt beam="1">  1        2 0.31780449E+00 0.27577061E+03</pdfrwt>
<pdfrwt beam="2">  1       -2 0.14159543E-02 0.27577061E+03</pdfrwt>
<totfact> 0.88060496E+03</totfact>
</mgrwt>
</event>
<event>
 9    1  0.2031653E-002  0.2772780E+03  0.7818608E-02  0.1097185E+00
         -1   -1    0    0    0  501 -0.00000000000E+00  0.00000000000E+00  0.60789977243E+01  0.60789977243E+01  0.00000000000E+00 0. -1.
          1   -1    0    0  501    0  0.00000000000E+00 -0.00000000000E+00 -0.31618314759E+04  0.31618314759E+04  0.00000000000E+00 0. -1.
         36    2    1    2    0    0 -0.71054273576E-14  0.35527136788E-14 -0.31557524782E+04  0.31679104736E+04  0.27727795691E+03 0.  0.
         25    2    3    3    0    0 -0.48402689371E+02 -0.39936876124E+01 -0.10776306079E+04  0.10860508072E+04  0.12593593148E+03 0.  0.
         25    2    3    3    0    0  0.48402689371E+02  0.39936876124E+01 -0.20781218703E+04  0.20818596665E+04  0.11484943676E+03 0.  0.
          5    1    4    4  502    0 -0.70819181959E+02 -0.44600249746E+02 -0.54823740283E+03  0.55460876181E+03  0.47000000000E+01 0.  1.
         -5    1    4    4    0  502  0.22416492588E+02  0.40606562134E+02 -0.52939320504E+03  0.53144204536E+03  0.47000000000E+01 0.  1.
          5    1    5    5  503    0  0.45652153021E+02 -0.53318889913E+01 -0.28620283402E+03  0.28990808943E+03  0.47000000000E+01 0.  1.
         -5    1    5    5    0  503  0.27505363497E+01  0.93255766037E+01 -0.17919190363E+04  0.17919515770E+04  0.47000000000E+01 0.  1.
<mgrwt>
<rscale>  0 0.27727796E+03</rscale>
<asrwt>0</asrwt>
<pdfrwt beam="1">  1        1 0.48643545E+00 0.27727796E+03</pdfrwt>
<pdfrwt beam="2">  1       -1 0.93523074E-03 0.27727796E+03</pdfrwt>
<totfact> 0.11518972E+03</totfact>
</mgrwt>
</event>
<event>
 9    1  0.2031653E-002  0.2744609E+03  0.7818608E-02  0.1098753E+00
          4   -1    0    0  501    0  0.00000000000E+00  0.00000000000E+00  0.34808628957E+03  0.34808628957E+03  0.00000000000E+00 0.  1.
         -4   -1    0    0    0  501 -0.00000000000E+00 -0.00000000000E+00 -0.54102111536E+02  0.54102111536E+02  0.00000000000E+00 0.  1.
         36    2    1    2    0    0  0.00000000000E+00  0.71054273576E-14  0.29398417804E+03  0.40218840111E+03  0.27446094995E+03 0.  0.
         25    2    3    3    0    0 -0.41136157305E+02 -0.32196030980E+02  0.18483775119E+03  0.22796429515E+03  0.12277604713E+03 0.  0.
         25    2    3    3    0    0  0.41136157305E+02  0.32196030980E+02  0.10914642685E+03  0.17422410596E+03  0.12534882830E+03 0.  0.
          5    1    4    4  502    0 -0.70424183422E+02 -0.53471338707E+02  0.89607990484E+02  0.12597790137E+03  0.47000000000E+01 0. -1.
         -5    1    4    4    0  502  0.29288026117E+02  0.21275307727E+02  0.95229760705E+02  0.10198639378E+03  0.47000000000E+01 0. -1.
          5    1    5    5  503    0  0.27353836219E+02 -0.11801316481E+02  0.12236856827E+03  0.12603039287E+03  0.47000000000E+01 0. -1.
         -5    1    5    5    0  503  0.13782321086E+02  0.43997347461E+02 -0.13222141418E+02  0.48193713094E+02  0.47000000000E+01 0. -1.
<mgrwt>
<rscale>  0 0.27446095E+03</rscale>
<asrwt>0</asrwt>
<pdfrwt beam="1">  1        4 0.53551735E-01 0.27446095E+03</pdfrwt>
<pdfrwt beam="2">  1       -4 0.83234020E-02 0.27446095E+03</pdfrwt>
<totfact> 0.65198768E+02</totfact>
</mgrwt>
</event>
<event>
 9    1  0.2031653E-002  0.2749625E+03  0.7818608E-02  0.1098473E+00
         -2   -1    0    0    0  501 -0.00000000000E+00  0.00000000000E+00  0.18267483225E+03  0.18267483225E+03  0.00000000000E+00 0. -1.
          2   -1    0    0  501    0  0.00000000000E+00 -0.00000000000E+00 -0.10346854355E+03  0.10346854355E+03  0.00000000000E+00 0. -1.
         36    2    1    2    0    0 -0.71054273576E-14  0.00000000000E+00  0.79206288705E+02  0.28614337580E+03  0.27496253444E+03 0.  0.
         25    2    3    3    0    0  0.53993276883E+02 -0.16429700905E+02  0.49901821376E+01  0.12954173050E+03  0.11649441618E+03 0.  0.
         25    2    3    3    0    0 -0.53993276883E+02  0.16429700905E+02  0.74216106568E+02  0.15660164530E+03  0.12582064941E+03 0.  0.
          5    1    4    4  502    0  0.76835875952E+02 -0.63480006212E+01  0.39447016180E+02  0.86730652199E+02  0.47000000000E+01 0. -1.
         -5    1    4    4    0  502 -0.22842599069E+02 -0.10081700284E+02 -0.34456834043E+02  0.42811078299E+02  0.47000000000E+01 0. -1.
          5    1    5    5  503    0 -0.51955179506E+02  0.16379860316E+02 -0.22950760670E+02  0.59299813801E+02  0.47000000000E+01 0.  1.
         -5    1    5    5    0  503 -0.20380973780E+01  0.49840589006E-01  0.97166867238E+02  0.97301831503E+02  0.47000000000E+01 0.  1.
<mgrwt>
<rscale>  0 0.27496253E+03</rscale>
<asrwt>0</asrwt>
<pdfrwt beam="1">  1        2 0.15918237E-01 0.27496253E+03</pdfrwt>
<pdfrwt beam="2">  1       -2 0.28103820E-01 0.27496253E+03</pdfrwt>
<totfact> 0.41573881E+03</totfact>
</mgrwt>
</event>
<event>
 9    1  0.2031653E-002  0.2756904E+03  0.7818608E-02  0.1098066E+00
          2   -1    0    0  501    0  0.00000000000E+00  0.00000000000E+00  0.15986522939E+03  0.15986522939E+03  0.00000000000E+00 0. -1.
         -2   -1    0    0    0  501 -0.00000000000E+00 -0.00000000000E+00 -0.11885824037E+03  0.11885824037E+03  0.00000000000E+00 0. -1.
         36    2    1    2    0    0  0.71054273576E-14  0.00000000000E+00  0.41006989017E+02  0.27872346977E+03  0.27569040507E+03 0.  0.
         25    2    3    3    0    0  0.36761240528E+02  0.54017865309E+02 -0.81017011233E+00  0.14577602436E+03  0.13030991645E+03 0.  0.
         25    2    3    3    0    0 -0.36761240528E+02 -0.54017865309E+02  0.41817159129E+02  0.13294744540E+03  0.10796772603E+03 0.  0.
          5    1    4    4  502    0  0.11818944146E+02  0.43259140560E+02  0.62301382704E+02  0.76906390953E+02  0.47000000000E+01 0.  1.
         -5    1    4    4    0  502  0.24942296382E+02  0.10758724749E+02 -0.63111552816E+02  0.68869633409E+02  0.47000000000E+01 0.  1.
          5    1    5    5  503    0  0.20337506842E+02 -0.18123519648E+02  0.57273484593E+02  0.63595740317E+02  0.47000000000E+01 0. -1.
         -5    1    5    5    0  503 -0.57098747369E+02 -0.35894345661E+02 -0.15456325464E+02  0.69351705086E+02  0.47000000000E+01 0. -1.
<mgrwt>
<rscale>  0 0.27569041E+03</rscale>
<asrwt>0</asrwt>
<pdfrwt beam="1">  1        2 0.24594651E-01 0.27569041E+03</pdfrwt>
<pdfrwt beam="2">  1       -2 0.18285883E-01 0.27569041E+03</pdfrwt>
<totfact> 0.53343150E+03</totfact>
</mgrwt>
</event>
<event>
 9    1  0.2031653E-002  0.2751302E+03  0.7818608E-02  0.1098379E+00
          1   -1    0    0  501    0  0.00000000000E+00  0.00000000000E+00  0.56982977775E+03  0.56982977775E+03  0.00000000000E+00 0. -1.
         -1   -1    0    0    0  501 -0.00000000000E+00 -0.00000000000E+00 -0.33210182939E+02  0.33210182939E+02  0.00000000000E+00 0. -1.
         36    2    1    2    0    0 -0.71054273576E-14 -0.17763568394E-14  0.53661959481E+03  0.60303996069E+03  0.27513015947E+03 0.  0.
         25    2    3    3    0    0 -0.46574031563E+02 -0.12460890820E+02  0.10251992339E+03  0.14982674503E+03  0.98047461047E+02 0.  0.
         25    2    3    3    0    0  0.46574031563E+02  0.12460890820E+02  0.43409967142E+03  0.45321321566E+03  0.12097636094E+03 0.  0.
          5    1    4    4  502    0 -0.75234584299E+02 -0.38193189595E+01  0.88857992691E+02  0.11658757540E+03  0.47000000000E+01 0.  1.
         -5    1    4    4    0  502  0.28660552735E+02 -0.86415718610E+01  0.13661930698E+02  0.33239169631E+02  0.47000000000E+01 0.  1.
          5    1    5    5  503    0  0.82461699995E+01 -0.51400236369E+02  0.23091402836E+03  0.23675591252E+03  0.47000000000E+01 0.  1.
         -5    1    5    5    0  503  0.38327861564E+02  0.63861127189E+02  0.20318564306E+03  0.21645730314E+03  0.47000000000E+01 0.  1.
<mgrwt>
<rscale>  0 0.27513016E+03</rscale>
<asrwt>0</asrwt>
<pdfrwt beam="1">  1        1 0.87666113E-01 0.27513016E+03</pdfrwt>
<pdfrwt beam="2">  1       -1 0.51092593E-02 0.27513016E+03</pdfrwt>
<totfact> 0.64124299E+03</totfact>
</mgrwt>
</event>
<event>
 9    1  0.2031653E-002  0.2745935E+03  0.7818608E-02  0.1098679E+00
          1   -1    0    0  501    0  0.00000000000E+00  0.00000000000E+00  0.95356822540E+03  0.95356822540E+03  0.00000000000E+00 0. -1.
         -1   -1    0    0    0  501 -0.00000000000E+00 -0.00000000000E+00 -0.19768267917E+02  0.19768267917E+02  0.00000000000E+00 0. -1.
         36    2    1    2    0    0  0.00000000000E+00  0.00000000000E+00  0.93379995749E+03  0.97333649332E+03  0.27459346064E+03 0.  0.
         25    2    3    3    0    0 -0.42066602138E+02  0.38527951877E+02  0.50496147332E+03  0.52302457838E+03  0.12375224424E+03 0.  0.
         25    2    3    3    0    0  0.42066602138E+02 -0.38527951877E+02  0.42883848416E+03  0.45031191494E+03  0.12499749257E+03 0.  0.
          5    1    4    4  502    0 -0.22562555651E+02  0.64168952861E+02  0.47125626527E+03  0.47616308234E+03  0.47000000000E+01 0. -1.
         -5    1    4    4    0  502 -0.19504046487E+02 -0.25641000984E+02  0.33705208054E+02  0.46861496037E+02  0.47000000000E+01 0. -1.
          5    1    5    5  503    0  0.57270253279E+02 -0.54674221487E+02  0.14258112977E+03  0.16315826970E+03  0.47000000000E+01 0. -1.
         -5    1    5    5    0  503 -0.15203651141E+02  0.16146269610E+02  0.28625735440E+03  0.28715364524E+03  0.47000000000E+01 0. -1.
<mgrwt>
<rscale>  0 0.27459346E+03</rscale>
<asrwt>0</asrwt>
<pdfrwt beam="1">  1        1 0.14670277E+00 0.27459346E+03</pdfrwt>
<pdfrwt beam="2">  1       -1 0.30412727E-02 0.27459346E+03</pdfrwt>
<totfact> 0.64057458E+03</totfact>
</mgrwt>
</event>
<event>
 9    1  0.2031653E-002  0.2742851E+03  0.7818608E-02  0.1098852E+00
         -1   -1    0    0    0  501 -0.00000000000E+00  0.00000000000E+00  0.49037534908E+02  0.49037534908E+02  0.00000000000E+00 0. -1.
          1   -1    0    0  501    0  0.00000000000E+00 -0.00000000000E+00 -0.38354446577E+03  0.38354446577E+03  0.00000000000E+00 0. -1.
         36    2    1    2    0    0  0.00000000000E+00  0.00000000000E+00 -0.33450693086E+03  0.43258200068E+03  0.27428507162E+03 0.  0.
         25    2    3    3    0    0  0.15557561293E+01 -0.69152073131E+02 -0.16588731594E+03  0.21145807833E+03  0.11140685663E+03 0.  0.
         25    2    3    3    0    0 -0.15557561293E+01  0.69152073131E+02 -0.16861961492E+03  0.22112392235E+03  0.12521495479E+03 0.  0.
          5    1    4    4  502    0  0.34770163905E+02 -0.65266053649E+02 -0.16113442208E+03  0.17735561461E+03  0.47000000000E+01 0. -1.
         -5    1    4    4    0  502 -0.33214407776E+02 -0.38860194826E+01 -0.47528938621E+01  0.34102463714E+02  0.47000000000E+01 0. -1.
          5    1    5    5  503    0  0.25150442306E+02  0.65976235557E+02 -0.25181539636E+02  0.75110640691E+02  0.47000000000E+01 0. -1.
         -5    1    5    5    0  503 -0.26706198436E+02  0.31758375741E+01 -0.14343807529E+03  0.14601328166E+03  0.47000000000E+01 0. -1.
<mgrwt>
<rscale>  0 0.27428507E+03</rscale>
<asrwt>0</asrwt>
<pdfrwt beam="1">  1        1 0.59006841E-01 0.27428507E+03</pdfrwt>
<pdfrwt beam="2">  1       -1 0.75442361E-02 0.27428507E+03</pdfrwt>
<totfact> 0.59909400E+03</totfact>
</mgrwt>
</event>
<event>
 9    1  0.2031653E-002  0.2746650E+03  0.7818608E-02  0.1098639E+00
         -3   -1    0    0    0  501 -0.00000000000E+00  0.00000000000E+00  0.88508908371E+03  0.88508908371E+03  0.00000000000E+00 0.  1.
          3   -1    0    0  501    0  0.00000000000E+00 -0.00000000000E+00 -0.21308836394E+02  0.21308836394E+02  0.00000000000E+00 0.  1.
         36    2    1    2    0    0  0.00000000000E+00  0.71054273576E-14  0.86378024731E+03  0.90639792010E+03  0.27466502128E+03 0.  0.
         25    2    3    3    0    0  0.10317126023E+02 -0.48881069976E+02  0.51086113525E+03  0.52803540092E+03  0.12388092275E+03 0.  0.
         25    2    3    3    0    0 -0.10317126023E+02  0.48881069976E+02  0.35291911206E+03  0.37836251918E+03  0.12692712150E+03 0.  0.
          5    1    4    4  502    0 -0.30067476899E+02 -0.66557339081E+02  0.18142970093E+03  0.19563424785E+03  0.47000000000E+01 0.  1.
         -5    1    4    4    0  502  0.40384602921E+02  0.17676269104E+02  0.32943143432E+03  0.33240115306E+03  0.47000000000E+01 0.  1.
          5    1    5    5  503    0 -0.51165646113E+02  0.68614083449E+02  0.27529135522E+03  0.28832834763E+03  0.47000000000E+01 0.  1.
         -5    1    5    5    0  503  0.40848520090E+02 -0.19733013472E+02  0.77627756847E+02  0.90034171553E+02  0.47000000000E+01 0.  1.
<mgrwt>
<rscale>  0 0.27466502E+03</rscale>
<asrwt>0</asrwt>
<pdfrwt beam="1">  1        3 0.32782832E-02 0.27466502E+03</pdfrwt>
<pdfrwt beam="2">  1       -3 0.13616752E+00 0.27466502E+03</pdfrwt>
<totfact> 0.48964391E+02</totfact>
</mgrwt>
</event>
<event>
 9    1  0.2031653E-002  0.2741769E+03  0.7818608E-02  0.1098913E+00
         -2   -1    0    0    0  501 -0.00000000000E+00  0.00000000000E+00  0.15973336938E+03  0.15973336938E+03  0.00000000000E+00 0.  1.
          2   -1    0    0  501    0  0.00000000000E+00 -0.00000000000E+00 -0.11765379834E+03  0.11765379834E+03  0.00000000000E+00 0.  1.
         36    2    1    2    0    0  0.00000000000E+00  0.00000000000E+00  0.42079571037E+02  0.27738716772E+03  0.27417685992E+03 0.  0.
         25    2    3    3    0    0 -0.40498145764E+02  0.13632689529E+02  0.42964205777E+02  0.14038770297E+03  0.12663662240E+03 0.  0.
         25    2    3    3    0    0  0.40498145764E+02 -0.13632689529E+02 -0.88463473950E+00  0.13699946476E+03  0.13016190199E+03 0.  0.
          5    1    4    4  502    0 -0.56341872534E+02 -0.27336070591E+01 -0.29819595487E+02  0.63977945288E+02  0.47000000000E+01 0.  1.
         -5    1    4    4    0  502  0.15843726771E+02  0.16366296588E+02  0.72783801264E+02  0.76409757678E+02  0.47000000000E+01 0.  1.
          5    1    5    5  503    0  0.25621052857E+02 -0.13930484642E+02  0.63881143184E+02  0.70380304108E+02  0.47000000000E+01 0. -1.
         -5    1    5    5    0  503  0.14877092907E+02  0.29779511231E+00 -0.64765777923E+02  0.66619160647E+02  0.47000000000E+01 0. -1.
<mgrwt>
<rscale>  0 0.27417686E+03</rscale>
<asrwt>0</asrwt>
<pdfrwt beam="1">  1        2 0.18100584E-01 0.27417686E+03</pdfrwt>
<pdfrwt beam="2">  1       -2 0.24574364E-01 0.27417686E+03</pdfrwt>
<totfact> 0.45418080E+03</totfact>
</mgrwt>
</event>
<event>
 9    1  0.2031653E-002  0.2752337E+03  0.7818608E-02  0.1098321E+00
         -1   -1    0    0    0  501 -0.00000000000E+00  0.00000000000E+00  0.34380903572E+03  0.34380903572E+03  0.00000000000E+00 0.  1.
          1   -1    0    0  501    0  0.00000000000E+00 -0.00000000000E+00 -0.55084069552E+02  0.55084069552E+02  0.00000000000E+00 0.  1.
         36    2    1    2    0    0 -0.71054273576E-14  0.17763568394E-14  0.28872496617E+03  0.39889310527E+03  0.27523372494E+03 0.  0.
         25    2    3    3    0    0 -0.23695908049E+02  0.14581945448E+02  0.70907977389E+02  0.14662628613E+03  0.12528845652E+03 0.  0.
         25    2    3    3    0    0  0.23695908049E+02 -0.14581945448E+02  0.21781698878E+03  0.25226681914E+03  0.12417801032E+03 0.  0.
          5    1    4    4  502    0 -0.68372782800E+02  0.39568153650E+01  0.73268085524E+02  0.10040316814E+03  0.47000000000E+01 0. -1.
         -5    1    4    4    0  502  0.44676874751E+02  0.10625130083E+02 -0.23601081352E+01  0.46223117995E+02  0.47000000000E+01 0. -1.
          5    1    5    5  503    0 -0.44301103626E+02 -0.24189203832E+02  0.13717792876E+03  0.14624492983E+03  0.47000000000E+01 0.  1.
         -5    1    5    5    0  503  0.67997011674E+02  0.96072583837E+01  0.80639060023E+02  0.10602188930E+03  0.47000000000E+01 0.  1.
<mgrwt>
<rscale>  0 0.27523372E+03</rscale>
<asrwt>0</asrwt>
<pdfrwt beam="1">  1        1 0.84744724E-02 0.27523372E+03</pdfrwt>
<pdfrwt beam="2">  1       -1 0.52893697E-01 0.27523372E+03</pdfrwt>
<totfact> 0.29609076E+03</totfact>
</mgrwt>
</event>
<event>
 9    1  0.2031653E-002  0.2747587E+03  0.7818608E-02  0.1098587E+00
         -1   -1    0    0    0  501 -0.00000000000E+00  0.00000000000E+00  0.53156544845E+01  0.53156544845E+01  0.00000000000E+00 0.  1.
          1   -1    0    0  501    0  0.00000000000E+00 -0.00000000000E+00 -0.35504721986E+04  0.35504721986E+04  0.00000000000E+00 0.  1.
         36    2    1    2    0    0  0.71054273576E-14 -0.71054273576E-14 -0.35451565441E+04  0.35557878531E+04  0.27475868295E+03 0.  0.
         25    2    3    3    0    0  0.31546439567E+02  0.40289634496E+02 -0.20024235554E+04  0.20069389930E+04  0.12444112649E+03 0.  0.
         25    2    3    3    0    0 -0.31546439567E+02 -0.40289634496E+02 -0.15427329887E+04  0.15488488601E+04  0.12762948082E+03 0.  0.
          5    1    4    4  502    0 -0.34591896572E+02 -0.34709790443E-01 -0.12574123195E+04  0.12578968287E+04  0.47000000000E+01 0. -1.
         -5    1    4    4    0  502  0.66138336139E+02  0.40324344287E+02 -0.74501123593E+03  0.74904216431E+03  0.47000000000E+01 0. -1.
          5    1    5    5  503    0  0.14420579600E+02  0.39194032291E+00 -0.12310806522E+04  0.12311741424E+04  0.47000000000E+01 0. -1.
         -5    1    5    5    0  503 -0.45967019167E+02 -0.40681574819E+02 -0.31165233649E+03  0.31767471763E+03  0.47000000000E+01 0. -1.
<mgrwt>
<rscale>  0 0.27475868E+03</rscale>
<asrwt>0</asrwt>
<pdfrwt beam="1">  1        1 0.54623024E+00 0.27475868E+03</pdfrwt>
<pdfrwt beam="2">  1       -1 0.81778739E-03 0.27475868E+03</pdfrwt>
<totfact> 0.72261549E+02</totfact>
</mgrwt>
</event>
<event>
 9    1  0.2031653E-002  0.2750871E+03  0.7818608E-02  0.1098403E+00
         -2   -1    0    0    0  501 -0.00000000000E+00  0.00000000000E+00  0.62278248132E+01  0.62278248132E+01  0.00000000000E+00 0.  1.
          2   -1    0    0  501    0  0.00000000000E+00 -0.00000000000E+00 -0.30376933932E+04  0.30376933932E+04  0.00000000000E+00 0.  1.
         36    2    1    2    0    0  0.00000000000E+00 -0.35527136788E-14 -0.30314655684E+04  0.30439212180E+04  0.27508705741E+03 0.  0.
         25    2    3    3    0    0 -0.60418230777E+00 -0.19658074802E+02 -0.20439637956E+04  0.20479042054E+04  0.12544652972E+03 0.  0.
         25    2    3    3    0    0  0.60418230777E+00  0.19658074802E+02 -0.98750177285E+03  0.99601701268E+03  0.12846529968E+03 0.  0.
          5    1    4    4  502    0  0.10125206014E+02  0.51385618889E+02 -0.10641153554E+04  0.10654138075E+04  0.47000000000E+01 0. -1.
         -5    1    4    4    0  502 -0.10729388322E+02 -0.71043693691E+02 -0.97984844016E+03  0.98249039786E+03  0.47000000000E+01 0. -1.
          5    1    5    5  503    0  0.59604171397E+02 -0.11358647528E+02 -0.37867888071E+03  0.38353808262E+03  0.47000000000E+01 0.  1.
         -5    1    5    5    0  503 -0.58999989089E+02  0.31016722329E+02 -0.60882289214E+03  0.61247893006E+03  0.47000000000E+01 0.  1.
<mgrwt>
<rscale>  0 0.27508706E+03</rscale>
<asrwt>0</asrwt>
<pdfrwt beam="1">  1        2 0.46733642E+00 0.27508706E+03</pdfrwt>
<pdfrwt beam="2">  1       -2 0.95812899E-03 0.27508706E+03</pdfrwt>
<totfact> 0.44893445E+03</totfact>
</mgrwt>
</event>
<event>
 9    1  0.2031653E-002  0.2746912E+03  0.7818608E-02  0.1098624E+00
          2   -1    0    0  501    0  0.00000000000E+00  0.00000000000E+00  0.23628264989E+04  0.23628264989E+04  0.00000000000E+00 0.  1.
         -2   -1    0    0    0  501 -0.00000000000E+00 -0.00000000000E+00 -0.79835788961E+01  0.79835788961E+01  0.00000000000E+00 0.  1.
         36    2    1    2    0    0  0.00000000000E+00  0.00000000000E+00  0.23548429200E+04  0.23708100778E+04  0.27469118495E+03 0.  0.
         25    2    3    3    0    0  0.43605756309E+02 -0.74329769834E+01  0.97558193621E+03  0.98501701940E+03  0.12861455248E+03 0.  0.
         25    2    3    3    0    0 -0.43605756309E+02  0.74329769834E+01  0.13792609838E+04  0.13857930584E+04  0.12690479961E+03 0.  0.
          5    1    4    4  502    0  0.20418188687E+02  0.34405710892E+02  0.84350152048E+03  0.84446288279E+03  0.47000000000E+01 0.  1.
         -5    1    4    4    0  502  0.23187567622E+02 -0.41838687876E+02  0.13208041574E+03  0.14055413660E+03  0.47000000000E+01 0.  1.
          5    1    5    5  503    0 -0.49363864596E+02  0.45748713628E+02  0.39219363562E+03  0.39795436139E+03  0.47000000000E+01 0. -1.
         -5    1    5    5    0  503  0.57581082870E+01 -0.38315736644E+02  0.98706734818E+03  0.98783869702E+03  0.47000000000E+01 0. -1.
<mgrwt>
<rscale>  0 0.27469118E+03</rscale>
<asrwt>0</asrwt>
<pdfrwt beam="1">  1        2 0.36351121E+00 0.27469118E+03</pdfrwt>
<pdfrwt beam="2">  1       -2 0.12282448E-02 0.27469118E+03</pdfrwt>
<totfact> 0.75264634E+03</totfact>
</mgrwt>
</event>
<event>
 9    1  0.2031653E-002  0.2851541E+03  0.7818608E-02  0.1092907E+00
          1   -1    0    0  501    0  0.00000000000E+00  0.00000000000E+00  0.42879640001E+03  0.42879640001E+03  0.00000000000E+00 0. -1.
         -1   -1    0    0    0  501 -0.00000000000E+00 -0.00000000000E+00 -0.47407630247E+02  0.47407630247E+02  0.00000000000E+00 0. -1.
         36    2    1    2    0    0  0.71054273576E-14 -0.35527136788E-14  0.38138876976E+03  0.47620403026E+03  0.28515414206E+03 0.  0.
         25    2    3    3    0    0 -0.42682850531E+02 -0.15335553496E+02  0.10953049105E+03  0.17328910155E+03  0.12639295596E+03 0.  0.
         25    2    3    3    0    0  0.42682850531E+02  0.15335553496E+02  0.27185827871E+03  0.30291492870E+03  0.12567229367E+03 0.  0.
          5    1    4    4  502    0  0.24408134889E+02 -0.50785988046E+02  0.60577562753E+02  0.82865582359E+02  0.47000000000E+01 0. -1.
         -5    1    4    4    0  502 -0.67090985420E+02  0.35450434550E+02  0.48952928298E+02  0.90423519193E+02  0.47000000000E+01 0. -1.
          5    1    5    5  503    0 -0.33687420747E+02  0.72509479075E+01  0.17888316914E+03  0.18223253487E+03  0.47000000000E+01 0. -1.
         -5    1    5    5    0  503  0.76370271278E+02  0.80846055885E+01  0.92975109571E+02  0.12068239384E+03  0.47000000000E+01 0. -1.
<mgrwt>
<rscale>  0 0.28515414E+03</rscale>
<asrwt>0</asrwt>
<pdfrwt beam="1">  1        1 0.65968674E-01 0.28515414E+03</pdfrwt>
<pdfrwt beam="2">  1       -1 0.72934819E-02 0.28515414E+03</pdfrwt>
<totfact> 0.54710337E+03</totfact>
</mgrwt>
</event>
<event>
 9    1  0.2031653E-002  0.2758377E+03  0.7818608E-02  0.1097984E+00
         -2   -1    0    0    0  501 -0.00000000000E+00  0.00000000000E+00  0.36606238927E+02  0.36606238927E+02  0.00000000000E+00 0.  1.
          2   -1    0    0  501    0  0.00000000000E+00 -0.00000000000E+00 -0.51962745704E+03  0.51962745704E+03  0.00000000000E+00 0.  1.
         36    2    1    2    0    0  0.00000000000E+00  0.71054273576E-14 -0.48302121811E+03  0.55623369597E+03  0.27583768304E+03 0.  0.
         25    2    3    3    0    0 -0.19632100990E+02  0.18024439234E+02 -0.16228283072E+03  0.21145004567E+03  0.13291013832E+03 0.  0.
         25    2    3    3    0    0  0.19632100990E+02 -0.18024439234E+02 -0.32073838739E+03  0.34478365029E+03  0.12366225199E+03 0.  0.
          5    1    4    4  502    0  0.90974987418E+01 -0.36473392778E+02 -0.86026828163E-01  0.37883641123E+02  0.47000000000E+01 0. -1.
         -5    1    4    4    0  502 -0.28729599732E+02  0.54497832012E+02 -0.16219680390E+03  0.17356640455E+03  0.47000000000E+01 0. -1.
          5    1    5    5  503    0 -0.92696811444E+00 -0.45185173371E+02 -0.30243387152E+03  0.30582821290E+03  0.47000000000E+01 0. -1.
         -5    1    5    5    0  503  0.20559069104E+02  0.27160734137E+02 -0.18304515866E+02  0.38955437392E+02  0.47000000000E+01 0. -1.
<mgrwt>
<rscale>  0 0.27583768E+03</rscale>
<asrwt>0</asrwt>
<pdfrwt beam="1">  1        2 0.79942692E-01 0.27583768E+03</pdfrwt>
<pdfrwt beam="2">  1       -2 0.56317286E-02 0.27583768E+03</pdfrwt>
<totfact> 0.96704565E+03</totfact>
</mgrwt>
</event>
<event>
 9    1  0.2031653E-002  0.2754489E+03  0.7818608E-02  0.1098201E+00
         -2   -1    0    0    0  501 -0.00000000000E+00  0.00000000000E+00  0.11703556083E+04  0.11703556083E+04  0.00000000000E+00 0.  1.
          2   -1    0    0  501    0  0.00000000000E+00 -0.00000000000E+00 -0.16207058668E+02  0.16207058668E+02  0.00000000000E+00 0.  1.
         36    2    1    2    0    0  0.10658141036E-13  0.71054273576E-14  0.11541485496E+04  0.11865626669E+04  0.27544888459E+03 0.  0.
         25    2    3    3    0    0 -0.30175255144E+02 -0.33968116962E+01  0.37065654560E+03  0.39164908310E+03  0.12280327822E+03 0.  0.
         25    2    3    3    0    0  0.30175255144E+02  0.33968116962E+01  0.78349200399E+03  0.79491358383E+03  0.13078914745E+03 0.  0.
          5    1    4    4  502    0 -0.70355780635E+02 -0.31491029659E+02  0.22258718596E+03  0.23560298421E+03  0.47000000000E+01 0. -1.
         -5    1    4    4    0  502  0.40180525491E+02  0.28094217963E+02  0.14806935964E+03  0.15604609889E+03  0.47000000000E+01 0. -1.
          5    1    5    5  503    0  0.60003204628E+01  0.61919682005E+02  0.52698776598E+03  0.53066773631E+03  0.47000000000E+01 0. -1.
         -5    1    5    5    0  503  0.24174934681E+02 -0.58522870309E+02  0.25650423801E+03  0.26424584752E+03  0.47000000000E+01 0. -1.
<mgrwt>
<rscale>  0 0.27544888E+03</rscale>
<asrwt>0</asrwt>
<pdfrwt beam="1">  1        2 0.24933945E-02 0.27544888E+03</pdfrwt>
<pdfrwt beam="2">  1       -2 0.18005464E+00 0.27544888E+03</pdfrwt>
<totfact> 0.78528812E+02</totfact>
</mgrwt>
</event>
<event>
 9    1  0.2031653E-002  0.2754844E+03  0.7818608E-02  0.1098181E+00
          4   -1    0    0  501    0  0.00000000000E+00  0.00000000000E+00  0.32826849239E+02  0.32826849239E+02  0.00000000000E+00 0.  1.
         -4   -1    0    0    0  501 -0.00000000000E+00 -0.00000000000E+00 -0.57796949528E+03  0.57796949528E+03  0.00000000000E+00 0.  1.
         36    2    1    2    0    0  0.35527136788E-14  0.00000000000E+00 -0.54514264604E+03  0.61079634452E+03  0.27548442777E+03 0.  0.
         25    2    3    3    0    0 -0.31260423817E+02 -0.22151167406E+02 -0.23699401522E+03  0.27311894673E+03  0.13023020962E+03 0.  0.
         25    2    3    3    0    0  0.31260423817E+02  0.22151167406E+02 -0.30814863082E+03  0.33767739779E+03  0.13267463204E+03 0.  0.
          5    1    4    4  502    0 -0.67801880204E+01 -0.54487255250E+02 -0.31227766175E+02  0.63341102884E+02  0.47000000000E+01 0.  1.
         -5    1    4    4    0  502 -0.24480235797E+02  0.32336087844E+02 -0.20576624905E+03  0.20977784385E+03  0.47000000000E+01 0.  1.
          5    1    5    5  503    0  0.72831358132E+01  0.59879980784E+02 -0.27564480312E+03  0.28220702268E+03  0.47000000000E+01 0.  1.
         -5    1    5    5    0  503  0.23977288004E+02 -0.37728813378E+02 -0.32503827696E+02  0.55470375101E+02  0.47000000000E+01 0.  1.
<mgrwt>
<rscale>  0 0.27548443E+03</rscale>
<asrwt>0</asrwt>
<pdfrwt beam="1">  1        4 0.50502849E-02 0.27548443E+03</pdfrwt>
<pdfrwt beam="2">  1       -4 0.88918378E-01 0.27548443E+03</pdfrwt>
<totfact> 0.49277139E+02</totfact>
</mgrwt>
</event>
<event>
 9    1  0.2031653E-002  0.2744022E+03  0.7818608E-02  0.1098786E+00
         -2   -1    0    0    0  501 -0.00000000000E+00  0.00000000000E+00  0.12757320559E+02  0.12757320559E+02  0.00000000000E+00 0. -1.
          2   -1    0    0  501    0  0.00000000000E+00 -0.00000000000E+00 -0.14755559660E+04  0.14755559660E+04  0.00000000000E+00 0. -1.
         36    2    1    2    0    0  0.00000000000E+00  0.00000000000E+00 -0.14627986455E+04  0.14883132866E+04  0.27440218995E+03 0.  0.
         25    2    3    3    0    0  0.35586205363E+01  0.36405007618E+02 -0.51620093738E+03  0.53233919590E+03  0.12483438382E+03 0.  0.
         25    2    3    3    0    0 -0.35586205363E+01 -0.36405007618E+02 -0.94659770810E+03  0.95597409069E+03  0.12845720198E+03 0.  0.
          5    1    4    4  502    0 -0.35996686068E+02  0.66556367143E+02 -0.37430624423E+03  0.38190675025E+03  0.47000000000E+01 0. -1.
         -5    1    4    4    0  502  0.39555306604E+02 -0.30151359526E+02 -0.14189469315E+03  0.15043244565E+03  0.47000000000E+01 0. -1.
          5    1    5    5  503    0  0.52574317708E+02 -0.29275098130E+01 -0.65379476117E+03  0.65592858524E+03  0.47000000000E+01 0.  1.
         -5    1    5    5    0  503 -0.56132938245E+02 -0.33477497805E+02 -0.29280294692E+03  0.30004550545E+03  0.47000000000E+01 0.  1.
<mgrwt>
<rscale>  0 0.27440219E+03</rscale>
<asrwt>0</asrwt>
<pdfrwt beam="1">  1        2 0.22700848E+00 0.27440219E+03</pdfrwt>
<pdfrwt beam="2">  1       -2 0.19626658E-02 0.27440219E+03</pdfrwt>
<totfact> 0.11176532E+04</totfact>
</mgrwt>
</event>
<event>
 9    1  0.2031653E-002  0.2788393E+03  0.7818608E-02  0.1096325E+00
          2   -1    0    0  501    0  0.00000000000E+00  0.00000000000E+00  0.11282436349E+04  0.11282436349E+04  0.00000000000E+00 0.  1.
         -2   -1    0    0    0  501 -0.00000000000E+00 -0.00000000000E+00 -0.17228403128E+02  0.17228403128E+02  0.00000000000E+00 0.  1.
         36    2    1    2    0    0 -0.71054273576E-14 -0.71054273576E-14  0.11110152318E+04  0.11454720381E+04  0.27883928109E+03 0.  0.
         25    2    3    3    0    0 -0.44702587380E+02 -0.50669237711E+01  0.38843009229E+03  0.41069992560E+03  0.12558860320E+03 0.  0.
         25    2    3    3    0    0  0.44702587380E+02  0.50669237711E+01  0.72258513953E+03  0.73477211248E+03  0.12544631671E+03 0.  0.
          5    1    4    4  502    0 -0.12935954728E+02 -0.64100338468E+02  0.17175014479E+03  0.18383795732E+03  0.47000000000E+01 0. -1.
         -5    1    4    4    0  502 -0.31766632651E+02  0.59033414697E+02  0.21667994750E+03  0.22686196827E+03  0.47000000000E+01 0. -1.
          5    1    5    5  503    0  0.20511270203E+02  0.47630153925E+02  0.60605812302E+03  0.60829095197E+03  0.47000000000E+01 0. -1.
         -5    1    5    5    0  503  0.24191317177E+02 -0.42563230154E+02  0.11652701650E+03  0.12648116051E+03  0.47000000000E+01 0. -1.
<mgrwt>
<rscale>  0 0.27883928E+03</rscale>
<asrwt>0</asrwt>
<pdfrwt beam="1">  1        2 0.17357589E+00 0.27883928E+03</pdfrwt>
<pdfrwt beam="2">  1       -2 0.26505244E-02 0.27883928E+03</pdfrwt>
<totfact> 0.11188419E+04</totfact>
</mgrwt>
</event>
<event>
 9    1  0.2031653E-002  0.2747239E+03  0.7818608E-02  0.1098606E+00
         -2   -1    0    0    0  501 -0.00000000000E+00  0.00000000000E+00  0.45592617416E+02  0.45592617416E+02  0.00000000000E+00 0.  1.
          2   -1    0    0  501    0  0.00000000000E+00 -0.00000000000E+00 -0.41384569935E+03  0.41384569935E+03  0.00000000000E+00 0.  1.
         36    2    1    2    0    0 -0.71054273576E-14  0.71054273576E-14 -0.36825308193E+03  0.45943831676E+03  0.27472392426E+03 0.  0.
         25    2    3    3    0    0 -0.48744497332E+02 -0.35749327440E+02 -0.23656307583E+03  0.27630606734E+03  0.12934030142E+03 0.  0.
         25    2    3    3    0    0  0.48744497332E+02  0.35749327440E+02 -0.13169000610E+03  0.18313224942E+03  0.11198715390E+03 0.  0.
          5    1    4    4  502    0  0.39165259034E+02  0.13729611330E+02 -0.71016985867E+02  0.82388846479E+02  0.47000000000E+01 0.  1.
         -5    1    4    4    0  502 -0.87909756366E+02 -0.49478938770E+02 -0.16554608996E+03  0.19391722086E+03  0.47000000000E+01 0.  1.
          5    1    5    5  503    0  0.42542417064E+02 -0.22394176917E+02 -0.11078202999E+03  0.12085571802E+03  0.47000000000E+01 0. -1.
         -5    1    5    5    0  503  0.62020802677E+01  0.58143504357E+02 -0.20907976117E+02  0.62276531405E+02  0.47000000000E+01 0. -1.
<mgrwt>
<rscale>  0 0.27472392E+03</rscale>
<asrwt>0</asrwt>
<pdfrwt beam="1">  1        2 0.63668570E-01 0.27472392E+03</pdfrwt>
<pdfrwt beam="2">  1       -2 0.70142487E-02 0.27472392E+03</pdfrwt>
<totfact> 0.88733433E+03</totfact>
</mgrwt>
</event>
<event>
 9    1  0.2031653E-002  0.2751800E+03  0.7818608E-02  0.1098351E+00
         -2   -1    0    0    0  501 -0.00000000000E+00  0.00000000000E+00  0.10136004904E+03  0.10136004904E+03  0.00000000000E+00 0.  1.
          2   -1    0    0  501    0  0.00000000000E+00 -0.00000000000E+00 -0.18676995029E+03  0.18676995029E+03  0.00000000000E+00 0.  1.
         36    2    1    2    0    0 -0.71054273576E-14  0.17763568394E-14 -0.85409901255E+02  0.28812999933E+03  0.27518002341E+03 0.  0.
         25    2    3    3    0    0 -0.55010079776E+02  0.27208035307E+01 -0.44682495669E+02  0.14389107685E+03  0.12519826249E+03 0.  0.
         25    2    3    3    0    0  0.55010079776E+02 -0.27208035307E+01 -0.40727405585E+02  0.14423892248E+03  0.12693554878E+03 0.  0.
          5    1    4    4  502    0  0.35739906386E+02 -0.10046830453E+02 -0.35648131081E+02  0.51683256091E+02  0.47000000000E+01 0.  1.
         -5    1    4    4    0  502 -0.90749986162E+02  0.12767633984E+02 -0.90343645886E+01  0.92207820761E+02  0.47000000000E+01 0.  1.
          5    1    5    5  503    0  0.60499640888E+01  0.58965022241E+02 -0.16467194629E+02  0.61698739147E+02  0.47000000000E+01 0. -1.
         -5    1    5    5    0  503  0.48960115687E+02 -0.61685825771E+02 -0.24260210957E+02  0.82540183335E+02  0.47000000000E+01 0. -1.
<mgrwt>
<rscale>  0 0.27518002E+03</rscale>
<asrwt>0</asrwt>
<pdfrwt beam="1">  1        2 0.28733838E-01 0.27518002E+03</pdfrwt>
<pdfrwt beam="2">  1       -2 0.15593854E-01 0.27518002E+03</pdfrwt>
<totfact> 0.58593184E+03</totfact>
</mgrwt>
</event>
<event>
 9    1  0.2031653E-002  0.2751351E+03  0.7818608E-02  0.1098376E+00
          2   -1    0    0  501    0  0.00000000000E+00  0.00000000000E+00  0.16857170235E+04  0.16857170235E+04  0.00000000000E+00 0.  1.
         -2   -1    0    0    0  501 -0.00000000000E+00 -0.00000000000E+00 -0.11226573460E+02  0.11226573460E+02  0.00000000000E+00 0.  1.
         36    2    1    2    0    0  0.71054273576E-14  0.71054273576E-14  0.16744904500E+04  0.16969435969E+04  0.27513506499E+03 0.  0.
         25    2    3    3    0    0 -0.36532157308E+02 -0.31061620036E+02  0.10116614932E+04  0.10205023448E+04  0.12516643380E+03 0.  0.
         25    2    3    3    0    0  0.36532157308E+02  0.31061620036E+02  0.66282895676E+03  0.67644125208E+03  0.12621853607E+03 0.  0.
          5    1    4    4  502    0  0.40615703457E+02 -0.29665620268E+02  0.25890666414E+03  0.26378861828E+03  0.47000000000E+01 0. -1.
         -5    1    4    4    0  502 -0.77147860766E+02 -0.13959997684E+01  0.75275482910E+03  0.75671372656E+03  0.47000000000E+01 0. -1.
          5    1    5    5  503    0 -0.43048436912E+02  0.20217834571E+02  0.35792242870E+03  0.36109899435E+03  0.47000000000E+01 0. -1.
         -5    1    5    5    0  503  0.79580594220E+02  0.10843785466E+02  0.30490652806E+03  0.31534225773E+03  0.47000000000E+01 0. -1.
<mgrwt>
<rscale>  0 0.27513506E+03</rscale>
<asrwt>0</asrwt>
<pdfrwt beam="1">  1        2 0.25934088E+00 0.27513506E+03</pdfrwt>
<pdfrwt beam="2">  1       -2 0.17271665E-02 0.27513506E+03</pdfrwt>
<totfact> 0.10428330E+04</totfact>
</mgrwt>
</event>
<event>
 9    1  0.2031653E-002  0.2747514E+03  0.7818608E-02  0.1098591E+00
         -2   -1    0    0    0  501 -0.00000000000E+00  0.00000000000E+00  0.17099823319E+02  0.17099823319E+02  0.00000000000E+00 0. -1.
          2   -1    0    0  501    0  0.00000000000E+00 -0.00000000000E+00 -0.11036423494E+04  0.11036423494E+04  0.00000000000E+00 0. -1.
         36    2    1    2    0    0  0.00000000000E+00  0.00000000000E+00 -0.10865425261E+04  0.11207421727E+04  0.27475144536E+03 0.  0.
         25    2    3    3    0    0 -0.45403115997E+02 -0.18648148181E+02 -0.43985864583E+03  0.45989968552E+03  0.12499158396E+03 0.  0.
         25    2    3    3    0    0  0.45403115997E+02  0.18648148181E+02 -0.64668388026E+03  0.66084248720E+03  0.12689978540E+03 0.  0.
          5    1    4    4  502    0 -0.86844857248E+02 -0.27877029700E+02 -0.31213633758E+03  0.32522352506E+03  0.47000000000E+01 0. -1.
         -5    1    4    4    0  502  0.41441741251E+02  0.92288815183E+01 -0.12772230825E+03  0.13467616046E+03  0.47000000000E+01 0. -1.
          5    1    5    5  503    0  0.36304009965E+02 -0.52267581717E+02 -0.33569165117E+03  0.34170287664E+03  0.47000000000E+01 0. -1.
         -5    1    5    5    0  503  0.90991060311E+01  0.70915729899E+02 -0.31099222909E+03  0.31913961056E+03  0.47000000000E+01 0. -1.
<mgrwt>
<rscale>  0 0.27475145E+03</rscale>
<asrwt>0</asrwt>
<pdfrwt beam="1">  1        2 0.16979106E+00 0.27475145E+03</pdfrwt>
<pdfrwt beam="2">  1       -2 0.26307432E-02 0.27475145E+03</pdfrwt>
<totfact> 0.11689008E+04</totfact>
</mgrwt>
</event>
<event>
 9    1  0.2031653E-002  0.2754997E+03  0.7818608E-02  0.1098173E+00
          2   -1    0    0  501    0  0.00000000000E+00  0.00000000000E+00  0.26059882980E+03  0.26059882980E+03  0.00000000000E+00 0.  1.
         -2   -1    0    0    0  501 -0.00000000000E+00 -0.00000000000E+00 -0.72813139004E+02  0.72813139004E+02  0.00000000000E+00 0.  1.
         36    2    1    2    0    0  0.71054273576E-14  0.35527136788E-14  0.18778569080E+03  0.33341196881E+03  0.27549968290E+03 0.  0.
         25    2    3    3    0    0  0.39278649010E+02  0.22452206948E+02  0.37423378697E+02  0.13274229081E+03  0.11905079853E+03 0.  0.
         25    2    3    3    0    0 -0.39278649010E+02 -0.22452206948E+02  0.15036231210E+03  0.20066967800E+03  0.12495031373E+03 0.  0.
          5    1    4    4  502    0 -0.24600388157E+02  0.16181244413E+02  0.57965779662E+02  0.65185377041E+02  0.47000000000E+01 0. -1.
         -5    1    4    4    0  502  0.63879037168E+02  0.62709625353E+01 -0.20542400965E+02  0.67556913769E+02  0.47000000000E+01 0. -1.
          5    1    5    5  503    0 -0.62750451397E+01 -0.41688845971E+02 -0.30248414388E+01  0.42527352794E+02  0.47000000000E+01 0. -1.
         -5    1    5    5    0  503 -0.33003603871E+02  0.19236639023E+02  0.15338715354E+03  0.15814232520E+03  0.47000000000E+01 0. -1.
<mgrwt>
<rscale>  0 0.27549968E+03</rscale>
<asrwt>0</asrwt>
<pdfrwt beam="1">  1        2 0.40092127E-01 0.27549968E+03</pdfrwt>
<pdfrwt beam="2">  1       -2 0.11202022E-01 0.27549968E+03</pdfrwt>
<totfact> 0.69929431E+03</totfact>
</mgrwt>
</event>
<event>
 9    1  0.2031653E-002  0.2751659E+03  0.7818608E-02  0.1098359E+00
         -1   -1    0    0    0  501 -0.00000000000E+00  0.00000000000E+00  0.43514105797E+01  0.43514105797E+01  0.00000000000E+00 0.  1.
          1   -1    0    0  501    0  0.00000000000E+00 -0.00000000000E+00 -0.43500987739E+04  0.43500987739E+04  0.00000000000E+00 0.  1.
         36    2    1    2    0    0  0.00000000000E+00  0.35527136788E-14 -0.43457473633E+04  0.43544501845E+04  0.27516588326E+03 0.  0.
         25    2    3    3    0    0 -0.29523126969E+02  0.12109564614E+02 -0.14737379820E+04  0.14796138036E+04  0.12780888710E+03 0.  0.
         25    2    3    3    0    0  0.29523126969E+02 -0.12109564614E+02 -0.28720093814E+04  0.28748363809E+04  0.12340208215E+03 0.  0.
          5    1    4    4  502    0 -0.13013545978E+02 -0.23766097959E+02 -0.13351232580E+04  0.13354064490E+04  0.47000000000E+01 0. -1.
         -5    1    4    4    0  502 -0.16509580991E+02  0.35875662572E+02 -0.13861472393E+03  0.14420735460E+03  0.47000000000E+01 0. -1.
          5    1    5    5  503    0 -0.23130191334E+02  0.41715771817E+02 -0.14885927135E+04  0.14893641489E+04  0.47000000000E+01 0.  1.
         -5    1    5    5    0  503  0.52653318303E+02 -0.53825336431E+02 -0.13834166678E+04  0.13854722320E+04  0.47000000000E+01 0.  1.
<mgrwt>
<rscale>  0 0.27516588E+03</rscale>
<asrwt>0</asrwt>
<pdfrwt beam="1">  1        1 0.66924494E+00 0.27516588E+03</pdfrwt>
<pdfrwt beam="2">  1       -1 0.66944881E-03 0.27516588E+03</pdfrwt>
<totfact> 0.20631868E+02</totfact>
</mgrwt>
</event>
<event>
 9    1  0.2031653E-002  0.2748525E+03  0.7818608E-02  0.1098534E+00
         -2   -1    0    0    0  501 -0.00000000000E+00  0.00000000000E+00  0.16000809183E+02  0.16000809183E+02  0.00000000000E+00 0.  1.
          2   -1    0    0  501    0  0.00000000000E+00 -0.00000000000E+00 -0.11803136113E+04  0.11803136113E+04  0.00000000000E+00 0.  1.
         36    2    1    2    0    0 -0.71054273576E-14  0.00000000000E+00 -0.11643128021E+04  0.11963144204E+04  0.27485249040E+03 0.  0.
         25    2    3    3    0    0  0.24679954568E+02 -0.47803462275E+02 -0.42230656673E+03  0.44281619665E+03  0.12185678706E+03 0.  0.
         25    2    3    3    0    0 -0.24679954568E+02  0.47803462275E+02 -0.74200623535E+03  0.75349822379E+03  0.11954935717E+03 0.  0.
          5    1    4    4  502    0  0.55941852571E+02 -0.59542553010E+02 -0.38001100722E+03  0.38872260302E+03  0.47000000000E+01 0.  1.
         -5    1    4    4    0  502 -0.31261898004E+02  0.11739090735E+02 -0.42295559506E+02  0.54093593632E+02  0.47000000000E+01 0.  1.
          5    1    5    5  503    0 -0.46054212841E+02  0.18929208893E+02 -0.11449578635E+03  0.12494270912E+03  0.47000000000E+01 0.  1.
         -5    1    5    5    0  503  0.21374258274E+02  0.28874253382E+02 -0.62751044900E+03  0.62855551468E+03  0.47000000000E+01 0.  1.
<mgrwt>
<rscale>  0 0.27485249E+03</rscale>
<asrwt>0</asrwt>
<pdfrwt beam="1">  1        2 0.18158669E+00 0.27485249E+03</pdfrwt>
<pdfrwt beam="2">  1       -2 0.24616632E-02 0.27485249E+03</pdfrwt>
<totfact> 0.11644456E+04</totfact>
</mgrwt>
</event>
<event>
 9    1  0.2031653E-002  0.2752597E+03  0.7818608E-02  0.1098307E+00
          2   -1    0    0  501    0  0.00000000000E+00  0.00000000000E+00  0.34332386744E+02  0.34332386744E+02  0.00000000000E+00 0. -1.
         -2   -1    0    0    0  501 -0.00000000000E+00 -0.00000000000E+00 -0.55172323888E+03  0.55172323888E+03  0.00000000000E+00 0. -1.
         36    2    1    2    0    0 -0.53290705182E-14 -0.14210854715E-13 -0.51739085213E+03  0.58605562562E+03  0.27525970001E+03 0.  0.
         25    2    3    3    0    0  0.94347197310E+01 -0.37671134736E+02 -0.27441582325E+03  0.30145962234E+03  0.11859903677E+03 0.  0.
         25    2    3    3    0    0 -0.94347197310E+01  0.37671134736E+02 -0.24297502888E+03  0.28459600328E+03  0.14300311918E+03 0.  0.
          5    1    4    4  502    0  0.10134699350E+01 -0.74015591297E+02 -0.10912584848E+03  0.13194648795E+03  0.47000000000E+01 0.  1.
         -5    1    4    4    0  502  0.84212497959E+01  0.36344456561E+02 -0.16528997477E+03  0.16951313439E+03  0.47000000000E+01 0.  1.
          5    1    5    5  503    0  0.40909480130E+02 -0.31869164038E+02 -0.14593115431E+03  0.15494263770E+03  0.47000000000E+01 0.  1.
         -5    1    5    5    0  503 -0.50344199861E+02  0.69540298775E+02 -0.97043874578E+02  0.12965336558E+03  0.47000000000E+01 0.  1.
<mgrwt>
<rscale>  0 0.27525970E+03</rscale>
<asrwt>0</asrwt>
<pdfrwt beam="1">  1        2 0.52819057E-02 0.27525970E+03</pdfrwt>
<pdfrwt beam="2">  1       -2 0.84880497E-01 0.27525970E+03</pdfrwt>
<totfact> 0.18213590E+03</totfact>
</mgrwt>
</event>
<event>
 9    1  0.2031653E-002  0.2747814E+03  0.7818608E-02  0.1098574E+00
          2   -1    0    0  501    0  0.00000000000E+00  0.00000000000E+00  0.15451621632E+04  0.15451621632E+04  0.00000000000E+00 0.  1.
         -2   -1    0    0    0  501 -0.00000000000E+00 -0.00000000000E+00 -0.12216324928E+02  0.12216324928E+02  0.00000000000E+00 0.  1.
         36    2    1    2    0    0  0.00000000000E+00 -0.71054273576E-14  0.15329458383E+04  0.15573784881E+04  0.27478138985E+03 0.  0.
         25    2    3    3    0    0 -0.33403799338E+02 -0.60660876217E+02  0.67960315958E+03  0.69399407143E+03  0.12235914739E+03 0.  0.
         25    2    3    3    0    0  0.33403799338E+02  0.60660876217E+02  0.85334267867E+03  0.86338441668E+03  0.11154984542E+03 0.  0.
          5    1    4    4  502    0  0.12629328948E+02 -0.54540847335E+02  0.12057946103E+03  0.13302518709E+03  0.47000000000E+01 0. -1.
         -5    1    4    4    0  502 -0.46033128287E+02 -0.61200288820E+01  0.55902369855E+03  0.56096888434E+03  0.47000000000E+01 0. -1.
          5    1    5    5  503    0  0.60974941315E+02 -0.25205848136E+00  0.50140656259E+03  0.50512239904E+03  0.47000000000E+01 0. -1.
         -5    1    5    5    0  503 -0.27571141977E+02  0.60912934698E+02  0.35193611608E+03  0.35826201764E+03  0.47000000000E+01 0. -1.
<mgrwt>
<rscale>  0 0.27478139E+03</rscale>
<asrwt>0</asrwt>
<pdfrwt beam="1">  1        2 0.23771710E+00 0.27478139E+03</pdfrwt>
<pdfrwt beam="2">  1       -2 0.18794358E-02 0.27478139E+03</pdfrwt>
<totfact> 0.10933640E+04</totfact>
</mgrwt>
</event>
<event>
 9    1  0.2031653E-002  0.2749228E+03  0.7818608E-02  0.1098495E+00
          2   -1    0    0  501    0  0.00000000000E+00  0.00000000000E+00  0.41446565683E+03  0.41446565683E+03  0.00000000000E+00 0.  1.
         -2   -1    0    0    0  501 -0.00000000000E+00 -0.00000000000E+00 -0.45590347560E+02  0.45590347560E+02  0.00000000000E+00 0.  1.
         36    2    1    2    0    0  0.00000000000E+00  0.00000000000E+00  0.36887530927E+03  0.46005600439E+03  0.27492277713E+03 0.  0.
         25    2    3    3    0    0  0.36128816261E+02 -0.44076379850E+02  0.18017588194E+03  0.22641220557E+03  0.12470412894E+03 0.  0.
         25    2    3    3    0    0 -0.36128816261E+02  0.44076379850E+02  0.18869942734E+03  0.23364379882E+03  0.12543497210E+03 0.  0.
          5    1    4    4  502    0 -0.21433999258E+02 -0.46785221466E+02  0.18796139226E+02  0.54987799753E+02  0.47000000000E+01 0. -1.
         -5    1    4    4    0  502  0.57562815519E+02  0.27088416162E+01  0.16137974271E+03  0.17142440582E+03  0.47000000000E+01 0. -1.
          5    1    5    5  503    0 -0.43027687506E+02  0.47176149111E+02  0.20516607718E+03  0.21492366124E+03  0.47000000000E+01 0.  1.
         -5    1    5    5    0  503  0.68988712455E+01 -0.30997692605E+01 -0.16466649841E+02  0.18720137578E+02  0.47000000000E+01 0.  1.
<mgrwt>
<rscale>  0 0.27492278E+03</rscale>
<asrwt>0</asrwt>
<pdfrwt beam="1">  1        2 0.63763945E-01 0.27492278E+03</pdfrwt>
<pdfrwt beam="2">  1       -2 0.70138999E-02 0.27492278E+03</pdfrwt>
<totfact> 0.88598010E+03</totfact>
</mgrwt>
</event>
<event>
 9    1  0.2031653E-002  0.2746387E+03  0.7818608E-02  0.1098654E+00
         -1   -1    0    0    0  501 -0.00000000000E+00  0.00000000000E+00  0.20124615737E+02  0.20124615737E+02  0.00000000000E+00 0. -1.
          1   -1    0    0  501    0  0.00000000000E+00 -0.00000000000E+00 -0.93699217870E+03  0.93699217870E+03  0.00000000000E+00 0. -1.
         36    2    1    2    0    0  0.35527136788E-14  0.71054273576E-14 -0.91686756296E+03  0.95711679443E+03  0.27463872665E+03 0.  0.
         25    2    3    3    0    0  0.28631076810E+02 -0.41401960749E+02 -0.58568558659E+03  0.59985634782E+03  0.11944107655E+03 0.  0.
         25    2    3    3    0    0 -0.28631076810E+02  0.41401960749E+02 -0.33118197637E+03  0.35726044661E+03  0.12417594102E+03 0.  0.
          5    1    4    4  502    0  0.31030958682E+02  0.63979957629E+01 -0.36467406593E+02  0.48536754014E+02  0.47000000000E+01 0. -1.
         -5    1    4    4    0  502 -0.23998818728E+01 -0.47799956512E+02 -0.54921818000E+03  0.55131959381E+03  0.47000000000E+01 0. -1.
          5    1    5    5  503    0 -0.20813941337E+02  0.75262094562E+02 -0.30098000850E+03  0.31098015781E+03  0.47000000000E+01 0.  1.
         -5    1    5    5    0  503 -0.78171354729E+01 -0.33860133812E+02 -0.30201967862E+02  0.46280288801E+02  0.47000000000E+01 0.  1.
<mgrwt>
<rscale>  0 0.27463873E+03</rscale>
<asrwt>0</asrwt>
<pdfrwt beam="1">  1        1 0.14415270E+00 0.27463873E+03</pdfrwt>
<pdfrwt beam="2">  1       -1 0.30960935E-02 0.27463873E+03</pdfrwt>
<totfact> 0.64244905E+03</totfact>
</mgrwt>
</event>
<event>
 9    1  0.2031653E-002  0.2745617E+03  0.7818608E-02  0.1098697E+00
          2   -1    0    0  501    0  0.00000000000E+00  0.00000000000E+00  0.31433863152E+04  0.31433863152E+04  0.00000000000E+00 0.  1.
         -2   -1    0    0    0  501 -0.00000000000E+00 -0.00000000000E+00 -0.59954568081E+01  0.59954568081E+01  0.00000000000E+00 0.  1.
         36    2    1    2    0    0  0.00000000000E+00  0.71054273576E-14  0.31373908584E+04  0.31493817720E+04  0.27456173720E+03 0.  0.
         25    2    3    3    0    0 -0.65690141410E+02  0.25287846653E+02  0.13922593209E+04  0.13996162347E+04  0.12483956825E+03 0.  0.
         25    2    3    3    0    0  0.65690141410E+02 -0.25287846653E+02  0.17451315374E+04  0.17497655373E+04  0.10602208592E+03 0.  0.
          5    1    4    4  502    0 -0.85837588352E+02  0.56544778816E+02  0.11327641791E+04  0.11374278786E+04  0.47000000000E+01 0.  1.
         -5    1    4    4    0  502  0.20147446942E+02 -0.31256932163E+02  0.25949514182E+03  0.26218835606E+03  0.47000000000E+01 0.  1.
          5    1    5    5  503    0  0.84050665327E+02 -0.44943194906E+02  0.11276535120E+04  0.11316841159E+04  0.47000000000E+01 0. -1.
         -5    1    5    5    0  503 -0.18360523917E+02  0.19655348253E+02  0.61747802546E+03  0.61808142140E+03  0.47000000000E+01 0. -1.
<mgrwt>
<rscale>  0 0.27456174E+03</rscale>
<asrwt>0</asrwt>
<pdfrwt beam="1">  1        2 0.48359658E+00 0.27456174E+03</pdfrwt>
<pdfrwt beam="2">  1       -2 0.92238048E-03 0.27456174E+03</pdfrwt>
<totfact> 0.40962566E+03</totfact>
</mgrwt>
</event>
<event>
 9    1  0.2031653E-002  0.2740409E+03  0.7818608E-02  0.1098989E+00
          1   -1    0    0  501    0  0.00000000000E+00  0.00000000000E+00  0.11313770226E+03  0.11313770226E+03  0.00000000000E+00 0. -1.
         -1   -1    0    0    0  501 -0.00000000000E+00 -0.00000000000E+00 -0.16594471913E+03  0.16594471913E+03  0.00000000000E+00 0. -1.
         36    2    1    2    0    0  0.00000000000E+00  0.71054273576E-14 -0.52807016865E+02  0.27908242139E+03  0.27404090369E+03 0.  0.
         25    2    3    3    0    0  0.31336472427E+02  0.12103743716E+02  0.21485671839E+02  0.13351509455E+03  0.12742123552E+03 0.  0.
         25    2    3    3    0    0 -0.31336472427E+02 -0.12103743716E+02 -0.74292688704E+02  0.14556732684E+03  0.12059008223E+03 0.  0.
          5    1    4    4  502    0 -0.11539830141E+02 -0.33952250968E+02  0.52066559147E+02  0.63395107121E+02  0.47000000000E+01 0.  1.
         -5    1    4    4    0  502  0.42876302568E+02  0.46055994684E+02 -0.30580887308E+02  0.70119987427E+02  0.47000000000E+01 0.  1.
          5    1    5    5  503    0 -0.46105172666E+02 -0.55632481771E+02 -0.67266050518E+02  0.98830519207E+02  0.47000000000E+01 0.  1.
         -5    1    5    5    0  503  0.14768700239E+02  0.43528738055E+02 -0.70266381859E+01  0.46736807632E+02  0.47000000000E+01 0.  1.
<mgrwt>
<rscale>  0 0.27404090E+03</rscale>
<asrwt>0</asrwt>
<pdfrwt beam="1">  1        1 0.17405800E-01 0.27404090E+03</pdfrwt>
<pdfrwt beam="2">  1       -1 0.25529957E-01 0.27404090E+03</pdfrwt>
<totfact> 0.40913026E+03</totfact>
</mgrwt>
</event>
<event>
 9    1  0.2031653E-002  0.2749775E+03  0.7818608E-02  0.1098464E+00
         -2   -1    0    0    0  501 -0.00000000000E+00  0.00000000000E+00  0.21637752474E+02  0.21637752474E+02  0.00000000000E+00 0. -1.
          2   -1    0    0  501    0  0.00000000000E+00 -0.00000000000E+00 -0.87361932199E+03  0.87361932199E+03  0.00000000000E+00 0. -1.
         36    2    1    2    0    0  0.35527136788E-14  0.00000000000E+00 -0.85198156951E+03  0.89525707446E+03  0.27497751650E+03 0.  0.
         25    2    3    3    0    0 -0.11255729954E+02 -0.16818385925E+02 -0.24721325372E+03  0.27717856574E+03  0.12370939708E+03 0.  0.
         25    2    3    3    0    0  0.11255729954E+02  0.16818385925E+02 -0.60476831579E+03  0.61807850872E+03  0.12596339785E+03 0.  0.
          5    1    4    4  502    0  0.27514426500E+02  0.40386721211E+02 -0.59773878796E+02  0.77350743384E+02  0.47000000000E+01 0.  1.
         -5    1    4    4    0  502 -0.38770156454E+02 -0.57205107135E+02 -0.18743937493E+03  0.19982782235E+03  0.47000000000E+01 0.  1.
          5    1    5    5  503    0 -0.19610327517E+02  0.21489518340E+02 -0.28666322046E+02  0.41112192394E+02  0.47000000000E+01 0. -1.
         -5    1    5    5    0  503  0.30866057471E+02 -0.46711324148E+01 -0.57610199374E+03  0.57696631633E+03  0.47000000000E+01 0. -1.
<mgrwt>
<rscale>  0 0.27497752E+03</rscale>
<asrwt>0</asrwt>
<pdfrwt beam="1">  1        2 0.13440297E+00 0.27497752E+03</pdfrwt>
<pdfrwt beam="2">  1       -2 0.33288851E-02 0.27497752E+03</pdfrwt>
<totfact> 0.11424106E+04</totfact>
</mgrwt>
</event>
<event>
 9    1  0.2031653E-002  0.2751251E+03  0.7818608E-02  0.1098382E+00
         -1   -1    0    0    0  501 -0.00000000000E+00  0.00000000000E+00  0.21924508965E+02  0.21924508965E+02  0.00000000000E+00 0.  1.
          1   -1    0    0  501    0  0.00000000000E+00 -0.00000000000E+00 -0.86311905727E+03  0.86311905727E+03  0.00000000000E+00 0.  1.
         36    2    1    2    0    0  0.71054273576E-14 -0.22204460493E-14 -0.84119454831E+03  0.88504356624E+03  0.27512514614E+03 0.  0.
         25    2    3    3    0    0 -0.45801645558E+02 -0.33903469484E+01 -0.30618918803E+03  0.33421765529E+03  0.12585840079E+03 0.  0.
         25    2    3    3    0    0  0.45801645558E+02  0.33903469484E+01 -0.53500536028E+03  0.55082591095E+03  0.12275652107E+03 0.  0.
          5    1    4    4  502    0 -0.10157986489E+02 -0.22161726168E+02  0.52526436231E+00  0.24833298188E+02  0.47000000000E+01 0. -1.
         -5    1    4    4    0  502 -0.35643659069E+02  0.18771379219E+02 -0.30671445239E+03  0.30938435710E+03  0.47000000000E+01 0. -1.
          5    1    5    5  503    0 -0.95744443074E+01  0.14991210195E+01  0.19951970969E+01  0.10953910675E+02  0.47000000000E+01 0.  1.
         -5    1    5    5    0  503  0.55376089865E+02  0.18912259289E+01 -0.53700055737E+03  0.53987200028E+03  0.47000000000E+01 0.  1.
<mgrwt>
<rscale>  0 0.27512515E+03</rscale>
<asrwt>0</asrwt>
<pdfrwt beam="1">  1        1 0.13278753E+00 0.27512515E+03</pdfrwt>
<pdfrwt beam="2">  1       -1 0.33730018E-02 0.27512515E+03</pdfrwt>
<totfact> 0.64701987E+03</totfact>
</mgrwt>
</event>
<event>
 9    1  0.2031653E-002  0.2757703E+03  0.7818608E-02  0.1098022E+00
          2   -1    0    0  501    0  0.00000000000E+00  0.00000000000E+00  0.32029707561E+03  0.32029707561E+03  0.00000000000E+00 0. -1.
         -2   -1    0    0    0  501 -0.00000000000E+00 -0.00000000000E+00 -0.59358371930E+02  0.59358371930E+02  0.00000000000E+00 0. -1.
         36    2    1    2    0    0 -0.44408920985E-15  0.71054273576E-14  0.26093870368E+03  0.37965544754E+03  0.27577028805E+03 0.  0.
         25    2    3    3    0    0 -0.24038949735E+00  0.52269846557E+02  0.16911724486E+03  0.21628110526E+03  0.12427662427E+03 0.  0.
         25    2    3    3    0    0  0.24038949735E+00 -0.52269846557E+02  0.91821458826E+02  0.16337434228E+03  0.12461059653E+03 0.  0.
          5    1    4    4  502    0 -0.26351894731E+01 -0.32432122776E+02  0.10468765313E+03  0.10972867232E+03  0.47000000000E+01 0. -1.
         -5    1    4    4    0  502  0.23947999757E+01  0.84701969332E+02  0.64429591723E+02  0.10655243294E+03  0.47000000000E+01 0. -1.
          5    1    5    5  503    0  0.51654165259E+01  0.12590639364E+02 -0.25420306511E+02  0.29214511986E+02  0.47000000000E+01 0.  1.
         -5    1    5    5    0  503 -0.49250270286E+01 -0.64860485921E+02  0.11724176534E+03  0.13415983029E+03  0.47000000000E+01 0.  1.
<mgrwt>
<rscale>  0 0.27577029E+03</rscale>
<asrwt>0</asrwt>
<pdfrwt beam="1">  1        2 0.49276472E-01 0.27577029E+03</pdfrwt>
<pdfrwt beam="2">  1       -2 0.91320574E-02 0.27577029E+03</pdfrwt>
<totfact> 0.77529501E+03</totfact>
</mgrwt>
</event>
<event>
 9    1  0.2031653E-002  0.2739084E+03  0.7818608E-02  0.1099063E+00
          1   -1    0    0  501    0  0.00000000000E+00  0.00000000000E+00  0.39682756594E+03  0.39682756594E+03  0.00000000000E+00 0.  1.
         -1   -1    0    0    0  501 -0.00000000000E+00 -0.00000000000E+00 -0.47266016047E+02  0.47266016047E+02  0.00000000000E+00 0.  1.
         36    2    1    2    0    0  0.00000000000E+00  0.00000000000E+00  0.34956154989E+03  0.44409358199E+03  0.27390843799E+03 0.  0.
         25    2    3    3    0    0 -0.49280401143E+02  0.11912459625E+02  0.21444507483E+03  0.25305686818E+03  0.12442115490E+03 0.  0.
         25    2    3    3    0    0  0.49280401143E+02 -0.11912459625E+02  0.13511647507E+03  0.19103671380E+03  0.12517227950E+03 0.  0.
          5    1    4    4  502    0 -0.19626283961E+02  0.26010250199E+02 -0.30358913482E+01  0.33061015922E+02  0.47000000000E+01 0.  1.
         -5    1    4    4    0  502 -0.29654117181E+02 -0.14097790574E+02  0.21748096617E+03  0.21999585226E+03  0.47000000000E+01 0.  1.
          5    1    5    5  503    0 -0.16914800966E+01 -0.47795043795E+02  0.11616881767E+03  0.12571599546E+03  0.47000000000E+01 0.  1.
         -5    1    5    5    0  503  0.50971881239E+02  0.35882584170E+02  0.18947657399E+02  0.65320718342E+02  0.47000000000E+01 0.  1.
<mgrwt>
<rscale>  0 0.27390844E+03</rscale>
<asrwt>0</asrwt>
<pdfrwt beam="1">  1        1 0.61050393E-01 0.27390844E+03</pdfrwt>
<pdfrwt beam="2">  1       -1 0.72716950E-02 0.27390844E+03</pdfrwt>
<totfact> 0.60656947E+03</totfact>
</mgrwt>
</event>
<event>
 9    1  0.2031653E-002  0.2746921E+03  0.7818608E-02  0.1098624E+00
          1   -1    0    0  501    0  0.00000000000E+00  0.00000000000E+00  0.78385531592E+03  0.78385531592E+03  0.00000000000E+00 0. -1.
         -1   -1    0    0    0  501 -0.00000000000E+00 -0.00000000000E+00 -0.24065590757E+02  0.24065590757E+02  0.00000000000E+00 0. -1.
         36    2    1    2    0    0  0.71054273576E-14  0.00000000000E+00  0.75978972516E+03  0.80792090668E+03  0.27469212763E+03 0.  0.
         25    2    3    3    0    0 -0.11297065991E+01  0.39413740909E+02  0.49462172972E+03  0.51195440332E+03  0.12606322366E+03 0.  0.
         25    2    3    3    0    0  0.11297065991E+01 -0.39413740909E+02  0.26516799544E+03  0.29596650336E+03  0.12540887565E+03 0.  0.
          5    1    4    4  502    0  0.48697898664E+02  0.60106243247E+02  0.27062109105E+03  0.28149975263E+03  0.47000000000E+01 0.  1.
         -5    1    4    4    0  502 -0.49827605263E+02 -0.20692502338E+02  0.22400063867E+03  0.23045465069E+03  0.47000000000E+01 0.  1.
          5    1    5    5  503    0 -0.44768546198E+02 -0.63200968550E+02  0.13313859732E+03  0.15409919289E+03  0.47000000000E+01 0.  1.
         -5    1    5    5    0  503  0.45898252797E+02  0.23787227641E+02  0.13202939812E+03  0.14186731046E+03  0.47000000000E+01 0.  1.
<mgrwt>
<rscale>  0 0.27469213E+03</rscale>
<asrwt>0</asrwt>
<pdfrwt beam="1">  1        1 0.12059311E+00 0.27469213E+03</pdfrwt>
<pdfrwt beam="2">  1       -1 0.37023992E-02 0.27469213E+03</pdfrwt>
<totfact> 0.65490520E+03</totfact>
</mgrwt>
</event>
<event>
 9    1  0.2031653E-002  0.2768907E+03  0.7818608E-02  0.1097399E+00
          2   -1    0    0  501    0  0.00000000000E+00  0.00000000000E+00  0.76737092544E+03  0.76737092544E+03  0.00000000000E+00 0.  1.
         -2   -1    0    0    0  501 -0.00000000000E+00 -0.00000000000E+00 -0.24977641147E+02  0.24977641147E+02  0.00000000000E+00 0.  1.
         36    2    1    2    0    0  0.14210854715E-13 -0.14210854715E-13  0.74239328429E+03  0.79234856658E+03  0.27689070481E+03 0.  0.
         25    2    3    3    0    0 -0.30748599624E+02 -0.53668777318E+02  0.30536358839E+03  0.33464786000E+03  0.12213294007E+03 0.  0.
         25    2    3    3    0    0  0.30748599624E+02  0.53668777318E+02  0.43702969590E+03  0.45770070659E+03  0.12111633940E+03 0.  0.
          5    1    4    4  502    0 -0.35566369469E+02 -0.61175324119E+01  0.13433044538E+02  0.38793395386E+02  0.47000000000E+01 0.  1.
         -5    1    4    4    0  502  0.48177698450E+01 -0.47551244906E+02  0.29193054385E+03  0.29585446461E+03  0.47000000000E+01 0.  1.
          5    1    5    5  503    0 -0.43953587079E+02  0.11892346030E+02  0.10064430779E+03  0.11056542136E+03  0.47000000000E+01 0.  1.
         -5    1    5    5    0  503  0.74702186703E+02  0.41776431288E+02  0.33638538811E+03  0.34713528522E+03  0.47000000000E+01 0.  1.
<mgrwt>
<rscale>  0 0.27689070E+03</rscale>
<asrwt>0</asrwt>
<pdfrwt beam="1">  1        2 0.11805705E+00 0.27689070E+03</pdfrwt>
<pdfrwt beam="2">  1       -2 0.38427146E-02 0.27689070E+03</pdfrwt>
<totfact> 0.10888334E+04</totfact>
</mgrwt>
</event>
<event>
 9    1  0.2031653E-002  0.2752045E+03  0.7818608E-02  0.1098337E+00
          2   -1    0    0  501    0  0.00000000000E+00  0.00000000000E+00  0.11191407615E+04  0.11191407615E+04  0.00000000000E+00 0. -1.
         -2   -1    0    0    0  501 -0.00000000000E+00 -0.00000000000E+00 -0.16918679035E+02  0.16918679035E+02  0.00000000000E+00 0. -1.
         36    2    1    2    0    0  0.00000000000E+00 -0.71054273576E-14  0.11022220825E+04  0.11360594406E+04  0.27520453004E+03 0.  0.
         25    2    3    3    0    0 -0.21428129852E+02 -0.32458617125E+02  0.36674250186E+03  0.38902103999E+03  0.12379248890E+03 0.  0.
         25    2    3    3    0    0  0.21428129852E+02  0.32458617125E+02  0.73547958063E+03  0.74703840058E+03  0.12499372717E+03 0.  0.
          5    1    4    4  502    0 -0.18271836694E+02  0.44024726339E+02  0.91301292990E+02  0.10310214667E+03  0.47000000000E+01 0.  1.
         -5    1    4    4    0  502 -0.31562931582E+01 -0.76483343464E+02  0.27544120887E+03  0.28591889332E+03  0.47000000000E+01 0.  1.
          5    1    5    5  503    0  0.16620894606E+02 -0.40770167602E+02  0.45245840463E+03  0.45461979568E+03  0.47000000000E+01 0.  1.
         -5    1    5    5    0  503  0.48072352460E+01  0.73228784727E+02  0.28302117601E+03  0.29241860490E+03  0.47000000000E+01 0.  1.
<mgrwt>
<rscale>  0 0.27520453E+03</rscale>
<asrwt>0</asrwt>
<pdfrwt beam="1">  1        2 0.17217544E+00 0.27520453E+03</pdfrwt>
<pdfrwt beam="2">  1       -2 0.26028746E-02 0.27520453E+03</pdfrwt>
<totfact> 0.11630188E+04</totfact>
</mgrwt>
</event>
<event>
 9    1  0.2031653E-002  0.2748291E+03  0.7818608E-02  0.1098547E+00
         -2   -1    0    0    0  501 -0.00000000000E+00  0.00000000000E+00  0.14217482682E+03  0.14217482682E+03  0.00000000000E+00 0. -1.
          2   -1    0    0  501    0  0.00000000000E+00 -0.00000000000E+00 -0.13281364074E+03  0.13281364074E+03  0.00000000000E+00 0. -1.
         36    2    1    2    0    0  0.00000000000E+00  0.00000000000E+00  0.93611860798E+01  0.27498846757E+03  0.27482908414E+03 0.  0.
         25    2    3    3    0    0 -0.28232978260E+02  0.25385235771E+02  0.30098167497E+02  0.14287943013E+03  0.13441398964E+03 0.  0.
         25    2    3    3    0    0  0.28232978260E+02 -0.25385235771E+02 -0.20736981417E+02  0.13210903743E+03  0.12482493387E+03 0.  0.
          5    1    4    4  502    0 -0.73501705036E+02 -0.35758702523E+01 -0.11667324076E+02  0.74655903600E+02  0.47000000000E+01 0. -1.
         -5    1    4    4    0  502  0.45268726776E+02  0.28961106023E+02  0.41765491573E+02  0.68223526531E+02  0.47000000000E+01 0. -1.
          5    1    5    5  503    0 -0.98580563588E+01  0.46150825928E+02  0.30240638441E+01  0.47521731568E+02  0.47000000000E+01 0.  1.
         -5    1    5    5    0  503  0.38091034619E+02 -0.71536061699E+02 -0.23761045261E+02  0.84587305866E+02  0.47000000000E+01 0.  1.
<mgrwt>
<rscale>  0 0.27482908E+03</rscale>
<asrwt>0</asrwt>
<pdfrwt beam="1">  1        2 0.20432868E-01 0.27482908E+03</pdfrwt>
<pdfrwt beam="2">  1       -2 0.21873050E-01 0.27482908E+03</pdfrwt>
<totfact> 0.48414347E+03</totfact>
</mgrwt>
</event>
<event>
 9    1  0.2031653E-002  0.2753611E+03  0.7818608E-02  0.1098250E+00
         -1   -1    0    0    0  501 -0.00000000000E+00  0.00000000000E+00  0.13886675804E+03  0.13886675804E+03  0.00000000000E+00 0.  1.
          1   -1    0    0  501    0  0.00000000000E+00 -0.00000000000E+00 -0.13650450207E+03  0.13650450207E+03  0.00000000000E+00 0.  1.
         36    2    1    2    0    0 -0.14210854715E-13  0.17763568394E-14  0.23622559714E+01  0.27537126010E+03  0.27536112768E+03 0.  0.
         25    2    3    3    0    0 -0.62897092347E+02  0.12667476510E+02 -0.29000545923E+02  0.13450968962E+03  0.11460940516E+03 0.  0.
         25    2    3    3    0    0  0.62897092347E+02 -0.12667476510E+02  0.31362801894E+02  0.14086157049E+03  0.12141601011E+03 0.  0.
          5    1    4    4  502    0 -0.92326492638E+02 -0.11242761525E+02 -0.21341106042E+02  0.95541162525E+02  0.47000000000E+01 0. -1.
         -5    1    4    4    0  502  0.29429400291E+02  0.23910238035E+02 -0.76594398808E+01  0.38968527091E+02  0.47000000000E+01 0. -1.
          5    1    5    5  503    0  0.94112342814E+02 -0.20385807816E+02  0.10407485589E+01  0.96415182351E+02  0.47000000000E+01 0. -1.
         -5    1    5    5    0  503 -0.31215250467E+02  0.77183313062E+01  0.30322053335E+02  0.44446388136E+02  0.47000000000E+01 0. -1.
<mgrwt>
<rscale>  0 0.27536113E+03</rscale>
<asrwt>0</asrwt>
<pdfrwt beam="1">  1        1 0.21000692E-01 0.27536113E+03</pdfrwt>
<pdfrwt beam="2">  1       -1 0.21364117E-01 0.27536113E+03</pdfrwt>
<totfact> 0.43082354E+03</totfact>
</mgrwt>
</event>
<event>
 9    1  0.2031653E-002  0.2748529E+03  0.7818608E-02  0.1098534E+00
          1   -1    0    0  501    0  0.00000000000E+00  0.00000000000E+00  0.49706588382E+02  0.49706588382E+02  0.00000000000E+00 0. -1.
         -1   -1    0    0    0  501 -0.00000000000E+00 -0.00000000000E+00 -0.37995020173E+03  0.37995020173E+03  0.00000000000E+00 0. -1.
         36    2    1    2    0    0  0.71054273576E-14 -0.71054273576E-14 -0.33024361335E+03  0.42965679012E+03  0.27485289362E+03 0.  0.
         25    2    3    3    0    0  0.45905796371E+02  0.37878009943E+02 -0.16061764826E+03  0.21011448853E+03  0.12168805848E+03 0.  0.
         25    2    3    3    0    0 -0.45905796371E+02 -0.37878009943E+02 -0.16962596509E+03  0.21954230159E+03  0.12603082313E+03 0.  0.
          5    1    4    4  502    0  0.30833441611E+02  0.32615706305E+02  0.33984856001E+01  0.45256216410E+02  0.47000000000E+01 0.  1.
         -5    1    4    4    0  502  0.15072354761E+02  0.52623036381E+01 -0.16401613386E+03  0.16485827212E+03  0.47000000000E+01 0.  1.
          5    1    5    5  503    0 -0.85708800009E+02 -0.37338151801E+02 -0.87397911109E+02  0.12806490872E+03  0.47000000000E+01 0. -1.
         -5    1    5    5    0  503  0.39803003638E+02 -0.53985814220E+00 -0.82228053978E+02  0.91477392871E+02  0.47000000000E+01 0. -1.
<mgrwt>
<rscale>  0 0.27485289E+03</rscale>
<asrwt>0</asrwt>
<pdfrwt beam="1">  1        1 0.76471675E-02 0.27485289E+03</pdfrwt>
<pdfrwt beam="2">  1       -1 0.58453877E-01 0.27485289E+03</pdfrwt>
<totfact> 0.28182162E+03</totfact>
</mgrwt>
</event>
<event>
 9    1  0.2031653E-002  0.2782965E+03  0.7818608E-02  0.1096623E+00
         -1   -1    0    0    0  501 -0.00000000000E+00  0.00000000000E+00  0.12361228185E+03  0.12361228185E+03  0.00000000000E+00 0.  1.
          1   -1    0    0  501    0  0.00000000000E+00 -0.00000000000E+00 -0.15663687994E+03  0.15663687994E+03  0.00000000000E+00 0.  1.
         36    2    1    2    0    0  0.00000000000E+00  0.00000000000E+00 -0.33024598092E+02  0.28024916178E+03  0.27829654795E+03 0.  0.
         25    2    3    3    0    0 -0.31318891281E+02  0.38938715261E+02  0.14016205438E+02  0.13705724762E+03  0.12685085184E+03 0.  0.
         25    2    3    3    0    0  0.31318891281E+02 -0.38938715261E+02 -0.47040803529E+02  0.14319191416E+03  0.12567414447E+03 0.  0.
          5    1    4    4  502    0 -0.14762289515E+02  0.32652583706E+02 -0.54910277628E+02  0.65736937893E+02  0.47000000000E+01 0. -1.
         -5    1    4    4    0  502 -0.16556601767E+02  0.62861315556E+01  0.68926483066E+02  0.71320309729E+02  0.47000000000E+01 0. -1.
          5    1    5    5  503    0  0.47840269311E+02 -0.22054099118E+02  0.31146968996E+02  0.61378321363E+02  0.47000000000E+01 0. -1.
         -5    1    5    5    0  503 -0.16521378029E+02 -0.16884616143E+02 -0.78187772526E+02  0.81813592800E+02  0.47000000000E+01 0. -1.
<mgrwt>
<rscale>  0 0.27829655E+03</rscale>
<asrwt>0</asrwt>
<pdfrwt beam="1">  1        1 0.24097981E-01 0.27829655E+03</pdfrwt>
<pdfrwt beam="2">  1       -1 0.19017274E-01 0.27829655E+03</pdfrwt>
<totfact> 0.43670981E+03</totfact>
</mgrwt>
</event>
<event>
 9    1  0.2031653E-002  0.2753696E+03  0.7818608E-02  0.1098245E+00
         -2   -1    0    0    0  501 -0.00000000000E+00  0.00000000000E+00  0.24942756331E+03  0.24942756331E+03  0.00000000000E+00 0. -1.
          2   -1    0    0  501    0  0.00000000000E+00 -0.00000000000E+00 -0.76002423568E+02  0.76002423568E+02  0.00000000000E+00 0. -1.
         36    2    1    2    0    0  0.14210854715E-13 -0.35527136788E-14  0.17342513975E+03  0.32542998688E+03  0.27536956489E+03 0.  0.
         25    2    3    3    0    0 -0.38725492966E+02  0.29663681671E+02  0.66515356858E+02  0.15206219173E+03  0.12774591829E+03 0.  0.
         25    2    3    3    0    0  0.38725492966E+02 -0.29663681671E+02  0.10690978289E+03  0.17336779516E+03  0.12746408476E+03 0.  0.
          5    1    4    4  502    0 -0.36198390206E+02 -0.16522583223E+02 -0.26524953565E+02  0.48051871676E+02  0.47000000000E+01 0. -1.
         -5    1    4    4    0  502 -0.25271027594E+01  0.46186264895E+02  0.93040310424E+02  0.10401032005E+03  0.47000000000E+01 0. -1.
          5    1    5    5  503    0  0.68493299626E+02 -0.24093638829E+01  0.11303810706E+03  0.13227562427E+03  0.47000000000E+01 0.  1.
         -5    1    5    5    0  503 -0.29767806660E+02 -0.27254317789E+02 -0.61283241682E+01  0.41092170892E+02  0.47000000000E+01 0.  1.
<mgrwt>
<rscale>  0 0.27536956E+03</rscale>
<asrwt>0</asrwt>
<pdfrwt beam="1">  1        2 0.11692681E-01 0.27536956E+03</pdfrwt>
<pdfrwt beam="2">  1       -2 0.38373471E-01 0.27536956E+03</pdfrwt>
<totfact> 0.33881939E+03</totfact>
</mgrwt>
</event>
<event>
 9    1  0.2031653E-002  0.2746827E+03  0.7818608E-02  0.1098629E+00
          1   -1    0    0  501    0  0.00000000000E+00  0.00000000000E+00  0.85022503141E+02  0.85022503141E+02  0.00000000000E+00 0.  1.
         -1   -1    0    0    0  501 -0.00000000000E+00 -0.00000000000E+00 -0.22185477980E+03  0.22185477980E+03  0.00000000000E+00 0.  1.
         36    2    1    2    0    0  0.00000000000E+00  0.00000000000E+00 -0.13683227666E+03  0.30687728295E+03  0.27468271670E+03 0.  0.
         25    2    3    3    0    0 -0.35127067298E+02  0.59960376834E+02 -0.95527441314E+02  0.15463887784E+03  0.99792448852E+02 0.  0.
         25    2    3    3    0    0  0.35127067298E+02 -0.59960376834E+02 -0.41304835350E+02  0.15223840511E+03  0.12900110433E+03 0.  0.
          5    1    4    4  502    0  0.24796554143E+02 -0.10624171933E+02 -0.32675032872E+02  0.42632029037E+02  0.47000000000E+01 0. -1.
         -5    1    4    4    0  502 -0.59923621441E+02  0.70584548768E+02 -0.62852408442E+02  0.11200684880E+03  0.47000000000E+01 0. -1.
          5    1    5    5  503    0  0.32016248830E+02 -0.41453546009E+02  0.41633490701E+02  0.67073647686E+02  0.47000000000E+01 0.  1.
         -5    1    5    5    0  503  0.31108184678E+01 -0.18506830825E+02 -0.82938326051E+02  0.85164757423E+02  0.47000000000E+01 0.  1.
<mgrwt>
<rscale>  0 0.27468272E+03</rscale>
<asrwt>0</asrwt>
<pdfrwt beam="1">  1        1 0.13080385E-01 0.27468272E+03</pdfrwt>
<pdfrwt beam="2">  1       -1 0.34131504E-01 0.27468272E+03</pdfrwt>
<totfact> 0.36348576E+03</totfact>
</mgrwt>
</event>
<event>
 9    1  0.2031653E-002  0.2801673E+03  0.7818608E-02  0.1095598E+00
          1   -1    0    0  501    0  0.00000000000E+00  0.00000000000E+00  0.10447400076E+04  0.10447400076E+04  0.00000000000E+00 0.  1.
         -1   -1    0    0    0  501 -0.00000000000E+00 -0.00000000000E+00 -0.18783074950E+02  0.18783074950E+02  0.00000000000E+00 0.  1.
         36    2    1    2    0    0  0.00000000000E+00  0.00000000000E+00  0.10259569326E+04  0.10635230825E+04  0.28016730620E+03 0.  0.
         25    2    3    3    0    0  0.47300743507E+01 -0.58796648028E+02  0.58330740773E+03  0.59946036390E+03  0.12500310614E+03 0.  0.
         25    2    3    3    0    0 -0.47300743507E+01  0.58796648028E+02  0.44264952491E+03  0.46406271864E+03  0.12623860547E+03 0.  0.
          5    1    4    4  502    0 -0.45112340712E+02 -0.71792394757E+02  0.40475445623E+03  0.41356683991E+03  0.47000000000E+01 0.  1.
         -5    1    4    4    0  502  0.49842415063E+02  0.12995746729E+02  0.17855295150E+03  0.18589352399E+03  0.47000000000E+01 0.  1.
          5    1    5    5  503    0  0.55661243502E+02  0.49056004133E+02  0.29391756190E+03  0.30317369405E+03  0.47000000000E+01 0. -1.
         -5    1    5    5    0  503 -0.60391317853E+02  0.97406438947E+01  0.14873196301E+03  0.16088902460E+03  0.47000000000E+01 0. -1.
<mgrwt>
<rscale>  0 0.28016731E+03</rscale>
<asrwt>0</asrwt>
<pdfrwt beam="1">  1        1 0.16072919E+00 0.28016731E+03</pdfrwt>
<pdfrwt beam="2">  1       -1 0.28897047E-02 0.28016731E+03</pdfrwt>
<totfact> 0.59044366E+03</totfact>
</mgrwt>
</event>
<event>
 9    1  0.2031653E-002  0.2751667E+03  0.7818608E-02  0.1098358E+00
         -1   -1    0    0    0  501 -0.00000000000E+00  0.00000000000E+00  0.16395812822E+04  0.16395812822E+04  0.00000000000E+00 0. -1.
          1   -1    0    0  501    0  0.00000000000E+00 -0.00000000000E+00 -0.11545132324E+02  0.11545132324E+02  0.00000000000E+00 0. -1.
         36    2    1    2    0    0  0.71054273576E-14 -0.35527136788E-14  0.16280361499E+04  0.16511264146E+04  0.27516673389E+03 0.  0.
         25    2    3    3    0    0  0.62427017428E+01  0.13838049637E+02  0.52276673392E+03  0.53769016291E+03  0.12488070407E+03 0.  0.
         25    2    3    3    0    0 -0.62427017428E+01 -0.13838049637E+02  0.11052694160E+04  0.11134362517E+04  0.13375104347E+03 0.  0.
          5    1    4    4  502    0 -0.41779071454E+02  0.46578402335E+02  0.19717236461E+03  0.20691561019E+03  0.47000000000E+01 0. -1.
         -5    1    4    4    0  502  0.48021773197E+02 -0.32740352699E+02  0.32559436931E+03  0.33077455271E+03  0.47000000000E+01 0. -1.
          5    1    5    5  503    0  0.39341255598E+02 -0.31395097504E+02  0.93149039815E+03  0.93286110348E+03  0.47000000000E+01 0.  1.
         -5    1    5    5    0  503 -0.45583957341E+02  0.17557047868E+02  0.17377901785E+03  0.18057514818E+03  0.47000000000E+01 0.  1.
<mgrwt>
<rscale>  0 0.27516673E+03</rscale>
<asrwt>0</asrwt>
<pdfrwt beam="1">  1        1 0.17761755E-02 0.27516673E+03</pdfrwt>
<pdfrwt beam="2">  1       -1 0.25224309E+00 0.27516673E+03</pdfrwt>
<totfact> 0.54980280E+02</totfact>
</mgrwt>
</event>
<event>
 9    1  0.2031653E-002  0.2748055E+03  0.7818608E-02  0.1098560E+00
         -1   -1    0    0    0  501 -0.00000000000E+00  0.00000000000E+00  0.45901906965E+03  0.45901906965E+03  0.00000000000E+00 0. -1.
          1   -1    0    0  501    0  0.00000000000E+00 -0.00000000000E+00 -0.41130127049E+02  0.41130127049E+02  0.00000000000E+00 0. -1.
         36    2    1    2    0    0  0.00000000000E+00  0.00000000000E+00  0.41788894260E+03  0.50014919670E+03  0.27480547777E+03 0.  0.
         25    2    3    3    0    0  0.26127709633E+02  0.48216381259E+02  0.17149499628E+03  0.21880681014E+03  0.12433185345E+03 0.  0.
         25    2    3    3    0    0 -0.26127709633E+02 -0.48216381259E+02  0.24639394632E+03  0.28134238656E+03  0.12424204223E+03 0.  0.
          5    1    4    4  502    0  0.55328068921E+02  0.54315733888E+02  0.47190982518E+02  0.90887144246E+02  0.47000000000E+01 0.  1.
         -5    1    4    4    0  502 -0.29200359288E+02 -0.60993526284E+01  0.12430401376E+03  0.12791966589E+03  0.47000000000E+01 0.  1.
          5    1    5    5  503    0 -0.34998580252E+02 -0.10338585740E+02  0.54068507275E+01  0.37190200451E+02  0.47000000000E+01 0. -1.
         -5    1    5    5    0  503  0.88708706188E+01 -0.37877795519E+02  0.24098709559E+03  0.24415218611E+03  0.47000000000E+01 0. -1.
<mgrwt>
<rscale>  0 0.27480548E+03</rscale>
<asrwt>0</asrwt>
<pdfrwt beam="1">  1        1 0.63277122E-02 0.27480548E+03</pdfrwt>
<pdfrwt beam="2">  1       -1 0.70618315E-01 0.27480548E+03</pdfrwt>
<totfact> 0.25227520E+03</totfact>
</mgrwt>
</event>
<event>
 9    1  0.2031653E-002  0.2744075E+03  0.7818608E-02  0.1098783E+00
          2   -1    0    0  501    0  0.00000000000E+00  0.00000000000E+00  0.62238817730E+02  0.62238817730E+02  0.00000000000E+00 0. -1.
         -2   -1    0    0    0  501 -0.00000000000E+00 -0.00000000000E+00 -0.30246196407E+03  0.30246196407E+03  0.00000000000E+00 0. -1.
         36    2    1    2    0    0 -0.71054273576E-14  0.00000000000E+00 -0.24022314634E+03  0.36470078180E+03  0.27440754401E+03 0.  0.
         25    2    3    3    0    0  0.60984532307E+02  0.10304825021E+02 -0.14934984149E+03  0.20316205935E+03  0.12306154804E+03 0.  0.
         25    2    3    3    0    0 -0.60984532307E+02 -0.10304825021E+02 -0.90873304854E+02  0.16153872245E+03  0.11837017664E+03 0.  0.
          5    1    4    4  502    0  0.58929179370E+02 -0.14586466557E+02 -0.10233348421E+02  0.61743215075E+02  0.47000000000E+01 0.  1.
         -5    1    4    4    0  502  0.20553529367E+01  0.24891291578E+02 -0.13911649307E+03  0.14141884427E+03  0.47000000000E+01 0.  1.
          5    1    5    5  503    0 -0.23790378640E+02 -0.62903823489E+02 -0.58637434617E+02  0.89349380881E+02  0.47000000000E+01 0. -1.
         -5    1    5    5    0  503 -0.37194153667E+02  0.52598998468E+02 -0.32235870237E+02  0.72189341573E+02  0.47000000000E+01 0. -1.
<mgrwt>
<rscale>  0 0.27440754E+03</rscale>
<asrwt>0</asrwt>
<pdfrwt beam="1">  1        2 0.95752028E-02 0.27440754E+03</pdfrwt>
<pdfrwt beam="2">  1       -2 0.46532610E-01 0.27440754E+03</pdfrwt>
<totfact> 0.29883525E+03</totfact>
</mgrwt>
</event>
<event>
 9    1  0.2031653E-002  0.2755080E+03  0.7818608E-02  0.1098168E+00
         -1   -1    0    0    0  501 -0.00000000000E+00  0.00000000000E+00  0.51773730711E+02  0.51773730711E+02  0.00000000000E+00 0.  1.
          1   -1    0    0  501    0  0.00000000000E+00 -0.00000000000E+00 -0.36652117783E+03  0.36652117783E+03  0.00000000000E+00 0.  1.
         36    2    1    2    0    0  0.14210854715E-13  0.00000000000E+00 -0.31474744712E+03  0.41829490854E+03  0.27550803081E+03 0.  0.
         25    2    3    3    0    0 -0.41504125532E+02  0.38721924246E+02 -0.16414419594E+03  0.21355536270E+03  0.12426019486E+03 0.  0.
         25    2    3    3    0    0  0.41504125532E+02 -0.38721924246E+02 -0.15060325118E+03  0.20473954583E+03  0.12655023710E+03 0.  0.
          5    1    4    4  502    0  0.43656402822E+02  0.27131092672E+01 -0.55265963693E+02  0.70637519861E+02  0.47000000000E+01 0. -1.
         -5    1    4    4    0  502 -0.85160528354E+02  0.36008814979E+02 -0.10887823224E+03  0.14291784284E+03  0.47000000000E+01 0. -1.
          5    1    5    5  503    0 -0.45333537037E+02 -0.16828555220E+02 -0.60797425269E+02  0.77825103729E+02  0.47000000000E+01 0.  1.
         -5    1    5    5    0  503  0.86837662569E+02 -0.21893369026E+02 -0.89805825909E+02  0.12691444211E+03  0.47000000000E+01 0.  1.
<mgrwt>
<rscale>  0 0.27550803E+03</rscale>
<asrwt>0</asrwt>
<pdfrwt beam="1">  1        1 0.56387875E-01 0.27550803E+03</pdfrwt>
<pdfrwt beam="2">  1       -1 0.79651892E-02 0.27550803E+03</pdfrwt>
<totfact> 0.58441904E+03</totfact>
</mgrwt>
</event>
<event>
 9    1  0.2031653E-002  0.2748856E+03  0.7818608E-02  0.1098516E+00
         -1   -1    0    0    0  501 -0.00000000000E+00  0.00000000000E+00  0.39448292822E+03  0.39448292822E+03  0.00000000000E+00 0. -1.
          1   -1    0    0  501    0  0.00000000000E+00 -0.00000000000E+00 -0.47886778128E+02  0.47886778128E+02  0.00000000000E+00 0. -1.
         36    2    1    2    0    0 -0.71054273576E-14  0.00000000000E+00  0.34659615009E+03  0.44236970634E+03  0.27488555043E+03 0.  0.
         25    2    3    3    0    0 -0.49840591926E+02  0.23151413272E+02  0.21205339471E+03  0.25089960248E+03  0.12232700348E+03 0.  0.
         25    2    3    3    0    0  0.49840591926E+02 -0.23151413272E+02  0.13454275538E+03  0.19147010386E+03  0.12465542550E+03 0.  0.
          5    1    4    4  502    0 -0.17777941601E+02 -0.24153912921E+02 -0.89098504222E+00  0.30370225078E+02  0.47000000000E+01 0. -1.
         -5    1    4    4    0  502 -0.32062650325E+02  0.47305326193E+02  0.21294437975E+03  0.22052937741E+03  0.47000000000E+01 0. -1.
          5    1    5    5  503    0  0.84603109987E+02  0.98095969959E+01  0.10381555164E+03  0.13436395787E+03  0.47000000000E+01 0.  1.
         -5    1    5    5    0  503 -0.34762518061E+02 -0.32961010268E+02  0.30727203739E+02  0.57106145986E+02  0.47000000000E+01 0.  1.
<mgrwt>
<rscale>  0 0.27488555E+03</rscale>
<asrwt>0</asrwt>
<pdfrwt beam="1">  1        1 0.73671969E-02 0.27488555E+03</pdfrwt>
<pdfrwt beam="2">  1       -1 0.60689679E-01 0.27488555E+03</pdfrwt>
<totfact> 0.27589708E+03</totfact>
</mgrwt>
</event>
<event>
 9    1  0.2031653E-002  0.2747396E+03  0.7818608E-02  0.1098597E+00
         -2   -1    0    0    0  501 -0.00000000000E+00  0.00000000000E+00  0.60863088547E+02  0.60863088547E+02  0.00000000000E+00 0.  1.
          2   -1    0    0  501    0  0.00000000000E+00 -0.00000000000E+00 -0.31004776453E+03  0.31004776453E+03  0.00000000000E+00 0.  1.
         36    2    1    2    0    0  0.00000000000E+00  0.00000000000E+00 -0.24918467599E+03  0.37091085308E+03  0.27473961889E+03 0.  0.
         25    2    3    3    0    0  0.19501769778E+02  0.42944223136E+02 -0.15248056616E+03  0.20452766083E+03  0.12789337615E+03 0.  0.
         25    2    3    3    0    0 -0.19501769778E+02 -0.42944223136E+02 -0.96704109829E+02  0.16638319225E+03  0.12691397275E+03 0.  0.
          5    1    4    4  502    0  0.22950694468E+02  0.20875849479E+01  0.17686291787E+02  0.29427662236E+02  0.47000000000E+01 0.  1.
         -5    1    4    4    0  502 -0.34489246901E+01  0.40856638188E+02 -0.17016685794E+03  0.17509999860E+03  0.47000000000E+01 0.  1.
          5    1    5    5  503    0 -0.24042545000E+02 -0.86473429874E+02 -0.52924946604E+02  0.10430166833E+03  0.47000000000E+01 0. -1.
         -5    1    5    5    0  503  0.45407752222E+01  0.43529206739E+02 -0.43779163225E+02  0.62081523915E+02  0.47000000000E+01 0. -1.
<mgrwt>
<rscale>  0 0.27473962E+03</rscale>
<asrwt>0</asrwt>
<pdfrwt beam="1">  1        2 0.47699656E-01 0.27473962E+03</pdfrwt>
<pdfrwt beam="2">  1       -2 0.93635520E-02 0.27473962E+03</pdfrwt>
<totfact> 0.77166482E+03</totfact>
</mgrwt>
</event>
<event>
 9    1  0.2031653E-002  0.2757257E+03  0.7818608E-02  0.1098047E+00
         -2   -1    0    0    0  501 -0.00000000000E+00  0.00000000000E+00  0.63846166803E+01  0.63846166803E+01  0.00000000000E+00 0.  1.
          2   -1    0    0  501    0  0.00000000000E+00 -0.00000000000E+00 -0.29768684341E+04  0.29768684341E+04  0.00000000000E+00 0.  1.
         36    2    1    2    0    0  0.71054273576E-14  0.71054273576E-14 -0.29704838174E+04  0.29832530508E+04  0.27572568875E+03 0.  0.
         25    2    3    3    0    0 -0.98218786729E+01  0.17339769117E+02 -0.97233908675E+03  0.98067269650E+03  0.12600992483E+03 0.  0.
         25    2    3    3    0    0  0.98218786729E+01 -0.17339769117E+02 -0.19981447307E+04  0.20025803543E+04  0.13171398456E+03 0.  0.
          5    1    4    4  502    0 -0.35177008067E+02  0.58005333458E+02 -0.35470888473E+03  0.36116827590E+03  0.47000000000E+01 0. -1.
         -5    1    4    4    0  502  0.25355129394E+02 -0.40665564341E+02 -0.61763020201E+03  0.61950442061E+03  0.47000000000E+01 0. -1.
          5    1    5    5  503    0 -0.47686833789E+02  0.27293758005E+02 -0.59826009409E+03  0.60079631617E+03  0.47000000000E+01 0. -1.
         -5    1    5    5    0  503  0.57508712462E+02 -0.44633527122E+02 -0.13998846366E+04  0.14017840381E+04  0.47000000000E+01 0. -1.
<mgrwt>
<rscale>  0 0.27572569E+03</rscale>
<asrwt>0</asrwt>
<pdfrwt beam="1">  1        2 0.45797875E+00 0.27572569E+03</pdfrwt>
<pdfrwt beam="2">  1       -2 0.98225088E-03 0.27572569E+03</pdfrwt>
<totfact> 0.47053654E+03</totfact>
</mgrwt>
</event>
<event>
 9    1  0.2031653E-002  0.2764502E+03  0.7818608E-02  0.1097644E+00
          1   -1    0    0  501    0  0.00000000000E+00  0.00000000000E+00  0.48744197041E+03  0.48744197041E+03  0.00000000000E+00 0. -1.
         -1   -1    0    0    0  501 -0.00000000000E+00 -0.00000000000E+00 -0.39196822660E+02  0.39196822660E+02  0.00000000000E+00 0. -1.
         36    2    1    2    0    0  0.71054273576E-14 -0.35527136788E-14  0.44824514775E+03  0.52663879307E+03  0.27645018699E+03 0.  0.
         25    2    3    3    0    0  0.39966635179E+02 -0.29403654941E+02  0.16637868567E+03  0.21193273358E+03  0.12153892243E+03 0.  0.
         25    2    3    3    0    0 -0.39966635179E+02  0.29403654941E+02  0.28186646208E+03  0.31470605949E+03  0.13087893101E+03 0.  0.
          5    1    4    4  502    0  0.60532054508E+01 -0.60868018497E+02  0.15094991453E+03  0.16294024570E+03  0.47000000000E+01 0. -1.
         -5    1    4    4    0  502  0.33913429728E+02  0.31464363556E+02  0.15428771141E+02  0.48992487882E+02  0.47000000000E+01 0. -1.
          5    1    5    5  503    0 -0.68968954103E+02 -0.28436755457E+02  0.13984553406E+03  0.15856931950E+03  0.47000000000E+01 0.  1.
         -5    1    5    5    0  503  0.29002318924E+02  0.57840410398E+02  0.14202092802E+03  0.15613673999E+03  0.47000000000E+01 0.  1.
<mgrwt>
<rscale>  0 0.27645019E+03</rscale>
<asrwt>0</asrwt>
<pdfrwt beam="1">  1        1 0.74991068E-01 0.27645019E+03</pdfrwt>
<pdfrwt beam="2">  1       -1 0.60302807E-02 0.27645019E+03</pdfrwt>
<totfact> 0.61663002E+03</totfact>
</mgrwt>
</event>
<event>
 9    1  0.2031653E-002  0.2762581E+03  0.7818608E-02  0.1097750E+00
         -2   -1    0    0    0  501 -0.00000000000E+00  0.00000000000E+00  0.11415907566E+02  0.11415907566E+02  0.00000000000E+00 0. -1.
          2   -1    0    0  501    0  0.00000000000E+00 -0.00000000000E+00 -0.16713202994E+04  0.16713202994E+04  0.00000000000E+00 0. -1.
         36    2    1    2    0    0  0.71054273576E-14  0.00000000000E+00 -0.16599043918E+04  0.16827362070E+04  0.27625812604E+03 0.  0.
         25    2    3    3    0    0  0.33405673343E+02  0.45854378573E+02 -0.71023985015E+03  0.72326771891E+03  0.12432612530E+03 0.  0.
         25    2    3    3    0    0 -0.33405673343E+02 -0.45854378573E+02 -0.94966454169E+03  0.95946848806E+03  0.12449287045E+03 0.  0.
          5    1    4    4  502    0  0.62255642529E+02  0.45583199469E+02 -0.66452449622E+03  0.66900559727E+03  0.47000000000E+01 0.  1.
         -5    1    4    4    0  502 -0.28849969186E+02  0.27117910378E+00 -0.45715353931E+02  0.54262121643E+02  0.47000000000E+01 0.  1.
          5    1    5    5  503    0 -0.59011862784E+02  0.66208629064E+01 -0.23591407833E+03  0.24331826510E+03  0.47000000000E+01 0.  1.
         -5    1    5    5    0  503  0.25606189441E+02 -0.52475241479E+02 -0.71375046336E+03  0.71615022297E+03  0.47000000000E+01 0.  1.
<mgrwt>
<rscale>  0 0.27625813E+03</rscale>
<asrwt>0</asrwt>
<pdfrwt beam="1">  1        2 0.25712619E+00 0.27625813E+03</pdfrwt>
<pdfrwt beam="2">  1       -2 0.17562936E-02 0.27625813E+03</pdfrwt>
<totfact> 0.10355715E+04</totfact>
</mgrwt>
</event>
<event>
 9    1  0.2031653E-002  0.2746496E+03  0.7818608E-02  0.1098648E+00
         -2   -1    0    0    0  501 -0.00000000000E+00  0.00000000000E+00  0.38425572633E+02  0.38425572633E+02  0.00000000000E+00 0. -1.
          2   -1    0    0  501    0  0.00000000000E+00 -0.00000000000E+00 -0.49076954086E+03  0.49076954086E+03  0.00000000000E+00 0. -1.
         36    2    1    2    0    0  0.71054273576E-14  0.00000000000E+00 -0.45234396823E+03  0.52919511350E+03  0.27464959959E+03 0.  0.
         25    2    3    3    0    0  0.11754984707E+02 -0.56546504745E+02 -0.23990188606E+03  0.27702777028E+03  0.12591975107E+03 0.  0.
         25    2    3    3    0    0 -0.11754984707E+02  0.56546504745E+02 -0.21244208217E+03  0.25216734321E+03  0.12296765364E+03 0.  0.
          5    1    4    4  502    0  0.42516696523E+02  0.26038476533E+02 -0.79749506099E+02  0.94168707469E+02  0.47000000000E+01 0. -1.
         -5    1    4    4    0  502 -0.30761711816E+02 -0.82584981277E+02 -0.16015237996E+03  0.18285906281E+03  0.47000000000E+01 0. -1.
          5    1    5    5  503    0 -0.27921945212E+02  0.54774537086E+02 -0.22356417904E+03  0.23191144234E+03  0.47000000000E+01 0.  1.
         -5    1    5    5    0  503  0.16166960505E+02  0.17719676586E+01  0.11122096871E+02  0.20255900873E+02  0.47000000000E+01 0.  1.
<mgrwt>
<rscale>  0 0.27464960E+03</rscale>
<asrwt>0</asrwt>
<pdfrwt beam="1">  1        2 0.75503007E-01 0.27464960E+03</pdfrwt>
<pdfrwt beam="2">  1       -2 0.59116265E-02 0.27464960E+03</pdfrwt>
<totfact> 0.95706092E+03</totfact>
</mgrwt>
</event>
<event>
 9    1  0.2031653E-002  0.2753648E+03  0.7818608E-02  0.1098248E+00
         -2   -1    0    0    0  501 -0.00000000000E+00  0.00000000000E+00  0.37606542681E+02  0.37606542681E+02  0.00000000000E+00 0.  1.
          2   -1    0    0  501    0  0.00000000000E+00 -0.00000000000E+00 -0.50407300143E+03  0.50407300143E+03  0.00000000000E+00 0.  1.
         36    2    1    2    0    0  0.71054273576E-14  0.71054273576E-14 -0.46646645875E+03  0.54167954411E+03  0.27536479690E+03 0.  0.
         25    2    3    3    0    0 -0.23982119627E+02 -0.40784733543E+02 -0.28090113792E+03  0.30998397157E+03  0.12225414836E+03 0.  0.
         25    2    3    3    0    0  0.23982119627E+02  0.40784733543E+02 -0.18556532083E+03  0.23169557254E+03  0.13042167569E+03 0.  0.
          5    1    4    4  502    0  0.38107709932E+02 -0.17744446699E+02 -0.33874882743E+02  0.54190964429E+02  0.47000000000E+01 0. -1.
         -5    1    4    4    0  502 -0.62089829559E+02 -0.23040286844E+02 -0.24702625518E+03  0.25579300714E+03  0.47000000000E+01 0. -1.
          5    1    5    5  503    0  0.77760105324E+02  0.30069079808E+02 -0.10573099720E+03  0.13472905146E+03  0.47000000000E+01 0. -1.
         -5    1    5    5    0  503 -0.53777985697E+02  0.10715653735E+02 -0.79834323630E+02  0.96966521078E+02  0.47000000000E+01 0. -1.
<mgrwt>
<rscale>  0 0.27536480E+03</rscale>
<asrwt>0</asrwt>
<pdfrwt beam="1">  1        2 0.77549682E-01 0.27536480E+03</pdfrwt>
<pdfrwt beam="2">  1       -2 0.57856227E-02 0.27536480E+03</pdfrwt>
<totfact> 0.96013649E+03</totfact>
</mgrwt>
</event>
<event>
 9    1  0.2031653E-002  0.2749721E+03  0.7818608E-02  0.1098467E+00
          2   -1    0    0  501    0  0.00000000000E+00  0.00000000000E+00  0.63247623112E+03  0.63247623112E+03  0.00000000000E+00 0. -1.
         -2   -1    0    0    0  501 -0.00000000000E+00 -0.00000000000E+00 -0.29886365807E+02  0.29886365807E+02  0.00000000000E+00 0. -1.
         36    2    1    2    0    0  0.35527136788E-14 -0.71054273576E-14  0.60258986531E+03  0.66236259692E+03  0.27497211500E+03 0.  0.
         25    2    3    3    0    0 -0.89287318688E+01  0.50142723486E+02  0.45661345556E+03  0.47605004661E+03  0.12463460237E+03 0.  0.
         25    2    3    3    0    0  0.89287318688E+01 -0.50142723486E+02  0.14597640975E+03  0.18631255032E+03  0.10396749122E+03 0.  0.
          5    1    4    4  502    0 -0.12959213675E+02 -0.41009508273E+02  0.14982288360E+03  0.15594456528E+03  0.47000000000E+01 0. -1.
         -5    1    4    4    0  502  0.40304818064E+01  0.91152231759E+02  0.30679057196E+03  0.32010548133E+03  0.47000000000E+01 0. -1.
          5    1    5    5  503    0  0.23359957418E+02 -0.71985268648E+00  0.13004628058E+03  0.13221320240E+03  0.47000000000E+01 0.  1.
         -5    1    5    5    0  503 -0.14431225549E+02 -0.49422870799E+02  0.15930129177E+02  0.54099347912E+02  0.47000000000E+01 0.  1.
<mgrwt>
<rscale>  0 0.27497212E+03</rscale>
<asrwt>0</asrwt>
<pdfrwt beam="1">  1        2 0.97304025E-01 0.27497212E+03</pdfrwt>
<pdfrwt beam="2">  1       -2 0.45979029E-02 0.27497212E+03</pdfrwt>
<totfact> 0.10500647E+04</totfact>
</mgrwt>
</event>
<event>
 9    1  0.2031653E-002  0.2749503E+03  0.7818608E-02  0.1098479E+00
         -1   -1    0    0    0  501 -0.00000000000E+00  0.00000000000E+00  0.17195652416E+03  0.17195652416E+03  0.00000000000E+00 0. -1.
          1   -1    0    0  501    0  0.00000000000E+00 -0.00000000000E+00 -0.10990809464E+03  0.10990809464E+03  0.00000000000E+00 0. -1.
         36    2    1    2    0    0  0.35527136788E-14 -0.71054273576E-14  0.62048429516E+02  0.28186461880E+03  0.27495027864E+03 0.  0.
         25    2    3    3    0    0 -0.71003896995E+01 -0.62685840821E+02  0.30942064649E+01  0.13869202317E+03  0.12347458445E+03 0.  0.
         25    2    3    3    0    0  0.71003896995E+01  0.62685840821E+02  0.58954223051E+02  0.14317259563E+03  0.11420534816E+03 0.  0.
          5    1    4    4  502    0 -0.28145137652E+02  0.22798260856E+02 -0.27125250286E+02  0.45494820305E+02  0.47000000000E+01 0. -1.
         -5    1    4    4    0  502  0.21044747953E+02 -0.85484101677E+02  0.30219456751E+02  0.93197202867E+02  0.47000000000E+01 0. -1.
          5    1    5    5  503    0 -0.43719973715E+02  0.64565159108E+02  0.45324587551E+02  0.90313366170E+02  0.47000000000E+01 0. -1.
         -5    1    5    5    0  503  0.50820363414E+02 -0.18793182867E+01  0.13629635500E+02  0.52859229455E+02  0.47000000000E+01 0. -1.
<mgrwt>
<rscale>  0 0.27495028E+03</rscale>
<asrwt>0</asrwt>
<pdfrwt beam="1">  1        1 0.16908938E-01 0.27495028E+03</pdfrwt>
<pdfrwt beam="2">  1       -1 0.26454850E-01 0.27495028E+03</pdfrwt>
<totfact> 0.40036013E+03</totfact>
</mgrwt>
</event>
<event>
 9    1  0.2031653E-002  0.2753870E+03  0.7818608E-02  0.1098235E+00
          2   -1    0    0  501    0  0.00000000000E+00  0.00000000000E+00  0.32976606217E+03  0.32976606217E+03  0.00000000000E+00 0.  1.
         -2   -1    0    0    0  501 -0.00000000000E+00 -0.00000000000E+00 -0.57493805351E+02  0.57493805351E+02  0.00000000000E+00 0.  1.
         36    2    1    2    0    0  0.00000000000E+00  0.71054273576E-14  0.27227225682E+03  0.38725986752E+03  0.27538704247E+03 0.  0.
         25    2    3    3    0    0 -0.38559196529E+02  0.38693328702E+02  0.10124709641E+03  0.16870930308E+03  0.12340125239E+03 0.  0.
         25    2    3    3    0    0  0.38559196529E+02 -0.38693328702E+02  0.17102516041E+03  0.21855056444E+03  0.12462246347E+03 0.  0.
          5    1    4    4  502    0  0.43196256651E+02  0.26321857122E+02  0.27256531035E+02  0.57652105210E+02  0.47000000000E+01 0.  1.
         -5    1    4    4    0  502 -0.81755453180E+02  0.12371471580E+02  0.73990565376E+02  0.11105719787E+03  0.47000000000E+01 0.  1.
          5    1    5    5  503    0 -0.38018523876E+02 -0.32215837177E+01  0.15321921820E+02  0.41384031312E+02  0.47000000000E+01 0.  1.
         -5    1    5    5    0  503  0.76577720405E+02 -0.35471744984E+02  0.15570323859E+03  0.17716653313E+03  0.47000000000E+01 0.  1.
<mgrwt>
<rscale>  0 0.27538704E+03</rscale>
<asrwt>0</asrwt>
<pdfrwt beam="1">  1        2 0.50733239E-01 0.27538704E+03</pdfrwt>
<pdfrwt beam="2">  1       -2 0.88452010E-02 0.27538704E+03</pdfrwt>
<totfact> 0.79007081E+03</totfact>
</mgrwt>
</event>
<event>
 9    1  0.2031653E-002  0.2753294E+03  0.7818608E-02  0.1098268E+00
         -1   -1    0    0    0  501 -0.00000000000E+00  0.00000000000E+00  0.16831417021E+03  0.16831417021E+03  0.00000000000E+00 0.  1.
          1   -1    0    0  501    0  0.00000000000E+00 -0.00000000000E+00 -0.11259639952E+03  0.11259639952E+03  0.00000000000E+00 0.  1.
         36    2    1    2    0    0 -0.71054273576E-14  0.71054273576E-14  0.55717770689E+02  0.28091056974E+03  0.27532939948E+03 0.  0.
         25    2    3    3    0    0 -0.20926531121E+02  0.30358068589E+02 -0.68611392964E+01  0.13131592290E+03  0.12584619319E+03 0.  0.
         25    2    3    3    0    0  0.20926531121E+02 -0.30358068589E+02  0.62578909986E+02  0.14959464684E+03  0.13077808056E+03 0.  0.
          5    1    4    4  502    0 -0.37102879187E+02  0.20494786193E+02  0.53187712509E+02  0.68173914857E+02  0.47000000000E+01 0. -1.
         -5    1    4    4    0  502  0.16176348065E+02  0.98632823964E+01 -0.60048851805E+02  0.63142008041E+02  0.47000000000E+01 0. -1.
          5    1    5    5  503    0 -0.52121334121E+02  0.42360366763E+01  0.38568272903E+02  0.65147364890E+02  0.47000000000E+01 0.  1.
         -5    1    5    5    0  503  0.73047865243E+02 -0.34594105265E+02  0.24010637082E+02  0.84447281950E+02  0.47000000000E+01 0.  1.
<mgrwt>
<rscale>  0 0.27532940E+03</rscale>
<asrwt>0</asrwt>
<pdfrwt beam="1">  1        1 0.17322523E-01 0.27532940E+03</pdfrwt>
<pdfrwt beam="2">  1       -1 0.25894488E-01 0.27532940E+03</pdfrwt>
<totfact> 0.40212129E+03</totfact>
</mgrwt>
</event>
<event>
 9    1  0.2031653E-002  0.2746285E+03  0.7818608E-02  0.1098659E+00
         -2   -1    0    0    0  501 -0.00000000000E+00  0.00000000000E+00  0.54720737302E+02  0.54720737302E+02  0.00000000000E+00 0.  1.
          2   -1    0    0  501    0  0.00000000000E+00 -0.00000000000E+00 -0.34457131562E+03  0.34457131562E+03  0.00000000000E+00 0.  1.
         36    2    1    2    0    0 -0.71054273576E-14  0.00000000000E+00 -0.28985057832E+03  0.39929205292E+03  0.27462845041E+03 0.  0.
         25    2    3    3    0    0  0.46337806543E+02 -0.38596833036E+02 -0.13750302436E+03  0.19350646875E+03  0.12206868519E+03 0.  0.
         25    2    3    3    0    0 -0.46337806543E+02  0.38596833036E+02 -0.15234755396E+03  0.20578558417E+03  0.12450309884E+03 0.  0.
          5    1    4    4  502    0  0.43107017366E+02  0.34085610203E+02 -0.27743830829E+02  0.61740213137E+02  0.47000000000E+01 0. -1.
         -5    1    4    4    0  502  0.32307891769E+01 -0.72682443239E+02 -0.10975919353E+03  0.13176625561E+03  0.47000000000E+01 0. -1.
          5    1    5    5  503    0 -0.55720434836E+02  0.74055194762E+02 -0.72391951083E+02  0.11769291955E+03  0.47000000000E+01 0. -1.
         -5    1    5    5    0  503  0.93826282928E+01 -0.35458361726E+02 -0.79955602876E+02  0.88092664628E+02  0.47000000000E+01 0. -1.
<mgrwt>
<rscale>  0 0.27462845E+03</rscale>
<asrwt>0</asrwt>
<pdfrwt beam="1">  1        2 0.53010972E-01 0.27462845E+03</pdfrwt>
<pdfrwt beam="2">  1       -2 0.84185749E-02 0.27462845E+03</pdfrwt>
<totfact> 0.81430201E+03</totfact>
</mgrwt>
</event>
<event>
 9    1  0.2031653E-002  0.2758412E+03  0.7818608E-02  0.1097982E+00
         -4   -1    0    0    0  501 -0.00000000000E+00  0.00000000000E+00  0.69612960627E+03  0.69612960627E+03  0.00000000000E+00 0.  1.
          4   -1    0    0  501    0  0.00000000000E+00 -0.00000000000E+00 -0.27325498608E+02  0.27325498608E+02  0.00000000000E+00 0.  1.
         36    2    1    2    0    0  0.35527136788E-14  0.71054273576E-14  0.66880410767E+03  0.72345510488E+03  0.27584117595E+03 0.  0.
         25    2    3    3    0    0  0.14999536375E+02  0.15176614570E+02  0.47766816577E+03  0.49458359405E+03  0.12645449456E+03 0.  0.
         25    2    3    3    0    0 -0.14999536375E+02 -0.15176614570E+02  0.19113594189E+03  0.22887151083E+03  0.12407217442E+03 0.  0.
          5    1    4    4  502    0  0.29746186102E+01 -0.16492940771E+02  0.18116232991E+01  0.17499640857E+02  0.47000000000E+01 0.  1.
         -5    1    4    4    0  502  0.12024917765E+02  0.31669555341E+02  0.47585654247E+03  0.47708395320E+03  0.47000000000E+01 0.  1.
          5    1    5    5  503    0  0.12692917826E+02  0.51648298565E+02  0.82708763868E+02  0.98445347925E+02  0.47000000000E+01 0.  1.
         -5    1    5    5    0  503 -0.27692454201E+02 -0.66824913134E+02  0.10842717803E+03  0.13042616290E+03  0.47000000000E+01 0.  1.
<mgrwt>
<rscale>  0 0.27584118E+03</rscale>
<asrwt>0</asrwt>
<pdfrwt beam="1">  1        4 0.42039234E-02 0.27584118E+03</pdfrwt>
<pdfrwt beam="2">  1       -4 0.10709685E+00 0.27584118E+03</pdfrwt>
<totfact> 0.42965692E+02</totfact>
</mgrwt>
</event>
<event>
 9    1  0.2031653E-002  0.2733748E+03  0.7818608E-02  0.1099364E+00
          1   -1    0    0  501    0  0.00000000000E+00  0.00000000000E+00  0.66295953480E+02  0.66295953480E+02  0.00000000000E+00 0. -1.
         -1   -1    0    0    0  501 -0.00000000000E+00 -0.00000000000E+00 -0.28181870764E+03  0.28181870764E+03  0.00000000000E+00 0. -1.
         36    2    1    2    0    0  0.00000000000E+00  0.00000000000E+00 -0.21552275416E+03  0.34811466112E+03  0.27337476059E+03 0.  0.
         25    2    3    3    0    0 -0.16736535130E+01 -0.29008121181E+02 -0.48158609493E+02  0.13775974932E+03  0.12575462081E+03 0.  0.
         25    2    3    3    0    0  0.16736535130E+01  0.29008121181E+02 -0.16736414467E+03  0.21035491180E+03  0.12407320334E+03 0.  0.
          5    1    4    4  502    0 -0.40783615781E+02  0.29845392657E+02  0.22922587506E+01  0.50807432815E+02  0.47000000000E+01 0.  1.
         -5    1    4    4    0  502  0.39109962268E+02 -0.58853513838E+02 -0.50450868243E+02  0.86952316509E+02  0.47000000000E+01 0.  1.
          5    1    5    5  503    0 -0.53210721909E+02  0.16229000860E+02 -0.13285492139E+03  0.14410857550E+03  0.47000000000E+01 0. -1.
         -5    1    5    5    0  503  0.54884375422E+02  0.12779120321E+02 -0.34509223277E+02  0.66246336297E+02  0.47000000000E+01 0. -1.
<mgrwt>
<rscale>  0 0.27337476E+03</rscale>
<asrwt>0</asrwt>
<pdfrwt beam="1">  1        1 0.10199377E-01 0.27337476E+03</pdfrwt>
<pdfrwt beam="2">  1       -1 0.43356724E-01 0.27337476E+03</pdfrwt>
<totfact> 0.33200627E+03</totfact>
</mgrwt>
</event>
<event>
 9    1  0.2031653E-002  0.2726447E+03  0.7818608E-02  0.1099775E+00
          1   -1    0    0  501    0  0.00000000000E+00  0.00000000000E+00  0.15115350145E+04  0.15115350145E+04  0.00000000000E+00 0.  1.
         -1   -1    0    0    0  501 -0.00000000000E+00 -0.00000000000E+00 -0.12294642501E+02  0.12294642501E+02  0.00000000000E+00 0.  1.
         36    2    1    2    0    0  0.00000000000E+00 -0.14210854715E-13  0.14992403720E+04  0.15238296570E+04  0.27264469649E+03 0.  0.
         25    2    3    3    0    0 -0.18930758155E+02 -0.45386653240E+02  0.60191472941E+03  0.61691093976E+03  0.12593428535E+03 0.  0.
         25    2    3    3    0    0  0.18930758155E+02  0.45386653240E+02  0.89732564261E+03  0.90691871726E+03  0.12202429645E+03 0.  0.
          5    1    4    4  502    0 -0.54216353738E+02  0.20394686317E+02  0.32048339317E+03  0.32571007282E+03  0.47000000000E+01 0.  1.
         -5    1    4    4    0  502  0.35285595582E+02 -0.65781339557E+02  0.28143133624E+03  0.29120086694E+03  0.47000000000E+01 0.  1.
          5    1    5    5  503    0 -0.36030700332E+02 -0.19205111063E+02  0.42797716642E+03  0.42994603456E+03  0.47000000000E+01 0.  1.
         -5    1    5    5    0  503  0.54961458487E+02  0.64591764302E+02  0.46934847619E+03  0.47697268270E+03  0.47000000000E+01 0.  1.
<mgrwt>
<rscale>  0 0.27264470E+03</rscale>
<asrwt>0</asrwt>
<pdfrwt beam="1">  1        1 0.23254370E+00 0.27264470E+03</pdfrwt>
<pdfrwt beam="2">  1       -1 0.18914847E-02 0.27264470E+03</pdfrwt>
<totfact> 0.52310164E+03</totfact>
</mgrwt>
</event>
<event>
 9    1  0.2031653E-002  0.2755287E+03  0.7818608E-02  0.1098156E+00
         -3   -1    0    0    0  501 -0.00000000000E+00  0.00000000000E+00  0.20113538644E+04  0.20113538644E+04  0.00000000000E+00 0. -1.
          3   -1    0    0  501    0  0.00000000000E+00 -0.00000000000E+00 -0.94359425279E+01  0.94359425279E+01  0.00000000000E+00 0. -1.
         36    2    1    2    0    0  0.00000000000E+00  0.00000000000E+00  0.20019179219E+04  0.20207898069E+04  0.27552872422E+03 0.  0.
         25    2    3    3    0    0 -0.52913759729E+02 -0.78251887167E+01  0.79786461221E+03  0.80933353534E+03  0.12478674793E+03 0.  0.
         25    2    3    3    0    0  0.52913759729E+02  0.78251887167E+01  0.12040533097E+04  0.12114562716E+04  0.12255947911E+03 0.  0.
          5    1    4    4  502    0 -0.66290671522E+02 -0.50140981528E+02  0.37550862622E+03  0.38462629854E+03  0.47000000000E+01 0.  1.
         -5    1    4    4    0  502  0.13376911793E+02  0.42315792812E+02  0.42235598599E+03  0.42470723680E+03  0.47000000000E+01 0.  1.
          5    1    5    5  503    0 -0.16339548174E+02 -0.32356177803E+02  0.70956848725E+03  0.71050927592E+03  0.47000000000E+01 0. -1.
         -5    1    5    5    0  503  0.69253307903E+02  0.40181366520E+02  0.49448482242E+03  0.50094699568E+03  0.47000000000E+01 0. -1.
<mgrwt>
<rscale>  0 0.27552872E+03</rscale>
<asrwt>0</asrwt>
<pdfrwt beam="1">  1        3 0.14516851E-02 0.27552872E+03</pdfrwt>
<pdfrwt beam="2">  1       -3 0.30943872E+00 0.27552872E+03</pdfrwt>
<totfact> 0.15357990E+02</totfact>
</mgrwt>
</event>
<event>
 9    1  0.2031653E-002  0.2749111E+03  0.7818608E-02  0.1098501E+00
         -2   -1    0    0    0  501 -0.00000000000E+00  0.00000000000E+00  0.40860465571E+02  0.40860465571E+02  0.00000000000E+00 0. -1.
          2   -1    0    0  501    0  0.00000000000E+00 -0.00000000000E+00 -0.46240362309E+03  0.46240362309E+03  0.00000000000E+00 0. -1.
         36    2    1    2    0    0  0.71054273576E-14  0.00000000000E+00 -0.42154315752E+03  0.50326408867E+03  0.27491109342E+03 0.  0.
         25    2    3    3    0    0 -0.32178649884E+02  0.18492844477E+01 -0.11910170358E+03  0.17734821876E+03  0.12739030395E+03 0.  0.
         25    2    3    3    0    0  0.32178649884E+02 -0.18492844477E+01 -0.30244145395E+03  0.32591586991E+03  0.11709584036E+03 0.  0.
          5    1    4    4  502    0 -0.16370601287E+02 -0.51495913563E+02 -0.10737067280E+03  0.12029288041E+03  0.47000000000E+01 0. -1.
         -5    1    4    4    0  502 -0.15808048597E+02  0.53345198011E+02 -0.11731030781E+02  0.57055338352E+02  0.47000000000E+01 0. -1.
          5    1    5    5  503    0  0.27719710122E+02  0.49028532439E+02 -0.82026258477E+02  0.99612129794E+02  0.47000000000E+01 0.  1.
         -5    1    5    5    0  503  0.44589397624E+01 -0.50877816887E+02 -0.22041519547E+03  0.22630374011E+03  0.47000000000E+01 0.  1.
<mgrwt>
<rscale>  0 0.27491109E+03</rscale>
<asrwt>0</asrwt>
<pdfrwt beam="1">  1        2 0.71139019E-01 0.27491109E+03</pdfrwt>
<pdfrwt beam="2">  1       -2 0.62862255E-02 0.27491109E+03</pdfrwt>
<totfact> 0.93043133E+03</totfact>
</mgrwt>
</event>
<event>
 9    1  0.2031653E-002  0.2786308E+03  0.7818608E-02  0.1096439E+00
         -2   -1    0    0    0  501 -0.00000000000E+00  0.00000000000E+00  0.82629156927E+01  0.82629156927E+01  0.00000000000E+00 0.  1.
          2   -1    0    0  501    0  0.00000000000E+00 -0.00000000000E+00 -0.23489022230E+04  0.23489022230E+04  0.00000000000E+00 0.  1.
         36    2    1    2    0    0 -0.35527136788E-14  0.00000000000E+00 -0.23406393073E+04  0.23571651387E+04  0.27863080260E+03 0.  0.
         25    2    3    3    0    0 -0.21602782114E+02 -0.42105982877E+02 -0.15322031059E+04  0.15378963859E+04  0.12344773027E+03 0.  0.
         25    2    3    3    0    0  0.21602782114E+02  0.42105982877E+02 -0.80843620145E+03  0.81926875281E+03  0.12406693167E+03 0.  0.
          5    1    4    4  502    0  0.24299191171E+02 -0.62474421377E+02 -0.50440806003E+03  0.50886450558E+03  0.47000000000E+01 0. -1.
         -5    1    4    4    0  502 -0.45901973284E+02  0.20368438500E+02 -0.10277950458E+04  0.10290318803E+04  0.47000000000E+01 0. -1.
          5    1    5    5  503    0  0.73271265469E+02  0.24868198440E+02 -0.43524465449E+03  0.44209400007E+03  0.47000000000E+01 0.  1.
         -5    1    5    5    0  503 -0.51668483355E+02  0.17237784437E+02 -0.37319154696E+03  0.37717475274E+03  0.47000000000E+01 0.  1.
<mgrwt>
<rscale>  0 0.27863080E+03</rscale>
<asrwt>0</asrwt>
<pdfrwt beam="1">  1        2 0.36136986E+00 0.27863080E+03</pdfrwt>
<pdfrwt beam="2">  1       -2 0.12712168E-02 0.27863080E+03</pdfrwt>
<totfact> 0.72830397E+03</totfact>
</mgrwt>
</event>
<event>
 9    1  0.2031653E-002  0.2751067E+03  0.7818608E-02  0.1098392E+00
          2   -1    0    0  501    0  0.00000000000E+00  0.00000000000E+00  0.21637348167E+04  0.21637348167E+04  0.00000000000E+00 0. -1.
         -2   -1    0    0    0  501 -0.00000000000E+00 -0.00000000000E+00 -0.87445658103E+01  0.87445658103E+01  0.00000000000E+00 0. -1.
         36    2    1    2    0    0 -0.14210854715E-13  0.00000000000E+00  0.21549902509E+04  0.21724793825E+04  0.27510668113E+03 0.  0.
         25    2    3    3    0    0  0.59271317322E+02  0.24363584545E+02  0.16505716293E+04  0.16565649237E+04  0.12535537433E+03 0.  0.
         25    2    3    3    0    0 -0.59271317322E+02 -0.24363584545E+02  0.50441862161E+03  0.51591445877E+03  0.87309275754E+02 0.  0.
          5    1    4    4  502    0  0.88986522118E+02  0.49081058894E+02  0.12232226923E+04  0.12274458833E+04  0.47000000000E+01 0.  1.
         -5    1    4    4    0  502 -0.29715204796E+02 -0.24717474349E+02  0.42734893702E+03  0.42911904048E+03  0.47000000000E+01 0.  1.
          5    1    5    5  503    0 -0.42650710817E+02 -0.25850745206E+02  0.49210983806E+03  0.49465293578E+03  0.47000000000E+01 0.  1.
         -5    1    5    5    0  503 -0.16620606505E+02  0.14871606611E+01  0.12308783553E+02  0.21261522993E+02  0.47000000000E+01 0.  1.
<mgrwt>
<rscale>  0 0.27510668E+03</rscale>
<asrwt>0</asrwt>
<pdfrwt beam="1">  1        2 0.33288185E+00 0.27510668E+03</pdfrwt>
<pdfrwt beam="2">  1       -2 0.13453195E-02 0.27510668E+03</pdfrwt>
<totfact> 0.84215109E+03</totfact>
</mgrwt>
</event>
<event>
 9    1  0.2031653E-002  0.2759872E+03  0.7818608E-02  0.1097901E+00
          2   -1    0    0  501    0  0.00000000000E+00  0.00000000000E+00  0.85463694669E+03  0.85463694669E+03  0.00000000000E+00 0.  1.
         -2   -1    0    0    0  501 -0.00000000000E+00 -0.00000000000E+00 -0.22281074239E+02  0.22281074239E+02  0.00000000000E+00 0.  1.
         36    2    1    2    0    0  0.00000000000E+00  0.71054273576E-14  0.83235587245E+03  0.87691802093E+03  0.27598716823E+03 0.  0.
         25    2    3    3    0    0  0.11850641497E+02  0.52382818575E+02  0.50014891118E+03  0.51791902377E+03  0.12331579155E+03 0.  0.
         25    2    3    3    0    0 -0.11850641497E+02 -0.52382818575E+02  0.33220696127E+03  0.35899899716E+03  0.12503766415E+03 0.  0.
          5    1    4    4  502    0 -0.33385057236E+02  0.61794076663E+02  0.41500202233E+03  0.42092973107E+03  0.47000000000E+01 0.  1.
         -5    1    4    4    0  502  0.45235698734E+02 -0.94112580875E+01  0.85146888846E+02  0.96989292702E+02  0.47000000000E+01 0.  1.
          5    1    5    5  503    0 -0.63632829967E+02 -0.54518493149E+02  0.21229961560E+03  0.22828626750E+03  0.47000000000E+01 0. -1.
         -5    1    5    5    0  503  0.51782188469E+02  0.21356745732E+01  0.11990734567E+03  0.13071272965E+03  0.47000000000E+01 0. -1.
<mgrwt>
<rscale>  0 0.27598717E+03</rscale>
<asrwt>0</asrwt>
<pdfrwt beam="1">  1        2 0.13148258E+00 0.27598717E+03</pdfrwt>
<pdfrwt beam="2">  1       -2 0.34278582E-02 0.27598717E+03</pdfrwt>
<totfact> 0.11256437E+04</totfact>
</mgrwt>
</event>
<event>
 9    1  0.2031653E-002  0.2745931E+03  0.7818608E-02  0.1098679E+00
         -2   -1    0    0    0  501 -0.00000000000E+00  0.00000000000E+00  0.15944413467E+03  0.15944413467E+03  0.00000000000E+00 0.  1.
          2   -1    0    0  501    0  0.00000000000E+00 -0.00000000000E+00 -0.11822533705E+03  0.11822533705E+03  0.00000000000E+00 0.  1.
         36    2    1    2    0    0  0.00000000000E+00 -0.88817841970E-15  0.41218797614E+02  0.27766947172E+03  0.27459305572E+03 0.  0.
         25    2    3    3    0    0  0.28176512684E+02 -0.76641502393E+01  0.65018868760E+02  0.14567104639E+03  0.12704308481E+03 0.  0.
         25    2    3    3    0    0 -0.28176512684E+02  0.76641502393E+01 -0.23800071146E+02  0.13199842533E+03  0.12650883699E+03 0.  0.
          5    1    4    4  502    0  0.23113382589E+02 -0.66706394619E+02  0.38887686713E+02  0.80736074438E+02  0.47000000000E+01 0. -1.
         -5    1    4    4    0  502  0.50631300951E+01  0.59042244380E+02  0.26131182047E+02  0.64934971956E+02  0.47000000000E+01 0. -1.
          5    1    5    5  503    0  0.45589242496E+02  0.95744972087E+00  0.15021640535E+02  0.48239355569E+02  0.47000000000E+01 0. -1.
         -5    1    5    5    0  503 -0.73765755180E+02  0.67067005184E+01 -0.38821711681E+02  0.83759069759E+02  0.47000000000E+01 0. -1.
<mgrwt>
<rscale>  0 0.27459306E+03</rscale>
<asrwt>0</asrwt>
<pdfrwt beam="1">  1        2 0.18188513E-01 0.27459306E+03</pdfrwt>
<pdfrwt beam="2">  1       -2 0.24529867E-01 0.27459306E+03</pdfrwt>
<totfact> 0.45310325E+03</totfact>
</mgrwt>
</event>
<event>
 9    1  0.2031653E-002  0.2749178E+03  0.7818608E-02  0.1098498E+00
          1   -1    0    0  501    0  0.00000000000E+00  0.00000000000E+00  0.12386543745E+04  0.12386543745E+04  0.00000000000E+00 0.  1.
         -1   -1    0    0    0  501 -0.00000000000E+00 -0.00000000000E+00 -0.15254417910E+02  0.15254417910E+02  0.00000000000E+00 0.  1.
         36    2    1    2    0    0 -0.71054273576E-14 -0.35527136788E-14  0.12233999566E+04  0.12539087924E+04  0.27491781663E+03 0.  0.
         25    2    3    3    0    0 -0.13954117742E+02 -0.26145058488E+02  0.17341223848E+03  0.19589867722E+03  0.86175436148E+02 0.  0.
         25    2    3    3    0    0  0.13954117742E+02  0.26145058488E+02  0.10499877181E+04  0.10580101152E+04  0.12662114431E+03 0.  0.
          5    1    4    4  502    0  0.36126002598E+02 -0.10701960826E+02  0.83377010316E+02  0.91615696682E+02  0.47000000000E+01 0. -1.
         -5    1    4    4    0  502 -0.50080120340E+02 -0.15443097662E+02  0.90035228164E+02  0.10428298054E+03  0.47000000000E+01 0. -1.
          5    1    5    5  503    0  0.70786184154E+00  0.76637101216E+02  0.56354050309E+03  0.56874751425E+03  0.47000000000E+01 0.  1.
         -5    1    5    5    0  503  0.13246255900E+02 -0.50492042728E+02  0.48644721503E+03  0.48926260094E+03  0.47000000000E+01 0.  1.
<mgrwt>
<rscale>  0 0.27491782E+03</rscale>
<asrwt>0</asrwt>
<pdfrwt beam="1">  1        1 0.19056213E+00 0.27491782E+03</pdfrwt>
<pdfrwt beam="2">  1       -1 0.23468345E-02 0.27491782E+03</pdfrwt>
<totfact> 0.58317863E+03</totfact>
</mgrwt>
</event>
<event>
 9    1  0.2031653E-002  0.2743545E+03  0.7818608E-02  0.1098813E+00
         -3   -1    0    0    0  501 -0.00000000000E+00  0.00000000000E+00  0.52660944994E+02  0.52660944994E+02  0.00000000000E+00 0.  1.
          3   -1    0    0  501    0  0.00000000000E+00 -0.00000000000E+00 -0.35733489098E+03  0.35733489098E+03  0.00000000000E+00 0.  1.
         36    2    1    2    0    0  0.00000000000E+00  0.00000000000E+00 -0.30467394598E+03  0.40999583597E+03  0.27435446443E+03 0.  0.
         25    2    3    3    0    0  0.56142750901E+02  0.68369737455E+01 -0.84186704713E+02  0.15955484284E+03  0.12317302438E+03 0.  0.
         25    2    3    3    0    0 -0.56142750901E+02 -0.68369737455E+01 -0.22048724127E+03  0.25044099313E+03  0.10443809071E+03 0.  0.
          5    1    4    4  502    0  0.90725273719E+02 -0.13227611443E+02 -0.74292968127E+02  0.11809987345E+03  0.47000000000E+01 0. -1.
         -5    1    4    4    0  502 -0.34582522818E+02  0.20064585189E+02 -0.98937365856E+01  0.41454969387E+02  0.47000000000E+01 0. -1.
          5    1    5    5  503    0 -0.85029348654E+02 -0.94348566058E+00 -0.13233440421E+03  0.15737015230E+03  0.47000000000E+01 0. -1.
         -5    1    5    5    0  503  0.28886597753E+02 -0.58934880849E+01 -0.88152837058E+02  0.93070840831E+02  0.47000000000E+01 0. -1.
<mgrwt>
<rscale>  0 0.27435446E+03</rscale>
<asrwt>0</asrwt>
<pdfrwt beam="1">  1        3 0.54974599E-01 0.27435446E+03</pdfrwt>
<pdfrwt beam="2">  1       -3 0.81016838E-02 0.27435446E+03</pdfrwt>
<totfact> 0.87577595E+02</totfact>
</mgrwt>
</event>
<event>
 9    1  0.2031653E-002  0.2749693E+03  0.7818608E-02  0.1098469E+00
          2   -1    0    0  501    0  0.00000000000E+00  0.00000000000E+00  0.96378198130E+02  0.96378198130E+02  0.00000000000E+00 0.  1.
         -2   -1    0    0    0  501 -0.00000000000E+00 -0.00000000000E+00 -0.19612351039E+03  0.19612351039E+03  0.00000000000E+00 0.  1.
         36    2    1    2    0    0  0.00000000000E+00  0.71054273576E-14 -0.99745312259E+02  0.29250170852E+03  0.27496931132E+03 0.  0.
         25    2    3    3    0    0  0.38780566803E+02 -0.24868713375E+02 -0.10709886211E+02  0.13155191685E+03  0.12275512167E+03 0.  0.
         25    2    3    3    0    0 -0.38780566803E+02  0.24868713375E+02 -0.89035426048E+02  0.16094979167E+03  0.12591720725E+03 0.  0.
          5    1    4    4  502    0 -0.22409097578E+02 -0.40719911565E+02  0.30644773823E+02  0.55870126318E+02  0.47000000000E+01 0. -1.
         -5    1    4    4    0  502  0.61189664380E+02  0.15851198189E+02 -0.41354660034E+02  0.75681790528E+02  0.47000000000E+01 0. -1.
          5    1    5    5  503    0 -0.60791375754E+02  0.39492268101E+02 -0.10650773833E+03  0.12892330639E+03  0.47000000000E+01 0. -1.
         -5    1    5    5    0  503  0.22010808951E+02 -0.14623554726E+02  0.17472312280E+02  0.32026485288E+02  0.47000000000E+01 0. -1.
<mgrwt>
<rscale>  0 0.27496931E+03</rscale>
<asrwt>0</asrwt>
<pdfrwt beam="1">  1        2 0.14827415E-01 0.27496931E+03</pdfrwt>
<pdfrwt beam="2">  1       -2 0.30172847E-01 0.27496931E+03</pdfrwt>
<totfact> 0.39765059E+03</totfact>
</mgrwt>
</event>
<event>
 9    1  0.2031653E-002  0.2747175E+03  0.7818608E-02  0.1098610E+00
         -1   -1    0    0    0  501 -0.00000000000E+00  0.00000000000E+00  0.25812606649E+03  0.25812606649E+03  0.00000000000E+00 0.  1.
          1   -1    0    0  501    0  0.00000000000E+00 -0.00000000000E+00 -0.73093834457E+02  0.73093834457E+02  0.00000000000E+00 0.  1.
         36    2    1    2    0    0  0.00000000000E+00  0.00000000000E+00  0.18503223203E+03  0.33121990094E+03  0.27471748377E+03 0.  0.
         25    2    3    3    0    0  0.20690495513E+02 -0.22967181619E+02  0.15515432120E+03  0.19980022732E+03  0.12203146895E+03 0.  0.
         25    2    3    3    0    0 -0.20690495513E+02  0.22967181619E+02  0.29877910830E+02  0.13141967363E+03  0.12418877978E+03 0.  0.
          5    1    4    4  502    0  0.42491212675E+02  0.61317085979E+01  0.30006945676E+01  0.43291975848E+02  0.47000000000E+01 0.  1.
         -5    1    4    4    0  502 -0.21800717163E+02 -0.29098890217E+02  0.15215362663E+03  0.15650825147E+03  0.47000000000E+01 0.  1.
          5    1    5    5  503    0  0.25835297445E+02 -0.40728335269E+02  0.17023127669E+02  0.51362795519E+02  0.47000000000E+01 0. -1.
         -5    1    5    5    0  503 -0.46525792958E+02  0.63695516889E+02  0.12854783161E+02  0.80056878107E+02  0.47000000000E+01 0. -1.
<mgrwt>
<rscale>  0 0.27471748E+03</rscale>
<asrwt>0</asrwt>
<pdfrwt beam="1">  1        1 0.11245205E-01 0.27471748E+03</pdfrwt>
<pdfrwt beam="2">  1       -1 0.39711702E-01 0.27471748E+03</pdfrwt>
<totfact> 0.34086694E+03</totfact>
</mgrwt>
</event>
<event>
 9    1  0.2031653E-002  0.2772064E+03  0.7818608E-02  0.1097225E+00
         -2   -1    0    0    0  501 -0.00000000000E+00  0.00000000000E+00  0.10133241030E+02  0.10133241030E+02  0.00000000000E+00 0.  1.
          2   -1    0    0  501    0  0.00000000000E+00 -0.00000000000E+00 -0.18958244620E+04  0.18958244620E+04  0.00000000000E+00 0.  1.
         36    2    1    2    0    0  0.17763568394E-14  0.00000000000E+00 -0.18856912210E+04  0.19059577031E+04  0.27720639404E+03 0.  0.
         25    2    3    3    0    0  0.15944955408E+02 -0.80319192033E+02 -0.71830295055E+03  0.73046987726E+03  0.10450693090E+03 0.  0.
         25    2    3    3    0    0 -0.15944955408E+02  0.80319192033E+02 -0.11673882705E+04  0.11754878258E+04  0.11077382544E+03 0.  0.
          5    1    4    4  502    0 -0.35458495286E+02 -0.34544556366E+02 -0.15076315553E+03  0.15875216637E+03  0.47000000000E+01 0. -1.
         -5    1    4    4    0  502  0.51403450694E+02 -0.45774635668E+02 -0.56753979502E+03  0.57171771089E+03  0.47000000000E+01 0. -1.
          5    1    5    5  503    0 -0.35422885382E+01 -0.27091898619E+02 -0.17012600574E+03  0.17237014419E+03  0.47000000000E+01 0. -1.
         -5    1    5    5    0  503 -0.12402666870E+02  0.10741109065E+03 -0.99726226472E+03  0.10031176816E+04  0.47000000000E+01 0. -1.
<mgrwt>
<rscale>  0 0.27720639E+03</rscale>
<asrwt>0</asrwt>
<pdfrwt beam="1">  1        2 0.29166505E+00 0.27720639E+03</pdfrwt>
<pdfrwt beam="2">  1       -2 0.15589615E-02 0.27720639E+03</pdfrwt>
<totfact> 0.93985022E+03</totfact>
</mgrwt>
</event>
<event>
 9    1  0.2031653E-002  0.2750439E+03  0.7818608E-02  0.1098427E+00
          2   -1    0    0  501    0  0.00000000000E+00  0.00000000000E+00  0.84432316309E+02  0.84432316309E+02  0.00000000000E+00 0.  1.
         -2   -1    0    0    0  501 -0.00000000000E+00 -0.00000000000E+00 -0.22399353203E+03  0.22399353203E+03  0.00000000000E+00 0.  1.
         36    2    1    2    0    0 -0.35527136788E-14 -0.71054273576E-14 -0.13956121572E+03  0.30842584834E+03  0.27504394375E+03 0.  0.
         25    2    3    3    0    0  0.15600940133E+02 -0.42788546154E+02 -0.90427260353E+02  0.16625341483E+03  0.13186682491E+03 0.  0.
         25    2    3    3    0    0 -0.15600940133E+02  0.42788546154E+02 -0.49133955372E+02  0.14217243351E+03  0.12539779211E+03 0.  0.
          5    1    4    4  502    0 -0.35244502395E+02 -0.63241405216E+02 -0.17015322073E+02  0.74520208454E+02  0.47000000000E+01 0.  1.
         -5    1    4    4    0  502  0.50845442528E+02  0.20452859061E+02 -0.73411938280E+02  0.91733206374E+02  0.47000000000E+01 0.  1.
          5    1    5    5  503    0 -0.26618319879E+02  0.82244303014E+02 -0.13387905351E+02  0.87601291892E+02  0.47000000000E+01 0.  1.
         -5    1    5    5    0  503  0.11017379745E+02 -0.39455756860E+02 -0.35746050021E+02  0.54571141622E+02  0.47000000000E+01 0.  1.
<mgrwt>
<rscale>  0 0.27504394E+03</rscale>
<asrwt>0</asrwt>
<pdfrwt beam="1">  1        2 0.12989587E-01 0.27504394E+03</pdfrwt>
<pdfrwt beam="2">  1       -2 0.34460543E-01 0.27504394E+03</pdfrwt>
<totfact> 0.36491179E+03</totfact>
</mgrwt>
</event>
<event>
 8    1  0.2031653E-002  0.2916499E+03  0.7818608E-02  0.1089491E+00
          2   -1    0    0  501    0  0.00000000000E+00  0.00000000000E+00  0.16334097955E+04  0.16334097955E+04  0.00000000000E+00 0.  1.
         -2   -1    0    0    0  501 -0.00000000000E+00 -0.00000000000E+00 -0.13018731301E+02  0.13018731301E+02  0.00000000000E+00 0.  1.
         25    2    1    2    0    0  0.41568387060E+02 -0.61892991875E+02  0.80925544510E+03  0.82171626126E+03  0.12150952778E+03 0.  0.
         25    2    1    2    0    0 -0.41568387060E+02  0.61892991875E+02  0.81113561911E+03  0.82471226556E+03  0.12903741754E+03 0.  0.
          5    1    3    3  502    0 -0.29008976750E+02 -0.32405561317E+02  0.11165238510E+03  0.11991658031E+03  0.47000000000E+01 0. -1.
         -5    1    3    3    0  502  0.70577363810E+02 -0.29487430558E+02  0.69760306001E+03  0.70179968094E+03  0.47000000000E+01 0. -1.
          5    1    4    4  503    0  0.32307319991E+02 -0.27382180441E+00  0.43947888576E+03  0.44068993514E+03  0.47000000000E+01 0.  1.
         -5    1    4    4    0  503 -0.73875707052E+02  0.62166813680E+02  0.37165673335E+03  0.38402233042E+03  0.47000000000E+01 0.  1.
<mgrwt>
<rscale>  0 0.29164995E+03</rscale>
<asrwt>0</asrwt>
<pdfrwt beam="1">  1        2 0.25129365E+00 0.29164995E+03</pdfrwt>
<pdfrwt beam="2">  1       -2 0.20028830E-02 0.29164995E+03</pdfrwt>
<totfact> 0.89469173E+03</totfact>
</mgrwt>
</event>
<event>
 9    1  0.2031653E-002  0.2710029E+03  0.7818608E-02  0.1100707E+00
          3   -1    0    0  501    0  0.00000000000E+00  0.00000000000E+00  0.28805921244E+03  0.28805921244E+03  0.00000000000E+00 0.  1.
         -3   -1    0    0    0  501 -0.00000000000E+00 -0.00000000000E+00 -0.63739108121E+02  0.63739108121E+02  0.00000000000E+00 0.  1.
         36    2    1    2    0    0  0.35527136788E-14 -0.71054273576E-14  0.22432010432E+03  0.35179832056E+03  0.27100285819E+03 0.  0.
         25    2    3    3    0    0  0.25451295613E+02 -0.38019190129E+02  0.81877346087E+02  0.15617436382E+03  0.12487315503E+03 0.  0.
         25    2    3    3    0    0 -0.25451295613E+02  0.38019190129E+02  0.14244275824E+03  0.19562395674E+03  0.12603795385E+03 0.  0.
          5    1    4    4  502    0 -0.26412957214E+02 -0.40376631136E+02 -0.10961664069E+02  0.49700751804E+02  0.47000000000E+01 0. -1.
         -5    1    4    4    0  502  0.51864252826E+02  0.23574410072E+01  0.92839010156E+02  0.10647361202E+03  0.47000000000E+01 0. -1.
          5    1    5    5  503    0 -0.32071203314E+02 -0.42281608836E+02  0.60326486954E+02  0.80483983226E+02  0.47000000000E+01 0.  1.
         -5    1    5    5    0  503  0.66199077009E+01  0.80300798965E+02  0.82116271282E+02  0.11513997352E+03  0.47000000000E+01 0.  1.
<mgrwt>
<rscale>  0 0.27100286E+03</rscale>
<asrwt>0</asrwt>
<pdfrwt beam="1">  1        3 0.44316801E-01 0.27100286E+03</pdfrwt>
<pdfrwt beam="2">  1       -3 0.98060168E-02 0.27100286E+03</pdfrwt>
<totfact> 0.98367233E+02</totfact>
</mgrwt>
</event>
<event>
 8    1  0.2031653E-002  0.2943086E+03  0.7818608E-02  0.1088121E+00
          2   -1    0    0  501    0  0.00000000000E+00  0.00000000000E+00  0.40399872910E+04  0.40399872910E+04  0.00000000000E+00 0.  1.
         -2   -1    0    0    0  501 -0.00000000000E+00 -0.00000000000E+00 -0.53600154262E+01  0.53600154262E+01  0.00000000000E+00 0.  1.
         25    2    1    2    0    0 -0.11041537192E+02 -0.58707664314E+02  0.12497921605E+04  0.12571042746E+04  0.12149982439E+03 0.  0.
         25    2    1    2    0    0  0.11041537192E+02  0.58707664314E+02  0.27848351151E+04  0.27882430319E+04  0.12419372408E+03 0.  0.
          5    1    3    3  502    0  0.26712050165E+02 -0.83073457483E+02  0.93698308004E+03  0.94104947545E+03  0.47000000000E+01 0.  1.
         -5    1    3    3    0  502 -0.37753587357E+02  0.24365793168E+02  0.31280908046E+03  0.31605479913E+03  0.47000000000E+01 0.  1.
          5    1    4    4  503    0  0.20737151349E+02  0.95986091925E+02  0.21168722907E+04  0.21191540162E+04  0.47000000000E+01 0. -1.
         -5    1    4    4    0  503 -0.96956141569E+01 -0.37278427610E+02  0.66796282442E+03  0.66908901568E+03  0.47000000000E+01 0. -1.
<mgrwt>
<rscale>  0 0.29430864E+03</rscale>
<asrwt>0</asrwt>
<pdfrwt beam="1">  1        2 0.62153407E+00 0.29430864E+03</pdfrwt>
<pdfrwt beam="2">  1       -2 0.82462099E-03 0.29430864E+03</pdfrwt>
<totfact> 0.11700744E+03</totfact>
</mgrwt>
</event>
<event>
 9    1  0.2031653E-002  0.2752825E+03  0.7818608E-02  0.1098294E+00
         -3   -1    0    0    0  501 -0.00000000000E+00  0.00000000000E+00  0.21886205058E+03  0.21886205058E+03  0.00000000000E+00 0. -1.
          3   -1    0    0  501    0  0.00000000000E+00 -0.00000000000E+00 -0.86561874320E+02  0.86561874320E+02  0.00000000000E+00 0. -1.
         36    2    1    2    0    0  0.71054273576E-14  0.00000000000E+00  0.13230017626E+03  0.30542392490E+03  0.27528246814E+03 0.  0.
         25    2    3    3    0    0  0.44813576085E+02  0.32883058182E+02  0.84328442256E+02  0.15783433805E+03  0.12128825160E+03 0.  0.
         25    2    3    3    0    0 -0.44813576085E+02 -0.32883058182E+02  0.47971734008E+02  0.14758958685E+03  0.12803064777E+03 0.  0.
          5    1    4    4  502    0  0.33950175504E+02 -0.39685407826E+02  0.10190018021E+02  0.53417904099E+02  0.47000000000E+01 0.  1.
         -5    1    4    4    0  502  0.10863400582E+02  0.72568466008E+02  0.74138424234E+02  0.10441643395E+03  0.47000000000E+01 0.  1.
          5    1    5    5  503    0 -0.33975074236E+02 -0.12394703101E+02 -0.41382072518E+02  0.55158863840E+02  0.47000000000E+01 0. -1.
         -5    1    5    5    0  503 -0.10838501849E+02 -0.20488355081E+02  0.89353806526E+02  0.92430723014E+02  0.47000000000E+01 0. -1.
<mgrwt>
<rscale>  0 0.27528247E+03</rscale>
<asrwt>0</asrwt>
<pdfrwt beam="1">  1        3 0.13317212E-01 0.27528247E+03</pdfrwt>
<pdfrwt beam="2">  1       -3 0.33671084E-01 0.27528247E+03</pdfrwt>
<totfact> 0.10005330E+03</totfact>
</mgrwt>
</event>
<event>
 9    1  0.2031653E-002  0.2752119E+03  0.7818608E-02  0.1098333E+00
         -1   -1    0    0    0  501 -0.00000000000E+00  0.00000000000E+00  0.81502434803E+02  0.81502434803E+02  0.00000000000E+00 0.  1.
          1   -1    0    0  501    0  0.00000000000E+00 -0.00000000000E+00 -0.23232915143E+03  0.23232915143E+03  0.00000000000E+00 0.  1.
         36    2    1    2    0    0  0.00000000000E+00  0.00000000000E+00 -0.15082671662E+03  0.31383158623E+03  0.27521185670E+03 0.  0.
         25    2    3    3    0    0 -0.47044156300E+02  0.21161456673E+02 -0.63977909080E+02  0.15142202416E+03  0.12717899457E+03 0.  0.
         25    2    3    3    0    0  0.47044156300E+02 -0.21161456673E+02 -0.86848807544E+02  0.16240956207E+03  0.12717385970E+03 0.  0.
          5    1    4    4  502    0 -0.32136107266E+02  0.59555274020E+02  0.80556503744E+01  0.68312104028E+02  0.47000000000E+01 0.  1.
         -5    1    4    4    0  502 -0.14908049034E+02 -0.38393817346E+02 -0.72033559454E+02  0.83109920130E+02  0.47000000000E+01 0.  1.
          5    1    5    5  503    0  0.57801565636E+02 -0.56081058504E+02 -0.95047259945E+02  0.12466827077E+03  0.47000000000E+01 0. -1.
         -5    1    5    5    0  503 -0.10757409336E+02  0.34919601830E+02  0.81984524015E+01  0.37741291305E+02  0.47000000000E+01 0. -1.
<mgrwt>
<rscale>  0 0.27521186E+03</rscale>
<asrwt>0</asrwt>
<pdfrwt beam="1">  1        1 0.35742946E-01 0.27521186E+03</pdfrwt>
<pdfrwt beam="2">  1       -1 0.12538836E-01 0.27521186E+03</pdfrwt>
<totfact> 0.51454891E+03</totfact>
</mgrwt>
</event>
<event>
 9    1  0.2031653E-002  0.2760595E+03  0.7818608E-02  0.1097861E+00
         -1   -1    0    0    0  501 -0.00000000000E+00  0.00000000000E+00  0.44242065069E+02  0.44242065069E+02  0.00000000000E+00 0. -1.
          1   -1    0    0  501    0  0.00000000000E+00 -0.00000000000E+00 -0.43063564890E+03  0.43063564890E+03  0.00000000000E+00 0. -1.
         36    2    1    2    0    0 -0.71054273576E-14  0.00000000000E+00 -0.38639358384E+03  0.47487771397E+03  0.27605948924E+03 0.  0.
         25    2    3    3    0    0 -0.15199034759E+02 -0.62982867924E+01 -0.29817005735E+03  0.31734642111E+03  0.10739035718E+03 0.  0.
         25    2    3    3    0    0  0.15199034759E+02  0.62982867924E+01 -0.88223526487E+02  0.15753129287E+03  0.12946829161E+03 0.  0.
          5    1    4    4  502    0  0.22207089233E+02 -0.36393154478E+02 -0.22921136201E+03  0.23318995471E+03  0.47000000000E+01 0.  1.
         -5    1    4    4    0  502 -0.37406123992E+02  0.30094867685E+02 -0.68958695343E+02  0.84156466398E+02  0.47000000000E+01 0.  1.
          5    1    5    5  503    0 -0.39021555129E+02  0.33434868489E+02 -0.81342758381E+02  0.96329157251E+02  0.47000000000E+01 0.  1.
         -5    1    5    5    0  503  0.54220589889E+02 -0.27136581696E+02 -0.68807681056E+01  0.61202135614E+02  0.47000000000E+01 0.  1.
<mgrwt>
<rscale>  0 0.27605949E+03</rscale>
<asrwt>0</asrwt>
<pdfrwt beam="1">  1        1 0.66251639E-01 0.27605949E+03</pdfrwt>
<pdfrwt beam="2">  1       -1 0.68064714E-02 0.27605949E+03</pdfrwt>
<totfact> 0.60374327E+03</totfact>
</mgrwt>
</event>
<event>
 9    1  0.2031653E-002  0.2774500E+03  0.7818608E-02  0.1097090E+00
          1   -1    0    0  501    0  0.00000000000E+00  0.00000000000E+00  0.11732998120E+04  0.11732998120E+04  0.00000000000E+00 0.  1.
         -1   -1    0    0    0  501 -0.00000000000E+00 -0.00000000000E+00 -0.16402136973E+02  0.16402136973E+02  0.00000000000E+00 0.  1.
         36    2    1    2    0    0 -0.14210854715E-13  0.00000000000E+00  0.11568976751E+04  0.11897019490E+04  0.27744998993E+03 0.  0.
         25    2    3    3    0    0 -0.54432999330E+02  0.12467179729E+01  0.64715547308E+03  0.66151532344E+03  0.12580862884E+03 0.  0.
         25    2    3    3    0    0  0.54432999330E+02 -0.12467179729E+01  0.50974220197E+03  0.52818662555E+03  0.12719863687E+03 0.  0.
          5    1    4    4  502    0 -0.45288740019E+02 -0.43363023941E+02  0.15547194962E+03  0.16770521440E+03  0.47000000000E+01 0.  1.
         -5    1    4    4    0  502 -0.91442593110E+01  0.44609741914E+02  0.49168352346E+03  0.49381010905E+03  0.47000000000E+01 0.  1.
          5    1    5    5  503    0  0.19526284994E+02  0.58693164524E+02  0.32344071815E+03  0.32933592504E+03  0.47000000000E+01 0.  1.
         -5    1    5    5    0  503  0.34906714336E+02 -0.59939882497E+02  0.18630148383E+03  0.19885070051E+03  0.47000000000E+01 0.  1.
<mgrwt>
<rscale>  0 0.27744999E+03</rscale>
<asrwt>0</asrwt>
<pdfrwt beam="1">  1        1 0.18050760E+00 0.27744999E+03</pdfrwt>
<pdfrwt beam="2">  1       -1 0.25234066E-02 0.27744999E+03</pdfrwt>
<totfact> 0.58247057E+03</totfact>
</mgrwt>
</event>
<event>
 9    1  0.2031653E-002  0.2720974E+03  0.7818608E-02  0.1100085E+00
         -2   -1    0    0    0  501 -0.00000000000E+00  0.00000000000E+00  0.42525937580E+02  0.42525937580E+02  0.00000000000E+00 0.  1.
          2   -1    0    0  501    0  0.00000000000E+00 -0.00000000000E+00 -0.43524598683E+03  0.43524598683E+03  0.00000000000E+00 0.  1.
         36    2    1    2    0    0  0.00000000000E+00  0.00000000000E+00 -0.39272004925E+03  0.47777192441E+03  0.27209736249E+03 0.  0.
         25    2    3    3    0    0  0.26916912743E+02 -0.16571774629E+02 -0.31584388450E+03  0.34052118536E+03  0.12328087604E+03 0.  0.
         25    2    3    3    0    0 -0.26916912743E+02  0.16571774629E+02 -0.76876164751E+02  0.13725073905E+03  0.10921848175E+03 0.  0.
          5    1    4    4  502    0 -0.31848548188E+01  0.44062028555E+02 -0.53487916415E+02  0.69531668058E+02  0.47000000000E+01 0. -1.
         -5    1    4    4    0  502  0.30101767562E+02 -0.60633803183E+02 -0.26235596808E+03  0.27098951730E+03  0.47000000000E+01 0. -1.
          5    1    5    5  503    0  0.13041126159E+02  0.55605208325E+02 -0.33580996616E+02  0.66421257878E+02  0.47000000000E+01 0.  1.
         -5    1    5    5    0  503 -0.39958038902E+02 -0.39033433697E+02 -0.43295168134E+02  0.70829481170E+02  0.47000000000E+01 0.  1.
<mgrwt>
<rscale>  0 0.27209736E+03</rscale>
<asrwt>0</asrwt>
<pdfrwt beam="1">  1        2 0.66960918E-01 0.27209736E+03</pdfrwt>
<pdfrwt beam="2">  1       -2 0.65424522E-02 0.27209736E+03</pdfrwt>
<totfact> 0.93479496E+03</totfact>
</mgrwt>
</event>
<event>
 9    1  0.2031653E-002  0.2758670E+03  0.7818608E-02  0.1097968E+00
          1   -1    0    0  501    0  0.00000000000E+00  0.00000000000E+00  0.96549173183E+03  0.96549173183E+03  0.00000000000E+00 0. -1.
         -1   -1    0    0    0  501 -0.00000000000E+00 -0.00000000000E+00 -0.19705660536E+02  0.19705660536E+02  0.00000000000E+00 0. -1.
         36    2    1    2    0    0  0.00000000000E+00 -0.71054273576E-14  0.94578607130E+03  0.98519739237E+03  0.27586701375E+03 0.  0.
         25    2    3    3    0    0  0.15576738853E+02 -0.50203595502E+02  0.36582719424E+03  0.39012527098E+03  0.12492059567E+03 0.  0.
         25    2    3    3    0    0 -0.15576738853E+02  0.50203595502E+02  0.57995887706E+03  0.59507212138E+03  0.12245609326E+03 0.  0.
          5    1    4    4  502    0 -0.43198800516E+02 -0.43729785107E+02  0.27367390530E+03  0.28053150788E+03  0.47000000000E+01 0.  1.
         -5    1    4    4    0  502  0.58775539369E+02 -0.64738103954E+01  0.92153288934E+02  0.10959376310E+03  0.47000000000E+01 0.  1.
          5    1    5    5  503    0 -0.38159412383E+02  0.26810804771E+02  0.71138998400E+02  0.85192764360E+02  0.47000000000E+01 0. -1.
         -5    1    5    5    0  503  0.22582673530E+02  0.23392790731E+02  0.50881987866E+03  0.50987935702E+03  0.47000000000E+01 0. -1.
<mgrwt>
<rscale>  0 0.27586701E+03</rscale>
<asrwt>0</asrwt>
<pdfrwt beam="1">  1        1 0.14853715E+00 0.27586701E+03</pdfrwt>
<pdfrwt beam="2">  1       -1 0.30316408E-02 0.27586701E+03</pdfrwt>
<totfact> 0.63031427E+03</totfact>
</mgrwt>
</event>
<event>
 9    1  0.2031653E-002  0.2759247E+03  0.7818608E-02  0.1097936E+00
          1   -1    0    0  501    0  0.00000000000E+00  0.00000000000E+00  0.29413709746E+03  0.29413709746E+03  0.00000000000E+00 0.  1.
         -1   -1    0    0    0  501 -0.00000000000E+00 -0.00000000000E+00 -0.64710006750E+02  0.64710006750E+02  0.00000000000E+00 0.  1.
         36    2    1    2    0    0 -0.35527136788E-14  0.35527136788E-14  0.22942709071E+03  0.35884710421E+03  0.27592472569E+03 0.  0.
         25    2    3    3    0    0 -0.22723003748E+02  0.13620932442E+02  0.18188026612E+03  0.22263378294E+03  0.12563242178E+03 0.  0.
         25    2    3    3    0    0  0.22723003748E+02 -0.13620932442E+02  0.47546824593E+02  0.13621332127E+03  0.12486594277E+03 0.  0.
          5    1    4    4  502    0 -0.51316473828E+01  0.41778028887E+02  0.50514351829E+01  0.42653774744E+02  0.47000000000E+01 0. -1.
         -5    1    4    4    0  502 -0.17591356365E+02 -0.28157096445E+02  0.17682883093E+03  0.17998000819E+03  0.47000000000E+01 0. -1.
          5    1    5    5  503    0 -0.11123274322E+02  0.44554790046E+01 -0.39191202682E+02  0.41250683539E+02  0.47000000000E+01 0. -1.
         -5    1    5    5    0  503  0.33846278070E+02 -0.18076411447E+02  0.86738027275E+02  0.94962637735E+02  0.47000000000E+01 0. -1.
<mgrwt>
<rscale>  0 0.27592473E+03</rscale>
<asrwt>0</asrwt>
<pdfrwt beam="1">  1        1 0.45251860E-01 0.27592473E+03</pdfrwt>
<pdfrwt beam="2">  1       -1 0.99553858E-02 0.27592473E+03</pdfrwt>
<totfact> 0.54791212E+03</totfact>
</mgrwt>
</event>
<event>
 9    1  0.2031653E-002  0.2750636E+03  0.7818608E-02  0.1098416E+00
         -1   -1    0    0    0  501 -0.00000000000E+00  0.00000000000E+00  0.10621342771E+03  0.10621342771E+03  0.00000000000E+00 0. -1.
          1   -1    0    0  501    0  0.00000000000E+00 -0.00000000000E+00 -0.17808477882E+03  0.17808477882E+03  0.00000000000E+00 0. -1.
         36    2    1    2    0    0  0.71054273576E-14 -0.14210854715E-13 -0.71871351110E+02  0.28429820653E+03  0.27506359106E+03 0.  0.
         25    2    3    3    0    0 -0.28828861218E+02  0.30792672438E+02 -0.25565785041E+02  0.14394441435E+03  0.13522977906E+03 0.  0.
         25    2    3    3    0    0  0.28828861218E+02 -0.30792672438E+02 -0.46305566069E+02  0.14035379217E+03  0.12560131215E+03 0.  0.
          5    1    4    4  502    0 -0.73659738591E+02  0.50898020967E+02 -0.29613880094E+02  0.94421594574E+02  0.47000000000E+01 0.  1.
         -5    1    4    4    0  502  0.44830877373E+02 -0.20105348529E+02  0.40480950533E+01  0.49522819781E+02  0.47000000000E+01 0.  1.
          5    1    5    5  503    0 -0.32607366174E+02 -0.56511469756E+02 -0.18087073477E+02  0.67867656286E+02  0.47000000000E+01 0.  1.
         -5    1    5    5    0  503  0.61436227392E+02  0.25718797319E+02 -0.28218492591E+02  0.72486135887E+02  0.47000000000E+01 0.  1.
<mgrwt>
<rscale>  0 0.27506359E+03</rscale>
<asrwt>0</asrwt>
<pdfrwt beam="1">  1        1 0.27397658E-01 0.27506359E+03</pdfrwt>
<pdfrwt beam="2">  1       -1 0.16340527E-01 0.27506359E+03</pdfrwt>
<totfact> 0.47324994E+03</totfact>
</mgrwt>
</event>
<event>
 9    1  0.2031653E-002  0.2724940E+03  0.7818608E-02  0.1099861E+00
          2   -1    0    0  501    0  0.00000000000E+00  0.00000000000E+00  0.14230399352E+04  0.14230399352E+04  0.00000000000E+00 0.  1.
         -2   -1    0    0    0  501 -0.00000000000E+00 -0.00000000000E+00 -0.13044785557E+02  0.13044785557E+02  0.00000000000E+00 0.  1.
         36    2    1    2    0    0 -0.35527136788E-14  0.00000000000E+00  0.14099951496E+04  0.14360847208E+04  0.27249404246E+03 0.  0.
         25    2    3    3    0    0  0.23532224925E+02  0.54963154796E+02  0.76145953659E+03  0.77325534482E+03  0.12053417952E+03 0.  0.
         25    2    3    3    0    0 -0.23532224925E+02 -0.54963154796E+02  0.64853561305E+03  0.66282937594E+03  0.12316503649E+03 0.  0.
          5    1    4    4  502    0  0.31218352654E+02  0.86357775841E+02  0.40518191854E+03  0.41548372784E+03  0.47000000000E+01 0. -1.
         -5    1    4    4    0  502 -0.76861277293E+01 -0.31394621044E+02  0.35627761806E+03  0.35777161698E+03  0.47000000000E+01 0. -1.
          5    1    5    5  503    0 -0.35498911723E+02 -0.37962122689E+02  0.63592643662E+03  0.63806411769E+03  0.47000000000E+01 0. -1.
         -5    1    5    5    0  503  0.11966686798E+02 -0.17001032108E+02  0.12609176430E+02  0.24765258244E+02  0.47000000000E+01 0. -1.
<mgrwt>
<rscale>  0 0.27249404E+03</rscale>
<asrwt>0</asrwt>
<pdfrwt beam="1">  1        2 0.21892910E+00 0.27249404E+03</pdfrwt>
<pdfrwt beam="2">  1       -2 0.20068912E-02 0.27249404E+03</pdfrwt>
<totfact> 0.11542574E+04</totfact>
</mgrwt>
</event>
<event>
 9    1  0.2031653E-002  0.2754943E+03  0.7818608E-02  0.1098176E+00
         -2   -1    0    0    0  501 -0.00000000000E+00  0.00000000000E+00  0.16327939217E+02  0.16327939217E+02  0.00000000000E+00 0.  1.
          2   -1    0    0  501    0  0.00000000000E+00 -0.00000000000E+00 -0.11620739496E+04  0.11620739496E+04  0.00000000000E+00 0.  1.
         36    2    1    2    0    0 -0.14210854715E-13  0.00000000000E+00 -0.11457460103E+04  0.11784018888E+04  0.27549426719E+03 0.  0.
         25    2    3    3    0    0 -0.66506483486E+02  0.10448389711E+02 -0.55714507908E+03  0.57591895474E+03  0.12938207796E+03 0.  0.
         25    2    3    3    0    0  0.66506483486E+02 -0.10448389711E+02 -0.58860093127E+03  0.60248293404E+03  0.10955522955E+03 0.  0.
          5    1    4    4  502    0 -0.10324358537E+03  0.20883044312E+02 -0.36327748492E+03  0.37826969282E+03  0.47000000000E+01 0. -1.
         -5    1    4    4    0  502  0.36737101888E+02 -0.10434654601E+02 -0.19386759416E+03  0.19764926192E+03  0.47000000000E+01 0. -1.
          5    1    5    5  503    0  0.78745303067E+02  0.26969317175E+02 -0.30754671821E+03  0.31864594883E+03  0.47000000000E+01 0. -1.
         -5    1    5    5    0  503 -0.12238819581E+02 -0.37417706886E+02 -0.28105421306E+03  0.28383698521E+03  0.47000000000E+01 0. -1.
<mgrwt>
<rscale>  0 0.27549427E+03</rscale>
<asrwt>0</asrwt>
<pdfrwt beam="1">  1        2 0.17878066E+00 0.27549427E+03</pdfrwt>
<pdfrwt beam="2">  1       -2 0.25119899E-02 0.27549427E+03</pdfrwt>
<totfact> 0.11577049E+04</totfact>
</mgrwt>
</event>
<event>
 9    1  0.2031653E-002  0.2741385E+03  0.7818608E-02  0.1098934E+00
          2   -1    0    0  501    0  0.00000000000E+00  0.00000000000E+00  0.91144939892E+03  0.91144939892E+03  0.00000000000E+00 0. -1.
         -2   -1    0    0    0  501 -0.00000000000E+00 -0.00000000000E+00 -0.20613306679E+02  0.20613306679E+02  0.00000000000E+00 0. -1.
         36    2    1    2    0    0  0.53290705182E-14 -0.14210854715E-13  0.89083609224E+03  0.93206270560E+03  0.27413854879E+03 0.  0.
         25    2    3    3    0    0 -0.12095928160E+02  0.51998128662E+02  0.37733282411E+03  0.40153156235E+03  0.12648090190E+03 0.  0.
         25    2    3    3    0    0  0.12095928160E+02 -0.51998128662E+02  0.51350326813E+03  0.53053114325E+03  0.12217843803E+03 0.  0.
          5    1    4    4  502    0  0.50649374516E+02  0.27491278510E+01  0.21014236685E+03  0.21622863175E+03  0.47000000000E+01 0.  1.
         -5    1    4    4    0  502 -0.62745302676E+02  0.49249000811E+02  0.16719045726E+03  0.18530293060E+03  0.47000000000E+01 0.  1.
          5    1    5    5  503    0 -0.11915467798E+02 -0.59147775876E+02  0.49583885755E+03  0.49951846855E+03  0.47000000000E+01 0. -1.
         -5    1    5    5    0  503  0.24011395958E+02  0.71496472139E+01  0.17664410576E+02  0.31012674701E+02  0.47000000000E+01 0. -1.
<mgrwt>
<rscale>  0 0.27413855E+03</rscale>
<asrwt>0</asrwt>
<pdfrwt beam="1">  1        2 0.14022295E+00 0.27413855E+03</pdfrwt>
<pdfrwt beam="2">  1       -2 0.31712787E-02 0.27413855E+03</pdfrwt>
<totfact> 0.11605477E+04</totfact>
</mgrwt>
</event>
<event>
 9    1  0.2031653E-002  0.2743444E+03  0.7818608E-02  0.1098819E+00
         -2   -1    0    0    0  501 -0.00000000000E+00  0.00000000000E+00  0.13038686128E+02  0.13038686128E+02  0.00000000000E+00 0.  1.
          2   -1    0    0  501    0  0.00000000000E+00 -0.00000000000E+00 -0.14431065265E+04  0.14431065265E+04  0.00000000000E+00 0.  1.
         36    2    1    2    0    0 -0.71054273576E-14 -0.71054273576E-14 -0.14300678404E+04  0.14561452127E+04  0.27434440434E+03 0.  0.
         25    2    3    3    0    0  0.54389367825E+02  0.18645854386E+02 -0.69567447381E+03  0.70892614481E+03  0.12372321556E+03 0.  0.
         25    2    3    3    0    0 -0.54389367825E+02 -0.18645854386E+02 -0.73439336659E+03  0.74721906784E+03  0.12528705935E+03 0.  0.
          5    1    4    4  502    0 -0.32692225560E+02  0.28334558157E+02 -0.33077203192E+03  0.33362232524E+03  0.47000000000E+01 0.  1.
         -5    1    4    4    0  502  0.87081593385E+02 -0.96887037708E+01 -0.36490244189E+03  0.37530381957E+03  0.47000000000E+01 0.  1.
          5    1    5    5  503    0  0.14353294523E+02  0.19436362859E+02 -0.48655524666E+03  0.48717747004E+03  0.47000000000E+01 0. -1.
         -5    1    5    5    0  503 -0.68742662348E+02 -0.38082217245E+02 -0.24783811993E+03  0.26004159780E+03  0.47000000000E+01 0. -1.
<mgrwt>
<rscale>  0 0.27434440E+03</rscale>
<asrwt>0</asrwt>
<pdfrwt beam="1">  1        2 0.22201621E+00 0.27434440E+03</pdfrwt>
<pdfrwt beam="2">  1       -2 0.20059533E-02 0.27434440E+03</pdfrwt>
<totfact> 0.11267599E+04</totfact>
</mgrwt>
</event>
<event>
 9    1  0.2031653E-002  0.2747128E+03  0.7818608E-02  0.1098612E+00
         -4   -1    0    0    0  501 -0.00000000000E+00  0.00000000000E+00  0.50793767575E+02  0.50793767575E+02  0.00000000000E+00 0. -1.
          4   -1    0    0  501    0  0.00000000000E+00 -0.00000000000E+00 -0.37143902220E+03  0.37143902220E+03  0.00000000000E+00 0. -1.
         36    2    1    2    0    0  0.00000000000E+00  0.00000000000E+00 -0.32064525463E+03  0.42223278978E+03  0.27471284908E+03 0.  0.
         25    2    3    3    0    0  0.35836276420E+02 -0.95494987539E+01 -0.10210069707E+03  0.16726769121E+03  0.12719471902E+03 0.  0.
         25    2    3    3    0    0 -0.35836276420E+02  0.95494987539E+01 -0.21854455756E+03  0.25496509857E+03  0.12597637166E+03 0.  0.
          5    1    4    4  502    0  0.60358617628E+02 -0.45615692008E+02 -0.97000805270E+02  0.12310645922E+03  0.47000000000E+01 0.  1.
         -5    1    4    4    0  502 -0.24522341208E+02  0.36066193254E+02 -0.50998917976E+01  0.44161231985E+02  0.47000000000E+01 0.  1.
          5    1    5    5  503    0 -0.34270771523E+02  0.59454900304E+02 -0.17681554368E+03  0.18972400332E+03  0.47000000000E+01 0.  1.
         -5    1    5    5    0  503 -0.15655048966E+01 -0.49905401550E+02 -0.41729013884E+02  0.65241095248E+02  0.47000000000E+01 0.  1.
<mgrwt>
<rscale>  0 0.27471285E+03</rscale>
<asrwt>0</asrwt>
<pdfrwt beam="1">  1        4 0.57144467E-01 0.27471285E+03</pdfrwt>
<pdfrwt beam="2">  1       -4 0.78144255E-02 0.27471285E+03</pdfrwt>
<totfact> 0.63258982E+02</totfact>
</mgrwt>
</event>
<event>
 9    1  0.2031653E-002  0.2746642E+03  0.7818608E-02  0.1098639E+00
          2   -1    0    0  501    0  0.00000000000E+00  0.00000000000E+00  0.78008506570E+03  0.78008506570E+03  0.00000000000E+00 0.  1.
         -2   -1    0    0    0  501 -0.00000000000E+00 -0.00000000000E+00 -0.24176989629E+02  0.24176989629E+02  0.00000000000E+00 0.  1.
         36    2    1    2    0    0  0.00000000000E+00  0.00000000000E+00  0.75590807607E+03  0.80426205533E+03  0.27466422077E+03 0.  0.
         25    2    3    3    0    0  0.20841856730E+02 -0.42380894613E+02  0.34068694714E+03  0.36846334246E+03  0.13216321561E+03 0.  0.
         25    2    3    3    0    0 -0.20841856730E+02  0.42380894613E+02  0.41522112893E+03  0.43579871287E+03  0.12361799631E+03 0.  0.
          5    1    4    4  502    0  0.12327513830E+02 -0.15518589657E+02 -0.55011098062E+01  0.21098493578E+02  0.47000000000E+01 0.  1.
         -5    1    4    4    0  502  0.85143429002E+01 -0.26862304955E+02  0.34618805695E+03  0.34736484888E+03  0.47000000000E+01 0.  1.
          5    1    5    5  503    0 -0.14893801258E+02  0.12412381964E+02  0.52950429024E+00  0.19956525668E+02  0.47000000000E+01 0. -1.
         -5    1    5    5    0  503 -0.59480554720E+01  0.29968512648E+02  0.41469162464E+03  0.41584218720E+03  0.47000000000E+01 0. -1.
<mgrwt>
<rscale>  0 0.27466422E+03</rscale>
<asrwt>0</asrwt>
<pdfrwt beam="1">  1        2 0.12001307E+00 0.27466422E+03</pdfrwt>
<pdfrwt beam="2">  1       -2 0.37195375E-02 0.27466422E+03</pdfrwt>
<totfact> 0.11197076E+04</totfact>
</mgrwt>
</event>
<event>
 9    1  0.2031653E-002  0.2733600E+03  0.7818608E-02  0.1099372E+00
         -1   -1    0    0    0  501 -0.00000000000E+00  0.00000000000E+00  0.10892311528E+03  0.10892311528E+03  0.00000000000E+00 0.  1.
          1   -1    0    0  501    0  0.00000000000E+00 -0.00000000000E+00 -0.17151022207E+03  0.17151022207E+03  0.00000000000E+00 0.  1.
         36    2    1    2    0    0 -0.71054273576E-14  0.00000000000E+00 -0.62587106790E+02  0.28043333735E+03  0.27336003870E+03 0.  0.
         25    2    3    3    0    0 -0.52855439509E+02 -0.96787771305E+01 -0.20038772487E+02  0.13990566513E+03  0.12761138868E+03 0.  0.
         25    2    3    3    0    0  0.52855439509E+02  0.96787771305E+01 -0.42548334303E+02  0.14052767222E+03  0.12267962217E+03 0.  0.
          5    1    4    4  502    0  0.18583324976E+02 -0.49053961266E+02 -0.24481775863E+02  0.58078209618E+02  0.47000000000E+01 0. -1.
         -5    1    4    4    0  502 -0.71438764485E+02  0.39375184135E+02  0.44430033754E+01  0.81827455514E+02  0.47000000000E+01 0. -1.
          5    1    5    5  503    0  0.54260287335E+02  0.68177779886E+00 -0.82735253956E+02  0.99054812350E+02  0.47000000000E+01 0. -1.
         -5    1    5    5    0  503 -0.14048478258E+01  0.89969993316E+01  0.40186919653E+02  0.41472859868E+02  0.47000000000E+01 0. -1.
<mgrwt>
<rscale>  0 0.27336004E+03</rscale>
<asrwt>0</asrwt>
<pdfrwt beam="1">  1        1 0.26386188E-01 0.27336004E+03</pdfrwt>
<pdfrwt beam="2">  1       -1 0.16757402E-01 0.27336004E+03</pdfrwt>
<totfact> 0.47668393E+03</totfact>
</mgrwt>
</event>
<event>
 9    1  0.2031653E-002  0.2746858E+03  0.7818608E-02  0.1098627E+00
          2   -1    0    0  501    0  0.00000000000E+00  0.00000000000E+00  0.53937978217E+03  0.53937978217E+03  0.00000000000E+00 0.  1.
         -2   -1    0    0    0  501 -0.00000000000E+00 -0.00000000000E+00 -0.34971793062E+02  0.34971793062E+02  0.00000000000E+00 0.  1.
         36    2    1    2    0    0  0.00000000000E+00 -0.71054273576E-14  0.50440798911E+03  0.57435157523E+03  0.27468584327E+03 0.  0.
         25    2    3    3    0    0  0.13107232886E+02 -0.15306435642E+02  0.31153611673E+03  0.34350999084E+03  0.14331181129E+03 0.  0.
         25    2    3    3    0    0 -0.13107232886E+02  0.15306435642E+02  0.19287187238E+03  0.23084158439E+03  0.12522855666E+03 0.  0.
          5    1    4    4  502    0  0.27391189259E+02 -0.19063497729E+02  0.21864225280E+01  0.33772246567E+02  0.47000000000E+01 0. -1.
         -5    1    4    4    0  502 -0.14283956373E+02  0.37570620877E+01  0.30934969420E+03  0.30973774427E+03  0.47000000000E+01 0. -1.
          5    1    5    5  503    0  0.17088601335E+02  0.64085035912E+02  0.12708444001E+03  0.14342753228E+03  0.47000000000E+01 0.  1.
         -5    1    5    5    0  503 -0.30195834221E+02 -0.48778600270E+02  0.65787432363E+02  0.87414052105E+02  0.47000000000E+01 0.  1.
<mgrwt>
<rscale>  0 0.27468584E+03</rscale>
<asrwt>0</asrwt>
<pdfrwt beam="1">  1        2 0.82981499E-01 0.27468584E+03</pdfrwt>
<pdfrwt beam="2">  1       -2 0.53802763E-02 0.27468584E+03</pdfrwt>
<totfact> 0.99392121E+03</totfact>
</mgrwt>
</event>
<event>
 9    1  0.2031653E-002  0.2748617E+03  0.7818608E-02  0.1098529E+00
          1   -1    0    0  501    0  0.00000000000E+00  0.00000000000E+00  0.64135399181E+03  0.64135399181E+03  0.00000000000E+00 0. -1.
         -1   -1    0    0    0  501 -0.00000000000E+00 -0.00000000000E+00 -0.29449005814E+02  0.29449005814E+02  0.00000000000E+00 0. -1.
         36    2    1    2    0    0 -0.71054273576E-14 -0.71054273576E-14  0.61190498600E+03  0.67080299762E+03  0.27486169201E+03 0.  0.
         25    2    3    3    0    0 -0.59297257912E+02 -0.21341727733E+01  0.23297451138E+03  0.26846941682E+03  0.11949052401E+03 0.  0.
         25    2    3    3    0    0  0.59297257912E+02  0.21341727733E+01  0.37893047462E+03  0.40233358080E+03  0.12150426395E+03 0.  0.
          5    1    4    4  502    0 -0.13306123767E+02  0.46057974088E+02  0.35025333446E+02  0.59558827135E+02  0.47000000000E+01 0.  1.
         -5    1    4    4    0  502 -0.45991134145E+02 -0.48192146861E+02  0.19794917793E+03  0.20891058969E+03  0.47000000000E+01 0.  1.
          5    1    5    5  503    0  0.63805483980E+02 -0.45008645454E+02  0.30119549029E+03  0.31118761435E+03  0.47000000000E+01 0. -1.
         -5    1    5    5    0  503 -0.45082260676E+01  0.47142818228E+02  0.77734984331E+02  0.91145966458E+02  0.47000000000E+01 0. -1.
<mgrwt>
<rscale>  0 0.27486169E+03</rscale>
<asrwt>0</asrwt>
<pdfrwt beam="1">  1        1 0.98669834E-01 0.27486169E+03</pdfrwt>
<pdfrwt beam="2">  1       -1 0.45306168E-02 0.27486169E+03</pdfrwt>
<totfact> 0.65105609E+03</totfact>
</mgrwt>
</event>
<event>
 9    1  0.2031653E-002  0.2752681E+03  0.7818608E-02  0.1098302E+00
          1   -1    0    0  501    0  0.00000000000E+00  0.00000000000E+00  0.42370246170E+03  0.42370246170E+03  0.00000000000E+00 0.  1.
         -1   -1    0    0    0  501 -0.00000000000E+00 -0.00000000000E+00 -0.44708574831E+02  0.44708574831E+02  0.00000000000E+00 0.  1.
         36    2    1    2    0    0 -0.71054273576E-14 -0.35527136788E-14  0.37899388687E+03  0.46841103653E+03  0.27526811087E+03 0.  0.
         25    2    3    3    0    0 -0.43708080842E+02  0.22978716120E+02  0.12082254601E+03  0.17462622316E+03  0.11600781209E+03 0.  0.
         25    2    3    3    0    0  0.43708080842E+02 -0.22978716120E+02  0.25817134086E+03  0.29378481337E+03  0.13121988263E+03 0.  0.
          5    1    4    4  502    0 -0.74823469540E+02  0.12300698661E+02  0.37096040746E+02  0.84546230079E+02  0.47000000000E+01 0. -1.
         -5    1    4    4    0  502  0.31115388697E+02  0.10678017459E+02  0.83726505260E+02  0.90079993082E+02  0.47000000000E+01 0. -1.
          5    1    5    5  503    0  0.23282985246E+02  0.83557976826E+00 -0.84936815062E+01  0.25239418002E+02  0.47000000000E+01 0.  1.
         -5    1    5    5    0  503  0.20425095596E+02 -0.23814295888E+02  0.26666502237E+03  0.26854539537E+03  0.47000000000E+01 0.  1.
<mgrwt>
<rscale>  0 0.27526811E+03</rscale>
<asrwt>0</asrwt>
<pdfrwt beam="1">  1        1 0.65184992E-01 0.27526811E+03</pdfrwt>
<pdfrwt beam="2">  1       -1 0.68782426E-02 0.27526811E+03</pdfrwt>
<totfact> 0.60676831E+03</totfact>
</mgrwt>
</event>
<event>
 9    1  0.2031653E-002  0.2894307E+03  0.7818608E-02  0.1090647E+00
          2   -1    0    0  501    0  0.00000000000E+00  0.00000000000E+00  0.71925703629E+03  0.71925703629E+03  0.00000000000E+00 0.  1.
         -2   -1    0    0    0  501 -0.00000000000E+00 -0.00000000000E+00 -0.29116888816E+02  0.29116888816E+02  0.00000000000E+00 0.  1.
         36    2    1    2    0    0  0.17763568394E-14  0.00000000000E+00  0.69014014747E+03  0.74837392511E+03  0.28943066289E+03 0.  0.
         25    2    3    3    0    0  0.80335725894E+01 -0.63672411346E+02  0.34981573010E+03  0.37810665227E+03  0.12835451379E+03 0.  0.
         25    2    3    3    0    0 -0.80335725894E+01  0.63672411346E+02  0.34032441737E+03  0.37026727283E+03  0.13099019054E+03 0.  0.
          5    1    4    4  502    0 -0.27780789370E+02 -0.11641492298E+01  0.26597698067E+03  0.26746770225E+03  0.47000000000E+01 0.  1.
         -5    1    4    4    0  502  0.35814361959E+02 -0.62508262116E+02  0.83838749437E+02  0.11063895002E+03  0.47000000000E+01 0.  1.
          5    1    5    5  503    0  0.10412102234E+02 -0.11916849251E+02  0.25169828687E+03  0.25223905483E+03  0.47000000000E+01 0.  1.
         -5    1    5    5    0  503 -0.18445674824E+02  0.75589260597E+02  0.88626130501E+02  0.11802821800E+03  0.47000000000E+01 0.  1.
<mgrwt>
<rscale>  0 0.28943066E+03</rscale>
<asrwt>0</asrwt>
<pdfrwt beam="1">  1        2 0.11065491E+00 0.28943066E+03</pdfrwt>
<pdfrwt beam="2">  1       -2 0.44795219E-02 0.28943066E+03</pdfrwt>
<totfact> 0.93764821E+03</totfact>
</mgrwt>
</event>
<event>
 9    1  0.2031653E-002  0.2747948E+03  0.7818608E-02  0.1098566E+00
          2   -1    0    0  501    0  0.00000000000E+00  0.00000000000E+00  0.66199500839E+02  0.66199500839E+02  0.00000000000E+00 0. -1.
         -2   -1    0    0    0  501 -0.00000000000E+00 -0.00000000000E+00 -0.28516896718E+03  0.28516896718E+03  0.00000000000E+00 0. -1.
         36    2    1    2    0    0 -0.53290705182E-14  0.00000000000E+00 -0.21896946634E+03  0.35136846802E+03  0.27479478366E+03 0.  0.
         25    2    3    3    0    0 -0.76783099891E+01 -0.20422700230E+02 -0.16937775906E+03  0.21316786530E+03  0.12757613572E+03 0.  0.
         25    2    3    3    0    0  0.76783099891E+01  0.20422700230E+02 -0.49591707288E+02  0.13820060272E+03  0.12713782298E+03 0.  0.
          5    1    4    4  502    0  0.42291957896E+01 -0.55655928925E+02 -0.20506780037E+02  0.59649698650E+02  0.47000000000E+01 0. -1.
         -5    1    4    4    0  502 -0.11907505779E+02  0.35233228695E+02 -0.14887097902E+03  0.15351816665E+03  0.47000000000E+01 0. -1.
          5    1    5    5  503    0 -0.59390974256E+02  0.43328019568E+01 -0.19895873660E+02  0.62960279419E+02  0.47000000000E+01 0. -1.
         -5    1    5    5    0  503  0.67069284245E+02  0.16089898273E+02 -0.29695833629E+02  0.75240323301E+02  0.47000000000E+01 0. -1.
<mgrwt>
<rscale>  0 0.27479478E+03</rscale>
<asrwt>0</asrwt>
<pdfrwt beam="1">  1        2 0.10184539E-01 0.27479478E+03</pdfrwt>
<pdfrwt beam="2">  1       -2 0.43872148E-01 0.27479478E+03</pdfrwt>
<totfact> 0.31053435E+03</totfact>
</mgrwt>
</event>
<event>
 9    1  0.2031653E-002  0.2749507E+03  0.7818608E-02  0.1098479E+00
          2   -1    0    0  501    0  0.00000000000E+00  0.00000000000E+00  0.34987292860E+04  0.34987292860E+04  0.00000000000E+00 0. -1.
         -2   -1    0    0    0  501 -0.00000000000E+00 -0.00000000000E+00 -0.54018087500E+01  0.54018087500E+01  0.00000000000E+00 0. -1.
         36    2    1    2    0    0 -0.35527136788E-14  0.00000000000E+00  0.34933274773E+04  0.35041310948E+04  0.27495066082E+03 0.  0.
         25    2    3    3    0    0 -0.19754603461E+02 -0.47193468837E+02  0.21249153489E+04  0.21294024252E+04  0.12834321435E+03 0.  0.
         25    2    3    3    0    0  0.19754603461E+02  0.47193468837E+02  0.13684121284E+04  0.13747286696E+04  0.12128352717E+03 0.  0.
          5    1    4    4  502    0 -0.36377480060E+02 -0.79980334811E+02  0.18378091476E+04  0.18399143263E+04  0.47000000000E+01 0. -1.
         -5    1    4    4    0  502  0.16622876599E+02  0.32786865973E+02  0.28710620132E+03  0.28948809897E+03  0.47000000000E+01 0. -1.
          5    1    5    5  503    0  0.86496057626E+01  0.29706086522E+02  0.76656606463E+02  0.82798505848E+02  0.47000000000E+01 0.  1.
         -5    1    5    5    0  503  0.11104997699E+02  0.17487382316E+02  0.12917555219E+04  0.12919301637E+04  0.47000000000E+01 0.  1.
<mgrwt>
<rscale>  0 0.27495066E+03</rscale>
<asrwt>0</asrwt>
<pdfrwt beam="1">  1        2 0.53826423E+00 0.27495066E+03</pdfrwt>
<pdfrwt beam="2">  1       -2 0.83105030E-03 0.27495066E+03</pdfrwt>
<totfact> 0.28341299E+03</totfact>
</mgrwt>
</event>
<event>
 9    1  0.2031653E-002  0.2743494E+03  0.7818608E-02  0.1098816E+00
         -2   -1    0    0    0  501 -0.00000000000E+00  0.00000000000E+00  0.32180811782E+02  0.32180811782E+02  0.00000000000E+00 0. -1.
          2   -1    0    0  501    0  0.00000000000E+00 -0.00000000000E+00 -0.58472402372E+03  0.58472402372E+03  0.00000000000E+00 0. -1.
         36    2    1    2    0    0  0.00000000000E+00  0.00000000000E+00 -0.55254321194E+03  0.61690483550E+03  0.27434936670E+03 0.  0.
         25    2    3    3    0    0  0.37131903968E+02 -0.25463361549E+02 -0.36257203179E+03  0.38613308225E+03  0.12495246256E+03 0.  0.
         25    2    3    3    0    0 -0.37131903968E+02  0.25463361549E+02 -0.18997118015E+03  0.23077175325E+03  0.12304223558E+03 0.  0.
          5    1    4    4  502    0  0.22003519885E+02  0.50360094869E+02 -0.16128430434E+03  0.17045530461E+03  0.47000000000E+01 0. -1.
         -5    1    4    4    0  502  0.15128384084E+02 -0.75823456418E+02 -0.20128772744E+03  0.21567777764E+03  0.47000000000E+01 0. -1.
          5    1    5    5  503    0  0.23439857217E+02 -0.29621877646E+02 -0.10928813412E+03  0.11572756284E+03  0.47000000000E+01 0. -1.
         -5    1    5    5    0  503 -0.60571761185E+02  0.55085239195E+02 -0.80683046025E+02  0.11504419041E+03  0.47000000000E+01 0. -1.
<mgrwt>
<rscale>  0 0.27434937E+03</rscale>
<asrwt>0</asrwt>
<pdfrwt beam="1">  1        2 0.89957542E-01 0.27434937E+03</pdfrwt>
<pdfrwt beam="2">  1       -2 0.49508941E-02 0.27434937E+03</pdfrwt>
<totfact> 0.10285154E+04</totfact>
</mgrwt>
</event>
<event>
 9    1  0.2031653E-002  0.2749184E+03  0.7818608E-02  0.1098497E+00
         -2   -1    0    0    0  501 -0.00000000000E+00  0.00000000000E+00  0.15084565108E+02  0.15084565108E+02  0.00000000000E+00 0.  1.
          2   -1    0    0  501    0  0.00000000000E+00 -0.00000000000E+00 -0.12526068706E+04  0.12526068706E+04  0.00000000000E+00 0.  1.
         36    2    1    2    0    0  0.00000000000E+00  0.00000000000E+00 -0.12375223055E+04  0.12676914357E+04  0.27491838712E+03 0.  0.
         25    2    3    3    0    0 -0.17669160964E+02 -0.12435114206E+00 -0.74642596383E+03  0.75906037179E+03  0.13677980057E+03 0.  0.
         25    2    3    3    0    0  0.17669160964E+02  0.12435114206E+00 -0.49109634164E+03  0.50863106389E+03  0.13121633918E+03 0.  0.
          5    1    4    4  502    0 -0.91378415087E+00 -0.51594404920E+02 -0.61024564175E+03  0.61244154896E+03  0.47000000000E+01 0.  1.
         -5    1    4    4    0  502 -0.16755376813E+02  0.51470053778E+02 -0.13618032208E+03  0.14661882283E+03  0.47000000000E+01 0.  1.
          5    1    5    5  503    0 -0.54372452750E+02 -0.16098652990E+02 -0.17628192981E+03  0.18523752056E+03  0.47000000000E+01 0. -1.
         -5    1    5    5    0  503  0.72041613713E+02  0.16223004132E+02 -0.31481441183E+03  0.32339354332E+03  0.47000000000E+01 0. -1.
<mgrwt>
<rscale>  0 0.27491839E+03</rscale>
<asrwt>0</asrwt>
<pdfrwt beam="1">  1        2 0.19270881E+00 0.27491839E+03</pdfrwt>
<pdfrwt beam="2">  1       -2 0.23207016E-02 0.27491839E+03</pdfrwt>
<totfact> 0.11563194E+04</totfact>
</mgrwt>
</event>
<event>
 9    1  0.2031653E-002  0.2749546E+03  0.7818608E-02  0.1098477E+00
         -2   -1    0    0    0  501 -0.00000000000E+00  0.00000000000E+00  0.13892771481E+03  0.13892771481E+03  0.00000000000E+00 0.  1.
          2   -1    0    0  501    0  0.00000000000E+00 -0.00000000000E+00 -0.13604197948E+03  0.13604197948E+03  0.00000000000E+00 0.  1.
         36    2    1    2    0    0  0.00000000000E+00  0.71054273576E-14  0.28857353286E+01  0.27496969429E+03  0.27495455135E+03 0.  0.
         25    2    3    3    0    0 -0.38440163334E+02 -0.33785011050E+02  0.62782900850E+01  0.13648273220E+03  0.12636869127E+03 0.  0.
         25    2    3    3    0    0  0.38440163334E+02  0.33785011050E+02 -0.33925547564E+01  0.13848696209E+03  0.12863924795E+03 0.  0.
          5    1    4    4  502    0 -0.65689118762E+02 -0.55117678547E+02 -0.25164966471E+02  0.89489576765E+02  0.47000000000E+01 0.  1.
         -5    1    4    4    0  502  0.27248955428E+02  0.21332667497E+02  0.31443256556E+02  0.46993155431E+02  0.47000000000E+01 0.  1.
          5    1    5    5  503    0  0.16007720462E+02 -0.10859419247E+02 -0.59776931920E+02  0.63004330728E+02  0.47000000000E+01 0.  1.
         -5    1    5    5    0  503  0.22432442871E+02  0.44644430297E+02  0.56384377163E+02  0.75482631365E+02  0.47000000000E+01 0.  1.
<mgrwt>
<rscale>  0 0.27495455E+03</rscale>
<asrwt>0</asrwt>
<pdfrwt beam="1">  1        2 0.20929535E-01 0.27495455E+03</pdfrwt>
<pdfrwt beam="2">  1       -2 0.21373495E-01 0.27495455E+03</pdfrwt>
<totfact> 0.49026041E+03</totfact>
</mgrwt>
</event>
<event>
 9    1  0.2031653E-002  0.2739877E+03  0.7818608E-02  0.1099019E+00
         -1   -1    0    0    0  501 -0.00000000000E+00  0.00000000000E+00  0.32737201129E+03  0.32737201129E+03  0.00000000000E+00 0.  1.
          1   -1    0    0  501    0  0.00000000000E+00 -0.00000000000E+00 -0.57327180403E+02  0.57327180403E+02  0.00000000000E+00 0.  1.
         36    2    1    2    0    0  0.00000000000E+00  0.35527136788E-14  0.27004483088E+03  0.38469919169E+03  0.27398769571E+03 0.  0.
         25    2    3    3    0    0  0.28979485957E+02 -0.18446943115E+02  0.70088788187E+02  0.14666120552E+03  0.12416509437E+03 0.  0.
         25    2    3    3    0    0 -0.28979485957E+02  0.18446943115E+02  0.19995604270E+03  0.23803798617E+03  0.12449724307E+03 0.  0.
          5    1    4    4  502    0 -0.39559242693E+01  0.31885753574E+02  0.79241487086E+02  0.85636755505E+02  0.47000000000E+01 0. -1.
         -5    1    4    4    0  502  0.32935410226E+02 -0.50332696688E+02 -0.91526988987E+01  0.61024450016E+02  0.47000000000E+01 0. -1.
          5    1    5    5  503    0 -0.46522580247E+02 -0.12779243697E+02  0.16722547534E+02  0.51277608548E+02  0.47000000000E+01 0. -1.
         -5    1    5    5    0  503  0.17543094290E+02  0.31226186812E+02  0.18323349516E+03  0.18676037762E+03  0.47000000000E+01 0. -1.
<mgrwt>
<rscale>  0 0.27398770E+03</rscale>
<asrwt>0</asrwt>
<pdfrwt beam="1">  1        1 0.88195664E-02 0.27398770E+03</pdfrwt>
<pdfrwt beam="2">  1       -1 0.50364924E-01 0.27398770E+03</pdfrwt>
<totfact> 0.30724478E+03</totfact>
</mgrwt>
</event>
<event>
 9    1  0.2031653E-002  0.2744631E+03  0.7818608E-02  0.1098752E+00
          1   -1    0    0  501    0  0.00000000000E+00  0.00000000000E+00  0.10583836144E+03  0.10583836144E+03  0.00000000000E+00 0. -1.
         -1   -1    0    0    0  501 -0.00000000000E+00 -0.00000000000E+00 -0.17793645420E+03  0.17793645420E+03  0.00000000000E+00 0. -1.
         36    2    1    2    0    0  0.00000000000E+00  0.00000000000E+00 -0.72098092768E+02  0.28377481564E+03  0.27446313234E+03 0.  0.
         25    2    3    3    0    0  0.44530905576E+02  0.13777598242E+02 -0.20775566754E+02  0.14199782251E+03  0.13251012663E+03 0.  0.
         25    2    3    3    0    0 -0.44530905576E+02 -0.13777598242E+02 -0.51322526014E+02  0.14177699313E+03  0.12366846946E+03 0.  0.
          5    1    4    4  502    0  0.48277616543E+02 -0.28271386123E+02 -0.61416239635E+02  0.83210840780E+02  0.47000000000E+01 0. -1.
         -5    1    4    4    0  502 -0.37467109672E+01  0.42048984365E+02  0.40640672881E+02  0.58786981735E+02  0.47000000000E+01 0. -1.
          5    1    5    5  503    0 -0.80695567589E+02  0.27120781928E+00 -0.61293640897E+02  0.10144381990E+03  0.47000000000E+01 0.  1.
         -5    1    5    5    0  503  0.36164662013E+02 -0.14048806062E+02  0.99711148829E+01  0.40333173224E+02  0.47000000000E+01 0.  1.
<mgrwt>
<rscale>  0 0.27446313E+03</rscale>
<asrwt>0</asrwt>
<pdfrwt beam="1">  1        1 0.16282825E-01 0.27446313E+03</pdfrwt>
<pdfrwt beam="2">  1       -1 0.27374839E-01 0.27446313E+03</pdfrwt>
<totfact> 0.39708871E+03</totfact>
</mgrwt>
</event>
<event>
 9    1  0.2031653E-002  0.2750630E+03  0.7818608E-02  0.1098416E+00
         -2   -1    0    0    0  501 -0.00000000000E+00  0.00000000000E+00  0.90840160829E+01  0.90840160829E+01  0.00000000000E+00 0.  1.
          2   -1    0    0  501    0  0.00000000000E+00 -0.00000000000E+00 -0.20822196566E+04  0.20822196566E+04  0.00000000000E+00 0.  1.
         36    2    1    2    0    0  0.00000000000E+00  0.14210854715E-13 -0.20731356405E+04  0.20913036727E+04  0.27506302441E+03 0.  0.
         25    2    3    3    0    0 -0.11054612558E+02  0.71226848866E+02 -0.10441996772E+04  0.10540954901E+04  0.12477526953E+03 0.  0.
         25    2    3    3    0    0  0.11054612558E+02 -0.71226848866E+02 -0.10289359633E+04  0.10372081826E+04  0.10906937696E+03 0.  0.
          5    1    4    4  502    0 -0.24945133940E+02 -0.31206379178E+02 -0.32855508604E+03  0.33100850800E+03  0.47000000000E+01 0.  1.
         -5    1    4    4    0  502  0.13890521382E+02  0.10243322804E+03 -0.71564459120E+03  0.72308698211E+03  0.47000000000E+01 0.  1.
          5    1    5    5  503    0 -0.26235004238E+02  0.19159225654E+02 -0.25031480514E+03  0.25245780448E+03  0.47000000000E+01 0.  1.
         -5    1    5    5    0  503  0.37289616796E+02 -0.90386074520E+02 -0.77862115818E+03  0.78475037811E+03  0.47000000000E+01 0.  1.
<mgrwt>
<rscale>  0 0.27506302E+03</rscale>
<asrwt>0</asrwt>
<pdfrwt beam="1">  1        2 0.32034199E+00 0.27506302E+03</pdfrwt>
<pdfrwt beam="2">  1       -2 0.13975387E-02 0.27506302E+03</pdfrwt>
<totfact> 0.87978143E+03</totfact>
</mgrwt>
</event>
<event>
 9    1  0.2031653E-002  0.2753100E+03  0.7818608E-02  0.1098278E+00
          1   -1    0    0  501    0  0.00000000000E+00  0.00000000000E+00  0.42751693216E+03  0.42751693216E+03  0.00000000000E+00 0. -1.
         -1   -1    0    0    0  501 -0.00000000000E+00 -0.00000000000E+00 -0.44323139196E+02  0.44323139196E+02  0.00000000000E+00 0. -1.
         36    2    1    2    0    0  0.35527136788E-14 -0.14210854715E-13  0.38319379297E+03  0.47184007136E+03  0.27530995255E+03 0.  0.
         25    2    3    3    0    0  0.22194466990E+02 -0.46507160935E+02  0.25688391575E+03  0.28865431245E+03  0.12114642192E+03 0.  0.
         25    2    3    3    0    0 -0.22194466990E+02  0.46507160935E+02  0.12630987722E+03  0.18318575891E+03  0.12225926059E+03 0.  0.
          5    1    4    4  502    0  0.87761652698E+01  0.14710899143E+02  0.20871821892E+03  0.20947271073E+03  0.47000000000E+01 0.  1.
         -5    1    4    4    0  502  0.13418301720E+02 -0.61218060079E+02  0.48165696826E+02  0.79181601724E+02  0.47000000000E+01 0.  1.
          5    1    5    5  503    0  0.20628753394E+02 -0.10765964728E+02  0.10610088268E+03  0.10872414069E+03  0.47000000000E+01 0.  1.
         -5    1    5    5    0  503 -0.42823220384E+02  0.57273125663E+02  0.20208994542E+02  0.74461618218E+02  0.47000000000E+01 0.  1.
<mgrwt>
<rscale>  0 0.27530995E+03</rscale>
<asrwt>0</asrwt>
<pdfrwt beam="1">  1        1 0.65771833E-01 0.27530995E+03</pdfrwt>
<pdfrwt beam="2">  1       -1 0.68189448E-02 0.27530995E+03</pdfrwt>
<totfact> 0.60770919E+03</totfact>
</mgrwt>
</event>
<event>
 9    1  0.2031653E-002  0.2753541E+03  0.7818608E-02  0.1098254E+00
          2   -1    0    0  501    0  0.00000000000E+00  0.00000000000E+00  0.12156788079E+04  0.12156788079E+04  0.00000000000E+00 0.  1.
         -2   -1    0    0    0  501 -0.00000000000E+00 -0.00000000000E+00 -0.15592091154E+02  0.15592091154E+02  0.00000000000E+00 0.  1.
         36    2    1    2    0    0  0.35527136788E-14  0.14210854715E-13  0.12000867168E+04  0.12312708991E+04  0.27535413407E+03 0.  0.
         25    2    3    3    0    0  0.19470653625E+02  0.39144004223E+02  0.50158341961E+03  0.52282933680E+03  0.14090148744E+03 0.  0.
         25    2    3    3    0    0 -0.19470653625E+02 -0.39144004223E+02  0.69850329718E+03  0.70844156231E+03  0.10986915679E+03 0.  0.
          5    1    4    4  502    0  0.15636601802E+02  0.69925979245E+02  0.11917677517E+03  0.13913784399E+03  0.47000000000E+01 0.  1.
         -5    1    4    4    0  502  0.38340518232E+01 -0.30781975022E+02  0.38240664444E+03  0.38369149281E+03  0.47000000000E+01 0.  1.
          5    1    5    5  503    0  0.70717361127E+01  0.36168245736E+02  0.26895006428E+03  0.27150391992E+03  0.47000000000E+01 0. -1.
         -5    1    5    5    0  503 -0.26542389738E+02 -0.75312249959E+02  0.42955323290E+03  0.43693764239E+03  0.47000000000E+01 0. -1.
<mgrwt>
<rscale>  0 0.27535413E+03</rscale>
<asrwt>0</asrwt>
<pdfrwt beam="1">  1        2 0.18702743E+00 0.27535413E+03</pdfrwt>
<pdfrwt beam="2">  1       -2 0.23987842E-02 0.27535413E+03</pdfrwt>
<totfact> 0.11551775E+04</totfact>
</mgrwt>
</event>
<event>
 9    1  0.2031653E-002  0.2748485E+03  0.7818608E-02  0.1098536E+00
          1   -1    0    0  501    0  0.00000000000E+00  0.00000000000E+00  0.14882124592E+03  0.14882124592E+03  0.00000000000E+00 0.  1.
         -1   -1    0    0    0  501 -0.00000000000E+00 -0.00000000000E+00 -0.12690006071E+03  0.12690006071E+03  0.00000000000E+00 0.  1.
         36    2    1    2    0    0 -0.71054273576E-14  0.00000000000E+00  0.21921185212E+02  0.27572130663E+03  0.27484850475E+03 0.  0.
         25    2    3    3    0    0 -0.18137504708E+02  0.37008753847E+02 -0.23794350917E+02  0.13479489897E+03  0.12611453808E+03 0.  0.
         25    2    3    3    0    0  0.18137504708E+02 -0.37008753847E+02  0.45715536129E+02  0.14092640765E+03  0.12677430809E+03 0.  0.
          5    1    4    4  502    0  0.10683178781E+02 -0.53193365555E+01  0.46196373498E+02  0.47943931573E+02  0.47000000000E+01 0. -1.
         -5    1    4    4    0  502 -0.28820683489E+02  0.42328090403E+02 -0.69990724415E+02  0.86850967398E+02  0.47000000000E+01 0. -1.
          5    1    5    5  503    0 -0.54270526334E+02 -0.24111634757E+02  0.18799629600E+02  0.62467407760E+02  0.47000000000E+01 0. -1.
         -5    1    5    5    0  503  0.72408031041E+02 -0.12897119090E+02  0.26915906529E+02  0.78458999894E+02  0.47000000000E+01 0. -1.
<mgrwt>
<rscale>  0 0.27484850E+03</rscale>
<asrwt>0</asrwt>
<pdfrwt beam="1">  1        1 0.22895576E-01 0.27484850E+03</pdfrwt>
<pdfrwt beam="2">  1       -1 0.19523086E-01 0.27484850E+03</pdfrwt>
<totfact> 0.44662387E+03</totfact>
</mgrwt>
</event>
<event>
 9    1  0.2031653E-002  0.2767372E+03  0.7818608E-02  0.1097484E+00
          2   -1    0    0  501    0  0.00000000000E+00  0.00000000000E+00  0.22184375065E+02  0.22184375065E+02  0.00000000000E+00 0.  1.
         -2   -1    0    0    0  501 -0.00000000000E+00 -0.00000000000E+00 -0.86303371630E+03  0.86303371630E+03  0.00000000000E+00 0.  1.
         36    2    1    2    0    0  0.00000000000E+00 -0.14210854715E-13 -0.84084934123E+03  0.88521809136E+03  0.27673715801E+03 0.  0.
         25    2    3    3    0    0 -0.71922254102E+01 -0.64175530833E+02 -0.38040596148E+03  0.40385194524E+03  0.11923703820E+03 0.  0.
         25    2    3    3    0    0  0.71922254102E+01  0.64175530833E+02 -0.46044337975E+03  0.48136614612E+03  0.12463961574E+03 0.  0.
          5    1    4    4  502    0 -0.27169832718E+02 -0.73888550145E+02 -0.12744072249E+03  0.14986976146E+03  0.47000000000E+01 0. -1.
         -5    1    4    4    0  502  0.19977607307E+02  0.97130193115E+01 -0.25296523899E+03  0.25398218377E+03  0.47000000000E+01 0. -1.
          5    1    5    5  503    0 -0.18659606099E+02  0.57609650168E+02 -0.44704026861E+03  0.45114758610E+03  0.47000000000E+01 0.  1.
         -5    1    5    5    0  503  0.25851831509E+02  0.65658806655E+01 -0.13403111147E+02  0.30218560020E+02  0.47000000000E+01 0.  1.
<mgrwt>
<rscale>  0 0.27673716E+03</rscale>
<asrwt>0</asrwt>
<pdfrwt beam="1">  1        2 0.34129806E-02 0.27673716E+03</pdfrwt>
<pdfrwt beam="2">  1       -2 0.13277443E+00 0.27673716E+03</pdfrwt>
<totfact> 0.11370184E+03</totfact>
</mgrwt>
</event>
<event>
 9    1  0.2031653E-002  0.2747001E+03  0.7818608E-02  0.1098619E+00
         -1   -1    0    0    0  501 -0.00000000000E+00  0.00000000000E+00  0.34374593186E+03  0.34374593186E+03  0.00000000000E+00 0.  1.
          1   -1    0    0  501    0  0.00000000000E+00 -0.00000000000E+00 -0.54880741236E+02  0.54880741236E+02  0.00000000000E+00 0.  1.
         36    2    1    2    0    0  0.00000000000E+00  0.35527136788E-14  0.28886519063E+03  0.39862667310E+03  0.27470006580E+03 0.  0.
         25    2    3    3    0    0 -0.42964425247E+00 -0.20939694054E+02  0.20471493862E+03  0.24738592439E+03  0.13730598717E+03 0.  0.
         25    2    3    3    0    0  0.42964425247E+00  0.20939694054E+02  0.84150252012E+02  0.15124074871E+03  0.12391062818E+03 0.  0.
          5    1    4    4  502    0 -0.37358204697E+02 -0.68522928459E+02  0.10746589426E+03  0.13289859146E+03  0.47000000000E+01 0. -1.
         -5    1    4    4    0  502  0.36928560445E+02  0.47583234405E+02  0.97249044355E+02  0.11448733293E+03  0.47000000000E+01 0. -1.
          5    1    5    5  503    0  0.42707565288E+02  0.31589163532E+02 -0.32808680690E+01  0.53429069623E+02  0.47000000000E+01 0. -1.
         -5    1    5    5    0  503 -0.42277921036E+02 -0.10649469479E+02  0.87431120081E+02  0.97811679087E+02  0.47000000000E+01 0. -1.
<mgrwt>
<rscale>  0 0.27470007E+03</rscale>
<asrwt>0</asrwt>
<pdfrwt beam="1">  1        1 0.84431912E-02 0.27470007E+03</pdfrwt>
<pdfrwt beam="2">  1       -1 0.52883988E-01 0.27470007E+03</pdfrwt>
<totfact> 0.29766626E+03</totfact>
</mgrwt>
</event>
<event>
 9    1  0.2031653E-002  0.2750593E+03  0.7818608E-02  0.1098418E+00
         -2   -1    0    0    0  501 -0.00000000000E+00  0.00000000000E+00  0.14056402225E+02  0.14056402225E+02  0.00000000000E+00 0. -1.
          2   -1    0    0  501    0  0.00000000000E+00 -0.00000000000E+00 -0.13456075296E+04  0.13456075296E+04  0.00000000000E+00 0. -1.
         36    2    1    2    0    0 -0.71054273576E-14 -0.14210854715E-13 -0.13315511274E+04  0.13596639319E+04  0.27505927124E+03 0.  0.
         25    2    3    3    0    0 -0.19017824487E+02 -0.57473264483E+02 -0.61388297588E+03  0.62828970964E+03  0.11929290581E+03 0.  0.
         25    2    3    3    0    0  0.19017824487E+02  0.57473264483E+02 -0.71766815152E+03  0.73137422222E+03  0.12726281248E+03 0.  0.
          5    1    4    4  502    0  0.31069878190E+02 -0.72720254770E+02 -0.31430768745E+03  0.32413729372E+03  0.47000000000E+01 0.  1.
         -5    1    4    4    0  502 -0.50087702678E+02  0.15246990287E+02 -0.29957528843E+03  0.30415241592E+03  0.47000000000E+01 0.  1.
          5    1    5    5  503    0  0.42838033135E+02 -0.11979976822E+02 -0.49169014233E+03  0.49372047050E+03  0.47000000000E+01 0. -1.
         -5    1    5    5    0  503 -0.23820208648E+02  0.69453241304E+02 -0.22597800920E+03  0.23765375172E+03  0.47000000000E+01 0. -1.
<mgrwt>
<rscale>  0 0.27505927E+03</rscale>
<asrwt>0</asrwt>
<pdfrwt beam="1">  1        2 0.20701655E+00 0.27505927E+03</pdfrwt>
<pdfrwt beam="2">  1       -2 0.21625234E-02 0.27505927E+03</pdfrwt>
<totfact> 0.11397073E+04</totfact>
</mgrwt>
</event>
<event>
 9    1  0.2031653E-002  0.2754644E+03  0.7818608E-02  0.1098192E+00
          1   -1    0    0  501    0  0.00000000000E+00  0.00000000000E+00  0.14669897642E+04  0.14669897642E+04  0.00000000000E+00 0.  1.
         -1   -1    0    0    0  501 -0.00000000000E+00 -0.00000000000E+00 -0.12931351256E+02  0.12931351256E+02  0.00000000000E+00 0.  1.
         36    2    1    2    0    0  0.71054273576E-14  0.00000000000E+00  0.14540584129E+04  0.14799211154E+04  0.27546440735E+03 0.  0.
         25    2    3    3    0    0  0.48242250355E+02  0.19291925191E+02  0.54111338830E+03  0.55752956693E+03  0.12383870925E+03 0.  0.
         25    2    3    3    0    0 -0.48242250355E+02 -0.19291925191E+02  0.91294502459E+03  0.92239154847E+03  0.12098784100E+03 0.  0.
          5    1    4    4  502    0 -0.19631850786E+01  0.38142770209E+02  0.48161564769E+02  0.61646989674E+02  0.47000000000E+01 0.  1.
         -5    1    4    4    0  502  0.50205435434E+02 -0.18850845017E+02  0.49295182353E+03  0.49588257726E+03  0.47000000000E+01 0.  1.
          5    1    5    5  503    0 -0.71370683007E+02  0.26338776428E+02  0.65179653745E+03  0.65623800695E+03  0.47000000000E+01 0. -1.
         -5    1    5    5    0  503  0.23128432652E+02 -0.45630701619E+02  0.26114848714E+03  0.26615354152E+03  0.47000000000E+01 0. -1.
<mgrwt>
<rscale>  0 0.27546441E+03</rscale>
<asrwt>0</asrwt>
<pdfrwt beam="1">  1        1 0.22569060E+00 0.27546441E+03</pdfrwt>
<pdfrwt beam="2">  1       -1 0.19894398E-02 0.27546441E+03</pdfrwt>
<totfact> 0.52017358E+03</totfact>
</mgrwt>
</event>
<event>
 9    1  0.2031653E-002  0.2730048E+03  0.7818608E-02  0.1099572E+00
          2   -1    0    0  501    0  0.00000000000E+00  0.00000000000E+00  0.40963574810E+03  0.40963574810E+03  0.00000000000E+00 0. -1.
         -2   -1    0    0    0  501 -0.00000000000E+00 -0.00000000000E+00 -0.45486523621E+02  0.45486523621E+02  0.00000000000E+00 0. -1.
         36    2    1    2    0    0 -0.71054273576E-14  0.00000000000E+00  0.36414922448E+03  0.45512227172E+03  0.27300480678E+03 0.  0.
         25    2    3    3    0    0  0.14193608877E+02  0.42605623352E+02  0.22025383795E+03  0.25827619722E+03  0.12719333020E+03 0.  0.
         25    2    3    3    0    0 -0.14193608877E+02 -0.42605623352E+02  0.14389538653E+03  0.19684607450E+03  0.12659303735E+03 0.  0.
          5    1    4    4  502    0 -0.42160608778E+02 -0.17706260890E+02  0.11891154427E+03  0.12748754437E+03  0.47000000000E+01 0. -1.
         -5    1    4    4    0  502  0.56354217655E+02  0.60311884242E+02  0.10134229368E+03  0.13078865286E+03  0.47000000000E+01 0. -1.
          5    1    5    5  503    0  0.51912426148E+02 -0.41125252618E+02  0.87327570049E+02  0.10970132580E+03  0.47000000000E+01 0. -1.
         -5    1    5    5    0  503 -0.66106035025E+02 -0.14803707337E+01  0.56567816478E+02  0.87144748697E+02  0.47000000000E+01 0. -1.
<mgrwt>
<rscale>  0 0.27300481E+03</rscale>
<asrwt>0</asrwt>
<pdfrwt beam="1">  1        2 0.63020882E-01 0.27300481E+03</pdfrwt>
<pdfrwt beam="2">  1       -2 0.69979270E-02 0.27300481E+03</pdfrwt>
<totfact> 0.90029956E+03</totfact>
</mgrwt>
</event>
<event>
 9    1  0.2031653E-002  0.2786297E+03  0.7818608E-02  0.1096440E+00
          2   -1    0    0  501    0  0.00000000000E+00  0.00000000000E+00  0.26064279124E+02  0.26064279124E+02  0.00000000000E+00 0. -1.
         -2   -1    0    0    0  501 -0.00000000000E+00 -0.00000000000E+00 -0.74464487143E+03  0.74464487143E+03  0.00000000000E+00 0. -1.
         36    2    1    2    0    0  0.00000000000E+00  0.00000000000E+00 -0.71858059230E+03  0.77070915055E+03  0.27862973120E+03 0.  0.
         25    2    3    3    0    0 -0.37557943408E+02  0.43487802482E+02 -0.23282732932E+03  0.26489162988E+03  0.11250432092E+03 0.  0.
         25    2    3    3    0    0  0.37557943408E+02 -0.43487802482E+02 -0.48575326298E+03  0.50581752067E+03  0.12881515299E+03 0.  0.
          5    1    4    4  502    0 -0.57157897127E+02  0.63683992746E+02 -0.11362243812E+03  0.14231944554E+03  0.47000000000E+01 0.  1.
         -5    1    4    4    0  502  0.19599953719E+02 -0.20196190265E+02 -0.11920489120E+03  0.12257218434E+03  0.47000000000E+01 0.  1.
          5    1    5    5  503    0 -0.34967024969E+02  0.91346655572E+01 -0.56126587450E+02  0.66920989000E+02  0.47000000000E+01 0. -1.
         -5    1    5    5    0  503  0.72524968376E+02 -0.52622468039E+02 -0.42962667553E+03  0.43889653167E+03  0.47000000000E+01 0. -1.
<mgrwt>
<rscale>  0 0.27862973E+03</rscale>
<asrwt>0</asrwt>
<pdfrwt beam="1">  1        2 0.40098892E-02 0.27862973E+03</pdfrwt>
<pdfrwt beam="2">  1       -2 0.11456075E+00 0.27862973E+03</pdfrwt>
<totfact> 0.13126808E+03</totfact>
</mgrwt>
</event>
<event>
 9    1  0.2031653E-002  0.2764251E+03  0.7818608E-02  0.1097658E+00
          2   -1    0    0  501    0  0.00000000000E+00  0.00000000000E+00  0.27881581969E+03  0.27881581969E+03  0.00000000000E+00 0.  1.
         -2   -1    0    0    0  501 -0.00000000000E+00 -0.00000000000E+00 -0.68513716218E+02  0.68513716218E+02  0.00000000000E+00 0.  1.
         36    2    1    2    0    0  0.35527136788E-14 -0.35527136788E-14  0.21030210348E+03  0.34732953591E+03  0.27642509255E+03 0.  0.
         25    2    3    3    0    0  0.20854303651E+02  0.13531301619E+02  0.17177247557E+03  0.21375568975E+03  0.12477064330E+03 0.  0.
         25    2    3    3    0    0 -0.20854303651E+02 -0.13531301619E+02  0.38529627904E+02  0.13357384617E+03  0.12545693305E+03 0.  0.
          5    1    4    4  502    0  0.49207199266E+02  0.50688987454E+02  0.61076451249E+02  0.93504784936E+02  0.47000000000E+01 0. -1.
         -5    1    4    4    0  502 -0.28352895614E+02 -0.37157685835E+02  0.11069602432E+03  0.12025090481E+03  0.47000000000E+01 0. -1.
          5    1    5    5  503    0  0.18776015246E+02  0.24305243474E+02 -0.31691488584E+02  0.44381573401E+02  0.47000000000E+01 0. -1.
         -5    1    5    5    0  503 -0.39630318898E+02 -0.37836545092E+02  0.70221116488E+02  0.89192272767E+02  0.47000000000E+01 0. -1.
<mgrwt>
<rscale>  0 0.27642509E+03</rscale>
<asrwt>0</asrwt>
<pdfrwt beam="1">  1        2 0.42894741E-01 0.27642509E+03</pdfrwt>
<pdfrwt beam="2">  1       -2 0.10540572E-01 0.27642509E+03</pdfrwt>
<totfact> 0.71685039E+03</totfact>
</mgrwt>
</event>
<event>
 9    1  0.2031653E-002  0.2751617E+03  0.7818608E-02  0.1098361E+00
         -4   -1    0    0    0  501 -0.00000000000E+00  0.00000000000E+00  0.64220426944E+02  0.64220426944E+02  0.00000000000E+00 0.  1.
          4   -1    0    0  501    0  0.00000000000E+00 -0.00000000000E+00 -0.29474247908E+03  0.29474247908E+03  0.00000000000E+00 0.  1.
         36    2    1    2    0    0  0.00000000000E+00 -0.71054273576E-14 -0.23052205214E+03  0.35896290603E+03  0.27516168225E+03 0.  0.
         25    2    3    3    0    0  0.35498560033E+02  0.33070825793E+02 -0.15667012129E+03  0.20658774829E+03  0.12561506103E+03 0.  0.
         25    2    3    3    0    0 -0.35498560033E+02 -0.33070825793E+02 -0.73851930851E+02  0.15237515773E+03  0.12413804300E+03 0.  0.
          5    1    4    4  502    0  0.18206912364E+02  0.80129088848E+02 -0.11386955464E+03  0.14050098936E+03  0.47000000000E+01 0. -1.
         -5    1    4    4    0  502  0.17291647669E+02 -0.47058263055E+02 -0.42800566646E+02  0.66086758932E+02  0.47000000000E+01 0. -1.
          5    1    5    5  503    0 -0.76189309230E+02  0.42844600377E+01 -0.31847696326E+02  0.82822298930E+02  0.47000000000E+01 0.  1.
         -5    1    5    5    0  503  0.40690749197E+02 -0.37355285830E+02 -0.42004234525E+02  0.69552858803E+02  0.47000000000E+01 0.  1.
<mgrwt>
<rscale>  0 0.27516168E+03</rscale>
<asrwt>0</asrwt>
<pdfrwt beam="1">  1        4 0.45344998E-01 0.27516168E+03</pdfrwt>
<pdfrwt beam="2">  1       -4 0.98800655E-02 0.27516168E+03</pdfrwt>
<totfact> 0.68717208E+02</totfact>
</mgrwt>
</event>
<event>
 9    1  0.2031653E-002  0.2762191E+03  0.7818608E-02  0.1097772E+00
         -2   -1    0    0    0  501 -0.00000000000E+00  0.00000000000E+00  0.18872079843E+02  0.18872079843E+02  0.00000000000E+00 0. -1.
          2   -1    0    0  501    0  0.00000000000E+00 -0.00000000000E+00 -0.10107128593E+04  0.10107128593E+04  0.00000000000E+00 0. -1.
         36    2    1    2    0    0  0.00000000000E+00  0.71054273576E-14 -0.99184077945E+03  0.10295849391E+04  0.27621914328E+03 0.  0.
         25    2    3    3    0    0 -0.25246903171E+02  0.36582837709E+02 -0.37543360933E+03  0.39844649106E+03  0.12583124049E+03 0.  0.
         25    2    3    3    0    0  0.25246903171E+02 -0.36582837709E+02 -0.61640717012E+03  0.63113844808E+03  0.12807119558E+03 0.  0.
          5    1    4    4  502    0 -0.50862310366E+01  0.26702797956E+02 -0.37447356007E+03  0.37548827725E+03  0.47000000000E+01 0.  1.
         -5    1    4    4    0  502 -0.20160672135E+02  0.98800397527E+01 -0.96004926599E+00  0.22958213803E+02  0.47000000000E+01 0.  1.
          5    1    5    5  503    0  0.20368160452E+02 -0.84440892797E+02 -0.41393221453E+03  0.42297410625E+03  0.47000000000E+01 0. -1.
         -5    1    5    5    0  503  0.48787427191E+01  0.47858055088E+02 -0.20247495559E+03  0.20816434183E+03  0.47000000000E+01 0. -1.
<mgrwt>
<rscale>  0 0.27621914E+03</rscale>
<asrwt>0</asrwt>
<pdfrwt beam="1">  1        2 0.15549430E+00 0.27621914E+03</pdfrwt>
<pdfrwt beam="2">  1       -2 0.29033966E-02 0.27621914E+03</pdfrwt>
<totfact> 0.11476565E+04</totfact>
</mgrwt>
</event>
<event>
 9    1  0.2031653E-002  0.2763075E+03  0.7818608E-02  0.1097723E+00
          2   -1    0    0  501    0  0.00000000000E+00  0.00000000000E+00  0.22705415703E+04  0.22705415703E+04  0.00000000000E+00 0.  1.
         -2   -1    0    0    0  501 -0.00000000000E+00 -0.00000000000E+00 -0.84061247042E+01  0.84061247042E+01  0.00000000000E+00 0.  1.
         36    2    1    2    0    0  0.00000000000E+00 -0.71054273576E-14  0.22621354456E+04  0.22789476950E+04  0.27630747790E+03 0.  0.
         25    2    3    3    0    0  0.21567889835E+02  0.52453914804E+01  0.86260956931E+03  0.87140278106E+03  0.12146954256E+03 0.  0.
         25    2    3    3    0    0 -0.21567889835E+02 -0.52453914804E+01  0.13995258763E+04  0.14075449140E+04  0.14838233849E+03 0.  0.
          5    1    4    4  502    0  0.22317564950E+02 -0.34398672670E+02  0.10616901015E+03  0.11390913529E+03  0.47000000000E+01 0. -1.
         -5    1    4    4    0  502 -0.74967511528E+00  0.39644064151E+02  0.75644055916E+03  0.75749364577E+03  0.47000000000E+01 0. -1.
          5    1    5    5  503    0  0.36573924970E+02  0.27267333979E+02  0.16617128750E+03  0.17238371814E+03  0.47000000000E+01 0. -1.
         -5    1    5    5    0  503 -0.58141814804E+02 -0.32512725459E+02  0.12333545888E+04  0.12351611958E+04  0.47000000000E+01 0. -1.
<mgrwt>
<rscale>  0 0.27630748E+03</rscale>
<asrwt>0</asrwt>
<pdfrwt beam="1">  1        2 0.34931360E+00 0.27630748E+03</pdfrwt>
<pdfrwt beam="2">  1       -2 0.12932518E-02 0.27630748E+03</pdfrwt>
<totfact> 0.78255260E+03</totfact>
</mgrwt>
</event>
<event>
 9    1  0.2031653E-002  0.2751209E+03  0.7818608E-02  0.1098384E+00
         -2   -1    0    0    0  501 -0.00000000000E+00  0.00000000000E+00  0.19429660080E+02  0.19429660080E+02  0.00000000000E+00 0. -1.
          2   -1    0    0  501    0  0.00000000000E+00 -0.00000000000E+00 -0.97391677523E+03  0.97391677523E+03  0.00000000000E+00 0. -1.
         36    2    1    2    0    0  0.26645352591E-14  0.00000000000E+00 -0.95448711515E+03  0.99334643531E+03  0.27512085991E+03 0.  0.
         25    2    3    3    0    0 -0.46150980101E+01  0.15238500778E+01 -0.24566730117E+03  0.27344010094E+03  0.11997268308E+03 0.  0.
         25    2    3    3    0    0  0.46150980101E+01 -0.15238500778E+01 -0.70881981398E+03  0.71990633437E+03  0.12576160121E+03 0.  0.
          5    1    4    4  502    0 -0.92959027080E+00 -0.36643252543E+02 -0.15534650847E+02  0.40087497701E+02  0.47000000000E+01 0. -1.
         -5    1    4    4    0  502 -0.36855077393E+01  0.38167102621E+02 -0.23013265033E+03  0.23335260324E+03  0.47000000000E+01 0. -1.
          5    1    5    5  503    0 -0.29622154145E+02 -0.43716295438E+02 -0.53765694451E+03  0.54026444126E+03  0.47000000000E+01 0. -1.
         -5    1    5    5    0  503  0.34237252155E+02  0.42192445360E+02 -0.17116286946E+03  0.17964189312E+03  0.47000000000E+01 0. -1.
<mgrwt>
<rscale>  0 0.27512086E+03</rscale>
<asrwt>0</asrwt>
<pdfrwt beam="1">  1        2 0.14983330E+00 0.27512086E+03</pdfrwt>
<pdfrwt beam="2">  1       -2 0.29891795E-02 0.27512086E+03</pdfrwt>
<totfact> 0.11576400E+04</totfact>
</mgrwt>
</event>
<event>
 9    1  0.2031653E-002  0.2717198E+03  0.7818608E-02  0.1100299E+00
          1   -1    0    0  501    0  0.00000000000E+00  0.00000000000E+00  0.16637615536E+04  0.16637615536E+04  0.00000000000E+00 0. -1.
         -1   -1    0    0    0  501 -0.00000000000E+00 -0.00000000000E+00 -0.11094082174E+02  0.11094082174E+02  0.00000000000E+00 0. -1.
         36    2    1    2    0    0  0.35527136788E-14  0.71054273576E-14  0.16526674714E+04  0.16748556358E+04  0.27171976294E+03 0.  0.
         25    2    3    3    0    0  0.71208587330E+01 -0.16696664967E+02  0.11259184287E+04  0.11330037969E+04  0.12520307715E+03 0.  0.
         25    2    3    3    0    0 -0.71208587330E+01  0.16696664967E+02  0.52674904272E+03  0.54185183884E+03  0.12573534106E+03 0.  0.
          5    1    4    4  502    0 -0.47878358401E+02 -0.29779858342E+02  0.31039122096E+03  0.31550590678E+03  0.47000000000E+01 0.  1.
         -5    1    4    4    0  502  0.54999217134E+02  0.13083193375E+02  0.81552720776E+03  0.81749789017E+03  0.47000000000E+01 0.  1.
          5    1    5    5  503    0 -0.35852404329E+02 -0.41754022866E+02  0.32888486661E+03  0.33349083767E+03  0.47000000000E+01 0.  1.
         -5    1    5    5    0  503  0.28731545596E+02  0.58450687833E+02  0.19786417611E+03  0.20836100117E+03  0.47000000000E+01 0.  1.
<mgrwt>
<rscale>  0 0.27171976E+03</rscale>
<asrwt>0</asrwt>
<pdfrwt beam="1">  1        1 0.25596312E+00 0.27171976E+03</pdfrwt>
<pdfrwt beam="2">  1       -1 0.17067832E-02 0.27171976E+03</pdfrwt>
<totfact> 0.48264027E+03</totfact>
</mgrwt>
</event>
<event>
 9    1  0.2031653E-002  0.2757515E+03  0.7818608E-02  0.1098032E+00
         -1   -1    0    0    0  501 -0.00000000000E+00  0.00000000000E+00  0.25805990091E+02  0.25805990091E+02  0.00000000000E+00 0. -1.
          1   -1    0    0  501    0  0.00000000000E+00 -0.00000000000E+00 -0.73663988422E+03  0.73663988422E+03  0.00000000000E+00 0. -1.
         36    2    1    2    0    0  0.71054273576E-14 -0.71054273576E-14 -0.71083389413E+03  0.76244587431E+03  0.27575149358E+03 0.  0.
         25    2    3    3    0    0  0.48255376043E+02  0.39497134170E+02 -0.42201828346E+03  0.44257612086E+03  0.11783711749E+03 0.  0.
         25    2    3    3    0    0 -0.48255376043E+02 -0.39497134170E+02 -0.28881561067E+03  0.31986975345E+03  0.12252998523E+03 0.  0.
          5    1    4    4  502    0  0.47228370400E+02  0.77397047327E+02 -0.24016243397E+03  0.25675067010E+03  0.47000000000E+01 0. -1.
         -5    1    4    4    0  502  0.10270056431E+01 -0.37899913156E+02 -0.18185584949E+03  0.18582545076E+03  0.47000000000E+01 0. -1.
          5    1    5    5  503    0 -0.88992846203E+02 -0.18455150500E+02 -0.20277769594E+03  0.22226381448E+03  0.47000000000E+01 0.  1.
         -5    1    5    5    0  503  0.40737470160E+02 -0.21041983670E+02 -0.86037914728E+02  0.97605938971E+02  0.47000000000E+01 0.  1.
<mgrwt>
<rscale>  0 0.27575149E+03</rscale>
<asrwt>0</asrwt>
<pdfrwt beam="1">  1        1 0.11332922E+00 0.27575149E+03</pdfrwt>
<pdfrwt beam="2">  1       -1 0.39701521E-02 0.27575149E+03</pdfrwt>
<totfact> 0.64836941E+03</totfact>
</mgrwt>
</event>
<event>
 9    1  0.2031653E-002  0.2753849E+03  0.7818608E-02  0.1098237E+00
         -1   -1    0    0    0  501 -0.00000000000E+00  0.00000000000E+00  0.19906445976E+02  0.19906445976E+02  0.00000000000E+00 0. -1.
          1   -1    0    0  501    0  0.00000000000E+00 -0.00000000000E+00 -0.95241572864E+03  0.95241572864E+03  0.00000000000E+00 0. -1.
         36    2    1    2    0    0  0.71054273576E-14  0.00000000000E+00 -0.93250928266E+03  0.97232217462E+03  0.27538491062E+03 0.  0.
         25    2    3    3    0    0  0.49299368673E+02 -0.58869803534E+02 -0.44293210991E+03  0.46734991082E+03  0.12779281528E+03 0.  0.
         25    2    3    3    0    0 -0.49299368673E+02  0.58869803534E+02 -0.48957717275E+03  0.50497226379E+03  0.97031425833E+02 0.  0.
          5    1    4    4  502    0 -0.38393636726E+02  0.44295988936E+01 -0.15272895886E+03  0.15761318969E+03  0.47000000000E+01 0. -1.
         -5    1    4    4    0  502  0.87693005399E+02 -0.63299402428E+02 -0.29020315105E+03  0.30973672114E+03  0.47000000000E+01 0. -1.
          5    1    5    5  503    0 -0.62250142587E+02  0.20679238021E+01 -0.30618837834E+03  0.31249443129E+03  0.47000000000E+01 0.  1.
         -5    1    5    5    0  503  0.12950773914E+02  0.56801879732E+02 -0.18338879442E+03  0.19247783250E+03  0.47000000000E+01 0.  1.
<mgrwt>
<rscale>  0 0.27538491E+03</rscale>
<asrwt>0</asrwt>
<pdfrwt beam="1">  1        1 0.14652547E+00 0.27538491E+03</pdfrwt>
<pdfrwt beam="2">  1       -1 0.30625308E-02 0.27538491E+03</pdfrwt>
<totfact> 0.63534943E+03</totfact>
</mgrwt>
</event>
<event>
 9    1  0.2031653E-002  0.2753303E+03  0.7818608E-02  0.1098267E+00
         -1   -1    0    0    0  501 -0.00000000000E+00  0.00000000000E+00  0.37890501286E+02  0.37890501286E+02  0.00000000000E+00 0.  1.
          1   -1    0    0  501    0  0.00000000000E+00 -0.00000000000E+00 -0.50017018218E+03  0.50017018218E+03  0.00000000000E+00 0.  1.
         36    2    1    2    0    0 -0.35527136788E-14  0.00000000000E+00 -0.46227968089E+03  0.53806068347E+03  0.27533033927E+03 0.  0.
         25    2    3    3    0    0  0.18033371966E+02  0.55810433299E+02 -0.20730774639E+03  0.24861915530E+03  0.12407649132E+03 0.  0.
         25    2    3    3    0    0 -0.18033371966E+02 -0.55810433299E+02 -0.25497193450E+03  0.28944152817E+03  0.12379702692E+03 0.  0.
          5    1    4    4  502    0  0.47254482500E+01  0.33362448832E+02  0.52408631999E+01  0.34422950198E+02  0.47000000000E+01 0.  1.
         -5    1    4    4    0  502  0.13307923716E+02  0.22447984467E+02 -0.21254860959E+03  0.21419620510E+03  0.47000000000E+01 0.  1.
          5    1    5    5  503    0  0.18534640520E+02 -0.66890982746E+02 -0.63680161725E+02  0.94314312113E+02  0.47000000000E+01 0.  1.
         -5    1    5    5    0  503 -0.36568012486E+02  0.11080549447E+02 -0.19129177278E+03  0.19512721606E+03  0.47000000000E+01 0.  1.
<mgrwt>
<rscale>  0 0.27533034E+03</rscale>
<asrwt>0</asrwt>
<pdfrwt beam="1">  1        1 0.76949259E-01 0.27533034E+03</pdfrwt>
<pdfrwt beam="2">  1       -1 0.58293078E-02 0.27533034E+03</pdfrwt>
<totfact> 0.62708428E+03</totfact>
</mgrwt>
</event>
<event>
 9    1  0.2031653E-002  0.2748316E+03  0.7818608E-02  0.1098546E+00
          2   -1    0    0  501    0  0.00000000000E+00  0.00000000000E+00  0.43245799804E+03  0.43245799804E+03  0.00000000000E+00 0. -1.
         -2   -1    0    0    0  501 -0.00000000000E+00 -0.00000000000E+00 -0.43664599572E+02  0.43664599572E+02  0.00000000000E+00 0. -1.
         36    2    1    2    0    0 -0.71054273576E-14  0.35527136788E-14  0.38879339846E+03  0.47612259761E+03  0.27483162348E+03 0.  0.
         25    2    3    3    0    0  0.43783430928E+02  0.44666009214E+01  0.12454514929E+03  0.18044380784E+03  0.12292898043E+03 0.  0.
         25    2    3    3    0    0 -0.43783430928E+02 -0.44666009214E+01  0.26424824917E+03  0.29567878976E+03  0.12514739382E+03 0.  0.
          5    1    4    4  502    0  0.34096108179E+02  0.45306399101E+02  0.92347249433E+01  0.57641864450E+02  0.47000000000E+01 0.  1.
         -5    1    4    4    0  502  0.96873227487E+01 -0.40839798180E+02  0.11531042435E+03  0.12280194339E+03  0.47000000000E+01 0.  1.
          5    1    5    5  503    0  0.27016761036E+02  0.24793536546E+02  0.25536196294E+02  0.44931193535E+02  0.47000000000E+01 0. -1.
         -5    1    5    5    0  503 -0.70800191963E+02 -0.29260137468E+02  0.23871205287E+03  0.25074759623E+03  0.47000000000E+01 0. -1.
<mgrwt>
<rscale>  0 0.27483162E+03</rscale>
<asrwt>0</asrwt>
<pdfrwt beam="1">  1        2 0.66531997E-01 0.27483162E+03</pdfrwt>
<pdfrwt beam="2">  1       -2 0.67176310E-02 0.27483162E+03</pdfrwt>
<totfact> 0.90413893E+03</totfact>
</mgrwt>
</event>
<event>
 9    1  0.2031653E-002  0.2749791E+03  0.7818608E-02  0.1098463E+00
         -1   -1    0    0    0  501 -0.00000000000E+00  0.00000000000E+00  0.73298377011E+03  0.73298377011E+03  0.00000000000E+00 0. -1.
          1   -1    0    0  501    0  0.00000000000E+00 -0.00000000000E+00 -0.25789619803E+02  0.25789619803E+02  0.00000000000E+00 0. -1.
         36    2    1    2    0    0  0.00000000000E+00  0.35527136788E-14  0.70719415031E+03  0.75877338991E+03  0.27497907377E+03 0.  0.
         25    2    3    3    0    0  0.41113813633E+02 -0.27119454862E+02  0.24442967753E+03  0.27731105759E+03  0.12136616046E+03 0.  0.
         25    2    3    3    0    0 -0.41113813633E+02  0.27119454862E+02  0.46276447278E+03  0.48146233232E+03  0.12340668407E+03 0.  0.
          5    1    4    4  502    0  0.70727091114E+02 -0.27820837482E+02  0.23314674964E+03  0.24526682874E+03  0.47000000000E+01 0.  1.
         -5    1    4    4    0  502 -0.29613277481E+02  0.70138262096E+00  0.11282927889E+02  0.32044228848E+02  0.47000000000E+01 0.  1.
          5    1    5    5  503    0  0.19555596895E+02  0.60067946365E+02  0.23809719848E+03  0.24637967748E+03  0.47000000000E+01 0.  1.
         -5    1    5    5    0  503 -0.60669410528E+02 -0.32948491504E+02  0.22466727430E+03  0.23508265484E+03  0.47000000000E+01 0.  1.
<mgrwt>
<rscale>  0 0.27497907E+03</rscale>
<asrwt>0</asrwt>
<pdfrwt beam="1">  1        1 0.39676344E-02 0.27497907E+03</pdfrwt>
<pdfrwt beam="2">  1       -1 0.11276672E+00 0.27497907E+03</pdfrwt>
<totfact> 0.17600203E+03</totfact>
</mgrwt>
</event>
<event>
 9    1  0.2031653E-002  0.2743962E+03  0.7818608E-02  0.1098790E+00
         -1   -1    0    0    0  501 -0.00000000000E+00  0.00000000000E+00  0.10952441042E+03  0.10952441042E+03  0.00000000000E+00 0.  1.
          1   -1    0    0  501    0  0.00000000000E+00 -0.00000000000E+00 -0.17186412222E+03  0.17186412222E+03  0.00000000000E+00 0.  1.
         36    2    1    2    0    0 -0.71054273576E-14 -0.17763568394E-14 -0.62339711803E+02  0.28138853263E+03  0.27439618552E+03 0.  0.
         25    2    3    3    0    0 -0.33040402800E+02  0.13470290879E+01  0.16538213120E+02  0.13200600030E+03  0.12672248782E+03 0.  0.
         25    2    3    3    0    0  0.33040402800E+02 -0.13470290879E+01 -0.78877924923E+02  0.14938253233E+03  0.12247420635E+03 0.  0.
          5    1    4    4  502    0  0.40428448620E+02 -0.25539739597E+02  0.23181396342E+02  0.53349834985E+02  0.47000000000E+01 0.  1.
         -5    1    4    4    0  502 -0.73468851420E+02  0.26886768685E+02 -0.66431832220E+01  0.78656165319E+02  0.47000000000E+01 0.  1.
          5    1    5    5  503    0  0.61780259175E+02 -0.14139684847E+02  0.83571118918E+00  0.63557214575E+02  0.47000000000E+01 0.  1.
         -5    1    5    5    0  503 -0.28739856375E+02  0.12792655759E+02 -0.79713636112E+02  0.85825317757E+02  0.47000000000E+01 0.  1.
<mgrwt>
<rscale>  0 0.27439619E+03</rscale>
<asrwt>0</asrwt>
<pdfrwt beam="1">  1        1 0.26440634E-01 0.27439619E+03</pdfrwt>
<pdfrwt beam="2">  1       -1 0.16849909E-01 0.27439619E+03</pdfrwt>
<totfact> 0.47132426E+03</totfact>
</mgrwt>
</event>
<event>
 9    1  0.2031653E-002  0.2745999E+03  0.7818608E-02  0.1098675E+00
         -2   -1    0    0    0  501 -0.00000000000E+00  0.00000000000E+00  0.99735000060E+02  0.99735000060E+02  0.00000000000E+00 0.  1.
          2   -1    0    0  501    0  0.00000000000E+00 -0.00000000000E+00 -0.18901365764E+03  0.18901365764E+03  0.00000000000E+00 0.  1.
         36    2    1    2    0    0  0.71054273576E-14 -0.35527136788E-14 -0.89278657583E+02  0.28874865770E+03  0.27459990645E+03 0.  0.
         25    2    3    3    0    0  0.47457885315E+02 -0.24329560999E+02 -0.18994622978E+02  0.13599840411E+03  0.12365513253E+03 0.  0.
         25    2    3    3    0    0 -0.47457885315E+02  0.24329560999E+02 -0.70284034605E+02  0.15275025359E+03  0.12469408981E+03 0.  0.
          5    1    4    4  502    0 -0.22747670941E+02 -0.10078644941E+02 -0.51349570765E+02  0.57252982759E+02  0.47000000000E+01 0.  1.
         -5    1    4    4    0  502  0.70205556256E+02 -0.14250916058E+02  0.32354947787E+02  0.78745421352E+02  0.47000000000E+01 0.  1.
          5    1    5    5  503    0  0.20323328930E+02  0.54227509543E+02 -0.14467657155E+02  0.59875400571E+02  0.47000000000E+01 0. -1.
         -5    1    5    5    0  503 -0.67781214245E+02 -0.29897948544E+02 -0.55816377450E+02  0.92874853019E+02  0.47000000000E+01 0. -1.
<mgrwt>
<rscale>  0 0.27459991E+03</rscale>
<asrwt>0</asrwt>
<pdfrwt beam="1">  1        2 0.29079024E-01 0.27459991E+03</pdfrwt>
<pdfrwt beam="2">  1       -2 0.15343846E-01 0.27459991E+03</pdfrwt>
<totfact> 0.59393602E+03</totfact>
</mgrwt>
</event>
<event>
 9    1  0.2031653E-002  0.2747410E+03  0.7818608E-02  0.1098596E+00
         -2   -1    0    0    0  501 -0.00000000000E+00  0.00000000000E+00  0.17673150920E+02  0.17673150920E+02  0.00000000000E+00 0.  1.
          2   -1    0    0  501    0  0.00000000000E+00 -0.00000000000E+00 -0.10677580074E+04  0.10677580074E+04  0.00000000000E+00 0.  1.
         36    2    1    2    0    0  0.00000000000E+00 -0.14210854715E-13 -0.10500848565E+04  0.10854311583E+04  0.27474095735E+03 0.  0.
         25    2    3    3    0    0 -0.39127446744E+02  0.41501067169E+02 -0.52082329972E+03  0.53863952176E+03  0.12498931638E+03 0.  0.
         25    2    3    3    0    0  0.39127446744E+02 -0.41501067169E+02 -0.52926155676E+03  0.54679163656E+03  0.12493999632E+03 0.  0.
          5    1    4    4  502    0 -0.74822832812E+02  0.22890666590E+02 -0.19285941141E+03  0.20818088648E+03  0.47000000000E+01 0. -1.
         -5    1    4    4    0  502  0.35695386067E+02  0.18610400578E+02 -0.32796388831E+03  0.33045863528E+03  0.47000000000E+01 0. -1.
          5    1    5    5  503    0 -0.11436397617E+01 -0.41832438073E+02 -0.48118708124E+02  0.63943419197E+02  0.47000000000E+01 0.  1.
         -5    1    5    5    0  503  0.40271086506E+02  0.33137090475E+00 -0.48114284863E+03  0.48284821736E+03  0.47000000000E+01 0.  1.
<mgrwt>
<rscale>  0 0.27474096E+03</rscale>
<asrwt>0</asrwt>
<pdfrwt beam="1">  1        2 0.16427049E+00 0.27474096E+03</pdfrwt>
<pdfrwt beam="2">  1       -2 0.27189458E-02 0.27474096E+03</pdfrwt>
<totfact> 0.11687818E+04</totfact>
</mgrwt>
</event>
<event>
 9    1  0.2031653E-002  0.2757429E+03  0.7818608E-02  0.1098037E+00
         -2   -1    0    0    0  501 -0.00000000000E+00  0.00000000000E+00  0.42261696495E+03  0.42261696495E+03  0.00000000000E+00 0. -1.
          2   -1    0    0  501    0  0.00000000000E+00 -0.00000000000E+00 -0.44978169333E+02  0.44978169333E+02  0.00000000000E+00 0. -1.
         36    2    1    2    0    0  0.71054273576E-14 -0.71054273576E-14  0.37763879561E+03  0.46759513428E+03  0.27574290499E+03 0.  0.
         25    2    3    3    0    0 -0.26625966297E+02  0.48172900772E+02  0.19417356929E+03  0.23739266664E+03  0.12498933040E+03 0.  0.
         25    2    3    3    0    0  0.26625966297E+02 -0.48172900772E+02  0.18346522633E+03  0.23020246764E+03  0.12768757334E+03 0.  0.
          5    1    4    4  502    0 -0.45280719200E+02 -0.13718662117E+02  0.20055090206E+02  0.51602731175E+02  0.47000000000E+01 0. -1.
         -5    1    4    4    0  502  0.18654752903E+02  0.61891562889E+02  0.17411847908E+03  0.18578993546E+03  0.47000000000E+01 0. -1.
          5    1    5    5  503    0  0.58308129412E+02  0.32282931237E+01  0.31290238142E+02  0.66418588023E+02  0.47000000000E+01 0. -1.
         -5    1    5    5    0  503 -0.31682163115E+02 -0.51401193896E+02  0.15217498818E+03  0.16378387962E+03  0.47000000000E+01 0. -1.
<mgrwt>
<rscale>  0 0.27574290E+03</rscale>
<asrwt>0</asrwt>
<pdfrwt beam="1">  1        2 0.69197186E-02 0.27574290E+03</pdfrwt>
<pdfrwt beam="2">  1       -2 0.65017992E-01 0.27574290E+03</pdfrwt>
<totfact> 0.22846875E+03</totfact>
</mgrwt>
</event>
<event>
 9    1  0.2031653E-002  0.2763668E+03  0.7818608E-02  0.1097690E+00
         -3   -1    0    0    0  501 -0.00000000000E+00  0.00000000000E+00  0.23343059177E+02  0.23343059177E+02  0.00000000000E+00 0. -1.
          3   -1    0    0  501    0  0.00000000000E+00 -0.00000000000E+00 -0.81800150882E+03  0.81800150882E+03  0.00000000000E+00 0. -1.
         36    2    1    2    0    0  0.00000000000E+00 -0.35527136788E-14 -0.79465844964E+03  0.84134456799E+03  0.27636684046E+03 0.  0.
         25    2    3    3    0    0 -0.55343331707E+02 -0.18299258101E+02 -0.34778779404E+03  0.37374901203E+03  0.12383144633E+03 0.  0.
         25    2    3    3    0    0  0.55343331707E+02  0.18299258101E+02 -0.44687065561E+03  0.46759555597E+03  0.12471757658E+03 0.  0.
          5    1    4    4  502    0 -0.55778809270E+02 -0.29147691183E+02 -0.64589456659E+02  0.90303662032E+02  0.47000000000E+01 0.  1.
         -5    1    4    4    0  502  0.43547756274E+00  0.10848433082E+02 -0.28319833738E+03  0.28344534999E+03  0.47000000000E+01 0.  1.
          5    1    5    5  503    0  0.21750216611E+02  0.71001525288E+02 -0.26385784801E+03  0.27414839498E+03  0.47000000000E+01 0. -1.
         -5    1    5    5    0  503  0.33593115096E+02 -0.52702267186E+02 -0.18301280760E+03  0.19344716098E+03  0.47000000000E+01 0. -1.
<mgrwt>
<rscale>  0 0.27636684E+03</rscale>
<asrwt>0</asrwt>
<pdfrwt beam="1">  1        3 0.12584638E+00 0.27636684E+03</pdfrwt>
<pdfrwt beam="2">  1       -3 0.35912400E-02 0.27636684E+03</pdfrwt>
<totfact> 0.51612577E+02</totfact>
</mgrwt>
</event>
<event>
 9    1  0.2031653E-002  0.2740155E+03  0.7818608E-02  0.1099003E+00
         -1   -1    0    0    0  501 -0.00000000000E+00  0.00000000000E+00  0.70236123336E+01  0.70236123336E+01  0.00000000000E+00 0. -1.
          1   -1    0    0  501    0  0.00000000000E+00 -0.00000000000E+00 -0.26725742360E+04  0.26725742360E+04  0.00000000000E+00 0. -1.
         36    2    1    2    0    0  0.00000000000E+00 -0.26645352591E-14 -0.26655506237E+04  0.26795978484E+04  0.27401551319E+03 0.  0.
         25    2    3    3    0    0  0.52408887477E+01 -0.74983073474E+01 -0.98854325611E+03  0.99703843306E+03  0.12955375825E+03 0.  0.
         25    2    3    3    0    0 -0.52408887477E+01  0.74983073474E+01 -0.16770073676E+04  0.16825594153E+04  0.13626732385E+03 0.  0.
          5    1    4    4  502    0 -0.73357826870E+01 -0.58333761949E+01 -0.98191854335E+03  0.98197451992E+03  0.47000000000E+01 0. -1.
         -5    1    4    4    0  502  0.12576671435E+02 -0.16649311526E+01 -0.66247127542E+01  0.15063913144E+02  0.47000000000E+01 0. -1.
          5    1    5    5  503    0  0.43296139666E+02  0.52441752684E+02 -0.99631223180E+03  0.99864150042E+03  0.47000000000E+01 0.  1.
         -5    1    5    5    0  503 -0.48537028414E+02 -0.44943445337E+02 -0.68069513581E+03  0.68391791490E+03  0.47000000000E+01 0.  1.
<mgrwt>
<rscale>  0 0.27401551E+03</rscale>
<asrwt>0</asrwt>
<pdfrwt beam="1">  1        1 0.41116527E+00 0.27401551E+03</pdfrwt>
<pdfrwt beam="2">  1       -1 0.10805557E-02 0.27401551E+03</pdfrwt>
<totfact> 0.20428742E+03</totfact>
</mgrwt>
</event>
<event>
 9    1  0.2031653E-002  0.2738618E+03  0.7818608E-02  0.1099090E+00
          2   -1    0    0  501    0  0.00000000000E+00  0.00000000000E+00  0.52911645652E+03  0.52911645652E+03  0.00000000000E+00 0. -1.
         -2   -1    0    0    0  501 -0.00000000000E+00 -0.00000000000E+00 -0.35436569906E+02  0.35436569906E+02  0.00000000000E+00 0. -1.
         36    2    1    2    0    0 -0.71054273576E-14  0.71054273576E-14  0.49367988662E+03  0.56455302643E+03  0.27386180676E+03 0.  0.
         25    2    3    3    0    0 -0.33549165053E+02  0.32650105567E+02  0.33253314789E+03  0.35495290558E+03  0.11498562894E+03 0.  0.
         25    2    3    3    0    0  0.33549165053E+02 -0.32650105567E+02  0.16114673872E+03  0.20960012085E+03  0.12558807025E+03 0.  0.
          5    1    4    4  502    0 -0.29984657729E+02  0.35498069582E+02  0.37631268363E+02  0.59978287753E+02  0.47000000000E+01 0. -1.
         -5    1    4    4    0  502 -0.35645073244E+01 -0.28479640153E+01  0.29490187953E+03  0.29497461783E+03  0.47000000000E+01 0. -1.
          5    1    5    5  503    0  0.20589508873E+02  0.47718691694E+02  0.56082468827E+02  0.76605056768E+02  0.47000000000E+01 0. -1.
         -5    1    5    5    0  503  0.12959656180E+02 -0.80368797261E+02  0.10506426990E+03  0.13299506408E+03  0.47000000000E+01 0. -1.
<mgrwt>
<rscale>  0 0.27386181E+03</rscale>
<asrwt>0</asrwt>
<pdfrwt beam="1">  1        2 0.81402526E-01 0.27386181E+03</pdfrwt>
<pdfrwt beam="2">  1       -2 0.54517803E-02 0.27386181E+03</pdfrwt>
<totfact> 0.99540955E+03</totfact>
</mgrwt>
</event>
<event>
 9    1  0.2031653E-002  0.2761317E+03  0.7818608E-02  0.1097821E+00
         -2   -1    0    0    0  501 -0.00000000000E+00  0.00000000000E+00  0.16295400082E+02  0.16295400082E+02  0.00000000000E+00 0.  1.
          2   -1    0    0  501    0  0.00000000000E+00 -0.00000000000E+00 -0.11697887957E+04  0.11697887957E+04  0.00000000000E+00 0.  1.
         36    2    1    2    0    0  0.35527136788E-14  0.00000000000E+00 -0.11534933956E+04  0.11860841957E+04  0.27613168190E+03 0.  0.
         25    2    3    3    0    0 -0.41830473020E+01 -0.66371360623E+02 -0.46499619317E+03  0.48282604993E+03  0.11169995273E+03 0.  0.
         25    2    3    3    0    0  0.41830473020E+01  0.66371360623E+02 -0.68849720242E+03  0.70325814581E+03  0.12696836819E+03 0.  0.
          5    1    4    4  502    0 -0.40218030801E+02 -0.80424074014E+02 -0.35054474595E+03  0.36192434375E+03  0.47000000000E+01 0.  1.
         -5    1    4    4    0  502  0.36034983499E+02  0.14052713391E+02 -0.11445144721E+03  0.12090170618E+03  0.47000000000E+01 0.  1.
          5    1    5    5  503    0  0.29328741686E+02  0.43467115153E+02 -0.93751485286E+02  0.10752207300E+03  0.47000000000E+01 0.  1.
         -5    1    5    5    0  503 -0.25145694384E+02  0.22904245470E+02 -0.59474571713E+03  0.59573607282E+03  0.47000000000E+01 0.  1.
<mgrwt>
<rscale>  0 0.27613168E+03</rscale>
<asrwt>0</asrwt>
<pdfrwt beam="1">  1        2 0.17996756E+00 0.27613168E+03</pdfrwt>
<pdfrwt beam="2">  1       -2 0.25069839E-02 0.27613168E+03</pdfrwt>
<totfact> 0.11494185E+04</totfact>
</mgrwt>
</event>
<event>
 9    1  0.2031653E-002  0.2752049E+03  0.7818608E-02  0.1098337E+00
         -2   -1    0    0    0  501 -0.00000000000E+00  0.00000000000E+00  0.60798872758E+01  0.60798872758E+01  0.00000000000E+00 0.  1.
          2   -1    0    0  501    0  0.00000000000E+00 -0.00000000000E+00 -0.31142744221E+04  0.31142744221E+04  0.00000000000E+00 0.  1.
         36    2    1    2    0    0  0.35527136788E-14  0.71054273576E-14 -0.31081945348E+04  0.31203543093E+04  0.27520492316E+03 0.  0.
         25    2    3    3    0    0 -0.15034948083E+02  0.15573271999E+02 -0.22124357674E+04  0.22162248356E+04  0.12771812962E+03 0.  0.
         25    2    3    3    0    0  0.15034948083E+02 -0.15573271999E+02 -0.89575876738E+03  0.90412947373E+03  0.12082118792E+03 0.  0.
          5    1    4    4  502    0  0.29195907082E+02 -0.23029591435E+01 -0.13431060348E+03  0.13754683864E+03  0.47000000000E+01 0. -1.
         -5    1    4    4    0  502 -0.44230855165E+02  0.17876231143E+02 -0.20781251639E+04  0.20786779970E+04  0.47000000000E+01 0. -1.
          5    1    5    5  503    0  0.87801449185E+01  0.41800497743E+02 -0.14745133898E+03  0.15358502506E+03  0.47000000000E+01 0. -1.
         -5    1    5    5    0  503  0.62548031650E+01 -0.57373769742E+02 -0.74830742840E+03  0.75054444866E+03  0.47000000000E+01 0. -1.
<mgrwt>
<rscale>  0 0.27520492E+03</rscale>
<asrwt>0</asrwt>
<pdfrwt beam="1">  1        2 0.47911827E+00 0.27520492E+03</pdfrwt>
<pdfrwt beam="2">  1       -2 0.93536897E-03 0.27520492E+03</pdfrwt>
<totfact> 0.41807356E+03</totfact>
</mgrwt>
</event>
<event>
 9    1  0.2031653E-002  0.2750274E+03  0.7818608E-02  0.1098436E+00
          2   -1    0    0  501    0  0.00000000000E+00  0.00000000000E+00  0.41381530848E+03  0.41381530848E+03  0.00000000000E+00 0. -1.
         -2   -1    0    0    0  501 -0.00000000000E+00 -0.00000000000E+00 -0.45696746978E+02  0.45696746978E+02  0.00000000000E+00 0. -1.
         36    2    1    2    0    0  0.00000000000E+00  0.00000000000E+00  0.36811856150E+03  0.45951205546E+03  0.27502736917E+03 0.  0.
         25    2    3    3    0    0  0.26580697812E+02  0.11768179044E+02  0.16490240802E+03  0.21729620131E+03  0.13849119611E+03 0.  0.
         25    2    3    3    0    0 -0.26580697812E+02 -0.11768179044E+02  0.20321615349E+03  0.24221585415E+03  0.12855618005E+03 0.  0.
          5    1    4    4  502    0  0.23242791873E+02  0.12286754360E+02 -0.19332689944E+02  0.32970207873E+02  0.47000000000E+01 0.  1.
         -5    1    4    4    0  502  0.33379059390E+01 -0.51857531601E+00  0.18423509796E+03  0.18432599344E+03  0.47000000000E+01 0.  1.
          5    1    5    5  503    0 -0.51965594812E+02 -0.22941870988E+02  0.25769497213E+02  0.62553253115E+02  0.47000000000E+01 0.  1.
         -5    1    5    5    0  503  0.25384897001E+02  0.11173691944E+02  0.17744665628E+03  0.17966260104E+03  0.47000000000E+01 0.  1.
<mgrwt>
<rscale>  0 0.27502737E+03</rscale>
<asrwt>0</asrwt>
<pdfrwt beam="1">  1        2 0.63663891E-01 0.27502737E+03</pdfrwt>
<pdfrwt beam="2">  1       -2 0.70302690E-02 0.27502737E+03</pdfrwt>
<totfact> 0.88431307E+03</totfact>
</mgrwt>
</event>
<event>
 9    1  0.2031653E-002  0.2752957E+03  0.7818608E-02  0.1098286E+00
         -2   -1    0    0    0  501 -0.00000000000E+00  0.00000000000E+00  0.12857547386E+02  0.12857547386E+02  0.00000000000E+00 0. -1.
          2   -1    0    0  501    0  0.00000000000E+00 -0.00000000000E+00 -0.14736037146E+04  0.14736037146E+04  0.00000000000E+00 0. -1.
         36    2    1    2    0    0 -0.71054273576E-14 -0.71054273576E-14 -0.14607461672E+04  0.14864612619E+04  0.27529569257E+03 0.  0.
         25    2    3    3    0    0  0.19748218100E+02  0.28093768225E+02 -0.98209637409E+03  0.98996518422E+03  0.11974358452E+03 0.  0.
         25    2    3    3    0    0 -0.19748218100E+02 -0.28093768225E+02 -0.47864979308E+03  0.49649607772E+03  0.12737142084E+03 0.  0.
          5    1    4    4  502    0  0.56988870723E+02  0.48214854110E+02 -0.77072786819E+03  0.77434872011E+03  0.47000000000E+01 0. -1.
         -5    1    4    4    0  502 -0.37240652623E+02 -0.20121085884E+02 -0.21136850590E+03  0.21561646410E+03  0.47000000000E+01 0. -1.
          5    1    5    5  503    0 -0.50097975199E+02 -0.64379766435E+01 -0.71788233838E+02  0.87902759796E+02  0.47000000000E+01 0.  1.
         -5    1    5    5    0  503  0.30349757098E+02 -0.21655791582E+02 -0.40686155924E+03  0.40859331792E+03  0.47000000000E+01 0.  1.
<mgrwt>
<rscale>  0 0.27529569E+03</rscale>
<asrwt>0</asrwt>
<pdfrwt beam="1">  1        2 0.22670838E+00 0.27529569E+03</pdfrwt>
<pdfrwt beam="2">  1       -2 0.19780832E-02 0.27529569E+03</pdfrwt>
<totfact> 0.11076116E+04</totfact>
</mgrwt>
</event>
<event>
 9    1  0.2031653E-002  0.2747270E+03  0.7818608E-02  0.1098604E+00
          2   -1    0    0  501    0  0.00000000000E+00  0.00000000000E+00  0.27360840536E+02  0.27360840536E+02  0.00000000000E+00 0.  1.
         -2   -1    0    0    0  501 -0.00000000000E+00 -0.00000000000E+00 -0.68962553458E+03  0.68962553458E+03  0.00000000000E+00 0.  1.
         36    2    1    2    0    0 -0.35527136788E-14  0.00000000000E+00 -0.66226469404E+03  0.71698637511E+03  0.27472702292E+03 0.  0.
         25    2    3    3    0    0 -0.20351378108E+02  0.17293614431E+02 -0.41894177367E+03  0.44197377881E+03  0.13825832250E+03 0.  0.
         25    2    3    3    0    0  0.20351378108E+02 -0.17293614431E+02 -0.24332292037E+03  0.27501259630E+03  0.12535005726E+03 0.  0.
          5    1    4    4  502    0  0.29260843981E+02  0.32512539873E+02 -0.36249120550E+03  0.36515096372E+03  0.47000000000E+01 0.  1.
         -5    1    4    4    0  502 -0.49612222089E+02 -0.15218925442E+02 -0.56450568166E+02  0.76822815091E+02  0.47000000000E+01 0.  1.
          5    1    5    5  503    0  0.25279691289E+02 -0.61758190688E+02 -0.73731478344E+02  0.99556806937E+02  0.47000000000E+01 0. -1.
         -5    1    5    5    0  503 -0.49283131805E+01  0.44464576257E+02 -0.16959144203E+03  0.17545578937E+03  0.47000000000E+01 0. -1.
<mgrwt>
<rscale>  0 0.27472702E+03</rscale>
<asrwt>0</asrwt>
<pdfrwt beam="1">  1        2 0.42093604E-02 0.27472702E+03</pdfrwt>
<pdfrwt beam="2">  1       -2 0.10609623E+00 0.27472702E+03</pdfrwt>
<totfact> 0.14754973E+03</totfact>
</mgrwt>
</event>
<event>
 9    1  0.2031653E-002  0.2752461E+03  0.7818608E-02  0.1098314E+00
          1   -1    0    0  501    0  0.00000000000E+00  0.00000000000E+00  0.26351310355E+04  0.26351310355E+04  0.00000000000E+00 0. -1.
         -1   -1    0    0    0  501 -0.00000000000E+00 -0.00000000000E+00 -0.71875382518E+01  0.71875382518E+01  0.00000000000E+00 0. -1.
         36    2    1    2    0    0  0.00000000000E+00 -0.35527136788E-14  0.26279434972E+04  0.26423185737E+04  0.27524610890E+03 0.  0.
         25    2    3    3    0    0 -0.52935048723E+02 -0.15589818546E+02  0.86655544378E+03  0.87697658265E+03  0.12298141140E+03 0.  0.
         25    2    3    3    0    0  0.52935048723E+02  0.15589818546E+02  0.17613880534E+04  0.17653419911E+04  0.10439975485E+03 0.  0.
          5    1    4    4  502    0 -0.31041098403E+02 -0.67204072284E+02  0.37939917046E+03  0.38658214867E+03  0.47000000000E+01 0. -1.
         -5    1    4    4    0  502 -0.21893950320E+02  0.51614253739E+02  0.48715627332E+03  0.49039443398E+03  0.47000000000E+01 0. -1.
          5    1    5    5  503    0  0.68828736092E+02  0.39952418541E+02  0.92308176907E+03  0.92651801551E+03  0.47000000000E+01 0.  1.
         -5    1    5    5    0  503 -0.15893687369E+02 -0.24362599995E+02  0.83830628438E+03  0.83882397558E+03  0.47000000000E+01 0.  1.
<mgrwt>
<rscale>  0 0.27524611E+03</rscale>
<asrwt>0</asrwt>
<pdfrwt beam="1">  1        1 0.40540400E+00 0.27524611E+03</pdfrwt>
<pdfrwt beam="2">  1       -1 0.11057772E-02 0.27524611E+03</pdfrwt>
<totfact> 0.20937150E+03</totfact>
</mgrwt>
</event>
<event>
 9    1  0.2031653E-002  0.2749151E+03  0.7818608E-02  0.1098499E+00
          1   -1    0    0  501    0  0.00000000000E+00  0.00000000000E+00  0.12350595113E+03  0.12350595113E+03  0.00000000000E+00 0.  1.
         -1   -1    0    0    0  501 -0.00000000000E+00 -0.00000000000E+00 -0.15298517049E+03  0.15298517049E+03  0.00000000000E+00 0.  1.
         36    2    1    2    0    0  0.00000000000E+00  0.17763568394E-14 -0.29479219353E+02  0.27649112162E+03  0.27491510682E+03 0.  0.
         25    2    3    3    0    0 -0.46358913583E+02 -0.12120842530E+02  0.12600246144E+02  0.13537477940E+03  0.12598214557E+03 0.  0.
         25    2    3    3    0    0  0.46358913583E+02  0.12120842530E+02 -0.42079465497E+02  0.14111634221E+03  0.12588517360E+03 0.  0.
          5    1    4    4  502    0 -0.86844189917E+02 -0.26671270082E+02  0.28511397370E+01  0.91013674621E+02  0.47000000000E+01 0. -1.
         -5    1    4    4    0  502  0.40485276335E+02  0.14550427551E+02  0.97491064069E+01  0.44361104783E+02  0.47000000000E+01 0. -1.
          5    1    5    5  503    0 -0.29670090241E+02  0.40267947377E+02 -0.31311796715E+02  0.59197470001E+02  0.47000000000E+01 0.  1.
         -5    1    5    5    0  503  0.76029003824E+02 -0.28147104847E+02 -0.10767668782E+02  0.81918872214E+02  0.47000000000E+01 0.  1.
<mgrwt>
<rscale>  0 0.27491511E+03</rscale>
<asrwt>0</asrwt>
<pdfrwt beam="1">  1        1 0.19000916E-01 0.27491511E+03</pdfrwt>
<pdfrwt beam="2">  1       -1 0.23536180E-01 0.27491511E+03</pdfrwt>
<totfact> 0.41797003E+03</totfact>
</mgrwt>
</event>
<event>
 9    1  0.2031653E-002  0.2754197E+03  0.7818608E-02  0.1098217E+00
          1   -1    0    0  501    0  0.00000000000E+00  0.00000000000E+00  0.23200827475E+03  0.23200827475E+03  0.00000000000E+00 0.  1.
         -1   -1    0    0    0  501 -0.00000000000E+00 -0.00000000000E+00 -0.81738477485E+02  0.81738477485E+02  0.00000000000E+00 0.  1.
         36    2    1    2    0    0  0.00000000000E+00  0.00000000000E+00  0.15026979727E+03  0.31374675224E+03  0.27541970258E+03 0.  0.
         25    2    3    3    0    0  0.31865449436E+02 -0.42962738923E+02  0.81037631300E+02  0.16843889754E+03  0.13763488190E+03 0.  0.
         25    2    3    3    0    0 -0.31865449436E+02  0.42962738923E+02  0.69232165970E+02  0.14530785470E+03  0.11601756776E+03 0.  0.
          5    1    4    4  502    0 -0.16225687638E+02  0.36446713197E+02  0.61492289932E+02  0.73450851344E+02  0.47000000000E+01 0. -1.
         -5    1    4    4    0  502  0.48091137073E+02 -0.79409452119E+02  0.19545341369E+02  0.94988046196E+02  0.47000000000E+01 0. -1.
          5    1    5    5  503    0 -0.24473539760E+02  0.49484354347E+02  0.99083197453E+02  0.11352191635E+03  0.47000000000E+01 0.  1.
         -5    1    5    5    0  503 -0.73919096757E+01 -0.65216154246E+01 -0.29851031483E+02  0.31785938353E+02  0.47000000000E+01 0.  1.
<mgrwt>
<rscale>  0 0.27541970E+03</rscale>
<asrwt>0</asrwt>
<pdfrwt beam="1">  1        1 0.35693581E-01 0.27541970E+03</pdfrwt>
<pdfrwt beam="2">  1       -1 0.12575150E-01 0.27541970E+03</pdfrwt>
<totfact> 0.51312552E+03</totfact>
</mgrwt>
</event>
<event>
 9    1  0.2031653E-002  0.2748608E+03  0.7818608E-02  0.1098529E+00
          2   -1    0    0  501    0  0.00000000000E+00  0.00000000000E+00  0.34680929843E+03  0.34680929843E+03  0.00000000000E+00 0. -1.
         -2   -1    0    0    0  501 -0.00000000000E+00 -0.00000000000E+00 -0.54459658559E+02  0.54459658559E+02  0.00000000000E+00 0. -1.
         36    2    1    2    0    0 -0.71054273576E-14  0.71054273576E-14  0.29234963988E+03  0.40126895699E+03  0.27486080825E+03 0.  0.
         25    2    3    3    0    0 -0.37429591651E+02  0.56479408267E+02  0.17661765123E+03  0.22836654783E+03  0.12793196455E+03 0.  0.
         25    2    3    3    0    0  0.37429591651E+02 -0.56479408267E+02  0.11573198865E+03  0.17290240916E+03  0.10913501733E+03 0.  0.
          5    1    4    4  502    0 -0.42740616467E+02  0.63755331041E+02  0.31836863469E+02  0.83229672639E+02  0.47000000000E+01 0. -1.
         -5    1    4    4    0  502  0.53110248164E+01 -0.72759227736E+01  0.14478078776E+03  0.14513687519E+03  0.47000000000E+01 0. -1.
          5    1    5    5  503    0  0.62205513672E+02 -0.72324384807E+02  0.10312842592E+03  0.14056281444E+03  0.47000000000E+01 0. -1.
         -5    1    5    5    0  503 -0.24775922021E+02  0.15844976540E+02  0.12603562725E+02  0.32339594724E+02  0.47000000000E+01 0. -1.
<mgrwt>
<rscale>  0 0.27486081E+03</rscale>
<asrwt>0</asrwt>
<pdfrwt beam="1">  1        2 0.53355275E-01 0.27486081E+03</pdfrwt>
<pdfrwt beam="2">  1       -2 0.83784092E-02 0.27486081E+03</pdfrwt>
<totfact> 0.81474654E+03</totfact>
</mgrwt>
</event>
<event>
 9    1  0.2031653E-002  0.2608720E+03  0.7818608E-02  0.1106620E+00
          1   -1    0    0  501    0  0.00000000000E+00  0.00000000000E+00  0.15391501430E+03  0.15391501430E+03  0.00000000000E+00 0.  1.
         -1   -1    0    0    0  501 -0.00000000000E+00 -0.00000000000E+00 -0.11053858111E+03  0.11053858111E+03  0.00000000000E+00 0.  1.
         36    2    1    2    0    0  0.00000000000E+00 -0.35527136788E-14  0.43376433192E+02  0.26445359541E+03  0.26087197850E+03 0.  0.
         25    2    3    3    0    0  0.32539042254E+02  0.12753393224E+02  0.36252979635E+02  0.13309069534E+03  0.12319665719E+03 0.  0.
         25    2    3    3    0    0 -0.32539042254E+02 -0.12753393224E+02  0.71234535569E+01  0.13136290007E+03  0.12642796216E+03 0.  0.
          5    1    4    4  502    0 -0.62254246036E+01 -0.80651550365E+01 -0.41847212223E+02  0.43325302169E+02  0.47000000000E+01 0.  1.
         -5    1    4    4    0  502  0.38764466858E+02  0.20818548261E+02  0.78100191858E+02  0.89765393168E+02  0.47000000000E+01 0.  1.
          5    1    5    5  503    0 -0.26371878341E+02  0.35591799494E+02  0.49511163644E+02  0.66601032153E+02  0.47000000000E+01 0.  1.
         -5    1    5    5    0  503 -0.61671639126E+01 -0.48345192718E+02 -0.42387710087E+02  0.64761867917E+02  0.47000000000E+01 0.  1.
<mgrwt>
<rscale>  0 0.26087198E+03</rscale>
<asrwt>0</asrwt>
<pdfrwt beam="1">  1        1 0.23679233E-01 0.26087198E+03</pdfrwt>
<pdfrwt beam="2">  1       -1 0.17005935E-01 0.26087198E+03</pdfrwt>
<totfact> 0.53346519E+03</totfact>
</mgrwt>
</event>
<event>
 9    1  0.2031653E-002  0.2745210E+03  0.7818608E-02  0.1098720E+00
         -2   -1    0    0    0  501 -0.00000000000E+00  0.00000000000E+00  0.11817916723E+02  0.11817916723E+02  0.00000000000E+00 0.  1.
          2   -1    0    0  501    0  0.00000000000E+00 -0.00000000000E+00 -0.15942266890E+04  0.15942266890E+04  0.00000000000E+00 0.  1.
         36    2    1    2    0    0 -0.88817841970E-15  0.00000000000E+00 -0.15824087723E+04  0.16060446058E+04  0.27452095183E+03 0.  0.
         25    2    3    3    0    0  0.65703215674E+01 -0.50828003925E+02 -0.78340540172E+03  0.79493666453E+03  0.12479431903E+03 0.  0.
         25    2    3    3    0    0 -0.65703215674E+01  0.50828003925E+02 -0.79900337058E+03  0.81110794122E+03  0.12985781068E+03 0.  0.
          5    1    4    4  502    0 -0.90162416134E+01  0.35261446123E+02 -0.11249453786E+03  0.11832908875E+03  0.47000000000E+01 0.  1.
         -5    1    4    4    0  502  0.15586563181E+02 -0.86089450048E+02 -0.67091086386E+03  0.67660757578E+03  0.47000000000E+01 0.  1.
          5    1    5    5  503    0  0.17398912494E+00  0.15731035148E+02 -0.63012902351E+01  0.17586699453E+02  0.47000000000E+01 0. -1.
         -5    1    5    5    0  503 -0.67443106923E+01  0.35096968777E+02 -0.79270208035E+03  0.79352124177E+03  0.47000000000E+01 0. -1.
<mgrwt>
<rscale>  0 0.27452095E+03</rscale>
<asrwt>0</asrwt>
<pdfrwt beam="1">  1        2 0.24526561E+00 0.27452095E+03</pdfrwt>
<pdfrwt beam="2">  1       -2 0.18181413E-02 0.27452095E+03</pdfrwt>
<totfact> 0.10810190E+04</totfact>
</mgrwt>
</event>
<event>
 9    1  0.2031653E-002  0.2749539E+03  0.7818608E-02  0.1098477E+00
          2   -1    0    0  501    0  0.00000000000E+00  0.00000000000E+00  0.14469337422E+04  0.14469337422E+04  0.00000000000E+00 0. -1.
         -2   -1    0    0    0  501 -0.00000000000E+00 -0.00000000000E+00 -0.13062043866E+02  0.13062043866E+02  0.00000000000E+00 0. -1.
         36    2    1    2    0    0  0.00000000000E+00 -0.71054273576E-14  0.14338716983E+04  0.14599957860E+04  0.27495390167E+03 0.  0.
         25    2    3    3    0    0 -0.73971871014E+01  0.39806265806E+02  0.35426165319E+03  0.37174097894E+03  0.10512268706E+03 0.  0.
         25    2    3    3    0    0  0.73971871014E+01 -0.39806265806E+02  0.10796100451E+04  0.10882548071E+04  0.13077239182E+03 0.  0.
          5    1    4    4  502    0  0.12198504613E+02  0.47974992402E+02  0.34421511076E+03  0.34778806174E+03  0.47000000000E+01 0. -1.
         -5    1    4    4    0  502 -0.19595691714E+02 -0.81687265953E+01  0.10046542422E+02  0.23952917204E+02  0.47000000000E+01 0. -1.
          5    1    5    5  503    0  0.30037631575E+01  0.47775573711E+02  0.44646504703E+03  0.44904861235E+03  0.47000000000E+01 0. -1.
         -5    1    5    5    0  503  0.43934239439E+01 -0.87581839517E+02  0.63314499808E+03  0.63920619473E+03  0.47000000000E+01 0. -1.
<mgrwt>
<rscale>  0 0.27495390E+03</rscale>
<asrwt>0</asrwt>
<pdfrwt beam="1">  1        2 0.22260506E+00 0.27495390E+03</pdfrwt>
<pdfrwt beam="2">  1       -2 0.20095464E-02 0.27495390E+03</pdfrwt>
<totfact> 0.11185244E+04</totfact>
</mgrwt>
</event>
<event>
 9    1  0.2031653E-002  0.2720110E+03  0.7818608E-02  0.1100134E+00
          4   -1    0    0  501    0  0.00000000000E+00  0.00000000000E+00  0.30502585213E+03  0.30502585213E+03  0.00000000000E+00 0. -1.
         -4   -1    0    0    0  501 -0.00000000000E+00 -0.00000000000E+00 -0.60642386405E+02  0.60642386405E+02  0.00000000000E+00 0. -1.
         36    2    1    2    0    0  0.00000000000E+00 -0.71054273576E-14  0.24438346573E+03  0.36566823854E+03  0.27201099675E+03 0.  0.
         25    2    3    3    0    0  0.35639124620E+02 -0.22751023719E+02  0.13014882366E+03  0.18946043219E+03  0.13102970191E+03 0.  0.
         25    2    3    3    0    0 -0.35639124620E+02  0.22751023719E+02  0.11423464207E+03  0.17620780634E+03  0.12732588615E+03 0.  0.
          5    1    4    4  502    0 -0.30585028677E+02  0.21696259088E+02  0.94874298969E+02  0.10212440571E+03  0.47000000000E+01 0. -1.
         -5    1    4    4    0  502  0.66224153297E+02 -0.44447282807E+02  0.35274524690E+02  0.87336026478E+02  0.47000000000E+01 0. -1.
          5    1    5    5  503    0 -0.45911541138E+02  0.10861197789E+02  0.13879797837E+03  0.14667243785E+03  0.47000000000E+01 0. -1.
         -5    1    5    5    0  503  0.10272416518E+02  0.11889825930E+02 -0.24563336299E+02  0.29535368491E+02  0.47000000000E+01 0. -1.
<mgrwt>
<rscale>  0 0.27201100E+03</rscale>
<asrwt>0</asrwt>
<pdfrwt beam="1">  1        4 0.46927053E-01 0.27201100E+03</pdfrwt>
<pdfrwt beam="2">  1       -4 0.93295981E-02 0.27201100E+03</pdfrwt>
<totfact> 0.70519832E+02</totfact>
</mgrwt>
</event>
<event>
 9    1  0.2031653E-002  0.2781098E+03  0.7818608E-02  0.1096726E+00
          2   -1    0    0  501    0  0.00000000000E+00  0.00000000000E+00  0.10308837962E+04  0.10308837962E+04  0.00000000000E+00 0. -1.
         -2   -1    0    0    0  501 -0.00000000000E+00 -0.00000000000E+00 -0.18756977244E+02  0.18756977244E+02  0.00000000000E+00 0. -1.
         36    2    1    2    0    0 -0.71054273576E-14  0.71054273576E-14  0.10121268189E+04  0.10496407734E+04  0.27810979060E+03 0.  0.
         25    2    3    3    0    0 -0.17052573768E+02  0.15082234158E+02  0.37193649975E+03  0.39753486516E+03  0.13848806847E+03 0.  0.
         25    2    3    3    0    0  0.17052573768E+02 -0.15082234158E+02  0.64019031918E+03  0.65210590827E+03  0.12198445296E+03 0.  0.
          5    1    4    4  502    0  0.56633089508E+02  0.27569772930E+02  0.20640626880E+03  0.21585420312E+03  0.47000000000E+01 0.  1.
         -5    1    4    4    0  502 -0.73685663276E+02 -0.12487538772E+02  0.16553023095E+03  0.18168066203E+03  0.47000000000E+01 0.  1.
          5    1    5    5  503    0  0.24800942647E+02  0.50138194206E+02  0.23578298254E+03  0.24237291543E+03  0.47000000000E+01 0.  1.
         -5    1    5    5    0  503 -0.77483688783E+01 -0.65220428364E+02  0.40440733664E+03  0.40973299284E+03  0.47000000000E+01 0.  1.
<mgrwt>
<rscale>  0 0.27810979E+03</rscale>
<asrwt>0</asrwt>
<pdfrwt beam="1">  1        2 0.15859746E+00 0.27810979E+03</pdfrwt>
<pdfrwt beam="2">  1       -2 0.28856896E-02 0.27810979E+03</pdfrwt>
<totfact> 0.11261860E+04</totfact>
</mgrwt>
</event>
<event>
 9    1  0.2031653E-002  0.2755665E+03  0.7818608E-02  0.1098135E+00
         -2   -1    0    0    0  501 -0.00000000000E+00  0.00000000000E+00  0.40219361445E+02  0.40219361445E+02  0.00000000000E+00 0.  1.
          2   -1    0    0  501    0  0.00000000000E+00 -0.00000000000E+00 -0.47201714609E+03  0.47201714609E+03  0.00000000000E+00 0.  1.
         36    2    1    2    0    0  0.00000000000E+00  0.00000000000E+00 -0.43179778464E+03  0.51223650753E+03  0.27556653067E+03 0.  0.
         25    2    3    3    0    0 -0.40847993057E+02  0.60324746060E+01 -0.28065725309E+03  0.31005133775E+03  0.12513348489E+03 0.  0.
         25    2    3    3    0    0  0.40847993057E+02 -0.60324746060E+01 -0.15114053156E+03  0.20218516979E+03  0.12779058383E+03 0.  0.
          5    1    4    4  502    0 -0.27885140507E+02 -0.51450158024E+02 -0.20935804616E+03  0.21743408499E+03  0.47000000000E+01 0.  1.
         -5    1    4    4    0  502 -0.12962852550E+02  0.57482632630E+02 -0.71299206924E+02  0.92617252757E+02  0.47000000000E+01 0.  1.
          5    1    5    5  503    0 -0.21694730848E+02 -0.46521515456E+02 -0.97407499226E+02  0.11020537034E+03  0.47000000000E+01 0.  1.
         -5    1    5    5    0  503  0.62542723905E+02  0.40489040850E+02 -0.53733032331E+02  0.91979799445E+02  0.47000000000E+01 0.  1.
<mgrwt>
<rscale>  0 0.27556653E+03</rscale>
<asrwt>0</asrwt>
<pdfrwt beam="1">  1        2 0.72618019E-01 0.27556653E+03</pdfrwt>
<pdfrwt beam="2">  1       -2 0.61875944E-02 0.27556653E+03</pdfrwt>
<totfact> 0.93195495E+03</totfact>
</mgrwt>
</event>
<event>
 9    1  0.2031653E-002  0.2747902E+03  0.7818608E-02  0.1098569E+00
          2   -1    0    0  501    0  0.00000000000E+00  0.00000000000E+00  0.20349383119E+02  0.20349383119E+02  0.00000000000E+00 0.  1.
         -2   -1    0    0    0  501 -0.00000000000E+00 -0.00000000000E+00 -0.92766513371E+03  0.92766513371E+03  0.00000000000E+00 0.  1.
         36    2    1    2    0    0 -0.71054273576E-14 -0.71054273576E-14 -0.90731575059E+03  0.94801451683E+03  0.27479019787E+03 0.  0.
         25    2    3    3    0    0  0.38288452690E+02  0.27543081149E+02 -0.53838985916E+03  0.55476865166E+03  0.12521976478E+03 0.  0.
         25    2    3    3    0    0 -0.38288452690E+02 -0.27543081149E+02 -0.36892589143E+03  0.39324586517E+03  0.12771597463E+03 0.  0.
          5    1    4    4  502    0  0.14000975836E+02  0.73708855148E+02 -0.23030203557E+03  0.24226048015E+03  0.47000000000E+01 0.  1.
         -5    1    4    4    0  502  0.24287476854E+02 -0.46165773999E+02 -0.30808782358E+03  0.31250817151E+03  0.47000000000E+01 0.  1.
          5    1    5    5  503    0 -0.20448237666E+02  0.13094061989E+01  0.16537183614E+01  0.21087194045E+02  0.47000000000E+01 0.  1.
         -5    1    5    5    0  503 -0.17840215023E+02 -0.28852487348E+02 -0.37057960980E+03  0.37215867113E+03  0.47000000000E+01 0.  1.
<mgrwt>
<rscale>  0 0.27479020E+03</rscale>
<asrwt>0</asrwt>
<pdfrwt beam="1">  1        2 0.31306743E-02 0.27479020E+03</pdfrwt>
<pdfrwt beam="2">  1       -2 0.14271771E+00 0.27479020E+03</pdfrwt>
<totfact> 0.10654415E+03</totfact>
</mgrwt>
</event>
<event>
 9    1  0.2031653E-002  0.2600992E+03  0.7818608E-02  0.1107084E+00
         -2   -1    0    0    0  501 -0.00000000000E+00  0.00000000000E+00  0.86844287784E+03  0.86844287784E+03  0.00000000000E+00 0. -1.
          2   -1    0    0  501    0  0.00000000000E+00 -0.00000000000E+00 -0.19474963587E+02  0.19474963587E+02  0.00000000000E+00 0. -1.
         36    2    1    2    0    0  0.71054273576E-14  0.00000000000E+00  0.84896791425E+03  0.88791784143E+03  0.26009916127E+03 0.  0.
         25    2    3    3    0    0 -0.19757718313E+02 -0.28190262333E+02  0.45231675899E+03  0.47074871486E+03  0.12581273289E+03 0.  0.
         25    2    3    3    0    0  0.19757718313E+02  0.28190262333E+02  0.39665115526E+03  0.41716912656E+03  0.12455072406E+03 0.  0.
          5    1    4    4  502    0  0.21249248892E+02 -0.51901049188E+02  0.38017358471E+03  0.38431665849E+03  0.47000000000E+01 0. -1.
         -5    1    4    4    0  502 -0.41006967205E+02  0.23710786855E+02  0.72143174287E+02  0.86432056373E+02  0.47000000000E+01 0. -1.
          5    1    5    5  503    0 -0.67650083899E+01 -0.75735359177E+01 -0.55451091008E+01  0.12488475478E+02  0.47000000000E+01 0.  1.
         -5    1    5    5    0  503  0.26522726703E+02  0.35763798251E+02  0.40219626436E+03  0.40468065108E+03  0.47000000000E+01 0.  1.
<mgrwt>
<rscale>  0 0.26009916E+03</rscale>
<asrwt>0</asrwt>
<pdfrwt beam="1">  1        2 0.29961489E-02 0.26009916E+03</pdfrwt>
<pdfrwt beam="2">  1       -2 0.13360657E+00 0.26009916E+03</pdfrwt>
<totfact> 0.13336787E+03</totfact>
</mgrwt>
</event>
<event>
 9    1  0.2031653E-002  0.2748152E+03  0.7818608E-02  0.1098555E+00
         -1   -1    0    0    0  501 -0.00000000000E+00  0.00000000000E+00  0.22298068295E+02  0.22298068295E+02  0.00000000000E+00 0.  1.
          1   -1    0    0  501    0  0.00000000000E+00 -0.00000000000E+00 -0.84674826939E+03  0.84674826939E+03  0.00000000000E+00 0.  1.
         36    2    1    2    0    0  0.00000000000E+00 -0.17763568394E-14 -0.82445020109E+03  0.86904633768E+03  0.27481521602E+03 0.  0.
         25    2    3    3    0    0 -0.59214975104E+02  0.72866634328E+01 -0.32543890709E+03  0.35167511327E+03  0.11918638472E+03 0.  0.
         25    2    3    3    0    0  0.59214975104E+02 -0.72866634328E+01 -0.49901129400E+03  0.51737122441E+03  0.12288695444E+03 0.  0.
          5    1    4    4  502    0 -0.12165365855E+02  0.33393284575E+02 -0.19117908676E+02  0.40628709225E+02  0.47000000000E+01 0.  1.
         -5    1    4    4    0  502 -0.47049609249E+02 -0.26106621143E+02 -0.30632099842E+03  0.31104640405E+03  0.47000000000E+01 0.  1.
          5    1    5    5  503    0  0.10563696001E+02  0.11271560949E+02 -0.53017408121E+00  0.16155830031E+02  0.47000000000E+01 0.  1.
         -5    1    5    5    0  503  0.48651279103E+02 -0.18558224381E+02 -0.49848111992E+03  0.50121539438E+03  0.47000000000E+01 0.  1.
<mgrwt>
<rscale>  0 0.27481522E+03</rscale>
<asrwt>0</asrwt>
<pdfrwt beam="1">  1        1 0.13026896E+00 0.27481522E+03</pdfrwt>
<pdfrwt beam="2">  1       -1 0.34304721E-02 0.27481522E+03</pdfrwt>
<totfact> 0.65049452E+03</totfact>
</mgrwt>
</event>
<event>
 9    1  0.2031653E-002  0.2741104E+03  0.7818608E-02  0.1098950E+00
         -1   -1    0    0    0  501 -0.00000000000E+00  0.00000000000E+00  0.22192752658E+03  0.22192752658E+03  0.00000000000E+00 0.  1.
          1   -1    0    0  501    0  0.00000000000E+00 -0.00000000000E+00 -0.84640820966E+02  0.84640820966E+02  0.00000000000E+00 0.  1.
         36    2    1    2    0    0  0.71054273576E-14  0.00000000000E+00  0.13728670562E+03  0.30656834755E+03  0.27411040144E+03 0.  0.
         25    2    3    3    0    0 -0.39354918954E+02 -0.38585252307E+02  0.80426364404E+02  0.15961026543E+03  0.12637011275E+03 0.  0.
         25    2    3    3    0    0  0.39354918954E+02  0.38585252307E+02  0.56860341213E+02  0.14695808212E+03  0.12379801354E+03 0.  0.
          5    1    4    4  502    0 -0.57703424139E+02  0.28890282514E+02  0.21917185527E+02  0.68313882941E+02  0.47000000000E+01 0. -1.
         -5    1    4    4    0  502  0.18348505185E+02 -0.67475534821E+02  0.58509178877E+02  0.91296382484E+02  0.47000000000E+01 0. -1.
          5    1    5    5  503    0  0.25650384378E+02 -0.44202942510E+02  0.18284708921E+02  0.54481766909E+02  0.47000000000E+01 0. -1.
         -5    1    5    5    0  503  0.13704534576E+02  0.82788194816E+02  0.38575632292E+02  0.92476315214E+02  0.47000000000E+01 0. -1.
<mgrwt>
<rscale>  0 0.27411040E+03</rscale>
<asrwt>0</asrwt>
<pdfrwt beam="1">  1        1 0.13021665E-01 0.27411040E+03</pdfrwt>
<pdfrwt beam="2">  1       -1 0.34142696E-01 0.27411040E+03</pdfrwt>
<totfact> 0.36542695E+03</totfact>
</mgrwt>
</event>
<event>
 9    1  0.2031653E-002  0.2755622E+03  0.7818608E-02  0.1098138E+00
         -2   -1    0    0    0  501 -0.00000000000E+00  0.00000000000E+00  0.53583327459E+03  0.53583327459E+03  0.00000000000E+00 0.  1.
          2   -1    0    0  501    0  0.00000000000E+00 -0.00000000000E+00 -0.35428242337E+02  0.35428242337E+02  0.00000000000E+00 0.  1.
         36    2    1    2    0    0  0.00000000000E+00  0.21316282073E-13  0.50040503226E+03  0.57126151693E+03  0.27556219701E+03 0.  0.
         25    2    3    3    0    0 -0.95590673290E+01 -0.56113561834E+02  0.22526778162E+03  0.26411389747E+03  0.12558053118E+03 0.  0.
         25    2    3    3    0    0  0.95590673290E+01  0.56113561834E+02  0.27513725064E+03  0.30714761946E+03  0.12409289207E+03 0.  0.
          5    1    4    4  502    0 -0.31304741040E+02  0.17242382415E+02  0.15821754853E+03  0.16227189907E+03  0.47000000000E+01 0.  1.
         -5    1    4    4    0  502  0.21745673711E+02 -0.73355944249E+02  0.67050233087E+02  0.10184199840E+03  0.47000000000E+01 0.  1.
          5    1    5    5  503    0 -0.29916920155E+01 -0.39533806766E+02  0.82823467234E+02  0.91943943919E+02  0.47000000000E+01 0. -1.
         -5    1    5    5    0  503  0.12550759345E+02  0.95647368601E+02  0.19231378340E+03  0.21520367554E+03  0.47000000000E+01 0. -1.
<mgrwt>
<rscale>  0 0.27556220E+03</rscale>
<asrwt>0</asrwt>
<pdfrwt beam="1">  1        2 0.54504992E-02 0.27556220E+03</pdfrwt>
<pdfrwt beam="2">  1       -2 0.82435882E-01 0.27556220E+03</pdfrwt>
<totfact> 0.18651569E+03</totfact>
</mgrwt>
</event>
<event>
 9    1  0.2031653E-002  0.2740085E+03  0.7818608E-02  0.1099007E+00
         -1   -1    0    0    0  501 -0.00000000000E+00  0.00000000000E+00  0.29709415895E+02  0.29709415895E+02  0.00000000000E+00 0.  1.
          1   -1    0    0  501    0  0.00000000000E+00 -0.00000000000E+00 -0.63179154694E+03  0.63179154694E+03  0.00000000000E+00 0.  1.
         36    2    1    2    0    0  0.00000000000E+00  0.00000000000E+00 -0.60208213105E+03  0.66150096284E+03  0.27400845116E+03 0.  0.
         25    2    3    3    0    0  0.10068684233E+01  0.51074392959E+02 -0.29458018662E+03  0.32446015654E+03  0.12604483104E+03 0.  0.
         25    2    3    3    0    0 -0.10068684233E+01 -0.51074392959E+02 -0.30750194443E+03  0.33704080630E+03  0.12817742345E+03 0.  0.
          5    1    4    4  502    0  0.77633861799E+01 -0.11541573429E+02  0.70515463409E+01  0.16287798746E+02  0.47000000000E+01 0.  1.
         -5    1    4    4    0  502 -0.67565177567E+01  0.62615966388E+02 -0.30163173296E+03  0.30817235779E+03  0.47000000000E+01 0.  1.
          5    1    5    5  503    0 -0.54308881671E+02 -0.34968408366E+02 -0.24402010238E+03  0.25246810606E+03  0.47000000000E+01 0.  1.
         -5    1    5    5    0  503  0.53302013247E+02 -0.16105984593E+02 -0.63481842051E+02  0.84572700241E+02  0.47000000000E+01 0.  1.
<mgrwt>
<rscale>  0 0.27400845E+03</rscale>
<asrwt>0</asrwt>
<pdfrwt beam="1">  1        1 0.97198688E-01 0.27400845E+03</pdfrwt>
<pdfrwt beam="2">  1       -1 0.45706799E-02 0.27400845E+03</pdfrwt>
<totfact> 0.65628178E+03</totfact>
</mgrwt>
</event>
<event>
 9    1  0.2031653E-002  0.2735837E+03  0.7818608E-02  0.1099246E+00
         -2   -1    0    0    0  501 -0.00000000000E+00  0.00000000000E+00  0.10143843387E+02  0.10143843387E+02  0.00000000000E+00 0.  1.
          2   -1    0    0  501    0  0.00000000000E+00 -0.00000000000E+00 -0.18446673610E+04  0.18446673610E+04  0.00000000000E+00 0.  1.
         36    2    1    2    0    0  0.71054273576E-14  0.00000000000E+00 -0.18345235176E+04  0.18548112044E+04  0.27358374813E+03 0.  0.
         25    2    3    3    0    0 -0.62741204980E+02 -0.24367683733E+02 -0.95713435830E+03  0.96622481842E+03  0.11381553977E+03 0.  0.
         25    2    3    3    0    0  0.62741204980E+02  0.24367683733E+02 -0.87738915929E+03  0.88858638594E+03  0.12346572649E+03 0.  0.
          5    1    4    4  502    0 -0.72028194076E+02  0.19537959235E+02 -0.37740069362E+03  0.38473778881E+03  0.47000000000E+01 0. -1.
         -5    1    4    4    0  502  0.92869890964E+01 -0.43905642968E+02 -0.57973366468E+03  0.58148702961E+03  0.47000000000E+01 0. -1.
          5    1    5    5  503    0 -0.76234234029E+01 -0.31975047504E+02 -0.47673367313E+03  0.47788869555E+03  0.47000000000E+01 0. -1.
         -5    1    5    5    0  503  0.70364628382E+02  0.56342731237E+02 -0.40065548616E+03  0.41069769038E+03  0.47000000000E+01 0. -1.
<mgrwt>
<rscale>  0 0.27358375E+03</rscale>
<asrwt>0</asrwt>
<pdfrwt beam="1">  1        2 0.28379520E+00 0.27358375E+03</pdfrwt>
<pdfrwt beam="2">  1       -2 0.15605901E-02 0.27358375E+03</pdfrwt>
<totfact> 0.99809694E+03</totfact>
</mgrwt>
</event>
<event>
 9    1  0.2031653E-002  0.2745763E+03  0.7818608E-02  0.1098689E+00
          1   -1    0    0  501    0  0.00000000000E+00  0.00000000000E+00  0.13783311617E+04  0.13783311617E+04  0.00000000000E+00 0.  1.
         -1   -1    0    0    0  501 -0.00000000000E+00 -0.00000000000E+00 -0.13674530151E+02  0.13674530151E+02  0.00000000000E+00 0.  1.
         36    2    1    2    0    0  0.00000000000E+00 -0.35527136788E-14  0.13646566315E+04  0.13920056918E+04  0.27457626284E+03 0.  0.
         25    2    3    3    0    0  0.50962813317E+02  0.27989655917E+02  0.79093329003E+03  0.80286200019E+03  0.12502516899E+03 0.  0.
         25    2    3    3    0    0 -0.50962813317E+02 -0.27989655917E+02  0.57372334147E+03  0.58914369162E+03  0.12062830368E+03 0.  0.
          5    1    4    4  502    0  0.50731409561E+02  0.48395915146E+02  0.20793679284E+03  0.21948949937E+03  0.47000000000E+01 0. -1.
         -5    1    4    4    0  502  0.23140375610E+00 -0.20406259230E+02  0.58299649720E+03  0.58337250082E+03  0.47000000000E+01 0. -1.
          5    1    5    5  503    0 -0.23669085318E+01 -0.18211669343E+02  0.69549103841E+01  0.20192274134E+02  0.47000000000E+01 0.  1.
         -5    1    5    5    0  503 -0.48595904786E+02 -0.97779865734E+01  0.56676843108E+03  0.56895141748E+03  0.47000000000E+01 0.  1.
<mgrwt>
<rscale>  0 0.27457626E+03</rscale>
<asrwt>0</asrwt>
<pdfrwt beam="1">  1        1 0.21205084E+00 0.27457626E+03</pdfrwt>
<pdfrwt beam="2">  1       -1 0.21037750E-02 0.27457626E+03</pdfrwt>
<totfact> 0.54953404E+03</totfact>
</mgrwt>
</event>
<event>
 9    1  0.2031653E-002  0.2759494E+03  0.7818608E-02  0.1097922E+00
         -1   -1    0    0    0  501 -0.00000000000E+00  0.00000000000E+00  0.50918584133E+02  0.50918584133E+02  0.00000000000E+00 0.  1.
          1   -1    0    0  501    0  0.00000000000E+00 -0.00000000000E+00 -0.37387164486E+03  0.37387164486E+03  0.00000000000E+00 0.  1.
         36    2    1    2    0    0 -0.35527136788E-14  0.71054273576E-14 -0.32295306073E+03  0.42479022900E+03  0.27594937800E+03 0.  0.
         25    2    3    3    0    0 -0.17408663200E+02 -0.35747695974E+02 -0.21742496021E+03  0.25407357828E+03  0.12529489429E+03 0.  0.
         25    2    3    3    0    0  0.17408663200E+02  0.35747695974E+02 -0.10552810052E+03  0.17071665072E+03  0.12816799722E+03 0.  0.
          5    1    4    4  502    0  0.10297176178E+02 -0.67445277178E+02 -0.59768953014E+02  0.90825739718E+02  0.47000000000E+01 0.  1.
         -5    1    4    4    0  502 -0.27705839378E+02  0.31697581204E+02 -0.15765600720E+03  0.16324783856E+03  0.47000000000E+01 0.  1.
          5    1    5    5  503    0  0.33073678988E+02  0.79861509837E+02 -0.75805369618E+02  0.11506638544E+03  0.47000000000E+01 0. -1.
         -5    1    5    5    0  503 -0.15665015788E+02 -0.44113813863E+02 -0.29722730901E+02  0.55650265277E+02  0.47000000000E+01 0. -1.
<mgrwt>
<rscale>  0 0.27594938E+03</rscale>
<asrwt>0</asrwt>
<pdfrwt beam="1">  1        1 0.57518718E-01 0.27594938E+03</pdfrwt>
<pdfrwt beam="2">  1       -1 0.78336278E-02 0.27594938E+03</pdfrwt>
<totfact> 0.58452687E+03</totfact>
</mgrwt>
</event>
<event>
 8    1  0.2031653E-002  0.2586690E+03  0.7818608E-02  0.1107946E+00
          2   -1    0    0  501    0  0.00000000000E+00  0.00000000000E+00  0.33678590093E+03  0.33678590093E+03  0.00000000000E+00 0. -1.
         -2   -1    0    0    0  501 -0.00000000000E+00 -0.00000000000E+00 -0.49667812089E+02  0.49667812089E+02  0.00000000000E+00 0. -1.
         25    2    1    2    0    0 -0.16107758756E+02  0.32336945170E+02  0.93225136271E+02  0.15475800817E+03  0.11812695351E+03 0.  0.
         25    2    1    2    0    0  0.16107758756E+02 -0.32336945170E+02  0.19389295257E+03  0.23169570485E+03  0.12158653163E+03 0.  0.
          5    1    3    3  502    0 -0.72463926978E-01  0.10710037992E+02 -0.28076669828E+02  0.30415449256E+02  0.47000000000E+01 0.  1.
         -5    1    3    3    0  502 -0.16035294829E+02  0.21626907178E+02  0.12130180610E+03  0.12434255891E+03  0.47000000000E+01 0.  1.
          5    1    4    4  503    0 -0.35427363372E+02  0.27369413165E+02  0.48156963583E+02  0.65919390122E+02  0.47000000000E+01 0.  1.
         -5    1    4    4    0  503  0.51535122128E+02 -0.59706358335E+02  0.14573598899E+03  0.16577631473E+03  0.47000000000E+01 0.  1.
<mgrwt>
<rscale>  0 0.25866905E+03</rscale>
<asrwt>0</asrwt>
<pdfrwt beam="1">  1        2 0.51813214E-01 0.25866905E+03</pdfrwt>
<pdfrwt beam="2">  1       -2 0.76412021E-02 0.25866905E+03</pdfrwt>
<totfact> 0.96854432E+03</totfact>
</mgrwt>
</event>
<event>
 9    1  0.2031653E-002  0.2749845E+03  0.7818608E-02  0.1098460E+00
         -1   -1    0    0    0  501 -0.00000000000E+00  0.00000000000E+00  0.68348013485E+02  0.68348013485E+02  0.00000000000E+00 0.  1.
          1   -1    0    0  501    0  0.00000000000E+00 -0.00000000000E+00 -0.27658631833E+03  0.27658631833E+03  0.00000000000E+00 0.  1.
         36    2    1    2    0    0  0.00000000000E+00  0.00000000000E+00 -0.20823830485E+03  0.34493433181E+03  0.27498454804E+03 0.  0.
         25    2    3    3    0    0 -0.17536957210E+02 -0.46225837647E+02 -0.15512448875E+03  0.20353060178E+03  0.12213404896E+03 0.  0.
         25    2    3    3    0    0  0.17536957210E+02  0.46225837647E+02 -0.53113816096E+02  0.14140373004E+03  0.12136541713E+03 0.  0.
          5    1    4    4  502    0  0.13756683526E+02 -0.80178926779E+02 -0.74027221239E+02  0.11009099021E+03  0.47000000000E+01 0.  1.
         -5    1    4    4    0  502 -0.31293640736E+02  0.33953089131E+02 -0.81097267511E+02  0.93439611567E+02  0.47000000000E+01 0.  1.
          5    1    5    5  503    0  0.43311267143E+02 -0.89165277264E+01  0.17739891208E+02  0.47876550297E+02  0.47000000000E+01 0.  1.
         -5    1    5    5    0  503 -0.25774309933E+02  0.55142365374E+02 -0.70853707304E+02  0.93527179741E+02  0.47000000000E+01 0.  1.
<mgrwt>
<rscale>  0 0.27498455E+03</rscale>
<asrwt>0</asrwt>
<pdfrwt beam="1">  1        1 0.42551741E-01 0.27498455E+03</pdfrwt>
<pdfrwt beam="2">  1       -1 0.10515079E-01 0.27498455E+03</pdfrwt>
<totfact> 0.54382594E+03</totfact>
</mgrwt>
</event>
<event>
 9    1  0.2031653E-002  0.2746833E+03  0.7818608E-02  0.1098629E+00
          1   -1    0    0  501    0  0.00000000000E+00  0.00000000000E+00  0.84754389812E+02  0.84754389812E+02  0.00000000000E+00 0.  1.
         -1   -1    0    0    0  501 -0.00000000000E+00 -0.00000000000E+00 -0.22255760907E+03  0.22255760907E+03  0.00000000000E+00 0.  1.
         36    2    1    2    0    0  0.00000000000E+00  0.35527136788E-14 -0.13780321926E+03  0.30731199888E+03  0.27468334027E+03 0.  0.
         25    2    3    3    0    0 -0.24930673915E+02  0.22323335263E+02 -0.13037745719E+03  0.17922731826E+03  0.11833968256E+03 0.  0.
         25    2    3    3    0    0  0.24930673915E+02 -0.22323335263E+02 -0.74257620689E+01  0.12808468062E+03  0.12341261552E+03 0.  0.
          5    1    4    4  502    0  0.14547912465E+02  0.15951871347E+02  0.16085726039E+02  0.27330286108E+02  0.47000000000E+01 0.  1.
         -5    1    4    4    0  502 -0.39478586380E+02  0.63714639153E+01 -0.14646318323E+03  0.15189703215E+03  0.47000000000E+01 0.  1.
          5    1    5    5  503    0 -0.10796973557E+00 -0.36174790536E+02  0.51090719219E+02  0.62777214960E+02  0.47000000000E+01 0. -1.
         -5    1    5    5    0  503  0.25038643651E+02  0.13851455274E+02 -0.58516481288E+02  0.65307465663E+02  0.47000000000E+01 0. -1.
<mgrwt>
<rscale>  0 0.27468334E+03</rscale>
<asrwt>0</asrwt>
<pdfrwt beam="1">  1        1 0.13039137E-01 0.27468334E+03</pdfrwt>
<pdfrwt beam="2">  1       -1 0.34239631E-01 0.27468334E+03</pdfrwt>
<totfact> 0.36301421E+03</totfact>
</mgrwt>
</event>
<event>
 9    1  0.2031653E-002  0.2749850E+03  0.7818608E-02  0.1098460E+00
          1   -1    0    0  501    0  0.00000000000E+00  0.00000000000E+00  0.37289555586E+03  0.37289555586E+03  0.00000000000E+00 0.  1.
         -1   -1    0    0    0  501 -0.00000000000E+00 -0.00000000000E+00 -0.50695669350E+02  0.50695669350E+02  0.00000000000E+00 0.  1.
         36    2    1    2    0    0  0.71054273576E-14  0.14210854715E-13  0.32219988651E+03  0.42359122522E+03  0.27498501634E+03 0.  0.
         25    2    3    3    0    0 -0.42470305249E+02  0.32645815551E+02  0.20296023508E+03  0.24369313999E+03  0.12379019894E+03 0.  0.
         25    2    3    3    0    0  0.42470305249E+02 -0.32645815551E+02  0.11923965144E+03  0.17989808523E+03  0.12359510707E+03 0.  0.
          5    1    4    4  502    0 -0.77613858231E+02  0.42635143484E+00  0.16557372117E+03  0.18292304367E+03  0.47000000000E+01 0.  1.
         -5    1    4    4    0  502  0.35143552982E+02  0.32219464116E+02  0.37386513908E+02  0.60770096316E+02  0.47000000000E+01 0.  1.
          5    1    5    5  503    0  0.11747673153E+02 -0.69626549881E+02  0.10987453986E+03  0.13069188491E+03  0.47000000000E+01 0.  1.
         -5    1    5    5    0  503  0.30722632096E+02  0.36980734330E+02  0.93651115811E+01  0.49206200315E+02  0.47000000000E+01 0.  1.
<mgrwt>
<rscale>  0 0.27498502E+03</rscale>
<asrwt>0</asrwt>
<pdfrwt beam="1">  1        1 0.57368545E-01 0.27498502E+03</pdfrwt>
<pdfrwt beam="2">  1       -1 0.77993340E-02 0.27498502E+03</pdfrwt>
<totfact> 0.59034966E+03</totfact>
</mgrwt>
</event>
<event>
 9    1  0.2031653E-002  0.2746771E+03  0.7818608E-02  0.1098632E+00
         -4   -1    0    0    0  501 -0.00000000000E+00  0.00000000000E+00  0.42281341501E+03  0.42281341501E+03  0.00000000000E+00 0. -1.
          4   -1    0    0  501    0  0.00000000000E+00 -0.00000000000E+00 -0.44610404214E+02  0.44610404214E+02  0.00000000000E+00 0. -1.
         36    2    1    2    0    0 -0.71054273576E-14  0.00000000000E+00  0.37820301080E+03  0.46742381923E+03  0.27467710025E+03 0.  0.
         25    2    3    3    0    0 -0.55892504121E+02 -0.21733397134E+02  0.19578653868E+03  0.23829589631E+03  0.12188622933E+03 0.  0.
         25    2    3    3    0    0  0.55892504121E+02  0.21733397134E+02  0.18241647212E+03  0.22912792292E+03  0.12501009237E+03 0.  0.
          5    1    4    4  502    0 -0.86375309248E+02  0.14672627003E+02  0.11806707190E+03  0.14709827836E+03  0.47000000000E+01 0. -1.
         -5    1    4    4    0  502  0.30482805127E+02 -0.36406024137E+02  0.77719466784E+02  0.91197617946E+02  0.47000000000E+01 0. -1.
          5    1    5    5  503    0  0.16869179928E+02 -0.35357715441E+02  0.14517939776E+03  0.15044562076E+03  0.47000000000E+01 0. -1.
         -5    1    5    5    0  503  0.39023324192E+02  0.57091112574E+02  0.37237074359E+02  0.78682302157E+02  0.47000000000E+01 0. -1.
<mgrwt>
<rscale>  0 0.27467710E+03</rscale>
<asrwt>0</asrwt>
<pdfrwt beam="1">  1        4 0.68631394E-02 0.27467710E+03</pdfrwt>
<pdfrwt beam="2">  1       -4 0.65048215E-01 0.27467710E+03</pdfrwt>
<totfact> 0.59573671E+02</totfact>
</mgrwt>
</event>
<event>
 9    1  0.2031653E-002  0.2754679E+03  0.7818608E-02  0.1098190E+00
         -1   -1    0    0    0  501 -0.00000000000E+00  0.00000000000E+00  0.13652266494E+03  0.13652266494E+03  0.00000000000E+00 0. -1.
          1   -1    0    0  501    0  0.00000000000E+00 -0.00000000000E+00 -0.13895602059E+03  0.13895602059E+03  0.00000000000E+00 0. -1.
         36    2    1    2    0    0  0.00000000000E+00  0.00000000000E+00 -0.24333556476E+01  0.27547868553E+03  0.27546793818E+03 0.  0.
         25    2    3    3    0    0  0.26988752499E+02 -0.40145873469E+02  0.37223325224E+02  0.13672588152E+03  0.12234503185E+03 0.  0.
         25    2    3    3    0    0 -0.26988752499E+02  0.40145873469E+02 -0.39656680871E+02  0.13875280401E+03  0.12385315646E+03 0.  0.
          5    1    4    4  502    0  0.45175555070E+02 -0.45062853580E+02 -0.27138570738E+02  0.69498802654E+02  0.47000000000E+01 0.  1.
         -5    1    4    4    0  502 -0.18186802571E+02  0.49169801106E+01  0.64361895961E+02  0.67227078866E+02  0.47000000000E+01 0.  1.
          5    1    5    5  503    0  0.29080092797E+02  0.57569990527E+02  0.49628785232E+01  0.64858891214E+02  0.47000000000E+01 0. -1.
         -5    1    5    5    0  503 -0.56068845295E+02 -0.17424117058E+02 -0.44619559394E+02  0.73893912797E+02  0.47000000000E+01 0. -1.
<mgrwt>
<rscale>  0 0.27546794E+03</rscale>
<asrwt>0</asrwt>
<pdfrwt beam="1">  1        1 0.21377849E-01 0.27546794E+03</pdfrwt>
<pdfrwt beam="2">  1       -1 0.21003487E-01 0.27546794E+03</pdfrwt>
<totfact> 0.43297592E+03</totfact>
</mgrwt>
</event>
<event>
 9    1  0.2031653E-002  0.2757888E+03  0.7818608E-02  0.1098012E+00
         -1   -1    0    0    0  501 -0.00000000000E+00  0.00000000000E+00  0.24061334539E+04  0.24061334539E+04  0.00000000000E+00 0.  1.
          1   -1    0    0  501    0  0.00000000000E+00 -0.00000000000E+00 -0.79026622521E+01  0.79026622521E+01  0.00000000000E+00 0.  1.
         36    2    1    2    0    0 -0.35527136788E-14  0.00000000000E+00  0.23982307917E+04  0.24140361162E+04  0.27578875989E+03 0.  0.
         25    2    3    3    0    0  0.47627052340E+01 -0.20068328615E+02  0.56462111176E+03  0.57626391201E+03  0.11339168962E+03 0.  0.
         25    2    3    3    0    0 -0.47627052340E+01  0.20068328615E+02  0.18336096799E+04  0.18377722041E+04  0.12188845283E+03 0.  0.
          5    1    4    4  502    0 -0.13098490390E+00  0.46766224548E+02  0.27195509135E+03  0.27598688126E+03  0.47000000000E+01 0. -1.
         -5    1    4    4    0  502  0.48936901379E+01 -0.66834553163E+02  0.29266602040E+03  0.30027703075E+03  0.47000000000E+01 0. -1.
          5    1    5    5  503    0  0.29300529888E+02  0.40096339310E+02  0.34071469453E+03  0.34434696244E+03  0.47000000000E+01 0.  1.
         -5    1    5    5    0  503 -0.34063235122E+02 -0.20028010695E+02  0.14928949854E+04  0.14934252417E+04  0.47000000000E+01 0.  1.
<mgrwt>
<rscale>  0 0.27578876E+03</rscale>
<asrwt>0</asrwt>
<pdfrwt beam="1">  1        1 0.12157961E-02 0.27578876E+03</pdfrwt>
<pdfrwt beam="2">  1       -1 0.37017379E+00 0.27578876E+03</pdfrwt>
<totfact> 0.16949170E+02</totfact>
</mgrwt>
</event>
<event>
 9    1  0.2031653E-002  0.2751398E+03  0.7818608E-02  0.1098373E+00
         -2   -1    0    0    0  501 -0.00000000000E+00  0.00000000000E+00  0.14530378004E+03  0.14530378004E+03  0.00000000000E+00 0.  1.
          2   -1    0    0  501    0  0.00000000000E+00 -0.00000000000E+00 -0.13024768614E+03  0.13024768614E+03  0.00000000000E+00 0.  1.
         36    2    1    2    0    0  0.00000000000E+00  0.71054273576E-14  0.15056093895E+02  0.27555146618E+03  0.27513982727E+03 0.  0.
         25    2    3    3    0    0  0.38887359889E+02  0.36717503696E+02 -0.14349538222E+02  0.13550008210E+03  0.12366875582E+03 0.  0.
         25    2    3    3    0    0 -0.38887359889E+02 -0.36717503696E+02  0.29405632117E+02  0.14005138408E+03  0.12605275541E+03 0.  0.
          5    1    4    4  502    0 -0.38933889848E+02 -0.87826498520E+01  0.11136071870E+02  0.41702335831E+02  0.47000000000E+01 0.  1.
         -5    1    4    4    0  502  0.77821249736E+02  0.45500153548E+02 -0.25485610093E+02  0.93797746269E+02  0.47000000000E+01 0.  1.
          5    1    5    5  503    0 -0.13652143114E+02 -0.43809723698E+02  0.74532864882E+02  0.87652215315E+02  0.47000000000E+01 0.  1.
         -5    1    5    5    0  503 -0.25235216774E+02  0.70922200011E+01 -0.45127232765E+02  0.52399168764E+02  0.47000000000E+01 0.  1.
<mgrwt>
<rscale>  0 0.27513983E+03</rscale>
<asrwt>0</asrwt>
<pdfrwt beam="1">  1        2 0.20038106E-01 0.27513983E+03</pdfrwt>
<pdfrwt beam="2">  1       -2 0.22354428E-01 0.27513983E+03</pdfrwt>
<totfact> 0.47674674E+03</totfact>
</mgrwt>
</event>
<event>
 9    1  0.2031653E-002  0.2709151E+03  0.7818608E-02  0.1100757E+00
          1   -1    0    0  501    0  0.00000000000E+00  0.00000000000E+00  0.21424079318E+04  0.21424079318E+04  0.00000000000E+00 0.  1.
         -1   -1    0    0    0  501 -0.00000000000E+00 -0.00000000000E+00 -0.85645440376E+01  0.85645440376E+01  0.00000000000E+00 0.  1.
         36    2    1    2    0    0  0.35527136788E-14 -0.71054273576E-14  0.21338433878E+04  0.21509724758E+04  0.27091509429E+03 0.  0.
         25    2    3    3    0    0 -0.15111445765E+02  0.42018093154E+02  0.13253892879E+04  0.13321932486E+04  0.12683931262E+03 0.  0.
         25    2    3    3    0    0  0.15111445765E+02 -0.42018093154E+02  0.80845409984E+03  0.81877922720E+03  0.12168613480E+03 0.  0.
          5    1    4    4  502    0  0.11930738360E+02 -0.30323850422E+02  0.84261202327E+03  0.84325499713E+03  0.47000000000E+01 0.  1.
         -5    1    4    4    0  502 -0.27042184125E+02  0.72341943576E+02  0.48277726466E+03  0.48893825152E+03  0.47000000000E+01 0.  1.
          5    1    5    5  503    0 -0.13599962112E+02 -0.57696618923E+02  0.74375057921E+03  0.74612389915E+03  0.47000000000E+01 0. -1.
         -5    1    5    5    0  503  0.28711407877E+02  0.15678525770E+02  0.64703520627E+02  0.72655328050E+02  0.47000000000E+01 0. -1.
<mgrwt>
<rscale>  0 0.27091509E+03</rscale>
<asrwt>0</asrwt>
<pdfrwt beam="1">  1        1 0.32960079E+00 0.27091509E+03</pdfrwt>
<pdfrwt beam="2">  1       -1 0.13176239E-02 0.27091509E+03</pdfrwt>
<totfact> 0.34357456E+03</totfact>
</mgrwt>
</event>
<event>
 9    1  0.2031653E-002  0.2745776E+03  0.7818608E-02  0.1098688E+00
         -2   -1    0    0    0  501 -0.00000000000E+00  0.00000000000E+00  0.12643151827E+03  0.12643151827E+03  0.00000000000E+00 0. -1.
          2   -1    0    0  501    0  0.00000000000E+00 -0.00000000000E+00 -0.14907848903E+03  0.14907848903E+03  0.00000000000E+00 0. -1.
         36    2    1    2    0    0  0.00000000000E+00  0.00000000000E+00 -0.22646970759E+02  0.27551000730E+03  0.27457763718E+03 0.  0.
         25    2    3    3    0    0 -0.11970383043E+02  0.36144718798E+02  0.31070293078E+02  0.13334233817E+03  0.12395598118E+03 0.  0.
         25    2    3    3    0    0  0.11970383043E+02 -0.36144718798E+02 -0.53717263838E+02  0.14216766913E+03  0.12600147199E+03 0.  0.
          5    1    4    4  502    0  0.45924544792E+02  0.47405930927E+02 -0.72367692492E+00  0.66174011589E+02  0.47000000000E+01 0. -1.
         -5    1    4    4    0  502 -0.57894927835E+02 -0.11261212129E+02  0.31793970003E+02  0.67168326585E+02  0.47000000000E+01 0. -1.
          5    1    5    5  503    0  0.19691708206E+01 -0.20755550313E+02  0.40645455260E+02  0.45921819822E+02  0.47000000000E+01 0. -1.
         -5    1    5    5    0  503  0.10001212222E+02 -0.15389168485E+02 -0.94362719097E+02  0.96245849303E+02  0.47000000000E+01 0. -1.
<mgrwt>
<rscale>  0 0.27457764E+03</rscale>
<asrwt>0</asrwt>
<pdfrwt beam="1">  1        2 0.22935152E-01 0.27457764E+03</pdfrwt>
<pdfrwt beam="2">  1       -2 0.19451003E-01 0.27457764E+03</pdfrwt>
<totfact> 0.51947723E+03</totfact>
</mgrwt>
</event>
<event>
 9    1  0.2031653E-002  0.2745597E+03  0.7818608E-02  0.1098698E+00
         -1   -1    0    0    0  501 -0.00000000000E+00  0.00000000000E+00  0.19171317679E+02  0.19171317679E+02  0.00000000000E+00 0.  1.
          1   -1    0    0  501    0  0.00000000000E+00 -0.00000000000E+00 -0.98301846517E+03  0.98301846517E+03  0.00000000000E+00 0.  1.
         36    2    1    2    0    0  0.00000000000E+00  0.35527136788E-14 -0.96384714749E+03  0.10021897828E+04  0.27455971504E+03 0.  0.
         25    2    3    3    0    0  0.55061902236E+02  0.15274228830E+02 -0.57750651430E+03  0.59242586990E+03  0.11911978060E+03 0.  0.
         25    2    3    3    0    0 -0.55061902236E+02 -0.15274228830E+02 -0.38634063319E+03  0.40976391294E+03  0.12402525692E+03 0.  0.
          5    1    4    4  502    0 -0.32779071745E+02 -0.51327438941E+00 -0.27519168634E+03  0.27717735338E+03  0.47000000000E+01 0.  1.
         -5    1    4    4    0  502  0.87840973981E+02  0.15787503219E+02 -0.30231482795E+03  0.31524851652E+03  0.47000000000E+01 0.  1.
          5    1    5    5  503    0 -0.42139915563E+02  0.45573680930E+02 -0.27673108421E+03  0.28364575767E+03  0.47000000000E+01 0. -1.
         -5    1    5    5    0  503 -0.12921986673E+02 -0.60847909759E+02 -0.10960954899E+03  0.12611815528E+03  0.47000000000E+01 0. -1.
<mgrwt>
<rscale>  0 0.27455972E+03</rscale>
<asrwt>0</asrwt>
<pdfrwt beam="1">  1        1 0.15123360E+00 0.27455972E+03</pdfrwt>
<pdfrwt beam="2">  1       -1 0.29494337E-02 0.27455972E+03</pdfrwt>
<totfact> 0.63658901E+03</totfact>
</mgrwt>
</event>
<event>
 9    1  0.2031653E-002  0.2750928E+03  0.7818608E-02  0.1098400E+00
          2   -1    0    0  501    0  0.00000000000E+00  0.00000000000E+00  0.14331039291E+03  0.14331039291E+03  0.00000000000E+00 0.  1.
         -2   -1    0    0    0  501 -0.00000000000E+00 -0.00000000000E+00 -0.13201421157E+03  0.13201421157E+03  0.00000000000E+00 0.  1.
         36    2    1    2    0    0 -0.14210854715E-13  0.00000000000E+00  0.11296181338E+02  0.27532460448E+03  0.27509277366E+03 0.  0.
         25    2    3    3    0    0  0.67964218624E+02  0.37489578781E+02  0.38073303671E+02  0.12640765524E+03  0.92221013449E+02 0.  0.
         25    2    3    3    0    0 -0.67964218624E+02 -0.37489578781E+02 -0.26777122332E+02  0.14891694924E+03  0.12423622643E+03 0.  0.
          5    1    4    4  502    0 -0.98654537584E+01  0.22147711135E+02 -0.16770875844E+02  0.29852982480E+02  0.47000000000E+01 0. -1.
         -5    1    4    4    0  502  0.77829672382E+02  0.15341867646E+02  0.54844179514E+02  0.96554672764E+02  0.47000000000E+01 0. -1.
          5    1    5    5  503    0 -0.41863311077E+02  0.43922005696E+02 -0.11927395577E+02  0.62016386254E+02  0.47000000000E+01 0. -1.
         -5    1    5    5    0  503 -0.26100907546E+02 -0.81411584477E+02 -0.14849726755E+02  0.86900562982E+02  0.47000000000E+01 0. -1.
<mgrwt>
<rscale>  0 0.27509277E+03</rscale>
<asrwt>0</asrwt>
<pdfrwt beam="1">  1        2 0.22047753E-01 0.27509277E+03</pdfrwt>
<pdfrwt beam="2">  1       -2 0.20309879E-01 0.27509277E+03</pdfrwt>
<totfact> 0.50453001E+03</totfact>
</mgrwt>
</event>
<event>
 9    1  0.2031653E-002  0.2741845E+03  0.7818608E-02  0.1098908E+00
          2   -1    0    0  501    0  0.00000000000E+00  0.00000000000E+00  0.19053517480E+04  0.19053517480E+04  0.00000000000E+00 0.  1.
         -2   -1    0    0    0  501 -0.00000000000E+00 -0.00000000000E+00 -0.98639482080E+01  0.98639482080E+01  0.00000000000E+00 0.  1.
         36    2    1    2    0    0  0.71054273576E-14 -0.71054273576E-14  0.18954877998E+04  0.19152156963E+04  0.27418454341E+03 0.  0.
         25    2    3    3    0    0  0.39182805998E+02 -0.58110642748E+01  0.12486749337E+04  0.12554742519E+04  0.12432797848E+03 0.  0.
         25    2    3    3    0    0 -0.39182805998E+02  0.58110642748E+01  0.64681286612E+03  0.65974144439E+03  0.12378541481E+03 0.  0.
          5    1    4    4  502    0 -0.31921231895E+02 -0.39999398872E+02  0.47371255235E+03  0.47649196132E+03  0.47000000000E+01 0.  1.
         -5    1    4    4    0  502  0.71104037893E+02  0.34188334597E+02  0.77496238138E+03  0.77898229054E+03  0.47000000000E+01 0.  1.
          5    1    5    5  503    0 -0.45189957464E+02  0.58525536188E+02  0.43917104457E+03  0.44537699428E+03  0.47000000000E+01 0.  1.
         -5    1    5    5    0  503  0.60071514663E+01 -0.52714471913E+02  0.20764182154E+03  0.21436445011E+03  0.47000000000E+01 0.  1.
<mgrwt>
<rscale>  0 0.27418454E+03</rscale>
<asrwt>0</asrwt>
<pdfrwt beam="1">  1        2 0.29313075E+00 0.27418454E+03</pdfrwt>
<pdfrwt beam="2">  1       -2 0.15175320E-02 0.27418454E+03</pdfrwt>
<totfact> 0.96632369E+03</totfact>
</mgrwt>
</event>
<event>
 9    1  0.2031653E-002  0.2720064E+03  0.7818608E-02  0.1100137E+00
         -2   -1    0    0    0  501 -0.00000000000E+00  0.00000000000E+00  0.14275873111E+02  0.14275873111E+02  0.00000000000E+00 0.  1.
          2   -1    0    0  501    0  0.00000000000E+00 -0.00000000000E+00 -0.12956730420E+04  0.12956730420E+04  0.00000000000E+00 0.  1.
         36    2    1    2    0    0 -0.71054273576E-14  0.00000000000E+00 -0.12813971689E+04  0.13099489151E+04  0.27200635243E+03 0.  0.
         25    2    3    3    0    0 -0.47215109340E+02  0.25271994894E+02 -0.72314710422E+03  0.73530019966E+03  0.12188810031E+03 0.  0.
         25    2    3    3    0    0  0.47215109340E+02 -0.25271994894E+02 -0.55825006467E+03  0.57464871545E+03  0.12533982286E+03 0.  0.
          5    1    4    4  502    0 -0.82089992056E+02 -0.86976654021E+01 -0.50616375622E+03  0.51287255170E+03  0.47000000000E+01 0.  1.
         -5    1    4    4    0  502  0.34874882716E+02  0.33969660297E+02 -0.21698334800E+03  0.22242764796E+03  0.47000000000E+01 0.  1.
          5    1    5    5  503    0  0.74327258359E+02 -0.55645416090E+02 -0.33464705135E+03  0.34732073455E+03  0.47000000000E+01 0.  1.
         -5    1    5    5    0  503 -0.27112149019E+02  0.30373421195E+02 -0.22360301331E+03  0.22732798091E+03  0.47000000000E+01 0.  1.
<mgrwt>
<rscale>  0 0.27200635E+03</rscale>
<asrwt>0</asrwt>
<pdfrwt beam="1">  1        2 0.19933433E+00 0.27200635E+03</pdfrwt>
<pdfrwt beam="2">  1       -2 0.21962880E-02 0.27200635E+03</pdfrwt>
<totfact> 0.11865251E+04</totfact>
</mgrwt>
</event>
<event>
 9    1  0.2031653E-002  0.2750853E+03  0.7818608E-02  0.1098404E+00
         -2   -1    0    0    0  501 -0.00000000000E+00  0.00000000000E+00  0.22818590631E+03  0.22818590631E+03  0.00000000000E+00 0. -1.
          2   -1    0    0  501    0  0.00000000000E+00 -0.00000000000E+00 -0.82906016772E+02  0.82906016772E+02  0.00000000000E+00 0. -1.
         36    2    1    2    0    0  0.17763568394E-14  0.00000000000E+00  0.14527988953E+03  0.31109192308E+03  0.27508532913E+03 0.  0.
         25    2    3    3    0    0 -0.36777576184E+01 -0.30777052472E+02  0.16748769775E+02  0.13469098753E+03  0.13000149220E+03 0.  0.
         25    2    3    3    0    0  0.36777576184E+01  0.30777052472E+02  0.12853111976E+03  0.17640093555E+03  0.11677451972E+03 0.  0.
          5    1    4    4  502    0  0.39444326332E+01  0.27847350828E+02 -0.42292590085E+02  0.51007711898E+02  0.47000000000E+01 0. -1.
         -5    1    4    4    0  502 -0.76221902516E+01 -0.58624403300E+02  0.59041359861E+02  0.83683275633E+02  0.47000000000E+01 0. -1.
          5    1    5    5  503    0 -0.39193137136E+02  0.56892567508E+01  0.14857965764E+01  0.39909488000E+02  0.47000000000E+01 0. -1.
         -5    1    5    5    0  503  0.42870894754E+02  0.25087795722E+02  0.12704532318E+03  0.13649144755E+03  0.47000000000E+01 0. -1.
<mgrwt>
<rscale>  0 0.27508533E+03</rscale>
<asrwt>0</asrwt>
<pdfrwt beam="1">  1        2 0.12754772E-01 0.27508533E+03</pdfrwt>
<pdfrwt beam="2">  1       -2 0.35105524E-01 0.27508533E+03</pdfrwt>
<totfact> 0.36037824E+03</totfact>
</mgrwt>
</event>
<event>
 9    1  0.2031653E-002  0.2752790E+03  0.7818608E-02  0.1098296E+00
          1   -1    0    0  501    0  0.00000000000E+00  0.00000000000E+00  0.12203773129E+04  0.12203773129E+04  0.00000000000E+00 0.  1.
         -1   -1    0    0    0  501 -0.00000000000E+00 -0.00000000000E+00 -0.15523582742E+02  0.15523582742E+02  0.00000000000E+00 0.  1.
         36    2    1    2    0    0  0.00000000000E+00  0.17763568394E-14  0.12048537302E+04  0.12359008957E+04  0.27527897264E+03 0.  0.
         25    2    3    3    0    0  0.73490963136E+01 -0.71761486658E+01  0.89237019163E+03  0.90045735516E+03  0.11997242692E+03 0.  0.
         25    2    3    3    0    0 -0.73490963136E+01  0.71761486658E+01  0.31248353857E+03  0.33544354052E+03  0.12153559428E+03 0.  0.
          5    1    4    4  502    0  0.54176376744E+02 -0.18180733705E+02  0.69072179297E+03  0.69309761517E+03  0.47000000000E+01 0. -1.
         -5    1    4    4    0  502 -0.46827280431E+02  0.11004585040E+02  0.20164839866E+03  0.20735973999E+03  0.47000000000E+01 0. -1.
          5    1    5    5  503    0  0.12907641554E+02  0.18989959557E+02  0.14397825857E+01  0.23481668347E+02  0.47000000000E+01 0. -1.
         -5    1    5    5    0  503 -0.20256737867E+02 -0.11813810891E+02  0.31104375598E+03  0.31196187217E+03  0.47000000000E+01 0. -1.
<mgrwt>
<rscale>  0 0.27527897E+03</rscale>
<asrwt>0</asrwt>
<pdfrwt beam="1">  1        1 0.18775028E+00 0.27527897E+03</pdfrwt>
<pdfrwt beam="2">  1       -1 0.23882445E-02 0.27527897E+03</pdfrwt>
<totfact> 0.58527239E+03</totfact>
</mgrwt>
</event>
<event>
 9    1  0.2031653E-002  0.2747626E+03  0.7818608E-02  0.1098584E+00
         -3   -1    0    0    0  501 -0.00000000000E+00  0.00000000000E+00  0.41125748414E+02  0.41125748414E+02  0.00000000000E+00 0.  1.
          3   -1    0    0  501    0  0.00000000000E+00 -0.00000000000E+00 -0.45892461576E+03  0.45892461576E+03  0.00000000000E+00 0.  1.
         36    2    1    2    0    0 -0.71054273576E-14  0.35527136788E-14 -0.41779886735E+03  0.50005036418E+03  0.27476257597E+03 0.  0.
         25    2    3    3    0    0 -0.60024919154E+02 -0.92635415478E+01 -0.23702834639E+03  0.27264470708E+03  0.12026593527E+03 0.  0.
         25    2    3    3    0    0  0.60024919154E+02  0.92635415478E+01 -0.18077052096E+03  0.22740565709E+03  0.12388118303E+03 0.  0.
          5    1    4    4  502    0 -0.73048984830E+02  0.52342164688E+01 -0.24124356340E+03  0.25215887470E+03  0.47000000000E+01 0. -1.
         -5    1    4    4    0  502  0.13024065676E+02 -0.14497758017E+02  0.42152170073E+01  0.20485832389E+02  0.47000000000E+01 0. -1.
          5    1    5    5  503    0  0.29087016735E+02  0.59695736722E+02 -0.48301433655E+02  0.82248124710E+02  0.47000000000E+01 0. -1.
         -5    1    5    5    0  503  0.30937902419E+02 -0.50432195174E+02 -0.13246908730E+03  0.14515753238E+03  0.47000000000E+01 0. -1.
<mgrwt>
<rscale>  0 0.27476258E+03</rscale>
<asrwt>0</asrwt>
<pdfrwt beam="1">  1        3 0.70603788E-01 0.27476258E+03</pdfrwt>
<pdfrwt beam="2">  1       -3 0.63270381E-02 0.27476258E+03</pdfrwt>
<totfact> 0.77635960E+02</totfact>
</mgrwt>
</event>
<event>
 9    1  0.2031653E-002  0.2762061E+03  0.7818608E-02  0.1097779E+00
         -2   -1    0    0    0  501 -0.00000000000E+00  0.00000000000E+00  0.25657894656E+02  0.25657894656E+02  0.00000000000E+00 0.  1.
          2   -1    0    0  501    0  0.00000000000E+00 -0.00000000000E+00 -0.74333634326E+03  0.74333634326E+03  0.00000000000E+00 0.  1.
         36    2    1    2    0    0 -0.71054273576E-14 -0.71054273576E-14 -0.71767844860E+03  0.76899423791E+03  0.27620605054E+03 0.  0.
         25    2    3    3    0    0  0.32852827006E+02 -0.42301715368E+02 -0.20313749009E+03  0.23739514814E+03  0.11055710341E+03 0.  0.
         25    2    3    3    0    0 -0.32852827006E+02  0.42301715368E+02 -0.51454095851E+03  0.53159908977E+03  0.12237831056E+03 0.  0.
          5    1    4    4  502    0 -0.40745141981E+02 -0.93601543549E+01 -0.68330222607E+02  0.80242684440E+02  0.47000000000E+01 0. -1.
         -5    1    4    4    0  502  0.73597968987E+02 -0.32941561013E+02 -0.13480726749E+03  0.15715246370E+03  0.47000000000E+01 0. -1.
          5    1    5    5  503    0  0.43270636688E+01  0.79503979516E+02 -0.27667660023E+03  0.28794380937E+03  0.47000000000E+01 0. -1.
         -5    1    5    5    0  503 -0.37179890675E+02 -0.37202264148E+02 -0.23786435828E+03  0.24365528040E+03  0.47000000000E+01 0. -1.
<mgrwt>
<rscale>  0 0.27620605E+03</rscale>
<asrwt>0</asrwt>
<pdfrwt beam="1">  1        2 0.11435941E+00 0.27620605E+03</pdfrwt>
<pdfrwt beam="2">  1       -2 0.39473692E-02 0.27620605E+03</pdfrwt>
<totfact> 0.10879309E+04</totfact>
</mgrwt>
</event>
<event>
 9    1  0.2031653E-002  0.2750681E+03  0.7818608E-02  0.1098414E+00
         -1   -1    0    0    0  501 -0.00000000000E+00  0.00000000000E+00  0.99953474581E+01  0.99953474581E+01  0.00000000000E+00 0.  1.
          1   -1    0    0  501    0  0.00000000000E+00 -0.00000000000E+00 -0.18924413522E+04  0.18924413522E+04  0.00000000000E+00 0.  1.
         36    2    1    2    0    0  0.35527136788E-14  0.35527136788E-14 -0.18824460047E+04  0.19024366996E+04  0.27506805601E+03 0.  0.
         25    2    3    3    0    0 -0.61831124076E+01  0.20847416952E+02 -0.12770846584E+04  0.12835903500E+04  0.12722466844E+03 0.  0.
         25    2    3    3    0    0  0.61831124076E+01 -0.20847416952E+02 -0.60536134630E+03  0.61884634960E+03  0.12663174621E+03 0.  0.
          5    1    4    4  502    0 -0.53421752116E+02  0.76270456182E+01 -0.10414650985E+04  0.10428728095E+04  0.47000000000E+01 0. -1.
         -5    1    4    4    0  502  0.47238639708E+02  0.13220371334E+02 -0.23561955996E+03  0.24071754056E+03  0.47000000000E+01 0. -1.
          5    1    5    5  503    0 -0.19531361890E+02 -0.57332167654E+02 -0.50821398597E+03  0.51183200084E+03  0.47000000000E+01 0.  1.
         -5    1    5    5    0  503  0.25714474298E+02  0.36484750702E+02 -0.97147360331E+02  0.10701434876E+03  0.47000000000E+01 0.  1.
<mgrwt>
<rscale>  0 0.27506806E+03</rscale>
<asrwt>0</asrwt>
<pdfrwt beam="1">  1        1 0.29114468E+00 0.27506806E+03</pdfrwt>
<pdfrwt beam="2">  1       -1 0.15377465E-02 0.27506806E+03</pdfrwt>
<totfact> 0.39886360E+03</totfact>
</mgrwt>
</event>
<event>
 9    1  0.2031653E-002  0.2736502E+03  0.7818608E-02  0.1099209E+00
         -4   -1    0    0    0  501 -0.00000000000E+00  0.00000000000E+00  0.64332010343E+03  0.64332010343E+03  0.00000000000E+00 0.  1.
          4   -1    0    0  501    0  0.00000000000E+00 -0.00000000000E+00 -0.29100762503E+02  0.29100762503E+02  0.00000000000E+00 0.  1.
         36    2    1    2    0    0  0.71054273576E-14  0.71054273576E-14  0.61421934092E+03  0.67242086593E+03  0.27365018212E+03 0.  0.
         25    2    3    3    0    0  0.46222586341E+02 -0.42968651335E+01  0.24991109408E+03  0.28525814472E+03  0.12946684380E+03 0.  0.
         25    2    3    3    0    0 -0.46222586341E+02  0.42968651335E+01  0.36430824684E+03  0.38716272121E+03  0.12255400215E+03 0.  0.
          5    1    4    4  502    0  0.44263387214E+02 -0.62683554555E+02  0.11699624068E+03  0.13999530633E+03  0.47000000000E+01 0. -1.
         -5    1    4    4    0  502  0.19591991265E+01  0.58386689421E+02  0.13291485340E+03  0.14526283839E+03  0.47000000000E+01 0. -1.
          5    1    5    5  503    0 -0.73205681585E+02 -0.18548488190E+02  0.13213374952E+03  0.15226469057E+03  0.47000000000E+01 0. -1.
         -5    1    5    5    0  503  0.26983095244E+02  0.22845353324E+02  0.23217449731E+03  0.23489803064E+03  0.47000000000E+01 0. -1.
<mgrwt>
<rscale>  0 0.27365018E+03</rscale>
<asrwt>0</asrwt>
<pdfrwt beam="1">  1        4 0.44770409E-02 0.27365018E+03</pdfrwt>
<pdfrwt beam="2">  1       -4 0.98972313E-01 0.27365018E+03</pdfrwt>
<totfact> 0.46726100E+02</totfact>
</mgrwt>
</event>
<event>
 9    1  0.2031653E-002  0.2676151E+03  0.7818608E-02  0.1102652E+00
         -2   -1    0    0    0  501 -0.00000000000E+00  0.00000000000E+00  0.27988454597E+02  0.27988454597E+02  0.00000000000E+00 0.  1.
          2   -1    0    0  501    0  0.00000000000E+00 -0.00000000000E+00 -0.63970895232E+03  0.63970895232E+03  0.00000000000E+00 0.  1.
         36    2    1    2    0    0  0.35527136788E-14  0.71054273576E-14 -0.61172049772E+03  0.66769740692E+03  0.26761513386E+03 0.  0.
         25    2    3    3    0    0 -0.12578630489E+02 -0.35515215256E+02 -0.37289754073E+03  0.39451802461E+03  0.12317606667E+03 0.  0.
         25    2    3    3    0    0  0.12578630489E+02  0.35515215256E+02 -0.23882295699E+03  0.27317938231E+03  0.12716531630E+03 0.  0.
          5    1    4    4  502    0  0.13941574753E+02 -0.30915666826E+02 -0.36425475595E+03  0.36586030557E+03  0.47000000000E+01 0.  1.
         -5    1    4    4    0  502 -0.26520205242E+02 -0.45995484297E+01 -0.86427847825E+01  0.28657719041E+02  0.47000000000E+01 0.  1.
          5    1    5    5  503    0  0.39777797598E+02 -0.32425565125E+02 -0.55519200657E+02  0.75750657403E+02  0.47000000000E+01 0.  1.
         -5    1    5    5    0  503 -0.27199167109E+02  0.67940780381E+02 -0.18330375633E+03  0.19742872490E+03  0.47000000000E+01 0.  1.
<mgrwt>
<rscale>  0 0.26761513E+03</rscale>
<asrwt>0</asrwt>
<pdfrwt beam="1">  1        2 0.98416767E-01 0.26761513E+03</pdfrwt>
<pdfrwt beam="2">  1       -2 0.43059159E-02 0.26761513E+03</pdfrwt>
<totfact> 0.11428650E+04</totfact>
</mgrwt>
</event>
<event>
 9    1  0.2031653E-002  0.2757404E+03  0.7818608E-02  0.1098038E+00
         -2   -1    0    0    0  501 -0.00000000000E+00  0.00000000000E+00  0.10163671600E+03  0.10163671600E+03  0.00000000000E+00 0. -1.
          2   -1    0    0  501    0  0.00000000000E+00 -0.00000000000E+00 -0.18702093097E+03  0.18702093097E+03  0.00000000000E+00 0. -1.
         36    2    1    2    0    0  0.00000000000E+00 -0.71054273576E-14 -0.85384214970E+02  0.28865764696E+03  0.27574040869E+03 0.  0.
         25    2    3    3    0    0 -0.35339435703E+01  0.20818269420E+02  0.21611245365E+02  0.11984327662E+03  0.11597187558E+03 0.  0.
         25    2    3    3    0    0  0.35339435703E+01 -0.20818269420E+02 -0.10699546034E+03  0.16881437034E+03  0.12885796057E+03 0.  0.
          5    1    4    4  502    0 -0.19825346067E+02 -0.44238286053E+02  0.19838118703E+02  0.52590029980E+02  0.47000000000E+01 0. -1.
         -5    1    4    4    0  502  0.16291402497E+02  0.65056555473E+02  0.17731266628E+01  0.67253246639E+02  0.47000000000E+01 0. -1.
          5    1    5    5  503    0  0.46771722514E+02 -0.20145349306E+02 -0.11382255005E+03  0.12478418180E+03  0.47000000000E+01 0.  1.
         -5    1    5    5    0  503 -0.43237778944E+02 -0.67292011356E+00  0.68270897189E+01  0.44030188547E+02  0.47000000000E+01 0.  1.
<mgrwt>
<rscale>  0 0.27574041E+03</rscale>
<asrwt>0</asrwt>
<pdfrwt beam="1">  1        2 0.28772451E-01 0.27574041E+03</pdfrwt>
<pdfrwt beam="2">  1       -2 0.15636418E-01 0.27574041E+03</pdfrwt>
<totfact> 0.58246804E+03</totfact>
</mgrwt>
</event>
<event>
 9    1  0.2031653E-002  0.2755760E+03  0.7818608E-02  0.1098130E+00
          2   -1    0    0  501    0  0.00000000000E+00  0.00000000000E+00  0.16419036088E+03  0.16419036088E+03  0.00000000000E+00 0. -1.
         -2   -1    0    0    0  501 -0.00000000000E+00 -0.00000000000E+00 -0.11563123343E+03  0.11563123343E+03  0.00000000000E+00 0. -1.
         36    2    1    2    0    0 -0.14210854715E-13  0.71054273576E-14  0.48559127443E+02  0.27982159431E+03  0.27557600727E+03 0.  0.
         25    2    3    3    0    0  0.36142022883E+02 -0.37887394382E+02  0.32151158887E+01  0.13637931379E+03  0.12588597932E+03 0.  0.
         25    2    3    3    0    0 -0.36142022883E+02  0.37887394382E+02  0.45344011554E+02  0.14344228052E+03  0.12561014285E+03 0.  0.
          5    1    4    4  502    0 -0.24309852096E+02  0.27990341314E+02 -0.21996382626E+02  0.43363106029E+02  0.47000000000E+01 0. -1.
         -5    1    4    4    0  502  0.60451874979E+02 -0.65877735696E+02  0.25211498515E+02  0.93016207761E+02  0.47000000000E+01 0. -1.
          5    1    5    5  503    0 -0.77263382821E+02  0.35291853792E+02  0.54421832319E+02  0.10098995545E+03  0.47000000000E+01 0.  1.
         -5    1    5    5    0  503  0.41121359938E+02  0.25955405900E+01 -0.90778207648E+01  0.42452325071E+02  0.47000000000E+01 0.  1.
<mgrwt>
<rscale>  0 0.27557601E+03</rscale>
<asrwt>0</asrwt>
<pdfrwt beam="1">  1        2 0.25260056E-01 0.27557601E+03</pdfrwt>
<pdfrwt beam="2">  1       -2 0.17789420E-01 0.27557601E+03</pdfrwt>
<totfact> 0.54235655E+03</totfact>
</mgrwt>
</event>
<event>
 9    1  0.2031653E-002  0.2744440E+03  0.7818608E-02  0.1098763E+00
          2   -1    0    0  501    0  0.00000000000E+00  0.00000000000E+00  0.42628583303E+03  0.42628583303E+03  0.00000000000E+00 0. -1.
         -2   -1    0    0    0  501 -0.00000000000E+00 -0.00000000000E+00 -0.44171959902E+02  0.44171959902E+02  0.00000000000E+00 0. -1.
         36    2    1    2    0    0  0.35527136788E-14 -0.35527136788E-14  0.38211387312E+03  0.47045779293E+03  0.27444402506E+03 0.  0.
         25    2    3    3    0    0  0.22327491136E+02 -0.14693509128E+02  0.31215542759E+03  0.33729386652E+03  0.12494689009E+03 0.  0.
         25    2    3    3    0    0 -0.22327491136E+02  0.14693509128E+02  0.69958445534E+02  0.13316392641E+03  0.11010917821E+03 0.  0.
          5    1    4    4  502    0  0.18975945841E+02  0.54402794757E+02  0.12543136596E+03  0.13811179589E+03  0.47000000000E+01 0.  1.
         -5    1    4    4    0  502  0.33515452948E+01 -0.69096303884E+02  0.18672406163E+03  0.19918207063E+03  0.47000000000E+01 0.  1.
          5    1    5    5  503    0 -0.19796517096E+02  0.37767657931E+02  0.91557939496E+02  0.10111006062E+03  0.47000000000E+01 0. -1.
         -5    1    5    5    0  503 -0.25309740402E+01 -0.23074148803E+02 -0.21599493962E+02  0.32053865789E+02  0.47000000000E+01 0. -1.
<mgrwt>
<rscale>  0 0.27444403E+03</rscale>
<asrwt>0</asrwt>
<pdfrwt beam="1">  1        2 0.65582433E-01 0.27444403E+03</pdfrwt>
<pdfrwt beam="2">  1       -2 0.67956864E-02 0.27444403E+03</pdfrwt>
<totfact> 0.90218097E+03</totfact>
</mgrwt>
</event>
<event>
 9    1  0.2031653E-002  0.2769329E+03  0.7818608E-02  0.1097376E+00
          1   -1    0    0  501    0  0.00000000000E+00  0.00000000000E+00  0.56621799003E+02  0.56621799003E+02  0.00000000000E+00 0. -1.
         -1   -1    0    0    0  501 -0.00000000000E+00 -0.00000000000E+00 -0.33861451363E+03  0.33861451363E+03  0.00000000000E+00 0. -1.
         36    2    1    2    0    0  0.71054273576E-14 -0.14210854715E-13 -0.28199271463E+03  0.39523631263E+03  0.27693293723E+03 0.  0.
         25    2    3    3    0    0  0.78703477146E+01 -0.49449738002E+02 -0.16901821785E+03  0.21712901914E+03  0.12677000444E+03 0.  0.
         25    2    3    3    0    0 -0.78703477146E+01  0.49449738002E+02 -0.11297449677E+03  0.17810729349E+03  0.12826438365E+03 0.  0.
          5    1    4    4  502    0  0.33224235208E+02 -0.53875187766E+02 -0.17838488288E+03  0.18934001717E+03  0.47000000000E+01 0. -1.
         -5    1    4    4    0  502 -0.25353887494E+02  0.44254497633E+01  0.93666650285E+01  0.27789001968E+02  0.47000000000E+01 0. -1.
          5    1    5    5  503    0 -0.65351955503E+02  0.35437106798E+02 -0.41738611555E+02  0.85386581621E+02  0.47000000000E+01 0.  1.
         -5    1    5    5    0  503  0.57481607788E+02  0.14012631204E+02 -0.71235885216E+02  0.92720711870E+02  0.47000000000E+01 0.  1.
<mgrwt>
<rscale>  0 0.27693294E+03</rscale>
<asrwt>0</asrwt>
<pdfrwt beam="1">  1        1 0.87110459E-02 0.27693294E+03</pdfrwt>
<pdfrwt beam="2">  1       -1 0.52094541E-01 0.27693294E+03</pdfrwt>
<totfact> 0.29352028E+03</totfact>
</mgrwt>
</event>
<event>
 9    1  0.2031653E-002  0.2734524E+03  0.7818608E-02  0.1099320E+00
         -1   -1    0    0    0  501 -0.00000000000E+00  0.00000000000E+00  0.28449658758E+03  0.28449658758E+03  0.00000000000E+00 0. -1.
          1   -1    0    0  501    0  0.00000000000E+00 -0.00000000000E+00 -0.65709260595E+02  0.65709260595E+02  0.00000000000E+00 0. -1.
         36    2    1    2    0    0  0.00000000000E+00  0.00000000000E+00  0.21878732698E+03  0.35020584817E+03  0.27345244860E+03 0.  0.
         25    2    3    3    0    0  0.17866887013E+02 -0.58792875207E+02  0.93428381763E+02  0.16240765879E+03  0.11777757549E+03 0.  0.
         25    2    3    3    0    0 -0.17866887013E+02  0.58792875207E+02  0.12535894522E+03  0.18779818939E+03  0.12560838731E+03 0.  0.
          5    1    4    4  502    0 -0.18588851616E+02  0.30266688781E+02  0.18301290493E+02  0.40232388543E+02  0.47000000000E+01 0. -1.
         -5    1    4    4    0  502  0.36455738629E+02 -0.89059563988E+02  0.75127091270E+02  0.12217527024E+03  0.47000000000E+01 0. -1.
          5    1    5    5  503    0  0.14768001140E+02 -0.32594813694E+02  0.62220814553E+02  0.71930768806E+02  0.47000000000E+01 0. -1.
         -5    1    5    5    0  503 -0.32634888153E+02  0.91387688901E+02  0.63138130668E+02  0.11586742058E+03  0.47000000000E+01 0. -1.
<mgrwt>
<rscale>  0 0.27345245E+03</rscale>
<asrwt>0</asrwt>
<pdfrwt beam="1">  1        1 0.10109117E-01 0.27345245E+03</pdfrwt>
<pdfrwt beam="2">  1       -1 0.43768705E-01 0.27345245E+03</pdfrwt>
<totfact> 0.33031908E+03</totfact>
</mgrwt>
</event>
<event>
 9    1  0.2031653E-002  0.2746174E+03  0.7818608E-02  0.1098666E+00
         -2   -1    0    0    0  501 -0.00000000000E+00  0.00000000000E+00  0.11569617000E+02  0.11569617000E+02  0.00000000000E+00 0. -1.
          2   -1    0    0  501    0  0.00000000000E+00 -0.00000000000E+00 -0.16295853190E+04  0.16295853190E+04  0.00000000000E+00 0. -1.
         36    2    1    2    0    0 -0.71054273576E-14  0.00000000000E+00 -0.16180157020E+04  0.16411549360E+04  0.27461739209E+03 0.  0.
         25    2    3    3    0    0 -0.31883484203E+02 -0.13907133798E+02 -0.61532616021E+03  0.63011425044E+03  0.13117820030E+03 0.  0.
         25    2    3    3    0    0  0.31883484203E+02  0.13907133798E+02 -0.10026895417E+04  0.10110406855E+04  0.12492792205E+03 0.  0.
          5    1    4    4  502    0  0.44980220904E+02 -0.51090882065E+01 -0.37118890044E+03  0.37396873247E+03  0.47000000000E+01 0.  1.
         -5    1    4    4    0  502 -0.76863705107E+02 -0.87980455911E+01 -0.24413725978E+03  0.25614551798E+03  0.47000000000E+01 0.  1.
          5    1    5    5  503    0  0.14554597258E+02  0.42378494330E+01 -0.11398728775E+02  0.19540130164E+02  0.47000000000E+01 0.  1.
         -5    1    5    5    0  503  0.17328886945E+02  0.96692843646E+01 -0.99129081297E+03  0.99150055535E+03  0.47000000000E+01 0.  1.
<mgrwt>
<rscale>  0 0.27461739E+03</rscale>
<asrwt>0</asrwt>
<pdfrwt beam="1">  1        2 0.25070535E+00 0.27461739E+03</pdfrwt>
<pdfrwt beam="2">  1       -2 0.17799417E-02 0.27461739E+03</pdfrwt>
<totfact> 0.10681978E+04</totfact>
</mgrwt>
</event>
<event>
 9    1  0.2031653E-002  0.2747914E+03  0.7818608E-02  0.1098568E+00
         -2   -1    0    0    0  501 -0.00000000000E+00  0.00000000000E+00  0.27033371836E+02  0.27033371836E+02  0.00000000000E+00 0.  1.
          2   -1    0    0  501    0  0.00000000000E+00 -0.00000000000E+00 -0.69830639773E+03  0.69830639773E+03  0.00000000000E+00 0.  1.
         36    2    1    2    0    0  0.17763568394E-14  0.21316282073E-13 -0.67127302589E+03  0.72533976957E+03  0.27479138637E+03 0.  0.
         25    2    3    3    0    0  0.18635944625E+01  0.54446432220E+02 -0.31445181262E+03  0.34289478994E+03  0.12541534016E+03 0.  0.
         25    2    3    3    0    0 -0.18635944625E+01 -0.54446432220E+02 -0.35682121328E+03  0.38244497962E+03  0.12639184003E+03 0.  0.
          5    1    4    4  502    0  0.14859179483E+02  0.50411222401E+01 -0.28138154988E+03  0.28185789814E+03  0.47000000000E+01 0.  1.
         -5    1    4    4    0  502 -0.12995585020E+02  0.49405309980E+02 -0.33070262735E+02  0.61036891808E+02  0.47000000000E+01 0.  1.
          5    1    5    5  503    0 -0.47645576475E+02 -0.73240321634E+02 -0.24160305797E+03  0.25695986708E+03  0.47000000000E+01 0. -1.
         -5    1    5    5    0  503  0.45781982012E+02  0.18793889415E+02 -0.11521815531E+03  0.12548511254E+03  0.47000000000E+01 0. -1.
<mgrwt>
<rscale>  0 0.27479139E+03</rscale>
<asrwt>0</asrwt>
<pdfrwt beam="1">  1        2 0.10743174E+00 0.27479139E+03</pdfrwt>
<pdfrwt beam="2">  1       -2 0.41589808E-02 0.27479139E+03</pdfrwt>
<totfact> 0.10855256E+04</totfact>
</mgrwt>
</event>
<event>
 9    1  0.2031653E-002  0.2773318E+03  0.7818608E-02  0.1097155E+00
          4   -1    0    0  501    0  0.00000000000E+00  0.00000000000E+00  0.11114223598E+02  0.11114223598E+02  0.00000000000E+00 0. -1.
         -4   -1    0    0    0  501 -0.00000000000E+00 -0.00000000000E+00 -0.17300562990E+04  0.17300562990E+04  0.00000000000E+00 0. -1.
         36    2    1    2    0    0  0.44408920985E-15 -0.35527136788E-14 -0.17189420754E+04  0.17411705226E+04  0.27733180521E+03 0.  0.
         25    2    3    3    0    0 -0.26352004657E+01  0.21491504116E+02 -0.12105622179E+04  0.12171726772E+04  0.12481832239E+03 0.  0.
         25    2    3    3    0    0  0.26352004657E+01 -0.21491504116E+02 -0.50837985747E+03  0.52399784540E+03  0.12511927698E+03 0.  0.
          5    1    4    4  502    0 -0.70333591048E+00  0.24772639781E+02 -0.44943031745E+02  0.51537796476E+02  0.47000000000E+01 0. -1.
         -5    1    4    4    0  502 -0.19318645553E+01 -0.32811356642E+01 -0.11656191862E+04  0.11656348807E+04  0.47000000000E+01 0. -1.
          5    1    5    5  503    0  0.62411916370E+02 -0.96485145118E+01 -0.31056916084E+03  0.31695998928E+03  0.47000000000E+01 0.  1.
         -5    1    5    5    0  503 -0.59776715904E+02 -0.11842989605E+02 -0.19781069662E+03  0.20703785612E+03  0.47000000000E+01 0.  1.
<mgrwt>
<rscale>  0 0.27733181E+03</rscale>
<asrwt>0</asrwt>
<pdfrwt beam="1">  1        4 0.17098819E-02 0.27733181E+03</pdfrwt>
<pdfrwt beam="2">  1       -4 0.26616229E+00 0.27733181E+03</pdfrwt>
<totfact> 0.13904959E+02</totfact>
</mgrwt>
</event>
<event>
 9    1  0.2031653E-002  0.2748221E+03  0.7818608E-02  0.1098551E+00
          1   -1    0    0  501    0  0.00000000000E+00  0.00000000000E+00  0.98121033720E+03  0.98121033720E+03  0.00000000000E+00 0. -1.
         -1   -1    0    0    0  501 -0.00000000000E+00 -0.00000000000E+00 -0.19243370098E+02  0.19243370098E+02  0.00000000000E+00 0. -1.
         36    2    1    2    0    0 -0.71054273576E-14 -0.14210854715E-13  0.96196696710E+03  0.10004537073E+04  0.27482207817E+03 0.  0.
         25    2    3    3    0    0  0.23348568727E+02  0.41479361721E+02  0.34143641490E+03  0.36609126058E+03  0.12320021324E+03 0.  0.
         25    2    3    3    0    0 -0.23348568727E+02 -0.41479361721E+02  0.62053055220E+03  0.63436244672E+03  0.12284890915E+03 0.  0.
          5    1    4    4  502    0 -0.40022842767E+02 -0.18455790574E+02  0.10178903084E+03  0.11102045284E+03  0.47000000000E+01 0. -1.
         -5    1    4    4    0  502  0.63371411494E+02  0.59935152295E+02  0.23964738406E+03  0.25507080774E+03  0.47000000000E+01 0. -1.
          5    1    5    5  503    0 -0.13894087902E+02  0.37438230418E+02  0.35163851144E+03  0.35392993587E+03  0.47000000000E+01 0. -1.
         -5    1    5    5    0  503 -0.94544808249E+01 -0.78917592139E+02  0.26889204076E+03  0.28043251085E+03  0.47000000000E+01 0. -1.
<mgrwt>
<rscale>  0 0.27482208E+03</rscale>
<asrwt>0</asrwt>
<pdfrwt beam="1">  1        1 0.15095540E+00 0.27482208E+03</pdfrwt>
<pdfrwt beam="2">  1       -1 0.29605192E-02 0.27482208E+03</pdfrwt>
<totfact> 0.63508082E+03</totfact>
</mgrwt>
</event>
<event>
 9    1  0.2031653E-002  0.2767081E+03  0.7818608E-02  0.1097501E+00
          2   -1    0    0  501    0  0.00000000000E+00  0.00000000000E+00  0.14175647243E+04  0.14175647243E+04  0.00000000000E+00 0. -1.
         -2   -1    0    0    0  501 -0.00000000000E+00 -0.00000000000E+00 -0.13503325339E+02  0.13503325339E+02  0.00000000000E+00 0. -1.
         36    2    1    2    0    0  0.71054273576E-14  0.35527136788E-14  0.14040613989E+04  0.14310680496E+04  0.27670806032E+03 0.  0.
         25    2    3    3    0    0  0.81896369229E+01 -0.84322319087E+01  0.47324591687E+03  0.48957857069E+03  0.12484913437E+03 0.  0.
         25    2    3    3    0    0 -0.81896369229E+01  0.84322319087E+01  0.93081548204E+03  0.94148947890E+03  0.14087868750E+03 0.  0.
          5    1    4    4  502    0  0.63584764938E+02 -0.14104376483E+02  0.31657706500E+03  0.32324152557E+03  0.47000000000E+01 0.  1.
         -5    1    4    4    0  502 -0.55395128015E+02  0.56721445746E+01  0.15666885187E+03  0.16633704512E+03  0.47000000000E+01 0.  1.
          5    1    5    5  503    0  0.57057418347E+02  0.37092947844E+02  0.38154505754E+03  0.38759535176E+03  0.47000000000E+01 0. -1.
         -5    1    5    5    0  503 -0.65247055270E+02 -0.28660715936E+02  0.54927042449E+03  0.55389412714E+03  0.47000000000E+01 0. -1.
<mgrwt>
<rscale>  0 0.27670806E+03</rscale>
<asrwt>0</asrwt>
<pdfrwt beam="1">  1        2 0.21808676E+00 0.27670806E+03</pdfrwt>
<pdfrwt beam="2">  1       -2 0.20774358E-02 0.27670806E+03</pdfrwt>
<totfact> 0.11049220E+04</totfact>
</mgrwt>
</event>
<event>
 9    1  0.2031653E-002  0.2669009E+03  0.7818608E-02  0.1103067E+00
          4   -1    0    0  501    0  0.00000000000E+00  0.00000000000E+00  0.97387091066E+02  0.97387091066E+02  0.00000000000E+00 0.  1.
         -4   -1    0    0    0  501 -0.00000000000E+00 -0.00000000000E+00 -0.18286839239E+03  0.18286839239E+03  0.00000000000E+00 0.  1.
         36    2    1    2    0    0  0.71054273576E-14  0.00000000000E+00 -0.85481301322E+02  0.28025548345E+03  0.26690088634E+03 0.  0.
         25    2    3    3    0    0  0.30911472857E+02 -0.17018400943E+02 -0.57157523516E+02  0.14593992402E+03  0.12956208474E+03 0.  0.
         25    2    3    3    0    0 -0.30911472857E+02  0.17018400943E+02 -0.28323777806E+02  0.13431555944E+03  0.12646457208E+03 0.  0.
          5    1    4    4  502    0 -0.35647116414E+02  0.31598869548E+02 -0.46355610403E+01  0.48091411827E+02  0.47000000000E+01 0.  1.
         -5    1    4    4    0  502  0.66558589272E+02 -0.48617270491E+02 -0.52521962475E+02  0.97848512192E+02  0.47000000000E+01 0.  1.
          5    1    5    5  503    0  0.25020095980E+02  0.42444546143E+02  0.22569235407E+02  0.54396737834E+02  0.47000000000E+01 0. -1.
         -5    1    5    5    0  503 -0.55931568837E+02 -0.25426145200E+02 -0.50893013213E+02  0.79918821602E+02  0.47000000000E+01 0. -1.
<mgrwt>
<rscale>  0 0.26690089E+03</rscale>
<asrwt>0</asrwt>
<pdfrwt beam="1">  1        4 0.14982629E-01 0.26690089E+03</pdfrwt>
<pdfrwt beam="2">  1       -4 0.28133599E-01 0.26690089E+03</pdfrwt>
<totfact> 0.84718247E+02</totfact>
</mgrwt>
</event>
<event>
 9    1  0.2031653E-002  0.2759832E+03  0.7818608E-02  0.1097903E+00
          1   -1    0    0  501    0  0.00000000000E+00  0.00000000000E+00  0.34452208894E+03  0.34452208894E+03  0.00000000000E+00 0. -1.
         -1   -1    0    0    0  501 -0.00000000000E+00 -0.00000000000E+00 -0.55269853527E+02  0.55269853527E+02  0.00000000000E+00 0. -1.
         36    2    1    2    0    0  0.71054273576E-14  0.17763568394E-14  0.28925223542E+03  0.39979194247E+03  0.27598322697E+03 0.  0.
         25    2    3    3    0    0  0.58207127371E+02  0.11040340190E+02  0.16389781623E+03  0.21287621070E+03  0.12224495134E+03 0.  0.
         25    2    3    3    0    0 -0.58207127371E+02 -0.11040340190E+02  0.12535441919E+03  0.18691573177E+03  0.12535470309E+03 0.  0.
          5    1    4    4  502    0  0.91087279456E+02 -0.61523066370E+01  0.14385538488E+03  0.17044414074E+03  0.47000000000E+01 0.  1.
         -5    1    4    4    0  502 -0.32880152085E+02  0.17192646827E+02  0.20042431347E+02  0.42432069951E+02  0.47000000000E+01 0.  1.
          5    1    5    5  503    0 -0.62299788974E+02  0.81512696509E+00  0.14797588151E+03  0.16062652224E+03  0.47000000000E+01 0. -1.
         -5    1    5    5    0  503  0.40926616028E+01 -0.11855467155E+02 -0.22621462320E+02  0.26289209535E+02  0.47000000000E+01 0. -1.
<mgrwt>
<rscale>  0 0.27598323E+03</rscale>
<asrwt>0</asrwt>
<pdfrwt beam="1">  1        1 0.53003397E-01 0.27598323E+03</pdfrwt>
<pdfrwt beam="2">  1       -1 0.85030546E-02 0.27598323E+03</pdfrwt>
<totfact> 0.57210251E+03</totfact>
</mgrwt>
</event>
<event>
 9    1  0.2031653E-002  0.2706878E+03  0.7818608E-02  0.1100887E+00
          2   -1    0    0  501    0  0.00000000000E+00  0.00000000000E+00  0.13551726693E+04  0.13551726693E+04  0.00000000000E+00 0. -1.
         -2   -1    0    0    0  501 -0.00000000000E+00 -0.00000000000E+00 -0.13517071083E+02  0.13517071083E+02  0.00000000000E+00 0. -1.
         36    2    1    2    0    0  0.71054273576E-14  0.71054273576E-14  0.13416555982E+04  0.13686897404E+04  0.27068775591E+03 0.  0.
         25    2    3    3    0    0 -0.15584881632E+02 -0.44233106437E+02  0.72797180858E+03  0.74033488699E+03  0.12630651039E+03 0.  0.
         25    2    3    3    0    0  0.15584881632E+02  0.44233106437E+02  0.61368378963E+03  0.62835485338E+03  0.12658029814E+03 0.  0.
          5    1    4    4  502    0 -0.63355775218E+02  0.77035655879E+01  0.34024200645E+03  0.34620804746E+03  0.47000000000E+01 0.  1.
         -5    1    4    4    0  502  0.47770893586E+02 -0.51936672025E+02  0.38772980213E+03  0.39412683953E+03  0.47000000000E+01 0.  1.
          5    1    5    5  503    0  0.66900515613E+02  0.19897719295E+02  0.44091573660E+03  0.44643070571E+03  0.47000000000E+01 0.  1.
         -5    1    5    5    0  503 -0.51315633980E+02  0.24335387142E+02  0.17276805303E+03  0.18192414767E+03  0.47000000000E+01 0.  1.
<mgrwt>
<rscale>  0 0.27068776E+03</rscale>
<asrwt>0</asrwt>
<pdfrwt beam="1">  1        2 0.20848800E+00 0.27068776E+03</pdfrwt>
<pdfrwt beam="2">  1       -2 0.20795505E-02 0.27068776E+03</pdfrwt>
<totfact> 0.11923713E+04</totfact>
</mgrwt>
</event>
<event>
 9    1  0.2031653E-002  0.2748434E+03  0.7818608E-02  0.1098539E+00
          2   -1    0    0  501    0  0.00000000000E+00  0.00000000000E+00  0.76108586341E+03  0.76108586341E+03  0.00000000000E+00 0.  1.
         -2   -1    0    0    0  501 -0.00000000000E+00 -0.00000000000E+00 -0.24812869046E+02  0.24812869046E+02  0.00000000000E+00 0.  1.
         36    2    1    2    0    0  0.00000000000E+00 -0.35527136788E-14  0.73627299436E+03  0.78589873245E+03  0.27484340168E+03 0.  0.
         25    2    3    3    0    0  0.38027194650E+02 -0.14844088472E+02  0.48015957101E+03  0.49860198691E+03  0.12800122350E+03 0.  0.
         25    2    3    3    0    0 -0.38027194650E+02  0.14844088472E+02  0.25611342335E+03  0.28729674555E+03  0.12360792809E+03 0.  0.
          5    1    4    4  502    0 -0.71468277680E+01 -0.44269097350E+02  0.60424107375E+02  0.75392260076E+02  0.47000000000E+01 0.  1.
         -5    1    4    4    0  502  0.45174022418E+02  0.29425008878E+02  0.41973546364E+03  0.42320972683E+03  0.47000000000E+01 0.  1.
          5    1    5    5  503    0 -0.20598977803E+02  0.35080881494E+02  0.25692381670E+03  0.26016710730E+03  0.47000000000E+01 0. -1.
         -5    1    5    5    0  503 -0.17428216847E+02 -0.20236793022E+02 -0.81039334550E+00  0.27129638252E+02  0.47000000000E+01 0. -1.
<mgrwt>
<rscale>  0 0.27484340E+03</rscale>
<asrwt>0</asrwt>
<pdfrwt beam="1">  1        2 0.11709011E+00 0.27484340E+03</pdfrwt>
<pdfrwt beam="2">  1       -2 0.38173651E-02 0.27484340E+03</pdfrwt>
<totfact> 0.11107885E+04</totfact>
</mgrwt>
</event>
<event>
 9    1  0.2031653E-002  0.2746652E+03  0.7818608E-02  0.1098639E+00
          2   -1    0    0  501    0  0.00000000000E+00  0.00000000000E+00  0.15824058394E+04  0.15824058394E+04  0.00000000000E+00 0.  1.
         -2   -1    0    0    0  501 -0.00000000000E+00 -0.00000000000E+00 -0.11918715949E+02  0.11918715949E+02  0.00000000000E+00 0.  1.
         36    2    1    2    0    0  0.00000000000E+00  0.00000000000E+00  0.15704871234E+04  0.15943245553E+04  0.27466521961E+03 0.  0.
         25    2    3    3    0    0  0.63926520093E+01  0.16021420207E+02  0.10621854187E+04  0.10694203791E+04  0.12298183433E+03 0.  0.
         25    2    3    3    0    0 -0.63926520093E+01 -0.16021420207E+02  0.50830170470E+03  0.52490417622E+03  0.12983150354E+03 0.  0.
          5    1    4    4  502    0  0.45405492631E+02  0.26436544282E+02  0.21929744709E+03  0.22555267663E+03  0.47000000000E+01 0. -1.
         -5    1    4    4    0  502 -0.39012840621E+02 -0.10415124075E+02  0.84288797165E+03  0.84386770249E+03  0.47000000000E+01 0. -1.
          5    1    5    5  503    0 -0.65245665535E+02  0.71067149887E+01  0.30164965868E+03  0.30874278753E+03  0.47000000000E+01 0.  1.
         -5    1    5    5    0  503  0.58853013526E+02 -0.23128135196E+02  0.20665204602E+03  0.21616138870E+03  0.47000000000E+01 0.  1.
<mgrwt>
<rscale>  0 0.27466522E+03</rscale>
<asrwt>0</asrwt>
<pdfrwt beam="1">  1        2 0.24344689E+00 0.27466522E+03</pdfrwt>
<pdfrwt beam="2">  1       -2 0.18336499E-02 0.27466522E+03</pdfrwt>
<totfact> 0.10831604E+04</totfact>
</mgrwt>
</event>
<event>
 9    1  0.2031653E-002  0.2753407E+03  0.7818608E-02  0.1098261E+00
         -2   -1    0    0    0  501 -0.00000000000E+00  0.00000000000E+00  0.11050535283E+03  0.11050535283E+03  0.00000000000E+00 0.  1.
          2   -1    0    0  501    0  0.00000000000E+00 -0.00000000000E+00 -0.17151314257E+03  0.17151314257E+03  0.00000000000E+00 0.  1.
         36    2    1    2    0    0 -0.35527136788E-14  0.35527136788E-14 -0.61007789733E+02  0.28201849540E+03  0.27534066416E+03 0.  0.
         25    2    3    3    0    0 -0.13408500966E+02 -0.11256737984E+02  0.27631342224E+02  0.12780635596E+03  0.12354946986E+03 0.  0.
         25    2    3    3    0    0  0.13408500966E+02  0.11256737984E+02 -0.88639131958E+02  0.15421213944E+03  0.12497194160E+03 0.  0.
          5    1    4    4  502    0  0.46761534139E+02 -0.35257746387E+02  0.47532200962E+01  0.58944319969E+02  0.47000000000E+01 0.  1.
         -5    1    4    4    0  502 -0.60170035105E+02  0.24001008404E+02  0.22878122128E+02  0.68862035992E+02  0.47000000000E+01 0.  1.
          5    1    5    5  503    0 -0.30494650568E+01  0.64029975818E+02 -0.22995927850E+02  0.68264483724E+02  0.47000000000E+01 0. -1.
         -5    1    5    5    0  503  0.16457966023E+02 -0.52773237834E+02 -0.65643204107E+02  0.85947655713E+02  0.47000000000E+01 0. -1.
<mgrwt>
<rscale>  0 0.27534066E+03</rscale>
<asrwt>0</asrwt>
<pdfrwt beam="1">  1        2 0.26386637E-01 0.27534066E+03</pdfrwt>
<pdfrwt beam="2">  1       -2 0.17000824E-01 0.27534066E+03</pdfrwt>
<totfact> 0.55750353E+03</totfact>
</mgrwt>
</event>
<event>
 9    1  0.2031653E-002  0.2751264E+03  0.7818608E-02  0.1098381E+00
          2   -1    0    0  501    0  0.00000000000E+00  0.00000000000E+00  0.25113893691E+03  0.25113893691E+03  0.00000000000E+00 0. -1.
         -2   -1    0    0    0  501 -0.00000000000E+00 -0.00000000000E+00 -0.75351260470E+02  0.75351260470E+02  0.00000000000E+00 0. -1.
         36    2    1    2    0    0  0.00000000000E+00  0.00000000000E+00  0.17578767644E+03  0.32649019738E+03  0.27512641058E+03 0.  0.
         25    2    3    3    0    0  0.50271042127E+02 -0.29178011442E+02  0.60658101390E+02  0.14647130958E+03  0.11998293728E+03 0.  0.
         25    2    3    3    0    0 -0.50271042127E+02  0.29178011442E+02  0.11512957505E+03  0.18001888780E+03  0.12559238386E+03 0.  0.
          5    1    4    4  502    0 -0.14834366095E+02  0.35710390202E+02  0.30961538446E+02  0.49759393573E+02  0.47000000000E+01 0. -1.
         -5    1    4    4    0  502  0.65105408222E+02 -0.64888401644E+02  0.29696562944E+02  0.96711916010E+02  0.47000000000E+01 0. -1.
          5    1    5    5  503    0  0.42572177414E+01  0.48106117189E+02 -0.28360541007E+01  0.48605098670E+02  0.47000000000E+01 0. -1.
         -5    1    5    5    0  503 -0.54528259868E+02 -0.18928105747E+02  0.11796562915E+03  0.13141378913E+03  0.47000000000E+01 0. -1.
<mgrwt>
<rscale>  0 0.27512641E+03</rscale>
<asrwt>0</asrwt>
<pdfrwt beam="1">  1        2 0.38636759E-01 0.27512641E+03</pdfrwt>
<pdfrwt beam="2">  1       -2 0.11592502E-01 0.27512641E+03</pdfrwt>
<totfact> 0.68873430E+03</totfact>
</mgrwt>
</event>
<event>
 9    1  0.2031653E-002  0.2742717E+03  0.7818608E-02  0.1098859E+00
         -1   -1    0    0    0  501 -0.00000000000E+00  0.00000000000E+00  0.16306895787E+03  0.16306895787E+03  0.00000000000E+00 0.  1.
          1   -1    0    0  501    0  0.00000000000E+00 -0.00000000000E+00 -0.11532695264E+03  0.11532695264E+03  0.00000000000E+00 0.  1.
         36    2    1    2    0    0  0.00000000000E+00  0.00000000000E+00  0.47742005222E+02  0.27839591051E+03  0.27427173374E+03 0.  0.
         25    2    3    3    0    0  0.61772491945E+02 -0.12958211712E+02  0.15982350805E+02  0.13880348255E+03  0.12258554245E+03 0.  0.
         25    2    3    3    0    0 -0.61772491945E+02  0.12958211712E+02  0.31759654417E+02  0.13959242796E+03  0.12038942763E+03 0.  0.
          5    1    4    4  502    0 -0.25598942452E+02  0.28501861951E+02 -0.71524679971E+01  0.39254423799E+02  0.47000000000E+01 0.  1.
         -5    1    4    4    0  502  0.87371434397E+02 -0.41460073663E+02  0.23134818802E+02  0.99549058748E+02  0.47000000000E+01 0.  1.
          5    1    5    5  503    0 -0.49488725991E+02 -0.46881458342E+02 -0.43605027258E+01  0.68469767931E+02  0.47000000000E+01 0. -1.
         -5    1    5    5    0  503 -0.12283765954E+02  0.59839670054E+02  0.36120157143E+02  0.71122660033E+02  0.47000000000E+01 0. -1.
<mgrwt>
<rscale>  0 0.27427173E+03</rscale>
<asrwt>0</asrwt>
<pdfrwt beam="1">  1        1 0.17742608E-01 0.27427173E+03</pdfrwt>
<pdfrwt beam="2">  1       -1 0.25087532E-01 0.27427173E+03</pdfrwt>
<totfact> 0.41086917E+03</totfact>
</mgrwt>
</event>
<event>
 9    1  0.2031653E-002  0.2754317E+03  0.7818608E-02  0.1098211E+00
         -1   -1    0    0    0  501 -0.00000000000E+00  0.00000000000E+00  0.14261289211E+02  0.14261289211E+02  0.00000000000E+00 0. -1.
          1   -1    0    0  501    0  0.00000000000E+00 -0.00000000000E+00 -0.13298696434E+04  0.13298696434E+04  0.00000000000E+00 0. -1.
         36    2    1    2    0    0 -0.71054273576E-14  0.35527136788E-14 -0.13156083542E+04  0.13441309326E+04  0.27543170186E+03 0.  0.
         25    2    3    3    0    0  0.38016622583E+02 -0.46113428131E+01 -0.45494790428E+03  0.47345756524E+03  0.12537121836E+03 0.  0.
         25    2    3    3    0    0 -0.38016622583E+02  0.46113428131E+01 -0.86066044993E+03  0.87067336740E+03  0.12597291196E+03 0.  0.
          5    1    4    4  502    0  0.33272373249E+02  0.28351823572E+02 -0.47883587014E+02  0.65006189142E+02  0.47000000000E+01 0.  1.
         -5    1    4    4    0  502  0.47442493345E+01 -0.32963166385E+02 -0.40706431727E+03  0.40845137609E+03  0.47000000000E+01 0.  1.
          5    1    5    5  503    0  0.25900349174E+02  0.24107563115E+02 -0.85883149011E+02  0.93005419040E+02  0.47000000000E+01 0.  1.
         -5    1    5    5    0  503 -0.63916971757E+02 -0.19496220302E+02 -0.77477730092E+03  0.77766794836E+03  0.47000000000E+01 0.  1.
<mgrwt>
<rscale>  0 0.27543170E+03</rscale>
<asrwt>0</asrwt>
<pdfrwt beam="1">  1        1 0.20459531E+00 0.27543170E+03</pdfrwt>
<pdfrwt beam="2">  1       -1 0.21940447E-02 0.27543170E+03</pdfrwt>
<totfact> 0.55730321E+03</totfact>
</mgrwt>
</event>
<event>
 9    1  0.2031653E-002  0.2752981E+03  0.7818608E-02  0.1098285E+00
         -1   -1    0    0    0  501 -0.00000000000E+00  0.00000000000E+00  0.24032727401E+02  0.24032727401E+02  0.00000000000E+00 0. -1.
          1   -1    0    0  501    0  0.00000000000E+00 -0.00000000000E+00 -0.78839386002E+03  0.78839386002E+03  0.00000000000E+00 0. -1.
         36    2    1    2    0    0  0.35527136788E-14  0.00000000000E+00 -0.76436113262E+03  0.81242658743E+03  0.27529805465E+03 0.  0.
         25    2    3    3    0    0  0.12384276172E+02 -0.20160472113E+02 -0.26259630815E+03  0.29442277567E+03  0.13102722940E+03 0.  0.
         25    2    3    3    0    0 -0.12384276172E+02  0.20160472113E+02 -0.50176482447E+03  0.51800381176E+03  0.12649187716E+03 0.  0.
          5    1    4    4  502    0 -0.26215460514E+02 -0.50561362483E+02 -0.49249298761E+02  0.75440606934E+02  0.47000000000E+01 0.  1.
         -5    1    4    4    0  502  0.38599736686E+02  0.30400890370E+02 -0.21334700939E+03  0.21898216874E+03  0.47000000000E+01 0.  1.
          5    1    5    5  503    0  0.36374188934E+02 -0.33658484518E+02 -0.13046337389E+03  0.13963795017E+03  0.47000000000E+01 0.  1.
         -5    1    5    5    0  503 -0.48758465105E+02  0.53818956631E+02 -0.37130145057E+03  0.37836586158E+03  0.47000000000E+01 0.  1.
<mgrwt>
<rscale>  0 0.27529805E+03</rscale>
<asrwt>0</asrwt>
<pdfrwt beam="1">  1        1 0.12129135E+00 0.27529805E+03</pdfrwt>
<pdfrwt beam="2">  1       -1 0.36973430E-02 0.27529805E+03</pdfrwt>
<totfact> 0.65050554E+03</totfact>
</mgrwt>
</event>
<event>
 9    1  0.2031653E-002  0.2744742E+03  0.7818608E-02  0.1098746E+00
         -1   -1    0    0    0  501 -0.00000000000E+00  0.00000000000E+00  0.11218280433E+03  0.11218280433E+03  0.00000000000E+00 0. -1.
          1   -1    0    0  501    0  0.00000000000E+00 -0.00000000000E+00 -0.16788693827E+03  0.16788693827E+03  0.00000000000E+00 0. -1.
         36    2    1    2    0    0 -0.71054273576E-14 -0.71054273576E-14 -0.55704133942E+02  0.28006974260E+03  0.27447424321E+03 0.  0.
         25    2    3    3    0    0  0.10464654713E+02 -0.34752212043E+02  0.19490781223E+02  0.13170971946E+03  0.12510129659E+03 0.  0.
         25    2    3    3    0    0 -0.10464654713E+02  0.34752212043E+02 -0.75194915165E+02  0.14836002314E+03  0.12263439957E+03 0.  0.
          5    1    4    4  502    0  0.15400753802E+02  0.46144239126E+02  0.37665102564E+01  0.49017860232E+02  0.47000000000E+01 0.  1.
         -5    1    4    4    0  502 -0.49360990886E+01 -0.80896451169E+02  0.15724270967E+02  0.82691859233E+02  0.47000000000E+01 0.  1.
          5    1    5    5  503    0 -0.52402744381E+02  0.15755134209E+02 -0.84860103824E+02  0.10108214033E+03  0.47000000000E+01 0. -1.
         -5    1    5    5    0  503  0.41938089667E+02  0.18997077833E+02  0.96651886584E+01  0.47277882810E+02  0.47000000000E+01 0. -1.
<mgrwt>
<rscale>  0 0.27447424E+03</rscale>
<asrwt>0</asrwt>
<pdfrwt beam="1">  1        1 0.25828759E-01 0.27447424E+03</pdfrwt>
<pdfrwt beam="2">  1       -1 0.17258893E-01 0.27447424E+03</pdfrwt>
<totfact> 0.46724582E+03</totfact>
</mgrwt>
</event>
<event>
 9    1  0.2031653E-002  0.2749033E+03  0.7818608E-02  0.1098506E+00
         -1   -1    0    0    0  501 -0.00000000000E+00  0.00000000000E+00  0.63950705782E+01  0.63950705782E+01  0.00000000000E+00 0. -1.
          1   -1    0    0  501    0  0.00000000000E+00 -0.00000000000E+00 -0.29542990358E+04  0.29542990358E+04  0.00000000000E+00 0. -1.
         36    2    1    2    0    0  0.00000000000E+00  0.00000000000E+00 -0.29479039652E+04  0.29606941064E+04  0.27490326184E+03 0.  0.
         25    2    3    3    0    0 -0.17456502910E+01 -0.20367273585E+02 -0.89402520982E+03  0.90287385428E+03  0.12442768107E+03 0.  0.
         25    2    3    3    0    0  0.17456502910E+01  0.20367273585E+02 -0.20538787554E+04  0.20578202521E+04  0.12565180038E+03 0.  0.
          5    1    4    4  502    0 -0.57584795726E+02 -0.35643126925E+02 -0.50201680500E+03  0.50658602794E+03  0.47000000000E+01 0. -1.
         -5    1    4    4    0  502  0.55839145435E+02  0.15275853340E+02 -0.39200840482E+03  0.39628782635E+03  0.47000000000E+01 0. -1.
          5    1    5    5  503    0  0.47193644421E+02  0.48291822020E+02 -0.14475231084E+04  0.14491047510E+04  0.47000000000E+01 0.  1.
         -5    1    5    5    0  503 -0.45447994130E+02 -0.27924548435E+02 -0.60635564706E+03  0.60871550111E+03  0.47000000000E+01 0.  1.
<mgrwt>
<rscale>  0 0.27490326E+03</rscale>
<asrwt>0</asrwt>
<pdfrwt beam="1">  1        1 0.45450798E+00 0.27490326E+03</pdfrwt>
<pdfrwt beam="2">  1       -1 0.98385607E-03 0.27490326E+03</pdfrwt>
<totfact> 0.15001649E+03</totfact>
</mgrwt>
</event>
<event>
 9    1  0.2031653E-002  0.2744639E+03  0.7818608E-02  0.1098752E+00
         -2   -1    0    0    0  501 -0.00000000000E+00  0.00000000000E+00  0.92696129389E+01  0.92696129389E+01  0.00000000000E+00 0. -1.
          2   -1    0    0  501    0  0.00000000000E+00 -0.00000000000E+00 -0.20316499966E+04  0.20316499966E+04  0.00000000000E+00 0. -1.
         36    2    1    2    0    0  0.00000000000E+00  0.35527136788E-14 -0.20223803837E+04  0.20409196096E+04  0.27446390725E+03 0.  0.
         25    2    3    3    0    0  0.24815947089E+02 -0.61156828937E+01 -0.54015291411E+03  0.55419318758E+03  0.12129173813E+03 0.  0.
         25    2    3    3    0    0 -0.24815947089E+02  0.61156828937E+01 -0.14822274696E+04  0.14867264220E+04  0.11271179811E+03 0.  0.
          5    1    4    4  502    0 -0.17694342464E+02 -0.44128300306E+02 -0.39949945361E+03  0.40234599548E+03  0.47000000000E+01 0. -1.
         -5    1    4    4    0  502  0.42510289552E+02  0.38012617412E+02 -0.14065346050E+03  0.15184719211E+03  0.47000000000E+01 0. -1.
          5    1    5    5  503    0 -0.65920703992E+02 -0.95114294795E+01 -0.67676046287E+03  0.68004619006E+03  0.47000000000E+01 0.  1.
         -5    1    5    5    0  503  0.41104756904E+02  0.15627112373E+02 -0.80546700670E+03  0.80668023192E+03  0.47000000000E+01 0.  1.
<mgrwt>
<rscale>  0 0.27446391E+03</rscale>
<asrwt>0</asrwt>
<pdfrwt beam="1">  1        2 0.31256140E+00 0.27446391E+03</pdfrwt>
<pdfrwt beam="2">  1       -2 0.14260949E-02 0.27446391E+03</pdfrwt>
<totfact> 0.90824222E+03</totfact>
</mgrwt>
</event>
<event>
 9    1  0.2031653E-002  0.2729045E+03  0.7818608E-02  0.1099629E+00
         -1   -1    0    0    0  501 -0.00000000000E+00  0.00000000000E+00  0.67434682699E+01  0.67434682699E+01  0.00000000000E+00 0.  1.
          1   -1    0    0  501    0  0.00000000000E+00 -0.00000000000E+00 -0.27610745019E+04  0.27610745019E+04  0.00000000000E+00 0.  1.
         36    2    1    2    0    0 -0.26645352591E-14  0.71054273576E-14 -0.27543310336E+04  0.27678179702E+04  0.27290451293E+03 0.  0.
         25    2    3    3    0    0  0.58033611528E+00 -0.53549782217E+02 -0.15193003695E+04  0.15254723917E+04  0.12619227082E+03 0.  0.
         25    2    3    3    0    0 -0.58033611528E+00  0.53549782217E+02 -0.12350306642E+04  0.12423455785E+04  0.12350659477E+03 0.  0.
          5    1    4    4  502    0 -0.50471261952E+01 -0.29722306564E+02 -0.14691550364E+04  0.14694718439E+04  0.47000000000E+01 0. -1.
         -5    1    4    4    0  502  0.56274623104E+01 -0.23827475653E+02 -0.50145333124E+02  0.56000547873E+02  0.47000000000E+01 0. -1.
          5    1    5    5  503    0  0.46613012256E+02 -0.16792743539E+02 -0.46461040523E+03  0.46726832527E+03  0.47000000000E+01 0. -1.
         -5    1    5    5    0  503 -0.47193348371E+02  0.70342525756E+02 -0.77042025892E+03  0.77507725319E+03  0.47000000000E+01 0. -1.
<mgrwt>
<rscale>  0 0.27290451E+03</rscale>
<asrwt>0</asrwt>
<pdfrwt beam="1">  1        1 0.42478137E+00 0.27290451E+03</pdfrwt>
<pdfrwt beam="2">  1       -1 0.10374550E-02 0.27290451E+03</pdfrwt>
<totfact> 0.18874704E+03</totfact>
</mgrwt>
</event>
<event>
 9    1  0.2031653E-002  0.2760767E+03  0.7818608E-02  0.1097851E+00
         -2   -1    0    0    0  501 -0.00000000000E+00  0.00000000000E+00  0.15238809464E+02  0.15238809464E+02  0.00000000000E+00 0.  1.
          2   -1    0    0  501    0  0.00000000000E+00 -0.00000000000E+00 -0.12503990294E+04  0.12503990294E+04  0.00000000000E+00 0.  1.
         36    2    1    2    0    0  0.00000000000E+00 -0.35527136788E-14 -0.12351602199E+04  0.12656378389E+04  0.27607674703E+03 0.  0.
         25    2    3    3    0    0  0.55122725466E+02  0.75621148756E+01 -0.58606742303E+03  0.60240543375E+03  0.12775594637E+03 0.  0.
         25    2    3    3    0    0 -0.55122725466E+02 -0.75621148756E+01 -0.64909279692E+03  0.66323240512E+03  0.12433850470E+03 0.  0.
          5    1    4    4  502    0 -0.29927646860E+02 -0.32231500935E+02 -0.22436849380E+03  0.22868722025E+03  0.47000000000E+01 0. -1.
         -5    1    4    4    0  502  0.85050372326E+02  0.39793615810E+02 -0.36169892923E+03  0.37371821350E+03  0.47000000000E+01 0. -1.
          5    1    5    5  503    0  0.23882009029E+02  0.12126121016E+02 -0.38035970997E+02  0.46757012906E+02  0.47000000000E+01 0. -1.
         -5    1    5    5    0  503 -0.79004734495E+02 -0.19688235892E+02 -0.61105682592E+03  0.61647539222E+03  0.47000000000E+01 0. -1.
<mgrwt>
<rscale>  0 0.27607675E+03</rscale>
<asrwt>0</asrwt>
<pdfrwt beam="1">  1        2 0.19236907E+00 0.27607675E+03</pdfrwt>
<pdfrwt beam="2">  1       -2 0.23444324E-02 0.27607675E+03</pdfrwt>
<totfact> 0.11424484E+04</totfact>
</mgrwt>
</event>
<event>
 9    1  0.2031653E-002  0.2744224E+03  0.7818608E-02  0.1098775E+00
          1   -1    0    0  501    0  0.00000000000E+00  0.00000000000E+00  0.20290290548E+03  0.20290290548E+03  0.00000000000E+00 0.  1.
         -1   -1    0    0    0  501 -0.00000000000E+00 -0.00000000000E+00 -0.92787805761E+02  0.92787805761E+02  0.00000000000E+00 0.  1.
         36    2    1    2    0    0  0.00000000000E+00  0.00000000000E+00  0.11011509972E+03  0.29569071124E+03  0.27442241441E+03 0.  0.
         25    2    3    3    0    0 -0.63721088777E+01 -0.15711746228E+02  0.72254171192E+02  0.16190583245E+03  0.14389360856E+03 0.  0.
         25    2    3    3    0    0  0.63721088777E+01  0.15711746228E+02  0.37860928530E+02  0.13378487879E+03  0.12719072743E+03 0.  0.
          5    1    4    4  502    0  0.48696310971E+02  0.92556202309E+01  0.86319146725E+02  0.99649798291E+02  0.47000000000E+01 0.  1.
         -5    1    4    4    0  502 -0.55068419849E+02 -0.24967366459E+02 -0.14064975533E+02  0.62256034160E+02  0.47000000000E+01 0.  1.
          5    1    5    5  503    0 -0.19717713036E+02 -0.36195954679E+02  0.58705499767E+02  0.71884358837E+02  0.47000000000E+01 0. -1.
         -5    1    5    5    0  503  0.26089821913E+02  0.51907700907E+02 -0.20844571237E+02  0.61900519957E+02  0.47000000000E+01 0. -1.
<mgrwt>
<rscale>  0 0.27442241E+03</rscale>
<asrwt>0</asrwt>
<pdfrwt beam="1">  1        1 0.31215832E-01 0.27442241E+03</pdfrwt>
<pdfrwt beam="2">  1       -1 0.14275047E-01 0.27442241E+03</pdfrwt>
<totfact> 0.49744177E+03</totfact>
</mgrwt>
</event>
<event>
 9    1  0.2031653E-002  0.2753022E+03  0.7818608E-02  0.1098283E+00
          2   -1    0    0  501    0  0.00000000000E+00  0.00000000000E+00  0.29562870566E+04  0.29562870566E+04  0.00000000000E+00 0. -1.
         -2   -1    0    0    0  501 -0.00000000000E+00 -0.00000000000E+00 -0.64093301507E+01  0.64093301507E+01  0.00000000000E+00 0. -1.
         36    2    1    2    0    0  0.14210854715E-13  0.35527136788E-14  0.29498777264E+04  0.29626963867E+04  0.27530215957E+03 0.  0.
         25    2    3    3    0    0 -0.47359609265E+02 -0.95493114550E+01  0.10449642742E+04  0.10531989218E+04  0.12224366052E+03 0.  0.
         25    2    3    3    0    0  0.47359609265E+02  0.95493114550E+01  0.19049134522E+04  0.19094974649E+04  0.12309015495E+03 0.  0.
          5    1    4    4  502    0  0.38557911256E+02 -0.39186924408E+01  0.19485607983E+03  0.19872858506E+03  0.47000000000E+01 0. -1.
         -5    1    4    4    0  502 -0.85917520522E+02 -0.56306190143E+01  0.85010819437E+03  0.85447033672E+03  0.47000000000E+01 0. -1.
          5    1    5    5  503    0  0.57456931017E+02  0.10608290687E+02  0.37587746648E+03  0.38042054961E+03  0.47000000000E+01 0.  1.
         -5    1    5    5    0  503 -0.10097321751E+02 -0.10589792315E+01  0.15290359857E+04  0.15290769153E+04  0.47000000000E+01 0.  1.
<mgrwt>
<rscale>  0 0.27530216E+03</rscale>
<asrwt>0</asrwt>
<pdfrwt beam="1">  1        2 0.45481230E+00 0.27530216E+03</pdfrwt>
<pdfrwt beam="2">  1       -2 0.98605315E-03 0.27530216E+03</pdfrwt>
<totfact> 0.48116753E+03</totfact>
</mgrwt>
</event>
<event>
 9    1  0.2031653E-002  0.2749906E+03  0.7818608E-02  0.1098457E+00
         -1   -1    0    0    0  501 -0.00000000000E+00  0.00000000000E+00  0.25876068000E+02  0.25876068000E+02  0.00000000000E+00 0. -1.
          1   -1    0    0  501    0  0.00000000000E+00 -0.00000000000E+00 -0.73059603265E+03  0.73059603265E+03  0.00000000000E+00 0. -1.
         36    2    1    2    0    0 -0.71054273576E-14  0.71054273576E-14 -0.70471996465E+03  0.75647210065E+03  0.27499056436E+03 0.  0.
         25    2    3    3    0    0  0.90085757210E+01 -0.53767288329E+02 -0.34561065568E+03  0.37182527043E+03  0.12583811299E+03 0.  0.
         25    2    3    3    0    0 -0.90085757210E+01  0.53767288329E+02 -0.35910930897E+03  0.38464683022E+03  0.12657650839E+03 0.  0.
          5    1    4    4  502    0  0.47769651605E+02  0.16954611888E+02 -0.18729128858E+03  0.19408636030E+03  0.47000000000E+01 0. -1.
         -5    1    4    4    0  502 -0.38761075884E+02 -0.70721900217E+02 -0.15831936710E+03  0.17773891012E+03  0.47000000000E+01 0. -1.
          5    1    5    5  503    0  0.58343533850E+02  0.27638695765E+02 -0.18884063241E+03  0.19962650098E+03  0.47000000000E+01 0. -1.
         -5    1    5    5    0  503 -0.67352109571E+02  0.26128592564E+02 -0.17026867656E+03  0.18502032924E+03  0.47000000000E+01 0. -1.
<mgrwt>
<rscale>  0 0.27499056E+03</rscale>
<asrwt>0</asrwt>
<pdfrwt beam="1">  1        1 0.11239939E+00 0.27499056E+03</pdfrwt>
<pdfrwt beam="2">  1       -1 0.39809335E-02 0.27499056E+03</pdfrwt>
<totfact> 0.65366144E+03</totfact>
</mgrwt>
</event>
<event>
 9    1  0.2031653E-002  0.2748041E+03  0.7818608E-02  0.1098561E+00
          2   -1    0    0  501    0  0.00000000000E+00  0.00000000000E+00  0.20497110834E+04  0.20497110834E+04  0.00000000000E+00 0. -1.
         -2   -1    0    0    0  501 -0.00000000000E+00 -0.00000000000E+00 -0.92107260067E+01  0.92107260067E+01  0.00000000000E+00 0. -1.
         36    2    1    2    0    0  0.00000000000E+00  0.35527136788E-14  0.20405003573E+04  0.20589218094E+04  0.27480412793E+03 0.  0.
         25    2    3    3    0    0  0.56795807538E+02 -0.11269090040E+02  0.13917494265E+04  0.13985622106E+04  0.12512807370E+03 0.  0.
         25    2    3    3    0    0 -0.56795807538E+02  0.11269090040E+02  0.64875093088E+03  0.66035959872E+03  0.10883139783E+03 0.  0.
          5    1    4    4  502    0 -0.24337984691E+02 -0.39185046324E+02  0.31565561851E+03  0.31904288873E+03  0.47000000000E+01 0. -1.
         -5    1    4    4    0  502  0.81133792229E+02  0.27915956283E+02  0.10760938080E+04  0.10795193219E+04  0.47000000000E+01 0. -1.
          5    1    5    5  503    0 -0.43583648517E+02 -0.21713617911E+02  0.10963772176E+03  0.12005638531E+03  0.47000000000E+01 0. -1.
         -5    1    5    5    0  503 -0.13212159021E+02  0.32982707951E+02  0.53911320912E+03  0.54030321341E+03  0.47000000000E+01 0. -1.
<mgrwt>
<rscale>  0 0.27480413E+03</rscale>
<asrwt>0</asrwt>
<pdfrwt beam="1">  1        2 0.31533980E+00 0.27480413E+03</pdfrwt>
<pdfrwt beam="2">  1       -2 0.14170364E-02 0.27480413E+03</pdfrwt>
<totfact> 0.89687920E+03</totfact>
</mgrwt>
</event>
<event>
 9    1  0.2031653E-002  0.2859608E+03  0.7818608E-02  0.1092477E+00
         -2   -1    0    0    0  501 -0.00000000000E+00  0.00000000000E+00  0.72224705606E+02  0.72224705606E+02  0.00000000000E+00 0. -1.
          2   -1    0    0  501    0  0.00000000000E+00 -0.00000000000E+00 -0.28305274927E+03  0.28305274927E+03  0.00000000000E+00 0. -1.
         36    2    1    2    0    0 -0.14210854715E-13  0.71054273576E-14 -0.21082804367E+03  0.35527745488E+03  0.28596084688E+03 0.  0.
         25    2    3    3    0    0 -0.67433281373E+02  0.23658316062E+02 -0.11149104131E+03  0.18266070300E+03  0.12580825400E+03 0.  0.
         25    2    3    3    0    0  0.67433281373E+02 -0.23658316062E+02 -0.99337002361E+02  0.17261675188E+03  0.12174456717E+03 0.  0.
          5    1    4    4  502    0 -0.31389896525E+02 -0.48982665849E+02 -0.23529987103E+02  0.62931529860E+02  0.47000000000E+01 0. -1.
         -5    1    4    4    0  502 -0.36043384848E+02  0.72640981910E+02 -0.87961054203E+02  0.11972917314E+03  0.47000000000E+01 0. -1.
          5    1    5    5  503    0  0.34661057681E+02 -0.64567948284E+02 -0.94627587201E+02  0.11977845852E+03  0.47000000000E+01 0. -1.
         -5    1    5    5    0  503  0.32772223692E+02  0.40909632222E+02 -0.47094151599E+01  0.52838293362E+02  0.47000000000E+01 0. -1.
<mgrwt>
<rscale>  0 0.28596085E+03</rscale>
<asrwt>0</asrwt>
<pdfrwt beam="1">  1        2 0.43546578E-01 0.28596085E+03</pdfrwt>
<pdfrwt beam="2">  1       -2 0.11111493E-01 0.28596085E+03</pdfrwt>
<totfact> 0.64896983E+03</totfact>
</mgrwt>
</event>
<event>
 9    1  0.2031653E-002  0.2743482E+03  0.7818608E-02  0.1098816E+00
         -1   -1    0    0    0  501 -0.00000000000E+00  0.00000000000E+00  0.88788453263E+02  0.88788453263E+02  0.00000000000E+00 0.  1.
          1   -1    0    0  501    0  0.00000000000E+00 -0.00000000000E+00 -0.21192773949E+03  0.21192773949E+03  0.00000000000E+00 0.  1.
         36    2    1    2    0    0  0.00000000000E+00  0.00000000000E+00 -0.12313928623E+03  0.30071619276E+03  0.27434821810E+03 0.  0.
         25    2    3    3    0    0 -0.16909339737E+02 -0.34858978290E+02 -0.10928453445E+03  0.17075191599E+03  0.12534764938E+03 0.  0.
         25    2    3    3    0    0  0.16909339737E+02  0.34858978290E+02 -0.13854751778E+02  0.12996427677E+03  0.12327889094E+03 0.  0.
          5    1    4    4  502    0 -0.39621140202E+02 -0.55129593561E+02 -0.12015399555E+03  0.13808757904E+03  0.47000000000E+01 0.  1.
         -5    1    4    4    0  502  0.22711800465E+02  0.20270615271E+02  0.10869461098E+02  0.32664336950E+02  0.47000000000E+01 0.  1.
          5    1    5    5  503    0 -0.21907756243E+02  0.37589884500E+02 -0.56877423510E+02  0.71764061378E+02  0.47000000000E+01 0. -1.
         -5    1    5    5    0  503  0.38817095980E+02 -0.27309062095E+01  0.43022671732E+02  0.58200215395E+02  0.47000000000E+01 0. -1.
<mgrwt>
<rscale>  0 0.27434822E+03</rscale>
<asrwt>0</asrwt>
<pdfrwt beam="1">  1        1 0.32604267E-01 0.27434822E+03</pdfrwt>
<pdfrwt beam="2">  1       -1 0.13659762E-01 0.27434822E+03</pdfrwt>
<totfact> 0.50482465E+03</totfact>
</mgrwt>
</event>
<event>
 9    1  0.2031653E-002  0.2770894E+03  0.7818608E-02  0.1097289E+00
          1   -1    0    0  501    0  0.00000000000E+00  0.00000000000E+00  0.59274688614E+03  0.59274688614E+03  0.00000000000E+00 0. -1.
         -1   -1    0    0    0  501 -0.00000000000E+00 -0.00000000000E+00 -0.32382521667E+02  0.32382521667E+02  0.00000000000E+00 0. -1.
         36    2    1    2    0    0 -0.35527136788E-14  0.00000000000E+00  0.56036436447E+03  0.62512940780E+03  0.27708943598E+03 0.  0.
         25    2    3    3    0    0 -0.19732746444E+02 -0.21052966479E+02  0.15941774799E+03  0.20351671568E+03  0.12317640403E+03 0.  0.
         25    2    3    3    0    0  0.19732746444E+02  0.21052966479E+02  0.40094661648E+03  0.42161269212E+03  0.12714741134E+03 0.  0.
          5    1    4    4  502    0 -0.21058449074E+02  0.26497697704E+02 -0.29122391484E+01  0.34295151230E+02  0.47000000000E+01 0.  1.
         -5    1    4    4    0  502  0.13257026304E+01 -0.47550664183E+02  0.16232998714E+03  0.16922156445E+03  0.47000000000E+01 0.  1.
          5    1    5    5  503    0  0.48337275430E+02  0.60064691592E+02  0.29675020220E+03  0.30663827529E+03  0.47000000000E+01 0.  1.
         -5    1    5    5    0  503 -0.28604528986E+02 -0.39011725113E+02  0.10419641429E+03  0.11497441683E+03  0.47000000000E+01 0.  1.
<mgrwt>
<rscale>  0 0.27708944E+03</rscale>
<asrwt>0</asrwt>
<pdfrwt beam="1">  1        1 0.91191821E-01 0.27708944E+03</pdfrwt>
<pdfrwt beam="2">  1       -1 0.49819268E-02 0.27708944E+03</pdfrwt>
<totfact> 0.63090015E+03</totfact>
</mgrwt>
</event>
<event>
 9    1  0.2031653E-002  0.2769341E+03  0.7818608E-02  0.1097375E+00
         -1   -1    0    0    0  501 -0.00000000000E+00  0.00000000000E+00  0.69377057926E+02  0.69377057926E+02  0.00000000000E+00 0. -1.
          1   -1    0    0  501    0  0.00000000000E+00 -0.00000000000E+00 -0.27636124908E+03  0.27636124908E+03  0.00000000000E+00 0. -1.
         36    2    1    2    0    0 -0.14210854715E-13 -0.71054273576E-14 -0.20698419115E+03  0.34573830700E+03  0.27693414658E+03 0.  0.
         25    2    3    3    0    0  0.34584231496E+02  0.65753631832E+01 -0.65457189471E+02  0.14650631798E+03  0.12625431908E+03 0.  0.
         25    2    3    3    0    0 -0.34584231496E+02 -0.65753631832E+01 -0.14152700168E+03  0.19923198902E+03  0.13573573139E+03 0.  0.
          5    1    4    4  502    0  0.49532710062E+02  0.50641283061E+02 -0.65568642791E+01  0.71295942278E+02  0.47000000000E+01 0. -1.
         -5    1    4    4    0  502 -0.14948478566E+02 -0.44065919878E+02 -0.58900325191E+02  0.75210375706E+02  0.47000000000E+01 0. -1.
          5    1    5    5  503    0 -0.40135738034E+02 -0.59023403240E+02 -0.12454539867E+03  0.14362550584E+03  0.47000000000E+01 0.  1.
         -5    1    5    5    0  503  0.55515065379E+01  0.52448040057E+02 -0.16981603007E+02  0.55606483177E+02  0.47000000000E+01 0.  1.
<mgrwt>
<rscale>  0 0.27693415E+03</rscale>
<asrwt>0</asrwt>
<pdfrwt beam="1">  1        1 0.42517115E-01 0.27693415E+03</pdfrwt>
<pdfrwt beam="2">  1       -1 0.10673394E-01 0.27693415E+03</pdfrwt>
<totfact> 0.53203447E+03</totfact>
</mgrwt>
</event>
<event>
 9    1  0.2031653E-002  0.2751989E+03  0.7818608E-02  0.1098340E+00
          1   -1    0    0  501    0  0.00000000000E+00  0.00000000000E+00  0.10290413212E+04  0.10290413212E+04  0.00000000000E+00 0. -1.
         -1   -1    0    0    0  501 -0.00000000000E+00 -0.00000000000E+00 -0.18399273071E+02  0.18399273071E+02  0.00000000000E+00 0. -1.
         36    2    1    2    0    0  0.35527136788E-14 -0.71054273576E-14  0.10106420481E+04  0.10474405943E+04  0.27519892638E+03 0.  0.
         25    2    3    3    0    0 -0.23332798866E+01  0.39103995981E+02  0.69510771754E+03  0.70671458873E+03  0.12139276848E+03 0.  0.
         25    2    3    3    0    0  0.23332798866E+01 -0.39103995981E+02  0.31553433058E+03  0.34072600553E+03  0.12246522109E+03 0.  0.
          5    1    4    4  502    0 -0.57554492832E+02 -0.26815885629E+01  0.29034259751E+03  0.29604159250E+03  0.47000000000E+01 0. -1.
         -5    1    4    4    0  502  0.55221212945E+02  0.41785584544E+02  0.40476512003E+03  0.41067299623E+03  0.47000000000E+01 0. -1.
          5    1    5    5  503    0 -0.13503155104E+02 -0.50794905771E+02  0.44757034420E+02  0.69193495215E+02  0.47000000000E+01 0. -1.
         -5    1    5    5    0  503  0.15836434990E+02  0.11690909790E+02  0.27077729616E+03  0.27153251032E+03  0.47000000000E+01 0. -1.
<mgrwt>
<rscale>  0 0.27519893E+03</rscale>
<asrwt>0</asrwt>
<pdfrwt beam="1">  1        1 0.15831401E+00 0.27519893E+03</pdfrwt>
<pdfrwt beam="2">  1       -1 0.28306582E-02 0.27519893E+03</pdfrwt>
<totfact> 0.62492195E+03</totfact>
</mgrwt>
</event>
<event>
 9    1  0.2031653E-002  0.2746294E+03  0.7818608E-02  0.1098659E+00
         -2   -1    0    0    0  501 -0.00000000000E+00  0.00000000000E+00  0.44224923711E+02  0.44224923711E+02  0.00000000000E+00 0. -1.
          2   -1    0    0  501    0  0.00000000000E+00 -0.00000000000E+00 -0.42635079127E+03  0.42635079127E+03  0.00000000000E+00 0. -1.
         36    2    1    2    0    0 -0.17763568394E-14  0.00000000000E+00 -0.38212586756E+03  0.47057571498E+03  0.27462943191E+03 0.  0.
         25    2    3    3    0    0  0.36230923743E+01 -0.27381039266E+02 -0.28400861644E+03  0.31171176891E+03  0.12546108782E+03 0.  0.
         25    2    3    3    0    0 -0.36230923743E+01  0.27381039266E+02 -0.98117251118E+02  0.15886394607E+03  0.12185200156E+03 0.  0.
          5    1    4    4  502    0  0.61361062783E+02 -0.27652214654E+02 -0.11853219109E+03  0.13638839880E+03  0.47000000000E+01 0.  1.
         -5    1    4    4    0  502 -0.57737970409E+02  0.27117538818E+00 -0.16547642535E+03  0.17532337012E+03  0.47000000000E+01 0.  1.
          5    1    5    5  503    0  0.96731036687E+01 -0.53289750805E+00  0.27436501453E+02  0.29473793891E+02  0.47000000000E+01 0. -1.
         -5    1    5    5    0  503 -0.13296196043E+02  0.27913936774E+02 -0.12555375257E+03  0.12939015218E+03  0.47000000000E+01 0. -1.
<mgrwt>
<rscale>  0 0.27462943E+03</rscale>
<asrwt>0</asrwt>
<pdfrwt beam="1">  1        2 0.65592428E-01 0.27462943E+03</pdfrwt>
<pdfrwt beam="2">  1       -2 0.68038346E-02 0.27462943E+03</pdfrwt>
<totfact> 0.90038493E+03</totfact>
</mgrwt>
</event>
<event>
 9    1  0.2031653E-002  0.2745788E+03  0.7818608E-02  0.1098687E+00
         -1   -1    0    0    0  501 -0.00000000000E+00  0.00000000000E+00  0.58020501999E+03  0.58020501999E+03  0.00000000000E+00 0. -1.
          1   -1    0    0  501    0  0.00000000000E+00 -0.00000000000E+00 -0.32485712319E+02  0.32485712319E+02  0.00000000000E+00 0. -1.
         36    2    1    2    0    0  0.35527136788E-14  0.00000000000E+00  0.54771930767E+03  0.61269073231E+03  0.27457875639E+03 0.  0.
         25    2    3    3    0    0  0.16686948071E+02  0.45852556116E+02  0.22283652119E+03  0.25976905875E+03  0.12426961644E+03 0.  0.
         25    2    3    3    0    0 -0.16686948071E+02 -0.45852556116E+02  0.32488278648E+03  0.35292167356E+03  0.12893398147E+03 0.  0.
          5    1    4    4  502    0 -0.11423871153E+02 -0.29717239369E+02  0.14161717871E+03  0.14522787079E+03  0.47000000000E+01 0.  1.
         -5    1    4    4    0  502  0.28110819224E+02  0.75569795485E+02  0.81219342481E+02  0.11454118796E+03  0.47000000000E+01 0.  1.
          5    1    5    5  503    0  0.46765966287E+02 -0.54612432686E+02  0.14497718158E+03  0.16189517159E+03  0.47000000000E+01 0.  1.
         -5    1    5    5    0  503 -0.63452914359E+02  0.87598765706E+01  0.17990560491E+03  0.19102650197E+03  0.47000000000E+01 0.  1.
<mgrwt>
<rscale>  0 0.27457876E+03</rscale>
<asrwt>0</asrwt>
<pdfrwt beam="1">  1        1 0.49978023E-02 0.27457876E+03</pdfrwt>
<pdfrwt beam="2">  1       -1 0.89262303E-01 0.27457876E+03</pdfrwt>
<totfact> 0.21508701E+03</totfact>
</mgrwt>
</event>
<event>
 9    1  0.2031653E-002  0.2754212E+03  0.7818608E-02  0.1098216E+00
          1   -1    0    0  501    0  0.00000000000E+00  0.00000000000E+00  0.19823576335E+03  0.19823576335E+03  0.00000000000E+00 0. -1.
         -1   -1    0    0    0  501 -0.00000000000E+00 -0.00000000000E+00 -0.95664932974E+02  0.95664932974E+02  0.00000000000E+00 0. -1.
         36    2    1    2    0    0 -0.71054273576E-14  0.00000000000E+00  0.10257083038E+03  0.29390069633E+03  0.27542121207E+03 0.  0.
         25    2    3    3    0    0  0.28547760466E+02 -0.41802192992E+02  0.37185123889E+02  0.13936284991E+03  0.12440607915E+03 0.  0.
         25    2    3    3    0    0 -0.28547760466E+02  0.41802192992E+02  0.65385706487E+02  0.15453784642E+03  0.13055365716E+03 0.  0.
          5    1    4    4  502    0  0.57023337213E+02 -0.54112290722E+01  0.63769838355E+02  0.85846518105E+02  0.47000000000E+01 0.  1.
         -5    1    4    4    0  502 -0.28475576747E+02 -0.36390963920E+02 -0.26584714466E+02  0.53516331800E+02  0.47000000000E+01 0.  1.
          5    1    5    5  503    0 -0.38539691081E+02  0.84903521043E+02  0.31223930945E+02  0.98442569744E+02  0.47000000000E+01 0.  1.
         -5    1    5    5    0  503  0.99919306147E+01 -0.43101328051E+02  0.34161775543E+02  0.56095276676E+02  0.47000000000E+01 0.  1.
<mgrwt>
<rscale>  0 0.27542121E+03</rscale>
<asrwt>0</asrwt>
<pdfrwt beam="1">  1        1 0.30497810E-01 0.27542121E+03</pdfrwt>
<pdfrwt beam="2">  1       -1 0.14717682E-01 0.27542121E+03</pdfrwt>
<totfact> 0.48813883E+03</totfact>
</mgrwt>
</event>
<event>
 9    1  0.2031653E-002  0.2745437E+03  0.7818608E-02  0.1098707E+00
          1   -1    0    0  501    0  0.00000000000E+00  0.00000000000E+00  0.12320634163E+04  0.12320634163E+04  0.00000000000E+00 0. -1.
         -1   -1    0    0    0  501 -0.00000000000E+00 -0.00000000000E+00 -0.15294308051E+02  0.15294308051E+02  0.00000000000E+00 0. -1.
         36    2    1    2    0    0 -0.71054273576E-14  0.00000000000E+00  0.12167691083E+04  0.12473577244E+04  0.27454367541E+03 0.  0.
         25    2    3    3    0    0  0.12790428167E+02 -0.45882801413E+02  0.58549898857E+03  0.60187902239E+03  0.13107427457E+03 0.  0.
         25    2    3    3    0    0 -0.12790428167E+02  0.45882801413E+02  0.63127011971E+03  0.64547870199E+03  0.12598398380E+03 0.  0.
          5    1    4    4  502    0 -0.55874559423E+02 -0.28942619591E+02  0.36046356051E+03  0.36594495498E+03  0.47000000000E+01 0. -1.
         -5    1    4    4    0  502  0.68664987590E+02 -0.16940181821E+02  0.22503542806E+03  0.23593406741E+03  0.47000000000E+01 0. -1.
          5    1    5    5  503    0  0.44520613358E+02 -0.63632460035E+01  0.11810080774E+03  0.12646132493E+03  0.47000000000E+01 0. -1.
         -5    1    5    5    0  503 -0.57311041525E+02  0.52246047416E+02  0.51316931196E+03  0.51901737706E+03  0.47000000000E+01 0. -1.
<mgrwt>
<rscale>  0 0.27454368E+03</rscale>
<asrwt>0</asrwt>
<pdfrwt beam="1">  1        1 0.18954814E+00 0.27454368E+03</pdfrwt>
<pdfrwt beam="2">  1       -1 0.23529714E-02 0.27454368E+03</pdfrwt>
<totfact> 0.58708336E+03</totfact>
</mgrwt>
</event>
<event>
 9    1  0.2031653E-002  0.2744880E+03  0.7818608E-02  0.1098738E+00
         -1   -1    0    0    0  501 -0.00000000000E+00  0.00000000000E+00  0.83575664768E+01  0.83575664768E+01  0.00000000000E+00 0. -1.
          1   -1    0    0  501    0  0.00000000000E+00 -0.00000000000E+00 -0.22537567213E+04  0.22537567213E+04  0.00000000000E+00 0. -1.
         36    2    1    2    0    0 -0.17763568394E-14 -0.35527136788E-14 -0.22453991549E+04  0.22621142878E+04  0.27448804434E+03 0.  0.
         25    2    3    3    0    0  0.48702480264E+01  0.80638029734E+01 -0.66187257776E+03  0.67355740452E+03  0.12456132528E+03 0.  0.
         25    2    3    3    0    0 -0.48702480264E+01 -0.80638029734E+01 -0.15835265771E+04  0.15885568833E+04  0.12596748332E+03 0.  0.
          5    1    4    4  502    0  0.38383219726E+02 -0.19255852343E+02 -0.57287196334E+03  0.57449842104E+03  0.47000000000E+01 0. -1.
         -5    1    4    4    0  502 -0.33512971700E+02  0.27319655316E+02 -0.89000614426E+02  0.99058983474E+02  0.47000000000E+01 0. -1.
          5    1    5    5  503    0 -0.18897497704E+02 -0.61650630618E+02 -0.10885556905E+04  0.10904739781E+04  0.47000000000E+01 0. -1.
         -5    1    5    5    0  503  0.14027249677E+02  0.53586827645E+02 -0.49497088663E+03  0.49808290519E+03  0.47000000000E+01 0. -1.
<mgrwt>
<rscale>  0 0.27448804E+03</rscale>
<asrwt>0</asrwt>
<pdfrwt beam="1">  1        1 0.34673210E+00 0.27448804E+03</pdfrwt>
<pdfrwt beam="2">  1       -1 0.12857784E-02 0.27448804E+03</pdfrwt>
<totfact> 0.30109233E+03</totfact>
</mgrwt>
</event>
<event>
 9    1  0.2031653E-002  0.2752808E+03  0.7818608E-02  0.1098295E+00
         -3   -1    0    0    0  501 -0.00000000000E+00  0.00000000000E+00  0.39916742692E+03  0.39916742692E+03  0.00000000000E+00 0.  1.
          3   -1    0    0  501    0  0.00000000000E+00 -0.00000000000E+00 -0.47460997618E+02  0.47460997618E+02  0.00000000000E+00 0.  1.
         36    2    1    2    0    0  0.14210854715E-13 -0.35527136788E-14  0.35170642930E+03  0.44662842454E+03  0.27528083332E+03 0.  0.
         25    2    3    3    0    0  0.67319763505E+02  0.42998960235E+01  0.11766577377E+03  0.17229139278E+03  0.10624805901E+03 0.  0.
         25    2    3    3    0    0 -0.67319763505E+02 -0.42998960235E+01  0.23404065553E+03  0.27433703176E+03  0.12623525217E+03 0.  0.
          5    1    4    4  502    0 -0.21326649428E+02  0.16230170705E+02  0.59683166528E+02  0.65592795212E+02  0.47000000000E+01 0.  1.
         -5    1    4    4    0  502  0.88646412933E+02 -0.11930274681E+02  0.57982607245E+02  0.10669859757E+03  0.47000000000E+01 0.  1.
          5    1    5    5  503    0 -0.97611697526E+02 -0.26981153437E+02  0.13994693508E+03  0.17280989779E+03  0.47000000000E+01 0. -1.
         -5    1    5    5    0  503  0.30291934022E+02  0.22681257413E+02  0.94093720448E+02  0.10152713397E+03  0.47000000000E+01 0. -1.
<mgrwt>
<rscale>  0 0.27528083E+03</rscale>
<asrwt>0</asrwt>
<pdfrwt beam="1">  1        3 0.73016922E-02 0.27528083E+03</pdfrwt>
<pdfrwt beam="2">  1       -3 0.61410371E-01 0.27528083E+03</pdfrwt>
<totfact> 0.82554309E+02</totfact>
</mgrwt>
</event>
<event>
 9    1  0.2031653E-002  0.2754628E+03  0.7818608E-02  0.1098193E+00
          1   -1    0    0  501    0  0.00000000000E+00  0.00000000000E+00  0.47511100003E+03  0.47511100003E+03  0.00000000000E+00 0.  1.
         -1   -1    0    0    0  501 -0.00000000000E+00 -0.00000000000E+00 -0.39927379901E+02  0.39927379901E+02  0.00000000000E+00 0.  1.
         36    2    1    2    0    0  0.00000000000E+00  0.17763568394E-14  0.43518362013E+03  0.51503837993E+03  0.27546279163E+03 0.  0.
         25    2    3    3    0    0  0.49935653218E+02  0.10148993367E+02  0.26433068017E+03  0.29732000185E+03  0.12622164431E+03 0.  0.
         25    2    3    3    0    0 -0.49935653218E+02 -0.10148993367E+02  0.17085293996E+03  0.21771837808E+03  0.12495596637E+03 0.  0.
          5    1    4    4  502    0  0.44906274332E+00  0.13734947157E+02  0.24245884189E+03  0.24289345492E+03  0.47000000000E+01 0. -1.
         -5    1    4    4    0  502  0.49486590475E+02 -0.35859537900E+01  0.21871838277E+02  0.54426546933E+02  0.47000000000E+01 0. -1.
          5    1    5    5  503    0  0.33577511358E+02 -0.17206786346E+02  0.15345211857E+02  0.41001076722E+02  0.47000000000E+01 0.  1.
         -5    1    5    5    0  503 -0.83513164577E+02  0.70577929790E+01  0.15550772811E+03  0.17671730136E+03  0.47000000000E+01 0.  1.
<mgrwt>
<rscale>  0 0.27546279E+03</rscale>
<asrwt>0</asrwt>
<pdfrwt beam="1">  1        1 0.73093996E-01 0.27546279E+03</pdfrwt>
<pdfrwt beam="2">  1       -1 0.61426742E-02 0.27546279E+03</pdfrwt>
<totfact> 0.62022691E+03</totfact>
</mgrwt>
</event>
<event>
 9    1  0.2031653E-002  0.2747919E+03  0.7818608E-02  0.1098568E+00
          2   -1    0    0  501    0  0.00000000000E+00  0.00000000000E+00  0.16490479010E+04  0.16490479010E+04  0.00000000000E+00 0. -1.
         -2   -1    0    0    0  501 -0.00000000000E+00 -0.00000000000E+00 -0.11447603334E+02  0.11447603334E+02  0.00000000000E+00 0. -1.
         36    2    1    2    0    0  0.00000000000E+00  0.17763568394E-14  0.16376002977E+04  0.16604955044E+04  0.27479189398E+03 0.  0.
         25    2    3    3    0    0  0.10829903671E+02  0.14908150679E+01  0.11429137927E+04  0.11500269552E+04  0.12724209572E+03 0.  0.
         25    2    3    3    0    0 -0.10829903671E+02 -0.14908150679E+01  0.49468650502E+03  0.51046854914E+03  0.12547466701E+03 0.  0.
          5    1    4    4  502    0  0.55905936722E+02 -0.24638164290E+02  0.34493139042E+03  0.35033165286E+03  0.47000000000E+01 0. -1.
         -5    1    4    4    0  502 -0.45076033052E+02  0.26128979357E+02  0.79798240225E+03  0.79969530237E+03  0.47000000000E+01 0. -1.
          5    1    5    5  503    0  0.16825051901E+02  0.26538753426E+00  0.26985066362E+01  0.17678369271E+02  0.47000000000E+01 0.  1.
         -5    1    5    5    0  503 -0.27654955572E+02 -0.17562026022E+01  0.49198799839E+03  0.49279017986E+03  0.47000000000E+01 0.  1.
<mgrwt>
<rscale>  0 0.27479189E+03</rscale>
<asrwt>0</asrwt>
<pdfrwt beam="1">  1        2 0.25369949E+00 0.27479189E+03</pdfrwt>
<pdfrwt beam="2">  1       -2 0.17611711E-02 0.27479189E+03</pdfrwt>
<totfact> 0.10595678E+04</totfact>
</mgrwt>
</event>
<event>
 9    1  0.2031653E-002  0.2749984E+03  0.7818608E-02  0.1098452E+00
          2   -1    0    0  501    0  0.00000000000E+00  0.00000000000E+00  0.11447809334E+03  0.11447809334E+03  0.00000000000E+00 0. -1.
         -2   -1    0    0    0  501 -0.00000000000E+00 -0.00000000000E+00 -0.16514977119E+03  0.16514977119E+03  0.00000000000E+00 0. -1.
         36    2    1    2    0    0  0.00000000000E+00  0.00000000000E+00 -0.50671677849E+02  0.27962786452E+03  0.27499840669E+03 0.  0.
         25    2    3    3    0    0  0.18868581806E+02 -0.57896759896E+02 -0.34974938449E+02  0.14221061512E+03  0.12366306865E+03 0.  0.
         25    2    3    3    0    0 -0.18868581806E+02  0.57896759896E+02 -0.15696739400E+02  0.13741724940E+03  0.12218451055E+03 0.  0.
          5    1    4    4  502    0  0.43686145762E+02  0.95046933836E+01 -0.51498640843E+02  0.68359480224E+02  0.47000000000E+01 0.  1.
         -5    1    4    4    0  502 -0.24817563956E+02 -0.67401453280E+02  0.16523702394E+02  0.73851134898E+02  0.47000000000E+01 0.  1.
          5    1    5    5  503    0  0.45384555531E+02  0.55394633684E+02 -0.12643568545E+02  0.72871621001E+02  0.47000000000E+01 0.  1.
         -5    1    5    5    0  503 -0.64253137338E+02  0.25021262123E+01 -0.30531708555E+01  0.64545628400E+02  0.47000000000E+01 0.  1.
<mgrwt>
<rscale>  0 0.27499841E+03</rscale>
<asrwt>0</asrwt>
<pdfrwt beam="1">  1        2 0.17612014E-01 0.27499841E+03</pdfrwt>
<pdfrwt beam="2">  1       -2 0.25407657E-01 0.27499841E+03</pdfrwt>
<totfact> 0.44209970E+03</totfact>
</mgrwt>
</event>
<event>
 9    1  0.2031653E-002  0.2738400E+03  0.7818608E-02  0.1099102E+00
          2   -1    0    0  501    0  0.00000000000E+00  0.00000000000E+00  0.92363631871E+03  0.92363631871E+03  0.00000000000E+00 0. -1.
         -2   -1    0    0    0  501 -0.00000000000E+00 -0.00000000000E+00 -0.20297045568E+02  0.20297045568E+02  0.00000000000E+00 0. -1.
         36    2    1    2    0    0 -0.71054273576E-14 -0.71054273576E-14  0.90333927314E+03  0.94393336428E+03  0.27384001497E+03 0.  0.
         25    2    3    3    0    0 -0.21541268100E+02 -0.49949048075E+02  0.45017739273E+03  0.47035585579E+03  0.12496404489E+03 0.  0.
         25    2    3    3    0    0  0.21541268100E+02  0.49949048075E+02  0.45316188042E+03  0.47357750849E+03  0.12633698212E+03 0.  0.
          5    1    4    4  502    0  0.37152715658E+02 -0.56527941367E+02  0.15334006249E+03  0.16766334483E+03  0.47000000000E+01 0.  1.
         -5    1    4    4    0  502 -0.58693983758E+02  0.65788932916E+01  0.29683733023E+03  0.30269251095E+03  0.47000000000E+01 0.  1.
          5    1    5    5  503    0  0.63873927599E+02  0.14589305049E+02  0.12940699406E+03  0.14512403853E+03  0.47000000000E+01 0. -1.
         -5    1    5    5    0  503 -0.42332659500E+02  0.35359743026E+02  0.32375488636E+03  0.32845346996E+03  0.47000000000E+01 0. -1.
<mgrwt>
<rscale>  0 0.27384001E+03</rscale>
<asrwt>0</asrwt>
<pdfrwt beam="1">  1        2 0.14209786E+00 0.27384001E+03</pdfrwt>
<pdfrwt beam="2">  1       -2 0.31226231E-02 0.27384001E+03</pdfrwt>
<totfact> 0.11664465E+04</totfact>
</mgrwt>
</event>
<event>
 9    1  0.2031653E-002  0.2754235E+03  0.7818608E-02  0.1098215E+00
         -2   -1    0    0    0  501 -0.00000000000E+00  0.00000000000E+00  0.94940707718E+02  0.94940707718E+02  0.00000000000E+00 0. -1.
          2   -1    0    0  501    0  0.00000000000E+00 -0.00000000000E+00 -0.19975120973E+03  0.19975120973E+03  0.00000000000E+00 0. -1.
         36    2    1    2    0    0  0.71054273576E-14 -0.71054273576E-14 -0.10481050201E+03  0.29469191745E+03  0.27542346464E+03 0.  0.
         25    2    3    3    0    0  0.16950037952E+02 -0.44953779049E+02 -0.58872358469E+02  0.14521831121E+03  0.12375078699E+03 0.  0.
         25    2    3    3    0    0 -0.16950037952E+02  0.44953779049E+02 -0.45938143541E+02  0.14947360624E+03  0.13388016990E+03 0.  0.
          5    1    4    4  502    0  0.37075014746E+02 -0.60584700397E+02 -0.83324383120E+02  0.10959062671E+03  0.47000000000E+01 0.  1.
         -5    1    4    4    0  502 -0.20124976794E+02  0.15630921348E+02  0.24452024651E+02  0.35627684498E+02  0.47000000000E+01 0.  1.
          5    1    5    5  503    0 -0.63374517215E+02 -0.14664958131E+02 -0.11188677060E+02  0.66171496308E+02  0.47000000000E+01 0. -1.
         -5    1    5    5    0  503  0.46424479263E+02  0.59618737180E+02 -0.34749466481E+02  0.83302109929E+02  0.47000000000E+01 0. -1.
<mgrwt>
<rscale>  0 0.27542346E+03</rscale>
<asrwt>0</asrwt>
<pdfrwt beam="1">  1        2 0.30730955E-01 0.27542346E+03</pdfrwt>
<pdfrwt beam="2">  1       -2 0.14606263E-01 0.27542346E+03</pdfrwt>
<totfact> 0.60643253E+03</totfact>
</mgrwt>
</event>
<event>
 9    1  0.2031653E-002  0.2756746E+03  0.7818608E-02  0.1098075E+00
          2   -1    0    0  501    0  0.00000000000E+00  0.00000000000E+00  0.43821861993E+03  0.43821861993E+03  0.00000000000E+00 0. -1.
         -2   -1    0    0    0  501 -0.00000000000E+00 -0.00000000000E+00 -0.43355338054E+02  0.43355338054E+02  0.00000000000E+00 0. -1.
         36    2    1    2    0    0  0.00000000000E+00 -0.71054273576E-14  0.39486328188E+03  0.48157395799E+03  0.27567456472E+03 0.  0.
         25    2    3    3    0    0 -0.34211849381E+02 -0.20917575688E+02  0.28587622350E+03  0.31165544080E+03  0.11745596199E+03 0.  0.
         25    2    3    3    0    0  0.34211849381E+02  0.20917575688E+02  0.10898705838E+03  0.16991851719E+03  0.12404083190E+03 0.  0.
          5    1    4    4  502    0 -0.45171355515E+02 -0.62203220923E+02  0.21913936677E+03  0.23227966790E+03  0.47000000000E+01 0.  1.
         -5    1    4    4    0  502  0.10959506133E+02  0.41285645235E+02  0.66736856734E+02  0.79375772902E+02  0.47000000000E+01 0.  1.
          5    1    5    5  503    0  0.74970699601E+02  0.30964982524E+02  0.43970191397E+02  0.92384542391E+02  0.47000000000E+01 0.  1.
         -5    1    5    5    0  503 -0.40758850219E+02 -0.10047406836E+02  0.65016866985E+02  0.77533974797E+02  0.47000000000E+01 0.  1.
<mgrwt>
<rscale>  0 0.27567456E+03</rscale>
<asrwt>0</asrwt>
<pdfrwt beam="1">  1        2 0.67418246E-01 0.27567456E+03</pdfrwt>
<pdfrwt beam="2">  1       -2 0.66700523E-02 0.27567456E+03</pdfrwt>
<totfact> 0.90105595E+03</totfact>
</mgrwt>
</event>
<event>
 9    1  0.2031653E-002  0.2751250E+03  0.7818608E-02  0.1098382E+00
         -2   -1    0    0    0  501 -0.00000000000E+00  0.00000000000E+00  0.37153754948E+02  0.37153754948E+02  0.00000000000E+00 0. -1.
          2   -1    0    0  501    0  0.00000000000E+00 -0.00000000000E+00 -0.50932772378E+03  0.50932772378E+03  0.00000000000E+00 0. -1.
         36    2    1    2    0    0  0.00000000000E+00  0.00000000000E+00 -0.47217396883E+03  0.54648147872E+03  0.27512497115E+03 0.  0.
         25    2    3    3    0    0  0.58900850067E+02 -0.19852976712E+02 -0.21763728026E+03  0.25909260579E+03  0.12609338521E+03 0.  0.
         25    2    3    3    0    0 -0.58900850067E+02  0.19852976712E+02 -0.25453668856E+03  0.28738887293E+03  0.11806772479E+03 0.  0.
          5    1    4    4  502    0 -0.29162110319E+02  0.27582919335E+02 -0.60186957279E+02  0.72496937479E+02  0.47000000000E+01 0. -1.
         -5    1    4    4    0  502  0.88062960386E+02 -0.47435896047E+02 -0.15745032298E+03  0.18659566831E+03  0.47000000000E+01 0. -1.
          5    1    5    5  503    0 -0.10226681723E+02 -0.48004079115E+02 -0.10643502845E+03  0.11730081803E+03  0.47000000000E+01 0. -1.
         -5    1    5    5    0  503 -0.48674168344E+02  0.67857055827E+02 -0.14810166012E+03  0.17008805490E+03  0.47000000000E+01 0. -1.
<mgrwt>
<rscale>  0 0.27512497E+03</rscale>
<asrwt>0</asrwt>
<pdfrwt beam="1">  1        2 0.78358110E-01 0.27512497E+03</pdfrwt>
<pdfrwt beam="2">  1       -2 0.57159624E-02 0.27512497E+03</pdfrwt>
<totfact> 0.96676205E+03</totfact>
</mgrwt>
</event>
<event>
 9    1  0.2031653E-002  0.2766308E+03  0.7818608E-02  0.1097543E+00
         -2   -1    0    0    0  501 -0.00000000000E+00  0.00000000000E+00  0.22330566801E+02  0.22330566801E+02  0.00000000000E+00 0. -1.
          2   -1    0    0  501    0  0.00000000000E+00 -0.00000000000E+00 -0.85672487605E+03  0.85672487605E+03  0.00000000000E+00 0. -1.
         36    2    1    2    0    0  0.00000000000E+00  0.71054273576E-14 -0.83439430925E+03  0.87905544286E+03  0.27663081589E+03 0.  0.
         25    2    3    3    0    0 -0.62731840757E+01  0.21038244122E+02 -0.20702183902E+03  0.23942601935E+03  0.11825741565E+03 0.  0.
         25    2    3    3    0    0  0.62731840757E+01 -0.21038244122E+02 -0.62737247023E+03  0.63962942350E+03  0.12266875092E+03 0.  0.
          5    1    4    4  502    0  0.24823639075E+02  0.55993756828E+02 -0.63297132041E+02  0.88205049658E+02  0.47000000000E+01 0. -1.
         -5    1    4    4    0  502 -0.31096823150E+02 -0.34955512706E+02 -0.14372470698E+03  0.15122096969E+03  0.47000000000E+01 0. -1.
          5    1    5    5  503    0  0.21039795129E+02  0.38047187359E+02 -0.44824897563E+03  0.45037705936E+03  0.47000000000E+01 0. -1.
         -5    1    5    5    0  503 -0.14766611053E+02 -0.59085431481E+02 -0.17912349460E+03  0.18925236414E+03  0.47000000000E+01 0. -1.
<mgrwt>
<rscale>  0 0.27663082E+03</rscale>
<asrwt>0</asrwt>
<pdfrwt beam="1">  1        2 0.13180385E+00 0.27663082E+03</pdfrwt>
<pdfrwt beam="2">  1       -2 0.34354712E-02 0.27663082E+03</pdfrwt>
<totfact> 0.11184250E+04</totfact>
</mgrwt>
</event>
<event>
 9    1  0.2031653E-002  0.2731542E+03  0.7818608E-02  0.1099488E+00
         -1   -1    0    0    0  501 -0.00000000000E+00  0.00000000000E+00  0.29998219356E+03  0.29998219356E+03  0.00000000000E+00 0. -1.
          1   -1    0    0  501    0  0.00000000000E+00 -0.00000000000E+00 -0.62181392784E+02  0.62181392784E+02  0.00000000000E+00 0. -1.
         36    2    1    2    0    0  0.14210854715E-13  0.17763568394E-14  0.23780080077E+03  0.36216358634E+03  0.27315424658E+03 0.  0.
         25    2    3    3    0    0  0.48504668470E+02  0.34403990913E+01  0.15760800047E+03  0.20643208771E+03  0.12413454723E+03 0.  0.
         25    2    3    3    0    0 -0.48504668470E+02 -0.34403990913E+01  0.80192800303E+02  0.15573149863E+03  0.12432568212E+03 0.  0.
          5    1    4    4  502    0 -0.37425825105E+02  0.24127727479E+02  0.50824295806E+02  0.67735062282E+02  0.47000000000E+01 0.  1.
         -5    1    4    4    0  502  0.85930493575E+02 -0.20687328388E+02  0.10678370466E+03  0.13869702543E+03  0.47000000000E+01 0.  1.
          5    1    5    5  503    0  0.35513947343E+02  0.56537990440E+01  0.57704458217E+02  0.68154973389E+02  0.47000000000E+01 0.  1.
         -5    1    5    5    0  503 -0.84018615813E+02 -0.90941981354E+01  0.22488342086E+02  0.87576525238E+02  0.47000000000E+01 0.  1.
<mgrwt>
<rscale>  0 0.27315425E+03</rscale>
<asrwt>0</asrwt>
<pdfrwt beam="1">  1        1 0.95663683E-02 0.27315425E+03</pdfrwt>
<pdfrwt beam="2">  1       -1 0.46151106E-01 0.27315425E+03</pdfrwt>
<totfact> 0.32318674E+03</totfact>
</mgrwt>
</event>
<event>
 9    1  0.2031653E-002  0.2748782E+03  0.7818608E-02  0.1098520E+00
          1   -1    0    0  501    0  0.00000000000E+00  0.00000000000E+00  0.18032895803E+02  0.18032895803E+02  0.00000000000E+00 0. -1.
         -1   -1    0    0    0  501 -0.00000000000E+00 -0.00000000000E+00 -0.10475023382E+04  0.10475023382E+04  0.00000000000E+00 0. -1.
         36    2    1    2    0    0  0.00000000000E+00 -0.14210854715E-13 -0.10294694424E+04  0.10655352340E+04  0.27487815859E+03 0.  0.
         25    2    3    3    0    0  0.35698242297E+02  0.45606818766E+02 -0.52023516142E+03  0.53823630811E+03  0.12529706208E+03 0.  0.
         25    2    3    3    0    0 -0.35698242297E+02 -0.45606818766E+02 -0.50923428094E+03  0.52729892586E+03  0.12397684424E+03 0.  0.
          5    1    4    4  502    0  0.48334337660E+02  0.58978145161E+02 -0.15797487741E+03  0.17547872149E+03  0.47000000000E+01 0. -1.
         -5    1    4    4    0  502 -0.12636095364E+02 -0.13371326395E+02 -0.36226028401E+03  0.36275758662E+03  0.47000000000E+01 0. -1.
          5    1    5    5  503    0  0.31332223219E+02 -0.46733865065E+02 -0.34906732624E+03  0.35360408737E+03  0.47000000000E+01 0. -1.
         -5    1    5    5    0  503 -0.67030465515E+02  0.11270462990E+01 -0.16016695470E+03  0.17369483849E+03  0.47000000000E+01 0. -1.
<mgrwt>
<rscale>  0 0.27487816E+03</rscale>
<asrwt>0</asrwt>
<pdfrwt beam="1">  1        1 0.27742907E-02 0.27487816E+03</pdfrwt>
<pdfrwt beam="2">  1       -1 0.16115426E+00 0.27487816E+03</pdfrwt>
<totfact> 0.11872366E+03</totfact>
</mgrwt>
</event>
<event>
 9    1  0.2031653E-002  0.2772593E+03  0.7818608E-02  0.1097195E+00
         -2   -1    0    0    0  501 -0.00000000000E+00  0.00000000000E+00  0.26905095473E+02  0.26905095473E+02  0.00000000000E+00 0. -1.
          2   -1    0    0  501    0  0.00000000000E+00 -0.00000000000E+00 -0.71429494307E+03  0.71429494307E+03  0.00000000000E+00 0. -1.
         36    2    1    2    0    0  0.71054273576E-14  0.00000000000E+00 -0.68738984760E+03  0.74120003854E+03  0.27725925513E+03 0.  0.
         25    2    3    3    0    0  0.52679474573E+02  0.84279394743E+01 -0.44133885947E+03  0.46149979084E+03  0.12391896895E+03 0.  0.
         25    2    3    3    0    0 -0.52679474573E+02 -0.84279394743E+01 -0.24605098813E+03  0.27970024770E+03  0.12183998768E+03 0.  0.
          5    1    4    4  502    0  0.89326874727E+02  0.22924905492E+02 -0.34863796336E+03  0.36065961977E+03  0.47000000000E+01 0.  1.
         -5    1    4    4    0  502 -0.36647400155E+02 -0.14496966018E+02 -0.92700896111E+02  0.10084017107E+03  0.47000000000E+01 0.  1.
          5    1    5    5  503    0 -0.69625642799E+02 -0.40193822806E+02 -0.95933413067E+02  0.12525407486E+03  0.47000000000E+01 0. -1.
         -5    1    5    5    0  503  0.16946168227E+02  0.31765883332E+02 -0.15011757506E+03  0.15444617284E+03  0.47000000000E+01 0. -1.
<mgrwt>
<rscale>  0 0.27725926E+03</rscale>
<asrwt>0</asrwt>
<pdfrwt beam="1">  1        2 0.10989152E+00 0.27725926E+03</pdfrwt>
<pdfrwt beam="2">  1       -2 0.41392459E-02 0.27725926E+03</pdfrwt>
<totfact> 0.10639612E+04</totfact>
</mgrwt>
</event>
<event>
 9    1  0.2031653E-002  0.2735917E+03  0.7818608E-02  0.1099241E+00
         -2   -1    0    0    0  501 -0.00000000000E+00  0.00000000000E+00  0.53006421451E+02  0.53006421451E+02  0.00000000000E+00 0.  1.
          2   -1    0    0  501    0  0.00000000000E+00 -0.00000000000E+00 -0.35303457894E+03  0.35303457894E+03  0.00000000000E+00 0.  1.
         36    2    1    2    0    0  0.35527136788E-14 -0.14210854715E-13 -0.30002815749E+03  0.40604100039E+03  0.27359166419E+03 0.  0.
         25    2    3    3    0    0  0.10160690200E+02 -0.76818300836E+02 -0.16355223987E+03  0.21981911351E+03  0.12476704905E+03 0.  0.
         25    2    3    3    0    0 -0.10160690200E+02  0.76818300836E+02 -0.13647591762E+03  0.18622188688E+03  0.10024282565E+03 0.  0.
          5    1    4    4  502    0 -0.27996801989E+02  0.22743398012E+02 -0.21894338310E+02  0.42456273091E+02  0.47000000000E+01 0.  1.
         -5    1    4    4    0  502  0.38157492188E+02 -0.99561698848E+02 -0.14165790156E+03  0.17736284042E+03  0.47000000000E+01 0.  1.
          5    1    5    5  503    0  0.33351460413E+02  0.97204389453E+01 -0.82461869049E+02  0.89603887706E+02  0.47000000000E+01 0.  1.
         -5    1    5    5    0  503 -0.43512150613E+02  0.67097861890E+02 -0.54014048567E+02  0.96617999171E+02  0.47000000000E+01 0.  1.
<mgrwt>
<rscale>  0 0.27359166E+03</rscale>
<asrwt>0</asrwt>
<pdfrwt beam="1">  1        2 0.54313013E-01 0.27359166E+03</pdfrwt>
<pdfrwt beam="2">  1       -2 0.81548339E-02 0.27359166E+03</pdfrwt>
<totfact> 0.83367641E+03</totfact>
</mgrwt>
</event>
<event>
 9    1  0.2031653E-002  0.2757244E+03  0.7818608E-02  0.1098047E+00
          2   -1    0    0  501    0  0.00000000000E+00  0.00000000000E+00  0.17367155808E+04  0.17367155808E+04  0.00000000000E+00 0. -1.
         -2   -1    0    0    0  501 -0.00000000000E+00 -0.00000000000E+00 -0.10943641194E+02  0.10943641194E+02  0.00000000000E+00 0. -1.
         36    2    1    2    0    0  0.00000000000E+00  0.00000000000E+00  0.17257719396E+04  0.17476592220E+04  0.27572444340E+03 0.  0.
         25    2    3    3    0    0  0.35608054038E+02  0.86676902525E+00  0.10051710876E+04  0.10149242120E+04  0.13577023235E+03 0.  0.
         25    2    3    3    0    0 -0.35608054038E+02 -0.86676902525E+00  0.72060085199E+03  0.73273500996E+03  0.12793092718E+03 0.  0.
          5    1    4    4  502    0 -0.39380406892E+02 -0.27395949174E+02  0.59644107357E+03  0.59838566053E+03  0.47000000000E+01 0. -1.
         -5    1    4    4    0  502  0.74988460931E+02  0.28262718199E+02  0.40873001402E+03  0.41653855149E+03  0.47000000000E+01 0. -1.
          5    1    5    5  503    0 -0.48197210874E+02  0.56133521037E+02  0.38849036163E+03  0.39550068824E+03  0.47000000000E+01 0. -1.
         -5    1    5    5    0  503  0.12589156836E+02 -0.57000290063E+02  0.33211049036E+03  0.33723432172E+03  0.47000000000E+01 0. -1.
<mgrwt>
<rscale>  0 0.27572444E+03</rscale>
<asrwt>0</asrwt>
<pdfrwt beam="1">  1        2 0.26718679E+00 0.27572444E+03</pdfrwt>
<pdfrwt beam="2">  1       -2 0.16836385E-02 0.27572444E+03</pdfrwt>
<totfact> 0.10177397E+04</totfact>
</mgrwt>
</event>
<event>
 9    1  0.2031653E-002  0.2749372E+03  0.7818608E-02  0.1098487E+00
          1   -1    0    0  501    0  0.00000000000E+00  0.00000000000E+00  0.24457248095E+03  0.24457248095E+03  0.00000000000E+00 0.  1.
         -1   -1    0    0    0  501 -0.00000000000E+00 -0.00000000000E+00 -0.77267946037E+02  0.77267946037E+02  0.00000000000E+00 0.  1.
         36    2    1    2    0    0  0.00000000000E+00 -0.71054273576E-14  0.16730453491E+03  0.32184042699E+03  0.27493718017E+03 0.  0.
         25    2    3    3    0    0  0.28749134213E+02  0.25291254936E+02  0.14146556560E+03  0.19051559196E+03  0.12172725345E+03 0.  0.
         25    2    3    3    0    0 -0.28749134213E+02 -0.25291254936E+02  0.25838969310E+02  0.13132483503E+03  0.12293250045E+03 0.  0.
          5    1    4    4  502    0  0.69221869970E+00  0.70173547436E+02  0.10378864180E+03  0.12537534883E+03  0.47000000000E+01 0.  1.
         -5    1    4    4    0  502  0.28056915513E+02 -0.44882292500E+02  0.37676923803E+02  0.65140243133E+02  0.47000000000E+01 0.  1.
          5    1    5    5  503    0  0.11114355226E+02 -0.54487923254E+02  0.51066932766E+02  0.75646442710E+02  0.47000000000E+01 0.  1.
         -5    1    5    5    0  503 -0.39863489438E+02  0.29196668318E+02 -0.25227963456E+02  0.55678392319E+02  0.47000000000E+01 0.  1.
<mgrwt>
<rscale>  0 0.27493718E+03</rscale>
<asrwt>0</asrwt>
<pdfrwt beam="1">  1        1 0.37626535E-01 0.27493718E+03</pdfrwt>
<pdfrwt beam="2">  1       -1 0.11887376E-01 0.27493718E+03</pdfrwt>
<totfact> 0.52436797E+03</totfact>
</mgrwt>
</event>
<event>
 9    1  0.2031653E-002  0.2748477E+03  0.7818608E-02  0.1098537E+00
         -2   -1    0    0    0  501 -0.00000000000E+00  0.00000000000E+00  0.13440737655E+03  0.13440737655E+03  0.00000000000E+00 0.  1.
          2   -1    0    0  501    0  0.00000000000E+00 -0.00000000000E+00 -0.14050803279E+03  0.14050803279E+03  0.00000000000E+00 0.  1.
         36    2    1    2    0    0  0.71054273576E-14  0.17763568394E-14 -0.61006562402E+01  0.27491540933E+03  0.27484771107E+03 0.  0.
         25    2    3    3    0    0  0.18315969619E+02 -0.58033662729E+01  0.48469212122E+02  0.13308014398E+03  0.12244144067E+03 0.  0.
         25    2    3    3    0    0 -0.18315969619E+02  0.58033662729E+01 -0.54569868362E+02  0.14183526536E+03  0.12949987708E+03 0.  0.
          5    1    4    4  502    0  0.70727118712E+02 -0.65348080964E+00  0.31305929175E+02  0.77491312804E+02  0.47000000000E+01 0.  1.
         -5    1    4    4    0  502 -0.52411149093E+02 -0.51498854633E+01  0.17163282946E+02  0.55588831171E+02  0.47000000000E+01 0.  1.
          5    1    5    5  503    0  0.52174904466E+02  0.15830054509E+02 -0.42890159306E+02  0.69530331849E+02  0.47000000000E+01 0. -1.
         -5    1    5    5    0  503 -0.70490874085E+02 -0.10026688236E+02 -0.11679709056E+02  0.72304933510E+02  0.47000000000E+01 0. -1.
<mgrwt>
<rscale>  0 0.27484771E+03</rscale>
<asrwt>0</asrwt>
<pdfrwt beam="1">  1        2 0.21616620E-01 0.27484771E+03</pdfrwt>
<pdfrwt beam="2">  1       -2 0.20678058E-01 0.27484771E+03</pdfrwt>
<totfact> 0.50027337E+03</totfact>
</mgrwt>
</event>
<event>
 9    1  0.2031653E-002  0.2749048E+03  0.7818608E-02  0.1098505E+00
         -2   -1    0    0    0  501 -0.00000000000E+00  0.00000000000E+00  0.41905180244E+02  0.41905180244E+02  0.00000000000E+00 0.  1.
          2   -1    0    0  501    0  0.00000000000E+00 -0.00000000000E+00 -0.45085491240E+03  0.45085491240E+03  0.00000000000E+00 0.  1.
         36    2    1    2    0    0  0.00000000000E+00  0.00000000000E+00 -0.40894973215E+03  0.49276009264E+03  0.27490475709E+03 0.  0.
         25    2    3    3    0    0  0.31635075439E+02 -0.42722740838E+02 -0.17784432536E+03  0.22237202638E+03  0.12245286225E+03 0.  0.
         25    2    3    3    0    0 -0.31635075439E+02  0.42722740838E+02 -0.23110540680E+03  0.27038806626E+03  0.12989991047E+03 0.  0.
          5    1    4    4  502    0  0.46747686522E+02 -0.17882791979E+02 -0.18529287903E+03  0.19199135778E+03  0.47000000000E+01 0.  1.
         -5    1    4    4    0  502 -0.15112611083E+02 -0.24839948859E+02  0.74485536710E+01  0.30380668605E+02  0.47000000000E+01 0.  1.
          5    1    5    5  503    0 -0.62525630341E+02 -0.17693651585E+02 -0.15601363914E+03  0.16907059281E+03  0.47000000000E+01 0. -1.
         -5    1    5    5    0  503  0.30890554902E+02  0.60416392424E+02 -0.75091767661E+02  0.10131747345E+03  0.47000000000E+01 0. -1.
<mgrwt>
<rscale>  0 0.27490476E+03</rscale>
<asrwt>0</asrwt>
<pdfrwt beam="1">  1        2 0.69362295E-01 0.27490476E+03</pdfrwt>
<pdfrwt beam="2">  1       -2 0.64469508E-02 0.27490476E+03</pdfrwt>
<totfact> 0.92028198E+03</totfact>
</mgrwt>
</event>
<event>
 9    1  0.2031653E-002  0.2760069E+03  0.7818608E-02  0.1097890E+00
         -1   -1    0    0    0  501 -0.00000000000E+00  0.00000000000E+00  0.17975622467E+03  0.17975622467E+03  0.00000000000E+00 0. -1.
          1   -1    0    0  501    0  0.00000000000E+00 -0.00000000000E+00 -0.10594881513E+03  0.10594881513E+03  0.00000000000E+00 0. -1.
         36    2    1    2    0    0  0.35527136788E-14  0.00000000000E+00  0.73807409539E+02  0.28570503980E+03  0.27600694931E+03 0.  0.
         25    2    3    3    0    0 -0.13521363038E+02 -0.63321345557E+01  0.99209118613E+02  0.15851327288E+03  0.12272361336E+03 0.  0.
         25    2    3    3    0    0  0.13521363038E+02  0.63321345557E+01 -0.25401709074E+02  0.12719176693E+03  0.12373186964E+03 0.  0.
          5    1    4    4  502    0 -0.33504658022E+02 -0.23605733605E+01  0.12256182791E+03  0.12716770847E+03  0.47000000000E+01 0.  1.
         -5    1    4    4    0  502  0.19983294984E+02 -0.39715611952E+01 -0.23352709297E+02  0.31345564411E+02  0.47000000000E+01 0.  1.
          5    1    5    5  503    0  0.35942703419E+02  0.50360754050E+02  0.14250580088E+02  0.63665159313E+02  0.47000000000E+01 0. -1.
         -5    1    5    5    0  503 -0.22421340381E+02 -0.44028619494E+02 -0.39652289162E+02  0.63526607613E+02  0.47000000000E+01 0. -1.
<mgrwt>
<rscale>  0 0.27600695E+03</rscale>
<asrwt>0</asrwt>
<pdfrwt beam="1">  1        1 0.16299818E-01 0.27600695E+03</pdfrwt>
<pdfrwt beam="2">  1       -1 0.27654804E-01 0.27600695E+03</pdfrwt>
<totfact> 0.38988100E+03</totfact>
</mgrwt>
</event>
<event>
 9    1  0.2031653E-002  0.2747513E+03  0.7818608E-02  0.1098591E+00
          1   -1    0    0  501    0  0.00000000000E+00  0.00000000000E+00  0.52363217215E+03  0.52363217215E+03  0.00000000000E+00 0.  1.
         -1   -1    0    0    0  501 -0.00000000000E+00 -0.00000000000E+00 -0.36040691412E+02  0.36040691412E+02  0.00000000000E+00 0.  1.
         36    2    1    2    0    0  0.00000000000E+00 -0.35527136788E-14  0.48759148074E+03  0.55967286356E+03  0.27475127319E+03 0.  0.
         25    2    3    3    0    0 -0.27048519521E+01 -0.22406695417E+02  0.35095780090E+03  0.37297269789E+03  0.12420901391E+03 0.  0.
         25    2    3    3    0    0  0.27048519521E+01  0.22406695417E+02  0.13663367984E+03  0.18670016567E+03  0.12521506767E+03 0.  0.
          5    1    4    4  502    0  0.24629503813E+01 -0.44341642871E+02  0.34669694799E+03  0.34956131245E+03  0.47000000000E+01 0. -1.
         -5    1    4    4    0  502 -0.51678023335E+01  0.21934947454E+02  0.42608529099E+01  0.23411385441E+02  0.47000000000E+01 0. -1.
          5    1    5    5  503    0 -0.15959023149E+02 -0.31485552563E+02  0.12275419764E+03  0.12781515355E+03  0.47000000000E+01 0. -1.
         -5    1    5    5    0  503  0.18663875101E+02  0.53892247979E+02  0.13879482203E+02  0.58885012119E+02  0.47000000000E+01 0. -1.
<mgrwt>
<rscale>  0 0.27475127E+03</rscale>
<asrwt>0</asrwt>
<pdfrwt beam="1">  1        1 0.80558790E-01 0.27475127E+03</pdfrwt>
<pdfrwt beam="2">  1       -1 0.55447221E-02 0.27475127E+03</pdfrwt>
<totfact> 0.63596831E+03</totfact>
</mgrwt>
</event>
<event>
 9    1  0.2031653E-002  0.2750920E+03  0.7818608E-02  0.1098400E+00
         -1   -1    0    0    0  501 -0.00000000000E+00  0.00000000000E+00  0.10216977128E+04  0.10216977128E+04  0.00000000000E+00 0.  1.
          1   -1    0    0  501    0  0.00000000000E+00 -0.00000000000E+00 -0.18517116903E+02  0.18517116903E+02  0.00000000000E+00 0.  1.
         36    2    1    2    0    0 -0.71054273576E-14 -0.71054273576E-14  0.10031805959E+04  0.10402148297E+04  0.27509195545E+03 0.  0.
         25    2    3    3    0    0 -0.27332586842E+02  0.11366973006E+01  0.40519731942E+03  0.42427436107E+03  0.12278234160E+03 0.  0.
         25    2    3    3    0    0  0.27332586842E+02 -0.11366973006E+01  0.59798327652E+03  0.61594046868E+03  0.14508721369E+03 0.  0.
          5    1    4    4  502    0 -0.39500423090E+02 -0.52324849770E+02  0.27833897039E+03  0.28599448555E+03  0.47000000000E+01 0.  1.
         -5    1    4    4    0  502  0.12167836248E+02  0.53461547071E+02  0.12685834903E+03  0.13827987552E+03  0.47000000000E+01 0.  1.
          5    1    5    5  503    0 -0.44181770584E+02 -0.34835193713E+02  0.13657200326E+03  0.14778200718E+03  0.47000000000E+01 0.  1.
         -5    1    5    5    0  503  0.71514357426E+02  0.33698496412E+02  0.46141127326E+03  0.46815846149E+03  0.47000000000E+01 0.  1.
<mgrwt>
<rscale>  0 0.27509196E+03</rscale>
<asrwt>0</asrwt>
<pdfrwt beam="1">  1        1 0.28487880E-02 0.27509196E+03</pdfrwt>
<pdfrwt beam="2">  1       -1 0.15718422E+00 0.27509196E+03</pdfrwt>
<totfact> 0.12236596E+03</totfact>
</mgrwt>
</event>
<event>
 9    1  0.2031653E-002  0.2749664E+03  0.7818608E-02  0.1098470E+00
         -2   -1    0    0    0  501 -0.00000000000E+00  0.00000000000E+00  0.32714921771E+03  0.32714921771E+03  0.00000000000E+00 0. -1.
          2   -1    0    0  501    0  0.00000000000E+00 -0.00000000000E+00 -0.57776806682E+02  0.57776806682E+02  0.00000000000E+00 0. -1.
         36    2    1    2    0    0  0.71054273576E-14  0.00000000000E+00  0.26937241102E+03  0.38492602439E+03  0.27496644965E+03 0.  0.
         25    2    3    3    0    0  0.24496818579E+02 -0.29911681946E+02  0.79746884613E+02  0.15469028683E+03  0.12678610490E+03 0.  0.
         25    2    3    3    0    0 -0.24496818579E+02  0.29911681946E+02  0.18962552641E+03  0.23023573756E+03  0.12472310029E+03 0.  0.
          5    1    4    4  502    0 -0.23434117543E+02 -0.43579448615E+02 -0.11131955688E+02  0.50934631088E+02  0.47000000000E+01 0. -1.
         -5    1    4    4    0  502  0.47930936123E+02  0.13667766669E+02  0.90878840301E+02  0.10375565574E+03  0.47000000000E+01 0. -1.
          5    1    5    5  503    0  0.36104397638E+02 -0.14512640283E+01  0.96390789270E+01  0.37691319141E+02  0.47000000000E+01 0. -1.
         -5    1    5    5    0  503 -0.60601216217E+02  0.31362945974E+02  0.17998644748E+03  0.19254441842E+03  0.47000000000E+01 0. -1.
<mgrwt>
<rscale>  0 0.27496645E+03</rscale>
<asrwt>0</asrwt>
<pdfrwt beam="1">  1        2 0.88887397E-02 0.27496645E+03</pdfrwt>
<pdfrwt beam="2">  1       -2 0.50330648E-01 0.27496645E+03</pdfrwt>
<totfact> 0.28080429E+03</totfact>
</mgrwt>
</event>
<event>
 9    1  0.2031653E-002  0.2742492E+03  0.7818608E-02  0.1098872E+00
         -2   -1    0    0    0  501 -0.00000000000E+00  0.00000000000E+00  0.13854640327E+02  0.13854640327E+02  0.00000000000E+00 0.  1.
          2   -1    0    0  501    0  0.00000000000E+00 -0.00000000000E+00 -0.13571740499E+04  0.13571740499E+04  0.00000000000E+00 0.  1.
         36    2    1    2    0    0  0.00000000000E+00  0.00000000000E+00 -0.13433194096E+04  0.13710286902E+04  0.27424921748E+03 0.  0.
         25    2    3    3    0    0  0.51589405913E+02 -0.88132903021E+00 -0.72643640816E+03  0.73900555518E+03  0.12552733545E+03 0.  0.
         25    2    3    3    0    0 -0.51589405913E+02  0.88132903021E+00 -0.61688300141E+03  0.63202313504E+03  0.12746121864E+03 0.  0.
          5    1    4    4  502    0 -0.42346959267E+01  0.29516453866E+01 -0.60686831174E+03  0.60690846316E+03  0.47000000000E+01 0. -1.
         -5    1    4    4    0  502  0.55824101840E+02 -0.38329744168E+01 -0.11956809642E+03  0.13209709202E+03  0.47000000000E+01 0. -1.
          5    1    5    5  503    0  0.20415760195E+02  0.15654268375E+02 -0.27108788149E+02  0.37667436568E+02  0.47000000000E+01 0. -1.
         -5    1    5    5    0  503 -0.72005166108E+02 -0.14772939345E+02 -0.58977421326E+03  0.59435569848E+03  0.47000000000E+01 0. -1.
<mgrwt>
<rscale>  0 0.27424922E+03</rscale>
<asrwt>0</asrwt>
<pdfrwt beam="1">  1        2 0.20879590E+00 0.27424922E+03</pdfrwt>
<pdfrwt beam="2">  1       -2 0.21314842E-02 0.27424922E+03</pdfrwt>
<totfact> 0.11473068E+04</totfact>
</mgrwt>
</event>
<event>
 9    1  0.2031653E-002  0.2717073E+03  0.7818608E-02  0.1100306E+00
         -1   -1    0    0    0  501 -0.00000000000E+00  0.00000000000E+00  0.18237824303E+03  0.18237824303E+03  0.00000000000E+00 0. -1.
          1   -1    0    0  501    0  0.00000000000E+00 -0.00000000000E+00 -0.10119745933E+03  0.10119745933E+03  0.00000000000E+00 0. -1.
         36    2    1    2    0    0  0.00000000000E+00  0.00000000000E+00  0.81180783693E+02  0.28357570236E+03  0.27170730452E+03 0.  0.
         25    2    3    3    0    0  0.67201505299E+01  0.22215813034E+02 -0.12790742026E+02  0.12498336527E+03  0.12214145791E+03 0.  0.
         25    2    3    3    0    0 -0.67201505299E+01 -0.22215813034E+02  0.93971525719E+02  0.15859233709E+03  0.12562714263E+03 0.  0.
          5    1    4    4  502    0 -0.53830292499E+02 -0.58244504965E+01 -0.19532040080E+02  0.57751322096E+02  0.47000000000E+01 0.  1.
         -5    1    4    4    0  502  0.60550443029E+02  0.28040263530E+02  0.67412980536E+01  0.67232043174E+02  0.47000000000E+01 0.  1.
          5    1    5    5  503    0 -0.16391151651E+02  0.25025485637E+02 -0.18945027284E+02  0.35720426125E+02  0.47000000000E+01 0.  1.
         -5    1    5    5    0  503  0.96710011208E+01 -0.47241298670E+02  0.11291655300E+03  0.12287191097E+03  0.47000000000E+01 0.  1.
<mgrwt>
<rscale>  0 0.27170730E+03</rscale>
<asrwt>0</asrwt>
<pdfrwt beam="1">  1        1 0.15568840E-01 0.27170730E+03</pdfrwt>
<pdfrwt beam="2">  1       -1 0.28058191E-01 0.27170730E+03</pdfrwt>
<totfact> 0.40380939E+03</totfact>
</mgrwt>
</event>
<event>
 9    1  0.2031653E-002  0.2770784E+03  0.7818608E-02  0.1097295E+00
          2   -1    0    0  501    0  0.00000000000E+00  0.00000000000E+00  0.75386658059E+03  0.75386658059E+03  0.00000000000E+00 0.  1.
         -2   -1    0    0    0  501 -0.00000000000E+00 -0.00000000000E+00 -0.25459560689E+02  0.25459560689E+02  0.00000000000E+00 0.  1.
         36    2    1    2    0    0  0.00000000000E+00  0.00000000000E+00  0.72840701991E+03  0.77932614128E+03  0.27707841460E+03 0.  0.
         25    2    3    3    0    0  0.45211646274E+01 -0.58611016537E+02  0.39545960640E+03  0.42029097101E+03  0.12961677295E+03 0.  0.
         25    2    3    3    0    0 -0.45211646274E+01  0.58611016537E+02  0.33294741350E+03  0.35903517027E+03  0.12081631158E+03 0.  0.
          5    1    4    4  502    0  0.30622999948E+02 -0.82827594164E+02  0.16645698330E+03  0.18848924577E+03  0.47000000000E+01 0. -1.
         -5    1    4    4    0  502 -0.26101835320E+02  0.24216577628E+02  0.22900262311E+03  0.23180172525E+03  0.47000000000E+01 0. -1.
          5    1    5    5  503    0 -0.32984818083E+02  0.79008292135E+02  0.15062873835E+03  0.17332459510E+03  0.47000000000E+01 0. -1.
         -5    1    5    5    0  503  0.28463653455E+02 -0.20397275599E+02  0.18231867515E+03  0.18571057516E+03  0.47000000000E+01 0. -1.
<mgrwt>
<rscale>  0 0.27707841E+03</rscale>
<asrwt>0</asrwt>
<pdfrwt beam="1">  1        2 0.11597946E+00 0.27707841E+03</pdfrwt>
<pdfrwt beam="2">  1       -2 0.39168561E-02 0.27707841E+03</pdfrwt>
<totfact> 0.10817600E+04</totfact>
</mgrwt>
</event>
<event>
 9    1  0.2031653E-002  0.2745697E+03  0.7818608E-02  0.1098692E+00
          2   -1    0    0  501    0  0.00000000000E+00  0.00000000000E+00  0.16272712481E+03  0.16272712481E+03  0.00000000000E+00 0. -1.
         -2   -1    0    0    0  501 -0.00000000000E+00 -0.00000000000E+00 -0.11582044023E+03  0.11582044023E+03  0.00000000000E+00 0. -1.
         36    2    1    2    0    0 -0.35527136788E-14  0.00000000000E+00  0.46906684580E+02  0.27854756504E+03  0.27456967956E+03 0.  0.
         25    2    3    3    0    0  0.29611628227E+02 -0.19426385379E+02 -0.11587381831E+02  0.13252582452E+03  0.12717937637E+03 0.  0.
         25    2    3    3    0    0 -0.29611628227E+02  0.19426385379E+02  0.58494066411E+02  0.14602174052E+03  0.12902154829E+03 0.  0.
          5    1    4    4  502    0  0.79566230831E+02 -0.11747689810E+02 -0.13699813001E+02  0.81722507187E+02  0.47000000000E+01 0. -1.
         -5    1    4    4    0  502 -0.49954602604E+02 -0.76786955694E+01  0.21124311697E+01  0.50803317337E+02  0.47000000000E+01 0. -1.
          5    1    5    5  503    0  0.11799262268E+02 -0.37628569864E+02 -0.16482614044E+02  0.42998818888E+02  0.47000000000E+01 0. -1.
         -5    1    5    5    0  503 -0.41410890496E+02  0.57054955243E+02  0.74976680455E+02  0.10302292163E+03  0.47000000000E+01 0. -1.
<mgrwt>
<rscale>  0 0.27456968E+03</rscale>
<asrwt>0</asrwt>
<pdfrwt beam="1">  1        2 0.25034942E-01 0.27456968E+03</pdfrwt>
<pdfrwt beam="2">  1       -2 0.17818529E-01 0.27456968E+03</pdfrwt>
<totfact> 0.54622812E+03</totfact>
</mgrwt>
</event>
<event>
 9    1  0.2031653E-002  0.2752036E+03  0.7818608E-02  0.1098338E+00
         -1   -1    0    0    0  501 -0.00000000000E+00  0.00000000000E+00  0.73214474764E+02  0.73214474764E+02  0.00000000000E+00 0. -1.
          1   -1    0    0  501    0  0.00000000000E+00 -0.00000000000E+00 -0.25861363019E+03  0.25861363019E+03  0.00000000000E+00 0. -1.
         36    2    1    2    0    0  0.71054273576E-14  0.17763568394E-14 -0.18539915543E+03  0.33182810496E+03  0.27520364170E+03 0.  0.
         25    2    3    3    0    0  0.52076144198E+02 -0.13384569898E+02 -0.61401674103E+02  0.14453075002E+03  0.11928076380E+03 0.  0.
         25    2    3    3    0    0 -0.52076144198E+02  0.13384569898E+02 -0.12399748132E+03  0.18729735494E+03  0.12966823931E+03 0.  0.
          5    1    4    4  502    0  0.92857211392E+01  0.42494161205E+02  0.92255447867E+01  0.44712179887E+02  0.47000000000E+01 0.  1.
         -5    1    4    4    0  502  0.42790423059E+02 -0.55878731103E+02 -0.70627218890E+02  0.99818570133E+02  0.47000000000E+01 0.  1.
          5    1    5    5  503    0 -0.81359425306E+02  0.12320330075E+02 -0.13283898060E+03  0.15633115936E+03  0.47000000000E+01 0.  1.
         -5    1    5    5    0  503  0.29283281108E+02  0.10642398232E+01  0.88414992794E+01  0.30966195575E+02  0.47000000000E+01 0.  1.
<mgrwt>
<rscale>  0 0.27520364E+03</rscale>
<asrwt>0</asrwt>
<pdfrwt beam="1">  1        1 0.39786712E-01 0.27520364E+03</pdfrwt>
<pdfrwt beam="2">  1       -1 0.11263765E-01 0.27520364E+03</pdfrwt>
<totfact> 0.53172871E+03</totfact>
</mgrwt>
</event>
<event>
 9    1  0.2031653E-002  0.2750158E+03  0.7818608E-02  0.1098443E+00
         -1   -1    0    0    0  501 -0.00000000000E+00  0.00000000000E+00  0.47096626612E+02  0.47096626612E+02  0.00000000000E+00 0. -1.
          1   -1    0    0  501    0  0.00000000000E+00 -0.00000000000E+00 -0.40148134161E+03  0.40148134161E+03  0.00000000000E+00 0. -1.
         36    2    1    2    0    0  0.00000000000E+00 -0.17763568394E-14 -0.35438471500E+03  0.44857796822E+03  0.27501575837E+03 0.  0.
         25    2    3    3    0    0  0.59585462551E+02 -0.24246415857E+01 -0.18114625202E+03  0.22604818894E+03  0.12135696465E+03 0.  0.
         25    2    3    3    0    0 -0.59585462551E+02  0.24246415857E+01 -0.17323846297E+03  0.22252977928E+03  0.12629976792E+03 0.  0.
          5    1    4    4  502    0 -0.31115903598E+02  0.19102132496E+02 -0.26288373801E+02  0.45235600136E+02  0.47000000000E+01 0. -1.
         -5    1    4    4    0  502  0.90701366148E+02 -0.21526774082E+02 -0.15485787822E+03  0.18081258881E+03  0.47000000000E+01 0. -1.
          5    1    5    5  503    0 -0.93112062719E+02 -0.11988531507E+02 -0.15545124860E+03  0.18166111802E+03  0.47000000000E+01 0.  1.
         -5    1    5    5    0  503  0.33526600168E+02  0.14413173092E+02 -0.17787214379E+02  0.40868661255E+02  0.47000000000E+01 0.  1.
<mgrwt>
<rscale>  0 0.27501576E+03</rscale>
<asrwt>0</asrwt>
<pdfrwt beam="1">  1        1 0.61766365E-01 0.27501576E+03</pdfrwt>
<pdfrwt beam="2">  1       -1 0.72456344E-02 0.27501576E+03</pdfrwt>
<totfact> 0.60091597E+03</totfact>
</mgrwt>
</event>
<event>
 9    1  0.2031653E-002  0.2750736E+03  0.7818608E-02  0.1098410E+00
         -2   -1    0    0    0  501 -0.00000000000E+00  0.00000000000E+00  0.19703451124E+03  0.19703451124E+03  0.00000000000E+00 0.  1.
          2   -1    0    0  501    0  0.00000000000E+00 -0.00000000000E+00 -0.96005339948E+02  0.96005339948E+02  0.00000000000E+00 0.  1.
         36    2    1    2    0    0 -0.71054273576E-14  0.00000000000E+00  0.10102917129E+03  0.29303985119E+03  0.27507355549E+03 0.  0.
         25    2    3    3    0    0  0.25110904611E+02 -0.51436535922E+02  0.57577840707E+02  0.14961063525E+03  0.12566566628E+03 0.  0.
         25    2    3    3    0    0 -0.25110904611E+02  0.51436535922E+02  0.43451330584E+02  0.14342921594E+03  0.12412754367E+03 0.  0.
          5    1    4    4  502    0 -0.81614658917E+01 -0.60291581791E+02 -0.20317032634E+02  0.64316064676E+02  0.47000000000E+01 0. -1.
         -5    1    4    4    0  502  0.33272370503E+02  0.88550458687E+01  0.77894873342E+02  0.85294570572E+02  0.47000000000E+01 0. -1.
          5    1    5    5  503    0  0.41689765190E+02  0.54586389843E+02  0.29772846430E+02  0.75008151972E+02  0.47000000000E+01 0.  1.
         -5    1    5    5    0  503 -0.66800669801E+02 -0.31498539205E+01  0.13678484154E+02  0.68421063967E+02  0.47000000000E+01 0.  1.
<mgrwt>
<rscale>  0 0.27507356E+03</rscale>
<asrwt>0</asrwt>
<pdfrwt beam="1">  1        2 0.14770052E-01 0.27507356E+03</pdfrwt>
<pdfrwt beam="2">  1       -2 0.30313002E-01 0.27507356E+03</pdfrwt>
<totfact> 0.39613718E+03</totfact>
</mgrwt>
</event>
<event>
 9    1  0.2031653E-002  0.2744039E+03  0.7818608E-02  0.1098785E+00
          2   -1    0    0  501    0  0.00000000000E+00  0.00000000000E+00  0.54211640735E+03  0.54211640735E+03  0.00000000000E+00 0.  1.
         -2   -1    0    0    0  501 -0.00000000000E+00 -0.00000000000E+00 -0.34723859209E+02  0.34723859209E+02  0.00000000000E+00 0.  1.
         36    2    1    2    0    0  0.17763568394E-14  0.00000000000E+00  0.50739254814E+03  0.57684026656E+03  0.27440389067E+03 0.  0.
         25    2    3    3    0    0 -0.57540346319E+01  0.34936615720E+02  0.36167878661E+03  0.38444095865E+03  0.12541782160E+03 0.  0.
         25    2    3    3    0    0  0.57540346319E+01 -0.34936615720E+02  0.14571376153E+03  0.19239930790E+03  0.12054591387E+03 0.  0.
          5    1    4    4  502    0  0.88435221448E+01 -0.63511161547E+01  0.32993934925E+03  0.33015240230E+03  0.47000000000E+01 0.  1.
         -5    1    4    4    0  502 -0.14597556777E+02  0.41287731875E+02  0.31739437361E+02  0.54288556356E+02  0.47000000000E+01 0.  1.
          5    1    5    5  503    0 -0.31982895757E+02 -0.51343704342E+00 -0.54348289708E+01  0.32784090723E+02  0.47000000000E+01 0.  1.
         -5    1    5    5    0  503  0.37736930388E+02 -0.34423178677E+02  0.15114859050E+03  0.15961521718E+03  0.47000000000E+01 0.  1.
<mgrwt>
<rscale>  0 0.27440389E+03</rscale>
<asrwt>0</asrwt>
<pdfrwt beam="1">  1        2 0.83402518E-01 0.27440389E+03</pdfrwt>
<pdfrwt beam="2">  1       -2 0.53421326E-02 0.27440389E+03</pdfrwt>
<totfact> 0.99897112E+03</totfact>
</mgrwt>
</event>
<event>
 9    1  0.2031653E-002  0.2746769E+03  0.7818608E-02  0.1098632E+00
          2   -1    0    0  501    0  0.00000000000E+00  0.00000000000E+00  0.51363206611E+03  0.51363206611E+03  0.00000000000E+00 0. -1.
         -2   -1    0    0    0  501 -0.00000000000E+00 -0.00000000000E+00 -0.36722496792E+02  0.36722496792E+02  0.00000000000E+00 0. -1.
         36    2    1    2    0    0  0.00000000000E+00 -0.71054273576E-14  0.47690956932E+03  0.55035456290E+03  0.27467691494E+03 0.  0.
         25    2    3    3    0    0  0.71401490752E+02  0.34724068443E+02  0.14861207160E+03  0.19161080491E+03  0.91242637643E+02 0.  0.
         25    2    3    3    0    0 -0.71401490752E+02 -0.34724068443E+02  0.32829749773E+03  0.35874375799E+03  0.12088797738E+03 0.  0.
          5    1    4    4  502    0  0.52110469224E+02  0.32319387393E+02  0.24991959454E+02  0.66383219578E+02  0.47000000000E+01 0.  1.
         -5    1    4    4    0  502  0.19291021528E+02  0.24046810500E+01  0.12362011214E+03  0.12522758533E+03  0.47000000000E+01 0.  1.
          5    1    5    5  503    0  0.10648236119E+02  0.27175859634E+01  0.20787833726E+03  0.20822166868E+03  0.47000000000E+01 0. -1.
         -5    1    5    5    0  503 -0.82049726871E+02 -0.37441654406E+02  0.12041916047E+03  0.15052208932E+03  0.47000000000E+01 0. -1.
<mgrwt>
<rscale>  0 0.27467691E+03</rscale>
<asrwt>0</asrwt>
<pdfrwt beam="1">  1        2 0.79020313E-01 0.27467691E+03</pdfrwt>
<pdfrwt beam="2">  1       -2 0.56496153E-02 0.27467691E+03</pdfrwt>
<totfact> 0.97486102E+03</totfact>
</mgrwt>
</event>
<event>
 9    1  0.2031653E-002  0.2751365E+03  0.7818608E-02  0.1098375E+00
          2   -1    0    0  501    0  0.00000000000E+00  0.00000000000E+00  0.17458289200E+04  0.17458289200E+04  0.00000000000E+00 0.  1.
         -2   -1    0    0    0  501 -0.00000000000E+00 -0.00000000000E+00 -0.10840139439E+02  0.10840139439E+02  0.00000000000E+00 0.  1.
         36    2    1    2    0    0 -0.21316282073E-13  0.71054273576E-14  0.17349887806E+04  0.17566690595E+04  0.27513654014E+03 0.  0.
         25    2    3    3    0    0 -0.52805340225E+02  0.27963484143E+02  0.84422703968E+03  0.85547781746E+03  0.12471022911E+03 0.  0.
         25    2    3    3    0    0  0.52805340225E+02 -0.27963484143E+02  0.89076174092E+03  0.90119124201E+03  0.12295859138E+03 0.  0.
          5    1    4    4  502    0  0.24387356960E+02  0.51131013482E+02  0.39223792137E+03  0.39633546483E+03  0.47000000000E+01 0. -1.
         -5    1    4    4    0  502 -0.77192697184E+02 -0.23167529339E+02  0.45198911830E+03  0.45914235263E+03  0.47000000000E+01 0. -1.
          5    1    5    5  503    0 -0.27733334794E+02  0.11149277155E+02  0.80751529925E+02  0.86234238126E+02  0.47000000000E+01 0.  1.
         -5    1    5    5    0  503  0.80538675019E+02 -0.39112761299E+02  0.81001021099E+03  0.81495700388E+03  0.47000000000E+01 0.  1.
<mgrwt>
<rscale>  0 0.27513654E+03</rscale>
<asrwt>0</asrwt>
<pdfrwt beam="1">  1        2 0.26858884E+00 0.27513654E+03</pdfrwt>
<pdfrwt beam="2">  1       -2 0.16677151E-02 0.27513654E+03</pdfrwt>
<totfact> 0.10206578E+04</totfact>
</mgrwt>
</event>
<event>
 9    1  0.2031653E-002  0.2749619E+03  0.7818608E-02  0.1098473E+00
         -2   -1    0    0    0  501 -0.00000000000E+00  0.00000000000E+00  0.12099114031E+03  0.12099114031E+03  0.00000000000E+00 0.  1.
          2   -1    0    0  501    0  0.00000000000E+00 -0.00000000000E+00 -0.15621810721E+03  0.15621810721E+03  0.00000000000E+00 0.  1.
         36    2    1    2    0    0 -0.14210854715E-13  0.00000000000E+00 -0.35226966895E+02  0.27720924752E+03  0.27496186592E+03 0.  0.
         25    2    3    3    0    0  0.43627431506E+02  0.28723243340E+02 -0.22224454893E+02  0.13849964410E+03  0.12633229015E+03 0.  0.
         25    2    3    3    0    0 -0.43627431506E+02 -0.28723243340E+02 -0.13002512002E+02  0.13870960342E+03  0.12783939641E+03 0.  0.
          5    1    4    4  502    0  0.30997288083E+02  0.75575827072E+02  0.62189952410E+01  0.82056708488E+02  0.47000000000E+01 0. -1.
         -5    1    4    4    0  502  0.12630143424E+02 -0.46852583732E+02 -0.28443450134E+02  0.56442935614E+02  0.47000000000E+01 0. -1.
          5    1    5    5  503    0 -0.44382350116E+02  0.36902664340E+02 -0.36943132951E+02  0.68691227311E+02  0.47000000000E+01 0.  1.
         -5    1    5    5    0  503  0.75491860963E+00 -0.65625907680E+02  0.23940620949E+02  0.70018376105E+02  0.47000000000E+01 0.  1.
<mgrwt>
<rscale>  0 0.27496187E+03</rscale>
<asrwt>0</asrwt>
<pdfrwt beam="1">  1        2 0.24033555E-01 0.27496187E+03</pdfrwt>
<pdfrwt beam="2">  1       -2 0.18614022E-01 0.27496187E+03</pdfrwt>
<totfact> 0.53112853E+03</totfact>
</mgrwt>
</event>
<event>
 9    1  0.2031653E-002  0.2750218E+03  0.7818608E-02  0.1098439E+00
          1   -1    0    0  501    0  0.00000000000E+00  0.00000000000E+00  0.41393537873E+03  0.41393537873E+03  0.00000000000E+00 0.  1.
         -1   -1    0    0    0  501 -0.00000000000E+00 -0.00000000000E+00 -0.45681627569E+02  0.45681627569E+02  0.00000000000E+00 0.  1.
         36    2    1    2    0    0  0.35527136788E-14  0.71054273576E-14  0.36825375116E+03  0.45961700630E+03  0.27502175775E+03 0.  0.
         25    2    3    3    0    0  0.12847706166E+02  0.52457369377E+02  0.16943834186E+03  0.21602859104E+03  0.12264648914E+03 0.  0.
         25    2    3    3    0    0 -0.12847706166E+02 -0.52457369377E+02  0.19881540931E+03  0.24358841526E+03  0.12996503344E+03 0.  0.
          5    1    4    4  502    0  0.41453559102E+02  0.69986555433E+02  0.16201308374E+03  0.18134730438E+03  0.47000000000E+01 0.  1.
         -5    1    4    4    0  502 -0.28605852936E+02 -0.17529186056E+02  0.74252581169E+01  0.34681286656E+02  0.47000000000E+01 0.  1.
          5    1    5    5  503    0  0.13161288478E+02 -0.73469032767E+02  0.19590987186E+03  0.20969903715E+03  0.47000000000E+01 0.  1.
         -5    1    5    5    0  503 -0.26008994644E+02  0.21011663390E+02  0.29055374433E+01  0.33889378109E+02  0.47000000000E+01 0.  1.
<mgrwt>
<rscale>  0 0.27502176E+03</rscale>
<asrwt>0</asrwt>
<pdfrwt beam="1">  1        1 0.63682363E-01 0.27502176E+03</pdfrwt>
<pdfrwt beam="2">  1       -1 0.70279430E-02 0.27502176E+03</pdfrwt>
<totfact> 0.60518183E+03</totfact>
</mgrwt>
</event>
<event>
 9    1  0.2031653E-002  0.2750598E+03  0.7818608E-02  0.1098418E+00
          1   -1    0    0  501    0  0.00000000000E+00  0.00000000000E+00  0.14326437404E+04  0.14326437404E+04  0.00000000000E+00 0. -1.
         -1   -1    0    0    0  501 -0.00000000000E+00 -0.00000000000E+00 -0.13202494776E+02  0.13202494776E+02  0.00000000000E+00 0. -1.
         36    2    1    2    0    0  0.71054273576E-14 -0.26645352591E-14  0.14194412456E+04  0.14458462351E+04  0.27505978621E+03 0.  0.
         25    2    3    3    0    0 -0.36470476707E+02 -0.27045509295E+01  0.46758748139E+03  0.48529500021E+03  0.12464258584E+03 0.  0.
         25    2    3    3    0    0  0.36470476707E+02  0.27045509295E+01  0.95185376419E+03  0.96055123492E+03  0.12367568980E+03 0.  0.
          5    1    4    4  502    0 -0.51948824551E+02  0.51402216939E+02  0.25085234219E+03  0.26132327845E+03  0.47000000000E+01 0.  1.
         -5    1    4    4    0  502  0.15478347844E+02 -0.54106767868E+02  0.21673513921E+03  0.22397172176E+03  0.47000000000E+01 0.  1.
          5    1    5    5  503    0 -0.42838724568E+02  0.76162176037E+01  0.48397197284E+03  0.48594662627E+03  0.47000000000E+01 0. -1.
         -5    1    5    5    0  503  0.79309201275E+02 -0.49116666742E+01  0.46788179135E+03  0.47460460865E+03  0.47000000000E+01 0. -1.
<mgrwt>
<rscale>  0 0.27505979E+03</rscale>
<asrwt>0</asrwt>
<pdfrwt beam="1">  1        1 0.22040661E+00 0.27505979E+03</pdfrwt>
<pdfrwt beam="2">  1       -1 0.20311542E-02 0.27505979E+03</pdfrwt>
<totfact> 0.53195248E+03</totfact>
</mgrwt>
</event>
<event>
 9    1  0.2031653E-002  0.2750671E+03  0.7818608E-02  0.1098414E+00
         -2   -1    0    0    0  501 -0.00000000000E+00  0.00000000000E+00  0.62090854380E+02  0.62090854380E+02  0.00000000000E+00 0. -1.
          2   -1    0    0  501    0  0.00000000000E+00 -0.00000000000E+00 -0.30464182491E+03  0.30464182491E+03  0.00000000000E+00 0. -1.
         36    2    1    2    0    0  0.00000000000E+00  0.00000000000E+00 -0.24255097053E+03  0.36673267929E+03  0.27506705502E+03 0.  0.
         25    2    3    3    0    0  0.56943704630E+01 -0.21726005059E+02 -0.17579843852E+03  0.22158640976E+03  0.13300752179E+03 0.  0.
         25    2    3    3    0    0 -0.56943704630E+01  0.21726005059E+02 -0.66752532012E+02  0.14514626953E+03  0.12691372612E+03 0.  0.
          5    1    4    4  502    0 -0.49983714102E+02  0.30220048395E+02 -0.76181866975E+02  0.96111340935E+02  0.47000000000E+01 0.  1.
         -5    1    4    4    0  502  0.55678084565E+02 -0.51946053453E+02 -0.99616571546E+02  0.12547506883E+03  0.47000000000E+01 0.  1.
          5    1    5    5  503    0 -0.51195864940E+02  0.48654367869E+01 -0.79459060053E+02  0.94765612363E+02  0.47000000000E+01 0.  1.
         -5    1    5    5    0  503  0.45501494477E+02  0.16860568272E+02  0.12706528040E+02  0.50380657170E+02  0.47000000000E+01 0.  1.
<mgrwt>
<rscale>  0 0.27506706E+03</rscale>
<asrwt>0</asrwt>
<pdfrwt beam="1">  1        2 0.46867973E-01 0.27506706E+03</pdfrwt>
<pdfrwt beam="2">  1       -2 0.95524391E-02 0.27506706E+03</pdfrwt>
<totfact> 0.76197433E+03</totfact>
</mgrwt>
</event>
<event>
 9    1  0.2031653E-002  0.2752565E+03  0.7818608E-02  0.1098308E+00
         -2   -1    0    0    0  501 -0.00000000000E+00  0.00000000000E+00  0.52250015251E+02  0.52250015251E+02  0.00000000000E+00 0. -1.
          2   -1    0    0  501    0  0.00000000000E+00 -0.00000000000E+00 -0.36251726799E+03  0.36251726799E+03  0.00000000000E+00 0. -1.
         36    2    1    2    0    0  0.00000000000E+00  0.00000000000E+00 -0.31026725274E+03  0.41476728324E+03  0.27525648244E+03 0.  0.
         25    2    3    3    0    0  0.48791065506E+02  0.27795666010E+02 -0.12969193862E+03  0.18826837658E+03  0.12438575302E+03 0.  0.
         25    2    3    3    0    0 -0.48791065506E+02 -0.27795666010E+02 -0.18057531412E+03  0.22649890666E+03  0.12466412285E+03 0.  0.
          5    1    4    4  502    0  0.61929705967E+02  0.61043079635E+02 -0.12436029034E+03  0.15181935932E+03  0.47000000000E+01 0. -1.
         -5    1    4    4    0  502 -0.13138640461E+02 -0.33247413625E+02 -0.53316482882E+01  0.36449017262E+02  0.47000000000E+01 0. -1.
          5    1    5    5  503    0 -0.70105351826E+02 -0.61956278733E+02 -0.14464256934E+03  0.17232789587E+03  0.47000000000E+01 0.  1.
         -5    1    5    5    0  503  0.21314286320E+02  0.34160612723E+02 -0.35932744776E+02  0.54171010791E+02  0.47000000000E+01 0.  1.
<mgrwt>
<rscale>  0 0.27525648E+03</rscale>
<asrwt>0</asrwt>
<pdfrwt beam="1">  1        2 0.55771888E-01 0.27525648E+03</pdfrwt>
<pdfrwt beam="2">  1       -2 0.80384639E-02 0.27525648E+03</pdfrwt>
<totfact> 0.82874542E+03</totfact>
</mgrwt>
</event>
<event>
 9    1  0.2031653E-002  0.2750336E+03  0.7818608E-02  0.1098433E+00
         -2   -1    0    0    0  501 -0.00000000000E+00  0.00000000000E+00  0.64087259453E+02  0.64087259453E+02  0.00000000000E+00 0. -1.
          2   -1    0    0  501    0  0.00000000000E+00 -0.00000000000E+00 -0.29507997025E+03  0.29507997025E+03  0.00000000000E+00 0. -1.
         36    2    1    2    0    0  0.14210854715E-13 -0.10658141036E-13 -0.23099271080E+03  0.35916722970E+03  0.27503357332E+03 0.  0.
         25    2    3    3    0    0 -0.52183072679E+02  0.11250600867E+02 -0.15274667333E+03  0.20325045822E+03  0.12300224981E+03 0.  0.
         25    2    3    3    0    0  0.52183072679E+02 -0.11250600867E+02 -0.78246037469E+02  0.15591677149E+03  0.12384647010E+03 0.  0.
          5    1    4    4  502    0 -0.87974213404E+02  0.28165027276E+02 -0.12092693073E+03  0.15224369794E+03  0.47000000000E+01 0.  1.
         -5    1    4    4    0  502  0.35791140725E+02 -0.16914426409E+02 -0.31819742594E+02  0.51006760276E+02  0.47000000000E+01 0.  1.
          5    1    5    5  503    0  0.34668350834E+02 -0.67319968357E+02 -0.46423004202E+02  0.88944128577E+02  0.47000000000E+01 0.  1.
         -5    1    5    5    0  503  0.17514721845E+02  0.56069367490E+02 -0.31823033267E+02  0.66972642910E+02  0.47000000000E+01 0.  1.
<mgrwt>
<rscale>  0 0.27503357E+03</rscale>
<asrwt>0</asrwt>
<pdfrwt beam="1">  1        2 0.45396919E-01 0.27503357E+03</pdfrwt>
<pdfrwt beam="2">  1       -2 0.98595783E-02 0.27503357E+03</pdfrwt>
<totfact> 0.74996322E+03</totfact>
</mgrwt>
</event>
<event>
 9    1  0.2031653E-002  0.2746386E+03  0.7818608E-02  0.1098654E+00
          3   -1    0    0  501    0  0.00000000000E+00  0.00000000000E+00  0.39124084659E+03  0.39124084659E+03  0.00000000000E+00 0. -1.
         -3   -1    0    0    0  501 -0.00000000000E+00 -0.00000000000E+00 -0.48196893825E+02  0.48196893825E+02  0.00000000000E+00 0. -1.
         36    2    1    2    0    0  0.00000000000E+00 -0.14210854715E-13  0.34304395277E+03  0.43943774042E+03  0.27463862469E+03 0.  0.
         25    2    3    3    0    0 -0.21997469942E+02 -0.44083104408E+02  0.22232830323E+03  0.25925451457E+03  0.12391860284E+03 0.  0.
         25    2    3    3    0    0  0.21997469942E+02  0.44083104408E+02  0.12071564953E+03  0.18018322584E+03  0.12436445655E+03 0.  0.
          5    1    4    4  502    0 -0.55080099392E+02 -0.57933338496E+02  0.20304354236E+03  0.21826327944E+03  0.47000000000E+01 0.  1.
         -5    1    4    4    0  502  0.33082629451E+02  0.13850234088E+02  0.19284760868E+02  0.40991235129E+02  0.47000000000E+01 0.  1.
          5    1    5    5  503    0  0.73650454159E+02  0.32359927727E+02  0.71671026287E+02  0.10784424106E+03  0.47000000000E+01 0.  1.
         -5    1    5    5    0  503 -0.51652984217E+02  0.11723176680E+02  0.49044623247E+02  0.72338984784E+02  0.47000000000E+01 0.  1.
<mgrwt>
<rscale>  0 0.27463862E+03</rscale>
<asrwt>0</asrwt>
<pdfrwt beam="1">  1        3 0.60190897E-01 0.27463862E+03</pdfrwt>
<pdfrwt beam="2">  1       -3 0.74149070E-02 0.27463862E+03</pdfrwt>
<totfact> 0.83991902E+02</totfact>
</mgrwt>
</event>
<event>
 9    1  0.2031653E-002  0.2732423E+03  0.7818608E-02  0.1099438E+00
         -2   -1    0    0    0  501 -0.00000000000E+00  0.00000000000E+00  0.22464438956E+02  0.22464438956E+02  0.00000000000E+00 0. -1.
          2   -1    0    0  501    0  0.00000000000E+00 -0.00000000000E+00 -0.83088372050E+03  0.83088372050E+03  0.00000000000E+00 0. -1.
         36    2    1    2    0    0 -0.71054273576E-14  0.71054273576E-14 -0.80841928154E+03  0.85334815946E+03  0.27324228530E+03 0.  0.
         25    2    3    3    0    0  0.41794415764E+02 -0.36977759499E+02 -0.43315407926E+03  0.45395471402E+03  0.12384788299E+03 0.  0.
         25    2    3    3    0    0 -0.41794415764E+02  0.36977759499E+02 -0.37526520229E+03  0.39939344543E+03  0.12480794974E+03 0.  0.
          5    1    4    4  502    0  0.81486433351E+02 -0.18532580209E+01 -0.23487249328E+03  0.24865769943E+03  0.47000000000E+01 0.  1.
         -5    1    4    4    0  502 -0.39692017587E+02 -0.35124501478E+02 -0.19828158598E+03  0.20529701460E+03  0.47000000000E+01 0.  1.
          5    1    5    5  503    0  0.13954315234E+02  0.51113676404E+02 -0.29933543138E+03  0.30402486955E+03  0.47000000000E+01 0. -1.
         -5    1    5    5    0  503 -0.55748730998E+02 -0.14135916905E+02 -0.75929770911E+02  0.95368575879E+02  0.47000000000E+01 0. -1.
<mgrwt>
<rscale>  0 0.27324229E+03</rscale>
<asrwt>0</asrwt>
<pdfrwt beam="1">  1        2 0.12782826E+00 0.27324229E+03</pdfrwt>
<pdfrwt beam="2">  1       -2 0.34560675E-02 0.27324229E+03</pdfrwt>
<totfact> 0.11530418E+04</totfact>
</mgrwt>
</event>
<event>
 9    1  0.2031653E-002  0.2742840E+03  0.7818608E-02  0.1098852E+00
         -2   -1    0    0    0  501 -0.00000000000E+00  0.00000000000E+00  0.58306073915E+01  0.58306073915E+01  0.00000000000E+00 0. -1.
          2   -1    0    0  501    0  0.00000000000E+00 -0.00000000000E+00 -0.32257242373E+04  0.32257242373E+04  0.00000000000E+00 0. -1.
         36    2    1    2    0    0  0.00000000000E+00  0.00000000000E+00 -0.32198936299E+04  0.32315548447E+04  0.27428402492E+03 0.  0.
         25    2    3    3    0    0 -0.29639699466E+02  0.11053896125E+02 -0.24923229825E+04  0.24954998561E+04  0.12183998575E+03 0.  0.
         25    2    3    3    0    0  0.29639699466E+02 -0.11053896125E+02 -0.72757064743E+03  0.73605498865E+03  0.10685129342E+03 0.  0.
          5    1    4    4  502    0 -0.20396591240E+02 -0.12949143783E+02 -0.23817597446E+04  0.23818869142E+04  0.47000000000E+01 0.  1.
         -5    1    4    4    0  502 -0.92431082261E+01  0.24003039908E+02 -0.11056323795E+03  0.11361294187E+03  0.47000000000E+01 0.  1.
          5    1    5    5  503    0  0.21822542367E+02 -0.44805279353E+02 -0.16566630696E+03  0.17306401034E+03  0.47000000000E+01 0. -1.
         -5    1    5    5    0  503  0.78171570992E+01  0.33751383228E+02 -0.56190434047E+03  0.56299097831E+03  0.47000000000E+01 0. -1.
<mgrwt>
<rscale>  0 0.27428402E+03</rscale>
<asrwt>0</asrwt>
<pdfrwt beam="1">  1        2 0.49626554E+00 0.27428402E+03</pdfrwt>
<pdfrwt beam="2">  1       -2 0.89701604E-03 0.27428402E+03</pdfrwt>
<totfact> 0.37957326E+03</totfact>
</mgrwt>
</event>
<event>
 9    1  0.2031653E-002  0.2739236E+03  0.7818608E-02  0.1099055E+00
         -1   -1    0    0    0  501 -0.00000000000E+00  0.00000000000E+00  0.72154300670E+02  0.72154300670E+02  0.00000000000E+00 0.  1.
          1   -1    0    0  501    0  0.00000000000E+00 -0.00000000000E+00 -0.25997795932E+03  0.25997795932E+03  0.00000000000E+00 0.  1.
         36    2    1    2    0    0 -0.71054273576E-14  0.71054273576E-14 -0.18782365865E+03  0.33213225999E+03  0.27392355024E+03 0.  0.
         25    2    3    3    0    0 -0.47267143069E+02  0.24944390890E+02 -0.95969568587E+02  0.16644117341E+03  0.12504439475E+03 0.  0.
         25    2    3    3    0    0  0.47267143069E+02 -0.24944390890E+02 -0.91854090064E+02  0.16569108658E+03  0.12712181898E+03 0.  0.
          5    1    4    4  502    0  0.38460766214E+02  0.29093486145E+02 -0.47050697808E+02  0.67539023076E+02  0.47000000000E+01 0.  1.
         -5    1    4    4    0  502 -0.85727909284E+02 -0.41490952545E+01 -0.48918870779E+02  0.98902150330E+02  0.47000000000E+01 0.  1.
          5    1    5    5  503    0 -0.18297810553E+02  0.71130195168E+01  0.22325094380E+02  0.30098251723E+02  0.47000000000E+01 0. -1.
         -5    1    5    5    0  503  0.65564953622E+02 -0.32057410407E+02 -0.11417918444E+03  0.13559283486E+03  0.47000000000E+01 0. -1.
<mgrwt>
<rscale>  0 0.27392355E+03</rscale>
<asrwt>0</asrwt>
<pdfrwt beam="1">  1        1 0.39996609E-01 0.27392355E+03</pdfrwt>
<pdfrwt beam="2">  1       -1 0.11100662E-01 0.27392355E+03</pdfrwt>
<totfact> 0.54026959E+03</totfact>
</mgrwt>
</event>
<event>
 9    1  0.2031653E-002  0.2748691E+03  0.7818608E-02  0.1098525E+00
         -1   -1    0    0    0  501 -0.00000000000E+00  0.00000000000E+00  0.13001916650E+02  0.13001916650E+02  0.00000000000E+00 0.  1.
          1   -1    0    0  501    0  0.00000000000E+00 -0.00000000000E+00 -0.14527283404E+04  0.14527283404E+04  0.00000000000E+00 0.  1.
         36    2    1    2    0    0  0.00000000000E+00  0.00000000000E+00 -0.14397264238E+04  0.14657302571E+04  0.27486908009E+03 0.  0.
         25    2    3    3    0    0 -0.45177736831E+02  0.44155150062E+02 -0.77273735366E+03  0.78557719314E+03  0.12656146116E+03 0.  0.
         25    2    3    3    0    0  0.45177736831E+02 -0.44155150062E+02 -0.66698907013E+03  0.68015306395E+03  0.11723082168E+03 0.  0.
          5    1    4    4  502    0  0.40068077837E+02 -0.63981722850E+01 -0.17854888076E+03  0.18316162341E+03  0.47000000000E+01 0. -1.
         -5    1    4    4    0  502 -0.85245814668E+02  0.50553322347E+02 -0.59418847290E+03  0.60241556973E+03  0.47000000000E+01 0. -1.
          5    1    5    5  503    0  0.34033738391E+02 -0.80527018476E+02 -0.55311585902E+03  0.56000191031E+03  0.47000000000E+01 0. -1.
         -5    1    5    5    0  503  0.11143998440E+02  0.36371868414E+02 -0.11387321111E+03  0.12015115364E+03  0.47000000000E+01 0. -1.
<mgrwt>
<rscale>  0 0.27486908E+03</rscale>
<asrwt>0</asrwt>
<pdfrwt beam="1">  1        1 0.22349658E+00 0.27486908E+03</pdfrwt>
<pdfrwt beam="2">  1       -1 0.20002956E-02 0.27486908E+03</pdfrwt>
<totfact> 0.52745375E+03</totfact>
</mgrwt>
</event>
<event>
 9    1  0.2031653E-002  0.2751119E+03  0.7818608E-02  0.1098389E+00
         -1   -1    0    0    0  501 -0.00000000000E+00  0.00000000000E+00  0.76231122475E+02  0.76231122475E+02  0.00000000000E+00 0.  1.
          1   -1    0    0  501    0  0.00000000000E+00 -0.00000000000E+00 -0.24821405396E+03  0.24821405396E+03  0.00000000000E+00 0.  1.
         36    2    1    2    0    0  0.00000000000E+00  0.00000000000E+00 -0.17198293149E+03  0.32444517644E+03  0.27511187504E+03 0.  0.
         25    2    3    3    0    0  0.26701969854E+02 -0.23576058088E+01 -0.26658643785E+02  0.12918814602E+03  0.12353274985E+03 0.  0.
         25    2    3    3    0    0 -0.26701969854E+02  0.23576058088E+01 -0.14532428770E+03  0.19525703042E+03  0.12762290481E+03 0.  0.
          5    1    4    4  502    0  0.12891309854E+02 -0.36828502783E+02 -0.64775313421E+02  0.75765795157E+02  0.47000000000E+01 0.  1.
         -5    1    4    4    0  502  0.13810660000E+02  0.34470896974E+02  0.38116669636E+02  0.53422350865E+02  0.47000000000E+01 0.  1.
          5    1    5    5  503    0  0.20736121795E+02  0.38064602608E+02 -0.63536886292E+01  0.44060867876E+02  0.47000000000E+01 0. -1.
         -5    1    5    5    0  503 -0.47438091649E+02 -0.35706996799E+02 -0.13897059907E+03  0.15119616254E+03  0.47000000000E+01 0. -1.
<mgrwt>
<rscale>  0 0.27511188E+03</rscale>
<asrwt>0</asrwt>
<pdfrwt beam="1">  1        1 0.38186777E-01 0.27511188E+03</pdfrwt>
<pdfrwt beam="2">  1       -1 0.11727865E-01 0.27511188E+03</pdfrwt>
<totfact> 0.52570394E+03</totfact>
</mgrwt>
</event>
<event>
 9    1  0.2031653E-002  0.2831366E+03  0.7818608E-02  0.1093988E+00
          3   -1    0    0  501    0  0.00000000000E+00  0.00000000000E+00  0.14582976575E+03  0.14582976575E+03  0.00000000000E+00 0.  1.
         -3   -1    0    0    0  501 -0.00000000000E+00 -0.00000000000E+00 -0.13743139626E+03  0.13743139626E+03  0.00000000000E+00 0.  1.
         36    2    1    2    0    0 -0.35527136788E-14  0.00000000000E+00  0.83983694880E+01  0.28326116201E+03  0.28313663362E+03 0.  0.
         25    2    3    3    0    0  0.17330080857E+02  0.19471562496E+02 -0.58672166230E+02  0.13960255238E+03  0.12396360793E+03 0.  0.
         25    2    3    3    0    0 -0.17330080857E+02 -0.19471562496E+02  0.67070535718E+02  0.14365860964E+03  0.12433770913E+03 0.  0.
          5    1    4    4  502    0  0.19140420650E+02 -0.37737320423E+02  0.15928724949E+02  0.45456301366E+02  0.47000000000E+01 0. -1.
         -5    1    4    4    0  502 -0.18103397931E+01  0.57208882920E+02 -0.74600891178E+02  0.94146251012E+02  0.47000000000E+01 0. -1.
          5    1    5    5  503    0 -0.35932296817E+00  0.44580269935E+02 -0.56285379122E+01  0.45180748328E+02  0.47000000000E+01 0. -1.
         -5    1    5    5    0  503 -0.16970757889E+02 -0.64051832431E+02  0.72699073630E+02  0.98477861308E+02  0.47000000000E+01 0. -1.
<mgrwt>
<rscale>  0 0.28313663E+03</rscale>
<asrwt>0</asrwt>
<pdfrwt beam="1">  1        3 0.22435349E-01 0.28313663E+03</pdfrwt>
<pdfrwt beam="2">  1       -3 0.21143292E-01 0.28313663E+03</pdfrwt>
<totfact> 0.94748235E+02</totfact>
</mgrwt>
</event>
<event>
 9    1  0.2031653E-002  0.2758004E+03  0.7818608E-02  0.1098005E+00
         -2   -1    0    0    0  501 -0.00000000000E+00  0.00000000000E+00  0.92642505926E+01  0.92642505926E+01  0.00000000000E+00 0.  1.
          2   -1    0    0  501    0  0.00000000000E+00 -0.00000000000E+00 -0.20526716664E+04  0.20526716664E+04  0.00000000000E+00 0.  1.
         36    2    1    2    0    0 -0.71054273576E-14  0.00000000000E+00 -0.20434074158E+04  0.20619359170E+04  0.27580039668E+03 0.  0.
         25    2    3    3    0    0 -0.21042632184E+02  0.24095840630E+02 -0.14203183650E+04  0.14264315516E+04  0.12798168523E+03 0.  0.
         25    2    3    3    0    0  0.21042632184E+02 -0.24095840630E+02 -0.62308905088E+03  0.63550436539E+03  0.12084051968E+03 0.  0.
          5    1    4    4  502    0 -0.69493769035E+02  0.10292833515E+02 -0.10888028315E+04  0.10910770011E+04  0.47000000000E+01 0. -1.
         -5    1    4    4    0  502  0.48451136850E+02  0.13803007115E+02 -0.33151553342E+03  0.33535455053E+03  0.47000000000E+01 0. -1.
          5    1    5    5  503    0  0.20221133816E+02  0.37149201982E+02 -0.44673270739E+03  0.44875512177E+03  0.47000000000E+01 0.  1.
         -5    1    5    5    0  503  0.82149836765E+00 -0.61245042612E+02 -0.17635634349E+03  0.18674924362E+03  0.47000000000E+01 0.  1.
<mgrwt>
<rscale>  0 0.27580040E+03</rscale>
<asrwt>0</asrwt>
<pdfrwt beam="1">  1        2 0.31579542E+00 0.27580040E+03</pdfrwt>
<pdfrwt beam="2">  1       -2 0.14252703E-02 0.27580040E+03</pdfrwt>
<totfact> 0.88615016E+03</totfact>
</mgrwt>
</event>
<event>
 9    1  0.2031653E-002  0.2754012E+03  0.7818608E-02  0.1098228E+00
          1   -1    0    0  501    0  0.00000000000E+00  0.00000000000E+00  0.27104327218E+03  0.27104327218E+03  0.00000000000E+00 0.  1.
         -1   -1    0    0    0  501 -0.00000000000E+00 -0.00000000000E+00 -0.69957324100E+02  0.69957324100E+02  0.00000000000E+00 0.  1.
         36    2    1    2    0    0  0.14210854715E-13  0.00000000000E+00  0.20108594808E+03  0.34100059627E+03  0.27540124936E+03 0.  0.
         25    2    3    3    0    0  0.57956610237E+02 -0.61581600248E+01  0.10969732383E+03  0.17535960939E+03  0.12377640384E+03 0.  0.
         25    2    3    3    0    0 -0.57956610237E+02  0.61581600248E+01  0.91388624245E+02  0.16564098688E+03  0.12525240232E+03 0.  0.
          5    1    4    4  502    0  0.60853543252E+02 -0.19908880284E+02  0.13303474975E+03  0.14771544225E+03  0.47000000000E+01 0.  1.
         -5    1    4    4    0  502 -0.28969330144E+01  0.13750720259E+02 -0.23337425915E+02  0.27644167141E+02  0.47000000000E+01 0.  1.
          5    1    5    5  503    0 -0.85313217825E+02 -0.69394052768E+01  0.10193329193E+03  0.13318778654E+03  0.47000000000E+01 0. -1.
         -5    1    5    5    0  503  0.27356607587E+02  0.13097565302E+02 -0.10544667683E+02  0.32453200336E+02  0.47000000000E+01 0. -1.
<mgrwt>
<rscale>  0 0.27540125E+03</rscale>
<asrwt>0</asrwt>
<pdfrwt beam="1">  1        1 0.41698964E-01 0.27540125E+03</pdfrwt>
<pdfrwt beam="2">  1       -1 0.10762665E-01 0.27540125E+03</pdfrwt>
<totfact> 0.53807029E+03</totfact>
</mgrwt>
</event>
<event>
 9    1  0.2031653E-002  0.2780456E+03  0.7818608E-02  0.1096761E+00
          2   -1    0    0  501    0  0.00000000000E+00  0.00000000000E+00  0.14960172671E+03  0.14960172671E+03  0.00000000000E+00 0. -1.
         -2   -1    0    0    0  501 -0.00000000000E+00 -0.00000000000E+00 -0.12919196083E+03  0.12919196083E+03  0.00000000000E+00 0. -1.
         36    2    1    2    0    0 -0.35527136788E-14  0.71054273576E-14  0.20409765873E+02  0.27879368754E+03  0.27804561077E+03 0.  0.
         25    2    3    3    0    0 -0.26422771953E+02  0.18148399312E+02 -0.35068475174E+01  0.13366419820E+03  0.12971620032E+03 0.  0.
         25    2    3    3    0    0  0.26422771953E+02 -0.18148399312E+02  0.23916613390E+02  0.14512948934E+03  0.13950998891E+03 0.  0.
          5    1    4    4  502    0 -0.63908686405E+02 -0.30979434238E+02 -0.74431298883E+01  0.71564905689E+02  0.47000000000E+01 0. -1.
         -5    1    4    4    0  502  0.37485914453E+02  0.49127833549E+02  0.39362823709E+01  0.62099292512E+02  0.47000000000E+01 0. -1.
          5    1    5    5  503    0 -0.25369232153E+02 -0.15619715370E+01 -0.48194300801E+02  0.54688374677E+02  0.47000000000E+01 0.  1.
         -5    1    5    5    0  503  0.51792004106E+02 -0.16586427775E+02  0.72110914192E+02  0.90441114661E+02  0.47000000000E+01 0.  1.
<mgrwt>
<rscale>  0 0.27804561E+03</rscale>
<asrwt>0</asrwt>
<pdfrwt beam="1">  1        2 0.23015650E-01 0.27804561E+03</pdfrwt>
<pdfrwt beam="2">  1       -2 0.19875686E-01 0.27804561E+03</pdfrwt>
<totfact> 0.49891725E+03</totfact>
</mgrwt>
</event>
<event>
 9    1  0.2031653E-002  0.2758591E+03  0.7818608E-02  0.1097972E+00
         -1   -1    0    0    0  501 -0.00000000000E+00  0.00000000000E+00  0.17520964039E+03  0.17520964039E+03  0.00000000000E+00 0. -1.
          1   -1    0    0  501    0  0.00000000000E+00 -0.00000000000E+00 -0.10858167130E+03  0.10858167130E+03  0.00000000000E+00 0. -1.
         36    2    1    2    0    0  0.14210854715E-13  0.00000000000E+00  0.66627969083E+02  0.28379131169E+03  0.27585906243E+03 0.  0.
         25    2    3    3    0    0 -0.28760203239E+02 -0.40576154682E+02  0.82039526159E+01  0.13374014154E+03  0.12387714479E+03 0.  0.
         25    2    3    3    0    0  0.28760203239E+02  0.40576154682E+02  0.58424016467E+02  0.15005117015E+03  0.12895120916E+03 0.  0.
          5    1    4    4  502    0 -0.14007472416E+01 -0.73143602684E+02 -0.27208823781E+02  0.78194365513E+02  0.47000000000E+01 0.  1.
         -5    1    4    4    0  502 -0.27359455997E+02  0.32567448003E+02  0.35412776397E+02  0.55545776023E+02  0.47000000000E+01 0.  1.
          5    1    5    5  503    0 -0.25902419759E+02 -0.34448532608E+02  0.30474801085E+02  0.52994719071E+02  0.47000000000E+01 0.  1.
         -5    1    5    5    0  503  0.54662622998E+02  0.75024687290E+02  0.27949215382E+02  0.97056451081E+02  0.47000000000E+01 0.  1.
<mgrwt>
<rscale>  0 0.27585906E+03</rscale>
<asrwt>0</asrwt>
<pdfrwt beam="1">  1        1 0.16704873E-01 0.27585906E+03</pdfrwt>
<pdfrwt beam="2">  1       -1 0.26955329E-01 0.27585906E+03</pdfrwt>
<totfact> 0.39420494E+03</totfact>
</mgrwt>
</event>
<event>
 9    1  0.2031653E-002  0.2788866E+03  0.7818608E-02  0.1096299E+00
          2   -1    0    0  501    0  0.00000000000E+00  0.00000000000E+00  0.48376908075E+03  0.48376908075E+03  0.00000000000E+00 0.  1.
         -2   -1    0    0    0  501 -0.00000000000E+00 -0.00000000000E+00 -0.40193628318E+02  0.40193628318E+02  0.00000000000E+00 0.  1.
         36    2    1    2    0    0  0.00000000000E+00  0.00000000000E+00  0.44357545243E+03  0.52396270907E+03  0.27888660508E+03 0.  0.
         25    2    3    3    0    0  0.48571621644E+02  0.72428666879E+02  0.25440937449E+03  0.29629026591E+03  0.12433293059E+03 0.  0.
         25    2    3    3    0    0 -0.48571621644E+02 -0.72428666879E+02  0.18916607794E+03  0.22767244316E+03  0.91901154050E+02 0.  0.
          5    1    4    4  502    0 -0.41875005523E+02  0.27047591264E+02  0.73196252873E+02  0.88684100691E+02  0.47000000000E+01 0.  1.
         -5    1    4    4    0  502  0.90446627167E+02  0.45381075615E+02  0.18121312161E+03  0.20760616521E+03  0.47000000000E+01 0.  1.
          5    1    5    5  503    0 -0.39090115287E+02  0.11244412920E+02  0.46652975233E+02  0.62073054002E+02  0.47000000000E+01 0. -1.
         -5    1    5    5    0  503 -0.94815063565E+01 -0.83673079798E+02  0.14251310271E+03  0.16559938916E+03  0.47000000000E+01 0. -1.
<mgrwt>
<rscale>  0 0.27888661E+03</rscale>
<asrwt>0</asrwt>
<pdfrwt beam="1">  1        2 0.74426009E-01 0.27888661E+03</pdfrwt>
<pdfrwt beam="2">  1       -2 0.61836354E-02 0.27888661E+03</pdfrwt>
<totfact> 0.90814470E+03</totfact>
</mgrwt>
</event>
<event>
 9    1  0.2031653E-002  0.2752530E+03  0.7818608E-02  0.1098310E+00
          2   -1    0    0  501    0  0.00000000000E+00  0.00000000000E+00  0.25451125885E+03  0.25451125885E+03  0.00000000000E+00 0. -1.
         -2   -1    0    0    0  501 -0.00000000000E+00 -0.00000000000E+00 -0.74421290613E+02  0.74421290613E+02  0.00000000000E+00 0. -1.
         36    2    1    2    0    0  0.00000000000E+00  0.00000000000E+00  0.18008996824E+03  0.32893254947E+03  0.27525302076E+03 0.  0.
         25    2    3    3    0    0  0.22414859443E+02  0.29950069679E+02  0.15506283827E+03  0.20296890370E+03  0.12550880231E+03 0.  0.
         25    2    3    3    0    0 -0.22414859443E+02 -0.29950069679E+02  0.25027129966E+02  0.12596364576E+03  0.11764799285E+03 0.  0.
          5    1    4    4  502    0 -0.18649555125E+02  0.63265849146E+02  0.12636619871E+03  0.14262145614E+03  0.47000000000E+01 0.  1.
         -5    1    4    4    0  502  0.41064414568E+02 -0.33315779466E+02  0.28696639568E+02  0.60347447566E+02  0.47000000000E+01 0.  1.
          5    1    5    5  503    0 -0.73982587828E+01  0.32373306624E+02 -0.27167975082E+02  0.43161951819E+02  0.47000000000E+01 0.  1.
         -5    1    5    5    0  503 -0.15016600660E+02 -0.62323376303E+02  0.52195105047E+02  0.82801693945E+02  0.47000000000E+01 0.  1.
<mgrwt>
<rscale>  0 0.27525302E+03</rscale>
<asrwt>0</asrwt>
<pdfrwt beam="1">  1        2 0.39155578E-01 0.27525302E+03</pdfrwt>
<pdfrwt beam="2">  1       -2 0.11449429E-01 0.27525302E+03</pdfrwt>
<totfact> 0.69259109E+03</totfact>
</mgrwt>
</event>
<event>
 9    1  0.2031653E-002  0.2738122E+03  0.7818608E-02  0.1099117E+00
          2   -1    0    0  501    0  0.00000000000E+00  0.00000000000E+00  0.30080016457E+04  0.30080016457E+04  0.00000000000E+00 0. -1.
         -2   -1    0    0    0  501 -0.00000000000E+00 -0.00000000000E+00 -0.62311382373E+01  0.62311382373E+01  0.00000000000E+00 0. -1.
         36    2    1    2    0    0  0.71054273576E-14  0.00000000000E+00  0.30017705075E+04  0.30142327840E+04  0.27381215512E+03 0.  0.
         25    2    3    3    0    0 -0.45031603767E+02  0.11003907790E+02  0.18694033440E+04  0.18741750537E+04  0.12535684244E+03 0.  0.
         25    2    3    3    0    0  0.45031603767E+02 -0.11003907790E+02  0.11323671635E+04  0.11400577303E+04  0.12380348990E+03 0.  0.
          5    1    4    4  502    0  0.90573677572E+01 -0.49680229851E+02  0.58567252742E+03  0.58786440658E+03  0.47000000000E+01 0.  1.
         -5    1    4    4    0  502 -0.54088971524E+02  0.60684137641E+02  0.12837308166E+04  0.12863106471E+04  0.47000000000E+01 0.  1.
          5    1    5    5  503    0  0.48329690970E+02 -0.96905341764E+01  0.15593283529E+03  0.16360563745E+03  0.47000000000E+01 0. -1.
         -5    1    5    5    0  503 -0.32980872033E+01 -0.13133736134E+01  0.97643432816E+03  0.97645209281E+03  0.47000000000E+01 0. -1.
<mgrwt>
<rscale>  0 0.27381216E+03</rscale>
<asrwt>0</asrwt>
<pdfrwt beam="1">  1        2 0.46276832E+00 0.27381216E+03</pdfrwt>
<pdfrwt beam="2">  1       -2 0.95863906E-03 0.27381216E+03</pdfrwt>
<totfact> 0.46727414E+03</totfact>
</mgrwt>
</event>
<event>
 9    1  0.2031653E-002  0.2710476E+03  0.7818608E-02  0.1100682E+00
         -4   -1    0    0    0  501 -0.00000000000E+00  0.00000000000E+00  0.34285042132E+02  0.34285042132E+02  0.00000000000E+00 0.  1.
          4   -1    0    0  501    0  0.00000000000E+00 -0.00000000000E+00 -0.53570596035E+03  0.53570596035E+03  0.00000000000E+00 0.  1.
         36    2    1    2    0    0  0.00000000000E+00  0.00000000000E+00 -0.50142091822E+03  0.56999100248E+03  0.27104760778E+03 0.  0.
         25    2    3    3    0    0  0.27712344167E+02  0.25271204919E+02 -0.31522647738E+03  0.34000284344E+03  0.12176860717E+03 0.  0.
         25    2    3    3    0    0 -0.27712344167E+02 -0.25271204919E+02 -0.18619444084E+03  0.22998815904E+03  0.12969030681E+03 0.  0.
          5    1    4    4  502    0  0.58927953231E+02  0.10173544540E+02 -0.69537024943E+02  0.91834048797E+02  0.47000000000E+01 0.  1.
         -5    1    4    4    0  502 -0.31215609064E+02  0.15097660379E+02 -0.24568945243E+03  0.24816879464E+03  0.47000000000E+01 0.  1.
          5    1    5    5  503    0 -0.75157258630E+02 -0.12997904780E+01 -0.14184763068E+03  0.16060243868E+03  0.47000000000E+01 0.  1.
         -5    1    5    5    0  503  0.47444914463E+02 -0.23971414441E+02 -0.44346810165E+02  0.69385720365E+02  0.47000000000E+01 0.  1.
<mgrwt>
<rscale>  0 0.27104761E+03</rscale>
<asrwt>0</asrwt>
<pdfrwt beam="1">  1        4 0.82416299E-01 0.27104761E+03</pdfrwt>
<pdfrwt beam="2">  1       -4 0.52746220E-02 0.27104761E+03</pdfrwt>
<totfact> 0.54415130E+02</totfact>
</mgrwt>
</event>
<event>
 9    1  0.2031653E-002  0.2745426E+03  0.7818608E-02  0.1098708E+00
          1   -1    0    0  501    0  0.00000000000E+00  0.00000000000E+00  0.39527130665E+02  0.39527130665E+02  0.00000000000E+00 0.  1.
         -1   -1    0    0    0  501 -0.00000000000E+00 -0.00000000000E+00 -0.47672074446E+03  0.47672074446E+03  0.00000000000E+00 0.  1.
         36    2    1    2    0    0 -0.71054273576E-14  0.00000000000E+00 -0.43719361379E+03  0.51624787512E+03  0.27454255158E+03 0.  0.
         25    2    3    3    0    0 -0.56169460883E+02 -0.24183516883E+02 -0.26951919586E+03  0.30060788176E+03  0.11825671573E+03 0.  0.
         25    2    3    3    0    0  0.56169460883E+02  0.24183516883E+02 -0.16767441794E+03  0.21563999336E+03  0.12102084731E+03 0.  0.
          5    1    4    4  502    0  0.13643338843E+02  0.31501717907E+02 -0.33417503576E+02  0.48138534161E+02  0.47000000000E+01 0. -1.
         -5    1    4    4    0  502 -0.69812799725E+02 -0.55685234789E+02 -0.23610169228E+03  0.25246934760E+03  0.47000000000E+01 0. -1.
          5    1    5    5  503    0 -0.10373543805E+01  0.40930740696E+02 -0.40243776598E+01  0.41408782324E+02  0.47000000000E+01 0.  1.
         -5    1    5    5    0  503  0.57206815263E+02 -0.16747223813E+02 -0.16365004028E+03  0.17423121104E+03  0.47000000000E+01 0.  1.
<mgrwt>
<rscale>  0 0.27454255E+03</rscale>
<asrwt>0</asrwt>
<pdfrwt beam="1">  1        1 0.60810963E-02 0.27454255E+03</pdfrwt>
<pdfrwt beam="2">  1       -1 0.73341661E-01 0.27454255E+03</pdfrwt>
<totfact> 0.24689860E+03</totfact>
</mgrwt>
</event>
<event>
 9    1  0.2031653E-002  0.2752324E+03  0.7818608E-02  0.1098322E+00
         -2   -1    0    0    0  501 -0.00000000000E+00  0.00000000000E+00  0.19499684652E+02  0.19499684652E+02  0.00000000000E+00 0.  1.
          2   -1    0    0  501    0  0.00000000000E+00 -0.00000000000E+00 -0.97120637518E+03  0.97120637518E+03  0.00000000000E+00 0.  1.
         36    2    1    2    0    0  0.00000000000E+00 -0.35527136788E-14 -0.95170669053E+03  0.99070605983E+03  0.27523239670E+03 0.  0.
         25    2    3    3    0    0  0.46506433648E+02  0.19928511090E+02 -0.61324300531E+03  0.62672559274E+03  0.11898735694E+03 0.  0.
         25    2    3    3    0    0 -0.46506433648E+02 -0.19928511090E+02 -0.33846368522E+03  0.36398046709E+03  0.12395208867E+03 0.  0.
          5    1    4    4  502    0  0.73450089559E+02 -0.10779174201E+02 -0.24101186073E+03  0.25222988179E+03  0.47000000000E+01 0.  1.
         -5    1    4    4    0  502 -0.26943655911E+02  0.30707685291E+02 -0.37223114458E+03  0.37449571096E+03  0.47000000000E+01 0.  1.
          5    1    5    5  503    0 -0.48968211965E+02 -0.50987495318E+02 -0.31937755572E+03  0.32714174842E+03  0.47000000000E+01 0. -1.
         -5    1    5    5    0  503  0.24617783173E+01  0.31058984228E+02 -0.19086129492E+02  0.36838718663E+02  0.47000000000E+01 0. -1.
<mgrwt>
<rscale>  0 0.27523240E+03</rscale>
<asrwt>0</asrwt>
<pdfrwt beam="1">  1        2 0.14941637E+00 0.27523240E+03</pdfrwt>
<pdfrwt beam="2">  1       -2 0.29999514E-02 0.27523240E+03</pdfrwt>
<totfact> 0.11559434E+04</totfact>
</mgrwt>
</event>
<event>
 9    1  0.2031653E-002  0.2746381E+03  0.7818608E-02  0.1098654E+00
          2   -1    0    0  501    0  0.00000000000E+00  0.00000000000E+00  0.34695277349E+04  0.34695277349E+04  0.00000000000E+00 0.  1.
         -2   -1    0    0    0  501 -0.00000000000E+00 -0.00000000000E+00 -0.54348938856E+01  0.54348938856E+01  0.00000000000E+00 0.  1.
         36    2    1    2    0    0 -0.35527136788E-14 -0.71054273576E-14  0.34640928410E+04  0.34749626288E+04  0.27463805324E+03 0.  0.
         25    2    3    3    0    0  0.74901477129E+01  0.61492499714E+02  0.18367154792E+04  0.18419224555E+04  0.12376247671E+03 0.  0.
         25    2    3    3    0    0 -0.74901477129E+01 -0.61492499714E+02  0.16273773617E+04  0.16330401732E+04  0.12093676051E+03 0.  0.
          5    1    4    4  502    0 -0.22831059760E+02  0.91157507314E+02  0.11246100917E+04  0.11285392757E+04  0.47000000000E+01 0.  1.
         -5    1    4    4    0  502  0.30321207473E+02 -0.29665007600E+02  0.71210538758E+03  0.71338317987E+03  0.47000000000E+01 0.  1.
          5    1    5    5  503    0 -0.25378027283E+01 -0.96547792181E+02  0.10057005628E+04  0.10103383733E+04  0.47000000000E+01 0. -1.
         -5    1    5    5    0  503 -0.49523449846E+01  0.35055292467E+02  0.62167679898E+03  0.62270179994E+03  0.47000000000E+01 0. -1.
<mgrwt>
<rscale>  0 0.27463805E+03</rscale>
<asrwt>0</asrwt>
<pdfrwt beam="1">  1        2 0.53377173E+00 0.27463805E+03</pdfrwt>
<pdfrwt beam="2">  1       -2 0.83614030E-03 0.27463805E+03</pdfrwt>
<totfact> 0.29367333E+03</totfact>
</mgrwt>
</event>
<event>
 9    1  0.2031653E-002  0.2736588E+03  0.7818608E-02  0.1099204E+00
         -2   -1    0    0    0  501 -0.00000000000E+00  0.00000000000E+00  0.74237693453E+01  0.74237693453E+01  0.00000000000E+00 0.  1.
          2   -1    0    0  501    0  0.00000000000E+00 -0.00000000000E+00 -0.25219385001E+04  0.25219385001E+04  0.00000000000E+00 0.  1.
         36    2    1    2    0    0 -0.35527136788E-14  0.17763568394E-14 -0.25145147307E+04  0.25293622694E+04  0.27365883671E+03 0.  0.
         25    2    3    3    0    0 -0.27293303049E+02  0.46847367752E+01 -0.17322320573E+04  0.17369207960E+04  0.12449530025E+03 0.  0.
         25    2    3    3    0    0  0.27293303049E+02 -0.46847367752E+01 -0.78228267338E+03  0.79244147346E+03  0.12341165519E+03 0.  0.
          5    1    4    4  502    0 -0.75290626101E+02  0.13489080477E+02 -0.90579382253E+03  0.90902979742E+03  0.47000000000E+01 0.  1.
         -5    1    4    4    0  502  0.47997323052E+02 -0.88043437022E+01 -0.82643823481E+03  0.82789099853E+03  0.47000000000E+01 0.  1.
          5    1    5    5  503    0 -0.14316299522E+02  0.51002941513E+02 -0.43495708080E+03  0.43819631287E+03  0.47000000000E+01 0. -1.
         -5    1    5    5    0  503  0.41609602571E+02 -0.55687678288E+02 -0.34732559258E+03  0.35424516059E+03  0.47000000000E+01 0. -1.
<mgrwt>
<rscale>  0 0.27365884E+03</rscale>
<asrwt>0</asrwt>
<pdfrwt beam="1">  1        2 0.38799066E+00 0.27365884E+03</pdfrwt>
<pdfrwt beam="2">  1       -2 0.11421180E-02 0.27365884E+03</pdfrwt>
<totfact> 0.68543729E+03</totfact>
</mgrwt>
</event>
<event>
 9    1  0.2031653E-002  0.2734568E+03  0.7818608E-02  0.1099317E+00
          1   -1    0    0  501    0  0.00000000000E+00  0.00000000000E+00  0.32201219803E+03  0.32201219803E+03  0.00000000000E+00 0. -1.
         -1   -1    0    0    0  501 -0.00000000000E+00 -0.00000000000E+00 -0.58055747458E+02  0.58055747458E+02  0.00000000000E+00 0. -1.
         36    2    1    2    0    0 -0.71054273576E-14  0.14210854715E-13  0.26395645057E+03  0.38006794549E+03  0.27345682546E+03 0.  0.
         25    2    3    3    0    0 -0.23638727809E+02  0.46776691893E+02  0.99432527106E+02  0.16768823799E+03  0.12444142942E+03 0.  0.
         25    2    3    3    0    0  0.23638727809E+02 -0.46776691893E+02  0.16452392346E+03  0.21237970750E+03  0.12365342861E+03 0.  0.
          5    1    4    4  502    0 -0.39681435665E+02 -0.48400663742E+01  0.10566820251E+03  0.11307476111E+03  0.47000000000E+01 0. -1.
         -5    1    4    4    0  502  0.16042707856E+02  0.51616758267E+02 -0.62356754009E+01  0.54613476882E+02  0.47000000000E+01 0. -1.
          5    1    5    5  503    0 -0.49569186287E+01  0.22816767140E+02  0.12502351828E+03  0.12727193731E+03  0.47000000000E+01 0.  1.
         -5    1    5    5    0  503  0.28595646438E+02 -0.69593459033E+02  0.39500405186E+02  0.85107770181E+02  0.47000000000E+01 0.  1.
<mgrwt>
<rscale>  0 0.27345683E+03</rscale>
<asrwt>0</asrwt>
<pdfrwt beam="1">  1        1 0.49540337E-01 0.27345683E+03</pdfrwt>
<pdfrwt beam="2">  1       -1 0.89316537E-02 0.27345683E+03</pdfrwt>
<totfact> 0.57766473E+03</totfact>
</mgrwt>
</event>
<event>
 9    1  0.2031653E-002  0.2744709E+03  0.7818608E-02  0.1098748E+00
          1   -1    0    0  501    0  0.00000000000E+00  0.00000000000E+00  0.59791559695E+03  0.59791559695E+03  0.00000000000E+00 0.  1.
         -1   -1    0    0    0  501 -0.00000000000E+00 -0.00000000000E+00 -0.31498710878E+02  0.31498710878E+02  0.00000000000E+00 0.  1.
         36    2    1    2    0    0  0.00000000000E+00 -0.55511151231E-14  0.56641688607E+03  0.62941430782E+03  0.27447091298E+03 0.  0.
         25    2    3    3    0    0 -0.57148060064E+02  0.12248425617E+01  0.30073905883E+03  0.33085447395E+03  0.12551215247E+03 0.  0.
         25    2    3    3    0    0  0.57148060064E+02 -0.12248425617E+01  0.26567782724E+03  0.29855983388E+03  0.12363602028E+03 0.  0.
          5    1    4    4  502    0  0.36870443549E+01  0.53889740055E+02  0.88048868921E+02  0.10340402167E+03  0.47000000000E+01 0. -1.
         -5    1    4    4    0  502 -0.60835104419E+02 -0.52664897493E+02  0.21269018991E+03  0.22745045228E+03  0.47000000000E+01 0. -1.
          5    1    5    5  503    0  0.93216122721E+02  0.43608598090E+00  0.22700222847E+03  0.24544151531E+03  0.47000000000E+01 0.  1.
         -5    1    5    5    0  503 -0.36068062657E+02 -0.16609285426E+01  0.38675598765E+02  0.53118318567E+02  0.47000000000E+01 0.  1.
<mgrwt>
<rscale>  0 0.27447091E+03</rscale>
<asrwt>0</asrwt>
<pdfrwt beam="1">  1        1 0.91987006E-01 0.27447091E+03</pdfrwt>
<pdfrwt beam="2">  1       -1 0.48459560E-02 0.27447091E+03</pdfrwt>
<totfact> 0.64954748E+03</totfact>
</mgrwt>
</event>
<event>
 9    1  0.2031653E-002  0.2743410E+03  0.7818608E-02  0.1098821E+00
         -1   -1    0    0    0  501 -0.00000000000E+00  0.00000000000E+00  0.80866050144E+01  0.80866050144E+01  0.00000000000E+00 0. -1.
          1   -1    0    0  501    0  0.00000000000E+00 -0.00000000000E+00 -0.23267791230E+04  0.23267791230E+04  0.00000000000E+00 0. -1.
         36    2    1    2    0    0  0.00000000000E+00  0.00000000000E+00 -0.23186925180E+04  0.23348657281E+04  0.27434098289E+03 0.  0.
         25    2    3    3    0    0  0.27029878077E+02  0.43090099465E+02 -0.14061664458E+04  0.14126161985E+04  0.12487225423E+03 0.  0.
         25    2    3    3    0    0 -0.27029878077E+02 -0.43090099465E+02 -0.91252607223E+03  0.92224952960E+03  0.12350300144E+03 0.  0.
          5    1    4    4  502    0 -0.44225054005E+02  0.36998190684E+02 -0.43856956279E+03  0.44236870699E+03  0.47000000000E+01 0. -1.
         -5    1    4    4    0  502  0.71254932082E+02  0.60919087819E+01 -0.96759688300E+03  0.97024749146E+03  0.47000000000E+01 0. -1.
          5    1    5    5  503    0 -0.30916313831E+02  0.29860945096E+02 -0.58715099025E+03  0.58874091913E+03  0.47000000000E+01 0.  1.
         -5    1    5    5    0  503  0.38864357538E+01 -0.72951044562E+02 -0.32537508198E+03  0.33350861047E+03  0.47000000000E+01 0.  1.
<mgrwt>
<rscale>  0 0.27434098E+03</rscale>
<asrwt>0</asrwt>
<pdfrwt beam="1">  1        1 0.35796597E+00 0.27434098E+03</pdfrwt>
<pdfrwt beam="2">  1       -1 0.12440932E-02 0.27434098E+03</pdfrwt>
<totfact> 0.28286904E+03</totfact>
</mgrwt>
</event>
<event>
 9    1  0.2031653E-002  0.2751763E+03  0.7818608E-02  0.1098353E+00
          2   -1    0    0  501    0  0.00000000000E+00  0.00000000000E+00  0.30308700901E+04  0.30308700901E+04  0.00000000000E+00 0. -1.
         -2   -1    0    0    0  501 -0.00000000000E+00 -0.00000000000E+00 -0.62458940912E+01  0.62458940912E+01  0.00000000000E+00 0. -1.
         36    2    1    2    0    0  0.00000000000E+00  0.00000000000E+00  0.30246241960E+04  0.30371159842E+04  0.27517626051E+03 0.  0.
         25    2    3    3    0    0 -0.59243817141E+02 -0.84610644105E+01  0.13140501859E+04  0.13209457267E+04  0.12078204445E+03 0.  0.
         25    2    3    3    0    0  0.59243817141E+02  0.84610644105E+01  0.17105740100E+04  0.17161702574E+04  0.12488190126E+03 0.  0.
          5    1    4    4  502    0  0.54163430364E+00  0.25379110365E+02  0.64145295986E+02  0.69145510395E+02  0.47000000000E+01 0.  1.
         -5    1    4    4    0  502 -0.59785451445E+02 -0.33840174776E+02  0.12499048900E+04  0.12518002163E+04  0.47000000000E+01 0.  1.
          5    1    5    5  503    0  0.38792127907E+02  0.10492345176E+02  0.16696017154E+04  0.16700918827E+04  0.47000000000E+01 0.  1.
         -5    1    5    5    0  503  0.20451689234E+02 -0.20312807657E+01  0.40972294591E+02  0.46078374734E+02  0.47000000000E+01 0.  1.
<mgrwt>
<rscale>  0 0.27517626E+03</rscale>
<asrwt>0</asrwt>
<pdfrwt beam="1">  1        2 0.46628653E+00 0.27517626E+03</pdfrwt>
<pdfrwt beam="2">  1       -2 0.96090920E-03 0.27517626E+03</pdfrwt>
<totfact> 0.45125855E+03</totfact>
</mgrwt>
</event>
<event>
 9    1  0.2031653E-002  0.2746685E+03  0.7818608E-02  0.1098637E+00
          2   -1    0    0  501    0  0.00000000000E+00  0.00000000000E+00  0.16932311769E+04  0.16932311769E+04  0.00000000000E+00 0.  1.
         -2   -1    0    0    0  501 -0.00000000000E+00 -0.00000000000E+00 -0.11138877046E+02  0.11138877046E+02  0.00000000000E+00 0.  1.
         36    2    1    2    0    0  0.71054273576E-14 -0.14210854715E-13  0.16820922998E+04  0.17043700539E+04  0.27466848301E+03 0.  0.
         25    2    3    3    0    0 -0.45121684289E+02  0.64516231346E+02  0.79554385537E+03  0.80902459528E+03  0.12422745046E+03 0.  0.
         25    2    3    3    0    0  0.45121684289E+02 -0.64516231346E+02  0.88654844447E+03  0.89534545865E+03  0.97350066462E+02 0.  0.
          5    1    4    4  502    0 -0.40094013965E+02  0.46814106107E+01  0.65319792113E+03  0.65446089244E+03  0.47000000000E+01 0.  1.
         -5    1    4    4    0  502 -0.50276703239E+01  0.59834820735E+02  0.14234593424E+03  0.15456370284E+03  0.47000000000E+01 0.  1.
          5    1    5    5  503    0  0.19833637195E+02 -0.85724197675E+02  0.53361690254E+03  0.54084295309E+03  0.47000000000E+01 0.  1.
         -5    1    5    5    0  503  0.25288047094E+02  0.21207966330E+02  0.35293154192E+03  0.35450250556E+03  0.47000000000E+01 0.  1.
<mgrwt>
<rscale>  0 0.27466848E+03</rscale>
<asrwt>0</asrwt>
<pdfrwt beam="1">  1        2 0.26049690E+00 0.27466848E+03</pdfrwt>
<pdfrwt beam="2">  1       -2 0.17136747E-02 0.27466848E+03</pdfrwt>
<totfact> 0.10452923E+04</totfact>
</mgrwt>
</event>
<event>
 9    1  0.2031653E-002  0.2747813E+03  0.7818608E-02  0.1098574E+00
         -2   -1    0    0    0  501 -0.00000000000E+00  0.00000000000E+00  0.22452458828E+02  0.22452458828E+02  0.00000000000E+00 0. -1.
          2   -1    0    0  501    0  0.00000000000E+00 -0.00000000000E+00 -0.84071844593E+03  0.84071844593E+03  0.00000000000E+00 0. -1.
         36    2    1    2    0    0 -0.71054273576E-14  0.14210854715E-13 -0.81826598710E+03  0.86317090476E+03  0.27478134065E+03 0.  0.
         25    2    3    3    0    0 -0.25993000628E+02  0.39295025673E+02 -0.37992274396E+03  0.40300866302E+03  0.12591646424E+03 0.  0.
         25    2    3    3    0    0  0.25993000628E+02 -0.39295025673E+02 -0.43834324314E+03  0.46016224174E+03  0.13185126010E+03 0.  0.
          5    1    4    4  502    0 -0.34192667184E+02  0.82551190285E+02 -0.23430080166E+03  0.25080429256E+03  0.47000000000E+01 0.  1.
         -5    1    4    4    0  502  0.81996665560E+01 -0.43256164612E+02 -0.14562194230E+03  0.15220437046E+03  0.47000000000E+01 0.  1.
          5    1    5    5  503    0 -0.48856192104E+02 -0.28433444036E+02 -0.26461144707E+03  0.27062279314E+03  0.47000000000E+01 0. -1.
         -5    1    5    5    0  503  0.74849192732E+02 -0.10861581637E+02 -0.17373179607E+03  0.18953944860E+03  0.47000000000E+01 0. -1.
<mgrwt>
<rscale>  0 0.27478134E+03</rscale>
<asrwt>0</asrwt>
<pdfrwt beam="1">  1        2 0.12934129E+00 0.27478134E+03</pdfrwt>
<pdfrwt beam="2">  1       -2 0.34542247E-02 0.27478134E+03</pdfrwt>
<totfact> 0.11367248E+04</totfact>
</mgrwt>
</event>
<event>
 9    1  0.2031653E-002  0.2741181E+03  0.7818608E-02  0.1098946E+00
          2   -1    0    0  501    0  0.00000000000E+00  0.00000000000E+00  0.71399942473E+02  0.71399942473E+02  0.00000000000E+00 0. -1.
         -2   -1    0    0    0  501 -0.00000000000E+00 -0.00000000000E+00 -0.26309799985E+03  0.26309799985E+03  0.00000000000E+00 0. -1.
         36    2    1    2    0    0  0.00000000000E+00  0.00000000000E+00 -0.19169805737E+03  0.33449794232E+03  0.27411809173E+03 0.  0.
         25    2    3    3    0    0  0.55630434679E+02  0.20187227873E+02 -0.83310805150E+02  0.16281439983E+03  0.12675002606E+03 0.  0.
         25    2    3    3    0    0 -0.55630434679E+02 -0.20187227873E+02 -0.10838725222E+03  0.17168354249E+03  0.11926932919E+03 0.  0.
          5    1    4    4  502    0  0.26504572723E+01 -0.47228154792E+02 -0.54318974686E+02  0.72181469504E+02  0.47000000000E+01 0. -1.
         -5    1    4    4    0  502  0.52979977407E+02  0.67415382666E+02 -0.28991830464E+02  0.90632930327E+02  0.47000000000E+01 0. -1.
          5    1    5    5  503    0 -0.87973446664E+02  0.76867041599E+01 -0.85520577321E+02  0.12302142856E+03  0.47000000000E+01 0.  1.
         -5    1    5    5    0  503  0.32343011985E+02 -0.27873932033E+02 -0.22866674903E+02  0.48662113932E+02  0.47000000000E+01 0.  1.
<mgrwt>
<rscale>  0 0.27411809E+03</rscale>
<asrwt>0</asrwt>
<pdfrwt beam="1">  1        2 0.10984606E-01 0.27411809E+03</pdfrwt>
<pdfrwt beam="2">  1       -2 0.40476616E-01 0.27411809E+03</pdfrwt>
<totfact> 0.33037709E+03</totfact>
</mgrwt>
</event>
<event>
 9    1  0.2031653E-002  0.2752352E+03  0.7818608E-02  0.1098320E+00
         -3   -1    0    0    0  501 -0.00000000000E+00  0.00000000000E+00  0.93806631306E+03  0.93806631306E+03  0.00000000000E+00 0. -1.
          3   -1    0    0  501    0  0.00000000000E+00 -0.00000000000E+00 -0.20188988486E+02  0.20188988486E+02  0.00000000000E+00 0. -1.
         36    2    1    2    0    0  0.14210854715E-13  0.35527136788E-14  0.91787732457E+03  0.95825530154E+03  0.27523524479E+03 0.  0.
         25    2    3    3    0    0 -0.48976190244E+02 -0.24827851586E+02  0.55618445410E+03  0.57269152419E+03  0.12497737982E+03 0.  0.
         25    2    3    3    0    0  0.48976190244E+02  0.24827851586E+02  0.36169287047E+03  0.38556377736E+03  0.12174811881E+03 0.  0.
          5    1    4    4  502    0  0.35216809025E+02  0.11152868675E+02  0.87012718505E+02  0.94646253488E+02  0.47000000000E+01 0. -1.
         -5    1    4    4    0  502 -0.84192999269E+02 -0.35980720260E+02  0.46917173559E+03  0.47804527070E+03  0.47000000000E+01 0. -1.
          5    1    5    5  503    0  0.60290659243E+02 -0.82194995535E+01  0.33711596581E+03  0.34259566280E+03  0.47000000000E+01 0. -1.
         -5    1    5    5    0  503 -0.11314468998E+02  0.33047351139E+02  0.24576904667E+02  0.42968114562E+02  0.47000000000E+01 0. -1.
<mgrwt>
<rscale>  0 0.27523524E+03</rscale>
<asrwt>0</asrwt>
<pdfrwt beam="1">  1        3 0.31059990E-02 0.27523524E+03</pdfrwt>
<pdfrwt beam="2">  1       -3 0.14431786E+00 0.27523524E+03</pdfrwt>
<totfact> 0.46113717E+02</totfact>
</mgrwt>
</event>
<event>
 9    1  0.2031653E-002  0.2749504E+03  0.7818608E-02  0.1098479E+00
         -2   -1    0    0    0  501 -0.00000000000E+00  0.00000000000E+00  0.24965919847E+03  0.24965919847E+03  0.00000000000E+00 0. -1.
          2   -1    0    0  501    0  0.00000000000E+00 -0.00000000000E+00 -0.75700912556E+02  0.75700912556E+02  0.00000000000E+00 0. -1.
         36    2    1    2    0    0  0.17763568394E-14  0.00000000000E+00  0.17395828591E+03  0.32536011102E+03  0.27495038936E+03 0.  0.
         25    2    3    3    0    0  0.19967516218E+01 -0.41691733981E+02  0.48402080699E+02  0.14253092035E+03  0.12739746520E+03 0.  0.
         25    2    3    3    0    0 -0.19967516218E+01  0.41691733981E+02  0.12555620521E+03  0.18282919068E+03  0.12617434207E+03 0.  0.
          5    1    4    4  502    0  0.17693186875E+02 -0.51224522450E+02 -0.29826760240E+02  0.62038102715E+02  0.47000000000E+01 0. -1.
         -5    1    4    4    0  502 -0.15696435253E+02  0.95327884695E+01  0.78228840939E+02  0.80492817632E+02  0.47000000000E+01 0. -1.
          5    1    5    5  503    0  0.54382886991E+02 -0.10382285332E+01  0.85367053212E+02  0.10133212763E+03  0.47000000000E+01 0. -1.
         -5    1    5    5    0  503 -0.56379638613E+02  0.42729962514E+02  0.40189151997E+02  0.81497063044E+02  0.47000000000E+01 0. -1.
<mgrwt>
<rscale>  0 0.27495039E+03</rscale>
<asrwt>0</asrwt>
<pdfrwt beam="1">  1        2 0.11646294E-01 0.27495039E+03</pdfrwt>
<pdfrwt beam="2">  1       -2 0.38409107E-01 0.27495039E+03</pdfrwt>
<totfact> 0.33985366E+03</totfact>
</mgrwt>
</event>
<event>
 9    1  0.2031653E-002  0.2754586E+03  0.7818608E-02  0.1098196E+00
         -2   -1    0    0    0  501 -0.00000000000E+00  0.00000000000E+00  0.25283178682E+02  0.25283178682E+02  0.00000000000E+00 0.  1.
          2   -1    0    0  501    0  0.00000000000E+00 -0.00000000000E+00 -0.75027578321E+03  0.75027578321E+03  0.00000000000E+00 0.  1.
         36    2    1    2    0    0  0.00000000000E+00  0.71054273576E-14 -0.72499260453E+03  0.77555896189E+03  0.27545857538E+03 0.  0.
         25    2    3    3    0    0  0.31195325432E+02 -0.54604739124E+02 -0.28321767219E+03  0.31409996384E+03  0.12038152508E+03 0.  0.
         25    2    3    3    0    0 -0.31195325432E+02  0.54604739124E+02 -0.44177493234E+03  0.46145899805E+03  0.11757759215E+03 0.  0.
          5    1    4    4  502    0  0.28495007255E+02 -0.89919009870E+02 -0.24069323055E+03  0.25855891980E+03  0.47000000000E+01 0.  1.
         -5    1    4    4    0  502  0.27003181769E+01  0.35314270745E+02 -0.42524441637E+02  0.55541044040E+02  0.47000000000E+01 0.  1.
          5    1    5    5  503    0  0.20422446810E+01 -0.30468847685E+02 -0.21053524297E+03  0.21279027227E+03  0.47000000000E+01 0. -1.
         -5    1    5    5    0  503 -0.33237570113E+02  0.85073586809E+02 -0.23123968937E+03  0.24866872578E+03  0.47000000000E+01 0. -1.
<mgrwt>
<rscale>  0 0.27545858E+03</rscale>
<asrwt>0</asrwt>
<pdfrwt beam="1">  1        2 0.11542705E+00 0.27545858E+03</pdfrwt>
<pdfrwt beam="2">  1       -2 0.38897194E-02 0.27545858E+03</pdfrwt>
<totfact> 0.10994027E+04</totfact>
</mgrwt>
</event>
<event>
 9    1  0.2031653E-002  0.2752181E+03  0.7818608E-02  0.1098330E+00
          2   -1    0    0  501    0  0.00000000000E+00  0.00000000000E+00  0.29005557498E+03  0.29005557498E+03  0.00000000000E+00 0.  1.
         -2   -1    0    0    0  501 -0.00000000000E+00 -0.00000000000E+00 -0.65284905118E+02  0.65284905118E+02  0.00000000000E+00 0.  1.
         36    2    1    2    0    0  0.00000000000E+00  0.71054273576E-14  0.22477066987E+03  0.35534048010E+03  0.27521810036E+03 0.  0.
         25    2    3    3    0    0 -0.55302578871E+02  0.16348347244E+02  0.66531874484E+02  0.14491875704E+03  0.11510565638E+03 0.  0.
         25    2    3    3    0    0  0.55302578871E+02 -0.16348347244E+02  0.15823879538E+03  0.21042172306E+03  0.12614333707E+03 0.  0.
          5    1    4    4  502    0  0.10924642746E+02 -0.19316931834E+02  0.65744412522E+02  0.69547893228E+02  0.47000000000E+01 0.  1.
         -5    1    4    4    0  502 -0.66227221618E+02  0.35665279078E+02  0.78746196140E+00  0.75370863808E+02  0.47000000000E+01 0.  1.
          5    1    5    5  503    0 -0.27471492711E+02 -0.36702327533E+02  0.90067898191E+02  0.10117341569E+03  0.47000000000E+01 0.  1.
         -5    1    5    5    0  503  0.82774071583E+02  0.20353980290E+02  0.68170897191E+02  0.10924830737E+03  0.47000000000E+01 0.  1.
<mgrwt>
<rscale>  0 0.27521810E+03</rscale>
<asrwt>0</asrwt>
<pdfrwt beam="1">  1        2 0.44623934E-01 0.27521810E+03</pdfrwt>
<pdfrwt beam="2">  1       -2 0.10043832E-01 0.27521810E+03</pdfrwt>
<totfact> 0.74181597E+03</totfact>
</mgrwt>
</event>
<event>
 9    1  0.2031653E-002  0.2742912E+03  0.7818608E-02  0.1098848E+00
         -1   -1    0    0    0  501 -0.00000000000E+00  0.00000000000E+00  0.37040902389E+02  0.37040902389E+02  0.00000000000E+00 0.  1.
          1   -1    0    0  501    0  0.00000000000E+00 -0.00000000000E+00 -0.50778787009E+03  0.50778787009E+03  0.00000000000E+00 0.  1.
         36    2    1    2    0    0  0.35527136788E-14  0.71054273576E-14 -0.47074696770E+03  0.54482877248E+03  0.27429123887E+03 0.  0.
         25    2    3    3    0    0  0.13273846477E+02 -0.12582606174E+01 -0.11616371427E+03  0.16882845448E+03  0.12178366191E+03 0.  0.
         25    2    3    3    0    0 -0.13273846477E+02  0.12582606174E+01 -0.35458325344E+03  0.37600031800E+03  0.12437514745E+03 0.  0.
          5    1    4    4  502    0 -0.26543849770E+01  0.54502076454E+02 -0.89271775736E+02  0.10473329003E+03  0.47000000000E+01 0.  1.
         -5    1    4    4    0  502  0.15928231454E+02 -0.55760337072E+02 -0.26891938532E+02  0.64095164448E+02  0.47000000000E+01 0.  1.
          5    1    5    5  503    0  0.43467397847E+02 -0.32316614845E+02 -0.21169021950E+03  0.21856032874E+03  0.47000000000E+01 0. -1.
         -5    1    5    5    0  503 -0.56741244323E+02  0.33574875463E+02 -0.14289303394E+03  0.15743998926E+03  0.47000000000E+01 0. -1.
<mgrwt>
<rscale>  0 0.27429124E+03</rscale>
<asrwt>0</asrwt>
<pdfrwt beam="1">  1        1 0.78121204E-01 0.27429124E+03</pdfrwt>
<pdfrwt beam="2">  1       -1 0.56986009E-02 0.27429124E+03</pdfrwt>
<totfact> 0.63587383E+03</totfact>
</mgrwt>
</event>
<event>
 9    1  0.2031653E-002  0.2773162E+03  0.7818608E-02  0.1097164E+00
         -2   -1    0    0    0  501 -0.00000000000E+00  0.00000000000E+00  0.63120379481E+01  0.63120379481E+01  0.00000000000E+00 0. -1.
          2   -1    0    0  501    0  0.00000000000E+00 -0.00000000000E+00 -0.30459368789E+04  0.30459368789E+04  0.00000000000E+00 0. -1.
         36    2    1    2    0    0  0.00000000000E+00  0.00000000000E+00 -0.30396248410E+04  0.30522489169E+04  0.27731620340E+03 0.  0.
         25    2    3    3    0    0 -0.54570040079E+02  0.17762975674E+02 -0.12830900052E+04  0.12904301704E+04  0.12488655156E+03 0.  0.
         25    2    3    3    0    0  0.54570040079E+02 -0.17762975674E+02 -0.17565348358E+04  0.17618187464E+04  0.12368206580E+03 0.  0.
          5    1    4    4  502    0 -0.74693300030E+02  0.54163892411E+02 -0.10006082173E+04  0.10048640260E+04  0.47000000000E+01 0. -1.
         -5    1    4    4    0  502  0.20123259951E+02 -0.36400916737E+02 -0.28248178792E+03  0.28556614442E+03  0.47000000000E+01 0. -1.
          5    1    5    5  503    0  0.63125669559E+02 -0.61286445404E+02 -0.13425107893E+04  0.13453988955E+04  0.47000000000E+01 0.  1.
         -5    1    5    5    0  503 -0.85556294797E+01  0.43523469730E+02 -0.41402404647E+03  0.41641985095E+03  0.47000000000E+01 0.  1.
<mgrwt>
<rscale>  0 0.27731620E+03</rscale>
<asrwt>0</asrwt>
<pdfrwt beam="1">  1        2 0.46860702E+00 0.27731620E+03</pdfrwt>
<pdfrwt beam="2">  1       -2 0.97107997E-03 0.27731620E+03</pdfrwt>
<totfact> 0.43520825E+03</totfact>
</mgrwt>
</event>
<event>
 9    1  0.2031653E-002  0.2878177E+03  0.7818608E-02  0.1091494E+00
          2   -1    0    0  501    0  0.00000000000E+00  0.00000000000E+00  0.19424875253E+03  0.19424875253E+03  0.00000000000E+00 0.  1.
         -2   -1    0    0    0  501 -0.00000000000E+00 -0.00000000000E+00 -0.10661463839E+03  0.10661463839E+03  0.00000000000E+00 0.  1.
         36    2    1    2    0    0  0.00000000000E+00  0.00000000000E+00  0.87634114139E+02  0.30086339092E+03  0.28781772363E+03 0.  0.
         25    2    3    3    0    0  0.41777119203E+02  0.59140352044E+02  0.67855060903E+02  0.15740848489E+03  0.12218925033E+03 0.  0.
         25    2    3    3    0    0 -0.41777119203E+02 -0.59140352044E+02  0.19779053236E+02  0.14345490603E+03  0.12225052224E+03 0.  0.
          5    1    4    4  502    0  0.41294375949E+02  0.53038819118E+02  0.10208560619E+03  0.12231885713E+03  0.47000000000E+01 0. -1.
         -5    1    4    4    0  502  0.48274325347E+00  0.61015329262E+01 -0.34230545291E+02  0.35089627756E+02  0.47000000000E+01 0. -1.
          5    1    5    5  503    0 -0.12045488139E+02 -0.40869673568E+02  0.70022269811E+02  0.82101353652E+02  0.47000000000E+01 0. -1.
         -5    1    5    5    0  503 -0.29731631064E+02 -0.18270678476E+02 -0.50243216575E+02  0.61353552379E+02  0.47000000000E+01 0. -1.
<mgrwt>
<rscale>  0 0.28781772E+03</rscale>
<asrwt>0</asrwt>
<pdfrwt beam="1">  1        2 0.29884423E-01 0.28781772E+03</pdfrwt>
<pdfrwt beam="2">  1       -2 0.16402252E-01 0.28781772E+03</pdfrwt>
<totfact> 0.51664355E+03</totfact>
</mgrwt>
</event>
<event>
 9    1  0.2031653E-002  0.2746321E+03  0.7818608E-02  0.1098657E+00
         -1   -1    0    0    0  501 -0.00000000000E+00  0.00000000000E+00  0.14218796918E+02  0.14218796918E+02  0.00000000000E+00 0. -1.
          1   -1    0    0  501    0  0.00000000000E+00 -0.00000000000E+00 -0.13261105123E+04  0.13261105123E+04  0.00000000000E+00 0. -1.
         36    2    1    2    0    0  0.00000000000E+00  0.00000000000E+00 -0.13118917154E+04  0.13403293092E+04  0.27463208891E+03 0.  0.
         25    2    3    3    0    0 -0.40747178293E+01  0.20428495312E+01 -0.95235502522E+03  0.96108043337E+03  0.12913066557E+03 0.  0.
         25    2    3    3    0    0  0.40747178293E+01 -0.20428495312E+01 -0.35953669016E+03  0.37924887584E+03  0.12059146611E+03 0.  0.
          5    1    4    4  502    0  0.29549153269E+02 -0.92905791440E+01 -0.57265199992E+02  0.65275266755E+02  0.47000000000E+01 0. -1.
         -5    1    4    4    0  502 -0.33623871098E+02  0.11333428675E+02 -0.89508982522E+03  0.89580516661E+03  0.47000000000E+01 0. -1.
          5    1    5    5  503    0  0.37452688114E+02  0.47064878630E+02 -0.15933951051E+03  0.17037891964E+03  0.47000000000E+01 0. -1.
         -5    1    5    5    0  503 -0.33377970285E+02 -0.49107728161E+02 -0.20019717965E+03  0.20886995620E+03  0.47000000000E+01 0. -1.
<mgrwt>
<rscale>  0 0.27463209E+03</rscale>
<asrwt>0</asrwt>
<pdfrwt beam="1">  1        1 0.20401700E+00 0.27463209E+03</pdfrwt>
<pdfrwt beam="2">  1       -1 0.21875072E-02 0.27463209E+03</pdfrwt>
<totfact> 0.56302859E+03</totfact>
</mgrwt>
</event>
<event>
 9    1  0.2031653E-002  0.2755150E+03  0.7818608E-02  0.1098164E+00
          2   -1    0    0  501    0  0.00000000000E+00  0.00000000000E+00  0.14574217292E+04  0.14574217292E+04  0.00000000000E+00 0. -1.
         -2   -1    0    0    0  501 -0.00000000000E+00 -0.00000000000E+00 -0.13021028073E+02  0.13021028073E+02  0.00000000000E+00 0. -1.
         36    2    1    2    0    0  0.00000000000E+00  0.00000000000E+00  0.14444007011E+04  0.14704427573E+04  0.27551500323E+03 0.  0.
         25    2    3    3    0    0  0.34093065330E+02  0.37404461307E+02  0.76668363070E+03  0.77851362651E+03  0.12537243014E+03 0.  0.
         25    2    3    3    0    0 -0.34093065330E+02 -0.37404461307E+02  0.67771707043E+03  0.69192913078E+03  0.13001562841E+03 0.  0.
          5    1    4    4  502    0  0.25323918924E+02 -0.30974926063E+02  0.93712030967E+02  0.10200383161E+03  0.47000000000E+01 0. -1.
         -5    1    4    4    0  502  0.87691464060E+01  0.68379387370E+02  0.67297159974E+03  0.67650979490E+03  0.47000000000E+01 0. -1.
          5    1    5    5  503    0 -0.78424049546E+02 -0.49770860466E+02  0.47179196077E+03  0.48087130747E+03  0.47000000000E+01 0.  1.
         -5    1    5    5    0  503  0.44330984216E+02  0.12366399159E+02  0.20592510966E+03  0.21105782331E+03  0.47000000000E+01 0.  1.
<mgrwt>
<rscale>  0 0.27551500E+03</rscale>
<asrwt>0</asrwt>
<pdfrwt beam="1">  1        2 0.22421860E+00 0.27551500E+03</pdfrwt>
<pdfrwt beam="2">  1       -2 0.20032362E-02 0.27551500E+03</pdfrwt>
<totfact> 0.11092376E+04</totfact>
</mgrwt>
</event>
<event>
 9    1  0.2031653E-002  0.2734271E+03  0.7818608E-02  0.1099334E+00
          1   -1    0    0  501    0  0.00000000000E+00  0.00000000000E+00  0.12802516209E+03  0.12802516209E+03  0.00000000000E+00 0.  1.
         -1   -1    0    0    0  501 -0.00000000000E+00 -0.00000000000E+00 -0.14599160876E+03  0.14599160876E+03  0.00000000000E+00 0.  1.
         36    2    1    2    0    0  0.71054273576E-14  0.00000000000E+00 -0.17966446668E+02  0.27401677084E+03  0.27342713380E+03 0.  0.
         25    2    3    3    0    0  0.54589440907E+02  0.31322491322E+02 -0.25728883792E+02  0.14340348456E+03  0.12625956756E+03 0.  0.
         25    2    3    3    0    0 -0.54589440907E+02 -0.31322491322E+02  0.77624371242E+01  0.13061328629E+03  0.11418611826E+03 0.  0.
          5    1    4    4  502    0  0.36269339634E+02  0.88221038304E+01 -0.76208907215E+02  0.84989305518E+02  0.47000000000E+01 0. -1.
         -5    1    4    4    0  502  0.18320101273E+02  0.22500387492E+02  0.50480023423E+02  0.58414179038E+02  0.47000000000E+01 0. -1.
          5    1    5    5  503    0 -0.67147202692E+01  0.43223239134E+01  0.54110533815E+02  0.54898176856E+02  0.47000000000E+01 0. -1.
         -5    1    5    5    0  503 -0.47874720638E+02 -0.35644815236E+02 -0.46348096691E+02  0.75715109432E+02  0.47000000000E+01 0. -1.
<mgrwt>
<rscale>  0 0.27342713E+03</rscale>
<asrwt>0</asrwt>
<pdfrwt beam="1">  1        1 0.19696179E-01 0.27342713E+03</pdfrwt>
<pdfrwt beam="2">  1       -1 0.22460248E-01 0.27342713E+03</pdfrwt>
<totfact> 0.43094071E+03</totfact>
</mgrwt>
</event>
<event>
 9    1  0.2031653E-002  0.2744854E+03  0.7818608E-02  0.1098740E+00
         -2   -1    0    0    0  501 -0.00000000000E+00  0.00000000000E+00  0.13312291990E+02  0.13312291990E+02  0.00000000000E+00 0.  1.
          2   -1    0    0  501    0  0.00000000000E+00 -0.00000000000E+00 -0.14148994341E+04  0.14148994341E+04  0.00000000000E+00 0.  1.
         36    2    1    2    0    0 -0.71054273576E-14 -0.35527136788E-14 -0.14015871421E+04  0.14282117261E+04  0.27448536867E+03 0.  0.
         25    2    3    3    0    0  0.60998677327E+02  0.74690242231E+01 -0.76684435588E+03  0.77844720006E+03  0.11896702141E+03 0.  0.
         25    2    3    3    0    0 -0.60998677327E+02 -0.74690242231E+01 -0.63474278621E+03  0.64976452600E+03  0.12457491583E+03 0.  0.
          5    1    4    4  502    0  0.31632743876E+02 -0.55586816633E+02 -0.37859976620E+03  0.38399270518E+03  0.47000000000E+01 0.  1.
         -5    1    4    4    0  502  0.29365933451E+02  0.63055840857E+02 -0.38824458968E+03  0.39445449488E+03  0.47000000000E+01 0.  1.
          5    1    5    5  503    0 -0.67806672560E+02 -0.30316721109E+02 -0.61191536241E+03  0.61642465004E+03  0.47000000000E+01 0. -1.
         -5    1    5    5    0  503  0.68079952331E+01  0.22847696886E+02 -0.22827423794E+02  0.33339875962E+02  0.47000000000E+01 0. -1.
<mgrwt>
<rscale>  0 0.27448537E+03</rscale>
<asrwt>0</asrwt>
<pdfrwt beam="1">  1        2 0.21767675E+00 0.27448537E+03</pdfrwt>
<pdfrwt beam="2">  1       -2 0.20480458E-02 0.27448537E+03</pdfrwt>
<totfact> 0.11319004E+04</totfact>
</mgrwt>
</event>
<event>
 9    1  0.2031653E-002  0.2750275E+03  0.7818608E-02  0.1098436E+00
         -2   -1    0    0    0  501 -0.00000000000E+00  0.00000000000E+00  0.10315679525E+02  0.10315679525E+02  0.00000000000E+00 0.  1.
          2   -1    0    0  501    0  0.00000000000E+00 -0.00000000000E+00 -0.18331342563E+04  0.18331342563E+04  0.00000000000E+00 0.  1.
         36    2    1    2    0    0  0.71054273576E-14  0.35527136788E-14 -0.18228185768E+04  0.18434499358E+04  0.27502745692E+03 0.  0.
         25    2    3    3    0    0 -0.19879902510E+01 -0.31101270449E+02 -0.52424080357E+03  0.53849160967E+03  0.11905272960E+03 0.  0.
         25    2    3    3    0    0  0.19879902510E+01  0.31101270449E+02 -0.12985777732E+04  0.13049583262E+04  0.12506301938E+03 0.  0.
          5    1    4    4  502    0  0.50025276027E+02 -0.17926221324E+02 -0.12897035860E+03  0.13956833828E+03  0.47000000000E+01 0. -1.
         -5    1    4    4    0  502 -0.52013266278E+02 -0.13175049125E+02 -0.39527044497E+03  0.39892327139E+03  0.47000000000E+01 0. -1.
          5    1    5    5  503    0 -0.44324397319E+02  0.18909571337E+02 -0.21811010442E+03  0.22341963149E+03  0.47000000000E+01 0. -1.
         -5    1    5    5    0  503  0.46312387570E+02  0.12191699111E+02 -0.10804676688E+04  0.10815386947E+04  0.47000000000E+01 0. -1.
<mgrwt>
<rscale>  0 0.27502746E+03</rscale>
<asrwt>0</asrwt>
<pdfrwt beam="1">  1        2 0.28202097E+00 0.27502746E+03</pdfrwt>
<pdfrwt beam="2">  1       -2 0.15870258E-02 0.27502746E+03</pdfrwt>
<totfact> 0.98758822E+03</totfact>
</mgrwt>
</event>
<event>
 9    1  0.2031653E-002  0.2749014E+03  0.7818608E-02  0.1098507E+00
         -1   -1    0    0    0  501 -0.00000000000E+00  0.00000000000E+00  0.27536387290E+03  0.27536387290E+03  0.00000000000E+00 0.  1.
          1   -1    0    0  501    0  0.00000000000E+00 -0.00000000000E+00 -0.68609945898E+02  0.68609945898E+02  0.00000000000E+00 0.  1.
         36    2    1    2    0    0  0.35527136788E-14  0.00000000000E+00  0.20675392700E+03  0.34397381880E+03  0.27490143995E+03 0.  0.
         25    2    3    3    0    0  0.18471134211E+02  0.18227863090E+01  0.16333525430E+03  0.20769041199E+03  0.12693461540E+03 0.  0.
         25    2    3    3    0    0 -0.18471134211E+02 -0.18227863090E+01  0.43418672703E+02  0.13628340681E+03  0.12784162266E+03 0.  0.
          5    1    4    4  502    0  0.29828467255E+02  0.43775747466E+02  0.18349051521E+02  0.56256832622E+02  0.47000000000E+01 0. -1.
         -5    1    4    4    0  502 -0.11357333044E+02 -0.41952961157E+02  0.14498620278E+03  0.15143357936E+03  0.47000000000E+01 0. -1.
          5    1    5    5  503    0 -0.41418973146E+02  0.47136710015E+02 -0.55688935812E+01  0.63170430925E+02  0.47000000000E+01 0. -1.
         -5    1    5    5    0  503  0.22947838935E+02 -0.48959496324E+02  0.48987566285E+02  0.73112975884E+02  0.47000000000E+01 0. -1.
<mgrwt>
<rscale>  0 0.27490144E+03</rscale>
<asrwt>0</asrwt>
<pdfrwt beam="1">  1        1 0.10555376E-01 0.27490144E+03</pdfrwt>
<pdfrwt beam="2">  1       -1 0.42363672E-01 0.27490144E+03</pdfrwt>
<totfact> 0.33060313E+03</totfact>
</mgrwt>
</event>
<event>
 9    1  0.2031653E-002  0.2733507E+03  0.7818608E-02  0.1099377E+00
         -3   -1    0    0    0  501 -0.00000000000E+00  0.00000000000E+00  0.94703856688E+02  0.94703856688E+02  0.00000000000E+00 0. -1.
          3   -1    0    0  501    0  0.00000000000E+00 -0.00000000000E+00 -0.19724811475E+03  0.19724811475E+03  0.00000000000E+00 0. -1.
         36    2    1    2    0    0  0.00000000000E+00  0.17763568394E-14 -0.10254425806E+03  0.29195197143E+03  0.27335074312E+03 0.  0.
         25    2    3    3    0    0  0.54916839144E+02 -0.62185920703E+00 -0.53742462386E+02  0.14725179948E+03  0.12561287457E+03 0.  0.
         25    2    3    3    0    0 -0.54916839144E+02  0.62185920703E+00 -0.48801795672E+02  0.14470017195E+03  0.12466065366E+03 0.  0.
          5    1    4    4  502    0  0.42253499523E+02 -0.26972779439E+02  0.29875888203E+02  0.58545262392E+02  0.47000000000E+01 0. -1.
         -5    1    4    4    0  502  0.12663339621E+02  0.26350920232E+02 -0.83618350589E+02  0.88706537091E+02  0.47000000000E+01 0. -1.
          5    1    5    5  503    0 -0.82488751495E+02 -0.15724356578E+02  0.23663544380E+01  0.84138808800E+02  0.47000000000E+01 0.  1.
         -5    1    5    5    0  503  0.27571912351E+02  0.16346215785E+02 -0.51168150110E+02  0.60561363152E+02  0.47000000000E+01 0.  1.
<mgrwt>
<rscale>  0 0.27335074E+03</rscale>
<asrwt>0</asrwt>
<pdfrwt beam="1">  1        3 0.30345864E-01 0.27335074E+03</pdfrwt>
<pdfrwt beam="2">  1       -3 0.14569824E-01 0.27335074E+03</pdfrwt>
<totfact> 0.10425067E+03</totfact>
</mgrwt>
</event>
<event>
 9    1  0.2031653E-002  0.2750366E+03  0.7818608E-02  0.1098431E+00
          2   -1    0    0  501    0  0.00000000000E+00  0.00000000000E+00  0.56277617878E+02  0.56277617878E+02  0.00000000000E+00 0.  1.
         -2   -1    0    0    0  501 -0.00000000000E+00 -0.00000000000E+00 -0.33603547561E+03  0.33603547561E+03  0.00000000000E+00 0.  1.
         36    2    1    2    0    0  0.35527136788E-14  0.00000000000E+00 -0.27975785773E+03  0.39231309349E+03  0.27503655095E+03 0.  0.
         25    2    3    3    0    0  0.13048562090E+02 -0.18594642847E+02 -0.61046225241E+02  0.13955968136E+03  0.12342705267E+03 0.  0.
         25    2    3    3    0    0 -0.13048562090E+02  0.18594642847E+02 -0.21871163249E+03  0.25275341213E+03  0.12463339616E+03 0.  0.
          5    1    4    4  502    0  0.34920567824E+02 -0.30857545425E+02  0.22675293839E+02  0.52037420358E+02  0.47000000000E+01 0.  1.
         -5    1    4    4    0  502 -0.21872005734E+02  0.12262902577E+02 -0.83721519080E+02  0.87522261006E+02  0.47000000000E+01 0.  1.
          5    1    5    5  503    0 -0.36442848091E+02  0.55286216317E+02 -0.64905707744E+02  0.92841196618E+02  0.47000000000E+01 0.  1.
         -5    1    5    5    0  503  0.23394286001E+02 -0.36691573470E+02 -0.15380592475E+03  0.15991221551E+03  0.47000000000E+01 0.  1.
<mgrwt>
<rscale>  0 0.27503655E+03</rscale>
<asrwt>0</asrwt>
<pdfrwt beam="1">  1        2 0.86580953E-02 0.27503655E+03</pdfrwt>
<pdfrwt beam="2">  1       -2 0.51697764E-01 0.27503655E+03</pdfrwt>
<totfact> 0.27508949E+03</totfact>
</mgrwt>
</event>
<event>
 9    1  0.2031653E-002  0.2755084E+03  0.7818608E-02  0.1098168E+00
          2   -1    0    0  501    0  0.00000000000E+00  0.00000000000E+00  0.80156443159E+03  0.80156443159E+03  0.00000000000E+00 0.  1.
         -2   -1    0    0    0  501 -0.00000000000E+00 -0.00000000000E+00 -0.23673973285E+02  0.23673973285E+02  0.00000000000E+00 0.  1.
         36    2    1    2    0    0 -0.14210854715E-13  0.14210854715E-13  0.77789045830E+03  0.82523840487E+03  0.27550836604E+03 0.  0.
         25    2    3    3    0    0 -0.42952285468E+02  0.42505321229E+02  0.40160481450E+03  0.42478010026E+03  0.12449941921E+03 0.  0.
         25    2    3    3    0    0  0.42952285468E+02 -0.42505321229E+02  0.37628564380E+03  0.40045830462E+03  0.12298116460E+03 0.  0.
          5    1    4    4  502    0 -0.61229856397E+01  0.50317029961E+02  0.37500345891E+03  0.37844283406E+03  0.47000000000E+01 0. -1.
         -5    1    4    4    0  502 -0.36829299828E+02 -0.78117087319E+01  0.26601355593E+02  0.46337266196E+02  0.47000000000E+01 0. -1.
          5    1    5    5  503    0 -0.20429048891E+02 -0.28940330130E+02  0.25992945671E+02  0.44188369185E+02  0.47000000000E+01 0. -1.
         -5    1    5    5    0  503  0.63381334359E+02 -0.13564991099E+02  0.35029269813E+03  0.35626993543E+03  0.47000000000E+01 0. -1.
<mgrwt>
<rscale>  0 0.27550837E+03</rscale>
<asrwt>0</asrwt>
<pdfrwt beam="1">  1        2 0.12331758E+00 0.27550837E+03</pdfrwt>
<pdfrwt beam="2">  1       -2 0.36421503E-02 0.27550837E+03</pdfrwt>
<totfact> 0.11165860E+04</totfact>
</mgrwt>
</event>
<event>
 9    1  0.2031653E-002  0.2750515E+03  0.7818608E-02  0.1098423E+00
         -2   -1    0    0    0  501 -0.00000000000E+00  0.00000000000E+00  0.17273557710E+03  0.17273557710E+03  0.00000000000E+00 0.  1.
          2   -1    0    0  501    0  0.00000000000E+00 -0.00000000000E+00 -0.10949299420E+03  0.10949299420E+03  0.00000000000E+00 0.  1.
         36    2    1    2    0    0  0.00000000000E+00 -0.14210854715E-13  0.63242582903E+02  0.28222857129E+03  0.27505152638E+03 0.  0.
         25    2    3    3    0    0  0.33004305547E+02 -0.44069521102E+02  0.11751712490E+02  0.13571699757E+03  0.12348924572E+03 0.  0.
         25    2    3    3    0    0 -0.33004305547E+02  0.44069521102E+02  0.51490870413E+02  0.14651157373E+03  0.12563011035E+03 0.  0.
          5    1    4    4  502    0  0.15951263921E+02 -0.87089269852E+02  0.90674420201E+01  0.89125149362E+02  0.47000000000E+01 0. -1.
         -5    1    4    4    0  502  0.17053041626E+02  0.43019748750E+02  0.26842704699E+01  0.46591848205E+02  0.47000000000E+01 0. -1.
          5    1    5    5  503    0  0.42986900241E+02  0.43003535219E+02  0.21240743493E+02  0.64578919299E+02  0.47000000000E+01 0. -1.
         -5    1    5    5    0  503 -0.75991205788E+02  0.10659858831E+01  0.30250126920E+02  0.81932654429E+02  0.47000000000E+01 0. -1.
<mgrwt>
<rscale>  0 0.27505153E+03</rscale>
<asrwt>0</asrwt>
<pdfrwt beam="1">  1        2 0.16845076E-01 0.27505153E+03</pdfrwt>
<pdfrwt beam="2">  1       -2 0.26574704E-01 0.27505153E+03</pdfrwt>
<totfact> 0.42999022E+03</totfact>
</mgrwt>
</event>
<event>
 9    1  0.2031653E-002  0.2753889E+03  0.7818608E-02  0.1098234E+00
          2   -1    0    0  501    0  0.00000000000E+00  0.00000000000E+00  0.21565578204E+04  0.21565578204E+04  0.00000000000E+00 0. -1.
         -2   -1    0    0    0  501 -0.00000000000E+00 -0.00000000000E+00 -0.87916761468E+01  0.87916761468E+01  0.00000000000E+00 0. -1.
         36    2    1    2    0    0  0.00000000000E+00 -0.71054273576E-14  0.21477661442E+04  0.21653494965E+04  0.27538887377E+03 0.  0.
         25    2    3    3    0    0 -0.37635830788E+02 -0.33991560792E+02  0.11127828124E+04  0.11212738819E+04  0.12805330436E+03 0.  0.
         25    2    3    3    0    0  0.37635830788E+02  0.33991560792E+02  0.10349833318E+04  0.10440756146E+04  0.12779479591E+03 0.  0.
          5    1    4    4  502    0  0.28676361020E+02  0.97565863374E+01  0.84010311010E+02  0.89427887229E+02  0.47000000000E+01 0.  1.
         -5    1    4    4    0  502 -0.66312191807E+02 -0.43748147129E+02  0.10287725014E+04  0.10318459947E+04  0.47000000000E+01 0.  1.
          5    1    5    5  503    0 -0.26512616840E+02 -0.30632968022E+02  0.47177079505E+03  0.47353043265E+03  0.47000000000E+01 0. -1.
         -5    1    5    5    0  503  0.64148447628E+02  0.64624528813E+02  0.56321253676E+03  0.57054518192E+03  0.47000000000E+01 0. -1.
<mgrwt>
<rscale>  0 0.27538887E+03</rscale>
<asrwt>0</asrwt>
<pdfrwt beam="1">  1        2 0.33177771E+00 0.27538887E+03</pdfrwt>
<pdfrwt beam="2">  1       -2 0.13525673E-02 0.27538887E+03</pdfrwt>
<totfact> 0.84293250E+03</totfact>
</mgrwt>
</event>
<event>
 9    1  0.2031653E-002  0.2763167E+03  0.7818608E-02  0.1097718E+00
          2   -1    0    0  501    0  0.00000000000E+00  0.00000000000E+00  0.66745269962E+03  0.66745269962E+03  0.00000000000E+00 0. -1.
         -2   -1    0    0    0  501 -0.00000000000E+00 -0.00000000000E+00 -0.28597867553E+02  0.28597867553E+02  0.00000000000E+00 0. -1.
         36    2    1    2    0    0  0.00000000000E+00 -0.35527136788E-14  0.63885483206E+03  0.69605056717E+03  0.27631665821E+03 0.  0.
         25    2    3    3    0    0  0.11324324092E+02 -0.27947284075E+02  0.42891843548E+03  0.44785570073E+03  0.12527734584E+03 0.  0.
         25    2    3    3    0    0 -0.11324324092E+02  0.27947284075E+02  0.20993639659E+03  0.24819486644E+03  0.12891124898E+03 0.  0.
          5    1    4    4  502    0 -0.41543486712E+01 -0.54623145438E+02  0.40454964848E+03  0.40826885102E+03  0.47000000000E+01 0.  1.
         -5    1    4    4    0  502  0.15478672763E+02  0.26675861362E+02  0.24368786997E+02  0.39586849706E+02  0.47000000000E+01 0.  1.
          5    1    5    5  503    0  0.20773113387E+02  0.32086876428E+02  0.29323762272E+01  0.38623551222E+02  0.47000000000E+01 0.  1.
         -5    1    5    5    0  503 -0.32097437478E+02 -0.41395923530E+01  0.20700402036E+03  0.20957131522E+03  0.47000000000E+01 0.  1.
<mgrwt>
<rscale>  0 0.27631666E+03</rscale>
<asrwt>0</asrwt>
<pdfrwt beam="1">  1        2 0.10268502E+00 0.27631666E+03</pdfrwt>
<pdfrwt beam="2">  1       -2 0.43996724E-02 0.27631666E+03</pdfrwt>
<totfact> 0.10531665E+04</totfact>
</mgrwt>
</event>
<event>
 9    1  0.2031653E-002  0.2753907E+03  0.7818608E-02  0.1098233E+00
         -2   -1    0    0    0  501 -0.00000000000E+00  0.00000000000E+00  0.45901857437E+02  0.45901857437E+02  0.00000000000E+00 0. -1.
          2   -1    0    0  501    0  0.00000000000E+00 -0.00000000000E+00 -0.41305536595E+03  0.41305536595E+03  0.00000000000E+00 0. -1.
         36    2    1    2    0    0 -0.71054273576E-14  0.35527136788E-14 -0.36715350851E+03  0.45895722339E+03  0.27539069353E+03 0.  0.
         25    2    3    3    0    0  0.23936087884E+02 -0.75319579922E+01 -0.16982847374E+03  0.21350050131E+03  0.12692945628E+03 0.  0.
         25    2    3    3    0    0 -0.23936087884E+02  0.75319579922E+01 -0.19732503477E+03  0.24545672207E+03  0.14381295620E+03 0.  0.
          5    1    4    4  502    0 -0.48077773336E+02 -0.21498214333E+02 -0.94270190026E+02  0.10808609640E+03  0.47000000000E+01 0. -1.
         -5    1    4    4    0  502  0.72013861220E+02  0.13966256341E+02 -0.75558283719E+02  0.10541440491E+03  0.47000000000E+01 0. -1.
          5    1    5    5  503    0  0.24438767249E+01 -0.66771273707E+02 -0.92445385799E+02  0.11416047863E+03  0.47000000000E+01 0.  1.
         -5    1    5    5    0  503 -0.26379964609E+02  0.74303231699E+02 -0.10487964897E+03  0.13129624344E+03  0.47000000000E+01 0.  1.
<mgrwt>
<rscale>  0 0.27539069E+03</rscale>
<asrwt>0</asrwt>
<pdfrwt beam="1">  1        2 0.63546976E-01 0.27539069E+03</pdfrwt>
<pdfrwt beam="2">  1       -2 0.70618245E-02 0.27539069E+03</pdfrwt>
<totfact> 0.88000548E+03</totfact>
</mgrwt>
</event>
<event>
 9    1  0.2031653E-002  0.2756208E+03  0.7818608E-02  0.1098105E+00
         -1   -1    0    0    0  501 -0.00000000000E+00  0.00000000000E+00  0.14133456016E+02  0.14133456016E+02  0.00000000000E+00 0. -1.
          1   -1    0    0  501    0  0.00000000000E+00 -0.00000000000E+00 -0.13437414569E+04  0.13437414569E+04  0.00000000000E+00 0. -1.
         36    2    1    2    0    0  0.35527136788E-14  0.00000000000E+00 -0.13296080009E+04  0.13578749129E+04  0.27562083215E+03 0.  0.
         25    2    3    3    0    0  0.31075917268E+02  0.12131771924E+02 -0.41954157220E+03  0.43858572738E+03  0.12340752383E+03 0.  0.
         25    2    3    3    0    0 -0.31075917268E+02 -0.12131771924E+02 -0.91006642867E+03  0.91928918552E+03  0.12553409694E+03 0.  0.
          5    1    4    4  502    0  0.66049205107E+02  0.51708643634E+01 -0.37731994766E+03  0.38312095771E+03  0.47000000000E+01 0. -1.
         -5    1    4    4    0  502 -0.34973287839E+02  0.69609075602E+01 -0.42221624538E+02  0.55464769674E+02  0.47000000000E+01 0. -1.
          5    1    5    5  503    0 -0.43891402347E+01  0.15274031969E+02 -0.83260270667E+03  0.83276762530E+03  0.47000000000E+01 0.  1.
         -5    1    5    5    0  503 -0.26686777033E+02 -0.27405803892E+02 -0.77463722002E+02  0.86521560214E+02  0.47000000000E+01 0.  1.
<mgrwt>
<rscale>  0 0.27562083E+03</rscale>
<asrwt>0</asrwt>
<pdfrwt beam="1">  1        1 0.20672951E+00 0.27562083E+03</pdfrwt>
<pdfrwt beam="2">  1       -1 0.21743772E-02 0.27562083E+03</pdfrwt>
<totfact> 0.55259281E+03</totfact>
</mgrwt>
</event>
<event>
 9    1  0.2031653E-002  0.2750588E+03  0.7818608E-02  0.1098419E+00
          3   -1    0    0  501    0  0.00000000000E+00  0.00000000000E+00  0.27818014637E+03  0.27818014637E+03  0.00000000000E+00 0. -1.
         -3   -1    0    0    0  501 -0.00000000000E+00 -0.00000000000E+00 -0.67993104258E+02  0.67993104258E+02  0.00000000000E+00 0. -1.
         36    2    1    2    0    0  0.00000000000E+00 -0.71054273576E-14  0.21018704211E+03  0.34617325062E+03  0.27505876968E+03 0.  0.
         25    2    3    3    0    0 -0.12914207145E+02  0.44196170162E+02  0.14918424010E+03  0.20058716068E+03  0.12593328921E+03 0.  0.
         25    2    3    3    0    0  0.12914207145E+02 -0.44196170162E+02  0.61002802012E+02  0.14558608995E+03  0.12391081280E+03 0.  0.
          5    1    4    4  502    0  0.13558434438E+02  0.53217087712E+02  0.69512927863E+01  0.55554478131E+02  0.47000000000E+01 0. -1.
         -5    1    4    4    0  502 -0.26472641583E+02 -0.90209175497E+01  0.14223294731E+03  0.14503268255E+03  0.47000000000E+01 0. -1.
          5    1    5    5  503    0 -0.19160926606E+02 -0.80804193622E+02  0.41309823560E+02  0.92871149115E+02  0.47000000000E+01 0. -1.
         -5    1    5    5    0  503  0.32075133751E+02  0.36608023459E+02  0.19692978452E+02  0.52714940833E+02  0.47000000000E+01 0. -1.
<mgrwt>
<rscale>  0 0.27505877E+03</rscale>
<asrwt>0</asrwt>
<pdfrwt beam="1">  1        3 0.42796945E-01 0.27505877E+03</pdfrwt>
<pdfrwt beam="2">  1       -3 0.10460478E-01 0.27505877E+03</pdfrwt>
<totfact> 0.94740692E+02</totfact>
</mgrwt>
</event>
<event>
 9    1  0.2031653E-002  0.2758802E+03  0.7818608E-02  0.1097961E+00
          1   -1    0    0  501    0  0.00000000000E+00  0.00000000000E+00  0.13924857486E+04  0.13924857486E+04  0.00000000000E+00 0.  1.
         -1   -1    0    0    0  501 -0.00000000000E+00 -0.00000000000E+00 -0.13664387243E+02  0.13664387243E+02  0.00000000000E+00 0.  1.
         36    2    1    2    0    0  0.71054273576E-14  0.00000000000E+00  0.13788213614E+04  0.14061501359E+04  0.27588015151E+03 0.  0.
         25    2    3    3    0    0 -0.44342177028E+02  0.40365085224E+01  0.54166134906E+03  0.55613314893E+03  0.11791751444E+03 0.  0.
         25    2    3    3    0    0  0.44342177028E+02 -0.40365085224E+01  0.83716001232E+03  0.85001698693E+03  0.14039041912E+03 0.  0.
          5    1    4    4  502    0 -0.49077443887E+02 -0.14856366195E+02  0.87474790795E+02  0.10150485771E+03  0.47000000000E+01 0. -1.
         -5    1    4    4    0  502  0.47352668597E+01  0.18892874718E+02  0.45418655827E+03  0.45462829122E+03  0.47000000000E+01 0. -1.
          5    1    5    5  503    0 -0.40438069613E+02  0.20643730624E+02  0.13955331909E+03  0.14682853932E+03  0.47000000000E+01 0.  1.
         -5    1    5    5    0  503  0.84780246641E+02 -0.24680239146E+02  0.69760669323E+03  0.70318844762E+03  0.47000000000E+01 0.  1.
<mgrwt>
<rscale>  0 0.27588015E+03</rscale>
<asrwt>0</asrwt>
<pdfrwt beam="1">  1        1 0.21422846E+00 0.27588015E+03</pdfrwt>
<pdfrwt beam="2">  1       -1 0.21022145E-02 0.27588015E+03</pdfrwt>
<totfact> 0.53821903E+03</totfact>
</mgrwt>
</event>
<event>
 9    1  0.2031653E-002  0.2776788E+03  0.7818608E-02  0.1096964E+00
         -2   -1    0    0    0  501 -0.00000000000E+00  0.00000000000E+00  0.32597441319E+03  0.32597441319E+03  0.00000000000E+00 0.  1.
          2   -1    0    0  501    0  0.00000000000E+00 -0.00000000000E+00 -0.59134634742E+02  0.59134634742E+02  0.00000000000E+00 0.  1.
         36    2    1    2    0    0  0.00000000000E+00  0.35527136788E-14  0.26683977844E+03  0.38510904793E+03  0.27767879184E+03 0.  0.
         25    2    3    3    0    0 -0.39290510814E+02  0.25213295197E+02  0.18127221246E+03  0.22509633200E+03  0.12501715553E+03 0.  0.
         25    2    3    3    0    0  0.39290510814E+02 -0.25213295197E+02  0.85567565986E+02  0.16001271593E+03  0.12689683375E+03 0.  0.
          5    1    4    4  502    0 -0.13267095323E+01  0.15002501749E+02  0.18468397437E+03  0.18535667133E+03  0.47000000000E+01 0.  1.
         -5    1    4    4    0  502 -0.37963801282E+02  0.10210793448E+02 -0.34117619175E+01  0.39739660668E+02  0.47000000000E+01 0.  1.
          5    1    5    5  503    0  0.23263760485E+02  0.47964475328E+02  0.11859094394E+02  0.54813516265E+02  0.47000000000E+01 0.  1.
         -5    1    5    5    0  503  0.16026750329E+02 -0.73177770525E+02  0.73708471592E+02  0.10519919966E+03  0.47000000000E+01 0.  1.
<mgrwt>
<rscale>  0 0.27767879E+03</rscale>
<asrwt>0</asrwt>
<pdfrwt beam="1">  1        2 0.90976363E-02 0.27767879E+03</pdfrwt>
<pdfrwt beam="2">  1       -2 0.50149909E-01 0.27767879E+03</pdfrwt>
<totfact> 0.27477270E+03</totfact>
</mgrwt>
</event>
<event>
 9    1  0.2031653E-002  0.2748080E+03  0.7818608E-02  0.1098559E+00
          2   -1    0    0  501    0  0.00000000000E+00  0.00000000000E+00  0.46886609527E+03  0.46886609527E+03  0.00000000000E+00 0. -1.
         -2   -1    0    0    0  501 -0.00000000000E+00 -0.00000000000E+00 -0.40267057213E+02  0.40267057213E+02  0.00000000000E+00 0. -1.
         36    2    1    2    0    0  0.00000000000E+00 -0.17763568394E-14  0.42859903806E+03  0.50913315248E+03  0.27480799030E+03 0.  0.
         25    2    3    3    0    0  0.12435056682E+02  0.37504703910E+01  0.11230318751E+03  0.16865457356E+03  0.12515455483E+03 0.  0.
         25    2    3    3    0    0 -0.12435056682E+02 -0.37504703910E+01  0.31629585055E+03  0.34047857892E+03  0.12535509949E+03 0.  0.
          5    1    4    4  502    0  0.40786518518E+02  0.16345325023E+02 -0.74895791262E+01  0.44820682039E+02  0.47000000000E+01 0. -1.
         -5    1    4    4    0  502 -0.28351461836E+02 -0.12594854632E+02  0.11979276663E+03  0.12383389152E+03  0.47000000000E+01 0. -1.
          5    1    5    5  503    0  0.49338031129E+02  0.26911611359E+02  0.12708738211E+03  0.13903873141E+03  0.47000000000E+01 0.  1.
         -5    1    5    5    0  503 -0.61773087811E+02 -0.30662081750E+02  0.18920846844E+03  0.20143984751E+03  0.47000000000E+01 0.  1.
<mgrwt>
<rscale>  0 0.27480799E+03</rscale>
<asrwt>0</asrwt>
<pdfrwt beam="1">  1        2 0.72133242E-01 0.27480799E+03</pdfrwt>
<pdfrwt beam="2">  1       -2 0.61949322E-02 0.27480799E+03</pdfrwt>
<totfact> 0.93708856E+03</totfact>
</mgrwt>
</event>
<event>
 9    1  0.2031653E-002  0.2743043E+03  0.7818608E-02  0.1098841E+00
         -3   -1    0    0    0  501 -0.00000000000E+00  0.00000000000E+00  0.12987536475E+03  0.12987536475E+03  0.00000000000E+00 0. -1.
          3   -1    0    0  501    0  0.00000000000E+00 -0.00000000000E+00 -0.14483664664E+03  0.14483664664E+03  0.00000000000E+00 0. -1.
         36    2    1    2    0    0  0.35527136788E-14  0.00000000000E+00 -0.14961281892E+02  0.27471201139E+03  0.27430430045E+03 0.  0.
         25    2    3    3    0    0  0.17888042687E+02 -0.12891762945E+02  0.45184566773E+02  0.13562144292E+03  0.12595773530E+03 0.  0.
         25    2    3    3    0    0 -0.17888042687E+02  0.12891762945E+02 -0.60145848664E+02  0.13909056847E+03  0.12346045319E+03 0.  0.
          5    1    4    4  502    0  0.14426619091E+02  0.49188136342E+02  0.51665816866E+02  0.72931795039E+02  0.47000000000E+01 0. -1.
         -5    1    4    4    0  502  0.34614235961E+01 -0.62079899287E+02 -0.64812500936E+01  0.62689647882E+02  0.47000000000E+01 0. -1.
          5    1    5    5  503    0 -0.21439307346E+02 -0.49978128214E+02 -0.42339152082E+01  0.54749184809E+02  0.47000000000E+01 0. -1.
         -5    1    5    5    0  503  0.35512646591E+01  0.62869891159E+02 -0.55911933456E+02  0.84341383661E+02  0.47000000000E+01 0. -1.
<mgrwt>
<rscale>  0 0.27430430E+03</rscale>
<asrwt>0</asrwt>
<pdfrwt beam="1">  1        3 0.22282561E-01 0.27430430E+03</pdfrwt>
<pdfrwt beam="2">  1       -3 0.19980825E-01 0.27430430E+03</pdfrwt>
<totfact> 0.10575441E+03</totfact>
</mgrwt>
</event>
<event>
 9    1  0.2031653E-002  0.2749552E+03  0.7818608E-02  0.1098477E+00
          2   -1    0    0  501    0  0.00000000000E+00  0.00000000000E+00  0.14686552654E+03  0.14686552654E+03  0.00000000000E+00 0.  1.
         -2   -1    0    0    0  501 -0.00000000000E+00 -0.00000000000E+00 -0.12868980003E+03  0.12868980003E+03  0.00000000000E+00 0.  1.
         36    2    1    2    0    0  0.00000000000E+00  0.00000000000E+00  0.18175726511E+02  0.27555532656E+03  0.27495523447E+03 0.  0.
         25    2    3    3    0    0 -0.59923875948E+02 -0.28023884567E+02  0.36031464280E+02  0.13497430354E+03  0.11199815705E+03 0.  0.
         25    2    3    3    0    0  0.59923875948E+02  0.28023884567E+02 -0.17855737769E+02  0.14058102302E+03  0.12275173175E+03 0.  0.
          5    1    4    4  502    0  0.39479927494E+01 -0.57269759911E+02  0.43301076771E+01  0.57760296740E+02  0.47000000000E+01 0.  1.
         -5    1    4    4    0  502 -0.63871868698E+02  0.29245875343E+02  0.31701356603E+02  0.77214006799E+02  0.47000000000E+01 0.  1.
          5    1    5    5  503    0  0.65024350930E+02 -0.35256594349E+02  0.12141844307E+01  0.74126634233E+02  0.47000000000E+01 0. -1.
         -5    1    5    5    0  503 -0.51004749817E+01  0.63280478916E+02 -0.19069922200E+02  0.66454388791E+02  0.47000000000E+01 0. -1.
<mgrwt>
<rscale>  0 0.27495523E+03</rscale>
<asrwt>0</asrwt>
<pdfrwt beam="1">  1        2 0.22594696E-01 0.27495523E+03</pdfrwt>
<pdfrwt beam="2">  1       -2 0.19798431E-01 0.27495523E+03</pdfrwt>
<totfact> 0.51262232E+03</totfact>
</mgrwt>
</event>
<event>
 9    1  0.2031653E-002  0.2788753E+03  0.7818608E-02  0.1096305E+00
          1   -1    0    0  501    0  0.00000000000E+00  0.00000000000E+00  0.54148542451E+03  0.54148542451E+03  0.00000000000E+00 0. -1.
         -1   -1    0    0    0  501 -0.00000000000E+00 -0.00000000000E+00 -0.35906530619E+02  0.35906530619E+02  0.00000000000E+00 0. -1.
         36    2    1    2    0    0  0.00000000000E+00 -0.14210854715E-13  0.50557889389E+03  0.57739195513E+03  0.27887533397E+03 0.  0.
         25    2    3    3    0    0  0.36954357226E+01  0.62971030058E+02  0.28055381646E+03  0.31367711061E+03  0.12531511848E+03 0.  0.
         25    2    3    3    0    0 -0.36954357226E+01 -0.62971030058E+02  0.22502507743E+03  0.26371484452E+03  0.12218930752E+03 0.  0.
          5    1    4    4  502    0  0.57031902334E+02  0.57651067596E+02  0.12495228813E+03  0.14903505557E+03  0.47000000000E+01 0. -1.
         -5    1    4    4    0  502 -0.53336466611E+02  0.53199624620E+01  0.15560152833E+03  0.16464205505E+03  0.47000000000E+01 0. -1.
          5    1    5    5  503    0  0.39054760436E+02 -0.20730518423E+02  0.18751611474E+03  0.19271588412E+03  0.47000000000E+01 0.  1.
         -5    1    5    5    0  503 -0.42750196159E+02 -0.42240511636E+02  0.37508962698E+02  0.70998960398E+02  0.47000000000E+01 0.  1.
<mgrwt>
<rscale>  0 0.27887533E+03</rscale>
<asrwt>0</asrwt>
<pdfrwt beam="1">  1        1 0.83305444E-01 0.27887533E+03</pdfrwt>
<pdfrwt beam="2">  1       -1 0.55240820E-02 0.27887533E+03</pdfrwt>
<totfact> 0.61157287E+03</totfact>
</mgrwt>
</event>
<event>
 9    1  0.2031653E-002  0.2753611E+03  0.7818608E-02  0.1098250E+00
         -2   -1    0    0    0  501 -0.00000000000E+00  0.00000000000E+00  0.65616428013E+03  0.65616428013E+03  0.00000000000E+00 0.  1.
          2   -1    0    0  501    0  0.00000000000E+00 -0.00000000000E+00 -0.28889014499E+02  0.28889014499E+02  0.00000000000E+00 0.  1.
         36    2    1    2    0    0  0.17763568394E-14  0.14210854715E-13  0.62727526563E+03  0.68505329463E+03  0.27536114034E+03 0.  0.
         25    2    3    3    0    0 -0.31573372573E+01 -0.64955493023E+02  0.34483291215E+03  0.37251777859E+03  0.12502229086E+03 0.  0.
         25    2    3    3    0    0  0.31573372573E+01  0.64955493023E+02  0.28244235348E+03  0.31253551603E+03  0.11694263933E+03 0.  0.
          5    1    4    4  502    0 -0.48185410675E+02  0.25682207960E+01  0.20605036634E+03  0.21167728510E+03  0.47000000000E+01 0. -1.
         -5    1    4    4    0  502  0.45028073417E+02 -0.67523713819E+02  0.13878254582E+03  0.16084049349E+03  0.47000000000E+01 0. -1.
          5    1    5    5  503    0  0.12694167090E+02  0.13137481745E+02  0.24951484430E+03  0.25022686273E+03  0.47000000000E+01 0. -1.
         -5    1    5    5    0  503 -0.95368298329E+01  0.51818011278E+02  0.32927509173E+02  0.62308653303E+02  0.47000000000E+01 0. -1.
<mgrwt>
<rscale>  0 0.27536114E+03</rscale>
<asrwt>0</asrwt>
<pdfrwt beam="1">  1        2 0.44444642E-02 0.27536114E+03</pdfrwt>
<pdfrwt beam="2">  1       -2 0.10094834E+00 0.27536114E+03</pdfrwt>
<totfact> 0.15421685E+03</totfact>
</mgrwt>
</event>
<event>
 9    1  0.2031653E-002  0.2728870E+03  0.7818608E-02  0.1099639E+00
          2   -1    0    0  501    0  0.00000000000E+00  0.00000000000E+00  0.45299934570E+03  0.45299934570E+03  0.00000000000E+00 0.  1.
         -2   -1    0    0    0  501 -0.00000000000E+00 -0.00000000000E+00 -0.41096806746E+02  0.41096806746E+02  0.00000000000E+00 0.  1.
         36    2    1    2    0    0  0.10658141036E-13 -0.71054273576E-14  0.41190253895E+03  0.49409615245E+03  0.27288698442E+03 0.  0.
         25    2    3    3    0    0 -0.18159922296E+02  0.33187441850E+02  0.15992005368E+03  0.20918343174E+03  0.12942988631E+03 0.  0.
         25    2    3    3    0    0  0.18159922296E+02 -0.33187441850E+02  0.25198248527E+03  0.28491272071E+03  0.12747115934E+03 0.  0.
          5    1    4    4  502    0 -0.66552968472E+02  0.68701250780E+01  0.13009103309E+03  0.14636346238E+03  0.47000000000E+01 0.  1.
         -5    1    4    4    0  502  0.48393046176E+02  0.26317316772E+02  0.29829020595E+02  0.62819969356E+02  0.47000000000E+01 0.  1.
          5    1    5    5  503    0  0.61596196258E+01 -0.82033216725E+02  0.15236589135E+03  0.17321906479E+03  0.47000000000E+01 0. -1.
         -5    1    5    5    0  503  0.12000302670E+02  0.48845774876E+02  0.99616593928E+02  0.11169365592E+03  0.47000000000E+01 0. -1.
<mgrwt>
<rscale>  0 0.27288698E+03</rscale>
<asrwt>0</asrwt>
<pdfrwt beam="1">  1        2 0.69692204E-01 0.27288698E+03</pdfrwt>
<pdfrwt beam="2">  1       -2 0.63225860E-02 0.27288698E+03</pdfrwt>
<totfact> 0.94308871E+03</totfact>
</mgrwt>
</event>
<event>
 9    1  0.2031653E-002  0.2754122E+03  0.7818608E-02  0.1098221E+00
         -1   -1    0    0    0  501 -0.00000000000E+00  0.00000000000E+00  0.87135203764E+02  0.87135203764E+02  0.00000000000E+00 0. -1.
          1   -1    0    0  501    0  0.00000000000E+00 -0.00000000000E+00 -0.21762694735E+03  0.21762694735E+03  0.00000000000E+00 0. -1.
         36    2    1    2    0    0  0.00000000000E+00 -0.35527136788E-14 -0.13049174358E+03  0.30476215111E+03  0.27541218856E+03 0.  0.
         25    2    3    3    0    0 -0.36556177015E+02  0.21931408570E+02 -0.10797262238E+03  0.17273133029E+03  0.12790889148E+03 0.  0.
         25    2    3    3    0    0  0.36556177015E+02 -0.21931408570E+02 -0.22519121203E+02  0.13203082082E+03  0.12291332746E+03 0.  0.
          5    1    4    4  502    0  0.45671903326E+02  0.12709261721E+02 -0.61235542700E+02  0.77584339764E+02  0.47000000000E+01 0.  1.
         -5    1    4    4    0  502 -0.82228080341E+02  0.92221468494E+01 -0.46737079680E+02  0.95146990525E+02  0.47000000000E+01 0.  1.
          5    1    5    5  503    0  0.68215993652E+02 -0.20554118417E+02 -0.52130356515E+02  0.88405642604E+02  0.47000000000E+01 0.  1.
         -5    1    5    5    0  503 -0.31659816637E+02 -0.13772901527E+01  0.29611235313E+02  0.43625178216E+02  0.47000000000E+01 0.  1.
<mgrwt>
<rscale>  0 0.27541219E+03</rscale>
<asrwt>0</asrwt>
<pdfrwt beam="1">  1        1 0.33481068E-01 0.27541219E+03</pdfrwt>
<pdfrwt beam="2">  1       -1 0.13405416E-01 0.27541219E+03</pdfrwt>
<totfact> 0.50298025E+03</totfact>
</mgrwt>
</event>
<event>
 9    1  0.2031653E-002  0.2744836E+03  0.7818608E-02  0.1098741E+00
         -2   -1    0    0    0  501 -0.00000000000E+00  0.00000000000E+00  0.33990115781E+02  0.33990115781E+02  0.00000000000E+00 0.  1.
          2   -1    0    0  501    0  0.00000000000E+00 -0.00000000000E+00 -0.55414091953E+03  0.55414091953E+03  0.00000000000E+00 0.  1.
         36    2    1    2    0    0  0.17763568394E-14  0.00000000000E+00 -0.52015080375E+03  0.58813103531E+03  0.27448361710E+03 0.  0.
         25    2    3    3    0    0  0.12177899835E+02 -0.42724018544E+01 -0.29461292280E+03  0.32257761609E+03  0.13074016007E+03 0.  0.
         25    2    3    3    0    0 -0.12177899835E+02  0.42724018544E+01 -0.22553788095E+03  0.26555341922E+03  0.13958770740E+03 0.  0.
          5    1    4    4  502    0 -0.18052347996E+01  0.48232565976E+02 -0.24195507554E+03  0.24676707210E+03  0.47000000000E+01 0.  1.
         -5    1    4    4    0  502  0.13983134635E+02 -0.52504967830E+02 -0.52657847259E+02  0.75810543983E+02  0.47000000000E+01 0.  1.
          5    1    5    5  503    0  0.15953634527E+02  0.33097263906E+02 -0.22175445368E+03  0.22482676677E+03  0.47000000000E+01 0. -1.
         -5    1    5    5    0  503 -0.28131534362E+02 -0.28824862052E+02 -0.37834272690E+01  0.40726652450E+02  0.47000000000E+01 0. -1.
<mgrwt>
<rscale>  0 0.27448362E+03</rscale>
<asrwt>0</asrwt>
<pdfrwt beam="1">  1        2 0.85252454E-01 0.27448362E+03</pdfrwt>
<pdfrwt beam="2">  1       -2 0.52292483E-02 0.27448362E+03</pdfrwt>
<totfact> 0.10065888E+04</totfact>
</mgrwt>
</event>
<event>
 9    1  0.2031653E-002  0.2746821E+03  0.7818608E-02  0.1098629E+00
          1   -1    0    0  501    0  0.00000000000E+00  0.00000000000E+00  0.31298291405E+03  0.31298291405E+03  0.00000000000E+00 0.  1.
         -1   -1    0    0    0  501 -0.00000000000E+00 -0.00000000000E+00 -0.60267091963E+02  0.60267091963E+02  0.00000000000E+00 0.  1.
         36    2    1    2    0    0  0.00000000000E+00  0.00000000000E+00  0.25271582209E+03  0.37325000601E+03  0.27468214404E+03 0.  0.
         25    2    3    3    0    0 -0.28437306967E+02  0.42827959894E+02  0.10969724004E+03  0.17461255766E+03  0.12575033298E+03 0.  0.
         25    2    3    3    0    0  0.28437306967E+02 -0.42827959894E+02  0.14301858205E+03  0.19863744836E+03  0.12790467740E+03 0.  0.
          5    1    4    4  502    0 -0.60519311280E+02 -0.13119072168E+02  0.85271138288E+02  0.10548911848E+03  0.47000000000E+01 0.  1.
         -5    1    4    4    0  502  0.32082004313E+02  0.55947032062E+02  0.24426101747E+02  0.69123439179E+02  0.47000000000E+01 0.  1.
          5    1    5    5  503    0 -0.22351922911E+02 -0.12481245325E+02 -0.14859891050E+02  0.29971591628E+02  0.47000000000E+01 0. -1.
         -5    1    5    5    0  503  0.50789229879E+02 -0.30346714569E+02  0.15787847310E+03  0.16866585673E+03  0.47000000000E+01 0. -1.
<mgrwt>
<rscale>  0 0.27468214E+03</rscale>
<asrwt>0</asrwt>
<pdfrwt beam="1">  1        1 0.48151217E-01 0.27468214E+03</pdfrwt>
<pdfrwt beam="2">  1       -1 0.92718605E-02 0.27468214E+03</pdfrwt>
<totfact> 0.56538989E+03</totfact>
</mgrwt>
</event>
<event>
 9    1  0.2031653E-002  0.2756173E+03  0.7818608E-02  0.1098107E+00
         -2   -1    0    0    0  501 -0.00000000000E+00  0.00000000000E+00  0.11038108514E+02  0.11038108514E+02  0.00000000000E+00 0. -1.
          2   -1    0    0  501    0  0.00000000000E+00 -0.00000000000E+00 -0.17205148354E+04  0.17205148354E+04  0.00000000000E+00 0. -1.
         36    2    1    2    0    0  0.71054273576E-14 -0.35527136788E-14 -0.17094767269E+04  0.17315529439E+04  0.27561733946E+03 0.  0.
         25    2    3    3    0    0  0.26733631519E+02 -0.39940755984E+01 -0.51183227691E+03  0.52735151938E+03  0.12408346226E+03 0.  0.
         25    2    3    3    0    0 -0.26733631519E+02  0.39940755984E+01 -0.11976444499E+04  0.12042014245E+04  0.12254877644E+03 0.  0.
          5    1    4    4  502    0 -0.12162595376E+02 -0.50233503092E+02 -0.36239257210E+03  0.36608987950E+03  0.47000000000E+01 0.  1.
         -5    1    4    4    0  502  0.38896226896E+02  0.46239427493E+02 -0.14943970482E+03  0.16126163988E+03  0.47000000000E+01 0.  1.
          5    1    5    5  503    0  0.36517166338E+02 -0.23074983821E+02 -0.22771301997E+03  0.23182162923E+03  0.47000000000E+01 0.  1.
         -5    1    5    5    0  503 -0.63250797857E+02  0.27069059419E+02 -0.96993142998E+03  0.97237979528E+03  0.47000000000E+01 0.  1.
<mgrwt>
<rscale>  0 0.27561734E+03</rscale>
<asrwt>0</asrwt>
<pdfrwt beam="1">  1        2 0.26469469E+00 0.27561734E+03</pdfrwt>
<pdfrwt beam="2">  1       -2 0.16981699E-02 0.27561734E+03</pdfrwt>
<totfact> 0.10249049E+04</totfact>
</mgrwt>
</event>
<event>
 9    1  0.2031653E-002  0.2746341E+03  0.7818608E-02  0.1098656E+00
         -2   -1    0    0    0  501 -0.00000000000E+00  0.00000000000E+00  0.25041777849E+02  0.25041777849E+02  0.00000000000E+00 0.  1.
          2   -1    0    0  501    0  0.00000000000E+00 -0.00000000000E+00 -0.75298042056E+03  0.75298042056E+03  0.00000000000E+00 0.  1.
         36    2    1    2    0    0  0.35527136788E-14  0.00000000000E+00 -0.72793864271E+03  0.77802219841E+03  0.27463407230E+03 0.  0.
         25    2    3    3    0    0 -0.56577062526E+01  0.36752101101E+02 -0.50146822568E+03  0.51721674307E+03  0.12107869907E+03 0.  0.
         25    2    3    3    0    0  0.56577062526E+01 -0.36752101101E+02 -0.22647041704E+03  0.26080545535E+03  0.12388667874E+03 0.  0.
          5    1    4    4  502    0  0.25998823309E+02  0.33539363075E+02 -0.55171780154E+02  0.69762762376E+02  0.47000000000E+01 0.  1.
         -5    1    4    4    0  502 -0.31656529561E+02  0.32127380258E+01 -0.44629644552E+03  0.44745398069E+03  0.47000000000E+01 0.  1.
          5    1    5    5  503    0 -0.35415496481E+02 -0.48354392318E+02 -0.20332273327E+03  0.21202506576E+03  0.47000000000E+01 0.  1.
         -5    1    5    5    0  503  0.41073202734E+02  0.11602291217E+02 -0.23147683771E+02  0.48780389587E+02  0.47000000000E+01 0.  1.
<mgrwt>
<rscale>  0 0.27463407E+03</rscale>
<asrwt>0</asrwt>
<pdfrwt beam="1">  1        2 0.11584313E+00 0.27463407E+03</pdfrwt>
<pdfrwt beam="2">  1       -2 0.38525817E-02 0.27463407E+03</pdfrwt>
<totfact> 0.11102641E+04</totfact>
</mgrwt>
</event>
<event>
 9    1  0.2031653E-002  0.2743963E+03  0.7818608E-02  0.1098790E+00
         -1   -1    0    0    0  501 -0.00000000000E+00  0.00000000000E+00  0.13738005044E+03  0.13738005044E+03  0.00000000000E+00 0.  1.
          1   -1    0    0  501    0  0.00000000000E+00 -0.00000000000E+00 -0.13701650351E+03  0.13701650351E+03  0.00000000000E+00 0.  1.
         36    2    1    2    0    0  0.00000000000E+00  0.17763568394E-14  0.36354693197E+00  0.27439655395E+03  0.27439631311E+03 0.  0.
         25    2    3    3    0    0  0.34670269920E+02  0.10913050521E+02  0.70623350963E+02  0.14877530856E+03  0.12579869811E+03 0.  0.
         25    2    3    3    0    0 -0.34670269920E+02 -0.10913050521E+02 -0.70259804031E+02  0.12562124539E+03  0.97586551032E+02 0.  0.
          5    1    4    4  502    0  0.77450145944E+02  0.19714286120E+02  0.21539185733E+02  0.82904793022E+02  0.47000000000E+01 0. -1.
         -5    1    4    4    0  502 -0.42779876024E+02 -0.88012355987E+01  0.49084165230E+02  0.65870515536E+02  0.47000000000E+01 0. -1.
          5    1    5    5  503    0 -0.18583155915E+02 -0.14611705459E+02  0.21482966747E+02  0.32286893323E+02  0.47000000000E+01 0.  1.
         -5    1    5    5    0  503 -0.16087114005E+02  0.36986549382E+01 -0.91742770778E+02  0.93334352065E+02  0.47000000000E+01 0.  1.
<mgrwt>
<rscale>  0 0.27439631E+03</rscale>
<asrwt>0</asrwt>
<pdfrwt beam="1">  1        1 0.21079462E-01 0.27439631E+03</pdfrwt>
<pdfrwt beam="2">  1       -1 0.21135392E-01 0.27439631E+03</pdfrwt>
<totfact> 0.43632278E+03</totfact>
</mgrwt>
</event>
<event>
 9    1  0.2031653E-002  0.2751481E+03  0.7818608E-02  0.1098369E+00
         -1   -1    0    0    0  501 -0.00000000000E+00  0.00000000000E+00  0.81184032737E+02  0.81184032737E+02  0.00000000000E+00 0.  1.
          1   -1    0    0  501    0  0.00000000000E+00 -0.00000000000E+00 -0.23313231668E+03  0.23313231668E+03  0.00000000000E+00 0.  1.
         36    2    1    2    0    0  0.00000000000E+00  0.00000000000E+00 -0.15194828395E+03  0.31431634942E+03  0.27514811742E+03 0.  0.
         25    2    3    3    0    0 -0.42781028768E+02  0.10201612564E+02 -0.44793499704E+02  0.13793401692E+03  0.12282119559E+03 0.  0.
         25    2    3    3    0    0  0.42781028768E+02 -0.10201612564E+02 -0.10715478424E+03  0.17638233250E+03  0.13301988615E+03 0.  0.
          5    1    4    4  502    0 -0.72656182869E+02  0.42175098520E+02 -0.41449701008E+02  0.93796735326E+02  0.47000000000E+01 0.  1.
         -5    1    4    4    0  502  0.29875154101E+02 -0.31973485956E+02 -0.33437986960E+01  0.44137281594E+02  0.47000000000E+01 0.  1.
          5    1    5    5  503    0  0.61905733854E+02  0.47547714566E+02 -0.69942616593E+02  0.10491503544E+03  0.47000000000E+01 0.  1.
         -5    1    5    5    0  503 -0.19124705086E+02 -0.57749327130E+02 -0.37212167649E+02  0.71467297064E+02  0.47000000000E+01 0.  1.
<mgrwt>
<rscale>  0 0.27514812E+03</rscale>
<asrwt>0</asrwt>
<pdfrwt beam="1">  1        1 0.35866510E-01 0.27514812E+03</pdfrwt>
<pdfrwt beam="2">  1       -1 0.12489851E-01 0.27514812E+03</pdfrwt>
<totfact> 0.51546983E+03</totfact>
</mgrwt>
</event>
<event>
 9    1  0.2031653E-002  0.2773906E+03  0.7818608E-02  0.1097123E+00
          2   -1    0    0  501    0  0.00000000000E+00  0.00000000000E+00  0.92663690884E+02  0.92663690884E+02  0.00000000000E+00 0.  1.
         -2   -1    0    0    0  501 -0.00000000000E+00 -0.00000000000E+00 -0.20759352285E+03  0.20759352285E+03  0.00000000000E+00 0.  1.
         36    2    1    2    0    0  0.00000000000E+00  0.35527136788E-14 -0.11492983197E+03  0.30025721373E+03  0.27739056964E+03 0.  0.
         25    2    3    3    0    0  0.88759354305E+01  0.31439655304E+02 -0.18179779042E+02  0.13525688993E+03  0.12998725996E+03 0.  0.
         25    2    3    3    0    0 -0.88759354305E+01 -0.31439655304E+02 -0.96750052923E+02  0.16500032381E+03  0.12960439792E+03 0.  0.
          5    1    4    4  502    0 -0.22275980585E+02  0.42587779962E+02 -0.62981337088E+02  0.79364205626E+02  0.47000000000E+01 0. -1.
         -5    1    4    4    0  502  0.31151916016E+02 -0.11148124658E+02  0.44801558046E+02  0.55892684300E+02  0.47000000000E+01 0. -1.
          5    1    5    5  503    0 -0.61987889424E+02  0.11479981275E+02 -0.60696043575E+02  0.87637823518E+02  0.47000000000E+01 0. -1.
         -5    1    5    5    0  503  0.53111953994E+02 -0.42919636580E+02 -0.36054009349E+02  0.77362500291E+02  0.47000000000E+01 0. -1.
<mgrwt>
<rscale>  0 0.27739057E+03</rscale>
<asrwt>0</asrwt>
<pdfrwt beam="1">  1        2 0.14255953E-01 0.27739057E+03</pdfrwt>
<pdfrwt beam="2">  1       -2 0.31937465E-01 0.27739057E+03</pdfrwt>
<totfact> 0.37570511E+03</totfact>
</mgrwt>
</event>
<event>
 9    1  0.2031653E-002  0.2757579E+03  0.7818608E-02  0.1098029E+00
          2   -1    0    0  501    0  0.00000000000E+00  0.00000000000E+00  0.40403656038E+03  0.40403656038E+03  0.00000000000E+00 0. -1.
         -2   -1    0    0    0  501 -0.00000000000E+00 -0.00000000000E+00 -0.47051692756E+02  0.47051692756E+02  0.00000000000E+00 0. -1.
         36    2    1    2    0    0  0.71054273576E-14 -0.71054273576E-14  0.35698486762E+03  0.45108825314E+03  0.27575789455E+03 0.  0.
         25    2    3    3    0    0 -0.19312145775E+02  0.32559987082E+02  0.12467119663E+03  0.18179242258E+03  0.12677722944E+03 0.  0.
         25    2    3    3    0    0  0.19312145775E+02 -0.32559987082E+02  0.23231367099E+03  0.26929583056E+03  0.13083382931E+03 0.  0.
          5    1    4    4  502    0  0.17596321533E+02  0.69102604453E+02  0.10289758332E+03  0.12527890136E+03  0.47000000000E+01 0.  1.
         -5    1    4    4    0  502 -0.36908467308E+02 -0.36542617371E+02  0.21773613310E+02  0.56513521213E+02  0.47000000000E+01 0.  1.
          5    1    5    5  503    0  0.65187907180E+02 -0.22698456751E+02  0.20128821269E+03  0.21284670012E+03  0.47000000000E+01 0. -1.
         -5    1    5    5    0  503 -0.45875761405E+02 -0.98615303309E+01  0.31025458301E+02  0.56449130443E+02  0.47000000000E+01 0. -1.
<mgrwt>
<rscale>  0 0.27575789E+03</rscale>
<asrwt>0</asrwt>
<pdfrwt beam="1">  1        2 0.62159469E-01 0.27575789E+03</pdfrwt>
<pdfrwt beam="2">  1       -2 0.72387222E-02 0.27575789E+03</pdfrwt>
<totfact> 0.86753617E+03</totfact>
</mgrwt>
</event>
<event>
 9    1  0.2031653E-002  0.2756790E+03  0.7818608E-02  0.1098073E+00
         -1   -1    0    0    0  501 -0.00000000000E+00  0.00000000000E+00  0.24590694360E+03  0.24590694360E+03  0.00000000000E+00 0.  1.
          1   -1    0    0  501    0  0.00000000000E+00 -0.00000000000E+00 -0.77263894931E+02  0.77263894931E+02  0.00000000000E+00 0.  1.
         36    2    1    2    0    0  0.71054273576E-14  0.53290705182E-14  0.16864304867E+03  0.32317083853E+03  0.27567900358E+03 0.  0.
         25    2    3    3    0    0 -0.27182801137E+02 -0.14635788350E+02  0.36978175535E+02  0.13605363026E+03  0.12724029968E+03 0.  0.
         25    2    3    3    0    0  0.27182801137E+02  0.14635788350E+02  0.13166487314E+03  0.18711720827E+03  0.12932169128E+03 0.  0.
          5    1    4    4  502    0 -0.96775151251E+01 -0.66729610283E+01 -0.47566288626E+02  0.49222195415E+02  0.47000000000E+01 0. -1.
         -5    1    4    4    0  502 -0.17505286011E+02 -0.79628273218E+01  0.84544464161E+02  0.86831434847E+02  0.47000000000E+01 0. -1.
          5    1    5    5  503    0  0.56418416516E+02  0.44857177658E+02  0.12488260549E+03  0.14426697218E+03  0.47000000000E+01 0.  1.
         -5    1    5    5    0  503 -0.29235615379E+02 -0.30221389308E+02  0.67822676478E+01  0.42850236087E+02  0.47000000000E+01 0.  1.
<mgrwt>
<rscale>  0 0.27567900E+03</rscale>
<asrwt>0</asrwt>
<pdfrwt beam="1">  1        1 0.11886753E-01 0.27567900E+03</pdfrwt>
<pdfrwt beam="2">  1       -1 0.37831837E-01 0.27567900E+03</pdfrwt>
<totfact> 0.34489687E+03</totfact>
</mgrwt>
</event>
<event>
 9    1  0.2031653E-002  0.2750844E+03  0.7818608E-02  0.1098404E+00
         -1   -1    0    0    0  501 -0.00000000000E+00  0.00000000000E+00  0.10259207821E+02  0.10259207821E+02  0.00000000000E+00 0. -1.
          1   -1    0    0  501    0  0.00000000000E+00 -0.00000000000E+00 -0.18439886199E+04  0.18439886199E+04  0.00000000000E+00 0. -1.
         36    2    1    2    0    0 -0.35527136788E-14 -0.35527136788E-14 -0.18337294121E+04  0.18542478277E+04  0.27508444137E+03 0.  0.
         25    2    3    3    0    0  0.15936423165E+02  0.13941055844E+02 -0.52340502611E+03  0.53794891470E+03  0.12242504173E+03 0.  0.
         25    2    3    3    0    0 -0.15936423165E+02 -0.13941055844E+02 -0.13103243859E+04  0.13162989130E+04  0.12346865736E+03 0.  0.
          5    1    4    4  502    0  0.51095827021E+02  0.37689920190E+02 -0.43657498023E+03  0.44119283424E+03  0.47000000000E+01 0. -1.
         -5    1    4    4    0  502 -0.35159403856E+02 -0.23748864346E+02 -0.86830045885E+02  0.96756080459E+02  0.47000000000E+01 0. -1.
          5    1    5    5  503    0  0.27179234074E+02 -0.29968355113E+02 -0.11084084346E+04  0.11091565087E+04  0.47000000000E+01 0.  1.
         -5    1    5    5    0  503 -0.43115657239E+02  0.16027299270E+02 -0.20191595139E+03  0.20714240427E+03  0.47000000000E+01 0.  1.
<mgrwt>
<rscale>  0 0.27508444E+03</rscale>
<asrwt>0</asrwt>
<pdfrwt beam="1">  1        1 0.28369038E+00 0.27508444E+03</pdfrwt>
<pdfrwt beam="2">  1       -1 0.15783407E-02 0.27508444E+03</pdfrwt>
<totfact> 0.41285993E+03</totfact>
</mgrwt>
</event>
<event>
 9    1  0.2031653E-002  0.2748625E+03  0.7818608E-02  0.1098529E+00
         -1   -1    0    0    0  501 -0.00000000000E+00  0.00000000000E+00  0.10051168310E+02  0.10051168310E+02  0.00000000000E+00 0.  1.
          1   -1    0    0  501    0  0.00000000000E+00 -0.00000000000E+00 -0.18791192370E+04  0.18791192370E+04  0.00000000000E+00 0.  1.
         36    2    1    2    0    0  0.00000000000E+00  0.35527136788E-14 -0.18690680687E+04  0.18891704053E+04  0.27486246543E+03 0.  0.
         25    2    3    3    0    0 -0.28189041719E+01  0.28497523283E+02 -0.68593379972E+03  0.69917190178E+03  0.13234846273E+03 0.  0.
         25    2    3    3    0    0  0.28189041719E+01 -0.28497523283E+02 -0.11831342690E+04  0.11899985035E+04  0.12437718817E+03 0.  0.
          5    1    4    4  502    0  0.47828176380E+01  0.35924575827E+01 -0.66599999173E+03  0.66604343709E+03  0.47000000000E+01 0. -1.
         -5    1    4    4    0  502 -0.76017218099E+01  0.24905065701E+02 -0.19933807982E+02  0.33128464690E+02  0.47000000000E+01 0. -1.
          5    1    5    5  503    0  0.46175241173E+02 -0.50951668523E+02 -0.45242739944E+03  0.45764709896E+03  0.47000000000E+01 0.  1.
         -5    1    5    5    0  503 -0.43356337001E+02  0.22454145239E+02 -0.73070686955E+03  0.73235140459E+03  0.47000000000E+01 0.  1.
<mgrwt>
<rscale>  0 0.27486247E+03</rscale>
<asrwt>0</asrwt>
<pdfrwt beam="1">  1        1 0.28909511E+00 0.27486247E+03</pdfrwt>
<pdfrwt beam="2">  1       -1 0.15463344E-02 0.27486247E+03</pdfrwt>
<totfact> 0.40359967E+03</totfact>
</mgrwt>
</event>
<event>
 9    1  0.2031653E-002  0.2773177E+03  0.7818608E-02  0.1097163E+00
          2   -1    0    0  501    0  0.00000000000E+00  0.00000000000E+00  0.75160690909E+03  0.75160690909E+03  0.00000000000E+00 0.  1.
         -2   -1    0    0    0  501 -0.00000000000E+00 -0.00000000000E+00 -0.25580227411E+02  0.25580227411E+02  0.00000000000E+00 0.  1.
         36    2    1    2    0    0  0.00000000000E+00  0.00000000000E+00  0.72602668168E+03  0.77718713650E+03  0.27731769261E+03 0.  0.
         25    2    3    3    0    0 -0.13960092748E+02 -0.60194810525E+02  0.28589892185E+03  0.31575169075E+03  0.11892282074E+03 0.  0.
         25    2    3    3    0    0  0.13960092748E+02  0.60194810525E+02  0.44012775983E+03  0.46143544575E+03  0.12406420201E+03 0.  0.
          5    1    4    4  502    0 -0.41115482376E+02 -0.85844872188E+02  0.18597199352E+03  0.20896769451E+03  0.47000000000E+01 0. -1.
         -5    1    4    4    0  502  0.27155389628E+02  0.25650061663E+02  0.99926928328E+02  0.10678399625E+03  0.47000000000E+01 0. -1.
          5    1    5    5  503    0 -0.10453526638E+02  0.95026374879E+02  0.31178311370E+03  0.32614427502E+03  0.47000000000E+01 0.  1.
         -5    1    5    5    0  503  0.24413619386E+02 -0.34831564354E+02  0.12834464613E+03  0.13529117073E+03  0.47000000000E+01 0.  1.
<mgrwt>
<rscale>  0 0.27731769E+03</rscale>
<asrwt>0</asrwt>
<pdfrwt beam="1">  1        2 0.11563182E+00 0.27731769E+03</pdfrwt>
<pdfrwt beam="2">  1       -2 0.39354202E-02 0.27731769E+03</pdfrwt>
<totfact> 0.10781498E+04</totfact>
</mgrwt>
</event>
<event>
 9    1  0.2031653E-002  0.2749786E+03  0.7818608E-02  0.1098464E+00
         -1   -1    0    0    0  501 -0.00000000000E+00  0.00000000000E+00  0.10781417336E+04  0.10781417336E+04  0.00000000000E+00 0.  1.
          1   -1    0    0  501    0  0.00000000000E+00 -0.00000000000E+00 -0.17533230835E+02  0.17533230835E+02  0.00000000000E+00 0.  1.
         36    2    1    2    0    0 -0.35527136788E-14  0.00000000000E+00  0.10606085028E+04  0.10956749645E+04  0.27497860200E+03 0.  0.
         25    2    3    3    0    0 -0.23581508972E+02  0.41110857480E+02  0.69727573800E+03  0.70995484239E+03  0.12488488004E+03 0.  0.
         25    2    3    3    0    0  0.23581508972E+02 -0.41110857480E+02  0.36333276481E+03  0.38572012209E+03  0.12051192651E+03 0.  0.
          5    1    4    4  502    0 -0.68260801349E+02 -0.30713045158E+01  0.30047346878E+03  0.30818073489E+03  0.47000000000E+01 0.  1.
         -5    1    4    4    0  502  0.44679292377E+02  0.44182161996E+02  0.39680226922E+03  0.40177410751E+03  0.47000000000E+01 0.  1.
          5    1    5    5  503    0  0.17762635893E+02 -0.45325531465E+02  0.37099966761E+03  0.37420951137E+03  0.47000000000E+01 0.  1.
         -5    1    5    5    0  503  0.58188730785E+01  0.42146739847E+01 -0.76669027944E+01  0.11510610721E+02  0.47000000000E+01 0.  1.
<mgrwt>
<rscale>  0 0.27497860E+03</rscale>
<asrwt>0</asrwt>
<pdfrwt beam="1">  1        1 0.26974210E-02 0.27497860E+03</pdfrwt>
<pdfrwt beam="2">  1       -1 0.16586791E+00 0.27497860E+03</pdfrwt>
<totfact> 0.11412757E+03</totfact>
</mgrwt>
</event>
<event>
 9    1  0.2031653E-002  0.2747417E+03  0.7818608E-02  0.1098596E+00
          1   -1    0    0  501    0  0.00000000000E+00  0.00000000000E+00  0.15491638229E+03  0.15491638229E+03  0.00000000000E+00 0.  1.
         -1   -1    0    0    0  501 -0.00000000000E+00 -0.00000000000E+00 -0.12181252240E+03  0.12181252240E+03  0.00000000000E+00 0.  1.
         36    2    1    2    0    0  0.00000000000E+00  0.71054273576E-14  0.33103859891E+02  0.27672890468E+03  0.27474173536E+03 0.  0.
         25    2    3    3    0    0 -0.66009971704E+01 -0.44598723746E+02 -0.24091591713E+02  0.13281413607E+03  0.12258291327E+03 0.  0.
         25    2    3    3    0    0  0.66009971704E+01  0.44598723746E+02  0.57195451605E+02  0.14391476861E+03  0.12412703822E+03 0.  0.
          5    1    4    4  502    0  0.15540562609E+02  0.19551198368E+02  0.34626132648E+02  0.42951338814E+02  0.47000000000E+01 0.  1.
         -5    1    4    4    0  502 -0.22141559780E+02 -0.64149922114E+02 -0.58717724361E+02  0.89862797257E+02  0.47000000000E+01 0.  1.
          5    1    5    5  503    0 -0.90447327554E+01  0.82561841275E+02  0.14409035005E+02  0.84427336302E+02  0.47000000000E+01 0. -1.
         -5    1    5    5    0  503  0.15645729926E+02 -0.37963117528E+02  0.42786416599E+02  0.59487432310E+02  0.47000000000E+01 0. -1.
<mgrwt>
<rscale>  0 0.27474174E+03</rscale>
<asrwt>0</asrwt>
<pdfrwt beam="1">  1        1 0.23833290E-01 0.27474174E+03</pdfrwt>
<pdfrwt beam="2">  1       -1 0.18740388E-01 0.27474174E+03</pdfrwt>
<totfact> 0.45335934E+03</totfact>
</mgrwt>
</event>
<event>
 9    1  0.2031653E-002  0.2698514E+03  0.7818608E-02  0.1101365E+00
         -1   -1    0    0    0  501 -0.00000000000E+00  0.00000000000E+00  0.11945778115E+03  0.11945778115E+03  0.00000000000E+00 0.  1.
          1   -1    0    0  501    0  0.00000000000E+00 -0.00000000000E+00 -0.15239651147E+03  0.15239651147E+03  0.00000000000E+00 0.  1.
         36    2    1    2    0    0 -0.35527136788E-14  0.71054273576E-14 -0.32938730318E+02  0.27185429261E+03  0.26985143405E+03 0.  0.
         25    2    3    3    0    0 -0.18322418516E+02 -0.43760862440E+02 -0.42193616617E+02  0.13880677317E+03  0.12343538752E+03 0.  0.
         25    2    3    3    0    0  0.18322418516E+02  0.43760862440E+02  0.92548862997E+01  0.13304751945E+03  0.12395670780E+03 0.  0.
          5    1    4    4  502    0 -0.84777058905E+01 -0.51995014644E+02  0.33026244032E+02  0.62355239073E+02  0.47000000000E+01 0.  1.
         -5    1    4    4    0  502 -0.98447126250E+01  0.82341522042E+01 -0.75219860650E+02  0.76451534094E+02  0.47000000000E+01 0.  1.
          5    1    5    5  503    0  0.57328219004E+02  0.11408857436E+02  0.42354175594E+02  0.72337078407E+02  0.47000000000E+01 0. -1.
         -5    1    5    5    0  503 -0.39005800488E+02  0.32352005004E+02 -0.33099289295E+02  0.60710441040E+02  0.47000000000E+01 0. -1.
<mgrwt>
<rscale>  0 0.26985143E+03</rscale>
<asrwt>0</asrwt>
<pdfrwt beam="1">  1        1 0.23445617E-01 0.26985143E+03</pdfrwt>
<pdfrwt beam="2">  1       -1 0.18378120E-01 0.26985143E+03</pdfrwt>
<totfact> 0.47749042E+03</totfact>
</mgrwt>
</event>
<event>
 9    1  0.2031653E-002  0.2748525E+03  0.7818608E-02  0.1098534E+00
          1   -1    0    0  501    0  0.00000000000E+00  0.00000000000E+00  0.74053152652E+03  0.74053152652E+03  0.00000000000E+00 0.  1.
         -1   -1    0    0    0  501 -0.00000000000E+00 -0.00000000000E+00 -0.25503267303E+02  0.25503267303E+02  0.00000000000E+00 0.  1.
         36    2    1    2    0    0 -0.71054273576E-14  0.14210854715E-13  0.71502825922E+03  0.76603479382E+03  0.27485249474E+03 0.  0.
         25    2    3    3    0    0 -0.26143124768E+02  0.43411204525E+02  0.35043754903E+03  0.37642204772E+03  0.12774618033E+03 0.  0.
         25    2    3    3    0    0  0.26143124768E+02 -0.43411204525E+02  0.36459071018E+03  0.38961274610E+03  0.12768598325E+03 0.  0.
          5    1    4    4  502    0  0.38429773199E+02 -0.68895214568E+01  0.21127763085E+03  0.21490611967E+03  0.47000000000E+01 0. -1.
         -5    1    4    4    0  502 -0.64572897968E+02  0.50300725982E+02  0.13915991818E+03  0.16151592805E+03  0.47000000000E+01 0. -1.
          5    1    5    5  503    0  0.48725896861E+02  0.50529220949E+01  0.30687864367E+03  0.31079951253E+03  0.47000000000E+01 0.  1.
         -5    1    5    5    0  503 -0.22582772092E+02 -0.48464126620E+02  0.57712066511E+02  0.78813233568E+02  0.47000000000E+01 0.  1.
<mgrwt>
<rscale>  0 0.27485249E+03</rscale>
<asrwt>0</asrwt>
<pdfrwt beam="1">  1        1 0.11392791E+00 0.27485249E+03</pdfrwt>
<pdfrwt beam="2">  1       -1 0.39235802E-02 0.27485249E+03</pdfrwt>
<totfact> 0.65463061E+03</totfact>
</mgrwt>
</event>
<event>
 9    1  0.2031653E-002  0.2740984E+03  0.7818608E-02  0.1098957E+00
         -1   -1    0    0    0  501 -0.00000000000E+00  0.00000000000E+00  0.18934304534E+02  0.18934304534E+02  0.00000000000E+00 0.  1.
          1   -1    0    0  501    0  0.00000000000E+00 -0.00000000000E+00 -0.99198133351E+03  0.99198133351E+03  0.00000000000E+00 0.  1.
         36    2    1    2    0    0  0.00000000000E+00 -0.71054273576E-14 -0.97304702898E+03  0.10109156380E+04  0.27409835214E+03 0.  0.
         25    2    3    3    0    0  0.11398711931E+02  0.45405741332E+01 -0.70052163326E+03  0.71123425223E+03  0.12236443691E+03 0.  0.
         25    2    3    3    0    0 -0.11398711931E+02 -0.45405741332E+01 -0.27252539571E+03  0.29968138582E+03  0.12404956369E+03 0.  0.
          5    1    4    4  502    0 -0.19077230453E+02  0.29537368209E+02 -0.62419674321E+03  0.62520401557E+03  0.47000000000E+01 0. -1.
         -5    1    4    4    0  502  0.30475942384E+02 -0.24996794076E+02 -0.76324890051E+02  0.86030236659E+02  0.47000000000E+01 0. -1.
          5    1    5    5  503    0  0.32451092110E+02 -0.40069265568E+02 -0.20555842819E+03  0.21197871785E+03  0.47000000000E+01 0.  1.
         -5    1    5    5    0  503 -0.43849804041E+02  0.35528691435E+02 -0.66966967521E+02  0.87702667967E+02  0.47000000000E+01 0.  1.
<mgrwt>
<rscale>  0 0.27409835E+03</rscale>
<asrwt>0</asrwt>
<pdfrwt beam="1">  1        1 0.15261254E+00 0.27409835E+03</pdfrwt>
<pdfrwt beam="2">  1       -1 0.29129694E-02 0.27409835E+03</pdfrwt>
<totfact> 0.63835976E+03</totfact>
</mgrwt>
</event>
<event>
 9    1  0.2031653E-002  0.2755227E+03  0.7818608E-02  0.1098160E+00
          1   -1    0    0  501    0  0.00000000000E+00  0.00000000000E+00  0.14061751993E+04  0.14061751993E+04  0.00000000000E+00 0.  1.
         -1   -1    0    0    0  501 -0.00000000000E+00 -0.00000000000E+00 -0.13496323412E+02  0.13496323412E+02  0.00000000000E+00 0.  1.
         36    2    1    2    0    0  0.00000000000E+00  0.00000000000E+00  0.13926788759E+04  0.14196715228E+04  0.27552274146E+03 0.  0.
         25    2    3    3    0    0 -0.36515793464E+02  0.49099739321E+02  0.80303602350E+03  0.81495683693E+03  0.12467398867E+03 0.  0.
         25    2    3    3    0    0  0.36515793464E+02 -0.49099739321E+02  0.58964285243E+03  0.60471468582E+03  0.11940255548E+03 0.  0.
          5    1    4    4  502    0  0.19239073662E+02 -0.30638570496E+02  0.13444532453E+03  0.13930721175E+03  0.47000000000E+01 0.  1.
         -5    1    4    4    0  502 -0.55754867126E+02  0.79738309816E+02  0.66859069897E+03  0.67564962518E+03  0.47000000000E+01 0.  1.
          5    1    5    5  503    0  0.54326500946E+02  0.69928501979E+01  0.44653618391E+03  0.44990768186E+03  0.47000000000E+01 0. -1.
         -5    1    5    5    0  503 -0.17810707482E+02 -0.56092589518E+02  0.14310666852E+03  0.15480700396E+03  0.47000000000E+01 0. -1.
<mgrwt>
<rscale>  0 0.27552274E+03</rscale>
<asrwt>0</asrwt>
<pdfrwt beam="1">  1        1 0.21633453E+00 0.27552274E+03</pdfrwt>
<pdfrwt beam="2">  1       -1 0.20763586E-02 0.27552274E+03</pdfrwt>
<totfact> 0.53656542E+03</totfact>
</mgrwt>
</event>
<event>
 9    1  0.2031653E-002  0.2758058E+03  0.7818608E-02  0.1098002E+00
          1   -1    0    0  501    0  0.00000000000E+00  0.00000000000E+00  0.20513245692E+03  0.20513245692E+03  0.00000000000E+00 0.  1.
         -1   -1    0    0    0  501 -0.00000000000E+00 -0.00000000000E+00 -0.92706990023E+02  0.92706990023E+02  0.00000000000E+00 0.  1.
         36    2    1    2    0    0  0.53290705182E-14 -0.71054273576E-14  0.11242546690E+03  0.29783944694E+03  0.27580582037E+03 0.  0.
         25    2    3    3    0    0  0.21007807951E+01  0.42748355713E+02  0.54528455830E+02  0.15461008940E+03  0.13819946473E+03 0.  0.
         25    2    3    3    0    0 -0.21007807951E+01 -0.42748355713E+02  0.57897011069E+02  0.14322935755E+03  0.12381740499E+03 0.  0.
          5    1    4    4  502    0  0.66735309624E+01  0.84354016284E+02  0.69816187000E+02  0.10980221330E+03  0.47000000000E+01 0.  1.
         -5    1    4    4    0  502 -0.45727501673E+01 -0.41605660571E+02 -0.15287731170E+02  0.44807876093E+02  0.47000000000E+01 0.  1.
          5    1    5    5  503    0 -0.33122622644E+02 -0.74456933253E+02  0.18461347113E+02  0.83689033794E+02  0.47000000000E+01 0.  1.
         -5    1    5    5    0  503  0.31021841849E+02  0.31708577540E+02  0.39435663956E+02  0.59540323756E+02  0.47000000000E+01 0.  1.
<mgrwt>
<rscale>  0 0.27580582E+03</rscale>
<asrwt>0</asrwt>
<pdfrwt beam="1">  1        1 0.31558840E-01 0.27580582E+03</pdfrwt>
<pdfrwt beam="2">  1       -1 0.14262614E-01 0.27580582E+03</pdfrwt>
<totfact> 0.49139516E+03</totfact>
</mgrwt>
</event>
<event>
 9    1  0.2031653E-002  0.2748532E+03  0.7818608E-02  0.1098534E+00
          1   -1    0    0  501    0  0.00000000000E+00  0.00000000000E+00  0.50438623787E+02  0.50438623787E+02  0.00000000000E+00 0.  1.
         -1   -1    0    0    0  501 -0.00000000000E+00 -0.00000000000E+00 -0.37443667199E+03  0.37443667199E+03  0.00000000000E+00 0.  1.
         36    2    1    2    0    0  0.00000000000E+00 -0.71054273576E-14 -0.32399804820E+03  0.42487529578E+03  0.27485320031E+03 0.  0.
         25    2    3    3    0    0  0.48500510171E+02 -0.32960109541E+02 -0.13036828171E+03  0.18613180664E+03  0.11920776929E+03 0.  0.
         25    2    3    3    0    0 -0.48500510171E+02  0.32960109541E+02 -0.19362976649E+03  0.23874348914E+03  0.12675684923E+03 0.  0.
          5    1    4    4  502    0  0.15045299987E+02 -0.55096888774E+02 -0.87367498032E+01  0.57969379861E+02  0.47000000000E+01 0.  1.
         -5    1    4    4    0  502  0.33455210184E+02  0.22136779233E+02 -0.12163153191E+03  0.12816242678E+03  0.47000000000E+01 0.  1.
          5    1    5    5  503    0  0.37690065594E+02 -0.83372872143E+01 -0.88042371462E+02  0.96247600361E+02  0.47000000000E+01 0. -1.
         -5    1    5    5    0  503 -0.86190575765E+02  0.41297396756E+02 -0.10558739503E+03  0.14249588878E+03  0.47000000000E+01 0. -1.
<mgrwt>
<rscale>  0 0.27485320E+03</rscale>
<asrwt>0</asrwt>
<pdfrwt beam="1">  1        1 0.77597883E-02 0.27485320E+03</pdfrwt>
<pdfrwt beam="2">  1       -1 0.57605641E-01 0.27485320E+03</pdfrwt>
<totfact> 0.28408615E+03</totfact>
</mgrwt>
</event>
<event>
 9    1  0.2031653E-002  0.2774084E+03  0.7818608E-02  0.1097113E+00
          3   -1    0    0  501    0  0.00000000000E+00  0.00000000000E+00  0.24328581816E+03  0.24328581816E+03  0.00000000000E+00 0. -1.
         -3   -1    0    0    0  501 -0.00000000000E+00 -0.00000000000E+00 -0.79079255917E+02  0.79079255917E+02  0.00000000000E+00 0. -1.
         36    2    1    2    0    0 -0.14210854715E-13 -0.17763568394E-14  0.16420656225E+03  0.32236507408E+03  0.27740844598E+03 0.  0.
         25    2    3    3    0    0  0.33801825171E+02 -0.70259969995E+01  0.29888180746E+02  0.13467084245E+03  0.12669255874E+03 0.  0.
         25    2    3    3    0    0 -0.33801825171E+02  0.70259969995E+01  0.13431838150E+03  0.18769423163E+03  0.12647438064E+03 0.  0.
          5    1    4    4  502    0  0.79657527669E+02 -0.21952204689E+01  0.57037726569E+00  0.79828290959E+02  0.47000000000E+01 0.  1.
         -5    1    4    4    0  502 -0.45855702498E+02 -0.48307765307E+01  0.29317803480E+02  0.54842551494E+02  0.47000000000E+01 0.  1.
          5    1    5    5  503    0 -0.25954491398E+02 -0.39400261288E+02  0.23202588488E+01  0.47470936523E+02  0.47000000000E+01 0. -1.
         -5    1    5    5    0  503 -0.78473337727E+01  0.46426258288E+02  0.13199812265E+03  0.14022329510E+03  0.47000000000E+01 0. -1.
<mgrwt>
<rscale>  0 0.27740845E+03</rscale>
<asrwt>0</asrwt>
<pdfrwt beam="1">  1        3 0.37428587E-01 0.27740845E+03</pdfrwt>
<pdfrwt beam="2">  1       -3 0.12166040E-01 0.27740845E+03</pdfrwt>
<totfact> 0.95426741E+02</totfact>
</mgrwt>
</event>
<event>
 9    1  0.2031653E-002  0.2754005E+03  0.7818608E-02  0.1098228E+00
          2   -1    0    0  501    0  0.00000000000E+00  0.00000000000E+00  0.21958474521E+02  0.21958474521E+02  0.00000000000E+00 0. -1.
         -2   -1    0    0    0  501 -0.00000000000E+00 -0.00000000000E+00 -0.86350974113E+03  0.86350974113E+03  0.00000000000E+00 0. -1.
         36    2    1    2    0    0  0.00000000000E+00 -0.71054273576E-14 -0.84155126660E+03  0.88546821565E+03  0.27540048402E+03 0.  0.
         25    2    3    3    0    0  0.46574568537E+01 -0.23685439624E+01 -0.24146190420E+03  0.27224708958E+03  0.12564762114E+03 0.  0.
         25    2    3    3    0    0 -0.46574568537E+01  0.23685439624E+01 -0.60008936240E+03  0.61322112607E+03  0.12611742419E+03 0.  0.
          5    1    4    4  502    0  0.32250458451E+02  0.42374108962E+02 -0.48439831264E+02  0.72139894881E+02  0.47000000000E+01 0. -1.
         -5    1    4    4    0  502 -0.27593001598E+02 -0.44742652924E+02 -0.19302207294E+03  0.20010719470E+03  0.47000000000E+01 0. -1.
          5    1    5    5  503    0  0.33242253466E+01  0.50949976375E+02 -0.48824583480E+03  0.49093078510E+03  0.47000000000E+01 0. -1.
         -5    1    5    5    0  503 -0.79816822003E+01 -0.48581432413E+02 -0.11184352760E+03  0.12229034096E+03  0.47000000000E+01 0. -1.
<mgrwt>
<rscale>  0 0.27540048E+03</rscale>
<asrwt>0</asrwt>
<pdfrwt beam="1">  1        2 0.33782272E-02 0.27540048E+03</pdfrwt>
<pdfrwt beam="2">  1       -2 0.13284764E+00 0.27540048E+03</pdfrwt>
<totfact> 0.11511653E+03</totfact>
</mgrwt>
</event>
<event>
 9    1  0.2031653E-002  0.2754374E+03  0.7818608E-02  0.1098207E+00
          2   -1    0    0  501    0  0.00000000000E+00  0.00000000000E+00  0.12062749986E+04  0.12062749986E+04  0.00000000000E+00 0.  1.
         -2   -1    0    0    0  501 -0.00000000000E+00 -0.00000000000E+00 -0.15723144627E+02  0.15723144627E+02  0.00000000000E+00 0.  1.
         36    2    1    2    0    0  0.00000000000E+00  0.17763568394E-14  0.11905518540E+04  0.12219981433E+04  0.27543737047E+03 0.  0.
         25    2    3    3    0    0  0.47187745567E+02  0.37675002481E+01  0.55763109158E+03  0.57397042672E+03  0.12747054193E+03 0.  0.
         25    2    3    3    0    0 -0.47187745567E+02 -0.37675002481E+01  0.63292076242E+03  0.64802771654E+03  0.13080654612E+03 0.  0.
          5    1    4    4  502    0  0.13780798184E+02  0.28864861634E+02  0.50754949844E+03  0.50857809036E+03  0.47000000000E+01 0.  1.
         -5    1    4    4    0  502  0.33406947383E+02 -0.25097361386E+02  0.50081593149E+02  0.65392336358E+02  0.47000000000E+01 0.  1.
          5    1    5    5  503    0 -0.83170198126E+02  0.10115836113E+02  0.26277821957E+03  0.27585158088E+03  0.47000000000E+01 0.  1.
         -5    1    5    5    0  503  0.35982452559E+02 -0.13883336361E+02  0.37014254285E+03  0.37217613566E+03  0.47000000000E+01 0.  1.
<mgrwt>
<rscale>  0 0.27543737E+03</rscale>
<asrwt>0</asrwt>
<pdfrwt beam="1">  1        2 0.18558070E+00 0.27543737E+03</pdfrwt>
<pdfrwt beam="2">  1       -2 0.24189463E-02 0.27543737E+03</pdfrwt>
<totfact> 0.11550627E+04</totfact>
</mgrwt>
</event>
<event>
 9    1  0.2031653E-002  0.2764166E+03  0.7818608E-02  0.1097662E+00
          2   -1    0    0  501    0  0.00000000000E+00  0.00000000000E+00  0.99744091650E+03  0.99744091650E+03  0.00000000000E+00 0. -1.
         -2   -1    0    0    0  501 -0.00000000000E+00 -0.00000000000E+00 -0.19150544054E+02  0.19150544054E+02  0.00000000000E+00 0. -1.
         36    2    1    2    0    0 -0.17763568394E-14 -0.71054273576E-14  0.97829037244E+03  0.10165914606E+04  0.27641661465E+03 0.  0.
         25    2    3    3    0    0  0.14673887269E+02 -0.62477479262E+02  0.46021967080E+03  0.48087734676E+03  0.12378254665E+03 0.  0.
         25    2    3    3    0    0 -0.14673887269E+02  0.62477479262E+02  0.51807070164E+03  0.53571411379E+03  0.12030628175E+03 0.  0.
          5    1    4    4  502    0 -0.17495602664E+02 -0.59927263453E+02  0.43544642762E+03  0.43992391881E+03  0.47000000000E+01 0. -1.
         -5    1    4    4    0  502  0.32169489932E+02 -0.25502158091E+01  0.24773243182E+02  0.40953427951E+02  0.47000000000E+01 0. -1.
          5    1    5    5  503    0 -0.41198708860E+01  0.62946048842E+02  0.10570334871E+03  0.12318468382E+03  0.47000000000E+01 0.  1.
         -5    1    5    5    0  503 -0.10554016383E+02 -0.46856958079E+00  0.41236735294E+03  0.41252942996E+03  0.47000000000E+01 0.  1.
<mgrwt>
<rscale>  0 0.27641661E+03</rscale>
<asrwt>0</asrwt>
<pdfrwt beam="1">  1        2 0.15345241E+00 0.27641661E+03</pdfrwt>
<pdfrwt beam="2">  1       -2 0.29462383E-02 0.27641661E+03</pdfrwt>
<totfact> 0.11441337E+04</totfact>
</mgrwt>
</event>
<event>
 9    1  0.2031653E-002  0.2767170E+03  0.7818608E-02  0.1097496E+00
         -1   -1    0    0    0  501 -0.00000000000E+00  0.00000000000E+00  0.75433926751E+03  0.75433926751E+03  0.00000000000E+00 0.  1.
          1   -1    0    0  501    0  0.00000000000E+00 -0.00000000000E+00 -0.25377273455E+02  0.25377273455E+02  0.00000000000E+00 0.  1.
         36    2    1    2    0    0  0.00000000000E+00 -0.71054273576E-14  0.72896199405E+03  0.77971654096E+03  0.27671699528E+03 0.  0.
         25    2    3    3    0    0  0.13381252711E+02  0.59460528885E+02  0.32775217988E+03  0.35487260920E+03  0.12164894132E+03 0.  0.
         25    2    3    3    0    0 -0.13381252711E+02 -0.59460528885E+02  0.40120981417E+03  0.42484393176E+03  0.12573161475E+03 0.  0.
          5    1    4    4  502    0  0.35538520633E+02  0.35270447413E+00  0.25880107187E+03  0.26127226345E+03  0.47000000000E+01 0. -1.
         -5    1    4    4    0  502 -0.22157267922E+02  0.59107824411E+02  0.68951108017E+02  0.93600345753E+02  0.47000000000E+01 0. -1.
          5    1    5    5  503    0 -0.15126837867E+02 -0.44254863245E+02  0.35803923560E+02  0.59087435949E+02  0.47000000000E+01 0. -1.
         -5    1    5    5    0  503  0.17455851565E+01 -0.15205665639E+02  0.36540589061E+03  0.36575649581E+03  0.47000000000E+01 0. -1.
<mgrwt>
<rscale>  0 0.27671700E+03</rscale>
<asrwt>0</asrwt>
<pdfrwt beam="1">  1        1 0.39041965E-02 0.27671700E+03</pdfrwt>
<pdfrwt beam="2">  1       -1 0.11605218E+00 0.27671700E+03</pdfrwt>
<totfact> 0.16835534E+03</totfact>
</mgrwt>
</event>
<event>
 9    1  0.2031653E-002  0.2764162E+03  0.7818608E-02  0.1097663E+00
          1   -1    0    0  501    0  0.00000000000E+00  0.00000000000E+00  0.55069817048E+03  0.55069817048E+03  0.00000000000E+00 0. -1.
         -1   -1    0    0    0  501 -0.00000000000E+00 -0.00000000000E+00 -0.34685925748E+02  0.34685925748E+02  0.00000000000E+00 0. -1.
         36    2    1    2    0    0  0.00000000000E+00  0.35527136788E-14  0.51601224474E+03  0.58538409623E+03  0.27641617790E+03 0.  0.
         25    2    3    3    0    0  0.13248955793E+02 -0.13738774305E+02  0.13944046506E+03  0.18764591580E+03  0.12410905557E+03 0.  0.
         25    2    3    3    0    0 -0.13248955793E+02  0.13738774305E+02  0.37657177968E+03  0.39773818043E+03  0.12659015037E+03 0.  0.
          5    1    4    4  502    0 -0.30127020448E+02  0.15996135741E+02  0.12939737218E+03  0.13390027500E+03  0.47000000000E+01 0. -1.
         -5    1    4    4    0  502  0.43375976242E+02 -0.29734910047E+02  0.10043092880E+02  0.53745640800E+02  0.47000000000E+01 0. -1.
          5    1    5    5  503    0  0.14551753343E+02 -0.53023233664E+02  0.14806413310E+03  0.15801358911E+03  0.47000000000E+01 0.  1.
         -5    1    5    5    0  503 -0.27800709136E+02  0.66762007969E+02  0.22850764658E+03  0.23972459132E+03  0.47000000000E+01 0.  1.
<mgrwt>
<rscale>  0 0.27641618E+03</rscale>
<asrwt>0</asrwt>
<pdfrwt beam="1">  1        1 0.84722789E-01 0.27641618E+03</pdfrwt>
<pdfrwt beam="2">  1       -1 0.53362967E-02 0.27641618E+03</pdfrwt>
<totfact> 0.62947272E+03</totfact>
</mgrwt>
</event>
<event>
 9    1  0.2031653E-002  0.2724345E+03  0.7818608E-02  0.1099894E+00
          2   -1    0    0  501    0  0.00000000000E+00  0.00000000000E+00  0.13228495760E+02  0.13228495760E+02  0.00000000000E+00 0. -1.
         -2   -1    0    0    0  501 -0.00000000000E+00 -0.00000000000E+00 -0.14026643242E+04  0.14026643242E+04  0.00000000000E+00 0. -1.
         36    2    1    2    0    0  0.71054273576E-14  0.00000000000E+00 -0.13894358284E+04  0.14158928199E+04  0.27243449902E+03 0.  0.
         25    2    3    3    0    0 -0.38173918837E+02  0.23200775185E+02 -0.65279983609E+03  0.66792794677E+03  0.13410664426E+03 0.  0.
         25    2    3    3    0    0  0.38173918837E+02 -0.23200775185E+02 -0.73663599231E+03  0.74796487314E+03  0.12175114884E+03 0.  0.
          5    1    4    4  502    0  0.15660188965E+02 -0.43867011810E+02 -0.13203924509E+03  0.14009285666E+03  0.47000000000E+01 0.  1.
         -5    1    4    4    0  502 -0.53834107802E+02  0.67067786996E+02 -0.52076059100E+03  0.52783509011E+03  0.47000000000E+01 0.  1.
          5    1    5    5  503    0 -0.17634998264E+02  0.35543795479E+02 -0.38576360037E+03  0.38782728106E+03  0.47000000000E+01 0. -1.
         -5    1    5    5    0  503  0.55808917101E+02 -0.58744570664E+02 -0.35087239193E+03  0.36013759208E+03  0.47000000000E+01 0. -1.
<mgrwt>
<rscale>  0 0.27243450E+03</rscale>
<asrwt>0</asrwt>
<pdfrwt beam="1">  1        2 0.20351540E-02 0.27243450E+03</pdfrwt>
<pdfrwt beam="2">  1       -2 0.21579442E+00 0.27243450E+03</pdfrwt>
<totfact> 0.61455586E+02</totfact>
</mgrwt>
</event>
<event>
 9    1  0.2031653E-002  0.2795547E+03  0.7818608E-02  0.1095932E+00
         -1   -1    0    0    0  501 -0.00000000000E+00  0.00000000000E+00  0.12076913789E+03  0.12076913789E+03  0.00000000000E+00 0.  1.
          1   -1    0    0  501    0  0.00000000000E+00 -0.00000000000E+00 -0.16177735952E+03  0.16177735952E+03  0.00000000000E+00 0.  1.
         36    2    1    2    0    0 -0.53290705182E-14  0.17763568394E-14 -0.41008221622E+02  0.28254649741E+03  0.27955473338E+03 0.  0.
         25    2    3    3    0    0  0.15554443946E+02  0.61259579878E+01  0.40181329498E+02  0.13198030351E+03  0.12459852803E+03 0.  0.
         25    2    3    3    0    0 -0.15554443946E+02 -0.61259579878E+01 -0.81189551119E+02  0.15056619390E+03  0.12569394355E+03 0.  0.
          5    1    4    4  502    0 -0.37585991738E+01  0.62756081898E+02  0.70803522194E+01  0.63440320542E+02  0.47000000000E+01 0.  1.
         -5    1    4    4    0  502  0.19313043120E+02 -0.56630123910E+02  0.33100977278E+02  0.68539982969E+02  0.47000000000E+01 0.  1.
          5    1    5    5  503    0 -0.37063200001E+01  0.13066991787E+02 -0.11153947047E+03  0.11246166705E+03  0.47000000000E+01 0. -1.
         -5    1    5    5    0  503 -0.11848123946E+02 -0.19192949775E+02  0.30349919349E+02  0.38104526852E+02  0.47000000000E+01 0. -1.
<mgrwt>
<rscale>  0 0.27955473E+03</rscale>
<asrwt>0</asrwt>
<pdfrwt beam="1">  1        1 0.24888824E-01 0.27955473E+03</pdfrwt>
<pdfrwt beam="2">  1       -1 0.18579868E-01 0.27955473E+03</pdfrwt>
<totfact> 0.43522922E+03</totfact>
</mgrwt>
</event>
<event>
 9    1  0.2031653E-002  0.2663613E+03  0.7818608E-02  0.1103380E+00
         -1   -1    0    0    0  501 -0.00000000000E+00  0.00000000000E+00  0.10535808411E+03  0.10535808411E+03  0.00000000000E+00 0. -1.
          1   -1    0    0  501    0  0.00000000000E+00 -0.00000000000E+00 -0.16835045705E+03  0.16835045705E+03  0.00000000000E+00 0. -1.
         36    2    1    2    0    0  0.35527136788E-14  0.88817841970E-15 -0.62992372948E+02  0.27370854116E+03  0.26636127056E+03 0.  0.
         25    2    3    3    0    0  0.57129009450E+01 -0.55717099847E+01  0.17981432753E+02  0.12574433634E+03  0.12419591382E+03 0.  0.
         25    2    3    3    0    0 -0.57129009450E+01  0.55717099847E+01 -0.80973805700E+02  0.14796420482E+03  0.12358384809E+03 0.  0.
          5    1    4    4  502    0 -0.13424166364E+01  0.39871516783E+01 -0.53125501316E+02  0.53498676161E+02  0.47000000000E+01 0. -1.
         -5    1    4    4    0  502  0.70553175814E+01 -0.95588616630E+01  0.71106934069E+02  0.72245660182E+02  0.47000000000E+01 0. -1.
          5    1    5    5  503    0  0.55835896010E+02  0.37097114113E+01 -0.16149462975E+02  0.58432049393E+02  0.47000000000E+01 0. -1.
         -5    1    5    5    0  503 -0.61548796955E+02  0.18619985735E+01 -0.64824342726E+02  0.89532155425E+02  0.47000000000E+01 0. -1.
<mgrwt>
<rscale>  0 0.26636127E+03</rscale>
<asrwt>0</asrwt>
<pdfrwt beam="1">  1        1 0.25900070E-01 0.26636127E+03</pdfrwt>
<pdfrwt beam="2">  1       -1 0.16208936E-01 0.26636127E+03</pdfrwt>
<totfact> 0.51427915E+03</totfact>
</mgrwt>
</event>
<event>
 9    1  0.2031653E-002  0.2757693E+03  0.7818608E-02  0.1098022E+00
         -1   -1    0    0    0  501 -0.00000000000E+00  0.00000000000E+00  0.12948084535E+02  0.12948084535E+02  0.00000000000E+00 0.  1.
          1   -1    0    0  501    0  0.00000000000E+00 -0.00000000000E+00 -0.14683394602E+04  0.14683394602E+04  0.00000000000E+00 0.  1.
         36    2    1    2    0    0 -0.71054273576E-14  0.00000000000E+00 -0.14553913757E+04  0.14812875447E+04  0.27576934896E+03 0.  0.
         25    2    3    3    0    0 -0.46928986913E+02 -0.24034877903E+02 -0.83214332732E+03  0.84284253552E+03  0.12304884116E+03 0.  0.
         25    2    3    3    0    0  0.46928986913E+02  0.24034877903E+02 -0.62324804833E+03  0.63844500920E+03  0.12803864595E+03 0.  0.
          5    1    4    4  502    0 -0.52612257473E+02  0.10038845622E+02 -0.14230346869E+03  0.15212230362E+03  0.47000000000E+01 0.  1.
         -5    1    4    4    0  502  0.56832705598E+01 -0.34073723525E+02 -0.68983985863E+03  0.69072023190E+03  0.47000000000E+01 0.  1.
          5    1    5    5  503    0 -0.27757005592E+02  0.29191702516E+02 -0.41722439803E+03  0.41919076226E+03  0.47000000000E+01 0. -1.
         -5    1    5    5    0  503  0.74685992506E+02 -0.51568246133E+01 -0.20602365030E+03  0.21925424694E+03  0.47000000000E+01 0. -1.
<mgrwt>
<rscale>  0 0.27576935E+03</rscale>
<asrwt>0</asrwt>
<pdfrwt beam="1">  1        1 0.22589845E+00 0.27576935E+03</pdfrwt>
<pdfrwt beam="2">  1       -1 0.19920124E-02 0.27576935E+03</pdfrwt>
<totfact> 0.51812292E+03</totfact>
</mgrwt>
</event>
<event>
 9    1  0.2031653E-002  0.2749613E+03  0.7818608E-02  0.1098473E+00
         -2   -1    0    0    0  501 -0.00000000000E+00  0.00000000000E+00  0.13354845313E+02  0.13354845313E+02  0.00000000000E+00 0.  1.
          2   -1    0    0  501    0  0.00000000000E+00 -0.00000000000E+00 -0.14152860543E+04  0.14152860543E+04  0.00000000000E+00 0.  1.
         36    2    1    2    0    0  0.00000000000E+00  0.00000000000E+00 -0.14019312090E+04  0.14286408996E+04  0.27496127967E+03 0.  0.
         25    2    3    3    0    0 -0.26642993315E+02 -0.61692581119E+01 -0.48824142730E+03  0.50500780577E+03  0.12611615168E+03 0.  0.
         25    2    3    3    0    0  0.26642993315E+02  0.61692581119E+01 -0.91368978170E+03  0.92363309386E+03  0.13236754154E+03 0.  0.
          5    1    4    4  502    0  0.10678797824E+02  0.23021126406E+02 -0.15987141846E+02  0.30359309748E+02  0.47000000000E+01 0.  1.
         -5    1    4    4    0  502 -0.37321791139E+02 -0.29190384518E+02 -0.47225428545E+03  0.47464849602E+03  0.47000000000E+01 0.  1.
          5    1    5    5  503    0 -0.26737147087E+02  0.30514608947E+02 -0.72097003170E+03  0.72212595370E+03  0.47000000000E+01 0.  1.
         -5    1    5    5    0  503  0.53380140401E+02 -0.24345350835E+02 -0.19271975000E+03  0.20150714016E+03  0.47000000000E+01 0.  1.
<mgrwt>
<rscale>  0 0.27496128E+03</rscale>
<asrwt>0</asrwt>
<pdfrwt beam="1">  1        2 0.21773627E+00 0.27496128E+03</pdfrwt>
<pdfrwt beam="2">  1       -2 0.20545920E-02 0.27496128E+03</pdfrwt>
<totfact> 0.11260960E+04</totfact>
</mgrwt>
</event>
<event>
 9    1  0.2031653E-002  0.2757458E+03  0.7818608E-02  0.1098035E+00
          1   -1    0    0  501    0  0.00000000000E+00  0.00000000000E+00  0.15053469486E+03  0.15053469486E+03  0.00000000000E+00 0. -1.
         -1   -1    0    0    0  501 -0.00000000000E+00 -0.00000000000E+00 -0.12627611490E+03  0.12627611490E+03  0.00000000000E+00 0. -1.
         36    2    1    2    0    0 -0.53290705182E-14  0.00000000000E+00  0.24258579959E+02  0.27681080976E+03  0.27574579906E+03 0.  0.
         25    2    3    3    0    0  0.12465128742E+02  0.47719916948E+02 -0.35876044163E+02  0.13045881944E+03  0.11532494578E+03 0.  0.
         25    2    3    3    0    0 -0.12465128742E+02 -0.47719916948E+02  0.60134624122E+02  0.14635199032E+03  0.12397645802E+03 0.  0.
          5    1    4    4  502    0  0.20536310201E+02  0.41509289602E+02 -0.75820403143E+02  0.88969571724E+02  0.47000000000E+01 0. -1.
         -5    1    4    4    0  502 -0.80711814588E+01  0.62106273460E+01  0.39944358980E+02  0.41489247721E+02  0.47000000000E+01 0. -1.
          5    1    5    5  503    0 -0.10075363471E+02  0.26811974726E+02 -0.21172480671E+02  0.35927132861E+02  0.47000000000E+01 0. -1.
         -5    1    5    5    0  503 -0.23897652707E+01 -0.74531891675E+02  0.81307104794E+02  0.11042485746E+03  0.47000000000E+01 0. -1.
<mgrwt>
<rscale>  0 0.27574580E+03</rscale>
<asrwt>0</asrwt>
<pdfrwt beam="1">  1        1 0.23159184E-01 0.27574580E+03</pdfrwt>
<pdfrwt beam="2">  1       -1 0.19427095E-01 0.27574580E+03</pdfrwt>
<totfact> 0.44371312E+03</totfact>
</mgrwt>
</event>
<event>
 9    1  0.2031653E-002  0.2751538E+03  0.7818608E-02  0.1098366E+00
          1   -1    0    0  501    0  0.00000000000E+00  0.00000000000E+00  0.86484873976E+03  0.86484873976E+03  0.00000000000E+00 0. -1.
         -1   -1    0    0    0  501 -0.00000000000E+00 -0.00000000000E+00 -0.21885223806E+02  0.21885223806E+02  0.00000000000E+00 0. -1.
         36    2    1    2    0    0  0.00000000000E+00  0.00000000000E+00  0.84296351596E+03  0.88673396357E+03  0.27515383500E+03 0.  0.
         25    2    3    3    0    0  0.52406889774E+02  0.16458424518E+02  0.39010538445E+03  0.41368890076E+03  0.12624949031E+03 0.  0.
         25    2    3    3    0    0 -0.52406889774E+02 -0.16458424518E+02  0.45285813151E+03  0.47304506281E+03  0.12519497730E+03 0.  0.
          5    1    4    4  502    0  0.25727843543E+01 -0.25974426389E+02  0.10614879806E+02  0.28566688973E+02  0.47000000000E+01 0. -1.
         -5    1    4    4    0  502  0.49834105419E+02  0.42432850907E+02  0.37949050464E+03  0.38512221179E+03  0.47000000000E+01 0. -1.
          5    1    5    5  503    0 -0.28364113062E+02  0.53747434831E+02  0.23810781106E+03  0.24578594213E+03  0.47000000000E+01 0. -1.
         -5    1    5    5    0  503 -0.24042776712E+02 -0.70205859349E+02  0.21475032045E+03  0.22725912068E+03  0.47000000000E+01 0. -1.
<mgrwt>
<rscale>  0 0.27515383E+03</rscale>
<asrwt>0</asrwt>
<pdfrwt beam="1">  1        1 0.13305363E+00 0.27515383E+03</pdfrwt>
<pdfrwt beam="2">  1       -1 0.33669582E-02 0.27515383E+03</pdfrwt>
<totfact> 0.64667262E+03</totfact>
</mgrwt>
</event>
<event>
 9    1  0.2031653E-002  0.2813645E+03  0.7818608E-02  0.1094946E+00
          1   -1    0    0  501    0  0.00000000000E+00  0.00000000000E+00  0.25633768233E+03  0.25633768233E+03  0.00000000000E+00 0. -1.
         -1   -1    0    0    0  501 -0.00000000000E+00 -0.00000000000E+00 -0.77208672638E+02  0.77208672638E+02  0.00000000000E+00 0. -1.
         36    2    1    2    0    0  0.71054273576E-14 -0.35527136788E-14  0.17912900969E+03  0.33354635497E+03  0.28136447679E+03 0.  0.
         25    2    3    3    0    0  0.41444573884E+02  0.21210368709E+02  0.13782885623E+03  0.19185581570E+03  0.12507728795E+03 0.  0.
         25    2    3    3    0    0 -0.41444573884E+02 -0.21210368709E+02  0.41300153457E+02  0.14169053927E+03  0.12729090226E+03 0.  0.
          5    1    4    4  502    0  0.42649208233E+02  0.60527267887E+02  0.35744851243E+02  0.82354656888E+02  0.47000000000E+01 0. -1.
         -5    1    4    4    0  502 -0.12046343486E+01 -0.39316899178E+02  0.10208400499E+03  0.10950115881E+03  0.47000000000E+01 0. -1.
          5    1    5    5  503    0 -0.26842649099E+02  0.10943461169E+02  0.82295778338E+02  0.87378328465E+02  0.47000000000E+01 0. -1.
         -5    1    5    5    0  503 -0.14601924785E+02 -0.32153829878E+02 -0.40995624882E+02  0.54312210807E+02  0.47000000000E+01 0. -1.
<mgrwt>
<rscale>  0 0.28136448E+03</rscale>
<asrwt>0</asrwt>
<pdfrwt beam="1">  1        1 0.39436566E-01 0.28136448E+03</pdfrwt>
<pdfrwt beam="2">  1       -1 0.11878257E-01 0.28136448E+03</pdfrwt>
<totfact> 0.49527439E+03</totfact>
</mgrwt>
</event>
<event>
 9    1  0.2031653E-002  0.2746359E+03  0.7818608E-02  0.1098655E+00
         -2   -1    0    0    0  501 -0.00000000000E+00  0.00000000000E+00  0.24643067077E+02  0.24643067077E+02  0.00000000000E+00 0. -1.
          2   -1    0    0  501    0  0.00000000000E+00 -0.00000000000E+00 -0.76517342476E+03  0.76517342476E+03  0.00000000000E+00 0. -1.
         36    2    1    2    0    0  0.71054273576E-14  0.00000000000E+00 -0.74053035768E+03  0.78981649184E+03  0.27463590466E+03 0.  0.
         25    2    3    3    0    0 -0.35913640313E+02 -0.10491351987E+02 -0.25385271102E+03  0.28580195532E+03  0.12586381826E+03 0.  0.
         25    2    3    3    0    0  0.35913640313E+02  0.10491351987E+02 -0.48667764667E+03  0.50401453652E+03  0.12560120712E+03 0.  0.
          5    1    4    4  502    0  0.28581516540E+01  0.46714586451E+02 -0.42519278416E+02  0.63406629426E+02  0.47000000000E+01 0.  1.
         -5    1    4    4    0  502 -0.38771791967E+02 -0.57205938438E+02 -0.21133343260E+03  0.22239532589E+03  0.47000000000E+01 0.  1.
          5    1    5    5  503    0  0.76392905164E+02  0.17640926006E+02 -0.40397998021E+03  0.41154464234E+03  0.47000000000E+01 0. -1.
         -5    1    5    5    0  503 -0.40479264851E+02 -0.71495740198E+01 -0.82697666460E+02  0.92469894179E+02  0.47000000000E+01 0. -1.
<mgrwt>
<rscale>  0 0.27463590E+03</rscale>
<asrwt>0</asrwt>
<pdfrwt beam="1">  1        2 0.11771899E+00 0.27463590E+03</pdfrwt>
<pdfrwt beam="2">  1       -2 0.37912410E-02 0.27463590E+03</pdfrwt>
<totfact> 0.11147785E+04</totfact>
</mgrwt>
</event>
<event>
 9    1  0.2031653E-002  0.2756022E+03  0.7818608E-02  0.1098115E+00
         -1   -1    0    0    0  501 -0.00000000000E+00  0.00000000000E+00  0.12172887372E+03  0.12172887372E+03  0.00000000000E+00 0. -1.
          1   -1    0    0  501    0  0.00000000000E+00 -0.00000000000E+00 -0.15599543814E+03  0.15599543814E+03  0.00000000000E+00 0. -1.
         36    2    1    2    0    0  0.00000000000E+00  0.35527136788E-14 -0.34266564414E+02  0.27772431186E+03  0.27560224230E+03 0.  0.
         25    2    3    3    0    0 -0.33485223637E+02  0.24867331068E+02 -0.54580970669E+02  0.14407012158E+03  0.12663914567E+03 0.  0.
         25    2    3    3    0    0  0.33485223637E+02 -0.24867331068E+02  0.20314406255E+02  0.13365419028E+03  0.12534401909E+03 0.  0.
          5    1    4    4  502    0  0.28758520192E+02  0.73855390756E+01 -0.71084404612E+02  0.77179539064E+02  0.47000000000E+01 0.  1.
         -5    1    4    4    0  502 -0.62243743830E+02  0.17481791992E+02  0.16503433943E+02  0.66890582514E+02  0.47000000000E+01 0.  1.
          5    1    5    5  503    0  0.47327250424E+02 -0.15391055093E+02  0.67132730291E+02  0.83699741253E+02  0.47000000000E+01 0.  1.
         -5    1    5    5    0  503 -0.13842026787E+02 -0.94762759746E+01 -0.46818324035E+02  0.49954449025E+02  0.47000000000E+01 0.  1.
<mgrwt>
<rscale>  0 0.27560224E+03</rscale>
<asrwt>0</asrwt>
<pdfrwt beam="1">  1        1 0.23999298E-01 0.27560224E+03</pdfrwt>
<pdfrwt beam="2">  1       -1 0.18727519E-01 0.27560224E+03</pdfrwt>
<totfact> 0.44990546E+03</totfact>
</mgrwt>
</event>
<event>
 9    1  0.2031653E-002  0.2762857E+03  0.7818608E-02  0.1097735E+00
          3   -1    0    0  501    0  0.00000000000E+00  0.00000000000E+00  0.50531454492E+02  0.50531454492E+02  0.00000000000E+00 0.  1.
         -3   -1    0    0    0  501 -0.00000000000E+00 -0.00000000000E+00 -0.37765477672E+03  0.37765477672E+03  0.00000000000E+00 0.  1.
         36    2    1    2    0    0  0.00000000000E+00 -0.35527136788E-14 -0.32712332223E+03  0.42818623122E+03  0.27628568666E+03 0.  0.
         25    2    3    3    0    0  0.48700372087E+02  0.94834472625E+01 -0.19836273192E+03  0.24013713312E+03  0.12592222709E+03 0.  0.
         25    2    3    3    0    0 -0.48700372087E+02 -0.94834472625E+01 -0.12876059032E+03  0.18804909810E+03  0.12775567175E+03 0.  0.
          5    1    4    4  502    0  0.87860345633E+02  0.22422286129E+02 -0.15804643173E+03  0.18227167589E+03  0.47000000000E+01 0.  1.
         -5    1    4    4    0  502 -0.39159973546E+02 -0.12938838866E+02 -0.40316300183E+02  0.57865457225E+02  0.47000000000E+01 0.  1.
          5    1    5    5  503    0  0.25980622584E+02 -0.40966222046E+02 -0.20846201719E+02  0.53008284491E+02  0.47000000000E+01 0. -1.
         -5    1    5    5    0  503 -0.74680994671E+02  0.31482774783E+02 -0.10791438860E+03  0.13504081361E+03  0.47000000000E+01 0. -1.
<mgrwt>
<rscale>  0 0.27628569E+03</rscale>
<asrwt>0</asrwt>
<pdfrwt beam="1">  1        3 0.77740698E-02 0.27628569E+03</pdfrwt>
<pdfrwt beam="2">  1       -3 0.58100736E-01 0.27628569E+03</pdfrwt>
<totfact> 0.83635652E+02</totfact>
</mgrwt>
</event>
<event>
 9    1  0.2031653E-002  0.2753339E+03  0.7818608E-02  0.1098265E+00
          1   -1    0    0  501    0  0.00000000000E+00  0.00000000000E+00  0.11609101545E+04  0.11609101545E+04  0.00000000000E+00 0. -1.
         -1   -1    0    0    0  501 -0.00000000000E+00 -0.00000000000E+00 -0.16325281429E+02  0.16325281429E+02  0.00000000000E+00 0. -1.
         36    2    1    2    0    0  0.35527136788E-14  0.00000000000E+00  0.11445848731E+04  0.11772354359E+04  0.27533386995E+03 0.  0.
         25    2    3    3    0    0 -0.99010928600E+01 -0.33153442083E+02  0.77126584924E+03  0.78191544869E+03  0.12386919043E+03 0.  0.
         25    2    3    3    0    0  0.99010928600E+01  0.33153442083E+02  0.37331902384E+03  0.39531998724E+03  0.12535396441E+03 0.  0.
          5    1    4    4  502    0  0.55654759277E+02 -0.11688670165E+02  0.42505796880E+03  0.42887112759E+03  0.47000000000E+01 0.  1.
         -5    1    4    4    0  502 -0.65555852137E+02 -0.21464771918E+02  0.34620788043E+03  0.35304432109E+03  0.47000000000E+01 0.  1.
          5    1    5    5  503    0 -0.21514533273E+02 -0.36667457348E+02  0.21723309752E+03  0.22140389841E+03  0.47000000000E+01 0.  1.
         -5    1    5    5    0  503  0.31415626133E+02  0.69820899431E+02  0.15608592631E+03  0.17391608883E+03  0.47000000000E+01 0.  1.
<mgrwt>
<rscale>  0 0.27533387E+03</rscale>
<asrwt>0</asrwt>
<pdfrwt beam="1">  1        1 0.17860150E+00 0.27533387E+03</pdfrwt>
<pdfrwt beam="2">  1       -1 0.25115827E-02 0.27533387E+03</pdfrwt>
<totfact> 0.59836453E+03</totfact>
</mgrwt>
</event>
<event>
 9    1  0.2031653E-002  0.2701537E+03  0.7818608E-02  0.1101192E+00
         -1   -1    0    0    0  501 -0.00000000000E+00  0.00000000000E+00  0.19365591344E+02  0.19365591344E+02  0.00000000000E+00 0. -1.
          1   -1    0    0  501    0  0.00000000000E+00 -0.00000000000E+00 -0.94217419431E+03  0.94217419431E+03  0.00000000000E+00 0. -1.
         36    2    1    2    0    0  0.71054273576E-14 -0.88817841970E-15 -0.92280860297E+03  0.96153978566E+03  0.27015373713E+03 0.  0.
         25    2    3    3    0    0  0.85704724971E+01  0.45970167605E+01 -0.68461486834E+03  0.69557351240E+03  0.12259856295E+03 0.  0.
         25    2    3    3    0    0 -0.85704724971E+01 -0.45970167605E+01 -0.23819373463E+03  0.26596627326E+03  0.11792886725E+03 0.  0.
          5    1    4    4  502    0 -0.30101799260E+02 -0.28149652306E+02 -0.93697362492E+02  0.10246856582E+03  0.47000000000E+01 0.  1.
         -5    1    4    4    0  502  0.38672271757E+02  0.32746669067E+02 -0.59091750585E+03  0.59310494658E+03  0.47000000000E+01 0.  1.
          5    1    5    5  503    0  0.36531866626E+02 -0.76724831172E+01 -0.20805820888E+03  0.21143261943E+03  0.47000000000E+01 0. -1.
         -5    1    5    5    0  503 -0.45102339123E+02  0.30754663567E+01 -0.30135525751E+02  0.54533653829E+02  0.47000000000E+01 0. -1.
<mgrwt>
<rscale>  0 0.27015374E+03</rscale>
<asrwt>0</asrwt>
<pdfrwt beam="1">  1        1 0.14494989E+00 0.27015374E+03</pdfrwt>
<pdfrwt beam="2">  1       -1 0.29793215E-02 0.27015374E+03</pdfrwt>
<totfact> 0.67348286E+03</totfact>
</mgrwt>
</event>
<event>
 9    1  0.2031653E-002  0.2751221E+03  0.7818608E-02  0.1098383E+00
          2   -1    0    0  501    0  0.00000000000E+00  0.00000000000E+00  0.26622483712E+03  0.26622483712E+03  0.00000000000E+00 0.  1.
         -2   -1    0    0    0  501 -0.00000000000E+00 -0.00000000000E+00 -0.71079186468E+02  0.71079186468E+02  0.00000000000E+00 0.  1.
         36    2    1    2    0    0  0.00000000000E+00  0.71054273576E-14  0.19514565065E+03  0.33730402359E+03  0.27512211718E+03 0.  0.
         25    2    3    3    0    0  0.32902179478E+02 -0.47860713037E+02  0.96392688272E+02  0.16857149002E+03  0.12550536096E+03 0.  0.
         25    2    3    3    0    0 -0.32902179478E+02  0.47860713037E+02  0.98752962381E+02  0.16873253357E+03  0.12387622467E+03 0.  0.
          5    1    4    4  502    0  0.30355206986E+02 -0.83608974980E+02  0.31848833013E+02  0.94595652398E+02  0.47000000000E+01 0. -1.
         -5    1    4    4    0  502  0.25469724924E+01  0.35748261943E+02  0.64543855259E+02  0.73975837626E+02  0.47000000000E+01 0. -1.
          5    1    5    5  503    0 -0.38450555805E+02 -0.37918023970E+01 -0.16461844440E+02  0.42259973137E+02  0.47000000000E+01 0. -1.
         -5    1    5    5    0  503  0.55483763273E+01  0.51652515434E+02  0.11521480682E+03  0.12647256043E+03  0.47000000000E+01 0. -1.
<mgrwt>
<rscale>  0 0.27512212E+03</rscale>
<asrwt>0</asrwt>
<pdfrwt beam="1">  1        2 0.40957667E-01 0.27512212E+03</pdfrwt>
<pdfrwt beam="2">  1       -2 0.10935260E-01 0.27512212E+03</pdfrwt>
<totfact> 0.71027300E+03</totfact>
</mgrwt>
</event>
<event>
 9    1  0.2031653E-002  0.2766248E+03  0.7818608E-02  0.1097547E+00
         -2   -1    0    0    0  501 -0.00000000000E+00  0.00000000000E+00  0.61818559582E+01  0.61818559582E+01  0.00000000000E+00 0.  1.
          2   -1    0    0  501    0  0.00000000000E+00 -0.00000000000E+00 -0.30945914726E+04  0.30945914726E+04  0.00000000000E+00 0.  1.
         36    2    1    2    0    0  0.00000000000E+00 -0.71054273576E-14 -0.30884096166E+04  0.31007733285E+04  0.27662479088E+03 0.  0.
         25    2    3    3    0    0  0.11387195874E+02 -0.33136942701E+02 -0.11326355365E+04  0.11404778384E+04  0.12883600425E+03 0.  0.
         25    2    3    3    0    0 -0.11387195874E+02  0.33136942701E+02 -0.19557740801E+04  0.19602954902E+04  0.12836834200E+03 0.  0.
          5    1    4    4  502    0  0.57188961557E+02 -0.26712994957E+02 -0.30297646801E+03  0.30951735265E+03  0.47000000000E+01 0. -1.
         -5    1    4    4    0  502 -0.45801765683E+02 -0.64239477441E+01 -0.82965906851E+03  0.83096048571E+03  0.47000000000E+01 0. -1.
          5    1    5    5  503    0 -0.38304688219E+02  0.81142319630E+01 -0.18604755362E+03  0.19018115603E+03  0.47000000000E+01 0.  1.
         -5    1    5    5    0  503  0.26917492345E+02  0.25022710738E+02 -0.17697265265E+04  0.17701143341E+04  0.47000000000E+01 0.  1.
<mgrwt>
<rscale>  0 0.27662479E+03</rscale>
<asrwt>0</asrwt>
<pdfrwt beam="1">  1        2 0.47609243E+00 0.27662479E+03</pdfrwt>
<pdfrwt beam="2">  1       -2 0.95105189E-03 0.27662479E+03</pdfrwt>
<totfact> 0.41938989E+03</totfact>
</mgrwt>
</event>
<event>
 9    1  0.2031653E-002  0.2739265E+03  0.7818608E-02  0.1099053E+00
          2   -1    0    0  501    0  0.00000000000E+00  0.00000000000E+00  0.97797777784E+03  0.97797777784E+03  0.00000000000E+00 0.  1.
         -2   -1    0    0    0  501 -0.00000000000E+00 -0.00000000000E+00 -0.19181353553E+02  0.19181353553E+02  0.00000000000E+00 0.  1.
         36    2    1    2    0    0  0.71054273576E-14 -0.35527136788E-14  0.95879642429E+03  0.99715913139E+03  0.27392654142E+03 0.  0.
         25    2    3    3    0    0 -0.32763306652E+02 -0.23230809668E+02  0.33759193731E+03  0.36182474026E+03  0.12383748120E+03 0.  0.
         25    2    3    3    0    0  0.32763306652E+02  0.23230809668E+02  0.62120448698E+03  0.63533439113E+03  0.12704986868E+03 0.  0.
          5    1    4    4  502    0 -0.34105678009E+02  0.39197716784E+02  0.71778427759E+02  0.88734947823E+02  0.47000000000E+01 0.  1.
         -5    1    4    4    0  502  0.13423713579E+01 -0.62428526452E+02  0.26581350955E+03  0.27308979244E+03  0.47000000000E+01 0.  1.
          5    1    5    5  503    0  0.72000805792E+02 -0.18450677118E+02  0.30544810899E+03  0.31439653434E+03  0.47000000000E+01 0.  1.
         -5    1    5    5    0  503 -0.39237499140E+02  0.41681486786E+02  0.31575637800E+03  0.32093785679E+03  0.47000000000E+01 0.  1.
<mgrwt>
<rscale>  0 0.27392654E+03</rscale>
<asrwt>0</asrwt>
<pdfrwt beam="1">  1        2 0.15045808E+00 0.27392654E+03</pdfrwt>
<pdfrwt beam="2">  1       -2 0.29509782E-02 0.27392654E+03</pdfrwt>
<totfact> 0.11730242E+04</totfact>
</mgrwt>
</event>
<event>
 9    1  0.2031653E-002  0.2755741E+03  0.7818608E-02  0.1098131E+00
          1   -1    0    0  501    0  0.00000000000E+00  0.00000000000E+00  0.94637256396E+03  0.94637256396E+03  0.00000000000E+00 0.  1.
         -1   -1    0    0    0  501 -0.00000000000E+00 -0.00000000000E+00 -0.20061093150E+02  0.20061093150E+02  0.00000000000E+00 0.  1.
         36    2    1    2    0    0  0.00000000000E+00  0.00000000000E+00  0.92631147081E+03  0.96643365711E+03  0.27557407832E+03 0.  0.
         25    2    3    3    0    0 -0.54453290577E+02  0.16391522859E+02  0.51934339443E+03  0.53748027716E+03  0.12622853924E+03 0.  0.
         25    2    3    3    0    0  0.54453290577E+02 -0.16391522859E+02  0.40696807638E+03  0.42895337995E+03  0.12306154601E+03 0.  0.
          5    1    4    4  502    0  0.10881763567E+02 -0.37080706347E+02  0.29805695851E+03  0.30058847629E+03  0.47000000000E+01 0. -1.
         -5    1    4    4    0  502 -0.65335054144E+02  0.53472229206E+02  0.22128643593E+03  0.23689180087E+03  0.47000000000E+01 0. -1.
          5    1    5    5  503    0  0.12226902745E+02 -0.99380514956E+00  0.37090212616E+03  0.37113469521E+03  0.47000000000E+01 0.  1.
         -5    1    5    5    0  503  0.42226387831E+02 -0.15397717709E+02  0.36065950215E+02  0.57818684738E+02  0.47000000000E+01 0.  1.
<mgrwt>
<rscale>  0 0.27557408E+03</rscale>
<asrwt>0</asrwt>
<pdfrwt beam="1">  1        1 0.14559574E+00 0.27557408E+03</pdfrwt>
<pdfrwt beam="2">  1       -1 0.30863228E-02 0.27557408E+03</pdfrwt>
<totfact> 0.63487188E+03</totfact>
</mgrwt>
</event>
<event>
 9    1  0.2031653E-002  0.2752218E+03  0.7818608E-02  0.1098328E+00
         -2   -1    0    0    0  501 -0.00000000000E+00  0.00000000000E+00  0.23949007589E+02  0.23949007589E+02  0.00000000000E+00 0. -1.
          2   -1    0    0  501    0  0.00000000000E+00 -0.00000000000E+00 -0.79071161547E+03  0.79071161547E+03  0.00000000000E+00 0. -1.
         36    2    1    2    0    0  0.00000000000E+00  0.00000000000E+00 -0.76676260788E+03  0.81466062306E+03  0.27522179042E+03 0.  0.
         25    2    3    3    0    0  0.44360304425E+02  0.40843864743E+02 -0.47755159703E+03  0.49705656575E+03  0.12399049900E+03 0.  0.
         25    2    3    3    0    0 -0.44360304425E+02 -0.40843864743E+02 -0.28921101086E+03  0.31760405731E+03  0.11659018193E+03 0.  0.
          5    1    4    4  502    0  0.51138459460E+02  0.71905174864E+02 -0.43415580083E+03  0.44305625558E+03  0.47000000000E+01 0.  1.
         -5    1    4    4    0  502 -0.67781550349E+01 -0.31061310120E+02 -0.43395796192E+02  0.54000310177E+02  0.47000000000E+01 0.  1.
          5    1    5    5  503    0  0.87706424560E+00 -0.53190894409E+02 -0.25188944554E+03  0.25748868570E+03  0.47000000000E+01 0. -1.
         -5    1    5    5    0  503 -0.45237368670E+02  0.12347029666E+02 -0.37321565319E+02  0.60115371609E+02  0.47000000000E+01 0. -1.
<mgrwt>
<rscale>  0 0.27522179E+03</rscale>
<asrwt>0</asrwt>
<pdfrwt beam="1">  1        2 0.12164795E+00 0.27522179E+03</pdfrwt>
<pdfrwt beam="2">  1       -2 0.36844625E-02 0.27522179E+03</pdfrwt>
<totfact> 0.11165527E+04</totfact>
</mgrwt>
</event>
<event>
 9    1  0.2031653E-002  0.2740684E+03  0.7818608E-02  0.1098973E+00
          2   -1    0    0  501    0  0.00000000000E+00  0.00000000000E+00  0.29216762337E+03  0.29216762337E+03  0.00000000000E+00 0. -1.
         -2   -1    0    0    0  501 -0.00000000000E+00 -0.00000000000E+00 -0.64272581935E+02  0.64272581935E+02  0.00000000000E+00 0. -1.
         36    2    1    2    0    0  0.71054273576E-14 -0.35527136788E-14  0.22789504144E+03  0.35644020531E+03  0.27406836747E+03 0.  0.
         25    2    3    3    0    0 -0.26700674893E+02  0.28870538328E+02  0.17112833494E+03  0.21478751290E+03  0.12370260570E+03 0.  0.
         25    2    3    3    0    0  0.26700674893E+02 -0.28870538328E+02  0.56766706500E+02  0.14165269240E+03  0.12367939309E+03 0.  0.
          5    1    4    4  502    0  0.84608204123E+00  0.22036338790E+02  0.18247464962E+03  0.18386245902E+03  0.47000000000E+01 0.  1.
         -5    1    4    4    0  502 -0.27546756934E+02  0.68341995378E+01 -0.11346314682E+02  0.30925053885E+02  0.47000000000E+01 0.  1.
          5    1    5    5  503    0 -0.37770333057E+02  0.21519866886E+02  0.34176480422E+01  0.43857417254E+02  0.47000000000E+01 0.  1.
         -5    1    5    5    0  503  0.64471007950E+02 -0.50390405213E+02  0.53349058458E+02  0.97795275151E+02  0.47000000000E+01 0.  1.
<mgrwt>
<rscale>  0 0.27406837E+03</rscale>
<asrwt>0</asrwt>
<pdfrwt beam="1">  1        2 0.44948864E-01 0.27406837E+03</pdfrwt>
<pdfrwt beam="2">  1       -2 0.98880897E-02 0.27406837E+03</pdfrwt>
<totfact> 0.75443583E+03</totfact>
</mgrwt>
</event>
<event>
 9    1  0.2031653E-002  0.2743051E+03  0.7818608E-02  0.1098841E+00
          2   -1    0    0  501    0  0.00000000000E+00  0.00000000000E+00  0.20972213244E+03  0.20972213244E+03  0.00000000000E+00 0.  1.
         -2   -1    0    0    0  501 -0.00000000000E+00 -0.00000000000E+00 -0.89694042819E+02  0.89694042819E+02  0.00000000000E+00 0.  1.
         36    2    1    2    0    0  0.35527136788E-14 -0.71054273576E-14  0.12002808962E+03  0.29941617526E+03  0.27430512884E+03 0.  0.
         25    2    3    3    0    0 -0.13001980230E+02 -0.48400049428E+02  0.43439286510E+02  0.14326435090E+03  0.12698852842E+03 0.  0.
         25    2    3    3    0    0  0.13001980230E+02  0.48400049428E+02  0.76588803110E+02  0.15615182436E+03  0.12651454942E+03 0.  0.
          5    1    4    4  502    0 -0.39014643997E+02 -0.56597291659E+02  0.74624700782E+02  0.10156934496E+03  0.47000000000E+01 0. -1.
         -5    1    4    4    0  502  0.26012663767E+02  0.81972422309E+01 -0.31185414272E+02  0.41695005933E+02  0.47000000000E+01 0. -1.
          5    1    5    5  503    0 -0.42907432442E+02  0.64548008448E+02  0.41734510753E+02  0.88155275175E+02  0.47000000000E+01 0.  1.
         -5    1    5    5    0  503  0.55909412672E+02 -0.16147959020E+02  0.34854292358E+02  0.67996549189E+02  0.47000000000E+01 0.  1.
<mgrwt>
<rscale>  0 0.27430513E+03</rscale>
<asrwt>0</asrwt>
<pdfrwt beam="1">  1        2 0.32264943E-01 0.27430513E+03</pdfrwt>
<pdfrwt beam="2">  1       -2 0.13799084E-01 0.27430513E+03</pdfrwt>
<totfact> 0.63115763E+03</totfact>
</mgrwt>
</event>
<event>
 8    1  0.2031653E-002  0.3405383E+03  0.7818608E-02  0.1066567E+00
          2   -1    0    0  501    0  0.00000000000E+00  0.00000000000E+00  0.34989573253E+03  0.34989573253E+03  0.00000000000E+00 0. -1.
         -2   -1    0    0    0  501 -0.00000000000E+00 -0.00000000000E+00 -0.82857769468E+02  0.82857769468E+02  0.00000000000E+00 0. -1.
         25    2    1    2    0    0  0.73264858523E+02  0.76412087914E+02  0.20156696092E+03  0.25644454207E+03  0.11801701890E+03 0.  0.
         25    2    1    2    0    0 -0.73264858523E+02 -0.76412087914E+02  0.65471002146E+02  0.17630895993E+03  0.12486733182E+03 0.  0.
          5    1    3    3  502    0 -0.23860225316E+02 -0.11204056401E+02  0.45103720374E+02  0.52452615031E+02  0.47000000000E+01 0.  1.
         -5    1    3    3    0  502  0.97125083839E+02  0.87616144315E+02  0.15646324054E+03  0.20399192704E+03  0.47000000000E+01 0.  1.
          5    1    4    4  503    0 -0.67216435468E+02 -0.65548876861E+02  0.10123804659E+03  0.13815186040E+03  0.47000000000E+01 0. -1.
         -5    1    4    4    0  503 -0.60484230550E+01 -0.10863211053E+02 -0.35767044448E+02  0.38157099527E+02  0.47000000000E+01 0. -1.
<mgrwt>
<rscale>  0 0.34053828E+03</rscale>
<asrwt>0</asrwt>
<pdfrwt beam="1">  1        2 0.53830112E-01 0.34053828E+03</pdfrwt>
<pdfrwt beam="2">  1       -2 0.12747349E-01 0.34053828E+03</pdfrwt>
<totfact> 0.41520358E+03</totfact>
</mgrwt>
</event>
<event>
 9    1  0.2031653E-002  0.2747254E+03  0.7818608E-02  0.1098605E+00
          1   -1    0    0  501    0  0.00000000000E+00  0.00000000000E+00  0.27640328688E+03  0.27640328688E+03  0.00000000000E+00 0.  1.
         -1   -1    0    0    0  501 -0.00000000000E+00 -0.00000000000E+00 -0.68264447629E+02  0.68264447629E+02  0.00000000000E+00 0.  1.
         36    2    1    2    0    0  0.00000000000E+00  0.35527136788E-14  0.20813883925E+03  0.34466773451E+03  0.27472544623E+03 0.  0.
         25    2    3    3    0    0  0.41588994288E+02  0.19737262995E+02  0.82721563342E+02  0.15827249687E+03  0.12683896178E+03 0.  0.
         25    2    3    3    0    0 -0.41588994288E+02 -0.19737262995E+02  0.12541727591E+03  0.18639523764E+03  0.12997879643E+03 0.  0.
          5    1    4    4  502    0  0.10481349306E+02 -0.12775062871E+02 -0.31243705612E+02  0.35655575371E+02  0.47000000000E+01 0. -1.
         -5    1    4    4    0  502  0.31107644982E+02  0.32512325865E+02  0.11396526895E+03  0.12261692150E+03  0.47000000000E+01 0. -1.
          5    1    5    5  503    0 -0.23998073098E+02 -0.12727153705E+02  0.15140739603E+03  0.15389664560E+03  0.47000000000E+01 0.  1.
         -5    1    5    5    0  503 -0.17590921190E+02 -0.70101092893E+01 -0.25990120124E+02  0.32498592041E+02  0.47000000000E+01 0.  1.
<mgrwt>
<rscale>  0 0.27472545E+03</rscale>
<asrwt>0</asrwt>
<pdfrwt beam="1">  1        1 0.42523582E-01 0.27472545E+03</pdfrwt>
<pdfrwt beam="2">  1       -1 0.10502223E-01 0.27472545E+03</pdfrwt>
<totfact> 0.54529400E+03</totfact>
</mgrwt>
</event>
<event>
 9    1  0.2031653E-002  0.2768625E+03  0.7818608E-02  0.1097415E+00
         -1   -1    0    0    0  501 -0.00000000000E+00  0.00000000000E+00  0.21990380303E+03  0.21990380303E+03  0.00000000000E+00 0. -1.
          1   -1    0    0  501    0  0.00000000000E+00 -0.00000000000E+00 -0.87143625043E+02  0.87143625043E+02  0.00000000000E+00 0. -1.
         36    2    1    2    0    0 -0.35527136788E-14 -0.14210854715E-13  0.13276017799E+03  0.30704742808E+03  0.27686252586E+03 0.  0.
         25    2    3    3    0    0 -0.11283433331E+02 -0.80704899543E+02  0.61001387094E+02  0.15957658099E+03  0.12289393515E+03 0.  0.
         25    2    3    3    0    0  0.11283433331E+02  0.80704899543E+02  0.71758790896E+02  0.14747084708E+03  0.99788426135E+02 0.  0.
          5    1    4    4  502    0  0.95285068310E+01 -0.58115123307E+00 -0.32740604537E+02  0.34426259812E+02  0.47000000000E+01 0.  1.
         -5    1    4    4    0  502 -0.20811940162E+02 -0.80123748310E+02  0.93741991632E+02  0.12515032118E+03  0.47000000000E+01 0.  1.
          5    1    5    5  503    0  0.29747845644E+02  0.62254389709E+02  0.91293982881E+02  0.11453045302E+03  0.47000000000E+01 0.  1.
         -5    1    5    5    0  503 -0.18464412313E+02  0.18450509834E+02 -0.19535191985E+02  0.32940394064E+02  0.47000000000E+01 0.  1.
<mgrwt>
<rscale>  0 0.27686253E+03</rscale>
<asrwt>0</asrwt>
<pdfrwt beam="1">  1        1 0.13406712E-01 0.27686253E+03</pdfrwt>
<pdfrwt beam="2">  1       -1 0.33831354E-01 0.27686253E+03</pdfrwt>
<totfact> 0.35733236E+03</totfact>
</mgrwt>
</event>
<event>
 9    1  0.2031653E-002  0.2749035E+03  0.7818608E-02  0.1098506E+00
          2   -1    0    0  501    0  0.00000000000E+00  0.00000000000E+00  0.20407614691E+04  0.20407614691E+04  0.00000000000E+00 0.  1.
         -2   -1    0    0    0  501 -0.00000000000E+00 -0.00000000000E+00 -0.92578119116E+01  0.92578119116E+01  0.00000000000E+00 0.  1.
         36    2    1    2    0    0  0.14210854715E-13  0.00000000000E+00  0.20315036572E+04  0.20500192810E+04  0.27490351644E+03 0.  0.
         25    2    3    3    0    0 -0.47645387014E+02  0.23923157118E+02  0.16247673585E+04  0.16305803385E+04  0.12681037277E+03 0.  0.
         25    2    3    3    0    0  0.47645387014E+02 -0.23923157118E+02  0.40673629874E+03  0.41943894258E+03  0.87476908334E+02 0.  0.
          5    1    4    4  502    0 -0.50768731765E+01  0.11775678002E+02  0.14552843332E+04  0.14553484193E+04  0.47000000000E+01 0. -1.
         -5    1    4    4    0  502 -0.42568513838E+02  0.12147479115E+02  0.16948302531E+03  0.17523191915E+03  0.47000000000E+01 0. -1.
          5    1    5    5  503    0  0.20254008469E+02  0.31553806985E+02  0.11076684925E+03  0.11703526172E+03  0.47000000000E+01 0.  1.
         -5    1    5    5    0  503  0.27391378545E+02 -0.55476964102E+02  0.29596944949E+03  0.30240368086E+03  0.47000000000E+01 0.  1.
<mgrwt>
<rscale>  0 0.27490352E+03</rscale>
<asrwt>0</asrwt>
<pdfrwt beam="1">  1        2 0.31396295E+00 0.27490352E+03</pdfrwt>
<pdfrwt beam="2">  1       -2 0.14242804E-02 0.27490352E+03</pdfrwt>
<totfact> 0.89994511E+03</totfact>
</mgrwt>
</event>
<event>
 9    1  0.2031653E-002  0.2752439E+03  0.7818608E-02  0.1098315E+00
         -2   -1    0    0    0  501 -0.00000000000E+00  0.00000000000E+00  0.15051418784E+02  0.15051418784E+02  0.00000000000E+00 0.  1.
          2   -1    0    0  501    0  0.00000000000E+00 -0.00000000000E+00 -0.12583394680E+04  0.12583394680E+04  0.00000000000E+00 0.  1.
         36    2    1    2    0    0 -0.71054273576E-14 -0.71054273576E-14 -0.12432880492E+04  0.12733908868E+04  0.27524385047E+03 0.  0.
         25    2    3    3    0    0 -0.10018574712E+02 -0.40524160262E+02 -0.78023657212E+03  0.79125132493E+03  0.12476766939E+03 0.  0.
         25    2    3    3    0    0  0.10018574712E+02  0.40524160262E+02 -0.46305147712E+03  0.48213956188E+03  0.12766874034E+03 0.  0.
          5    1    4    4  502    0  0.28855122543E+02  0.34351831796E+02 -0.21013525028E+03  0.21492226468E+03  0.47000000000E+01 0. -1.
         -5    1    4    4    0  502 -0.38873697255E+02 -0.74875992058E+02 -0.57010132184E+03  0.57632906025E+03  0.47000000000E+01 0. -1.
          5    1    5    5  503    0  0.26307421569E+02  0.48187845584E+02 -0.72096727518E+02  0.90742366128E+02  0.47000000000E+01 0.  1.
         -5    1    5    5    0  503 -0.16288846858E+02 -0.76636853226E+01 -0.39095474960E+03  0.39139719575E+03  0.47000000000E+01 0.  1.
<mgrwt>
<rscale>  0 0.27524385E+03</rscale>
<asrwt>0</asrwt>
<pdfrwt beam="1">  1        2 0.19359072E+00 0.27524385E+03</pdfrwt>
<pdfrwt beam="2">  1       -2 0.23156025E-02 0.27524385E+03</pdfrwt>
<totfact> 0.11515787E+04</totfact>
</mgrwt>
</event>
<event>
 9    1  0.2031653E-002  0.2743768E+03  0.7818608E-02  0.1098800E+00
         -4   -1    0    0    0  501 -0.00000000000E+00  0.00000000000E+00  0.12951729553E+03  0.12951729553E+03  0.00000000000E+00 0.  1.
          4   -1    0    0  501    0  0.00000000000E+00 -0.00000000000E+00 -0.14531384229E+03  0.14531384229E+03  0.00000000000E+00 0.  1.
         36    2    1    2    0    0  0.00000000000E+00  0.00000000000E+00 -0.15796546762E+02  0.27483113783E+03  0.27437679098E+03 0.  0.
         25    2    3    3    0    0  0.95231372289E+01 -0.27583643728E+02 -0.49331266344E+02  0.13838978719E+03  0.12596273979E+03 0.  0.
         25    2    3    3    0    0 -0.95231372289E+01  0.27583643728E+02  0.33534719582E+02  0.13644135063E+03  0.12899657826E+03 0.  0.
          5    1    4    4  502    0  0.17924679860E+02 -0.14915310050E+02  0.40603482082E+02  0.47058403916E+02  0.47000000000E+01 0. -1.
         -5    1    4    4    0  502 -0.84015426309E+01 -0.12668333678E+02 -0.89934748426E+02  0.91331383276E+02  0.47000000000E+01 0. -1.
          5    1    5    5  503    0  0.23524390679E+02 -0.44573029521E+02  0.12536546947E+01  0.50634114661E+02  0.47000000000E+01 0.  1.
         -5    1    5    5    0  503 -0.33047527908E+02  0.72156673248E+02  0.32281064887E+02  0.85807235973E+02  0.47000000000E+01 0.  1.
<mgrwt>
<rscale>  0 0.27437679E+03</rscale>
<asrwt>0</asrwt>
<pdfrwt beam="1">  1        4 0.22355976E-01 0.27437679E+03</pdfrwt>
<pdfrwt beam="2">  1       -4 0.19925738E-01 0.27437679E+03</pdfrwt>
<totfact> 0.78432556E+02</totfact>
</mgrwt>
</event>
<event>
 9    1  0.2031653E-002  0.2759788E+03  0.7818608E-02  0.1097906E+00
         -1   -1    0    0    0  501 -0.00000000000E+00  0.00000000000E+00  0.12900435409E+03  0.12900435409E+03  0.00000000000E+00 0.  1.
          1   -1    0    0  501    0  0.00000000000E+00 -0.00000000000E+00 -0.14760022275E+03  0.14760022275E+03  0.00000000000E+00 0.  1.
         36    2    1    2    0    0 -0.71054273576E-14 -0.17763568394E-14 -0.18595868657E+02  0.27660457684E+03  0.27597877744E+03 0.  0.
         25    2    3    3    0    0  0.40727098142E+02 -0.13755467594E+02 -0.50789051009E+02  0.14330556835E+03  0.12692142768E+03 0.  0.
         25    2    3    3    0    0 -0.40727098142E+02  0.13755467594E+02  0.32193182352E+02  0.13329900849E+03  0.12200129205E+03 0.  0.
          5    1    4    4  502    0  0.73540060530E+02  0.28975206365E+02 -0.22732794011E+02  0.82380659200E+02  0.47000000000E+01 0. -1.
         -5    1    4    4    0  502 -0.32812962388E+02 -0.42730673959E+02 -0.28056256998E+02  0.60924909146E+02  0.47000000000E+01 0. -1.
          5    1    5    5  503    0 -0.83806210384E+02  0.49839362298E+01  0.29094585947E+02  0.88976993941E+02  0.47000000000E+01 0.  1.
         -5    1    5    5    0  503  0.43079112242E+02  0.87715313639E+01  0.30985964049E+01  0.44322014550E+02  0.47000000000E+01 0.  1.
<mgrwt>
<rscale>  0 0.27597878E+03</rscale>
<asrwt>0</asrwt>
<pdfrwt beam="1">  1        1 0.22707727E-01 0.27597878E+03</pdfrwt>
<pdfrwt beam="2">  1       -1 0.19846824E-01 0.27597878E+03</pdfrwt>
<totfact> 0.43951898E+03</totfact>
</mgrwt>
</event>
<event>
 9    1  0.2031653E-002  0.2749002E+03  0.7818608E-02  0.1098507E+00
          2   -1    0    0  501    0  0.00000000000E+00  0.00000000000E+00  0.10563313452E+04  0.10563313452E+04  0.00000000000E+00 0. -1.
         -2   -1    0    0    0  501 -0.00000000000E+00 -0.00000000000E+00 -0.17885041095E+02  0.17885041095E+02  0.00000000000E+00 0. -1.
         36    2    1    2    0    0  0.35527136788E-14  0.00000000000E+00  0.10384463041E+04  0.10742163863E+04  0.27490019657E+03 0.  0.
         25    2    3    3    0    0 -0.23037204133E+02  0.36000924321E+02  0.72050608556E+03  0.73084959442E+03  0.11482739658E+03 0.  0.
         25    2    3    3    0    0  0.23037204133E+02 -0.36000924321E+02  0.31794021858E+03  0.34336679191E+03  0.12242545434E+03 0.  0.
          5    1    4    4  502    0 -0.38337263368E+01  0.58356135043E+02  0.17590367210E+03  0.18543011572E+03  0.47000000000E+01 0.  1.
         -5    1    4    4    0  502 -0.19203477797E+02 -0.22355210722E+02  0.54460241345E+03  0.54541947870E+03  0.47000000000E+01 0.  1.
          5    1    5    5  503    0  0.42948288079E+01 -0.22537929538E+02  0.31893665115E+03  0.31979537406E+03  0.47000000000E+01 0. -1.
         -5    1    5    5    0  503  0.18742375326E+02 -0.13462994782E+02 -0.99643257712E+00  0.23571417845E+02  0.47000000000E+01 0. -1.
<mgrwt>
<rscale>  0 0.27490020E+03</rscale>
<asrwt>0</asrwt>
<pdfrwt beam="1">  1        2 0.16251247E+00 0.27490020E+03</pdfrwt>
<pdfrwt beam="2">  1       -2 0.27515456E-02 0.27490020E+03</pdfrwt>
<totfact> 0.11664681E+04</totfact>
</mgrwt>
</event>
<event>
 9    1  0.2031653E-002  0.2746687E+03  0.7818608E-02  0.1098637E+00
         -2   -1    0    0    0  501 -0.00000000000E+00  0.00000000000E+00  0.10369775230E+02  0.10369775230E+02  0.00000000000E+00 0.  1.
          2   -1    0    0  501    0  0.00000000000E+00 -0.00000000000E+00 -0.18188166270E+04  0.18188166270E+04  0.00000000000E+00 0.  1.
         36    2    1    2    0    0  0.00000000000E+00  0.00000000000E+00 -0.18084468517E+04  0.18291864022E+04  0.27466867026E+03 0.  0.
         25    2    3    3    0    0 -0.13462008876E+02 -0.41473687758E+02 -0.12152642016E+04  0.12218291576E+04  0.11873549624E+03 0.  0.
         25    2    3    3    0    0  0.13462008876E+02  0.41473687758E+02 -0.59318265009E+03  0.60735724461E+03  0.12294662969E+03 0.  0.
          5    1    4    4  502    0 -0.34767530847E+02  0.33233904208E+02 -0.50948250525E+03  0.51176927101E+03  0.47000000000E+01 0.  1.
         -5    1    4    4    0  502  0.21305521971E+02 -0.74707591966E+02 -0.70578169640E+03  0.71005988658E+03  0.47000000000E+01 0.  1.
          5    1    5    5  503    0 -0.49148037493E+02  0.27034099426E+02 -0.39436377368E+03  0.39836070101E+03  0.47000000000E+01 0. -1.
         -5    1    5    5    0  503  0.62610046369E+02  0.14439588332E+02 -0.19881887642E+03  0.20899654360E+03  0.47000000000E+01 0. -1.
<mgrwt>
<rscale>  0 0.27466867E+03</rscale>
<asrwt>0</asrwt>
<pdfrwt beam="1">  1        2 0.27981803E+00 0.27466867E+03</pdfrwt>
<pdfrwt beam="2">  1       -2 0.15953496E-02 0.27466867E+03</pdfrwt>
<totfact> 0.99714296E+03</totfact>
</mgrwt>
</event>
<event>
 9    1  0.2031653E-002  0.2740835E+03  0.7818608E-02  0.1098965E+00
         -1   -1    0    0    0  501 -0.00000000000E+00  0.00000000000E+00  0.95473192242E+02  0.95473192242E+02  0.00000000000E+00 0.  1.
          1   -1    0    0  501    0  0.00000000000E+00 -0.00000000000E+00 -0.19670908881E+03  0.19670908881E+03  0.00000000000E+00 0.  1.
         36    2    1    2    0    0 -0.71054273576E-14  0.00000000000E+00 -0.10123589657E+03  0.29218228106E+03  0.27408352488E+03 0.  0.
         25    2    3    3    0    0 -0.25277632669E+02 -0.50535927933E+02 -0.21034357518E+02  0.13297177239E+03  0.11851670486E+03 0.  0.
         25    2    3    3    0    0  0.25277632669E+02  0.50535927933E+02 -0.80201539054E+02  0.15921050866E+03  0.12539083091E+03 0.  0.
          5    1    4    4  502    0 -0.35928392048E+02 -0.86053868910E+02 -0.94898381335E+01  0.93852356057E+02  0.47000000000E+01 0.  1.
         -5    1    4    4    0  502  0.10650759379E+02  0.35517940977E+02 -0.11544519384E+02  0.39119416336E+02  0.47000000000E+01 0.  1.
          5    1    5    5  503    0  0.34152596600E+02  0.63335078503E+02  0.51773807552E+01  0.72295416833E+02  0.47000000000E+01 0.  1.
         -5    1    5    5    0  503 -0.88749639313E+01 -0.12799150570E+02 -0.85378919809E+02  0.86915091830E+02  0.47000000000E+01 0.  1.
<mgrwt>
<rscale>  0 0.27408352E+03</rscale>
<asrwt>0</asrwt>
<pdfrwt beam="1">  1        1 0.30262936E-01 0.27408352E+03</pdfrwt>
<pdfrwt beam="2">  1       -1 0.14688184E-01 0.27408352E+03</pdfrwt>
<totfact> 0.49441365E+03</totfact>
</mgrwt>
</event>
<event>
 9    1  0.2031653E-002  0.2640404E+03  0.7818608E-02  0.1104740E+00
         -2   -1    0    0    0  501 -0.00000000000E+00  0.00000000000E+00  0.16179111870E+02  0.16179111870E+02  0.00000000000E+00 0.  1.
          2   -1    0    0  501    0  0.00000000000E+00 -0.00000000000E+00 -0.10772736561E+04  0.10772736561E+04  0.00000000000E+00 0.  1.
         36    2    1    2    0    0  0.00000000000E+00  0.14210854715E-13 -0.10610945442E+04  0.10934527679E+04  0.26404038324E+03 0.  0.
         25    2    3    3    0    0  0.32761483209E+02  0.52677606391E+02 -0.62161903285E+03  0.63653906425E+03  0.12216183249E+03 0.  0.
         25    2    3    3    0    0 -0.32761483209E+02 -0.52677606391E+02 -0.43947551133E+03  0.45691370367E+03  0.10855027658E+03 0.  0.
          5    1    4    4  502    0 -0.31320734166E+02  0.26931491931E+00 -0.51776984158E+02  0.60696021350E+02  0.47000000000E+01 0.  1.
         -5    1    4    4    0  502  0.64082217375E+02  0.52408291472E+02 -0.56984204870E+03  0.57584304290E+03  0.47000000000E+01 0.  1.
          5    1    5    5  503    0 -0.53696899008E+02 -0.41207492397E+02 -0.13143977113E+03  0.14791861893E+03  0.47000000000E+01 0. -1.
         -5    1    5    5    0  503  0.20935415800E+02 -0.11470113994E+02 -0.30803574020E+03  0.30899508474E+03  0.47000000000E+01 0. -1.
<mgrwt>
<rscale>  0 0.26404038E+03</rscale>
<asrwt>0</asrwt>
<pdfrwt beam="1">  1        2 0.16573445E+00 0.26404038E+03</pdfrwt>
<pdfrwt beam="2">  1       -2 0.24890935E-02 0.26404038E+03</pdfrwt>
<totfact> 0.13132349E+04</totfact>
</mgrwt>
</event>
<event>
 9    1  0.2031653E-002  0.2757263E+03  0.7818608E-02  0.1098046E+00
          1   -1    0    0  501    0  0.00000000000E+00  0.00000000000E+00  0.54761380229E+03  0.54761380229E+03  0.00000000000E+00 0. -1.
         -1   -1    0    0    0  501 -0.00000000000E+00 -0.00000000000E+00 -0.34707406126E+02  0.34707406126E+02  0.00000000000E+00 0. -1.
         36    2    1    2    0    0  0.00000000000E+00  0.35527136788E-14  0.51290639617E+03  0.58232120842E+03  0.27572634721E+03 0.  0.
         25    2    3    3    0    0  0.43056403278E+02  0.17254717370E+02  0.15786628097E+03  0.20251520997E+03  0.11806383217E+03 0.  0.
         25    2    3    3    0    0 -0.43056403278E+02 -0.17254717370E+02  0.35504011520E+03  0.37980599845E+03  0.12667886139E+03 0.  0.
          5    1    4    4  502    0  0.62162934567E+02  0.36233922610E+02  0.41954029568E+02  0.83422767747E+02  0.47000000000E+01 0. -1.
         -5    1    4    4    0  502 -0.19106531288E+02 -0.18979205240E+02  0.11591225141E+03  0.11909244223E+03  0.47000000000E+01 0. -1.
          5    1    5    5  503    0 -0.50192334913E+02  0.47433443733E+02  0.16749694854E+03  0.18123608867E+03  0.47000000000E+01 0. -1.
         -5    1    5    5    0  503  0.71359316345E+01 -0.64688161103E+02  0.18754316666E+03  0.19856990978E+03  0.47000000000E+01 0. -1.
<mgrwt>
<rscale>  0 0.27572635E+03</rscale>
<asrwt>0</asrwt>
<pdfrwt beam="1">  1        1 0.84248271E-01 0.27572635E+03</pdfrwt>
<pdfrwt beam="2">  1       -1 0.53396014E-02 0.27572635E+03</pdfrwt>
<totfact> 0.63365312E+03</totfact>
</mgrwt>
</event>
<event>
 9    1  0.2031653E-002  0.2749155E+03  0.7818608E-02  0.1098499E+00
         -2   -1    0    0    0  501 -0.00000000000E+00  0.00000000000E+00  0.65697716987E+01  0.65697716987E+01  0.00000000000E+00 0. -1.
          2   -1    0    0  501    0  0.00000000000E+00 -0.00000000000E+00 -0.28759951625E+04  0.28759951625E+04  0.00000000000E+00 0. -1.
         36    2    1    2    0    0  0.00000000000E+00  0.00000000000E+00 -0.28694253908E+04  0.28825649342E+04  0.27491548974E+03 0.  0.
         25    2    3    3    0    0 -0.63073105865E+01 -0.67363043192E+02 -0.14854966556E+04  0.14922856444E+04  0.12505426375E+03 0.  0.
         25    2    3    3    0    0  0.63073105865E+01  0.67363043192E+02 -0.13839287352E+04  0.13902792899E+04  0.11419368554E+03 0.  0.
          5    1    4    4  502    0  0.57315082543E+01 -0.55965357558E+02 -0.14622983583E+04  0.14633876965E+04  0.47000000000E+01 0. -1.
         -5    1    4    4    0  502 -0.12038818841E+02 -0.11397685634E+02 -0.23198297271E+02  0.28897947906E+02  0.47000000000E+01 0. -1.
          5    1    5    5  503    0 -0.32295067355E+02 -0.14544874220E+02 -0.61231823627E+03  0.61335979426E+03  0.47000000000E+01 0.  1.
         -5    1    5    5    0  503  0.38602377941E+02  0.81907917411E+02 -0.77161049898E+03  0.77691949560E+03  0.47000000000E+01 0.  1.
<mgrwt>
<rscale>  0 0.27491549E+03</rscale>
<asrwt>0</asrwt>
<pdfrwt beam="1">  1        2 0.44246228E+00 0.27491549E+03</pdfrwt>
<pdfrwt beam="2">  1       -2 0.10107307E-02 0.27491549E+03</pdfrwt>
<totfact> 0.51710139E+03</totfact>
</mgrwt>
</event>
<event>
 9    1  0.2031653E-002  0.2747571E+03  0.7818608E-02  0.1098587E+00
          2   -1    0    0  501    0  0.00000000000E+00  0.00000000000E+00  0.52932095976E+03  0.52932095976E+03  0.00000000000E+00 0. -1.
         -2   -1    0    0    0  501 -0.00000000000E+00 -0.00000000000E+00 -0.35654875051E+02  0.35654875051E+02  0.00000000000E+00 0. -1.
         36    2    1    2    0    0 -0.14210854715E-13 -0.35527136788E-14  0.49366608471E+03  0.56497583481E+03  0.27475714864E+03 0.  0.
         25    2    3    3    0    0 -0.44823295824E+02 -0.12840539092E+02  0.32893512790E+03  0.35523160617E+03  0.12576632445E+03 0.  0.
         25    2    3    3    0    0  0.44823295824E+02  0.12840539092E+02  0.16473095681E+03  0.20974422863E+03  0.12117073088E+03 0.  0.
          5    1    4    4  502    0 -0.88248177647E+02 -0.27153690951E+01  0.19834614964E+03  0.21715984703E+03  0.47000000000E+01 0. -1.
         -5    1    4    4    0  502  0.43424881823E+02 -0.10125169997E+02  0.13058897826E+03  0.13807175914E+03  0.47000000000E+01 0. -1.
          5    1    5    5  503    0  0.55889933320E+02 -0.34160043974E+02  0.14141213789E+03  0.15591688809E+03  0.47000000000E+01 0.  1.
         -5    1    5    5    0  503 -0.11066637496E+02  0.47000583066E+02  0.23318818922E+02  0.53827340543E+02  0.47000000000E+01 0.  1.
<mgrwt>
<rscale>  0 0.27475715E+03</rscale>
<asrwt>0</asrwt>
<pdfrwt beam="1">  1        2 0.81433988E-01 0.27475715E+03</pdfrwt>
<pdfrwt beam="2">  1       -2 0.54853658E-02 0.27475715E+03</pdfrwt>
<totfact> 0.98581527E+03</totfact>
</mgrwt>
</event>
<event>
 9    1  0.2031653E-002  0.2771312E+03  0.7818608E-02  0.1097266E+00
          4   -1    0    0  501    0  0.00000000000E+00  0.00000000000E+00  0.41232034701E+03  0.41232034701E+03  0.00000000000E+00 0. -1.
         -4   -1    0    0    0  501 -0.00000000000E+00 -0.00000000000E+00 -0.46566779112E+02  0.46566779112E+02  0.00000000000E+00 0. -1.
         36    2    1    2    0    0 -0.35527136788E-14  0.00000000000E+00  0.36575356790E+03  0.45888712612E+03  0.27713123622E+03 0.  0.
         25    2    3    3    0    0 -0.74396194476E+01  0.59993512737E+02  0.23598136724E+03  0.27352024982E+03  0.12438469306E+03 0.  0.
         25    2    3    3    0    0  0.74396194476E+01 -0.59993512737E+02  0.12977220066E+03  0.18536687630E+03  0.11775179514E+03 0.  0.
          5    1    4    4  502    0 -0.52804924730E+02  0.36655157970E+02  0.52826354908E+02  0.83334713382E+02  0.47000000000E+01 0.  1.
         -5    1    4    4    0  502  0.45365305282E+02  0.23338354767E+02  0.18315501233E+03  0.19018553644E+03  0.47000000000E+01 0.  1.
          5    1    5    5  503    0 -0.10399439754E+02 -0.65049130912E+02  0.13343187732E+02  0.67377061664E+02  0.47000000000E+01 0.  1.
         -5    1    5    5    0  503  0.17839059202E+02  0.50556181747E+01  0.11642901293E+03  0.11798981464E+03  0.47000000000E+01 0.  1.
<mgrwt>
<rscale>  0 0.27713124E+03</rscale>
<asrwt>0</asrwt>
<pdfrwt beam="1">  1        4 0.63433897E-01 0.27713124E+03</pdfrwt>
<pdfrwt beam="2">  1       -4 0.71641201E-02 0.27713124E+03</pdfrwt>
<totfact> 0.58632780E+02</totfact>
</mgrwt>
</event>
<event>
 9    1  0.2031653E-002  0.2750265E+03  0.7818608E-02  0.1098437E+00
         -2   -1    0    0    0  501 -0.00000000000E+00  0.00000000000E+00  0.79030264091E+01  0.79030264091E+01  0.00000000000E+00 0. -1.
          2   -1    0    0  501    0  0.00000000000E+00 -0.00000000000E+00 -0.23927407659E+04  0.23927407659E+04  0.00000000000E+00 0. -1.
         36    2    1    2    0    0 -0.71054273576E-14  0.00000000000E+00 -0.23848377395E+04  0.24006437923E+04  0.27502649664E+03 0.  0.
         25    2    3    3    0    0  0.34601901552E+02  0.16533690513E+02 -0.11857459718E+04  0.11940916690E+04  0.13561249852E+03 0.  0.
         25    2    3    3    0    0 -0.34601901552E+02 -0.16533690513E+02 -0.11990917676E+04  0.12065521233E+04  0.12836005794E+03 0.  0.
          5    1    4    4  502    0  0.20739402693E+02 -0.23780987357E+02 -0.63850923534E+02  0.71377087499E+02  0.47000000000E+01 0.  1.
         -5    1    4    4    0  502  0.13862498859E+02  0.40314677870E+02 -0.11218950483E+04  0.11227145815E+04  0.47000000000E+01 0.  1.
          5    1    5    5  503    0 -0.11879987063E+02  0.90052788696E+01 -0.11217894539E+04  0.11218983456E+04  0.47000000000E+01 0. -1.
         -5    1    5    5    0  503 -0.22721914489E+02 -0.25538969383E+02 -0.77302313756E+02  0.84653777631E+02  0.47000000000E+01 0. -1.
<mgrwt>
<rscale>  0 0.27502650E+03</rscale>
<asrwt>0</asrwt>
<pdfrwt beam="1">  1        2 0.36811360E+00 0.27502650E+03</pdfrwt>
<pdfrwt beam="2">  1       -2 0.12158514E-02 0.27502650E+03</pdfrwt>
<totfact> 0.73593618E+03</totfact>
</mgrwt>
</event>
<event>
 9    1  0.2031653E-002  0.2747466E+03  0.7818608E-02  0.1098593E+00
         -1   -1    0    0    0  501 -0.00000000000E+00  0.00000000000E+00  0.20977270093E+02  0.20977270093E+02  0.00000000000E+00 0.  1.
          1   -1    0    0  501    0  0.00000000000E+00 -0.00000000000E+00 -0.89961287952E+03  0.89961287952E+03  0.00000000000E+00 0.  1.
         36    2    1    2    0    0  0.00000000000E+00  0.00000000000E+00 -0.87863560943E+03  0.92059014961E+03  0.27474659126E+03 0.  0.
         25    2    3    3    0    0 -0.60835856475E+01 -0.10802076967E+02 -0.59649606833E+03  0.60902333510E+03  0.12226270195E+03 0.  0.
         25    2    3    3    0    0  0.60835856475E+01  0.10802076967E+02 -0.28213954110E+03  0.31156681451E+03  0.13159583721E+03 0.  0.
          5    1    4    4  502    0 -0.57571828070E+02 -0.25773920103E+02 -0.22778786546E+03  0.23640687807E+03  0.47000000000E+01 0. -1.
         -5    1    4    4    0  502  0.51488242423E+02  0.14971843135E+02 -0.36870820286E+03  0.37261645704E+03  0.47000000000E+01 0. -1.
          5    1    5    5  503    0 -0.46128108921E+02 -0.38235927541E+02 -0.13900717733E+03  0.15144264240E+03  0.47000000000E+01 0.  1.
         -5    1    5    5    0  503  0.52211694568E+02  0.49038004509E+02 -0.14313236377E+03  0.16012417211E+03  0.47000000000E+01 0.  1.
<mgrwt>
<rscale>  0 0.27474659E+03</rscale>
<asrwt>0</asrwt>
<pdfrwt beam="1">  1        1 0.13840198E+00 0.27474659E+03</pdfrwt>
<pdfrwt beam="2">  1       -1 0.32272724E-02 0.27474659E+03</pdfrwt>
<totfact> 0.64610547E+03</totfact>
</mgrwt>
</event>
<event>
 9    1  0.2031653E-002  0.2752923E+03  0.7818608E-02  0.1098288E+00
         -2   -1    0    0    0  501 -0.00000000000E+00  0.00000000000E+00  0.82519370484E+01  0.82519370484E+01  0.00000000000E+00 0.  1.
          2   -1    0    0  501    0  0.00000000000E+00 -0.00000000000E+00 -0.22960016247E+04  0.22960016247E+04  0.00000000000E+00 0.  1.
         36    2    1    2    0    0  0.00000000000E+00  0.00000000000E+00 -0.22877496877E+04  0.23042535618E+04  0.27529228736E+03 0.  0.
         25    2    3    3    0    0 -0.37348044101E+01 -0.79867842092E+01 -0.14555166958E+04  0.14616365532E+04  0.13332225812E+03 0.  0.
         25    2    3    3    0    0  0.37348044101E+01  0.79867842092E+01 -0.83223299192E+03  0.84261700858E+03  0.13158241838E+03 0.  0.
          5    1    4    4  502    0  0.53757940709E+00 -0.52857194332E+02 -0.12524843718E+04  0.12536081379E+04  0.47000000000E+01 0. -1.
         -5    1    4    4    0  502 -0.42723838172E+01  0.44870410123E+02 -0.20303232402E+03  0.20802841528E+03  0.47000000000E+01 0. -1.
          5    1    5    5  503    0 -0.20030745600E+02  0.45441275199E+02 -0.72171324593E+03  0.72343502792E+03  0.47000000000E+01 0.  1.
         -5    1    5    5    0  503  0.23765550010E+02 -0.37454490990E+02 -0.11051974599E+03  0.11918198066E+03  0.47000000000E+01 0.  1.
<mgrwt>
<rscale>  0 0.27529229E+03</rscale>
<asrwt>0</asrwt>
<pdfrwt beam="1">  1        2 0.35323128E+00 0.27529229E+03</pdfrwt>
<pdfrwt beam="2">  1       -2 0.12695278E-02 0.27529229E+03</pdfrwt>
<totfact> 0.77911323E+03</totfact>
</mgrwt>
</event>
<event>
 9    1  0.2031653E-002  0.2747546E+03  0.7818608E-02  0.1098589E+00
         -2   -1    0    0    0  501 -0.00000000000E+00  0.00000000000E+00  0.21518367940E+02  0.21518367940E+02  0.00000000000E+00 0.  1.
          2   -1    0    0  501    0  0.00000000000E+00 -0.00000000000E+00 -0.87704215410E+03  0.87704215410E+03  0.00000000000E+00 0.  1.
         36    2    1    2    0    0  0.35527136788E-14  0.21316282073E-13 -0.85552378616E+03  0.89856052204E+03  0.27475455062E+03 0.  0.
         25    2    3    3    0    0  0.25650400281E+02  0.57645268841E+02 -0.51077837015E+03  0.52709246160E+03  0.11380245870E+03 0.  0.
         25    2    3    3    0    0 -0.25650400281E+02 -0.57645268841E+02 -0.34474541601E+03  0.37146806045E+03  0.12311863390E+03 0.  0.
          5    1    4    4  502    0 -0.10174141470E+02 -0.31039055763E+02 -0.16678793211E+03  0.17002129407E+03  0.47000000000E+01 0. -1.
         -5    1    4    4    0  502  0.35824541751E+02  0.88684324605E+02 -0.34399043803E+03  0.35707116753E+03  0.47000000000E+01 0. -1.
          5    1    5    5  503    0 -0.70885039090E+02 -0.19460789049E+02 -0.13881605335E+03  0.15714769405E+03  0.47000000000E+01 0. -1.
         -5    1    5    5    0  503  0.45234638809E+02 -0.38184479793E+02 -0.20592936267E+03  0.21432036640E+03  0.47000000000E+01 0. -1.
<mgrwt>
<rscale>  0 0.27475455E+03</rscale>
<asrwt>0</asrwt>
<pdfrwt beam="1">  1        2 0.13492954E+00 0.27475455E+03</pdfrwt>
<pdfrwt beam="2">  1       -2 0.33105186E-02 0.27475455E+03</pdfrwt>
<totfact> 0.11459193E+04</totfact>
</mgrwt>
</event>
<event>
 9    1  0.2031653E-002  0.2803262E+03  0.7818608E-02  0.1095511E+00
         -1   -1    0    0    0  501 -0.00000000000E+00  0.00000000000E+00  0.36133971646E+03  0.36133971646E+03  0.00000000000E+00 0. -1.
          1   -1    0    0  501    0  0.00000000000E+00 -0.00000000000E+00 -0.54369047462E+02  0.54369047462E+02  0.00000000000E+00 0. -1.
         36    2    1    2    0    0  0.00000000000E+00 -0.14210854715E-13  0.30697066899E+03  0.41570876392E+03  0.28032621136E+03 0.  0.
         25    2    3    3    0    0  0.32282635012E+02  0.60033933459E+02  0.18693379231E+03  0.22786866246E+03  0.11105693554E+03 0.  0.
         25    2    3    3    0    0 -0.32282635012E+02 -0.60033933459E+02  0.12003687668E+03  0.18784010146E+03  0.12739234774E+03 0.  0.
          5    1    4    4  502    0  0.33410024760E+02  0.78509745265E+02  0.73127160965E+02  0.11247080300E+03  0.47000000000E+01 0. -1.
         -5    1    4    4    0  502 -0.11273897488E+01 -0.18475811806E+02  0.11380663135E+03  0.11539785946E+03  0.47000000000E+01 0. -1.
          5    1    5    5  503    0 -0.73003552659E+02 -0.71024775815E+02  0.87603600323E+02  0.13442662783E+03  0.47000000000E+01 0. -1.
         -5    1    5    5    0  503  0.40720917647E+02  0.10990842356E+02  0.32433276359E+02  0.53413473629E+02  0.47000000000E+01 0. -1.
<mgrwt>
<rscale>  0 0.28032621E+03</rscale>
<asrwt>0</asrwt>
<pdfrwt beam="1">  1        1 0.83644691E-02 0.28032621E+03</pdfrwt>
<pdfrwt beam="2">  1       -1 0.55590724E-01 0.28032621E+03</pdfrwt>
<totfact> 0.27460556E+03</totfact>
</mgrwt>
</event>
<event>
 9    1  0.2031653E-002  0.2755483E+03  0.7818608E-02  0.1098146E+00
          1   -1    0    0  501    0  0.00000000000E+00  0.00000000000E+00  0.88034403088E+03  0.88034403088E+03  0.00000000000E+00 0. -1.
         -1   -1    0    0    0  501 -0.00000000000E+00 -0.00000000000E+00 -0.21561702126E+02  0.21561702126E+02  0.00000000000E+00 0. -1.
         36    2    1    2    0    0  0.35527136788E-14  0.71054273576E-14  0.85878232875E+03  0.90190573300E+03  0.27554829531E+03 0.  0.
         25    2    3    3    0    0 -0.28282239030E+02 -0.28514736395E+02  0.31207876743E+03  0.33920672508E+03  0.12670860280E+03 0.  0.
         25    2    3    3    0    0  0.28282239030E+02  0.28514736395E+02  0.54670356132E+03  0.56269900792E+03  0.12701344148E+03 0.  0.
          5    1    4    4  502    0 -0.77981360623E+01  0.11491237022E+02 -0.74865397401E+01  0.16462008736E+02  0.47000000000E+01 0. -1.
         -5    1    4    4    0  502 -0.20484102968E+02 -0.40005973416E+02  0.31956530717E+03  0.32274471635E+03  0.47000000000E+01 0. -1.
          5    1    5    5  503    0  0.38292136697E+02 -0.38437090547E+02  0.13723571159E+03  0.14764629423E+03  0.47000000000E+01 0. -1.
         -5    1    5    5    0  503 -0.10009897667E+02  0.66951826942E+02  0.40946784973E+03  0.41505271369E+03  0.47000000000E+01 0. -1.
<mgrwt>
<rscale>  0 0.27554830E+03</rscale>
<asrwt>0</asrwt>
<pdfrwt beam="1">  1        1 0.13543752E+00 0.27554830E+03</pdfrwt>
<pdfrwt beam="2">  1       -1 0.33171856E-02 0.27554830E+03</pdfrwt>
<totfact> 0.64255085E+03</totfact>
</mgrwt>
</event>
<event>
 9    1  0.2031653E-002  0.2754331E+03  0.7818608E-02  0.1098210E+00
          3   -1    0    0  501    0  0.00000000000E+00  0.00000000000E+00  0.15339644624E+02  0.15339644624E+02  0.00000000000E+00 0.  1.
         -3   -1    0    0    0  501 -0.00000000000E+00 -0.00000000000E+00 -0.12363945010E+04  0.12363945010E+04  0.00000000000E+00 0.  1.
         36    2    1    2    0    0  0.00000000000E+00 -0.14210854715E-13 -0.12210548563E+04  0.12517341456E+04  0.27543312989E+03 0.  0.
         25    2    3    3    0    0 -0.23226672159E+02 -0.22873327258E+02 -0.33583605338E+03  0.35752894465E+03  0.11823038575E+03 0.  0.
         25    2    3    3    0    0  0.23226672159E+02  0.22873327258E+02 -0.88521880295E+03  0.89420520093E+03  0.12217996918E+03 0.  0.
          5    1    4    4  502    0 -0.13728248914E+02 -0.69703722276E+02 -0.15755007760E+03  0.17289068994E+03  0.47000000000E+01 0. -1.
         -5    1    4    4    0  502 -0.94984232451E+01  0.46830395018E+02 -0.17828597578E+03  0.18463825471E+03  0.47000000000E+01 0. -1.
          5    1    5    5  503    0 -0.35951007460E+01 -0.35776723276E+02 -0.10077644113E+03  0.10710219309E+03  0.47000000000E+01 0.  1.
         -5    1    5    5    0  503  0.26821772905E+02  0.58650050534E+02 -0.78444236182E+03  0.78710300784E+03  0.47000000000E+01 0.  1.
<mgrwt>
<rscale>  0 0.27543313E+03</rscale>
<asrwt>0</asrwt>
<pdfrwt beam="1">  1        3 0.23599456E-02 0.27543313E+03</pdfrwt>
<pdfrwt beam="2">  1       -3 0.19021452E+00 0.27543313E+03</pdfrwt>
<totfact> 0.34294723E+02</totfact>
</mgrwt>
</event>
<event>
 9    1  0.2031653E-002  0.2749081E+03  0.7818608E-02  0.1098503E+00
          1   -1    0    0  501    0  0.00000000000E+00  0.00000000000E+00  0.11146707084E+03  0.11146707084E+03  0.00000000000E+00 0.  1.
         -1   -1    0    0    0  501 -0.00000000000E+00 -0.00000000000E+00 -0.16949956760E+03  0.16949956760E+03  0.00000000000E+00 0.  1.
         36    2    1    2    0    0 -0.71054273576E-14  0.00000000000E+00 -0.58032496761E+02  0.28096663844E+03  0.27490813236E+03 0.  0.
         25    2    3    3    0    0 -0.41643339916E+02 -0.16896760158E+02 -0.51364584416E+02  0.14299845581E+03  0.12566053306E+03 0.  0.
         25    2    3    3    0    0  0.41643339916E+02  0.16896760158E+02 -0.66679123450E+01  0.13796818262E+03  0.13027313652E+03 0.  0.
          5    1    4    4  502    0 -0.48217935849E+02 -0.27626116750E+01 -0.89346779600E+02  0.10167368581E+03  0.47000000000E+01 0. -1.
         -5    1    4    4    0  502  0.65745959325E+01 -0.14134148483E+02  0.37982195185E+02  0.41324770006E+02  0.47000000000E+01 0. -1.
          5    1    5    5  503    0  0.26374427043E+02  0.23387392174E+02  0.59649283094E+02  0.69445716125E+02  0.47000000000E+01 0.  1.
         -5    1    5    5    0  503  0.15268912873E+02 -0.64906320162E+01 -0.66317195439E+02  0.68522466500E+02  0.47000000000E+01 0.  1.
<mgrwt>
<rscale>  0 0.27490813E+03</rscale>
<asrwt>0</asrwt>
<pdfrwt beam="1">  1        1 0.17148780E-01 0.27490813E+03</pdfrwt>
<pdfrwt beam="2">  1       -1 0.26076856E-01 0.27490813E+03</pdfrwt>
<totfact> 0.40266167E+03</totfact>
</mgrwt>
</event>
<event>
 9    1  0.2031653E-002  0.2744352E+03  0.7818608E-02  0.1098768E+00
          1   -1    0    0  501    0  0.00000000000E+00  0.00000000000E+00  0.13585737123E+03  0.13585737123E+03  0.00000000000E+00 0. -1.
         -1   -1    0    0    0  501 -0.00000000000E+00 -0.00000000000E+00 -0.13859141009E+03  0.13859141009E+03  0.00000000000E+00 0. -1.
         36    2    1    2    0    0  0.00000000000E+00  0.35527136788E-14 -0.27340388617E+01  0.27444878132E+03  0.27443516283E+03 0.  0.
         25    2    3    3    0    0  0.44493135110E+02 -0.37173780674E+00  0.41623710753E+02  0.13737942065E+03  0.12312917875E+03 0.  0.
         25    2    3    3    0    0 -0.44493135110E+02  0.37173780674E+00 -0.44357749615E+02  0.13706936067E+03  0.12182209333E+03 0.  0.
          5    1    4    4  502    0  0.26978526537E+02  0.24064739078E+02  0.80287674380E+02  0.88176829260E+02  0.47000000000E+01 0.  1.
         -5    1    4    4    0  502  0.17514608573E+02 -0.24436476884E+02 -0.38663963627E+02  0.49202591389E+02  0.47000000000E+01 0.  1.
          5    1    5    5  503    0 -0.82293985983E+02  0.22699905321E+02 -0.27569507746E+02  0.89831807217E+02  0.47000000000E+01 0. -1.
         -5    1    5    5    0  503  0.37800850873E+02 -0.22328167515E+02 -0.16788241869E+02  0.47237553454E+02  0.47000000000E+01 0. -1.
<mgrwt>
<rscale>  0 0.27443516E+03</rscale>
<asrwt>0</asrwt>
<pdfrwt beam="1">  1        1 0.20901134E-01 0.27443516E+03</pdfrwt>
<pdfrwt beam="2">  1       -1 0.21321755E-01 0.27443516E+03</pdfrwt>
<totfact> 0.43482720E+03</totfact>
</mgrwt>
</event>
<event>
 9    1  0.2031653E-002  0.2748071E+03  0.7818608E-02  0.1098559E+00
         -2   -1    0    0    0  501 -0.00000000000E+00  0.00000000000E+00  0.12118513154E+02  0.12118513154E+02  0.00000000000E+00 0.  1.
          2   -1    0    0  501    0  0.00000000000E+00 -0.00000000000E+00 -0.15579252509E+04  0.15579252509E+04  0.00000000000E+00 0.  1.
         36    2    1    2    0    0  0.00000000000E+00 -0.35527136788E-14 -0.15458067378E+04  0.15700437641E+04  0.27480711524E+03 0.  0.
         25    2    3    3    0    0  0.13167147782E+02  0.28236732295E+02 -0.52843411332E+03  0.54388458487E+03  0.12488852116E+03 0.  0.
         25    2    3    3    0    0 -0.13167147782E+02 -0.28236732295E+02 -0.10173726245E+04  0.10261591792E+04  0.13032619554E+03 0.  0.
          5    1    4    4  502    0 -0.49230730911E+02 -0.15169124014E+02 -0.24470770360E+03  0.25011540814E+03  0.47000000000E+01 0.  1.
         -5    1    4    4    0  502  0.62397878694E+02  0.43405856309E+02 -0.28372640972E+03  0.29376917673E+03  0.47000000000E+01 0.  1.
          5    1    5    5  503    0  0.18966797328E+02 -0.58412832635E+02 -0.24886901075E+03  0.25637798839E+03  0.47000000000E+01 0. -1.
         -5    1    5    5    0  503 -0.32133945110E+02  0.30176100340E+02 -0.76850361371E+03  0.76978119083E+03  0.47000000000E+01 0. -1.
<mgrwt>
<rscale>  0 0.27480712E+03</rscale>
<asrwt>0</asrwt>
<pdfrwt beam="1">  1        2 0.23968082E+00 0.27480712E+03</pdfrwt>
<pdfrwt beam="2">  1       -2 0.18643865E-02 0.27480712E+03</pdfrwt>
<totfact> 0.10891829E+04</totfact>
</mgrwt>
</event>
<event>
 9    1  0.2031653E-002  0.2783871E+03  0.7818608E-02  0.1096573E+00
         -1   -1    0    0    0  501 -0.00000000000E+00  0.00000000000E+00  0.30869375069E+02  0.30869375069E+02  0.00000000000E+00 0.  1.
          1   -1    0    0  501    0  0.00000000000E+00 -0.00000000000E+00 -0.62763947092E+03  0.62763947092E+03  0.00000000000E+00 0.  1.
         36    2    1    2    0    0 -0.35527136788E-14  0.00000000000E+00 -0.59677009585E+03  0.65850884599E+03  0.27838705599E+03 0.  0.
         25    2    3    3    0    0  0.27480692352E+01 -0.48695292814E+02 -0.32865397391E+03  0.35465645508E+03  0.12405234032E+03 0.  0.
         25    2    3    3    0    0 -0.27480692352E+01  0.48695292814E+02 -0.26811612194E+03  0.30385239090E+03  0.13439210240E+03 0.  0.
          5    1    4    4  502    0  0.15018187672E+01  0.28280993624E+02 -0.16494446175E+02  0.33109316130E+02  0.47000000000E+01 0. -1.
         -5    1    4    4    0  502  0.12462504681E+01 -0.76976286438E+02 -0.31215952774E+03  0.32154713895E+03  0.47000000000E+01 0. -1.
          5    1    5    5  503    0  0.35423519200E+02  0.82930385355E+02 -0.15142518138E+03  0.17630640965E+03  0.47000000000E+01 0.  1.
         -5    1    5    5    0  503 -0.38171588435E+02 -0.34235092541E+02 -0.11669094056E+03  0.12754598125E+03  0.47000000000E+01 0.  1.
<mgrwt>
<rscale>  0 0.27838706E+03</rscale>
<asrwt>0</asrwt>
<pdfrwt beam="1">  1        1 0.96559918E-01 0.27838706E+03</pdfrwt>
<pdfrwt beam="2">  1       -1 0.47491347E-02 0.27838706E+03</pdfrwt>
<totfact> 0.62582897E+03</totfact>
</mgrwt>
</event>
<event>
 9    1  0.2031653E-002  0.2757299E+03  0.7818608E-02  0.1098044E+00
         -1   -1    0    0    0  501 -0.00000000000E+00  0.00000000000E+00  0.15762384594E+02  0.15762384594E+02  0.00000000000E+00 0.  1.
          1   -1    0    0  501    0  0.00000000000E+00 -0.00000000000E+00 -0.12058289311E+04  0.12058289311E+04  0.00000000000E+00 0.  1.
         36    2    1    2    0    0  0.00000000000E+00 -0.14210854715E-13 -0.11900665466E+04  0.12215913157E+04  0.27572986322E+03 0.  0.
         25    2    3    3    0    0 -0.43484236480E+02 -0.32032719578E+02 -0.70661354154E+03  0.71928624476E+03  0.12309764773E+03 0.  0.
         25    2    3    3    0    0  0.43484236480E+02  0.32032719578E+02 -0.48345300502E+03  0.50230507098E+03  0.12516629868E+03 0.  0.
          5    1    4    4  502    0 -0.54972254193E+01 -0.74883901812E+02 -0.45651507726E+03  0.46267258835E+03  0.47000000000E+01 0.  1.
         -5    1    4    4    0  502 -0.37987011061E+02  0.42851182234E+02 -0.25009846427E+03  0.25661365642E+03  0.47000000000E+01 0.  1.
          5    1    5    5  503    0  0.65745263357E+02  0.47402368636E+02 -0.17824126040E+03  0.19586082077E+03  0.47000000000E+01 0. -1.
         -5    1    5    5    0  503 -0.22261026876E+02 -0.15369649058E+02 -0.30521174462E+03  0.30644425021E+03  0.47000000000E+01 0. -1.
<mgrwt>
<rscale>  0 0.27572986E+03</rscale>
<asrwt>0</asrwt>
<pdfrwt beam="1">  1        1 0.18551215E+00 0.27572986E+03</pdfrwt>
<pdfrwt beam="2">  1       -1 0.24249822E-02 0.27572986E+03</pdfrwt>
<totfact> 0.58584523E+03</totfact>
</mgrwt>
</event>
<event>
 9    1  0.2031653E-002  0.2638212E+03  0.7818608E-02  0.1104869E+00
          1   -1    0    0  501    0  0.00000000000E+00  0.00000000000E+00  0.34546315960E+03  0.34546315960E+03  0.00000000000E+00 0.  1.
         -1   -1    0    0    0  501 -0.00000000000E+00 -0.00000000000E+00 -0.50368359910E+02  0.50368359910E+02  0.00000000000E+00 0.  1.
         36    2    1    2    0    0  0.35527136788E-14  0.88817841970E-15  0.29509479969E+03  0.39583151951E+03  0.26382124826E+03 0.  0.
         25    2    3    3    0    0 -0.90260750453E+01  0.19150814011E+01  0.77471754103E+02  0.14421182243E+03  0.12128495157E+03 0.  0.
         25    2    3    3    0    0  0.90260750453E+01 -0.19150814011E+01  0.21762304559E+03  0.25161969708E+03  0.12596644164E+03 0.  0.
          5    1    4    4  502    0  0.52737359636E+02  0.10107396656E+01  0.59619399015E+02  0.79742168487E+02  0.47000000000E+01 0. -1.
         -5    1    4    4    0  502 -0.61763434681E+02  0.90434173551E+00  0.17852355088E+02  0.64469653945E+02  0.47000000000E+01 0. -1.
          5    1    5    5  503    0 -0.26237885161E+02  0.13171602253E+02 -0.86094957016E+00  0.29744729916E+02  0.47000000000E+01 0.  1.
         -5    1    5    5    0  503  0.35263960207E+02 -0.15086683654E+02  0.21848399516E+03  0.22187496716E+03  0.47000000000E+01 0.  1.
<mgrwt>
<rscale>  0 0.26382125E+03</rscale>
<asrwt>0</asrwt>
<pdfrwt beam="1">  1        1 0.53148177E-01 0.26382125E+03</pdfrwt>
<pdfrwt beam="2">  1       -1 0.77489787E-02 0.26382125E+03</pdfrwt>
<totfact> 0.65604282E+03</totfact>
</mgrwt>
</event>
<event>
 9    1  0.2031653E-002  0.2757368E+03  0.7818608E-02  0.1098040E+00
          2   -1    0    0  501    0  0.00000000000E+00  0.00000000000E+00  0.87428030825E+03  0.87428030825E+03  0.00000000000E+00 0. -1.
         -2   -1    0    0    0  501 -0.00000000000E+00 -0.00000000000E+00 -0.21740962363E+02  0.21740962363E+02  0.00000000000E+00 0. -1.
         36    2    1    2    0    0  0.00000000000E+00  0.00000000000E+00  0.85253934589E+03  0.89602127061E+03  0.27573679679E+03 0.  0.
         25    2    3    3    0    0 -0.70292975482E+02  0.21898429996E+02  0.33653812140E+03  0.36591405956E+03  0.12334726663E+03 0.  0.
         25    2    3    3    0    0  0.70292975482E+02 -0.21898429996E+02  0.51600122449E+03  0.53010721106E+03  0.96621674109E+02 0.  0.
          5    1    4    4  502    0  0.25080215792E+02 -0.18988492859E+02  0.14051234910E+03  0.14406731182E+03  0.47000000000E+01 0.  1.
         -5    1    4    4    0  502 -0.95373191273E+02  0.40886922855E+02  0.19602577230E+03  0.22184674774E+03  0.47000000000E+01 0.  1.
          5    1    5    5  503    0  0.42598459751E+02  0.23656700012E+02  0.39206074155E+03  0.39510502818E+03  0.47000000000E+01 0.  1.
         -5    1    5    5    0  503  0.27694515731E+02 -0.45555130008E+02  0.12394048293E+03  0.13500218288E+03  0.47000000000E+01 0.  1.
<mgrwt>
<rscale>  0 0.27573680E+03</rscale>
<asrwt>0</asrwt>
<pdfrwt beam="1">  1        2 0.13450464E+00 0.27573680E+03</pdfrwt>
<pdfrwt beam="2">  1       -2 0.33447641E-02 0.27573680E+03</pdfrwt>
<totfact> 0.11332912E+04</totfact>
</mgrwt>
</event>
<event>
 9    1  0.2031653E-002  0.2722896E+03  0.7818608E-02  0.1099976E+00
          1   -1    0    0  501    0  0.00000000000E+00  0.00000000000E+00  0.48845584323E+02  0.48845584323E+02  0.00000000000E+00 0. -1.
         -1   -1    0    0    0  501 -0.00000000000E+00 -0.00000000000E+00 -0.37946957388E+03  0.37946957388E+03  0.00000000000E+00 0. -1.
         36    2    1    2    0    0  0.35527136788E-14  0.00000000000E+00 -0.33062398956E+03  0.42831515820E+03  0.27228964776E+03 0.  0.
         25    2    3    3    0    0  0.27169610333E+02  0.44788644656E+02 -0.14972777060E+03  0.20267111564E+03  0.12614660284E+03 0.  0.
         25    2    3    3    0    0 -0.27169610333E+02 -0.44788644656E+02 -0.18089621896E+03  0.22564404257E+03  0.12428829993E+03 0.  0.
          5    1    4    4  502    0  0.12237880159E+02  0.44220900763E+02 -0.17051490154E+03  0.17664279046E+03  0.47000000000E+01 0.  1.
         -5    1    4    4    0  502  0.14931730174E+02  0.56774389244E+00  0.20787130933E+02  0.26028325177E+02  0.47000000000E+01 0.  1.
          5    1    5    5  503    0  0.19326921845E+02  0.73592425807E+01  0.91575119979E+01  0.23100614393E+02  0.47000000000E+01 0.  1.
         -5    1    5    5    0  503 -0.46496532178E+02 -0.52147887236E+02 -0.19005373095E+03  0.20254342818E+03  0.47000000000E+01 0.  1.
<mgrwt>
<rscale>  0 0.27228965E+03</rscale>
<asrwt>0</asrwt>
<pdfrwt beam="1">  1        1 0.75147052E-02 0.27228965E+03</pdfrwt>
<pdfrwt beam="2">  1       -1 0.58379935E-01 0.27228965E+03</pdfrwt>
<totfact> 0.28924361E+03</totfact>
</mgrwt>
</event>
<event>
 9    1  0.2031653E-002  0.2751831E+03  0.7818608E-02  0.1098349E+00
          2   -1    0    0  501    0  0.00000000000E+00  0.00000000000E+00  0.33448286589E+03  0.33448286589E+03  0.00000000000E+00 0.  1.
         -2   -1    0    0    0  501 -0.00000000000E+00 -0.00000000000E+00 -0.56599117066E+02  0.56599117066E+02  0.00000000000E+00 0.  1.
         36    2    1    2    0    0  0.71054273576E-14  0.00000000000E+00  0.27788374882E+03  0.39108198296E+03  0.27518310183E+03 0.  0.
         25    2    3    3    0    0  0.29231359851E+02 -0.54136283153E+02  0.12398227886E+03  0.18626403767E+03  0.12464941518E+03 0.  0.
         25    2    3    3    0    0 -0.29231359851E+02  0.54136283153E+02  0.15390146996E+03  0.20481794529E+03  0.12033087178E+03 0.  0.
          5    1    4    4  502    0  0.60405346667E+02 -0.24147867022E+02  0.12687396160E+03  0.14265699254E+03  0.47000000000E+01 0. -1.
         -5    1    4    4    0  502 -0.31173986816E+02 -0.29988416131E+02 -0.28916827399E+01  0.43607045132E+02  0.47000000000E+01 0. -1.
          5    1    5    5  503    0 -0.63970704494E+02  0.52673303801E+02  0.14736067169E+03  0.16912712831E+03  0.47000000000E+01 0.  1.
         -5    1    5    5    0  503  0.34739344642E+02  0.14629793513E+01  0.65407982688E+01  0.35690816981E+02  0.47000000000E+01 0.  1.
<mgrwt>
<rscale>  0 0.27518310E+03</rscale>
<asrwt>0</asrwt>
<pdfrwt beam="1">  1        2 0.51458901E-01 0.27518310E+03</pdfrwt>
<pdfrwt beam="2">  1       -2 0.87075567E-02 0.27518310E+03</pdfrwt>
<totfact> 0.79748338E+03</totfact>
</mgrwt>
</event>
<event>
 9    1  0.2031653E-002  0.2777838E+03  0.7818608E-02  0.1096906E+00
          2   -1    0    0  501    0  0.00000000000E+00  0.00000000000E+00  0.10328105531E+04  0.10328105531E+04  0.00000000000E+00 0. -1.
         -2   -1    0    0    0  501 -0.00000000000E+00 -0.00000000000E+00 -0.18678113887E+02  0.18678113887E+02  0.00000000000E+00 0. -1.
         36    2    1    2    0    0  0.71054273576E-14  0.71054273576E-14  0.10141324392E+04  0.10514886670E+04  0.27778375139E+03 0.  0.
         25    2    3    3    0    0  0.45743138686E+02 -0.30451806380E+02  0.35076490416E+03  0.37603805679E+03  0.12389049564E+03 0.  0.
         25    2    3    3    0    0 -0.45743138686E+02  0.30451806380E+02  0.66336753507E+03  0.67545061022E+03  0.11470524405E+03 0.  0.
          5    1    4    4  502    0  0.12279790419E+02 -0.73603466685E+02  0.25459172816E+03  0.26534374236E+03  0.47000000000E+01 0.  1.
         -5    1    4    4    0  502  0.33463348267E+02  0.43151660306E+02  0.96173176004E+02  0.11069431443E+03  0.47000000000E+01 0.  1.
          5    1    5    5  503    0 -0.61070382520E+02  0.20665940124E+02  0.17235245108E+03  0.18407642460E+03  0.47000000000E+01 0.  1.
         -5    1    5    5    0  503  0.15327243833E+02  0.97858662552E+01  0.49101508399E+03  0.49137418562E+03  0.47000000000E+01 0.  1.
<mgrwt>
<rscale>  0 0.27778375E+03</rscale>
<asrwt>0</asrwt>
<pdfrwt beam="1">  1        2 0.15889389E+00 0.27778375E+03</pdfrwt>
<pdfrwt beam="2">  1       -2 0.28735568E-02 0.27778375E+03</pdfrwt>
<totfact> 0.11301889E+04</totfact>
</mgrwt>
</event>
<event>
 9    1  0.2031653E-002  0.2748307E+03  0.7818608E-02  0.1098546E+00
         -2   -1    0    0    0  501 -0.00000000000E+00  0.00000000000E+00  0.63552625392E+01  0.63552625392E+01  0.00000000000E+00 0.  1.
          2   -1    0    0  501    0  0.00000000000E+00 -0.00000000000E+00 -0.29712348914E+04  0.29712348914E+04  0.00000000000E+00 0.  1.
         36    2    1    2    0    0  0.00000000000E+00  0.35527136788E-14 -0.29648796289E+04  0.29775901539E+04  0.27483069552E+03 0.  0.
         25    2    3    3    0    0 -0.22363831928E+02 -0.20248982333E+02 -0.10018008835E+04  0.10099053063E+04  0.12407076720E+03 0.  0.
         25    2    3    3    0    0  0.22363831928E+02  0.20248982333E+02 -0.19630787453E+04  0.19676848476E+04  0.13113099111E+03 0.  0.
          5    1    4    4  502    0  0.38917164971E+01 -0.35463120907E+02 -0.94194808164E+03  0.94263516639E+03  0.47000000000E+01 0.  1.
         -5    1    4    4    0  502 -0.26255548425E+02  0.15214138574E+02 -0.59852801885E+02  0.67270139952E+02  0.47000000000E+01 0.  1.
          5    1    5    5  503    0  0.43787214928E+02  0.20375561069E+02 -0.26145227661E+03  0.26591702958E+03  0.47000000000E+01 0. -1.
         -5    1    5    5    0  503 -0.21423383001E+02 -0.12657873545E+00 -0.17016264687E+04  0.17017678180E+04  0.47000000000E+01 0. -1.
<mgrwt>
<rscale>  0 0.27483070E+03</rscale>
<asrwt>0</asrwt>
<pdfrwt beam="1">  1        2 0.45711141E+00 0.27483070E+03</pdfrwt>
<pdfrwt beam="2">  1       -2 0.97773622E-03 0.27483070E+03</pdfrwt>
<totfact> 0.47736931E+03</totfact>
</mgrwt>
</event>
<event>
 9    1  0.2031653E-002  0.2748787E+03  0.7818608E-02  0.1098519E+00
         -1   -1    0    0    0  501 -0.00000000000E+00  0.00000000000E+00  0.41252982847E+03  0.41252982847E+03  0.00000000000E+00 0.  1.
          1   -1    0    0  501    0  0.00000000000E+00 -0.00000000000E+00 -0.45789592604E+02  0.45789592604E+02  0.00000000000E+00 0.  1.
         36    2    1    2    0    0 -0.35527136788E-14  0.00000000000E+00  0.36674023587E+03  0.45831942108E+03  0.27487868439E+03 0.  0.
         25    2    3    3    0    0 -0.66944131809E+01  0.55072638761E+02  0.15769409019E+03  0.20918887683E+03  0.12575670717E+03 0.  0.
         25    2    3    3    0    0  0.66944131809E+01 -0.55072638761E+02  0.20904614568E+03  0.24913054425E+03  0.12364435430E+03 0.  0.
          5    1    4    4  502    0  0.24096300016E+02 -0.33562985740E+02  0.33130044890E+02  0.53167617595E+02  0.47000000000E+01 0. -1.
         -5    1    4    4    0  502 -0.30790713197E+02  0.88635624501E+02  0.12456404530E+03  0.15602125923E+03  0.47000000000E+01 0. -1.
          5    1    5    5  503    0  0.24426026495E+02 -0.20121815096E+02 -0.41942438743E+01  0.32267629208E+02  0.47000000000E+01 0.  1.
         -5    1    5    5    0  503 -0.17731613314E+02 -0.34950823665E+02  0.21324038955E+03  0.21686291504E+03  0.47000000000E+01 0.  1.
<mgrwt>
<rscale>  0 0.27487868E+03</rscale>
<asrwt>0</asrwt>
<pdfrwt beam="1">  1        1 0.70445530E-02 0.27487868E+03</pdfrwt>
<pdfrwt beam="2">  1       -1 0.63466125E-01 0.27487868E+03</pdfrwt>
<totfact> 0.26892739E+03</totfact>
</mgrwt>
</event>
<event>
 9    1  0.2031653E-002  0.2835851E+03  0.7818608E-02  0.1093747E+00
         -1   -1    0    0    0  501 -0.00000000000E+00  0.00000000000E+00  0.40642701903E+02  0.40642701903E+02  0.00000000000E+00 0.  1.
          1   -1    0    0  501    0  0.00000000000E+00 -0.00000000000E+00 -0.49467998495E+03  0.49467998495E+03  0.00000000000E+00 0.  1.
         36    2    1    2    0    0 -0.71054273576E-14  0.00000000000E+00 -0.45403728305E+03  0.53532268685E+03  0.28358512772E+03 0.  0.
         25    2    3    3    0    0 -0.32885838588E+02  0.57630416949E+02 -0.23864036400E+03  0.27772344496E+03  0.12561188326E+03 0.  0.
         25    2    3    3    0    0  0.32885838588E+02 -0.57630416949E+02 -0.21539691905E+03  0.25759924189E+03  0.12473489227E+03 0.  0.
          5    1    4    4  502    0  0.34808626882E+02  0.62926354529E+02 -0.99828656936E+02  0.12312277346E+03  0.47000000000E+01 0.  1.
         -5    1    4    4    0  502 -0.67694465470E+02 -0.52959375805E+01 -0.13881170706E+03  0.15460067150E+03  0.47000000000E+01 0.  1.
          5    1    5    5  503    0  0.95705250400E+01  0.23751329762E+02 -0.14522777082E+03  0.14754292946E+03  0.47000000000E+01 0.  1.
         -5    1    5    5    0  503  0.23315313548E+02 -0.81381746711E+02 -0.70169148228E+02  0.11005631243E+03  0.47000000000E+01 0.  1.
<mgrwt>
<rscale>  0 0.28358513E+03</rscale>
<asrwt>0</asrwt>
<pdfrwt beam="1">  1        1 0.76104619E-01 0.28358513E+03</pdfrwt>
<pdfrwt beam="2">  1       -1 0.62527229E-02 0.28358513E+03</pdfrwt>
<totfact> 0.57292898E+03</totfact>
</mgrwt>
</event>
<event>
 9    1  0.2031653E-002  0.2712032E+03  0.7818608E-02  0.1100593E+00
          2   -1    0    0  501    0  0.00000000000E+00  0.00000000000E+00  0.68454924390E+03  0.68454924390E+03  0.00000000000E+00 0. -1.
         -2   -1    0    0    0  501 -0.00000000000E+00 -0.00000000000E+00 -0.26861171682E+02  0.26861171682E+02  0.00000000000E+00 0. -1.
         36    2    1    2    0    0 -0.35527136788E-14  0.71054273576E-14  0.65768807221E+03  0.71141041558E+03  0.27120320621E+03 0.  0.
         25    2    3    3    0    0 -0.22067192690E+02  0.46410460245E+02  0.41782844961E+03  0.43766819880E+03  0.11971611054E+03 0.  0.
         25    2    3    3    0    0  0.22067192690E+02 -0.46410460245E+02  0.23985962260E+03  0.27374221678E+03  0.12149597063E+03 0.  0.
          5    1    4    4  502    0 -0.93453918266E+00 -0.31875573483E+02  0.24015972058E+03  0.24231324135E+03  0.47000000000E+01 0. -1.
         -5    1    4    4    0  502 -0.21132653507E+02  0.78286033728E+02  0.17766872903E+03  0.19535495744E+03  0.47000000000E+01 0. -1.
          5    1    5    5  503    0 -0.24599000737E+02  0.28067484258E+02  0.37715535991E+02  0.53267684058E+02  0.47000000000E+01 0.  1.
         -5    1    5    5    0  503  0.46666193427E+02 -0.74477944503E+02  0.20214408661E+03  0.22047453272E+03  0.47000000000E+01 0.  1.
<mgrwt>
<rscale>  0 0.27120321E+03</rscale>
<asrwt>0</asrwt>
<pdfrwt beam="1">  1        2 0.10531525E+00 0.27120321E+03</pdfrwt>
<pdfrwt beam="2">  1       -2 0.41324885E-02 0.27120321E+03</pdfrwt>
<totfact> 0.11221486E+04</totfact>
</mgrwt>
</event>
<event>
 9    1  0.2031653E-002  0.2759183E+03  0.7818608E-02  0.1097939E+00
          2   -1    0    0  501    0  0.00000000000E+00  0.00000000000E+00  0.13215448003E+04  0.13215448003E+04  0.00000000000E+00 0.  1.
         -2   -1    0    0    0  501 -0.00000000000E+00 -0.00000000000E+00 -0.14401875947E+02  0.14401875947E+02  0.00000000000E+00 0.  1.
         36    2    1    2    0    0  0.00000000000E+00  0.00000000000E+00  0.13071429244E+04  0.13359466763E+04  0.27591827973E+03 0.  0.
         25    2    3    3    0    0 -0.37296098539E+02  0.66079178891E+02  0.10427634114E+04  0.10531098418E+04  0.12620360547E+03 0.  0.
         25    2    3    3    0    0  0.37296098539E+02 -0.66079178891E+02  0.26437951301E+03  0.28283683444E+03  0.65899098372E+02 0.  0.
          5    1    4    4  502    0 -0.92985952046E+01  0.45970045373E+02  0.10969936590E+03  0.11939744480E+03  0.47000000000E+01 0. -1.
         -5    1    4    4    0  502 -0.27997503334E+02  0.20109133517E+02  0.93306404546E+03  0.93371239703E+03  0.47000000000E+01 0. -1.
          5    1    5    5  503    0 -0.15319659912E+02 -0.32469003732E+02  0.12288964591E+03  0.12811277554E+03  0.47000000000E+01 0. -1.
         -5    1    5    5    0  503  0.52615758451E+02 -0.33610175158E+02  0.14148986710E+03  0.15472405890E+03  0.47000000000E+01 0. -1.
<mgrwt>
<rscale>  0 0.27591828E+03</rscale>
<asrwt>0</asrwt>
<pdfrwt beam="1">  1        2 0.20331449E+00 0.27591828E+03</pdfrwt>
<pdfrwt beam="2">  1       -2 0.22156743E-02 0.27591828E+03</pdfrwt>
<totfact> 0.11337255E+04</totfact>
</mgrwt>
</event>
<event>
 9    1  0.2031653E-002  0.2752649E+03  0.7818608E-02  0.1098304E+00
         -1   -1    0    0    0  501 -0.00000000000E+00  0.00000000000E+00  0.22781581324E+02  0.22781581324E+02  0.00000000000E+00 0. -1.
          1   -1    0    0  501    0  0.00000000000E+00 -0.00000000000E+00 -0.83149120147E+03  0.83149120147E+03  0.00000000000E+00 0. -1.
         36    2    1    2    0    0  0.35527136788E-14 -0.71054273576E-14 -0.80870962014E+03  0.85427278279E+03  0.27526485011E+03 0.  0.
         25    2    3    3    0    0  0.48671070028E+01 -0.21963718006E+02 -0.26127623223E+03  0.29082554388E+03  0.12573040128E+03 0.  0.
         25    2    3    3    0    0 -0.48671070028E+01  0.21963718006E+02 -0.54743338791E+03  0.56344723891E+03  0.13146628159E+03 0.  0.
          5    1    4    4  502    0 -0.17504175437E+02  0.39908854630E+02 -0.38001055860E+02  0.58011059998E+02  0.47000000000E+01 0. -1.
         -5    1    4    4    0  502  0.22371282440E+02 -0.61872572636E+02 -0.22327517637E+03  0.23281448388E+03  0.47000000000E+01 0. -1.
          5    1    5    5  503    0 -0.50571203029E+02 -0.32424634105E+02 -0.29909554563E+03  0.30510496372E+03  0.47000000000E+01 0.  1.
         -5    1    5    5    0  503  0.45704096026E+02  0.54388352111E+02 -0.24833784228E+03  0.25834227518E+03  0.47000000000E+01 0.  1.
<mgrwt>
<rscale>  0 0.27526485E+03</rscale>
<asrwt>0</asrwt>
<pdfrwt beam="1">  1        1 0.12792173E+00 0.27526485E+03</pdfrwt>
<pdfrwt beam="2">  1       -1 0.35048585E-02 0.27526485E+03</pdfrwt>
<totfact> 0.64846485E+03</totfact>
</mgrwt>
</event>
<event>
 9    1  0.2031653E-002  0.2753095E+03  0.7818608E-02  0.1098279E+00
         -1   -1    0    0    0  501 -0.00000000000E+00  0.00000000000E+00  0.20775454082E+04  0.20775454082E+04  0.00000000000E+00 0. -1.
          1   -1    0    0  501    0  0.00000000000E+00 -0.00000000000E+00 -0.91207782778E+01  0.91207782778E+01  0.00000000000E+00 0. -1.
         36    2    1    2    0    0  0.71054273576E-14  0.71054273576E-14  0.20684246300E+04  0.20866661865E+04  0.27530950605E+03 0.  0.
         25    2    3    3    0    0  0.32733118447E+02  0.38804370590E+02  0.10193667990E+04  0.10285739958E+04  0.12758745070E+03 0.  0.
         25    2    3    3    0    0 -0.32733118447E+02 -0.38804370590E+02  0.10490578309E+04  0.10580921907E+04  0.12829464242E+03 0.  0.
          5    1    4    4  502    0 -0.39178169823E+02 -0.18098680409E+02  0.24922089818E+03  0.25297359015E+03  0.47000000000E+01 0.  1.
         -5    1    4    4    0  502  0.71911288270E+02  0.56903050999E+02  0.77014590086E+03  0.77560040562E+03  0.47000000000E+01 0.  1.
          5    1    5    5  503    0 -0.19144341606E+01 -0.83403867614E+02  0.63680882738E+03  0.64226742313E+03  0.47000000000E+01 0.  1.
         -5    1    5    5    0  503 -0.30818684286E+02  0.44599497024E+02  0.41224900355E+03  0.41582476762E+03  0.47000000000E+01 0.  1.
<mgrwt>
<rscale>  0 0.27530951E+03</rscale>
<asrwt>0</asrwt>
<pdfrwt beam="1">  1        1 0.14031983E-02 0.27530951E+03</pdfrwt>
<pdfrwt beam="2">  1       -1 0.31962199E+00 0.27530951E+03</pdfrwt>
<totfact> 0.29103792E+02</totfact>
</mgrwt>
</event>
<event>
 9    1  0.2031653E-002  0.2742796E+03  0.7818608E-02  0.1098855E+00
          2   -1    0    0  501    0  0.00000000000E+00  0.00000000000E+00  0.88198287169E+02  0.88198287169E+02  0.00000000000E+00 0. -1.
         -2   -1    0    0    0  501 -0.00000000000E+00 -0.00000000000E+00 -0.21323906144E+03  0.21323906144E+03  0.00000000000E+00 0. -1.
         36    2    1    2    0    0 -0.71054273576E-14  0.35527136788E-14 -0.12504077427E+03  0.30143734861E+03  0.27427956523E+03 0.  0.
         25    2    3    3    0    0  0.62845481468E+01  0.15158792954E+02 -0.91171144616E+01  0.12687215727E+03  0.12547564690E+03 0.  0.
         25    2    3    3    0    0 -0.62845481468E+01 -0.15158792954E+02 -0.11592365981E+03  0.17456519133E+03  0.12948137539E+03 0.  0.
          5    1    4    4  502    0  0.39987208695E+02  0.30301758165E+02  0.40627293972E+02  0.64728976684E+02  0.47000000000E+01 0. -1.
         -5    1    4    4    0  502 -0.33702660549E+02 -0.15142965211E+02 -0.49744408434E+02  0.62143180590E+02  0.47000000000E+01 0. -1.
          5    1    5    5  503    0 -0.58928964017E+02  0.16516940802E+02 -0.28666333756E+02  0.67744230932E+02  0.47000000000E+01 0.  1.
         -5    1    5    5    0  503  0.52644415870E+02 -0.31675733756E+02 -0.87257326051E+02  0.10682096040E+03  0.47000000000E+01 0.  1.
<mgrwt>
<rscale>  0 0.27427957E+03</rscale>
<asrwt>0</asrwt>
<pdfrwt beam="1">  1        2 0.13568967E-01 0.27427957E+03</pdfrwt>
<pdfrwt beam="2">  1       -2 0.32806009E-01 0.27427957E+03</pdfrwt>
<totfact> 0.37924108E+03</totfact>
</mgrwt>
</event>
<event>
 9    1  0.2031653E-002  0.2754726E+03  0.7818608E-02  0.1098188E+00
          2   -1    0    0  501    0  0.00000000000E+00  0.00000000000E+00  0.20709675447E+03  0.20709675447E+03  0.00000000000E+00 0. -1.
         -2   -1    0    0    0  501 -0.00000000000E+00 -0.00000000000E+00 -0.91605949219E+02  0.91605949219E+02  0.00000000000E+00 0. -1.
         36    2    1    2    0    0 -0.71054273576E-14  0.00000000000E+00  0.11549080525E+03  0.29870270369E+03  0.27547264673E+03 0.  0.
         25    2    3    3    0    0  0.48378721718E+02 -0.96155074649E+01  0.38981439326E+02  0.13550517684E+03  0.12003808413E+03 0.  0.
         25    2    3    3    0    0 -0.48378721718E+02  0.96155074649E+01  0.76509365928E+02  0.16319752685E+03  0.13545032667E+03 0.  0.
          5    1    4    4  502    0  0.85301728842E+02 -0.25068372212E+02  0.21602001825E+02  0.91616290645E+02  0.47000000000E+01 0.  1.
         -5    1    4    4    0  502 -0.36923007124E+02  0.15452864747E+02  0.17379437500E+02  0.43888886199E+02  0.47000000000E+01 0.  1.
          5    1    5    5  503    0 -0.58774737156E+02  0.30586047726E+02  0.10610020825E+03  0.12517715540E+03  0.47000000000E+01 0.  1.
         -5    1    5    5    0  503  0.10396015437E+02 -0.20970540261E+02 -0.29590842322E+02  0.38020371449E+02  0.47000000000E+01 0.  1.
<mgrwt>
<rscale>  0 0.27547265E+03</rscale>
<asrwt>0</asrwt>
<pdfrwt beam="1">  1        2 0.31861039E-01 0.27547265E+03</pdfrwt>
<pdfrwt beam="2">  1       -2 0.14093223E-01 0.27547265E+03</pdfrwt>
<totfact> 0.61824767E+03</totfact>
</mgrwt>
</event>
<event>
 9    1  0.2031653E-002  0.2752868E+03  0.7818608E-02  0.1098291E+00
         -1   -1    0    0    0  501 -0.00000000000E+00  0.00000000000E+00  0.37063471468E+03  0.37063471468E+03  0.00000000000E+00 0.  1.
          1   -1    0    0  501    0  0.00000000000E+00 -0.00000000000E+00 -0.51116916841E+02  0.51116916841E+02  0.00000000000E+00 0.  1.
         36    2    1    2    0    0  0.00000000000E+00  0.00000000000E+00  0.31951779784E+03  0.42175163152E+03  0.27528678783E+03 0.  0.
         25    2    3    3    0    0 -0.38820980346E+02 -0.46067168013E+02  0.16810788283E+03  0.21782861175E+03  0.12473889265E+03 0.  0.
         25    2    3    3    0    0  0.38820980346E+02  0.46067168013E+02  0.15140991500E+03  0.20392301977E+03  0.12259846308E+03 0.  0.
          5    1    4    4  502    0  0.21047540440E+02  0.19814455293E+02  0.20527590152E+01  0.29358396017E+02  0.47000000000E+01 0. -1.
         -5    1    4    4    0  502 -0.59868520785E+02 -0.65881623306E+02  0.16605512382E+03  0.18847021573E+03  0.47000000000E+01 0. -1.
          5    1    5    5  503    0  0.38819520597E+01  0.52925153495E+02  0.53851579240E+01  0.53546534436E+02  0.47000000000E+01 0. -1.
         -5    1    5    5    0  503  0.34939028286E+02 -0.68579854821E+01  0.14602475708E+03  0.15037648534E+03  0.47000000000E+01 0. -1.
<mgrwt>
<rscale>  0 0.27528679E+03</rscale>
<asrwt>0</asrwt>
<pdfrwt beam="1">  1        1 0.78641413E-02 0.27528679E+03</pdfrwt>
<pdfrwt beam="2">  1       -1 0.57020724E-01 0.27528679E+03</pdfrwt>
<totfact> 0.28445208E+03</totfact>
</mgrwt>
</event>
<event>
 9    1  0.2031653E-002  0.2764524E+03  0.7818608E-02  0.1097643E+00
          1   -1    0    0  501    0  0.00000000000E+00  0.00000000000E+00  0.15017119940E+04  0.15017119940E+04  0.00000000000E+00 0. -1.
         -1   -1    0    0    0  501 -0.00000000000E+00 -0.00000000000E+00 -0.12723130032E+02  0.12723130032E+02  0.00000000000E+00 0. -1.
         36    2    1    2    0    0  0.71054273576E-14  0.00000000000E+00  0.14889888640E+04  0.15144351241E+04  0.27645236096E+03 0.  0.
         25    2    3    3    0    0  0.47128006399E+02  0.32872742480E+02  0.92738339270E+03  0.93630061151E+03  0.11540022479E+03 0.  0.
         25    2    3    3    0    0 -0.47128006399E+02 -0.32872742480E+02  0.56160547132E+03  0.57813451256E+03  0.12464807668E+03 0.  0.
          5    1    4    4  502    0  0.69433114162E+02  0.39277715170E+02  0.87697486174E+03  0.88060813895E+03  0.47000000000E+01 0.  1.
         -5    1    4    4    0  502 -0.22305107762E+02 -0.64049726899E+01  0.50408530956E+02  0.55692472567E+02  0.47000000000E+01 0.  1.
          5    1    5    5  503    0 -0.82090048678E+02 -0.40710431518E+02  0.29086071695E+03  0.30498878994E+03  0.47000000000E+01 0. -1.
         -5    1    5    5    0  503  0.34962042279E+02  0.78376890378E+01  0.27074475436E+03  0.27314572262E+03  0.47000000000E+01 0. -1.
<mgrwt>
<rscale>  0 0.27645236E+03</rscale>
<asrwt>0</asrwt>
<pdfrwt beam="1">  1        1 0.23103247E+00 0.27645236E+03</pdfrwt>
<pdfrwt beam="2">  1       -1 0.19574058E-02 0.27645236E+03</pdfrwt>
<totfact> 0.50513144E+03</totfact>
</mgrwt>
</event>
<event>
 9    1  0.2031653E-002  0.2757460E+03  0.7818608E-02  0.1098035E+00
          2   -1    0    0  501    0  0.00000000000E+00  0.00000000000E+00  0.18205243645E+04  0.18205243645E+04  0.00000000000E+00 0. -1.
         -2   -1    0    0    0  501 -0.00000000000E+00 -0.00000000000E+00 -0.10441475566E+02  0.10441475566E+02  0.00000000000E+00 0. -1.
         36    2    1    2    0    0  0.00000000000E+00  0.35527136788E-14  0.18100828890E+04  0.18309658401E+04  0.27574597491E+03 0.  0.
         25    2    3    3    0    0  0.22961423626E+02  0.21572447209E+02  0.79626129587E+03  0.80884558488E+03  0.13858763084E+03 0.  0.
         25    2    3    3    0    0 -0.22961423626E+02 -0.21572447209E+02  0.10138215931E+04  0.10221202552E+04  0.12610708169E+03 0.  0.
          5    1    4    4  502    0  0.55125538387E+02  0.16626808949E+02  0.13593695425E+03  0.14770315261E+03  0.47000000000E+01 0. -1.
         -5    1    4    4    0  502 -0.32164114761E+02  0.49456382602E+01  0.66032434162E+03  0.66114243227E+03  0.47000000000E+01 0. -1.
          5    1    5    5  503    0 -0.40372219957E+02  0.26966036352E+02  0.82159711529E+03  0.82304373706E+03  0.47000000000E+01 0. -1.
         -5    1    5    5    0  503  0.17410796331E+02 -0.48538483561E+02  0.19222447782E+03  0.19907651817E+03  0.47000000000E+01 0. -1.
<mgrwt>
<rscale>  0 0.27574597E+03</rscale>
<asrwt>0</asrwt>
<pdfrwt beam="1">  1        2 0.28008042E+00 0.27574597E+03</pdfrwt>
<pdfrwt beam="2">  1       -2 0.16063823E-02 0.27574597E+03</pdfrwt>
<totfact> 0.98514856E+03</totfact>
</mgrwt>
</event>
<event>
 9    1  0.2031653E-002  0.2769317E+03  0.7818608E-02  0.1097377E+00
          1   -1    0    0  501    0  0.00000000000E+00  0.00000000000E+00  0.53372064096E+02  0.53372064096E+02  0.00000000000E+00 0.  1.
         -1   -1    0    0    0  501 -0.00000000000E+00 -0.00000000000E+00 -0.35922894455E+03  0.35922894455E+03  0.00000000000E+00 0.  1.
         36    2    1    2    0    0 -0.71054273576E-14  0.14210854715E-13 -0.30585688045E+03  0.41260100865E+03  0.27693169016E+03 0.  0.
         25    2    3    3    0    0 -0.20529954802E+02  0.49828410097E+02 -0.22496483553E+03  0.26160691198E+03  0.12216648342E+03 0.  0.
         25    2    3    3    0    0  0.20529954802E+02 -0.49828410097E+02 -0.80892044922E+02  0.15099409667E+03  0.11554801946E+03 0.  0.
          5    1    4    4  502    0  0.11374287021E+02 -0.23345632696E+02 -0.40945199896E+01  0.26706704498E+02  0.47000000000E+01 0. -1.
         -5    1    4    4    0  502 -0.31904241823E+02  0.73174042792E+02 -0.22087031554E+03  0.23490020748E+03  0.47000000000E+01 0. -1.
          5    1    5    5  503    0 -0.13513062325E+02 -0.24279026399E+02  0.24432069992E+02  0.37297319212E+02  0.47000000000E+01 0.  1.
         -5    1    5    5    0  503  0.34043017126E+02 -0.25549383697E+02 -0.10532411491E+03  0.11369677746E+03  0.47000000000E+01 0.  1.
<mgrwt>
<rscale>  0 0.27693169E+03</rscale>
<asrwt>0</asrwt>
<pdfrwt beam="1">  1        1 0.82110866E-02 0.27693169E+03</pdfrwt>
<pdfrwt beam="2">  1       -1 0.55265993E-01 0.27693169E+03</pdfrwt>
<totfact> 0.28464165E+03</totfact>
</mgrwt>
</event>
<event>
 9    1  0.2031653E-002  0.2756926E+03  0.7818608E-02  0.1098065E+00
         -4   -1    0    0    0  501 -0.00000000000E+00  0.00000000000E+00  0.74703567824E+03  0.74703567824E+03  0.00000000000E+00 0. -1.
          4   -1    0    0  501    0  0.00000000000E+00 -0.00000000000E+00 -0.25436006678E+02  0.25436006678E+02  0.00000000000E+00 0. -1.
         36    2    1    2    0    0  0.00000000000E+00  0.00000000000E+00  0.72159967156E+03  0.77247168492E+03  0.27569261507E+03 0.  0.
         25    2    3    3    0    0  0.29071609180E+02  0.51211730391E+02  0.31458926717E+03  0.34404111213E+03  0.12621442082E+03 0.  0.
         25    2    3    3    0    0 -0.29071609180E+02 -0.51211730391E+02  0.40701040439E+03  0.42843057279E+03  0.12011447303E+03 0.  0.
          5    1    4    4  502    0  0.90977876227E+01  0.88341484152E+02  0.15293330005E+03  0.17691148020E+03  0.47000000000E+01 0. -1.
         -5    1    4    4    0  502  0.19973821557E+02 -0.37129753761E+02  0.16165596713E+03  0.16712963193E+03  0.47000000000E+01 0. -1.
          5    1    5    5  503    0 -0.50145649872E+01 -0.42459934851E+02  0.39883751182E+03  0.40115014990E+03  0.47000000000E+01 0. -1.
         -5    1    5    5    0  503 -0.24057044193E+02 -0.87517955401E+01  0.81728925747E+01  0.27280422898E+02  0.47000000000E+01 0. -1.
<mgrwt>
<rscale>  0 0.27569262E+03</rscale>
<asrwt>0</asrwt>
<pdfrwt beam="1">  1        4 0.39132324E-02 0.27569262E+03</pdfrwt>
<pdfrwt beam="2">  1       -4 0.11492855E+00 0.27569262E+03</pdfrwt>
<totfact> 0.40707247E+02</totfact>
</mgrwt>
</event>
<event>
 9    1  0.2031653E-002  0.2793976E+03  0.7818608E-02  0.1096018E+00
          2   -1    0    0  501    0  0.00000000000E+00  0.00000000000E+00  0.17797792984E+04  0.17797792984E+04  0.00000000000E+00 0. -1.
         -2   -1    0    0    0  501 -0.00000000000E+00 -0.00000000000E+00 -0.10965267840E+02  0.10965267840E+02  0.00000000000E+00 0. -1.
         36    2    1    2    0    0  0.00000000000E+00 -0.17763568394E-14  0.17688140306E+04  0.17907445663E+04  0.27939761418E+03 0.  0.
         25    2    3    3    0    0 -0.57677631930E+02 -0.51735058984E+01  0.72241056757E+03  0.73527234292E+03  0.12407624969E+03 0.  0.
         25    2    3    3    0    0  0.57677631930E+02  0.51735058984E+01  0.10464034630E+04  0.10554722233E+04  0.12533129080E+03 0.  0.
          5    1    4    4  502    0  0.20303720076E+02  0.12192501106E+02  0.31236545642E+02  0.39480500450E+02  0.47000000000E+01 0. -1.
         -5    1    4    4    0  502 -0.77981352006E+02 -0.17366007004E+02  0.69117402193E+03  0.69579184247E+03  0.47000000000E+01 0. -1.
          5    1    5    5  503    0  0.34633551176E+02 -0.11398415140E+02  0.10012952394E+04  0.10019698864E+04  0.47000000000E+01 0. -1.
         -5    1    5    5    0  503  0.23044080753E+02  0.16571921038E+02  0.45108223615E+02  0.53502336980E+02  0.47000000000E+01 0. -1.
<mgrwt>
<rscale>  0 0.27939761E+03</rscale>
<asrwt>0</asrwt>
<pdfrwt beam="1">  1        2 0.27381197E+00 0.27939761E+03</pdfrwt>
<pdfrwt beam="2">  1       -2 0.16869657E-02 0.27939761E+03</pdfrwt>
<totfact> 0.96343559E+03</totfact>
</mgrwt>
</event>
<event>
 9    1  0.2031653E-002  0.2757097E+03  0.7818608E-02  0.1098056E+00
         -2   -1    0    0    0  501 -0.00000000000E+00  0.00000000000E+00  0.22369589724E+02  0.22369589724E+02  0.00000000000E+00 0. -1.
          2   -1    0    0  501    0  0.00000000000E+00 -0.00000000000E+00 -0.84954420782E+03  0.84954420782E+03  0.00000000000E+00 0. -1.
         36    2    1    2    0    0 -0.71054273576E-14  0.35527136788E-14 -0.82717461810E+03  0.87191379755E+03  0.27570966890E+03 0.  0.
         25    2    3    3    0    0  0.41442939362E+02 -0.29711927615E+02 -0.34917856013E+03  0.37512012472E+03  0.12723649339E+03 0.  0.
         25    2    3    3    0    0 -0.41442939362E+02  0.29711927615E+02 -0.47799605797E+03  0.49679367283E+03  0.12539300642E+03 0.  0.
          5    1    4    4  502    0 -0.95677743797E+01  0.14278174302E+02 -0.27196056559E+03  0.27254366219E+03  0.47000000000E+01 0.  1.
         -5    1    4    4    0  502  0.51010713741E+02 -0.43990101917E+02 -0.77217994538E+02  0.10257646252E+03  0.47000000000E+01 0.  1.
          5    1    5    5  503    0 -0.66984067813E+02  0.20611162527E+01 -0.43190952885E+03  0.43710301378E+03  0.47000000000E+01 0.  1.
         -5    1    5    5    0  503  0.25541128451E+02  0.27650811362E+02 -0.46086529123E+02  0.59690659053E+02  0.47000000000E+01 0.  1.
<mgrwt>
<rscale>  0 0.27570967E+03</rscale>
<asrwt>0</asrwt>
<pdfrwt beam="1">  1        2 0.13069910E+00 0.27570967E+03</pdfrwt>
<pdfrwt beam="2">  1       -2 0.34414757E-02 0.27570967E+03</pdfrwt>
<totfact> 0.11277234E+04</totfact>
</mgrwt>
</event>
<event>
 9    1  0.2031653E-002  0.2752901E+03  0.7818608E-02  0.1098290E+00
          4   -1    0    0  501    0  0.00000000000E+00  0.00000000000E+00  0.93066875144E+02  0.93066875144E+02  0.00000000000E+00 0.  1.
         -4   -1    0    0    0  501 -0.00000000000E+00 -0.00000000000E+00 -0.20357582535E+03  0.20357582535E+03  0.00000000000E+00 0.  1.
         36    2    1    2    0    0  0.00000000000E+00 -0.35527136788E-14 -0.11050895021E+03  0.29664270050E+03  0.27529014454E+03 0.  0.
         25    2    3    3    0    0  0.54369707939E+02  0.30887959053E+02 -0.57538994930E+02  0.15082522628E+03  0.12460891537E+03 0.  0.
         25    2    3    3    0    0 -0.54369707939E+02 -0.30887959053E+02 -0.52969955278E+02  0.14581747421E+03  0.12061006785E+03 0.  0.
          5    1    4    4  502    0  0.90900294054E+02  0.30030084761E+01 -0.50378676217E+02  0.10407681075E+03  0.47000000000E+01 0.  1.
         -5    1    4    4    0  502 -0.36530586116E+02  0.27884950577E+02 -0.71603187128E+01  0.46748415532E+02  0.47000000000E+01 0.  1.
          5    1    5    5  503    0  0.36960105175E+02 -0.27875207866E+01 -0.28710547911E+02  0.47119053556E+02  0.47000000000E+01 0. -1.
         -5    1    5    5    0  503 -0.91329813113E+02 -0.28100438267E+02 -0.24259407367E+02  0.98698420656E+02  0.47000000000E+01 0. -1.
<mgrwt>
<rscale>  0 0.27529014E+03</rscale>
<asrwt>0</asrwt>
<pdfrwt beam="1">  1        4 0.14317981E-01 0.27529014E+03</pdfrwt>
<pdfrwt beam="2">  1       -4 0.31319357E-01 0.27529014E+03</pdfrwt>
<totfact> 0.75124704E+02</totfact>
</mgrwt>
</event>
<event>
 9    1  0.2031653E-002  0.2751298E+03  0.7818608E-02  0.1098379E+00
          2   -1    0    0  501    0  0.00000000000E+00  0.00000000000E+00  0.19673681362E+04  0.19673681362E+04  0.00000000000E+00 0.  1.
         -2   -1    0    0    0  501 -0.00000000000E+00 -0.00000000000E+00 -0.96189946633E+01  0.96189946633E+01  0.00000000000E+00 0.  1.
         36    2    1    2    0    0  0.71054273576E-14 -0.26645352591E-14  0.19577491416E+04  0.19769871309E+04  0.27512981375E+03 0.  0.
         25    2    3    3    0    0 -0.50634466948E+02 -0.78227251747E+01  0.11808740380E+04  0.11884727335E+04  0.12401169443E+03 0.  0.
         25    2    3    3    0    0  0.50634466948E+02  0.78227251747E+01  0.77687510356E+03  0.78851439740E+03  0.12487987867E+03 0.  0.
          5    1    4    4  502    0 -0.48227881654E+02 -0.32537514523E+02  0.23090701960E+03  0.23816960369E+03  0.47000000000E+01 0.  1.
         -5    1    4    4    0  502 -0.24065852937E+01  0.24714789349E+02  0.94996701842E+03  0.95030312982E+03  0.47000000000E+01 0.  1.
          5    1    5    5  503    0  0.14806607442E+02  0.33321597515E+00  0.58442925857E+01  0.16600976256E+02  0.47000000000E+01 0.  1.
         -5    1    5    5    0  503  0.35827859506E+02  0.74895091995E+01  0.77103081098E+03  0.77191342114E+03  0.47000000000E+01 0.  1.
<mgrwt>
<rscale>  0 0.27512981E+03</rscale>
<asrwt>0</asrwt>
<pdfrwt beam="1">  1        2 0.30267170E+00 0.27512981E+03</pdfrwt>
<pdfrwt beam="2">  1       -2 0.14798469E-02 0.27512981E+03</pdfrwt>
<totfact> 0.93012353E+03</totfact>
</mgrwt>
</event>
<event>
 9    1  0.2031653E-002  0.2735197E+03  0.7818608E-02  0.1099282E+00
         -2   -1    0    0    0  501 -0.00000000000E+00  0.00000000000E+00  0.39289367301E+03  0.39289367301E+03  0.00000000000E+00 0. -1.
          2   -1    0    0  501    0  0.00000000000E+00 -0.00000000000E+00 -0.47603862834E+02  0.47603862834E+02  0.00000000000E+00 0. -1.
         36    2    1    2    0    0  0.00000000000E+00  0.00000000000E+00  0.34528981018E+03  0.44049753584E+03  0.27351969961E+03 0.  0.
         25    2    3    3    0    0 -0.56299650944E+02 -0.62122798016E+01  0.18720858386E+03  0.23154053187E+03  0.12391820249E+03 0.  0.
         25    2    3    3    0    0  0.56299650944E+02  0.62122798016E+01  0.15808122632E+03  0.20895700398E+03  0.12435880460E+03 0.  0.
          5    1    4    4  502    0 -0.76152332559E+02 -0.82965092637E+00  0.46704419451E+02  0.89460934889E+02  0.47000000000E+01 0. -1.
         -5    1    4    4    0  502  0.19852681616E+02 -0.53826288753E+01  0.14050416441E+03  0.14207959698E+03  0.47000000000E+01 0. -1.
          5    1    5    5  503    0 -0.59851147557E+01 -0.34786217012E+02  0.11985097966E+03  0.12502899590E+03  0.47000000000E+01 0.  1.
         -5    1    5    5    0  503  0.62284765699E+02  0.40998496814E+02  0.38230246660E+02  0.83928008072E+02  0.47000000000E+01 0.  1.
<mgrwt>
<rscale>  0 0.27351970E+03</rscale>
<asrwt>0</asrwt>
<pdfrwt beam="1">  1        2 0.73236715E-02 0.27351970E+03</pdfrwt>
<pdfrwt beam="2">  1       -2 0.60445178E-01 0.27351970E+03</pdfrwt>
<totfact> 0.24732599E+03</totfact>
</mgrwt>
</event>
<event>
 9    1  0.2031653E-002  0.2746614E+03  0.7818608E-02  0.1098641E+00
         -3   -1    0    0    0  501 -0.00000000000E+00  0.00000000000E+00  0.14846773858E+04  0.14846773858E+04  0.00000000000E+00 0.  1.
          3   -1    0    0  501    0  0.00000000000E+00 -0.00000000000E+00 -0.12702909222E+02  0.12702909222E+02  0.00000000000E+00 0.  1.
         36    2    1    2    0    0  0.00000000000E+00  0.00000000000E+00  0.14719744766E+04  0.14973802950E+04  0.27466140651E+03 0.  0.
         25    2    3    3    0    0 -0.26205699780E+02 -0.67246660025E+01  0.96946048842E+03  0.97868375156E+03  0.13128704097E+03 0.  0.
         25    2    3    3    0    0  0.26205699780E+02  0.67246660025E+01  0.50251398815E+03  0.51869654345E+03  0.12567352971E+03 0.  0.
          5    1    4    4  502    0  0.34420935768E+02 -0.38477321304E+02  0.64340163482E+03  0.64548668364E+03  0.47000000000E+01 0. -1.
         -5    1    4    4    0  502 -0.60626635547E+02  0.31752655302E+02  0.32605885361E+03  0.33319706792E+03  0.47000000000E+01 0. -1.
          5    1    5    5  503    0  0.64537881388E+02  0.39710997427E+02  0.34256909827E+03  0.35088143089E+03  0.47000000000E+01 0. -1.
         -5    1    5    5    0  503 -0.38332181608E+02 -0.32986331425E+02  0.15994488988E+03  0.16781511256E+03  0.47000000000E+01 0. -1.
<mgrwt>
<rscale>  0 0.27466141E+03</rscale>
<asrwt>0</asrwt>
<pdfrwt beam="1">  1        3 0.19542949E-02 0.27466141E+03</pdfrwt>
<pdfrwt beam="2">  1       -3 0.22841177E+00 0.27466141E+03</pdfrwt>
<totfact> 0.27093695E+02</totfact>
</mgrwt>
</event>
<event>
 9    1  0.2031653E-002  0.2752068E+03  0.7818608E-02  0.1098336E+00
          1   -1    0    0  501    0  0.00000000000E+00  0.00000000000E+00  0.80628573242E+02  0.80628573242E+02  0.00000000000E+00 0. -1.
         -1   -1    0    0    0  501 -0.00000000000E+00 -0.00000000000E+00 -0.23483852618E+03  0.23483852618E+03  0.00000000000E+00 0. -1.
         36    2    1    2    0    0  0.14210854715E-13  0.35527136788E-14 -0.15420995294E+03  0.31546709942E+03  0.27520679721E+03 0.  0.
         25    2    3    3    0    0 -0.63137575140E+02  0.18606856089E+02 -0.78354750964E+02  0.16082051948E+03  0.12406129130E+03 0.  0.
         25    2    3    3    0    0  0.63137575140E+02 -0.18606856089E+02 -0.75855201972E+02  0.15464657994E+03  0.11759670290E+03 0.  0.
          5    1    4    4  502    0 -0.83482766876E+02 -0.94035711397E+01 -0.10886895345E+02  0.84843467666E+02  0.47000000000E+01 0. -1.
         -5    1    4    4    0  502  0.20345191735E+02  0.28010427228E+02 -0.67467855619E+02  0.75977051812E+02  0.47000000000E+01 0. -1.
          5    1    5    5  503    0 -0.16421075569E+01  0.33831471670E+02 -0.60896333745E+02  0.69840664775E+02  0.47000000000E+01 0. -1.
         -5    1    5    5    0  503  0.64779682697E+02 -0.52438327759E+02 -0.14958868227E+02  0.84805915166E+02  0.47000000000E+01 0. -1.
<mgrwt>
<rscale>  0 0.27520680E+03</rscale>
<asrwt>0</asrwt>
<pdfrwt beam="1">  1        1 0.12404396E-01 0.27520680E+03</pdfrwt>
<pdfrwt beam="2">  1       -1 0.36129003E-01 0.27520680E+03</pdfrwt>
<totfact> 0.35327142E+03</totfact>
</mgrwt>
</event>
<event>
 9    1  0.2031653E-002  0.2760176E+03  0.7818608E-02  0.1097884E+00
         -4   -1    0    0    0  501 -0.00000000000E+00  0.00000000000E+00  0.65139599656E+02  0.65139599656E+02  0.00000000000E+00 0. -1.
          4   -1    0    0  501    0  0.00000000000E+00 -0.00000000000E+00 -0.29239402122E+03  0.29239402122E+03  0.00000000000E+00 0. -1.
         36    2    1    2    0    0 -0.17763568394E-14 -0.71054273576E-14 -0.22725442157E+03  0.35753362088E+03  0.27601760440E+03 0.  0.
         25    2    3    3    0    0 -0.54178953528E+01  0.25859810135E+02 -0.15977352220E+03  0.21203134176E+03  0.13686353832E+03 0.  0.
         25    2    3    3    0    0  0.54178953528E+01 -0.25859810135E+02 -0.67480899369E+02  0.14550227912E+03  0.12617114599E+03 0.  0.
          5    1    4    4  502    0 -0.78919906953E+00  0.72744562572E+02 -0.14523250409E+03  0.16250219834E+03  0.47000000000E+01 0.  1.
         -5    1    4    4    0  502 -0.46286962833E+01 -0.46884752437E+02 -0.14541018104E+02  0.49529143419E+02  0.47000000000E+01 0.  1.
          5    1    5    5  503    0 -0.15391495854E+02 -0.62945167410E+02 -0.77930889055E+02  0.10146085804E+03  0.47000000000E+01 0.  1.
         -5    1    5    5    0  503  0.20809391207E+02  0.37085357275E+02  0.10449989686E+02  0.44041421084E+02  0.47000000000E+01 0.  1.
<mgrwt>
<rscale>  0 0.27601760E+03</rscale>
<asrwt>0</asrwt>
<pdfrwt beam="1">  1        4 0.44983695E-01 0.27601760E+03</pdfrwt>
<pdfrwt beam="2">  1       -4 0.10021477E-01 0.27601760E+03</pdfrwt>
<totfact> 0.68201917E+02</totfact>
</mgrwt>
</event>
<event>
 9    1  0.2031653E-002  0.2753468E+03  0.7818608E-02  0.1098258E+00
          2   -1    0    0  501    0  0.00000000000E+00  0.00000000000E+00  0.31396074346E+04  0.31396074346E+04  0.00000000000E+00 0. -1.
         -2   -1    0    0    0  501 -0.00000000000E+00 -0.00000000000E+00 -0.60370472752E+01  0.60370472752E+01  0.00000000000E+00 0. -1.
         36    2    1    2    0    0  0.00000000000E+00  0.00000000000E+00  0.31335703873E+04  0.31456444818E+04  0.27534675235E+03 0.  0.
         25    2    3    3    0    0  0.28206111830E+02  0.36572185444E+02  0.12600294073E+04  0.12670214453E+04  0.12464399802E+03 0.  0.
         25    2    3    3    0    0 -0.28206111830E+02 -0.36572185444E+02  0.18735409800E+04  0.18786230365E+04  0.13013685108E+03 0.  0.
          5    1    4    4  502    0  0.55293266620E+02 -0.14996069163E+02  0.31605722286E+03  0.32124209803E+03  0.47000000000E+01 0. -1.
         -5    1    4    4    0  502 -0.27087154790E+02  0.51568254607E+02  0.94397218442E+03  0.94577934731E+03  0.47000000000E+01 0. -1.
          5    1    5    5  503    0 -0.56793330895E+02 -0.72301198447E+02  0.12678813112E+04  0.12712191215E+04  0.47000000000E+01 0.  1.
         -5    1    5    5    0  503  0.28587219065E+02  0.35729013003E+02  0.60565966883E+03  0.60740391496E+03  0.47000000000E+01 0.  1.
<mgrwt>
<rscale>  0 0.27534675E+03</rscale>
<asrwt>0</asrwt>
<pdfrwt beam="1">  1        2 0.48301522E+00 0.27534675E+03</pdfrwt>
<pdfrwt beam="2">  1       -2 0.92877901E-03 0.27534675E+03</pdfrwt>
<totfact> 0.40766425E+03</totfact>
</mgrwt>
</event>
<event>
 9    1  0.2031653E-002  0.2732106E+03  0.7818608E-02  0.1099456E+00
          3   -1    0    0  501    0  0.00000000000E+00  0.00000000000E+00  0.18841034002E+03  0.18841034002E+03  0.00000000000E+00 0.  1.
         -3   -1    0    0    0  501 -0.00000000000E+00 -0.00000000000E+00 -0.99044533336E+02  0.99044533336E+02  0.00000000000E+00 0.  1.
         36    2    1    2    0    0  0.00000000000E+00  0.00000000000E+00  0.89365806683E+02  0.28745487335E+03  0.27321064549E+03 0.  0.
         25    2    3    3    0    0 -0.30028317606E+02  0.15473764430E+01  0.92439468317E+02  0.15839821787E+03  0.12506336750E+03 0.  0.
         25    2    3    3    0    0  0.30028317606E+02 -0.15473764430E+01 -0.30736616341E+01  0.12905665548E+03  0.12546744078E+03 0.  0.
          5    1    4    4  502    0 -0.56980678064E+02 -0.26411269194E+02  0.56891629186E+01  0.63236139887E+02  0.47000000000E+01 0.  1.
         -5    1    4    4    0  502  0.26952360458E+02  0.27958645637E+02  0.86750305399E+02  0.95162077987E+02  0.47000000000E+01 0.  1.
          5    1    5    5  503    0  0.28963587817E+01 -0.49798285661E+02 -0.38482802099E+02  0.63176532086E+02  0.47000000000E+01 0.  1.
         -5    1    5    5    0  503  0.27131958824E+02  0.48250909218E+02  0.35409140465E+02  0.65880123395E+02  0.47000000000E+01 0.  1.
<mgrwt>
<rscale>  0 0.27321065E+03</rscale>
<asrwt>0</asrwt>
<pdfrwt beam="1">  1        3 0.28986206E-01 0.27321065E+03</pdfrwt>
<pdfrwt beam="2">  1       -3 0.15237621E-01 0.27321065E+03</pdfrwt>
<totfact> 0.10509557E+03</totfact>
</mgrwt>
</event>
<event>
 9    1  0.2031653E-002  0.2749021E+03  0.7818608E-02  0.1098506E+00
         -2   -1    0    0    0  501 -0.00000000000E+00  0.00000000000E+00  0.27140640638E+02  0.27140640638E+02  0.00000000000E+00 0. -1.
          2   -1    0    0  501    0  0.00000000000E+00 -0.00000000000E+00 -0.69610718484E+03  0.69610718484E+03  0.00000000000E+00 0. -1.
         36    2    1    2    0    0  0.00000000000E+00  0.71054273576E-14 -0.66896654420E+03  0.72324782548E+03  0.27490212767E+03 0.  0.
         25    2    3    3    0    0  0.43901198122E+02 -0.38001548587E+02 -0.31440176307E+03  0.34272073520E+03  0.12344067735E+03 0.  0.
         25    2    3    3    0    0 -0.43901198122E+02  0.38001548587E+02 -0.35456478113E+03  0.38052709027E+03  0.12535250106E+03 0.  0.
          5    1    4    4  502    0 -0.25004936537E+02 -0.19503306795E+02 -0.15917712820E+02  0.35792309350E+02  0.47000000000E+01 0. -1.
         -5    1    4    4    0  502  0.68906134658E+02 -0.18498241792E+02 -0.29848405025E+03  0.30692842586E+03  0.47000000000E+01 0. -1.
          5    1    5    5  503    0 -0.77773962557E+02 -0.17123769827E+01 -0.14623120473E+03  0.16570267567E+03  0.47000000000E+01 0.  1.
         -5    1    5    5    0  503  0.33872764435E+02  0.39713925570E+02 -0.20833357640E+03  0.21482441460E+03  0.47000000000E+01 0.  1.
<mgrwt>
<rscale>  0 0.27490213E+03</rscale>
<asrwt>0</asrwt>
<pdfrwt beam="1">  1        2 0.10709342E+00 0.27490213E+03</pdfrwt>
<pdfrwt beam="2">  1       -2 0.41754830E-02 0.27490213E+03</pdfrwt>
<totfact> 0.10832168E+04</totfact>
</mgrwt>
</event>
<event>
 9    1  0.2031653E-002  0.2743978E+03  0.7818608E-02  0.1098789E+00
         -1   -1    0    0    0  501 -0.00000000000E+00  0.00000000000E+00  0.58670675456E+02  0.58670675456E+02  0.00000000000E+00 0.  1.
          1   -1    0    0  501    0  0.00000000000E+00 -0.00000000000E+00 -0.32083390161E+03  0.32083390161E+03  0.00000000000E+00 0.  1.
         36    2    1    2    0    0 -0.17763568394E-14  0.00000000000E+00 -0.26216322615E+03  0.37950457706E+03  0.27439782591E+03 0.  0.
         25    2    3    3    0    0 -0.89702934556E+00 -0.10540046670E+02 -0.76327208028E+02  0.14758871124E+03  0.12587568374E+03 0.  0.
         25    2    3    3    0    0  0.89702934556E+00  0.10540046670E+02 -0.18583601812E+03  0.23191586582E+03  0.13834032652E+03 0.  0.
          5    1    4    4  502    0  0.56091878737E+02 -0.23309926747E+02 -0.62719371068E+02  0.87438327136E+02  0.47000000000E+01 0. -1.
         -5    1    4    4    0  502 -0.56988908082E+02  0.12769880077E+02 -0.13607836960E+02  0.60150384108E+02  0.47000000000E+01 0. -1.
          5    1    5    5  503    0 -0.99152705175E+01  0.72501907572E+02 -0.12083204371E+03  0.14134111921E+03  0.47000000000E+01 0. -1.
         -5    1    5    5    0  503  0.10812299863E+02 -0.61961860902E+02 -0.65003974412E+02  0.90574746613E+02  0.47000000000E+01 0. -1.
<mgrwt>
<rscale>  0 0.27439783E+03</rscale>
<asrwt>0</asrwt>
<pdfrwt beam="1">  1        1 0.49359061E-01 0.27439783E+03</pdfrwt>
<pdfrwt beam="2">  1       -1 0.90262578E-02 0.27439783E+03</pdfrwt>
<totfact> 0.57108744E+03</totfact>
</mgrwt>
</event>
<event>
 9    1  0.2031653E-002  0.2748554E+03  0.7818608E-02  0.1098532E+00
         -1   -1    0    0    0  501 -0.00000000000E+00  0.00000000000E+00  0.47278450716E+02  0.47278450716E+02  0.00000000000E+00 0. -1.
          1   -1    0    0  501    0  0.00000000000E+00 -0.00000000000E+00 -0.39947109065E+03  0.39947109065E+03  0.00000000000E+00 0. -1.
         36    2    1    2    0    0 -0.17763568394E-14  0.00000000000E+00 -0.35219263993E+03  0.44674954137E+03  0.27485541124E+03 0.  0.
         25    2    3    3    0    0  0.75896122895E+01  0.69841950098E+02 -0.75147102416E+02  0.13419040224E+03  0.86165403990E+02 0.  0.
         25    2    3    3    0    0 -0.75896122895E+01 -0.69841950098E+02 -0.27704553752E+03  0.31255913912E+03  0.12650488284E+03 0.  0.
          5    1    4    4  502    0 -0.72973725955E+01  0.37906919250E+02  0.11485551938E+02  0.40548663075E+02  0.47000000000E+01 0.  1.
         -5    1    4    4    0  502  0.14886984885E+02  0.31935030848E+02 -0.86632654354E+02  0.93641739169E+02  0.47000000000E+01 0.  1.
          5    1    5    5  503    0 -0.63862428044E+02 -0.14554495943E+02 -0.12723770859E+03  0.14318438307E+03  0.47000000000E+01 0. -1.
         -5    1    5    5    0  503  0.56272815754E+02 -0.55287454154E+02 -0.14980782893E+03  0.16937475606E+03  0.47000000000E+01 0. -1.
<mgrwt>
<rscale>  0 0.27485541E+03</rscale>
<asrwt>0</asrwt>
<pdfrwt beam="1">  1        1 0.61457092E-01 0.27485541E+03</pdfrwt>
<pdfrwt beam="2">  1       -1 0.72736076E-02 0.27485541E+03</pdfrwt>
<totfact> 0.60125403E+03</totfact>
</mgrwt>
</event>
<event>
 9    1  0.2031653E-002  0.2753920E+03  0.7818608E-02  0.1098233E+00
          1   -1    0    0  501    0  0.00000000000E+00  0.00000000000E+00  0.14181882264E+03  0.14181882264E+03  0.00000000000E+00 0.  1.
         -1   -1    0    0    0  501 -0.00000000000E+00 -0.00000000000E+00 -0.13369306810E+03  0.13369306810E+03  0.00000000000E+00 0.  1.
         36    2    1    2    0    0  0.35527136788E-14  0.00000000000E+00  0.81257545446E+01  0.27551189074E+03  0.27539203701E+03 0.  0.
         25    2    3    3    0    0  0.31975009150E+02 -0.40153494326E+02 -0.32293214049E+01  0.13473465975E+03  0.12453230787E+03 0.  0.
         25    2    3    3    0    0 -0.31975009150E+02  0.40153494326E+02  0.11355075950E+02  0.14077723099E+03  0.13059321077E+03 0.  0.
          5    1    4    4  502    0  0.56701303931E+02  0.23495481069E+02  0.16073547155E+02  0.63620157311E+02  0.47000000000E+01 0.  1.
         -5    1    4    4    0  502 -0.24726294781E+02 -0.63648975395E+02 -0.19302868560E+02  0.71114502438E+02  0.47000000000E+01 0.  1.
          5    1    5    5  503    0 -0.48031189236E+01 -0.42980869682E+02 -0.19821211474E+02  0.47805810676E+02  0.47000000000E+01 0.  1.
         -5    1    5    5    0  503 -0.27171890227E+02  0.83134364008E+02  0.31176287424E+02  0.92971420313E+02  0.47000000000E+01 0.  1.
<mgrwt>
<rscale>  0 0.27539204E+03</rscale>
<asrwt>0</asrwt>
<pdfrwt beam="1">  1        1 0.21818280E-01 0.27539204E+03</pdfrwt>
<pdfrwt beam="2">  1       -1 0.20568164E-01 0.27539204E+03</pdfrwt>
<totfact> 0.43645658E+03</totfact>
</mgrwt>
</event>
<event>
 9    1  0.2031653E-002  0.2744016E+03  0.7818608E-02  0.1098787E+00
          1   -1    0    0  501    0  0.00000000000E+00  0.00000000000E+00  0.43387046371E+03  0.43387046371E+03  0.00000000000E+00 0.  1.
         -1   -1    0    0    0  501 -0.00000000000E+00 -0.00000000000E+00 -0.43386359790E+02  0.43386359790E+02  0.00000000000E+00 0.  1.
         36    2    1    2    0    0 -0.35527136788E-14  0.00000000000E+00  0.39048410392E+03  0.47725682350E+03  0.27440160379E+03 0.  0.
         25    2    3    3    0    0  0.72725937914E+01  0.54707528983E+02  0.17979793215E+03  0.22558159947E+03  0.12455503708E+03 0.  0.
         25    2    3    3    0    0 -0.72725937914E+01 -0.54707528983E+02  0.21068617176E+03  0.25167522403E+03  0.12611879745E+03 0.  0.
          5    1    4    4  502    0 -0.33291835236E+02  0.67809900374E+02  0.54833699530E+02  0.93463112971E+02  0.47000000000E+01 0. -1.
         -5    1    4    4    0  502  0.40564429027E+02 -0.13102371391E+02  0.12496423262E+03  0.13211848649E+03  0.47000000000E+01 0. -1.
          5    1    5    5  503    0 -0.36789789236E+02  0.60128281990E+01  0.16687886219E+03  0.17105638643E+03  0.47000000000E+01 0. -1.
         -5    1    5    5    0  503  0.29517195444E+02 -0.60720357182E+02  0.43807309576E+02  0.80618837597E+02  0.47000000000E+01 0. -1.
<mgrwt>
<rscale>  0 0.27440160E+03</rscale>
<asrwt>0</asrwt>
<pdfrwt beam="1">  1        1 0.66749299E-01 0.27440160E+03</pdfrwt>
<pdfrwt beam="2">  1       -1 0.66748249E-02 0.27440160E+03</pdfrwt>
<totfact> 0.61576556E+03</totfact>
</mgrwt>
</event>
<event>
 9    1  0.2031653E-002  0.2742144E+03  0.7818608E-02  0.1098892E+00
          2   -1    0    0  501    0  0.00000000000E+00  0.00000000000E+00  0.49230744720E+03  0.49230744720E+03  0.00000000000E+00 0. -1.
         -2   -1    0    0    0  501 -0.00000000000E+00 -0.00000000000E+00 -0.38184230015E+02  0.38184230015E+02  0.00000000000E+00 0. -1.
         36    2    1    2    0    0  0.71054273576E-14  0.00000000000E+00  0.45412321719E+03  0.53049167722E+03  0.27421437455E+03 0.  0.
         25    2    3    3    0    0 -0.27961999280E+02 -0.27124285412E+02  0.30787832028E+03  0.33490910756E+03  0.12592636723E+03 0.  0.
         25    2    3    3    0    0  0.27961999280E+02  0.27124285412E+02  0.14624489691E+03  0.19558256966E+03  0.12388450839E+03 0.  0.
          5    1    4    4  502    0 -0.46507879418E+02 -0.11004533077E+02  0.31569565018E+02  0.57470079447E+02  0.47000000000E+01 0.  1.
         -5    1    4    4    0  502  0.18545880138E+02 -0.16119752335E+02  0.27630875526E+03  0.27743902811E+03  0.47000000000E+01 0.  1.
          5    1    5    5  503    0 -0.28909595339E+02  0.56839963773E+02  0.57675407252E+02  0.86110909797E+02  0.47000000000E+01 0. -1.
         -5    1    5    5    0  503  0.56871594619E+02 -0.29715678361E+02  0.88569489655E+02  0.10947165986E+03  0.47000000000E+01 0. -1.
<mgrwt>
<rscale>  0 0.27421437E+03</rscale>
<asrwt>0</asrwt>
<pdfrwt beam="1">  1        2 0.75739603E-01 0.27421437E+03</pdfrwt>
<pdfrwt beam="2">  1       -2 0.58744973E-02 0.27421437E+03</pdfrwt>
<totfact> 0.96292071E+03</totfact>
</mgrwt>
</event>
<event>
 9    1  0.2031653E-002  0.2746304E+03  0.7818608E-02  0.1098658E+00
          1   -1    0    0  501    0  0.00000000000E+00  0.00000000000E+00  0.14388791832E+03  0.14388791832E+03  0.00000000000E+00 0. -1.
         -1   -1    0    0    0  501 -0.00000000000E+00 -0.00000000000E+00 -0.13104269821E+03  0.13104269821E+03  0.00000000000E+00 0. -1.
         36    2    1    2    0    0  0.71054273576E-14 -0.71054273576E-14  0.12845220109E+02  0.27493061652E+03  0.27463037746E+03 0.  0.
         25    2    3    3    0    0  0.47787078734E+02 -0.36141056590E+02  0.25272458311E+02  0.13452922281E+03  0.11776940934E+03 0.  0.
         25    2    3    3    0    0 -0.47787078734E+02  0.36141056590E+02 -0.12427238202E+02  0.14040139371E+03  0.12636587451E+03 0.  0.
          5    1    4    4  502    0  0.41021734916E+02  0.42793701183E+01  0.65087120929E+02  0.77197921312E+02  0.47000000000E+01 0.  1.
         -5    1    4    4    0  502  0.67653438174E+01 -0.40420426708E+02 -0.39814662618E+02  0.57331301499E+02  0.47000000000E+01 0.  1.
          5    1    5    5  503    0 -0.57786318192E+02  0.72187459191E+01 -0.59932185329E+02  0.83697823754E+02  0.47000000000E+01 0. -1.
         -5    1    5    5    0  503  0.99992394581E+01  0.28922310671E+02  0.47504947127E+02  0.56703569956E+02  0.47000000000E+01 0. -1.
<mgrwt>
<rscale>  0 0.27463038E+03</rscale>
<asrwt>0</asrwt>
<pdfrwt beam="1">  1        1 0.22136603E-01 0.27463038E+03</pdfrwt>
<pdfrwt beam="2">  1       -1 0.20160415E-01 0.27463038E+03</pdfrwt>
<totfact> 0.44259285E+03</totfact>
</mgrwt>
</event>
<event>
 9    1  0.2031653E-002  0.2749777E+03  0.7818608E-02  0.1098464E+00
         -2   -1    0    0    0  501 -0.00000000000E+00  0.00000000000E+00  0.39342094340E+02  0.39342094340E+02  0.00000000000E+00 0. -1.
          2   -1    0    0  501    0  0.00000000000E+00 -0.00000000000E+00 -0.48048229943E+03  0.48048229943E+03  0.00000000000E+00 0. -1.
         36    2    1    2    0    0  0.00000000000E+00 -0.14210854715E-13 -0.44114020509E+03  0.51982439377E+03  0.27497767148E+03 0.  0.
         25    2    3    3    0    0  0.18321758551E+02  0.56350183609E+02 -0.21061620385E+03  0.25160870127E+03  0.12424461036E+03 0.  0.
         25    2    3    3    0    0 -0.18321758551E+02 -0.56350183609E+02 -0.23052400124E+03  0.26821569250E+03  0.12364187205E+03 0.  0.
          5    1    4    4  502    0 -0.30614249257E+02  0.61453488780E+02 -0.54286969572E+02  0.87652316604E+02  0.47000000000E+01 0.  1.
         -5    1    4    4    0  502  0.48936007807E+02 -0.51033051710E+01 -0.15632923428E+03  0.16395638467E+03  0.47000000000E+01 0.  1.
          5    1    5    5  503    0 -0.60519203038E+01  0.22065379232E+02  0.10408780805E+01  0.23381191740E+02  0.47000000000E+01 0.  1.
         -5    1    5    5    0  503 -0.12269838247E+02 -0.78415562840E+02 -0.23156487932E+03  0.24483450076E+03  0.47000000000E+01 0.  1.
<mgrwt>
<rscale>  0 0.27497767E+03</rscale>
<asrwt>0</asrwt>
<pdfrwt beam="1">  1        2 0.73920348E-01 0.27497767E+03</pdfrwt>
<pdfrwt beam="2">  1       -2 0.60526304E-02 0.27497767E+03</pdfrwt>
<totfact> 0.94515085E+03</totfact>
</mgrwt>
</event>
<event>
 9    1  0.2031653E-002  0.2750259E+03  0.7818608E-02  0.1098437E+00
          2   -1    0    0  501    0  0.00000000000E+00  0.00000000000E+00  0.14428853356E+04  0.14428853356E+04  0.00000000000E+00 0. -1.
         -2   -1    0    0    0  501 -0.00000000000E+00 -0.00000000000E+00 -0.13105556104E+02  0.13105556104E+02  0.00000000000E+00 0. -1.
         36    2    1    2    0    0  0.00000000000E+00  0.00000000000E+00  0.14297797795E+04  0.14559908917E+04  0.27502592399E+03 0.  0.
         25    2    3    3    0    0  0.38861904714E+02 -0.28314376386E+02  0.73295512793E+03  0.74623227004E+03  0.13163369528E+03 0.  0.
         25    2    3    3    0    0 -0.38861904714E+02  0.28314376386E+02  0.69682465153E+03  0.70975862163E+03  0.12601886548E+03 0.  0.
          5    1    4    4  502    0  0.66837095864E+01 -0.53896153555E+02  0.11907764852E+03  0.13096199342E+03  0.47000000000E+01 0. -1.
         -5    1    4    4    0  502  0.32178195127E+02  0.25581777169E+02  0.61387747941E+03  0.61527027662E+03  0.47000000000E+01 0. -1.
          5    1    5    5  503    0 -0.37506219345E+02  0.43168991002E+02  0.12304768899E+03  0.13576856057E+03  0.47000000000E+01 0. -1.
         -5    1    5    5    0  503 -0.13556853689E+01 -0.14854614616E+02  0.57377696254E+03  0.57399006106E+03  0.47000000000E+01 0. -1.
<mgrwt>
<rscale>  0 0.27502592E+03</rscale>
<asrwt>0</asrwt>
<pdfrwt beam="1">  1        2 0.22198223E+00 0.27502592E+03</pdfrwt>
<pdfrwt beam="2">  1       -2 0.20162405E-02 0.27502592E+03</pdfrwt>
<totfact> 0.11186793E+04</totfact>
</mgrwt>
</event>
<event>
 9    1  0.2031653E-002  0.2749562E+03  0.7818608E-02  0.1098476E+00
          3   -1    0    0  501    0  0.00000000000E+00  0.00000000000E+00  0.25056715014E+02  0.25056715014E+02  0.00000000000E+00 0.  1.
         -3   -1    0    0    0  501 -0.00000000000E+00 -0.00000000000E+00 -0.75429807605E+03  0.75429807605E+03  0.00000000000E+00 0.  1.
         36    2    1    2    0    0  0.00000000000E+00  0.00000000000E+00 -0.72924136104E+03  0.77935479107E+03  0.27495622871E+03 0.  0.
         25    2    3    3    0    0 -0.86865712455E+01 -0.30811373467E+02 -0.35940876764E+03  0.38758348518E+03  0.14149734441E+03 0.  0.
         25    2    3    3    0    0  0.86865712455E+01  0.30811373467E+02 -0.36983259340E+03  0.39177130589E+03  0.12523502592E+03 0.  0.
          5    1    4    4  502    0 -0.21443369536E+02  0.50948919494E+02 -0.90106220083E+02  0.10581508112E+03  0.47000000000E+01 0. -1.
         -5    1    4    4    0  502  0.12756798290E+02 -0.81760292961E+02 -0.26930254755E+03  0.28176840406E+03  0.47000000000E+01 0. -1.
          5    1    5    5  503    0 -0.19148598081E+02  0.71212138231E+02 -0.27676407213E+03  0.28645816285E+03  0.47000000000E+01 0.  1.
         -5    1    5    5    0  503  0.27835169327E+02 -0.40400764764E+02 -0.93068521270E+02  0.10531314304E+03  0.47000000000E+01 0.  1.
<mgrwt>
<rscale>  0 0.27495623E+03</rscale>
<asrwt>0</asrwt>
<pdfrwt beam="1">  1        3 0.38548794E-02 0.27495623E+03</pdfrwt>
<pdfrwt beam="2">  1       -3 0.11604585E+00 0.27495623E+03</pdfrwt>
<totfact> 0.55866927E+02</totfact>
</mgrwt>
</event>
<event>
 9    1  0.2031653E-002  0.2756995E+03  0.7818608E-02  0.1098061E+00
          2   -1    0    0  501    0  0.00000000000E+00  0.00000000000E+00  0.85770803063E+02  0.85770803063E+02  0.00000000000E+00 0.  1.
         -2   -1    0    0    0  501 -0.00000000000E+00 -0.00000000000E+00 -0.22155035928E+03  0.22155035928E+03  0.00000000000E+00 0.  1.
         36    2    1    2    0    0  0.00000000000E+00  0.00000000000E+00 -0.13577955621E+03  0.30732116234E+03  0.27569949027E+03 0.  0.
         25    2    3    3    0    0  0.51358910999E+02 -0.13590381782E+02 -0.10277514311E+03  0.16799971711E+03  0.12181436160E+03 0.  0.
         25    2    3    3    0    0 -0.51358910999E+02  0.13590381782E+02 -0.33004413106E+02  0.13932144523E+03  0.12449392595E+03 0.  0.
          5    1    4    4  502    0  0.46007316437E+02  0.37053109342E+02 -0.73230670645E+01  0.59710328996E+02  0.47000000000E+01 0. -1.
         -5    1    4    4    0  502  0.53515945622E+01 -0.50643491124E+02 -0.95452076044E+02  0.10828938812E+03  0.47000000000E+01 0. -1.
          5    1    5    5  503    0 -0.26587323764E+02  0.43964801992E+02  0.33832761945E+02  0.61697126189E+02  0.47000000000E+01 0.  1.
         -5    1    5    5    0  503 -0.24771587235E+02 -0.30374420210E+02 -0.66837175052E+02  0.77624319038E+02  0.47000000000E+01 0.  1.
<mgrwt>
<rscale>  0 0.27569949E+03</rscale>
<asrwt>0</asrwt>
<pdfrwt beam="1">  1        2 0.13195508E-01 0.27569949E+03</pdfrwt>
<pdfrwt beam="2">  1       -2 0.34084671E-01 0.27569949E+03</pdfrwt>
<totfact> 0.36545864E+03</totfact>
</mgrwt>
</event>
<event>
 9    1  0.2031653E-002  0.2755159E+03  0.7818608E-02  0.1098164E+00
          1   -1    0    0  501    0  0.00000000000E+00  0.00000000000E+00  0.98850627599E+03  0.98850627599E+03  0.00000000000E+00 0. -1.
         -1   -1    0    0    0  501 -0.00000000000E+00 -0.00000000000E+00 -0.19197905997E+02  0.19197905997E+02  0.00000000000E+00 0. -1.
         36    2    1    2    0    0 -0.71054273576E-14  0.00000000000E+00  0.96930836999E+03  0.10077041820E+04  0.27551588385E+03 0.  0.
         25    2    3    3    0    0 -0.46782417862E+02 -0.19231709345E+02  0.41604172471E+03  0.43753094181E+03  0.12563500735E+03 0.  0.
         25    2    3    3    0    0  0.46782417862E+02  0.19231709345E+02  0.55326664528E+03  0.57017324018E+03  0.12819941409E+03 0.  0.
          5    1    4    4  502    0 -0.34230228035E+02 -0.33675093872E+02  0.45029860443E+02  0.65996202846E+02  0.47000000000E+01 0. -1.
         -5    1    4    4    0  502 -0.12552189827E+02  0.14443384527E+02  0.37101186427E+03  0.37153473896E+03  0.47000000000E+01 0. -1.
          5    1    5    5  503    0  0.37780908422E+02 -0.26084925788E+02  0.65081498765E+02  0.79784158052E+02  0.47000000000E+01 0.  1.
         -5    1    5    5    0  503  0.90015094399E+01  0.45316635133E+02  0.48818514651E+03  0.49038908213E+03  0.47000000000E+01 0.  1.
<mgrwt>
<rscale>  0 0.27551588E+03</rscale>
<asrwt>0</asrwt>
<pdfrwt beam="1">  1        1 0.15207785E+00 0.27551588E+03</pdfrwt>
<pdfrwt beam="2">  1       -1 0.29535248E-02 0.27551588E+03</pdfrwt>
<totfact> 0.62931768E+03</totfact>
</mgrwt>
</event>
<event>
 9    1  0.2031653E-002  0.2755257E+03  0.7818608E-02  0.1098158E+00
         -2   -1    0    0    0  501 -0.00000000000E+00  0.00000000000E+00  0.10854491631E+02  0.10854491631E+02  0.00000000000E+00 0. -1.
          2   -1    0    0  501    0  0.00000000000E+00 -0.00000000000E+00 -0.17484564166E+04  0.17484564166E+04  0.00000000000E+00 0. -1.
         36    2    1    2    0    0  0.17763568394E-14 -0.71054273576E-14 -0.17376019249E+04  0.17593109082E+04  0.27552571960E+03 0.  0.
         25    2    3    3    0    0  0.15816254819E+02 -0.42939776661E+02 -0.11324893283E+04  0.11397731945E+04  0.12023675769E+03 0.  0.
         25    2    3    3    0    0 -0.15816254819E+02  0.42939776661E+02 -0.60511259666E+03  0.61953771370E+03  0.12478680108E+03 0.  0.
          5    1    4    4  502    0 -0.52588705950E+01 -0.71436272007E+02 -0.99909706208E+03  0.10016725144E+04  0.47000000000E+01 0.  1.
         -5    1    4    4    0  502  0.21075125414E+02  0.28496495346E+02 -0.13339226618E+03  0.13810068007E+03  0.47000000000E+01 0.  1.
          5    1    5    5  503    0 -0.13046493534E+02 -0.17648814563E+02 -0.16668537859E+02  0.27957499949E+02  0.47000000000E+01 0. -1.
         -5    1    5    5    0  503 -0.27697612842E+01  0.60588591224E+02 -0.58844405880E+03  0.59158021375E+03  0.47000000000E+01 0. -1.
<mgrwt>
<rscale>  0 0.27552572E+03</rscale>
<asrwt>0</asrwt>
<pdfrwt beam="1">  1        2 0.26899326E+00 0.27552572E+03</pdfrwt>
<pdfrwt beam="2">  1       -2 0.16699220E-02 0.27552572E+03</pdfrwt>
<totfact> 0.10154670E+04</totfact>
</mgrwt>
</event>
<event>
 9    1  0.2031653E-002  0.2752126E+03  0.7818608E-02  0.1098333E+00
         -1   -1    0    0    0  501 -0.00000000000E+00  0.00000000000E+00  0.14918505018E+02  0.14918505018E+02  0.00000000000E+00 0.  1.
          1   -1    0    0  501    0  0.00000000000E+00 -0.00000000000E+00 -0.12692620315E+04  0.12692620315E+04  0.00000000000E+00 0.  1.
         36    2    1    2    0    0  0.00000000000E+00  0.71054273576E-14 -0.12543435265E+04  0.12841805365E+04  0.27521258681E+03 0.  0.
         25    2    3    3    0    0 -0.52016613294E+02 -0.29549239763E+02 -0.69729942703E+03  0.71081689818E+03  0.12431929128E+03 0.  0.
         25    2    3    3    0    0  0.52016613294E+02  0.29549239763E+02 -0.55704409944E+03  0.57336363831E+03  0.12193788334E+03 0.  0.
          5    1    4    4  502    0 -0.50548423794E+02  0.17627333497E+02 -0.60171985417E+03  0.60411483920E+03  0.47000000000E+01 0.  1.
         -5    1    4    4    0  502 -0.14681895009E+01 -0.47176573260E+02 -0.95579572853E+02  0.10670205899E+03  0.47000000000E+01 0.  1.
          5    1    5    5  503    0 -0.41265397894E+01 -0.31909082359E+02 -0.32816399467E+03  0.32977100428E+03  0.47000000000E+01 0.  1.
         -5    1    5    5    0  503  0.56143153084E+02  0.61458322122E+02 -0.22888010477E+03  0.24359263403E+03  0.47000000000E+01 0.  1.
<mgrwt>
<rscale>  0 0.27521259E+03</rscale>
<asrwt>0</asrwt>
<pdfrwt beam="1">  1        1 0.19527118E+00 0.27521259E+03</pdfrwt>
<pdfrwt beam="2">  1       -1 0.22951535E-02 0.27521259E+03</pdfrwt>
<totfact> 0.57392576E+03</totfact>
</mgrwt>
</event>
<event>
 9    1  0.2031653E-002  0.2744984E+03  0.7818608E-02  0.1098732E+00
          2   -1    0    0  501    0  0.00000000000E+00  0.00000000000E+00  0.64145499425E+03  0.64145499425E+03  0.00000000000E+00 0. -1.
         -2   -1    0    0    0  501 -0.00000000000E+00 -0.00000000000E+00 -0.29366578445E+02  0.29366578445E+02  0.00000000000E+00 0. -1.
         36    2    1    2    0    0  0.35527136788E-14  0.00000000000E+00  0.61208841581E+03  0.67082157270E+03  0.27449836726E+03 0.  0.
         25    2    3    3    0    0 -0.18463631467E+02  0.42852329493E+02  0.38754277175E+03  0.40983365470E+03  0.12488793679E+03 0.  0.
         25    2    3    3    0    0  0.18463631467E+02 -0.42852329493E+02  0.22454564405E+03  0.26098791800E+03  0.12456612400E+03 0.  0.
          5    1    4    4  502    0 -0.55834867448E+02  0.64888099848E+02  0.20616602554E+03  0.22328125316E+03  0.47000000000E+01 0.  1.
         -5    1    4    4    0  502  0.37371235981E+02 -0.22035770355E+02  0.18137674621E+03  0.18655240154E+03  0.47000000000E+01 0.  1.
          5    1    5    5  503    0  0.23655441558E+02  0.30044025738E+02  0.15597995821E+03  0.16066754732E+03  0.47000000000E+01 0.  1.
         -5    1    5    5    0  503 -0.51918100907E+01 -0.72896355231E+02  0.68565685840E+02  0.10032037068E+03  0.47000000000E+01 0.  1.
<mgrwt>
<rscale>  0 0.27449837E+03</rscale>
<asrwt>0</asrwt>
<pdfrwt beam="1">  1        2 0.98685374E-01 0.27449837E+03</pdfrwt>
<pdfrwt beam="2">  1       -2 0.45179356E-02 0.27449837E+03</pdfrwt>
<totfact> 0.10604584E+04</totfact>
</mgrwt>
</event>
<event>
 9    1  0.2031653E-002  0.2742801E+03  0.7818608E-02  0.1098855E+00
         -4   -1    0    0    0  501 -0.00000000000E+00  0.00000000000E+00  0.12727850672E+02  0.12727850672E+02  0.00000000000E+00 0.  1.
          4   -1    0    0  501    0  0.00000000000E+00 -0.00000000000E+00 -0.14776561401E+04  0.14776561401E+04  0.00000000000E+00 0.  1.
         36    2    1    2    0    0  0.71054273576E-14  0.71054273576E-14 -0.14649282894E+04  0.14903839908E+04  0.27428005175E+03 0.  0.
         25    2    3    3    0    0  0.36389109824E+02  0.28015198882E+02 -0.85474399099E+03  0.86525600160E+03  0.12637895191E+03 0.  0.
         25    2    3    3    0    0 -0.36389109824E+02 -0.28015198882E+02 -0.61018429844E+03  0.62512798917E+03  0.12787144367E+03 0.  0.
          5    1    4    4  502    0  0.25245488536E+02 -0.39800933131E+02 -0.58284590451E+03  0.58476737885E+03  0.47000000000E+01 0.  1.
         -5    1    4    4    0  502  0.11143621288E+02  0.67816132013E+02 -0.27189808649E+03  0.28048862275E+03  0.47000000000E+01 0.  1.
          5    1    5    5  503    0 -0.26432593896E+02  0.40639966544E+02 -0.41654785842E+03  0.41938585724E+03  0.47000000000E+01 0.  1.
         -5    1    5    5    0  503 -0.99565159278E+01 -0.68655165426E+02 -0.19363644001E+03  0.20574213193E+03  0.47000000000E+01 0.  1.
<mgrwt>
<rscale>  0 0.27428005E+03</rscale>
<asrwt>0</asrwt>
<pdfrwt beam="1">  1        4 0.22733173E+00 0.27428005E+03</pdfrwt>
<pdfrwt beam="2">  1       -4 0.19581308E-02 0.27428005E+03</pdfrwt>
<totfact> 0.19165320E+02</totfact>
</mgrwt>
</event>
<event>
 9    1  0.2031653E-002  0.2743063E+03  0.7818608E-02  0.1098840E+00
         -2   -1    0    0    0  501 -0.00000000000E+00  0.00000000000E+00  0.12922037197E+02  0.12922037197E+02  0.00000000000E+00 0. -1.
          2   -1    0    0  501    0  0.00000000000E+00 -0.00000000000E+00 -0.14557294693E+04  0.14557294693E+04  0.00000000000E+00 0. -1.
         36    2    1    2    0    0  0.35527136788E-14  0.00000000000E+00 -0.14428074321E+04  0.14686515065E+04  0.27430632767E+03 0.  0.
         25    2    3    3    0    0  0.30578261033E+02 -0.38595615076E+02 -0.53288457538E+03  0.54881116121E+03  0.12166786114E+03 0.  0.
         25    2    3    3    0    0 -0.30578261033E+02  0.38595615076E+02 -0.90992285669E+03  0.91984034526E+03  0.12538741598E+03 0.  0.
          5    1    4    4  502    0  0.62513478472E+02 -0.28075038713E+02 -0.48652242938E+03  0.49134744029E+03  0.47000000000E+01 0. -1.
         -5    1    4    4    0  502 -0.31935217439E+02 -0.10520576362E+02 -0.46362146003E+02  0.57463720919E+02  0.47000000000E+01 0. -1.
          5    1    5    5  503    0  0.37916886997E+02  0.47303586439E+02 -0.30742627368E+03  0.31338207249E+03  0.47000000000E+01 0. -1.
         -5    1    5    5    0  503 -0.68495148030E+02 -0.87079713633E+01 -0.60249658301E+03  0.60645827277E+03  0.47000000000E+01 0. -1.
<mgrwt>
<rscale>  0 0.27430633E+03</rscale>
<asrwt>0</asrwt>
<pdfrwt beam="1">  1        2 0.22395849E+00 0.27430633E+03</pdfrwt>
<pdfrwt beam="2">  1       -2 0.19880048E-02 0.27430633E+03</pdfrwt>
<totfact> 0.11240074E+04</totfact>
</mgrwt>
</event>
<event>
 9    1  0.2031653E-002  0.2746828E+03  0.7818608E-02  0.1098629E+00
         -2   -1    0    0    0  501 -0.00000000000E+00  0.00000000000E+00  0.48102826735E+02  0.48102826735E+02  0.00000000000E+00 0.  1.
          2   -1    0    0  501    0  0.00000000000E+00 -0.00000000000E+00 -0.39213196776E+03  0.39213196776E+03  0.00000000000E+00 0.  1.
         36    2    1    2    0    0 -0.35527136788E-14  0.00000000000E+00 -0.34402914102E+03  0.44023479449E+03  0.27468277050E+03 0.  0.
         25    2    3    3    0    0 -0.28200243764E+02  0.37657951248E+02 -0.22473975833E+03  0.26081486900E+03  0.12370554504E+03 0.  0.
         25    2    3    3    0    0  0.28200243764E+02 -0.37657951248E+02 -0.11928938269E+03  0.17941992549E+03  0.12549174396E+03 0.  0.
          5    1    4    4  502    0  0.33442290417E+02  0.19412017591E+02 -0.17531212630E+03  0.17958742952E+03  0.47000000000E+01 0.  1.
         -5    1    4    4    0  502 -0.61642534181E+02  0.18245933657E+02 -0.49427632039E+02  0.81227439479E+02  0.47000000000E+01 0.  1.
          5    1    5    5  503    0  0.35889942756E+02  0.29926686951E+02 -0.96854375199E+02  0.10764085924E+03  0.47000000000E+01 0.  1.
         -5    1    5    5    0  503 -0.76896989922E+01 -0.67584638199E+02 -0.22435007488E+02  0.71779066253E+02  0.47000000000E+01 0.  1.
<mgrwt>
<rscale>  0 0.27468277E+03</rscale>
<asrwt>0</asrwt>
<pdfrwt beam="1">  1        2 0.60327994E-01 0.27468277E+03</pdfrwt>
<pdfrwt beam="2">  1       -2 0.74004350E-02 0.27468277E+03</pdfrwt>
<totfact> 0.86583054E+03</totfact>
</mgrwt>
</event>
<event>
 9    1  0.2031653E-002  0.2756879E+03  0.7818608E-02  0.1098068E+00
          2   -1    0    0  501    0  0.00000000000E+00  0.00000000000E+00  0.49101514844E+02  0.49101514844E+02  0.00000000000E+00 0. -1.
         -2   -1    0    0    0  501 -0.00000000000E+00 -0.00000000000E+00 -0.38697299519E+03  0.38697299519E+03  0.00000000000E+00 0. -1.
         36    2    1    2    0    0  0.00000000000E+00 -0.71054273576E-14 -0.33787148035E+03  0.43607451004E+03  0.27568794147E+03 0.  0.
         25    2    3    3    0    0  0.11180039739E+02  0.35679437447E+02 -0.23941853465E+03  0.27226147871E+03  0.12412518887E+03 0.  0.
         25    2    3    3    0    0 -0.11180039739E+02 -0.35679437447E+02 -0.98452945704E+02  0.16381303133E+03  0.12547394618E+03 0.  0.
          5    1    4    4  502    0  0.52505111126E+02  0.61249071384E+02 -0.14866705956E+03  0.16921057897E+03  0.47000000000E+01 0.  1.
         -5    1    4    4    0  502 -0.41325071388E+02 -0.25569633937E+02 -0.90751475091E+02  0.10305089973E+03  0.47000000000E+01 0.  1.
          5    1    5    5  503    0  0.26684044361E+02 -0.19533286503E+02 -0.11458395338E+03  0.11935308909E+03  0.47000000000E+01 0.  1.
         -5    1    5    5    0  503 -0.37864084100E+02 -0.16146150943E+02  0.16131007673E+02  0.44459942235E+02  0.47000000000E+01 0.  1.
<mgrwt>
<rscale>  0 0.27568794E+03</rscale>
<asrwt>0</asrwt>
<pdfrwt beam="1">  1        2 0.75540790E-02 0.27568794E+03</pdfrwt>
<pdfrwt beam="2">  1       -2 0.59534308E-01 0.27568794E+03</pdfrwt>
<totfact> 0.24536142E+03</totfact>
</mgrwt>
</event>
<event>
 9    1  0.2031653E-002  0.2744842E+03  0.7818608E-02  0.1098740E+00
          2   -1    0    0  501    0  0.00000000000E+00  0.00000000000E+00  0.11174715858E+03  0.11174715858E+03  0.00000000000E+00 0.  1.
         -2   -1    0    0    0  501 -0.00000000000E+00 -0.00000000000E+00 -0.16855364762E+03  0.16855364762E+03  0.00000000000E+00 0.  1.
         36    2    1    2    0    0  0.35527136788E-14 -0.71054273576E-14 -0.56806489040E+02  0.28030080619E+03  0.27448417943E+03 0.  0.
         25    2    3    3    0    0 -0.11548202467E+02  0.35197093907E+02 -0.88397662400E+02  0.15337570333E+03  0.11974039942E+03 0.  0.
         25    2    3    3    0    0  0.11548202467E+02 -0.35197093907E+02  0.31591173360E+02  0.12692510286E+03  0.11721682090E+03 0.  0.
          5    1    4    4  502    0 -0.59962247912E+02 -0.70540299139E+01 -0.48573427105E+02  0.77631812637E+02  0.47000000000E+01 0.  1.
         -5    1    4    4    0  502  0.48414045444E+02  0.42251123821E+02 -0.39824235295E+02  0.75743890692E+02  0.47000000000E+01 0.  1.
          5    1    5    5  503    0  0.29656078463E+02  0.36335645609E+02  0.16828535413E+01  0.47166557302E+02  0.47000000000E+01 0.  1.
         -5    1    5    5    0  503 -0.18107875995E+02 -0.71532739516E+02  0.29908319818E+02  0.79758545562E+02  0.47000000000E+01 0.  1.
<mgrwt>
<rscale>  0 0.27448418E+03</rscale>
<asrwt>0</asrwt>
<pdfrwt beam="1">  1        2 0.17191871E-01 0.27448418E+03</pdfrwt>
<pdfrwt beam="2">  1       -2 0.25931330E-01 0.27448418E+03</pdfrwt>
<totfact> 0.43854210E+03</totfact>
</mgrwt>
</event>
<event>
 9    1  0.2031653E-002  0.2742488E+03  0.7818608E-02  0.1098872E+00
         -4   -1    0    0    0  501 -0.00000000000E+00  0.00000000000E+00  0.56947773980E+03  0.56947773980E+03  0.00000000000E+00 0.  1.
          4   -1    0    0  501    0  0.00000000000E+00 -0.00000000000E+00 -0.33018143241E+02  0.33018143241E+02  0.00000000000E+00 0.  1.
         36    2    1    2    0    0  0.71054273576E-14 -0.53290705182E-14  0.53645959656E+03  0.60249588304E+03  0.27424877455E+03 0.  0.
         25    2    3    3    0    0  0.51673117592E+02 -0.68829937124E+01  0.31021658704E+03  0.33900310379E+03  0.12637755662E+03 0.  0.
         25    2    3    3    0    0 -0.51673117592E+02  0.68829937124E+01  0.22624300951E+03  0.26349277925E+03  0.12459959341E+03 0.  0.
          5    1    4    4  502    0  0.42357119491E+02  0.39053076371E+02  0.56080349942E+02  0.80537966173E+02  0.47000000000E+01 0.  1.
         -5    1    4    4    0  502  0.93159981006E+01 -0.45936070083E+02  0.25413623710E+03  0.25846513762E+03  0.47000000000E+01 0.  1.
          5    1    5    5  503    0 -0.30085660859E+02  0.30669762619E+01  0.23675893565E+03  0.23872879371E+03  0.47000000000E+01 0. -1.
         -5    1    5    5    0  503 -0.21587456733E+02  0.38160174506E+01 -0.10515926141E+02  0.24763985543E+02  0.47000000000E+01 0. -1.
<mgrwt>
<rscale>  0 0.27424877E+03</rscale>
<asrwt>0</asrwt>
<pdfrwt beam="1">  1        4 0.50797148E-02 0.27424877E+03</pdfrwt>
<pdfrwt beam="2">  1       -4 0.87611953E-01 0.27424877E+03</pdfrwt>
<totfact> 0.50458897E+02</totfact>
</mgrwt>
</event>
<event>
 9    1  0.2031653E-002  0.2737947E+03  0.7818608E-02  0.1099127E+00
          2   -1    0    0  501    0  0.00000000000E+00  0.00000000000E+00  0.10592737323E+04  0.10592737323E+04  0.00000000000E+00 0.  1.
         -2   -1    0    0    0  501 -0.00000000000E+00 -0.00000000000E+00 -0.17692205190E+02  0.17692205190E+02  0.00000000000E+00 0.  1.
         36    2    1    2    0    0  0.71054273576E-14  0.35527136788E-14  0.10415815271E+04  0.10769659375E+04  0.27379472767E+03 0.  0.
         25    2    3    3    0    0  0.56875297267E+02  0.91047659887E+00  0.40916002501E+03  0.43091588727E+03  0.12264154038E+03 0.  0.
         25    2    3    3    0    0 -0.56875297267E+02 -0.91047659887E+00  0.63242150212E+03  0.64605005024E+03  0.11911373837E+03 0.  0.
          5    1    4    4  502    0 -0.18801315323E+02  0.37708958786E+02  0.21673805250E+03  0.22084593823E+03  0.47000000000E+01 0. -1.
         -5    1    4    4    0  502  0.75676612590E+02 -0.36798482187E+02  0.19242197251E+03  0.21006994903E+03  0.47000000000E+01 0. -1.
          5    1    5    5  503    0 -0.56156601325E+02  0.31974971122E+02  0.16228996819E+03  0.17474577656E+03  0.47000000000E+01 0. -1.
         -5    1    5    5    0  503 -0.71869594182E+00 -0.32885447721E+02  0.47013153393E+03  0.47130427368E+03  0.47000000000E+01 0. -1.
<mgrwt>
<rscale>  0 0.27379473E+03</rscale>
<asrwt>0</asrwt>
<pdfrwt beam="1">  1        2 0.16296514E+00 0.27379473E+03</pdfrwt>
<pdfrwt beam="2">  1       -2 0.27218786E-02 0.27379473E+03</pdfrwt>
<totfact> 0.11804498E+04</totfact>
</mgrwt>
</event>
<event>
 9    1  0.2031653E-002  0.2752962E+03  0.7818608E-02  0.1098286E+00
         -2   -1    0    0    0  501 -0.00000000000E+00  0.00000000000E+00  0.22630461957E+02  0.22630461957E+02  0.00000000000E+00 0.  1.
          2   -1    0    0  501    0  0.00000000000E+00 -0.00000000000E+00 -0.83723447737E+03  0.83723447737E+03  0.00000000000E+00 0.  1.
         36    2    1    2    0    0  0.00000000000E+00  0.00000000000E+00 -0.81460401541E+03  0.85986493932E+03  0.27529622583E+03 0.  0.
         25    2    3    3    0    0  0.39252064137E+02  0.36613301571E+02 -0.35223453810E+03  0.37792213896E+03  0.12599490028E+03 0.  0.
         25    2    3    3    0    0 -0.39252064137E+02 -0.36613301571E+02 -0.46236947731E+03  0.48194280036E+03  0.12490824985E+03 0.  0.
          5    1    4    4  502    0 -0.44094454139E+02  0.35423165880E+01 -0.83915289781E+02  0.94977548671E+02  0.47000000000E+01 0.  1.
         -5    1    4    4    0  502  0.83346518276E+02  0.33070984983E+02 -0.26831924832E+03  0.28294459029E+03  0.47000000000E+01 0.  1.
          5    1    5    5  503    0 -0.47753801076E+02 -0.68355459184E+02 -0.18983464678E+03  0.20739377386E+03  0.47000000000E+01 0. -1.
         -5    1    5    5    0  503  0.85017369387E+01  0.31742157613E+02 -0.27253483053E+03  0.27454902650E+03  0.47000000000E+01 0. -1.
<mgrwt>
<rscale>  0 0.27529623E+03</rscale>
<asrwt>0</asrwt>
<pdfrwt beam="1">  1        2 0.12880528E+00 0.27529623E+03</pdfrwt>
<pdfrwt beam="2">  1       -2 0.34816101E-02 0.27529623E+03</pdfrwt>
<totfact> 0.11295198E+04</totfact>
</mgrwt>
</event>
<event>
 9    1  0.2031653E-002  0.2743168E+03  0.7818608E-02  0.1098834E+00
          1   -1    0    0  501    0  0.00000000000E+00  0.00000000000E+00  0.17291563424E+03  0.17291563424E+03  0.00000000000E+00 0.  1.
         -1   -1    0    0    0  501 -0.00000000000E+00 -0.00000000000E+00 -0.10879540164E+03  0.10879540164E+03  0.00000000000E+00 0.  1.
         36    2    1    2    0    0  0.00000000000E+00  0.00000000000E+00  0.64120232596E+02  0.28171103587E+03  0.27431679406E+03 0.  0.
         25    2    3    3    0    0 -0.18388463935E+02  0.35911621148E+02  0.70638287763E+02  0.14971110938E+03  0.12568161534E+03 0.  0.
         25    2    3    3    0    0  0.18388463935E+02 -0.35911621148E+02 -0.65180551668E+01  0.13199992649E+03  0.12551380566E+03 0.  0.
          5    1    4    4  502    0 -0.43558921717E+02  0.72152358011E+02  0.30130538043E+02  0.89628576640E+02  0.47000000000E+01 0.  1.
         -5    1    4    4    0  502  0.25170457781E+02 -0.36240736863E+02  0.40507749720E+02  0.60082532742E+02  0.47000000000E+01 0.  1.
          5    1    5    5  503    0 -0.34526842575E+02 -0.15587047527E+02 -0.48198871137E+02  0.61483982367E+02  0.47000000000E+01 0.  1.
         -5    1    5    5    0  503  0.52915306510E+02 -0.20324573622E+02  0.41680815971E+02  0.70515944126E+02  0.47000000000E+01 0.  1.
<mgrwt>
<rscale>  0 0.27431679E+03</rscale>
<asrwt>0</asrwt>
<pdfrwt beam="1">  1        1 0.26602405E-01 0.27431679E+03</pdfrwt>
<pdfrwt beam="2">  1       -1 0.16737754E-01 0.27431679E+03</pdfrwt>
<totfact> 0.47271163E+03</totfact>
</mgrwt>
</event>
<event>
 9    1  0.2031653E-002  0.2746906E+03  0.7818608E-02  0.1098625E+00
         -1   -1    0    0    0  501 -0.00000000000E+00  0.00000000000E+00  0.56147689950E+02  0.56147689950E+02  0.00000000000E+00 0.  1.
          1   -1    0    0  501    0  0.00000000000E+00 -0.00000000000E+00 -0.33596633952E+03  0.33596633952E+03  0.00000000000E+00 0.  1.
         36    2    1    2    0    0 -0.35527136788E-14  0.00000000000E+00 -0.27981864957E+03  0.39211402947E+03  0.27469061771E+03 0.  0.
         25    2    3    3    0    0  0.20883447884E+02  0.44038372467E+02 -0.17732027513E+03  0.22395503655E+03  0.12781972374E+03 0.  0.
         25    2    3    3    0    0 -0.20883447884E+02 -0.44038372467E+02 -0.10249837443E+03  0.16815899292E+03  0.12408075392E+03 0.  0.
          5    1    4    4  502    0  0.81604938600E+01  0.88134790984E+02 -0.97551470316E+02  0.13180559321E+03  0.47000000000E+01 0.  1.
         -5    1    4    4    0  502  0.12722954024E+02 -0.44096418517E+02 -0.79768804816E+02  0.92149443335E+02  0.47000000000E+01 0.  1.
          5    1    5    5  503    0 -0.43949654335E+02  0.30215117611E+02 -0.28207600650E+02  0.60516809094E+02  0.47000000000E+01 0. -1.
         -5    1    5    5    0  503  0.23066206451E+02 -0.74253490079E+02 -0.74290773785E+02  0.10764218382E+03  0.47000000000E+01 0. -1.
<mgrwt>
<rscale>  0 0.27469062E+03</rscale>
<asrwt>0</asrwt>
<pdfrwt beam="1">  1        1 0.51687128E-01 0.27469062E+03</pdfrwt>
<pdfrwt beam="2">  1       -1 0.86381063E-02 0.27469062E+03</pdfrwt>
<totfact> 0.57642433E+03</totfact>
</mgrwt>
</event>
<event>
 9    1  0.2031653E-002  0.2746928E+03  0.7818608E-02  0.1098623E+00
         -1   -1    0    0    0  501 -0.00000000000E+00  0.00000000000E+00  0.42016758829E+03  0.42016758829E+03  0.00000000000E+00 0. -1.
          1   -1    0    0  501    0  0.00000000000E+00 -0.00000000000E+00 -0.44896462788E+02  0.44896462788E+02  0.00000000000E+00 0. -1.
         36    2    1    2    0    0  0.00000000000E+00  0.71054273576E-14  0.37527112550E+03  0.46506405108E+03  0.27469283567E+03 0.  0.
         25    2    3    3    0    0 -0.14674416283E+02 -0.38990568063E+02  0.26357682750E+03  0.29537472035E+03  0.12664074596E+03 0.  0.
         25    2    3    3    0    0  0.14674416283E+02  0.38990568063E+02  0.11169429800E+03  0.16968933073E+03  0.12076112729E+03 0.  0.
          5    1    4    4  502    0  0.40627514502E+02  0.15985178065E+02  0.43356819718E+02  0.61709194358E+02  0.47000000000E+01 0. -1.
         -5    1    4    4    0  502 -0.55301930785E+02 -0.54975746129E+02  0.22022000778E+03  0.23366552599E+03  0.47000000000E+01 0. -1.
          5    1    5    5  503    0 -0.40395705919E+02  0.32893216092E+01  0.87742489671E+00  0.40810446797E+02  0.47000000000E+01 0. -1.
         -5    1    5    5    0  503  0.55070122202E+02  0.35701246454E+02  0.11081687311E+03  0.12887888393E+03  0.47000000000E+01 0. -1.
<mgrwt>
<rscale>  0 0.27469284E+03</rscale>
<asrwt>0</asrwt>
<pdfrwt beam="1">  1        1 0.69071484E-02 0.27469284E+03</pdfrwt>
<pdfrwt beam="2">  1       -1 0.64641165E-01 0.27469284E+03</pdfrwt>
<totfact> 0.26653904E+03</totfact>
</mgrwt>
</event>
<event>
 9    1  0.2031653E-002  0.2744840E+03  0.7818608E-02  0.1098740E+00
         -1   -1    0    0    0  501 -0.00000000000E+00  0.00000000000E+00  0.10496748153E+03  0.10496748153E+03  0.00000000000E+00 0. -1.
          1   -1    0    0  501    0  0.00000000000E+00 -0.00000000000E+00 -0.17944004941E+03  0.17944004941E+03  0.00000000000E+00 0. -1.
         36    2    1    2    0    0 -0.71054273576E-14  0.35527136788E-14 -0.74472567885E+02  0.28440753094E+03  0.27448402556E+03 0.  0.
         25    2    3    3    0    0  0.15024651934E+02 -0.27050063493E+02  0.10197239890E+02  0.12924728175E+03  0.12507369842E+03 0.  0.
         25    2    3    3    0    0 -0.15024651934E+02  0.27050063493E+02 -0.84669807776E+02  0.15516024920E+03  0.12628650158E+03 0.  0.
          5    1    4    4  502    0 -0.33171221992E+02 -0.57318527289E+02  0.23826086001E+02  0.70537337015E+02  0.47000000000E+01 0. -1.
         -5    1    4    4    0  502  0.48195873926E+02  0.30268463796E+02 -0.13628846110E+02  0.58709944731E+02  0.47000000000E+01 0. -1.
          5    1    5    5  503    0  0.25619356725E+02  0.10883613151E+01 -0.10077891441E+03  0.10409618417E+03  0.47000000000E+01 0.  1.
         -5    1    5    5    0  503 -0.40644008658E+02  0.25961702178E+02  0.16109106637E+02  0.51064065021E+02  0.47000000000E+01 0.  1.
<mgrwt>
<rscale>  0 0.27448403E+03</rscale>
<asrwt>0</asrwt>
<pdfrwt beam="1">  1        1 0.27606161E-01 0.27448403E+03</pdfrwt>
<pdfrwt beam="2">  1       -1 0.16148844E-01 0.27448403E+03</pdfrwt>
<totfact> 0.47761018E+03</totfact>
</mgrwt>
</event>
<event>
 9    1  0.2031653E-002  0.2742540E+03  0.7818608E-02  0.1098869E+00
         -2   -1    0    0    0  501 -0.00000000000E+00  0.00000000000E+00  0.55146676803E+01  0.55146676803E+01  0.00000000000E+00 0.  1.
          2   -1    0    0  501    0  0.00000000000E+00 -0.00000000000E+00 -0.34097807839E+04  0.34097807839E+04  0.00000000000E+00 0.  1.
         36    2    1    2    0    0 -0.71054273576E-14 -0.71054273576E-14 -0.34042661162E+04  0.34152954515E+04  0.27425395447E+03 0.  0.
         25    2    3    3    0    0  0.53062083971E+02  0.33208021571E+02 -0.19255193892E+04  0.19306459977E+04  0.12589953423E+03 0.  0.
         25    2    3    3    0    0 -0.53062083971E+02 -0.33208021571E+02 -0.14787467270E+04  0.14846494539E+04  0.11650648413E+03 0.  0.
          5    1    4    4  502    0 -0.75761588661E+01  0.30770574362E+02 -0.12313889554E+03  0.12723798184E+03  0.47000000000E+01 0.  1.
         -5    1    4    4    0  502  0.60638242837E+02  0.24374472088E+01 -0.18023804936E+04  0.18034080158E+04  0.47000000000E+01 0.  1.
          5    1    5    5  503    0 -0.13904796925E+02  0.31277139258E+02 -0.15762652302E+03  0.16136856440E+03  0.47000000000E+01 0.  1.
         -5    1    5    5    0  503 -0.39157287046E+02 -0.64485160829E+02 -0.13211202040E+04  0.13232808895E+04  0.47000000000E+01 0.  1.
<mgrwt>
<rscale>  0 0.27425395E+03</rscale>
<asrwt>0</asrwt>
<pdfrwt beam="1">  1        2 0.52458303E+00 0.27425395E+03</pdfrwt>
<pdfrwt beam="2">  1       -2 0.84840820E-03 0.27425395E+03</pdfrwt>
<totfact> 0.31455191E+03</totfact>
</mgrwt>
</event>
<event>
 9    1  0.2031653E-002  0.2743040E+03  0.7818608E-02  0.1098841E+00
          1   -1    0    0  501    0  0.00000000000E+00  0.00000000000E+00  0.90765575654E+03  0.90765575654E+03  0.00000000000E+00 0. -1.
         -1   -1    0    0    0  501 -0.00000000000E+00 -0.00000000000E+00 -0.20724448614E+02  0.20724448614E+02  0.00000000000E+00 0. -1.
         36    2    1    2    0    0 -0.71054273576E-14  0.00000000000E+00  0.88693130793E+03  0.92838020516E+03  0.27430395612E+03 0.  0.
         25    2    3    3    0    0 -0.10802227045E+01 -0.42612450368E+02  0.33463672052E+03  0.36026200590E+03  0.12645153365E+03 0.  0.
         25    2    3    3    0    0  0.10802227045E+01  0.42612450368E+02  0.55229458741E+03  0.56811819926E+03  0.12614273362E+03 0.  0.
          5    1    4    4  502    0 -0.39650509769E+02  0.29842384868E+02  0.10209604189E+03  0.11361523942E+03  0.47000000000E+01 0. -1.
         -5    1    4    4    0  502  0.38570287065E+02 -0.72454835236E+02  0.23254067863E+03  0.24664676647E+03  0.47000000000E+01 0. -1.
          5    1    5    5  503    0  0.62827219306E+02  0.16172136451E+02  0.24090983673E+03  0.24953644406E+03  0.47000000000E+01 0.  1.
         -5    1    5    5    0  503 -0.61746996602E+02  0.26440313917E+02  0.31138475068E+03  0.31858175520E+03  0.47000000000E+01 0.  1.
<mgrwt>
<rscale>  0 0.27430396E+03</rscale>
<asrwt>0</asrwt>
<pdfrwt beam="1">  1        1 0.13963932E+00 0.27430396E+03</pdfrwt>
<pdfrwt beam="2">  1       -1 0.31883774E-02 0.27430396E+03</pdfrwt>
<totfact> 0.64828105E+03</totfact>
</mgrwt>
</event>
<event>
 9    1  0.2031653E-002  0.2751540E+03  0.7818608E-02  0.1098366E+00
         -4   -1    0    0    0  501 -0.00000000000E+00  0.00000000000E+00  0.18839086385E+03  0.18839086385E+03  0.00000000000E+00 0. -1.
          4   -1    0    0  501    0  0.00000000000E+00 -0.00000000000E+00 -0.10046893923E+03  0.10046893923E+03  0.00000000000E+00 0. -1.
         36    2    1    2    0    0  0.00000000000E+00  0.00000000000E+00  0.87921924616E+02  0.28885980308E+03  0.27515399508E+03 0.  0.
         25    2    3    3    0    0 -0.19730669163E+02  0.44291873215E+02 -0.42179751811E+01  0.12970066806E+03  0.12022230510E+03 0.  0.
         25    2    3    3    0    0  0.19730669163E+02 -0.44291873215E+02  0.92139899797E+02  0.15915913502E+03  0.12037773792E+03 0.  0.
          5    1    4    4  502    0  0.11036347000E+02  0.59532750512E+02 -0.45439537877E+02  0.75847155128E+02  0.47000000000E+01 0.  1.
         -5    1    4    4    0  502 -0.30767016163E+02 -0.15240877296E+02  0.41221562695E+02  0.53853512934E+02  0.47000000000E+01 0.  1.
          5    1    5    5  503    0 -0.24993385365E+02 -0.10598057716E+02 -0.19785564109E+02  0.33919709409E+02  0.47000000000E+01 0.  1.
         -5    1    5    5    0  503  0.44724054527E+02 -0.33693815500E+02  0.11192546391E+03  0.12523942561E+03  0.47000000000E+01 0.  1.
<mgrwt>
<rscale>  0 0.27515400E+03</rscale>
<asrwt>0</asrwt>
<pdfrwt beam="1">  1        4 0.15456760E-01 0.27515400E+03</pdfrwt>
<pdfrwt beam="2">  1       -4 0.28983210E-01 0.27515400E+03</pdfrwt>
<totfact> 0.76120626E+02</totfact>
</mgrwt>
</event>
<event>
 9    1  0.2031653E-002  0.2752672E+03  0.7818608E-02  0.1098302E+00
         -1   -1    0    0    0  501 -0.00000000000E+00  0.00000000000E+00  0.25891494794E+02  0.25891494794E+02  0.00000000000E+00 0.  1.
          1   -1    0    0  501    0  0.00000000000E+00 -0.00000000000E+00 -0.73163068194E+03  0.73163068194E+03  0.00000000000E+00 0.  1.
         36    2    1    2    0    0  0.35527136788E-14  0.71054273576E-14 -0.70573918714E+03  0.75752217673E+03  0.27526723011E+03 0.  0.
         25    2    3    3    0    0 -0.12806567062E+02 -0.62367922618E+02 -0.42038807656E+03  0.44274050026E+03  0.12344735611E+03 0.  0.
         25    2    3    3    0    0  0.12806567062E+02  0.62367922618E+02 -0.28535111059E+03  0.31478167647E+03  0.11665539677E+03 0.  0.
          5    1    4    4  502    0  0.84090883958E+01  0.26008683464E+02 -0.23057619649E+03  0.23223831891E+03  0.47000000000E+01 0.  1.
         -5    1    4    4    0  502 -0.21215655458E+02 -0.88376606082E+02 -0.18981188006E+03  0.21050218135E+03  0.47000000000E+01 0.  1.
          5    1    5    5  503    0 -0.80764100303E+01 -0.21513289181E+02 -0.88895533189E+01  0.25083145109E+02  0.47000000000E+01 0. -1.
         -5    1    5    5    0  503  0.20882977093E+02  0.83881211798E+02 -0.27646155727E+03  0.28969853136E+03  0.47000000000E+01 0. -1.
<mgrwt>
<rscale>  0 0.27526723E+03</rscale>
<asrwt>0</asrwt>
<pdfrwt beam="1">  1        1 0.11255857E+00 0.27526723E+03</pdfrwt>
<pdfrwt beam="2">  1       -1 0.39833067E-02 0.27526723E+03</pdfrwt>
<totfact> 0.65173059E+03</totfact>
</mgrwt>
</event>
<event>
 9    1  0.2031653E-002  0.2751078E+03  0.7818608E-02  0.1098391E+00
          2   -1    0    0  501    0  0.00000000000E+00  0.00000000000E+00  0.34598752735E+03  0.34598752735E+03  0.00000000000E+00 0.  1.
         -2   -1    0    0    0  501 -0.00000000000E+00 -0.00000000000E+00 -0.54687161366E+02  0.54687161366E+02  0.00000000000E+00 0.  1.
         36    2    1    2    0    0  0.17763568394E-14  0.00000000000E+00  0.29130036599E+03  0.40067468872E+03  0.27510780243E+03 0.  0.
         25    2    3    3    0    0 -0.10628434315E+02 -0.21510067539E+02  0.96988054029E+02  0.16686624732E+03  0.13364885054E+03 0.  0.
         25    2    3    3    0    0  0.10628434315E+02  0.21510067539E+02  0.19431231196E+03  0.23380844139E+03  0.12780244938E+03 0.  0.
          5    1    4    4  502    0  0.31221894360E+01 -0.62827866496E+02  0.29744405010E+01  0.63150820831E+02  0.47000000000E+01 0.  1.
         -5    1    4    4    0  502 -0.13750623751E+02  0.41317798957E+02  0.94013613528E+02  0.10371542649E+03  0.47000000000E+01 0.  1.
          5    1    5    5  503    0 -0.43042865658E+01  0.38522235307E+02  0.93810843188E+00  0.39057131785E+02  0.47000000000E+01 0. -1.
         -5    1    5    5    0  503  0.14932720881E+02 -0.17012167768E+02  0.19337420353E+03  0.19475130961E+03  0.47000000000E+01 0. -1.
<mgrwt>
<rscale>  0 0.27510780E+03</rscale>
<asrwt>0</asrwt>
<pdfrwt beam="1">  1        2 0.53228849E-01 0.27510780E+03</pdfrwt>
<pdfrwt beam="2">  1       -2 0.84134097E-02 0.27510780E+03</pdfrwt>
<totfact> 0.81154210E+03</totfact>
</mgrwt>
</event>
<event>
 9    1  0.2031653E-002  0.2746801E+03  0.7818608E-02  0.1098631E+00
          2   -1    0    0  501    0  0.00000000000E+00  0.00000000000E+00  0.11954681774E+04  0.11954681774E+04  0.00000000000E+00 0. -1.
         -2   -1    0    0    0  501 -0.00000000000E+00 -0.00000000000E+00 -0.15778156221E+02  0.15778156221E+02  0.00000000000E+00 0. -1.
         36    2    1    2    0    0  0.71054273576E-14  0.00000000000E+00  0.11796900212E+04  0.12112463336E+04  0.27468005868E+03 0.  0.
         25    2    3    3    0    0 -0.29323033343E+02  0.35043490490E+02  0.46529959502E+03  0.48409070200E+03  0.12550780104E+03 0.  0.
         25    2    3    3    0    0  0.29323033343E+02 -0.35043490490E+02  0.71439042614E+03  0.72715563161E+03  0.12772527200E+03 0.  0.
          5    1    4    4  502    0 -0.35701939040E+02 -0.14546821305E+02  0.39696574613E+02  0.55535092485E+02  0.47000000000E+01 0.  1.
         -5    1    4    4    0  502  0.63789056963E+01  0.49590311796E+02  0.42560302041E+03  0.42855560951E+03  0.47000000000E+01 0.  1.
          5    1    5    5  503    0 -0.87249232340E+01 -0.16308207425E+02  0.10132972006E+02  0.21606689624E+02  0.47000000000E+01 0.  1.
         -5    1    5    5    0  503  0.38047956577E+02 -0.18735283065E+02  0.70425745413E+03  0.70554894198E+03  0.47000000000E+01 0.  1.
<mgrwt>
<rscale>  0 0.27468006E+03</rscale>
<asrwt>0</asrwt>
<pdfrwt beam="1">  1        2 0.18391811E+00 0.27468006E+03</pdfrwt>
<pdfrwt beam="2">  1       -2 0.24274096E-02 0.27468006E+03</pdfrwt>
<totfact> 0.11653851E+04</totfact>
</mgrwt>
</event>
<event>
 9    1  0.2031653E-002  0.2749044E+03  0.7818608E-02  0.1098505E+00
          4   -1    0    0  501    0  0.00000000000E+00  0.00000000000E+00  0.14928358264E+04  0.14928358264E+04  0.00000000000E+00 0.  1.
         -4   -1    0    0    0  501 -0.00000000000E+00 -0.00000000000E+00 -0.12655850868E+02  0.12655850868E+02  0.00000000000E+00 0.  1.
         36    2    1    2    0    0 -0.71054273576E-14  0.71054273576E-14  0.14801799755E+04  0.15054916772E+04  0.27490440221E+03 0.  0.
         25    2    3    3    0    0  0.49009409347E+02 -0.12004329571E+02  0.58098384670E+03  0.59643792098E+03  0.12509970953E+03 0.  0.
         25    2    3    3    0    0 -0.49009409347E+02  0.12004329571E+02  0.89919612881E+03  0.90905375626E+03  0.12360836372E+03 0.  0.
          5    1    4    4  502    0  0.76089924625E+02  0.18506226534E+02  0.49468625973E+03  0.50086798921E+03  0.47000000000E+01 0.  1.
         -5    1    4    4    0  502 -0.27080515278E+02 -0.30510556105E+02  0.86297586968E+02  0.95569931768E+02  0.47000000000E+01 0.  1.
          5    1    5    5  503    0  0.28367567317E+02  0.41341026166E+02  0.31237126910E+03  0.31640432847E+03  0.47000000000E+01 0.  1.
         -5    1    5    5    0  503 -0.77376976663E+02 -0.29336696594E+02  0.58682485971E+03  0.59264942779E+03  0.47000000000E+01 0.  1.
<mgrwt>
<rscale>  0 0.27490440E+03</rscale>
<asrwt>0</asrwt>
<pdfrwt beam="1">  1        4 0.22966691E+00 0.27490440E+03</pdfrwt>
<pdfrwt beam="2">  1       -4 0.19470552E-02 0.27490440E+03</pdfrwt>
<totfact> 0.18721139E+02</totfact>
</mgrwt>
</event>
<event>
 9    1  0.2031653E-002  0.2747437E+03  0.7818608E-02  0.1098595E+00
          2   -1    0    0  501    0  0.00000000000E+00  0.00000000000E+00  0.90003639719E+03  0.90003639719E+03  0.00000000000E+00 0. -1.
         -2   -1    0    0    0  501 -0.00000000000E+00 -0.00000000000E+00 -0.20966959191E+02  0.20966959191E+02  0.00000000000E+00 0. -1.
         36    2    1    2    0    0  0.00000000000E+00  0.00000000000E+00  0.87906943800E+03  0.92100335638E+03  0.27474370901E+03 0.  0.
         25    2    3    3    0    0 -0.47472315627E+01 -0.42661390528E+01  0.62615929919E+03  0.63896395143E+03  0.12711698204E+03 0.  0.
         25    2    3    3    0    0  0.47472315627E+01  0.42661390528E+01  0.25291013881E+03  0.28203940495E+03  0.12466736333E+03 0.  0.
          5    1    4    4  502    0 -0.23465021631E+02 -0.43136433467E+02  0.54231675563E+03  0.54455570199E+03  0.47000000000E+01 0. -1.
         -5    1    4    4    0  502  0.18717790068E+02  0.38870294414E+02  0.83842543555E+02  0.94408249441E+02  0.47000000000E+01 0. -1.
          5    1    5    5  503    0 -0.31133746911E+02 -0.49326049121E+02  0.14310789051E+03  0.15461024430E+03  0.47000000000E+01 0.  1.
         -5    1    5    5    0  503  0.35880978474E+02  0.53592188174E+02  0.10980224831E+03  0.12742916065E+03  0.47000000000E+01 0.  1.
<mgrwt>
<rscale>  0 0.27474371E+03</rscale>
<asrwt>0</asrwt>
<pdfrwt beam="1">  1        2 0.13846711E+00 0.27474371E+03</pdfrwt>
<pdfrwt beam="2">  1       -2 0.32256867E-02 0.27474371E+03</pdfrwt>
<totfact> 0.11508628E+04</totfact>
</mgrwt>
</event>
<event>
 8    1  0.2031653E-002  0.2597721E+03  0.7818608E-02  0.1107280E+00
         -1   -1    0    0    0  501 -0.00000000000E+00  0.00000000000E+00  0.23632492059E+04  0.23632492059E+04  0.00000000000E+00 0. -1.
          1   -1    0    0  501    0  0.00000000000E+00 -0.00000000000E+00 -0.71386382996E+01  0.71386382996E+01  0.00000000000E+00 0. -1.
         25    2    1    2    0    0 -0.47541962257E+02  0.38686138870E+01  0.15635417141E+04  0.15692434868E+04  0.12484880721E+03 0.  0.
         25    2    1    2    0    0  0.47541962257E+02 -0.38686138870E+01  0.79256885352E+03  0.80114435746E+03  0.10673185826E+03 0.  0.
          5    1    3    3  502    0 -0.28211386875E+02 -0.44826830579E+02  0.30481808496E+03  0.30942120485E+03  0.47000000000E+01 0.  1.
         -5    1    3    3    0  502 -0.19330575382E+02  0.48695444466E+02  0.12587236292E+04  0.12598222819E+04  0.47000000000E+01 0.  1.
          5    1    4    4  503    0 -0.23718814406E+02 -0.28953764529E+02  0.36329071690E+03  0.36524394262E+03  0.47000000000E+01 0. -1.
         -5    1    4    4    0  503  0.71260776663E+02  0.25085150642E+02  0.42927813662E+03  0.43590041483E+03  0.47000000000E+01 0. -1.
<mgrwt>
<rscale>  0 0.25977206E+03</rscale>
<asrwt>0</asrwt>
<pdfrwt beam="1">  1        1 0.10982539E-02 0.25977206E+03</pdfrwt>
<pdfrwt beam="2">  1       -1 0.36357618E+00 0.25977206E+03</pdfrwt>
<totfact> 0.21647666E+02</totfact>
</mgrwt>
</event>
<event>
 9    1  0.2031653E-002  0.2751836E+03  0.7818608E-02  0.1098349E+00
          2   -1    0    0  501    0  0.00000000000E+00  0.00000000000E+00  0.38725500191E+03  0.38725500191E+03  0.00000000000E+00 0. -1.
         -2   -1    0    0    0  501 -0.00000000000E+00 -0.00000000000E+00 -0.48886416718E+02  0.48886416718E+02  0.00000000000E+00 0. -1.
         36    2    1    2    0    0  0.00000000000E+00  0.71054273576E-14  0.33836858519E+03  0.43614141863E+03  0.27518364341E+03 0.  0.
         25    2    3    3    0    0 -0.43240177740E+02 -0.20576827059E+02  0.13136669395E+03  0.18914960445E+03  0.12738620727E+03 0.  0.
         25    2    3    3    0    0  0.43240177740E+02  0.20576827059E+02  0.20700189124E+03  0.24699181418E+03  0.12594464860E+03 0.  0.
          5    1    4    4  502    0 -0.27624977291E+02 -0.69702682642E+02  0.42515796586E+02  0.86320833506E+02  0.47000000000E+01 0. -1.
         -5    1    4    4    0  502 -0.15615200448E+02  0.49125855583E+02  0.88850897364E+02  0.10282877095E+03  0.47000000000E+01 0. -1.
          5    1    5    5  503    0  0.11046242216E+02 -0.50555682567E+02  0.52768610595E+02  0.74057496387E+02  0.47000000000E+01 0.  1.
         -5    1    5    5    0  503  0.32193935524E+02  0.71132509627E+02  0.15423328065E+03  0.17293431779E+03  0.47000000000E+01 0.  1.
<mgrwt>
<rscale>  0 0.27518364E+03</rscale>
<asrwt>0</asrwt>
<pdfrwt beam="1">  1        2 0.59577691E-01 0.27518364E+03</pdfrwt>
<pdfrwt beam="2">  1       -2 0.75209874E-02 0.27518364E+03</pdfrwt>
<totfact> 0.85594667E+03</totfact>
</mgrwt>
</event>
<event>
 9    1  0.2031653E-002  0.2737435E+03  0.7818608E-02  0.1099156E+00
         -1   -1    0    0    0  501 -0.00000000000E+00  0.00000000000E+00  0.41680855128E+03  0.41680855128E+03  0.00000000000E+00 0. -1.
          1   -1    0    0  501    0  0.00000000000E+00 -0.00000000000E+00 -0.44945998534E+02  0.44945998534E+02  0.00000000000E+00 0. -1.
         36    2    1    2    0    0  0.00000000000E+00  0.17763568394E-14  0.37186255275E+03  0.46175454982E+03  0.27374350429E+03 0.  0.
         25    2    3    3    0    0 -0.17410640814E+02  0.12050667471E+02  0.28632696943E+03  0.31319712704E+03  0.12514374919E+03 0.  0.
         25    2    3    3    0    0  0.17410640814E+02 -0.12050667471E+02  0.85535583322E+02  0.14855742278E+03  0.11960193497E+03 0.  0.
          5    1    4    4  502    0 -0.64272751365E+02 -0.76749198225E+01  0.94141961716E+02  0.11434461036E+03  0.47000000000E+01 0.  1.
         -5    1    4    4    0  502  0.46862110552E+02  0.19725587294E+02  0.19218500771E+03  0.19885251668E+03  0.47000000000E+01 0.  1.
          5    1    5    5  503    0  0.14915396854E+02 -0.12822554418E+02  0.11593526854E+03  0.11768586770E+03  0.47000000000E+01 0.  1.
         -5    1    5    5    0  503  0.24952439597E+01  0.77188694620E+00 -0.30399685217E+02  0.30871555082E+02  0.47000000000E+01 0.  1.
<mgrwt>
<rscale>  0 0.27374350E+03</rscale>
<asrwt>0</asrwt>
<pdfrwt beam="1">  1        1 0.69147693E-02 0.27374350E+03</pdfrwt>
<pdfrwt beam="2">  1       -1 0.64124390E-01 0.27374350E+03</pdfrwt>
<totfact> 0.27032706E+03</totfact>
</mgrwt>
</event>
<event>
 9    1  0.2031653E-002  0.2711150E+03  0.7818608E-02  0.1100643E+00
          1   -1    0    0  501    0  0.00000000000E+00  0.00000000000E+00  0.10907247207E+04  0.10907247207E+04  0.00000000000E+00 0. -1.
         -1   -1    0    0    0  501 -0.00000000000E+00 -0.00000000000E+00 -0.16847366323E+02  0.16847366323E+02  0.00000000000E+00 0. -1.
         36    2    1    2    0    0  0.00000000000E+00  0.00000000000E+00  0.10738773544E+04  0.11075720871E+04  0.27111502302E+03 0.  0.
         25    2    3    3    0    0  0.24515650041E+02  0.27688898363E+02  0.75655938407E+03  0.76360577555E+03  0.96664298708E+02 0.  0.
         25    2    3    3    0    0 -0.24515650041E+02 -0.27688898363E+02  0.31731797035E+03  0.34396631151E+03  0.12749288984E+03 0.  0.
          5    1    4    4  502    0  0.38547806583E+02  0.33018317620E+02  0.18681152545E+03  0.19364084986E+03  0.47000000000E+01 0. -1.
         -5    1    4    4    0  502 -0.14032156542E+02 -0.53294192568E+01  0.56974785862E+03  0.56996492570E+03  0.47000000000E+01 0. -1.
          5    1    5    5  503    0  0.39709607909E+02 -0.34953525253E+02  0.67552527792E+02  0.85930413120E+02  0.47000000000E+01 0. -1.
         -5    1    5    5    0  503 -0.64225257950E+02  0.72646268898E+01  0.24976544256E+03  0.25803589839E+03  0.47000000000E+01 0. -1.
<mgrwt>
<rscale>  0 0.27111502E+03</rscale>
<asrwt>0</asrwt>
<pdfrwt beam="1">  1        1 0.16780375E+00 0.27111502E+03</pdfrwt>
<pdfrwt beam="2">  1       -1 0.25919034E-02 0.27111502E+03</pdfrwt>
<totfact> 0.64108771E+03</totfact>
</mgrwt>
</event>
<event>
 9    1  0.2031653E-002  0.2746988E+03  0.7818608E-02  0.1098620E+00
          1   -1    0    0  501    0  0.00000000000E+00  0.00000000000E+00  0.74305383093E+02  0.74305383093E+02  0.00000000000E+00 0.  1.
         -1   -1    0    0    0  501 -0.00000000000E+00 -0.00000000000E+00 -0.25388269645E+03  0.25388269645E+03  0.00000000000E+00 0.  1.
         36    2    1    2    0    0 -0.71054273576E-14  0.00000000000E+00 -0.17957731336E+03  0.32818807955E+03  0.27469875151E+03 0.  0.
         25    2    3    3    0    0  0.43710154804E+02 -0.32587081806E+02 -0.73023639527E+02  0.15484137722E+03  0.12518348388E+03 0.  0.
         25    2    3    3    0    0 -0.43710154804E+02  0.32587081806E+02 -0.10655367383E+03  0.17334670232E+03  0.12539098159E+03 0.  0.
          5    1    4    4  502    0 -0.29746258024E+02 -0.25704801324E+02 -0.70515825949E+02  0.80871183909E+02  0.47000000000E+01 0.  1.
         -5    1    4    4    0  502  0.73456412828E+02 -0.68822804819E+01 -0.25078135780E+01  0.73970193315E+02  0.47000000000E+01 0.  1.
          5    1    5    5  503    0  0.30213557431E+02  0.49199415643E+02 -0.63992363834E+02  0.86316592735E+02  0.47000000000E+01 0. -1.
         -5    1    5    5    0  503 -0.73923712234E+02 -0.16612333837E+02 -0.42561310000E+02  0.87030109588E+02  0.47000000000E+01 0. -1.
<mgrwt>
<rscale>  0 0.27469875E+03</rscale>
<asrwt>0</asrwt>
<pdfrwt beam="1">  1        1 0.11431597E-01 0.27469875E+03</pdfrwt>
<pdfrwt beam="2">  1       -1 0.39058877E-01 0.27469875E+03</pdfrwt>
<totfact> 0.34340000E+03</totfact>
</mgrwt>
</event>
<event>
 9    1  0.2031653E-002  0.2747293E+03  0.7818608E-02  0.1098603E+00
         -2   -1    0    0    0  501 -0.00000000000E+00  0.00000000000E+00  0.31300967999E+02  0.31300967999E+02  0.00000000000E+00 0.  1.
          2   -1    0    0  501    0  0.00000000000E+00 -0.00000000000E+00 -0.60282622274E+03  0.60282622274E+03  0.00000000000E+00 0.  1.
         36    2    1    2    0    0  0.35527136788E-14 -0.71054273576E-14 -0.57152525474E+03  0.63412719074E+03  0.27472927989E+03 0.  0.
         25    2    3    3    0    0  0.15953646393E+02  0.34406267396E+02 -0.19507748069E+03  0.23466371384E+03  0.12479393034E+03 0.  0.
         25    2    3    3    0    0 -0.15953646393E+02 -0.34406267396E+02 -0.37644777405E+03  0.39946347690E+03  0.12813989513E+03 0.  0.
          5    1    4    4  502    0 -0.36628035371E+02  0.39173615847E+01 -0.16016025276E+03  0.16440910943E+03  0.47000000000E+01 0.  1.
         -5    1    4    4    0  502  0.52581681764E+02  0.30488905812E+02 -0.34917227929E+02  0.70254604411E+02  0.47000000000E+01 0.  1.
          5    1    5    5  503    0 -0.20362606141E+02 -0.80339295311E+02 -0.28617448497E+03  0.29797141465E+03  0.47000000000E+01 0. -1.
         -5    1    5    5    0  503  0.44089597479E+01  0.45933027915E+02 -0.90273289082E+02  0.10149206226E+03  0.47000000000E+01 0. -1.
<mgrwt>
<rscale>  0 0.27472928E+03</rscale>
<asrwt>0</asrwt>
<pdfrwt beam="1">  1        2 0.92742486E-01 0.27472928E+03</pdfrwt>
<pdfrwt beam="2">  1       -2 0.48155340E-02 0.27472928E+03</pdfrwt>
<totfact> 0.10355422E+04</totfact>
</mgrwt>
</event>
<event>
 9    1  0.2031653E-002  0.2744165E+03  0.7818608E-02  0.1098778E+00
         -1   -1    0    0    0  501 -0.00000000000E+00  0.00000000000E+00  0.17035210112E+03  0.17035210112E+03  0.00000000000E+00 0.  1.
          1   -1    0    0  501    0  0.00000000000E+00 -0.00000000000E+00 -0.11051292235E+03  0.11051292235E+03  0.00000000000E+00 0.  1.
         36    2    1    2    0    0  0.00000000000E+00  0.10658141036E-13  0.59839178776E+02  0.28086502347E+03  0.27441653392E+03 0.  0.
         25    2    3    3    0    0 -0.40058461352E+02 -0.22002823809E+02  0.56875602028E+02  0.14589757596E+03  0.12634264516E+03 0.  0.
         25    2    3    3    0    0  0.40058461352E+02  0.22002823809E+02  0.29635767477E+01  0.13496744750E+03  0.12695914507E+03 0.  0.
          5    1    4    4  502    0 -0.85547290931E+02 -0.21294455625E+02  0.42308128213E+02  0.97897193723E+02  0.47000000000E+01 0. -1.
         -5    1    4    4    0  502  0.45488829579E+02 -0.70836818353E+00  0.14567473815E+02  0.48000382241E+02  0.47000000000E+01 0. -1.
          5    1    5    5  503    0  0.19675298578E+02 -0.49642466770E+02 -0.19470395857E+02  0.57032255750E+02  0.47000000000E+01 0.  1.
         -5    1    5    5    0  503  0.20383162774E+02  0.71645290579E+02  0.22433972604E+02  0.77935191753E+02  0.47000000000E+01 0.  1.
<mgrwt>
<rscale>  0 0.27441653E+03</rscale>
<asrwt>0</asrwt>
<pdfrwt beam="1">  1        1 0.17001988E-01 0.27441653E+03</pdfrwt>
<pdfrwt beam="2">  1       -1 0.26208016E-01 0.27441653E+03</pdfrwt>
<totfact> 0.40376982E+03</totfact>
</mgrwt>
</event>
<event>
 9    1  0.2031653E-002  0.2756845E+03  0.7818608E-02  0.1098070E+00
         -2   -1    0    0    0  501 -0.00000000000E+00  0.00000000000E+00  0.28769725136E+02  0.28769725136E+02  0.00000000000E+00 0. -1.
          2   -1    0    0  501    0  0.00000000000E+00 -0.00000000000E+00 -0.66043332792E+03  0.66043332792E+03  0.00000000000E+00 0. -1.
         36    2    1    2    0    0 -0.71054273576E-14  0.71054273576E-14 -0.63166360278E+03  0.68920305305E+03  0.27568449586E+03 0.  0.
         25    2    3    3    0    0  0.17628464935E+02 -0.49615184279E+02 -0.25845093262E+03  0.29203877028E+03  0.12536877398E+03 0.  0.
         25    2    3    3    0    0 -0.17628464935E+02  0.49615184279E+02 -0.37321267016E+03  0.39716428277E+03  0.12521717555E+03 0.  0.
          5    1    4    4  502    0  0.22371007231E+02  0.39098795420E+02 -0.11017808272E+03  0.11912379141E+03  0.47000000000E+01 0. -1.
         -5    1    4    4    0  502 -0.47425422956E+01 -0.88713979699E+02 -0.14827284990E+03  0.17291497887E+03  0.47000000000E+01 0. -1.
          5    1    5    5  503    0  0.39175515352E+01  0.42255486079E+02 -0.37139917673E+03  0.37384530463E+03  0.47000000000E+01 0.  1.
         -5    1    5    5    0  503 -0.21546016470E+02  0.73596981998E+01 -0.18134934308E+01  0.23318978146E+02  0.47000000000E+01 0.  1.
<mgrwt>
<rscale>  0 0.27568450E+03</rscale>
<asrwt>0</asrwt>
<pdfrwt beam="1">  1        2 0.10160511E+00 0.27568450E+03</pdfrwt>
<pdfrwt beam="2">  1       -2 0.44261123E-02 0.27568450E+03</pdfrwt>
<totfact> 0.10568462E+04</totfact>
</mgrwt>
</event>
<event>
 9    1  0.2031653E-002  0.2773262E+03  0.7818608E-02  0.1097158E+00
          1   -1    0    0  501    0  0.00000000000E+00  0.00000000000E+00  0.14313431959E+04  0.14313431959E+04  0.00000000000E+00 0. -1.
         -1   -1    0    0    0  501 -0.00000000000E+00 -0.00000000000E+00 -0.13433151723E+02  0.13433151723E+02  0.00000000000E+00 0. -1.
         36    2    1    2    0    0  0.00000000000E+00  0.35527136788E-14  0.14179100442E+04  0.14447763477E+04  0.27732616406E+03 0.  0.
         25    2    3    3    0    0 -0.54015932450E+02 -0.61537503894E+01  0.71642123290E+03  0.72990096418E+03  0.12860966123E+03 0.  0.
         25    2    3    3    0    0  0.54015932450E+02  0.61537503894E+01  0.70148881130E+03  0.71487538347E+03  0.12650957237E+03 0.  0.
          5    1    4    4  502    0 -0.40534161036E+02  0.21604182243E+02  0.68150073815E+03  0.68306303150E+03  0.47000000000E+01 0.  1.
         -5    1    4    4    0  502 -0.13481771414E+02 -0.27757932632E+02  0.34920494752E+02  0.46837932685E+02  0.47000000000E+01 0.  1.
          5    1    5    5  503    0  0.45119801567E+02  0.62484261823E+02  0.32397753154E+03  0.33305196353E+03  0.47000000000E+01 0.  1.
         -5    1    5    5    0  503  0.88961308828E+01 -0.56330511434E+02  0.37751127976E+03  0.38182341994E+03  0.47000000000E+01 0.  1.
<mgrwt>
<rscale>  0 0.27732616E+03</rscale>
<asrwt>0</asrwt>
<pdfrwt beam="1">  1        1 0.22020653E+00 0.27732616E+03</pdfrwt>
<pdfrwt beam="2">  1       -1 0.20666399E-02 0.27732616E+03</pdfrwt>
<totfact> 0.51972113E+03</totfact>
</mgrwt>
</event>
<event>
 9    1  0.2031653E-002  0.2749370E+03  0.7818608E-02  0.1098487E+00
         -1   -1    0    0    0  501 -0.00000000000E+00  0.00000000000E+00  0.86701419710E+02  0.86701419710E+02  0.00000000000E+00 0. -1.
          1   -1    0    0  501    0  0.00000000000E+00 -0.00000000000E+00 -0.21796164708E+03  0.21796164708E+03  0.00000000000E+00 0. -1.
         36    2    1    2    0    0  0.00000000000E+00  0.00000000000E+00 -0.13126022737E+03  0.30466306679E+03  0.27493696910E+03 0.  0.
         25    2    3    3    0    0  0.10470672072E+02  0.67669843392E+02  0.17191686114E+01  0.10795858848E+03  0.83446141961E+02 0.  0.
         25    2    3    3    0    0 -0.10470672072E+02 -0.67669843392E+02 -0.13297939598E+03  0.19670447830E+03  0.12775088787E+03 0.  0.
          5    1    4    4  502    0 -0.18132599726E+02  0.18636450515E+02 -0.32207661172E+02  0.41659715539E+02  0.47000000000E+01 0. -1.
         -5    1    4    4    0  502  0.28603271797E+02  0.49033392877E+02  0.33926829783E+02  0.66298872944E+02  0.47000000000E+01 0. -1.
          5    1    5    5  503    0 -0.43351769698E+02 -0.64304019436E+01  0.27254793232E+01  0.44161569749E+02  0.47000000000E+01 0.  1.
         -5    1    5    5    0  503  0.32881097627E+02 -0.61239441449E+02 -0.13570487530E+03  0.15254290856E+03  0.47000000000E+01 0.  1.
<mgrwt>
<rscale>  0 0.27493697E+03</rscale>
<asrwt>0</asrwt>
<pdfrwt beam="1">  1        1 0.33532560E-01 0.27493697E+03</pdfrwt>
<pdfrwt beam="2">  1       -1 0.13338680E-01 0.27493697E+03</pdfrwt>
<totfact> 0.50593906E+03</totfact>
</mgrwt>
</event>
<event>
 9    1  0.2031653E-002  0.2718301E+03  0.7818608E-02  0.1100237E+00
         -1   -1    0    0    0  501 -0.00000000000E+00  0.00000000000E+00  0.48725004971E+02  0.48725004971E+02  0.00000000000E+00 0.  1.
          1   -1    0    0  501    0  0.00000000000E+00 -0.00000000000E+00 -0.37912577304E+03  0.37912577304E+03  0.00000000000E+00 0.  1.
         36    2    1    2    0    0  0.17763568394E-14  0.35527136788E-14 -0.33040076807E+03  0.42785077801E+03  0.27183013208E+03 0.  0.
         25    2    3    3    0    0 -0.49684382222E+00  0.24996456167E+02 -0.10257113446E+03  0.16375653514E+03  0.12518105089E+03 0.  0.
         25    2    3    3    0    0  0.49684382222E+00 -0.24996456167E+02 -0.22782963361E+03  0.26409424287E+03  0.13120349649E+03 0.  0.
          5    1    4    4  502    0 -0.31424064266E+02 -0.22327838261E+02 -0.99653231284E+02  0.10695260951E+03  0.47000000000E+01 0. -1.
         -5    1    4    4    0  502  0.30927220443E+02  0.47324294428E+02 -0.29179031729E+01  0.56803925624E+02  0.47000000000E+01 0. -1.
          5    1    5    5  503    0  0.90706421795E+01 -0.39588581052E+02 -0.57112798240E+01  0.41282454100E+02  0.47000000000E+01 0. -1.
         -5    1    5    5    0  503 -0.85737983573E+01  0.14592124886E+02 -0.22211835379E+03  0.22281178877E+03  0.47000000000E+01 0. -1.
<mgrwt>
<rscale>  0 0.27183013E+03</rscale>
<asrwt>0</asrwt>
<pdfrwt beam="1">  1        1 0.58327042E-01 0.27183013E+03</pdfrwt>
<pdfrwt beam="2">  1       -1 0.74961547E-02 0.27183013E+03</pdfrwt>
<totfact> 0.61378684E+03</totfact>
</mgrwt>
</event>
<event>
 9    1  0.2031653E-002  0.2756843E+03  0.7818608E-02  0.1098070E+00
          3   -1    0    0  501    0  0.00000000000E+00  0.00000000000E+00  0.22184026909E+02  0.22184026909E+02  0.00000000000E+00 0. -1.
         -3   -1    0    0    0  501 -0.00000000000E+00 -0.00000000000E+00 -0.85649248015E+03  0.85649248015E+03  0.00000000000E+00 0. -1.
         36    2    1    2    0    0 -0.71054273576E-14  0.00000000000E+00 -0.83430845324E+03  0.87867650706E+03  0.27568425582E+03 0.  0.
         25    2    3    3    0    0  0.24202990075E+02  0.24711120256E+02 -0.25305924603E+03  0.28355986147E+03  0.12316975620E+03 0.  0.
         25    2    3    3    0    0 -0.24202990075E+02 -0.24711120256E+02 -0.58124920721E+03  0.59511664559E+03  0.12295022075E+03 0.  0.
          5    1    4    4  502    0 -0.11280247007E+02  0.29302261306E+02 -0.24439418066E+03  0.24644770648E+03  0.47000000000E+01 0.  1.
         -5    1    4    4    0  502  0.35483237083E+02 -0.45911410502E+01 -0.86650653733E+01  0.37112154989E+02  0.47000000000E+01 0.  1.
          5    1    5    5  503    0 -0.41966682243E+02 -0.60523201419E+02 -0.48803362123E+03  0.49358197473E+03  0.47000000000E+01 0. -1.
         -5    1    5    5    0  503  0.17763692168E+02  0.35812081163E+02 -0.93215585980E+02  0.10153467086E+03  0.47000000000E+01 0. -1.
<mgrwt>
<rscale>  0 0.27568426E+03</rscale>
<asrwt>0</asrwt>
<pdfrwt beam="1">  1        3 0.34129278E-02 0.27568426E+03</pdfrwt>
<pdfrwt beam="2">  1       -3 0.13176805E+00 0.27568426E+03</pdfrwt>
<totfact> 0.49837447E+02</totfact>
</mgrwt>
</event>
<event>
 9    1  0.2031653E-002  0.2695843E+03  0.7818608E-02  0.1101518E+00
         -2   -1    0    0    0  501 -0.00000000000E+00  0.00000000000E+00  0.17629400288E+02  0.17629400288E+02  0.00000000000E+00 0.  1.
          2   -1    0    0  501    0  0.00000000000E+00 -0.00000000000E+00 -0.10306037568E+04  0.10306037568E+04  0.00000000000E+00 0.  1.
         36    2    1    2    0    0  0.71054273576E-14 -0.71054273576E-14 -0.10129743566E+04  0.10482331571E+04  0.26958431830E+03 0.  0.
         25    2    3    3    0    0 -0.33213206837E+02 -0.22860022172E+02 -0.44911179695E+03  0.46793432741E+03  0.12504171660E+03 0.  0.
         25    2    3    3    0    0  0.33213206837E+02  0.22860022172E+02 -0.56386255960E+03  0.58029882972E+03  0.13107268184E+03 0.  0.
          5    1    4    4  502    0 -0.73265285457E+02 -0.39891157926E+02 -0.23549250448E+03  0.24987580155E+03  0.47000000000E+01 0.  1.
         -5    1    4    4    0  502  0.40052078621E+02  0.17031135754E+02 -0.21361929246E+03  0.21805852586E+03  0.47000000000E+01 0.  1.
          5    1    5    5  503    0  0.67786549429E+01 -0.54460564592E+02 -0.24245146318E+03  0.24862965482E+03  0.47000000000E+01 0.  1.
         -5    1    5    5    0  503  0.26434551894E+02  0.77320586763E+02 -0.32141109642E+03  0.33166917490E+03  0.47000000000E+01 0.  1.
<mgrwt>
<rscale>  0 0.26958432E+03</rscale>
<asrwt>0</asrwt>
<pdfrwt beam="1">  1        2 0.15855447E+00 0.26958432E+03</pdfrwt>
<pdfrwt beam="2">  1       -2 0.27122147E-02 0.26958432E+03</pdfrwt>
<totfact> 0.12340414E+04</totfact>
</mgrwt>
</event>
<event>
 9    1  0.2031653E-002  0.2745881E+03  0.7818608E-02  0.1098682E+00
         -1   -1    0    0    0  501 -0.00000000000E+00  0.00000000000E+00  0.20230088565E+03  0.20230088565E+03  0.00000000000E+00 0.  1.
          1   -1    0    0  501    0  0.00000000000E+00 -0.00000000000E+00 -0.93176364046E+02  0.93176364046E+02  0.00000000000E+00 0.  1.
         36    2    1    2    0    0 -0.35527136788E-14  0.35527136788E-14  0.10912452160E+03  0.29547724969E+03  0.27458813498E+03 0.  0.
         25    2    3    3    0    0  0.24629668736E+02 -0.37159173886E+01 -0.25336431932E+02  0.11051554330E+03  0.10464856379E+03 0.  0.
         25    2    3    3    0    0 -0.24629668736E+02  0.37159173886E+01  0.13446095353E+03  0.18496170639E+03  0.12454178489E+03 0.  0.
          5    1    4    4  502    0 -0.17356647545E+02  0.20021551960E+02 -0.49517092063E+02  0.56357325729E+02  0.47000000000E+01 0.  1.
         -5    1    4    4    0  502  0.41986316282E+02 -0.23737469348E+02  0.24180660131E+02  0.54158217570E+02  0.47000000000E+01 0.  1.
          5    1    5    5  503    0 -0.12962039846E+02 -0.55350362190E+02  0.30375458209E+02  0.64625347450E+02  0.47000000000E+01 0. -1.
         -5    1    5    5    0  503 -0.11667628890E+02  0.59066279579E+02  0.10408549532E+03  0.12033635894E+03  0.47000000000E+01 0. -1.
<mgrwt>
<rscale>  0 0.27458813E+03</rscale>
<asrwt>0</asrwt>
<pdfrwt beam="1">  1        1 0.14334825E-01 0.27458813E+03</pdfrwt>
<pdfrwt beam="2">  1       -1 0.31123213E-01 0.27458813E+03</pdfrwt>
<totfact> 0.37751760E+03</totfact>
</mgrwt>
</event>
<event>
 9    1  0.2031653E-002  0.2742426E+03  0.7818608E-02  0.1098876E+00
         -3   -1    0    0    0  501 -0.00000000000E+00  0.00000000000E+00  0.46716064037E+02  0.46716064037E+02  0.00000000000E+00 0.  1.
          3   -1    0    0  501    0  0.00000000000E+00 -0.00000000000E+00 -0.40247923207E+03  0.40247923207E+03  0.00000000000E+00 0.  1.
         36    2    1    2    0    0  0.00000000000E+00 -0.21316282073E-13 -0.35576316804E+03  0.44919529611E+03  0.27424256109E+03 0.  0.
         25    2    3    3    0    0  0.10542989157E+02 -0.60331830134E+02 -0.16238120164E+03  0.21405477024E+03  0.12530245676E+03 0.  0.
         25    2    3    3    0    0 -0.10542989157E+02  0.60331830134E+02 -0.19338196640E+03  0.23514052587E+03  0.11892601746E+03 0.  0.
          5    1    4    4  502    0  0.75562436466E+01  0.38935873416E+02 -0.42814183410E+02  0.58551202872E+02  0.47000000000E+01 0. -1.
         -5    1    4    4    0  502  0.29867455102E+01 -0.99267703550E+02 -0.11956701823E+03  0.15550356737E+03  0.47000000000E+01 0. -1.
          5    1    5    5  503    0 -0.14224396092E+02 -0.33020793476E+02 -0.30832155313E+02  0.47596407923E+02  0.47000000000E+01 0.  1.
         -5    1    5    5    0  503  0.36814069352E+01  0.93352623610E+02 -0.16254981108E+03  0.18754411794E+03  0.47000000000E+01 0.  1.
<mgrwt>
<rscale>  0 0.27424256E+03</rscale>
<asrwt>0</asrwt>
<pdfrwt beam="1">  1        3 0.61919880E-01 0.27424256E+03</pdfrwt>
<pdfrwt beam="2">  1       -3 0.71870870E-02 0.27424256E+03</pdfrwt>
<totfact> 0.83300536E+02</totfact>
</mgrwt>
</event>
<event>
 9    1  0.2031653E-002  0.2755592E+03  0.7818608E-02  0.1098139E+00
          1   -1    0    0  501    0  0.00000000000E+00  0.00000000000E+00  0.27010209186E+03  0.27010209186E+03  0.00000000000E+00 0.  1.
         -1   -1    0    0    0  501 -0.00000000000E+00 -0.00000000000E+00 -0.70281652455E+02  0.70281652455E+02  0.00000000000E+00 0.  1.
         36    2    1    2    0    0  0.00000000000E+00  0.00000000000E+00  0.19982043940E+03  0.34038374431E+03  0.27555922302E+03 0.  0.
         25    2    3    3    0    0 -0.21371685762E+02 -0.39768534659E+02  0.78585025642E+02  0.15832244893E+03  0.12981566269E+03 0.  0.
         25    2    3    3    0    0  0.21371685762E+02  0.39768534659E+02  0.12123541376E+03  0.18206129538E+03  0.12810153951E+03 0.  0.
          5    1    4    4  502    0  0.44434372024E+02 -0.53791623414E+02  0.42452539552E+02  0.81806236199E+02  0.47000000000E+01 0.  1.
         -5    1    4    4    0  502 -0.65806057786E+02  0.14023088755E+02  0.36132486090E+02  0.76516212731E+02  0.47000000000E+01 0.  1.
          5    1    5    5  503    0 -0.35941522318E+02  0.50793348699E+01 -0.70366571908E+01  0.37271936006E+02  0.47000000000E+01 0. -1.
         -5    1    5    5    0  503  0.57313208080E+02  0.34689199789E+02  0.12827207095E+03  0.14478935938E+03  0.47000000000E+01 0. -1.
<mgrwt>
<rscale>  0 0.27555922E+03</rscale>
<asrwt>0</asrwt>
<pdfrwt beam="1">  1        1 0.41554167E-01 0.27555922E+03</pdfrwt>
<pdfrwt beam="2">  1       -1 0.10812562E-01 0.27555922E+03</pdfrwt>
<totfact> 0.53656780E+03</totfact>
</mgrwt>
</event>
<event>
 9    1  0.2031653E-002  0.2753379E+03  0.7818608E-02  0.1098263E+00
          3   -1    0    0  501    0  0.00000000000E+00  0.00000000000E+00  0.78405404479E+03  0.78405404479E+03  0.00000000000E+00 0. -1.
         -3   -1    0    0    0  501 -0.00000000000E+00 -0.00000000000E+00 -0.24172745440E+02  0.24172745440E+02  0.00000000000E+00 0. -1.
         36    2    1    2    0    0  0.17763568394E-14  0.71054273576E-14  0.75988129935E+03  0.80822679023E+03  0.27533789304E+03 0.  0.
         25    2    3    3    0    0 -0.10968381689E+02 -0.13962145655E+02  0.24141006837E+03  0.27410981477E+03  0.12861618301E+03 0.  0.
         25    2    3    3    0    0  0.10968381689E+02  0.13962145655E+02  0.51847123097E+03  0.53411697546E+03  0.12709555152E+03 0.  0.
          5    1    4    4  502    0  0.12244040690E+02 -0.64767282645E+02  0.83117056233E+02  0.10618499174E+03  0.47000000000E+01 0. -1.
         -5    1    4    4    0  502 -0.23212422379E+02  0.50805136990E+02  0.15829301214E+03  0.16792482303E+03  0.47000000000E+01 0. -1.
          5    1    5    5  503    0  0.29920733864E+02 -0.42655429121E+02  0.11647803263E+03  0.12768695327E+03  0.47000000000E+01 0.  1.
         -5    1    5    5    0  503 -0.18952352175E+02  0.56617574776E+02  0.40199319834E+03  0.40643002219E+03  0.47000000000E+01 0.  1.
<mgrwt>
<rscale>  0 0.27533789E+03</rscale>
<asrwt>0</asrwt>
<pdfrwt beam="1">  1        3 0.12062368E+00 0.27533789E+03</pdfrwt>
<pdfrwt beam="2">  1       -3 0.37188845E-02 0.27533789E+03</pdfrwt>
<totfact> 0.54076430E+02</totfact>
</mgrwt>
</event>
<event>
 9    1  0.2031653E-002  0.2741988E+03  0.7818608E-02  0.1098900E+00
          2   -1    0    0  501    0  0.00000000000E+00  0.00000000000E+00  0.99097279324E+02  0.99097279324E+02  0.00000000000E+00 0.  1.
         -2   -1    0    0    0  501 -0.00000000000E+00 -0.00000000000E+00 -0.18967469531E+03  0.18967469531E+03  0.00000000000E+00 0.  1.
         36    2    1    2    0    0 -0.14210854715E-13  0.35527136788E-14 -0.90577415985E+02  0.28877197463E+03  0.27419880570E+03 0.  0.
         25    2    3    3    0    0  0.50655072329E+02 -0.17036285093E+02 -0.37636478965E+02  0.14233937729E+03  0.12644296111E+03 0.  0.
         25    2    3    3    0    0 -0.50655072329E+02  0.17036285093E+02 -0.52940937020E+02  0.14643259735E+03  0.12563276400E+03 0.  0.
          5    1    4    4  502    0  0.68514352543E+02 -0.58890848273E+02 -0.16564034695E+02  0.91971766103E+02  0.47000000000E+01 0. -1.
         -5    1    4    4    0  502 -0.17859280214E+02  0.41854563180E+02 -0.21072444270E+02  0.50367611183E+02  0.47000000000E+01 0. -1.
          5    1    5    5  503    0 -0.34533269915E+02  0.70221484127E+00  0.38559741351E+02  0.51980606862E+02  0.47000000000E+01 0.  1.
         -5    1    5    5    0  503 -0.16121802414E+02  0.16334070252E+02 -0.91500678371E+02  0.94451990484E+02  0.47000000000E+01 0.  1.
<mgrwt>
<rscale>  0 0.27419881E+03</rscale>
<asrwt>0</asrwt>
<pdfrwt beam="1">  1        2 0.15245735E-01 0.27419881E+03</pdfrwt>
<pdfrwt beam="2">  1       -2 0.29180722E-01 0.27419881E+03</pdfrwt>
<totfact> 0.40875822E+03</totfact>
</mgrwt>
</event>
<event>
 9    1  0.2031653E-002  0.2753131E+03  0.7818608E-02  0.1098277E+00
         -4   -1    0    0    0  501 -0.00000000000E+00  0.00000000000E+00  0.14634287490E+03  0.14634287490E+03  0.00000000000E+00 0. -1.
          4   -1    0    0  501    0  0.00000000000E+00 -0.00000000000E+00 -0.12948581331E+03  0.12948581331E+03  0.00000000000E+00 0. -1.
         36    2    1    2    0    0  0.00000000000E+00  0.71054273576E-14  0.16857061593E+02  0.27582868822E+03  0.27531310306E+03 0.  0.
         25    2    3    3    0    0 -0.40085683910E+02 -0.97129797590E+01  0.44699827190E+02  0.13938678134E+03  0.12541688973E+03 0.  0.
         25    2    3    3    0    0  0.40085683910E+02  0.97129797590E+01 -0.27842765597E+02  0.13644190688E+03  0.12704318292E+03 0.  0.
          5    1    4    4  502    0 -0.67274366582E+02  0.35703869820E+02  0.39685118624E+02  0.86009332978E+02  0.47000000000E+01 0.  1.
         -5    1    4    4    0  502  0.27188682672E+02 -0.45416849579E+02  0.50147085661E+01  0.53377448357E+02  0.47000000000E+01 0.  1.
          5    1    5    5  503    0  0.23003792720E+02 -0.47200293146E+02 -0.50185119552E+02  0.72785152174E+02  0.47000000000E+01 0. -1.
         -5    1    5    5    0  503  0.17081891191E+02  0.56913272905E+02  0.22342353955E+02  0.63656754706E+02  0.47000000000E+01 0. -1.
<mgrwt>
<rscale>  0 0.27531310E+03</rscale>
<asrwt>0</asrwt>
<pdfrwt beam="1">  1        4 0.19920894E-01 0.27531310E+03</pdfrwt>
<pdfrwt beam="2">  1       -4 0.22514288E-01 0.27531310E+03</pdfrwt>
<totfact> 0.77492492E+02</totfact>
</mgrwt>
</event>
<event>
 9    1  0.2031653E-002  0.2748414E+03  0.7818608E-02  0.1098540E+00
         -1   -1    0    0    0  501 -0.00000000000E+00  0.00000000000E+00  0.23284392871E+03  0.23284392871E+03  0.00000000000E+00 0.  1.
          1   -1    0    0  501    0  0.00000000000E+00 -0.00000000000E+00 -0.81103485454E+02  0.81103485454E+02  0.00000000000E+00 0.  1.
         36    2    1    2    0    0 -0.71054273576E-14 -0.35527136788E-14  0.15174044326E+03  0.31394741417E+03  0.27484143927E+03 0.  0.
         25    2    3    3    0    0  0.48587711004E+02 -0.84486143208E+01  0.85701981163E+02  0.16534578993E+03  0.13252266194E+03 0.  0.
         25    2    3    3    0    0 -0.48587711004E+02  0.84486143208E+01  0.66038462097E+02  0.14860162424E+03  0.12364958353E+03 0.  0.
          5    1    4    4  502    0 -0.14318752025E+02  0.44082580274E+02 -0.11567192925E+00  0.46587594090E+02  0.47000000000E+01 0.  1.
         -5    1    4    4    0  502  0.62906463029E+02 -0.52531194595E+02  0.85817653093E+02  0.11875819584E+03  0.47000000000E+01 0.  1.
          5    1    5    5  503    0  0.37261713308E+02 -0.19138596184E+02  0.14176822444E+02  0.44472389605E+02  0.47000000000E+01 0. -1.
         -5    1    5    5    0  503 -0.85849424313E+02  0.27587210505E+02  0.51861639653E+02  0.10412923464E+03  0.47000000000E+01 0. -1.
<mgrwt>
<rscale>  0 0.27484144E+03</rscale>
<asrwt>0</asrwt>
<pdfrwt beam="1">  1        1 0.12477459E-01 0.27484144E+03</pdfrwt>
<pdfrwt beam="2">  1       -1 0.35822143E-01 0.27484144E+03</pdfrwt>
<totfact> 0.35577118E+03</totfact>
</mgrwt>
</event>
<event>
 9    1  0.2031653E-002  0.2752879E+03  0.7818608E-02  0.1098291E+00
          2   -1    0    0  501    0  0.00000000000E+00  0.00000000000E+00  0.78642982003E+03  0.78642982003E+03  0.00000000000E+00 0.  1.
         -2   -1    0    0    0  501 -0.00000000000E+00 -0.00000000000E+00 -0.24090963588E+02  0.24090963588E+02  0.00000000000E+00 0.  1.
         36    2    1    2    0    0  0.00000000000E+00  0.00000000000E+00  0.76233885644E+03  0.81052078362E+03  0.27528786504E+03 0.  0.
         25    2    3    3    0    0  0.24008863816E+01  0.54369640020E+02  0.43163839823E+03  0.45270968953E+03  0.12518999223E+03 0.  0.
         25    2    3    3    0    0 -0.24008863816E+01 -0.54369640020E+02  0.33070045822E+03  0.35781109409E+03  0.12531625585E+03 0.  0.
          5    1    4    4  502    0 -0.28693132212E+02 -0.41393094076E+01  0.19500402851E+02  0.35253161984E+02  0.47000000000E+01 0.  1.
         -5    1    4    4    0  502  0.31094018593E+02  0.58508949428E+02  0.41213799538E+03  0.41745652754E+03  0.47000000000E+01 0.  1.
          5    1    5    5  503    0 -0.29624257980E+02 -0.85280393487E+02  0.17879142627E+03  0.20034671518E+03  0.47000000000E+01 0.  1.
         -5    1    5    5    0  503  0.27223371599E+02  0.30910753467E+02  0.15190903194E+03  0.15746437891E+03  0.47000000000E+01 0.  1.
<mgrwt>
<rscale>  0 0.27528787E+03</rscale>
<asrwt>0</asrwt>
<pdfrwt beam="1">  1        2 0.12098918E+00 0.27528787E+03</pdfrwt>
<pdfrwt beam="2">  1       -2 0.37063027E-02 0.27528787E+03</pdfrwt>
<totfact> 0.11143443E+04</totfact>
</mgrwt>
</event>
<event>
 9    1  0.2031653E-002  0.2715905E+03  0.7818608E-02  0.1100373E+00
          1   -1    0    0  501    0  0.00000000000E+00  0.00000000000E+00  0.17597865682E+03  0.17597865682E+03  0.00000000000E+00 0.  1.
         -1   -1    0    0    0  501 -0.00000000000E+00 -0.00000000000E+00 -0.10478743958E+03  0.10478743958E+03  0.00000000000E+00 0.  1.
         36    2    1    2    0    0  0.00000000000E+00  0.00000000000E+00  0.71191217230E+02  0.28076609640E+03  0.27159052170E+03 0.  0.
         25    2    3    3    0    0 -0.23838021388E+01 -0.69085964691E+01  0.51838871558E+01  0.13970703436E+03  0.13941940879E+03 0.  0.
         25    2    3    3    0    0  0.23838021388E+01  0.69085964691E+01  0.66007330075E+02  0.14105906204E+03  0.12444790131E+03 0.  0.
          5    1    4    4  502    0  0.43689894931E+02  0.44164709501E+02  0.26265447157E+02  0.67611331881E+02  0.47000000000E+01 0. -1.
         -5    1    4    4    0  502 -0.46073697069E+02 -0.51073305970E+02 -0.21081560001E+02  0.72095702482E+02  0.47000000000E+01 0. -1.
          5    1    5    5  503    0  0.32639864897E+02 -0.50003847642E+02  0.35063531012E+02  0.69406676671E+02  0.47000000000E+01 0. -1.
         -5    1    5    5    0  503 -0.30256062758E+02  0.56912444111E+02  0.30943799063E+02  0.71652385367E+02  0.47000000000E+01 0. -1.
<mgrwt>
<rscale>  0 0.27159052E+03</rscale>
<asrwt>0</asrwt>
<pdfrwt beam="1">  1        1 0.27073639E-01 0.27159052E+03</pdfrwt>
<pdfrwt beam="2">  1       -1 0.16121145E-01 0.27159052E+03</pdfrwt>
<totfact> 0.49071334E+03</totfact>
</mgrwt>
</event>
<event>
 9    1  0.2031653E-002  0.2734734E+03  0.7818608E-02  0.1099308E+00
         -2   -1    0    0    0  501 -0.00000000000E+00  0.00000000000E+00  0.71453616664E+03  0.71453616664E+03  0.00000000000E+00 0.  1.
          2   -1    0    0  501    0  0.00000000000E+00 -0.00000000000E+00 -0.26166520108E+02  0.26166520108E+02  0.00000000000E+00 0.  1.
         36    2    1    2    0    0 -0.35527136788E-14  0.00000000000E+00  0.68836964654E+03  0.74070268675E+03  0.27347339887E+03 0.  0.
         25    2    3    3    0    0 -0.26953867720E+02  0.45191452124E+02  0.31127500473E+03  0.33974751138E+03  0.12556856528E+03 0.  0.
         25    2    3    3    0    0  0.26953867720E+02 -0.45191452124E+02  0.37709464180E+03  0.40095517537E+03  0.12568176260E+03 0.  0.
          5    1    4    4  502    0 -0.58796087695E+02  0.68834115446E+02  0.16664098859E+03  0.18970088154E+03  0.47000000000E+01 0. -1.
         -5    1    4    4    0  502  0.31842219975E+02 -0.23642663321E+02  0.14463401614E+03  0.15004662984E+03  0.47000000000E+01 0. -1.
          5    1    5    5  503    0  0.54391967749E+02 -0.27715146946E+02  0.73829534144E+02  0.95914053390E+02  0.47000000000E+01 0. -1.
         -5    1    5    5    0  503 -0.27438100029E+02 -0.17476305178E+02  0.30326510766E+03  0.30504112198E+03  0.47000000000E+01 0. -1.
<mgrwt>
<rscale>  0 0.27347340E+03</rscale>
<asrwt>0</asrwt>
<pdfrwt beam="1">  1        2 0.40256190E-02 0.27347340E+03</pdfrwt>
<pdfrwt beam="2">  1       -2 0.10992863E+00 0.27347340E+03</pdfrwt>
<totfact> 0.14400566E+03</totfact>
</mgrwt>
</event>
<event>
 9    1  0.2031653E-002  0.2765341E+03  0.7818608E-02  0.1097597E+00
         -2   -1    0    0    0  501 -0.00000000000E+00  0.00000000000E+00  0.28638376571E+02  0.28638376571E+02  0.00000000000E+00 0. -1.
          2   -1    0    0  501    0  0.00000000000E+00 -0.00000000000E+00 -0.66755808961E+03  0.66755808961E+03  0.00000000000E+00 0. -1.
         36    2    1    2    0    0  0.00000000000E+00  0.17763568394E-14 -0.63891971304E+03  0.69619646618E+03  0.27653412052E+03 0.  0.
         25    2    3    3    0    0 -0.52015316852E+02  0.15311035112E+02 -0.37617555171E+03  0.39932226576E+03  0.12251614277E+03 0.  0.
         25    2    3    3    0    0  0.52015316852E+02 -0.15311035112E+02 -0.26274416133E+03  0.29687420043E+03  0.12712110597E+03 0.  0.
          5    1    4    4  502    0 -0.79322135115E+02  0.19291762621E+02 -0.35480183703E+03  0.36410246743E+03  0.47000000000E+01 0.  1.
         -5    1    4    4    0  502  0.27306818263E+02 -0.39807275098E+01 -0.21373714682E+02  0.35219798331E+02  0.47000000000E+01 0.  1.
          5    1    5    5  503    0  0.44962634888E+02 -0.49238584217E+02 -0.56024784149E+02  0.87217791480E+02  0.47000000000E+01 0.  1.
         -5    1    5    5    0  503  0.70526819641E+01  0.33927549105E+02 -0.20671937718E+03  0.20965640895E+03  0.47000000000E+01 0.  1.
<mgrwt>
<rscale>  0 0.27653412E+03</rscale>
<asrwt>0</asrwt>
<pdfrwt beam="1">  1        2 0.10270124E+00 0.27653412E+03</pdfrwt>
<pdfrwt beam="2">  1       -2 0.44059041E-02 0.27653412E+03</pdfrwt>
<totfact> 0.10507484E+04</totfact>
</mgrwt>
</event>
<event>
 9    1  0.2031653E-002  0.2745051E+03  0.7818608E-02  0.1098729E+00
         -1   -1    0    0    0  501 -0.00000000000E+00  0.00000000000E+00  0.13650800879E+02  0.13650800879E+02  0.00000000000E+00 0.  1.
          1   -1    0    0  501    0  0.00000000000E+00 -0.00000000000E+00 -0.13800113319E+04  0.13800113319E+04  0.00000000000E+00 0.  1.
         36    2    1    2    0    0  0.00000000000E+00 -0.35527136788E-14 -0.13663605310E+04  0.13936621328E+04  0.27450508121E+03 0.  0.
         25    2    3    3    0    0 -0.10318070505E+02  0.14045726565E+02 -0.10036602506E+04  0.10112390984E+04  0.12233916113E+03 0.  0.
         25    2    3    3    0    0  0.10318070505E+02 -0.14045726565E+02 -0.36270028037E+03  0.38242303440E+03  0.11996724071E+03 0.  0.
          5    1    4    4  502    0  0.41528317168E+02 -0.33002324214E+02 -0.40831093446E+03  0.41176894459E+03  0.47000000000E+01 0. -1.
         -5    1    4    4    0  502 -0.51846387674E+02  0.47048050779E+02 -0.59534931616E+03  0.59947015376E+03  0.47000000000E+01 0. -1.
          5    1    5    5  503    0 -0.42297145239E+02  0.29956184142E+02 -0.14045712957E+03  0.14978890717E+03  0.47000000000E+01 0.  1.
         -5    1    5    5    0  503  0.52615215744E+02 -0.44001910707E+02 -0.22224315080E+03  0.23263412723E+03  0.47000000000E+01 0.  1.
<mgrwt>
<rscale>  0 0.27450508E+03</rscale>
<asrwt>0</asrwt>
<pdfrwt beam="1">  1        1 0.21230944E+00 0.27450508E+03</pdfrwt>
<pdfrwt beam="2">  1       -1 0.21001231E-02 0.27450508E+03</pdfrwt>
<totfact> 0.54949652E+03</totfact>
</mgrwt>
</event>
<event>
 9    1  0.2031653E-002  0.2720502E+03  0.7818608E-02  0.1100112E+00
         -2   -1    0    0    0  501 -0.00000000000E+00  0.00000000000E+00  0.70627402560E+02  0.70627402560E+02  0.00000000000E+00 0.  1.
          2   -1    0    0  501    0  0.00000000000E+00 -0.00000000000E+00 -0.26197799106E+03  0.26197799106E+03  0.00000000000E+00 0.  1.
         36    2    1    2    0    0  0.71054273576E-14  0.00000000000E+00 -0.19135058850E+03  0.33260539363E+03  0.27205017947E+03 0.  0.
         25    2    3    3    0    0  0.53311739034E+02  0.35844110935E+01 -0.99868322481E+02  0.16872476501E+03  0.12505748666E+03 0.  0.
         25    2    3    3    0    0 -0.53311739034E+02 -0.35844110935E+01 -0.91482266023E+02  0.16388062862E+03  0.12503145971E+03 0.  0.
          5    1    4    4  502    0  0.30020422414E+02 -0.48961596427E+02 -0.94662016561E+02  0.11082170846E+03  0.47000000000E+01 0.  1.
         -5    1    4    4    0  502  0.23291316620E+02  0.52546007521E+02 -0.52063059201E+01  0.57903056548E+02  0.47000000000E+01 0.  1.
          5    1    5    5  503    0 -0.10474693796E+00  0.51773876765E+02 -0.12173623699E+02  0.53393186843E+02  0.47000000000E+01 0. -1.
         -5    1    5    5    0  503 -0.53206992096E+02 -0.55358287859E+02 -0.79308642324E+02  0.11048744177E+03  0.47000000000E+01 0. -1.
<mgrwt>
<rscale>  0 0.27205018E+03</rscale>
<asrwt>0</asrwt>
<pdfrwt beam="1">  1        2 0.40304307E-01 0.27205018E+03</pdfrwt>
<pdfrwt beam="2">  1       -2 0.10865754E-01 0.27205018E+03</pdfrwt>
<totfact> 0.72978158E+03</totfact>
</mgrwt>
</event>
<event>
 9    1  0.2031653E-002  0.2753103E+03  0.7818608E-02  0.1098278E+00
         -1   -1    0    0    0  501 -0.00000000000E+00  0.00000000000E+00  0.13314061786E+03  0.13314061786E+03  0.00000000000E+00 0. -1.
          1   -1    0    0  501    0  0.00000000000E+00 -0.00000000000E+00 -0.14232273153E+03  0.14232273153E+03  0.00000000000E+00 0. -1.
         36    2    1    2    0    0 -0.26645352591E-14 -0.71054273576E-14 -0.91821136669E+01  0.27546334939E+03  0.27531027160E+03 0.  0.
         25    2    3    3    0    0  0.34245018244E+01  0.50204000302E+02 -0.28078470505E+02  0.13762912023E+03  0.12498482056E+03 0.  0.
         25    2    3    3    0    0 -0.34245018244E+01 -0.50204000302E+02  0.18896356838E+02  0.13783422917E+03  0.12692136766E+03 0.  0.
          5    1    4    4  502    0  0.92483872794E+01  0.21626933258E+02 -0.76906602211E+02  0.80560364777E+02  0.47000000000E+01 0. -1.
         -5    1    4    4    0  502 -0.58238854550E+01  0.28577067045E+02  0.48828131706E+02  0.57068755450E+02  0.47000000000E+01 0. -1.
          5    1    5    5  503    0 -0.32403098949E+02 -0.76303266485E+01  0.61989083137E+02  0.70518927491E+02  0.47000000000E+01 0.  1.
         -5    1    5    5    0  503  0.28978597125E+02 -0.42573673654E+02 -0.43092726300E+02  0.67315301675E+02  0.47000000000E+01 0.  1.
<mgrwt>
<rscale>  0 0.27531027E+03</rscale>
<asrwt>0</asrwt>
<pdfrwt beam="1">  1        1 0.21895805E-01 0.27531027E+03</pdfrwt>
<pdfrwt beam="2">  1       -1 0.20483172E-01 0.27531027E+03</pdfrwt>
<totfact> 0.43741460E+03</totfact>
</mgrwt>
</event>
<event>
 9    1  0.2031653E-002  0.2749970E+03  0.7818608E-02  0.1098453E+00
          1   -1    0    0  501    0  0.00000000000E+00  0.00000000000E+00  0.83343055324E+03  0.83343055324E+03  0.00000000000E+00 0.  1.
         -1   -1    0    0    0  501 -0.00000000000E+00 -0.00000000000E+00 -0.22684365924E+02  0.22684365924E+02  0.00000000000E+00 0.  1.
         36    2    1    2    0    0  0.00000000000E+00 -0.35527136788E-14  0.81074618731E+03  0.85611491916E+03  0.27499704466E+03 0.  0.
         25    2    3    3    0    0  0.44457350233E+02 -0.15841940472E+02  0.45982850567E+03  0.47999237039E+03  0.12931743091E+03 0.  0.
         25    2    3    3    0    0 -0.44457350233E+02  0.15841940472E+02  0.35091768164E+03  0.37612254877E+03  0.12687603926E+03 0.  0.
          5    1    4    4  502    0  0.14818109897E+01 -0.10034308824E+02  0.42230642690E+03  0.42245436596E+03  0.47000000000E+01 0.  1.
         -5    1    4    4    0  502  0.42975539243E+02 -0.58076316478E+01  0.37522078771E+02  0.57538004431E+02  0.47000000000E+01 0.  1.
          5    1    5    5  503    0  0.42640996757E+02  0.16175282268E+02  0.15557956291E+03  0.16219428090E+03  0.47000000000E+01 0. -1.
         -5    1    5    5    0  503 -0.87098346990E+02 -0.33334179593E+00  0.19533811873E+03  0.21392826787E+03  0.47000000000E+01 0. -1.
<mgrwt>
<rscale>  0 0.27499704E+03</rscale>
<asrwt>0</asrwt>
<pdfrwt beam="1">  1        1 0.12822006E+00 0.27499704E+03</pdfrwt>
<pdfrwt beam="2">  1       -1 0.34899031E-02 0.27499704E+03</pdfrwt>
<totfact> 0.65019170E+03</totfact>
</mgrwt>
</event>
<event>
 9    1  0.2031653E-002  0.2751810E+03  0.7818608E-02  0.1098350E+00
         -2   -1    0    0    0  501 -0.00000000000E+00  0.00000000000E+00  0.15676521417E+03  0.15676521417E+03  0.00000000000E+00 0.  1.
          2   -1    0    0  501    0  0.00000000000E+00 -0.00000000000E+00 -0.12076116291E+03  0.12076116291E+03  0.00000000000E+00 0.  1.
         36    2    1    2    0    0  0.00000000000E+00  0.00000000000E+00  0.36004051261E+02  0.27752637708E+03  0.27518102818E+03 0.  0.
         25    2    3    3    0    0 -0.47721635658E+02  0.87677711479E+01  0.50557813640E+02  0.14161778920E+03  0.12306615041E+03 0.  0.
         25    2    3    3    0    0  0.47721635658E+02 -0.87677711479E+01 -0.14553762379E+02  0.13590858788E+03  0.12611543895E+03 0.  0.
          5    1    4    4  502    0 -0.15134864806E+02  0.18119426872E+02 -0.38950576914E+02  0.45788810913E+02  0.47000000000E+01 0.  1.
         -5    1    4    4    0  502 -0.32586770852E+02 -0.93516557237E+01  0.89508390555E+02  0.95828978284E+02  0.47000000000E+01 0.  1.
          5    1    5    5  503    0  0.60545113411E+02 -0.27936827414E+02 -0.56688087351E+02  0.87645914516E+02  0.47000000000E+01 0. -1.
         -5    1    5    5    0  503 -0.12823477753E+02  0.19169056266E+02  0.42134324972E+02  0.48262673368E+02  0.47000000000E+01 0. -1.
<mgrwt>
<rscale>  0 0.27518103E+03</rscale>
<asrwt>0</asrwt>
<pdfrwt beam="1">  1        2 0.18578640E-01 0.27518103E+03</pdfrwt>
<pdfrwt beam="2">  1       -2 0.24117725E-01 0.27518103E+03</pdfrwt>
<totfact> 0.45550749E+03</totfact>
</mgrwt>
</event>
<event>
 9    1  0.2031653E-002  0.2745467E+03  0.7818608E-02  0.1098705E+00
         -2   -1    0    0    0  501 -0.00000000000E+00  0.00000000000E+00  0.15984250758E+02  0.15984250758E+02  0.00000000000E+00 0. -1.
          2   -1    0    0  501    0  0.00000000000E+00 -0.00000000000E+00 -0.11789091000E+04  0.11789091000E+04  0.00000000000E+00 0. -1.
         36    2    1    2    0    0  0.00000000000E+00 -0.71054273576E-14 -0.11629248492E+04  0.11948933507E+04  0.27454674410E+03 0.  0.
         25    2    3    3    0    0  0.25429790216E+02  0.39506618575E+02 -0.49396110373E+03  0.51242790206E+03  0.12797396482E+03 0.  0.
         25    2    3    3    0    0 -0.25429790216E+02 -0.39506618575E+02 -0.66896374549E+03  0.68246544867E+03  0.12664576073E+03 0.  0.
          5    1    4    4  502    0 -0.30549557022E+02  0.32351557299E+01 -0.37235368874E+03  0.37364836569E+03  0.47000000000E+01 0.  1.
         -5    1    4    4    0  502  0.55979347238E+02  0.36271462846E+02 -0.12160741499E+03  0.13877953637E+03  0.47000000000E+01 0.  1.
          5    1    5    5  503    0  0.37960441582E+02 -0.15063990263E+02 -0.47721068625E+03  0.47897812893E+03  0.47000000000E+01 0. -1.
         -5    1    5    5    0  503 -0.63390231798E+02 -0.24442628312E+02 -0.19175305924E+03  0.20348731974E+03  0.47000000000E+01 0. -1.
<mgrwt>
<rscale>  0 0.27454674E+03</rscale>
<asrwt>0</asrwt>
<pdfrwt beam="1">  1        2 0.18137078E+00 0.27454674E+03</pdfrwt>
<pdfrwt beam="2">  1       -2 0.24591135E-02 0.27454674E+03</pdfrwt>
<totfact> 0.11683520E+04</totfact>
</mgrwt>
</event>
<event>
 9    1  0.2031653E-002  0.2748152E+03  0.7818608E-02  0.1098555E+00
          2   -1    0    0  501    0  0.00000000000E+00  0.00000000000E+00  0.15571677731E+03  0.15571677731E+03  0.00000000000E+00 0. -1.
         -2   -1    0    0    0  501 -0.00000000000E+00 -0.00000000000E+00 -0.12125117776E+03  0.12125117776E+03  0.00000000000E+00 0. -1.
         36    2    1    2    0    0  0.00000000000E+00  0.71054273576E-14  0.34465599550E+02  0.27696795507E+03  0.27481515713E+03 0.  0.
         25    2    3    3    0    0  0.19423949157E+02  0.18548787901E+02  0.69326570433E+02  0.14381005859E+03  0.12310082148E+03 0.  0.
         25    2    3    3    0    0 -0.19423949157E+02 -0.18548787901E+02 -0.34860970883E+02  0.13315789649E+03  0.12567573661E+03 0.  0.
          5    1    4    4  502    0  0.46070852614E+02 -0.37461162032E+02  0.52429808011E+02  0.79352611106E+02  0.47000000000E+01 0.  1.
         -5    1    4    4    0  502 -0.26646903457E+02  0.56009949933E+02  0.16896762423E+02  0.64457447480E+02  0.47000000000E+01 0.  1.
          5    1    5    5  503    0 -0.32077849504E+02  0.49023076875E+02 -0.85204026774E+01  0.59388027050E+02  0.47000000000E+01 0.  1.
         -5    1    5    5    0  503  0.12653900347E+02 -0.67571864776E+02 -0.26340568206E+02  0.73769869437E+02  0.47000000000E+01 0.  1.
<mgrwt>
<rscale>  0 0.27481516E+03</rscale>
<asrwt>0</asrwt>
<pdfrwt beam="1">  1        2 0.23956427E-01 0.27481516E+03</pdfrwt>
<pdfrwt beam="2">  1       -2 0.18654027E-01 0.27481516E+03</pdfrwt>
<totfact> 0.53110243E+03</totfact>
</mgrwt>
</event>
<event>
 9    1  0.2031653E-002  0.2762893E+03  0.7818608E-02  0.1097733E+00
         -2   -1    0    0    0  501 -0.00000000000E+00  0.00000000000E+00  0.36969615344E+02  0.36969615344E+02  0.00000000000E+00 0.  1.
          2   -1    0    0  501    0  0.00000000000E+00 -0.00000000000E+00 -0.51620616113E+03  0.51620616113E+03  0.00000000000E+00 0.  1.
         36    2    1    2    0    0  0.00000000000E+00 -0.14210854715E-13 -0.47923654578E+03  0.55317577647E+03  0.27628929198E+03 0.  0.
         25    2    3    3    0    0 -0.39091450934E+02 -0.41697826141E+02 -0.20770212904E+03  0.24879186835E+03  0.12446031137E+03 0.  0.
         25    2    3    3    0    0  0.39091450934E+02  0.41697826141E+02 -0.27153441674E+03  0.30438390812E+03  0.12510704940E+03 0.  0.
          5    1    4    4  502    0 -0.76727208247E+01 -0.24634494493E+02 -0.21096019045E+03  0.21258415021E+03  0.47000000000E+01 0.  1.
         -5    1    4    4    0  502 -0.31418730109E+02 -0.17063331648E+02  0.32580614112E+01  0.36207718138E+02  0.47000000000E+01 0.  1.
          5    1    5    5  503    0  0.12955171600E+02  0.24665559323E+01 -0.25319862059E+03  0.25358539358E+03  0.47000000000E+01 0. -1.
         -5    1    5    5    0  503  0.26136279334E+02  0.39231270209E+02 -0.18335796155E+02  0.50798514547E+02  0.47000000000E+01 0. -1.
<mgrwt>
<rscale>  0 0.27628929E+03</rscale>
<asrwt>0</asrwt>
<pdfrwt beam="1">  1        2 0.79416333E-01 0.27628929E+03</pdfrwt>
<pdfrwt beam="2">  1       -2 0.56876331E-02 0.27628929E+03</pdfrwt>
<totfact> 0.95971795E+03</totfact>
</mgrwt>
</event>
<event>
 9    1  0.2031653E-002  0.2753982E+03  0.7818608E-02  0.1098229E+00
         -2   -1    0    0    0  501 -0.00000000000E+00  0.00000000000E+00  0.32059850884E+02  0.32059850884E+02  0.00000000000E+00 0. -1.
          2   -1    0    0  501    0  0.00000000000E+00 -0.00000000000E+00 -0.59142658223E+03  0.59142658223E+03  0.00000000000E+00 0. -1.
         36    2    1    2    0    0  0.71054273576E-14  0.71054273576E-14 -0.55936673134E+03  0.62348643311E+03  0.27539824280E+03 0.  0.
         25    2    3    3    0    0  0.39074339957E+02  0.15581453001E+02 -0.18194787186E+03  0.22480459040E+03  0.12514987044E+03 0.  0.
         25    2    3    3    0    0 -0.39074339957E+02 -0.15581453001E+02 -0.37741885948E+03  0.39868184271E+03  0.12137804781E+03 0.  0.
          5    1    4    4  502    0  0.70436337268E+01  0.66566684992E+02 -0.66276414933E+02  0.94315372571E+02  0.47000000000E+01 0. -1.
         -5    1    4    4    0  502  0.32030706231E+02 -0.50985231991E+02 -0.11567145693E+03  0.13048921783E+03  0.47000000000E+01 0. -1.
          5    1    5    5  503    0 -0.68663167571E+02  0.16110641371E+02 -0.13514233615E+03  0.15251139094E+03  0.47000000000E+01 0.  1.
         -5    1    5    5    0  503  0.29588827613E+02 -0.31692094372E+02 -0.24227652333E+03  0.24617045176E+03  0.47000000000E+01 0.  1.
<mgrwt>
<rscale>  0 0.27539824E+03</rscale>
<asrwt>0</asrwt>
<pdfrwt beam="1">  1        2 0.90988704E-01 0.27539824E+03</pdfrwt>
<pdfrwt beam="2">  1       -2 0.49322848E-02 0.27539824E+03</pdfrwt>
<totfact> 0.10210250E+04</totfact>
</mgrwt>
</event>
<event>
 9    1  0.2031653E-002  0.2758211E+03  0.7818608E-02  0.1097994E+00
         -1   -1    0    0    0  501 -0.00000000000E+00  0.00000000000E+00  0.24449583736E+02  0.24449583736E+02  0.00000000000E+00 0. -1.
          1   -1    0    0  501    0  0.00000000000E+00 -0.00000000000E+00 -0.77789928875E+03  0.77789928875E+03  0.00000000000E+00 0. -1.
         36    2    1    2    0    0  0.00000000000E+00  0.00000000000E+00 -0.75344970501E+03  0.80234887248E+03  0.27582105647E+03 0.  0.
         25    2    3    3    0    0  0.53039602551E+02  0.50684384473E+02 -0.43911702260E+03  0.45883193444E+03  0.11099945162E+03 0.  0.
         25    2    3    3    0    0 -0.53039602551E+02 -0.50684384473E+02 -0.31433268241E+03  0.34351693804E+03  0.11754465202E+03 0.  0.
          5    1    4    4  502    0  0.25858499116E+02 -0.42113117346E+01 -0.15538061518E+02  0.30820747538E+02  0.47000000000E+01 0.  1.
         -5    1    4    4    0  502  0.27181103435E+02  0.54895696208E+02 -0.42357896108E+03  0.42801118691E+03  0.47000000000E+01 0.  1.
          5    1    5    5  503    0 -0.18750031126E+02 -0.55096472731E+02 -0.30027807968E+03  0.30590227216E+03  0.47000000000E+01 0. -1.
         -5    1    5    5    0  503 -0.34289571425E+02  0.44120882581E+01 -0.14054602729E+02  0.37614665879E+02  0.47000000000E+01 0. -1.
<mgrwt>
<rscale>  0 0.27582106E+03</rscale>
<asrwt>0</asrwt>
<pdfrwt beam="1">  1        1 0.11967682E+00 0.27582106E+03</pdfrwt>
<pdfrwt beam="2">  1       -1 0.37614741E-02 0.27582106E+03</pdfrwt>
<totfact> 0.64724608E+03</totfact>
</mgrwt>
</event>
<event>
 9    1  0.2031653E-002  0.2743867E+03  0.7818608E-02  0.1098795E+00
          2   -1    0    0  501    0  0.00000000000E+00  0.00000000000E+00  0.26913483415E+03  0.26913483415E+03  0.00000000000E+00 0.  1.
         -2   -1    0    0    0  501 -0.00000000000E+00 -0.00000000000E+00 -0.69935238439E+02  0.69935238439E+02  0.00000000000E+00 0.  1.
         36    2    1    2    0    0  0.35527136788E-14  0.00000000000E+00  0.19919959571E+03  0.33907007259E+03  0.27438665273E+03 0.  0.
         25    2    3    3    0    0  0.84243083166E+01 -0.18954725759E+02  0.16646088737E+03  0.20935742293E+03  0.12526393300E+03 0.  0.
         25    2    3    3    0    0 -0.84243083166E+01  0.18954725759E+02  0.32738708340E+02  0.12971264966E+03  0.12378730896E+03 0.  0.
          5    1    4    4  502    0 -0.23590263870E+02  0.44803916020E+02  0.97789362862E+02  0.11022132702E+03  0.47000000000E+01 0.  1.
         -5    1    4    4    0  502  0.32014572186E+02 -0.63758641779E+02  0.68671524510E+02  0.99136095910E+02  0.47000000000E+01 0.  1.
          5    1    5    5  503    0  0.36670999057E+02  0.12564864803E+02 -0.31953987855E+02  0.50455776074E+02  0.47000000000E+01 0. -1.
         -5    1    5    5    0  503 -0.45095307374E+02  0.63898609554E+01  0.64692696195E+02  0.79256873589E+02  0.47000000000E+01 0. -1.
<mgrwt>
<rscale>  0 0.27438665E+03</rscale>
<asrwt>0</asrwt>
<pdfrwt beam="1">  1        2 0.41405359E-01 0.27438665E+03</pdfrwt>
<pdfrwt beam="2">  1       -2 0.10759268E-01 0.27438665E+03</pdfrwt>
<totfact> 0.72039997E+03</totfact>
</mgrwt>
</event>
<event>
 9    1  0.2031653E-002  0.2705495E+03  0.7818608E-02  0.1100966E+00
          4   -1    0    0  501    0  0.00000000000E+00  0.00000000000E+00  0.20727385176E+03  0.20727385176E+03  0.00000000000E+00 0. -1.
         -4   -1    0    0    0  501 -0.00000000000E+00 -0.00000000000E+00 -0.88285393979E+02  0.88285393979E+02  0.00000000000E+00 0. -1.
         36    2    1    2    0    0  0.71054273576E-14 -0.14210854715E-13  0.11898845778E+03  0.29555924574E+03  0.27054946804E+03 0.  0.
         25    2    3    3    0    0  0.52652798731E+02 -0.52929620367E+02  0.90127477950E+02  0.16924465680E+03  0.12225763636E+03 0.  0.
         25    2    3    3    0    0 -0.52652798731E+02  0.52929620367E+02  0.28860979829E+02  0.12631458893E+03  0.97716719626E+02 0.  0.
          5    1    4    4  502    0  0.24671555343E+02  0.25620777522E+02 -0.11524925492E+02  0.37683203042E+02  0.47000000000E+01 0.  1.
         -5    1    4    4    0  502  0.27981243388E+02 -0.78550397889E+02  0.10165240344E+03  0.13156145376E+03  0.47000000000E+01 0.  1.
          5    1    5    5  503    0 -0.41888637984E+02  0.49207309558E+02  0.62785011653E+02  0.90222308741E+02  0.47000000000E+01 0.  1.
         -5    1    5    5    0  503 -0.10764160747E+02  0.37223108084E+01 -0.33924031824E+02  0.36092280193E+02  0.47000000000E+01 0.  1.
<mgrwt>
<rscale>  0 0.27054947E+03</rscale>
<asrwt>0</asrwt>
<pdfrwt beam="1">  1        4 0.31888285E-01 0.27054947E+03</pdfrwt>
<pdfrwt beam="2">  1       -4 0.13582368E-01 0.27054947E+03</pdfrwt>
<totfact> 0.79392161E+02</totfact>
</mgrwt>
</event>
<event>
 9    1  0.2031653E-002  0.2745623E+03  0.7818608E-02  0.1098696E+00
         -2   -1    0    0    0  501 -0.00000000000E+00  0.00000000000E+00  0.41965573633E+02  0.41965573633E+02  0.00000000000E+00 0. -1.
          2   -1    0    0  501    0  0.00000000000E+00 -0.00000000000E+00 -0.44908520245E+03  0.44908520245E+03  0.00000000000E+00 0. -1.
         36    2    1    2    0    0  0.17763568394E-14  0.00000000000E+00 -0.40711962882E+03  0.49105077608E+03  0.27456232903E+03 0.  0.
         25    2    3    3    0    0 -0.65842586692E+01 -0.96283930645E+01 -0.30950732045E+03  0.33145703317E+03  0.11803781178E+03 0.  0.
         25    2    3    3    0    0  0.65842586692E+01  0.96283930645E+01 -0.97612308363E+02  0.15959374291E+03  0.12572168316E+03 0.  0.
          5    1    4    4  502    0  0.50003291203E+02  0.19896358010E+02 -0.15827811499E+03  0.16724307423E+03  0.47000000000E+01 0.  1.
         -5    1    4    4    0  502 -0.56587549872E+02 -0.29524751075E+02 -0.15122920546E+03  0.16421395894E+03  0.47000000000E+01 0.  1.
          5    1    5    5  503    0  0.44599268278E+01  0.46513264511E+02  0.79711770450E+01  0.47634067497E+02  0.47000000000E+01 0.  1.
         -5    1    5    5    0  503  0.21243318414E+01 -0.36884871447E+02 -0.10558348541E+03  0.11195967541E+03  0.47000000000E+01 0.  1.
<mgrwt>
<rscale>  0 0.27456233E+03</rscale>
<asrwt>0</asrwt>
<pdfrwt beam="1">  1        2 0.69090031E-01 0.27456233E+03</pdfrwt>
<pdfrwt beam="2">  1       -2 0.64562421E-02 0.27456233E+03</pdfrwt>
<totfact> 0.92218260E+03</totfact>
</mgrwt>
</event>
<event>
 9    1  0.2031653E-002  0.2749553E+03  0.7818608E-02  0.1098477E+00
          1   -1    0    0  501    0  0.00000000000E+00  0.00000000000E+00  0.10575773262E+04  0.10575773262E+04  0.00000000000E+00 0. -1.
         -1   -1    0    0    0  501 -0.00000000000E+00 -0.00000000000E+00 -0.17871130793E+02  0.17871130793E+02  0.00000000000E+00 0. -1.
         36    2    1    2    0    0  0.35527136788E-14  0.00000000000E+00  0.10397061954E+04  0.10754484570E+04  0.27495528888E+03 0.  0.
         25    2    3    3    0    0  0.76956989112E+01 -0.50124744616E+02  0.65308645544E+03  0.66704342304E+03  0.12590987306E+03 0.  0.
         25    2    3    3    0    0 -0.76956989112E+01  0.50124744616E+02  0.38661973993E+03  0.40840503392E+03  0.12144189813E+03 0.  0.
          5    1    4    4  502    0 -0.15968990596E+02  0.35906708679E+02  0.30986604827E+03  0.31238335144E+03  0.47000000000E+01 0. -1.
         -5    1    4    4    0  502  0.23664689507E+02 -0.86031453295E+02  0.34322040717E+03  0.35466007160E+03  0.47000000000E+01 0. -1.
          5    1    5    5  503    0 -0.15162745341E+02  0.75293472306E+02  0.36779993370E+03  0.37576308633E+03  0.47000000000E+01 0.  1.
         -5    1    5    5    0  503  0.74670464294E+01 -0.25168727690E+02  0.18819806231E+02  0.32641947591E+02  0.47000000000E+01 0.  1.
<mgrwt>
<rscale>  0 0.27495529E+03</rscale>
<asrwt>0</asrwt>
<pdfrwt beam="1">  1        1 0.16270416E+00 0.27495529E+03</pdfrwt>
<pdfrwt beam="2">  1       -1 0.27494056E-02 0.27495529E+03</pdfrwt>
<totfact> 0.62151750E+03</totfact>
</mgrwt>
</event>
<event>
 9    1  0.2031653E-002  0.2739686E+03  0.7818608E-02  0.1099030E+00
         -4   -1    0    0    0  501 -0.00000000000E+00  0.00000000000E+00  0.10399299035E+03  0.10399299035E+03  0.00000000000E+00 0. -1.
          4   -1    0    0  501    0  0.00000000000E+00 -0.00000000000E+00 -0.18044199633E+03  0.18044199633E+03  0.00000000000E+00 0. -1.
         36    2    1    2    0    0 -0.14210854715E-13  0.71054273576E-14 -0.76449005987E+02  0.28443498668E+03  0.27396863165E+03 0.  0.
         25    2    3    3    0    0  0.50741222274E+02  0.89351838716E+01 -0.58523862463E+02  0.14853835247E+03  0.12642820306E+03 0.  0.
         25    2    3    3    0    0 -0.50741222274E+02 -0.89351838716E+01 -0.17925143524E+02  0.13589663421E+03  0.12446716543E+03 0.  0.
          5    1    4    4  502    0  0.16379138223E+02  0.66391904289E+02 -0.37921812152E+02  0.78334634491E+02  0.47000000000E+01 0.  1.
         -5    1    4    4    0  502  0.34362084051E+02 -0.57456720417E+02 -0.20602050312E+02  0.70203717982E+02  0.47000000000E+01 0.  1.
          5    1    5    5  503    0  0.22822992428E+02  0.35810632582E+02  0.12400341337E+02  0.44487625859E+02  0.47000000000E+01 0. -1.
         -5    1    5    5    0  503 -0.73564214702E+02 -0.44745816454E+02 -0.30325484861E+02  0.91409008347E+02  0.47000000000E+01 0. -1.
<mgrwt>
<rscale>  0 0.27396863E+03</rscale>
<asrwt>0</asrwt>
<pdfrwt beam="1">  1        4 0.27760307E-01 0.27396863E+03</pdfrwt>
<pdfrwt beam="2">  1       -4 0.15998922E-01 0.27396863E+03</pdfrwt>
<totfact> 0.77659160E+02</totfact>
</mgrwt>
</event>
<event>
 9    1  0.2031653E-002  0.2741807E+03  0.7818608E-02  0.1098910E+00
         -2   -1    0    0    0  501 -0.00000000000E+00  0.00000000000E+00  0.17861542753E+02  0.17861542753E+02  0.00000000000E+00 0.  1.
          2   -1    0    0  501    0  0.00000000000E+00 -0.00000000000E+00 -0.10521917709E+04  0.10521917709E+04  0.00000000000E+00 0.  1.
         36    2    1    2    0    0  0.35527136788E-14 -0.35527136788E-14 -0.10343302282E+04  0.10700533137E+04  0.27418073091E+03 0.  0.
         25    2    3    3    0    0  0.19419335932E+02 -0.11211664911E+02 -0.73685072323E+03  0.74779908211E+03  0.12550564466E+03 0.  0.
         25    2    3    3    0    0 -0.19419335932E+02  0.11211664911E+02 -0.29747950492E+03  0.32225423155E+03  0.12186435846E+03 0.  0.
          5    1    4    4  502    0 -0.24584003767E+02  0.26982825174E+02 -0.76783123884E+02  0.85148013535E+02  0.47000000000E+01 0.  1.
         -5    1    4    4    0  502  0.44003339699E+02 -0.38194490085E+02 -0.66006759935E+03  0.66265106858E+03  0.47000000000E+01 0.  1.
          5    1    5    5  503    0  0.37661115416E+02 -0.33779855431E+02 -0.13281120234E+03  0.14219825496E+03  0.47000000000E+01 0. -1.
         -5    1    5    5    0  503 -0.57080451348E+02  0.44991520341E+02 -0.16466830259E+03  0.18005597659E+03  0.47000000000E+01 0. -1.
<mgrwt>
<rscale>  0 0.27418073E+03</rscale>
<asrwt>0</asrwt>
<pdfrwt beam="1">  1        2 0.16187572E+00 0.27418073E+03</pdfrwt>
<pdfrwt beam="2">  1       -2 0.27479286E-02 0.27418073E+03</pdfrwt>
<totfact> 0.11753323E+04</totfact>
</mgrwt>
</event>
<event>
 9    1  0.2031653E-002  0.2746498E+03  0.7818608E-02  0.1098648E+00
         -4   -1    0    0    0  501 -0.00000000000E+00  0.00000000000E+00  0.47142175285E+03  0.47142175285E+03  0.00000000000E+00 0. -1.
          4   -1    0    0  501    0  0.00000000000E+00 -0.00000000000E+00 -0.40002659207E+02  0.40002659207E+02  0.00000000000E+00 0. -1.
         36    2    1    2    0    0  0.00000000000E+00 -0.17763568394E-14  0.43141909364E+03  0.51142441206E+03  0.27464976768E+03 0.  0.
         25    2    3    3    0    0  0.19966492486E+02 -0.14818987444E+02  0.10822709234E+03  0.16259944095E+03  0.11877378275E+03 0.  0.
         25    2    3    3    0    0 -0.19966492486E+02  0.14818987444E+02  0.32319200130E+03  0.34882497111E+03  0.12887019654E+03 0.  0.
          5    1    4    4  502    0  0.17912804631E+02  0.35952098479E+02 -0.26653465434E+01  0.40529199684E+02  0.47000000000E+01 0.  1.
         -5    1    4    4    0  502  0.20536878551E+01 -0.50771085924E+02  0.11089243889E+03  0.12207024126E+03  0.47000000000E+01 0.  1.
          5    1    5    5  503    0 -0.64580967288E+02 -0.88904247245E+01  0.96684228532E+02  0.11670334629E+03  0.47000000000E+01 0. -1.
         -5    1    5    5    0  503  0.44614474802E+02  0.23709412169E+02  0.22650777276E+03  0.23212162482E+03  0.47000000000E+01 0. -1.
<mgrwt>
<rscale>  0 0.27464977E+03</rscale>
<asrwt>0</asrwt>
<pdfrwt beam="1">  1        4 0.61542556E-02 0.27464977E+03</pdfrwt>
<pdfrwt beam="2">  1       -4 0.72526419E-01 0.27464977E+03</pdfrwt>
<totfact> 0.56281250E+02</totfact>
</mgrwt>
</event>
<event>
 9    1  0.2031653E-002  0.2753310E+03  0.7818608E-02  0.1098267E+00
          3   -1    0    0  501    0  0.00000000000E+00  0.00000000000E+00  0.28538461986E+03  0.28538461986E+03  0.00000000000E+00 0.  1.
         -3   -1    0    0    0  501 -0.00000000000E+00 -0.00000000000E+00 -0.66407868037E+02  0.66407868037E+02  0.00000000000E+00 0.  1.
         36    2    1    2    0    0  0.14210854715E-13  0.35527136788E-14  0.21897675182E+03  0.35179248789E+03  0.27533095849E+03 0.  0.
         25    2    3    3    0    0 -0.27966054257E+02 -0.12249379860E+02  0.13047953770E+03  0.18691652898E+03  0.13031013601E+03 0.  0.
         25    2    3    3    0    0  0.27966054257E+02  0.12249379860E+02  0.88497214119E+02  0.16487595892E+03  0.13572095426E+03 0.  0.
          5    1    4    4  502    0 -0.74845070641E+02  0.15417161977E+02  0.93942236706E+02  0.12118872604E+03  0.47000000000E+01 0.  1.
         -5    1    4    4    0  502  0.46879016384E+02 -0.27666541837E+02  0.36537300994E+02  0.65727802932E+02  0.47000000000E+01 0.  1.
          5    1    5    5  503    0  0.66138458138E+02 -0.24246563797E+02  0.86722031148E+02  0.11182572239E+03  0.47000000000E+01 0.  1.
         -5    1    5    5    0  503 -0.38172403880E+02  0.36495943657E+02  0.17751829709E+01  0.53050236531E+02  0.47000000000E+01 0.  1.
<mgrwt>
<rscale>  0 0.27533096E+03</rscale>
<asrwt>0</asrwt>
<pdfrwt beam="1">  1        3 0.43905326E-01 0.27533096E+03</pdfrwt>
<pdfrwt beam="2">  1       -3 0.10216595E-01 0.27533096E+03</pdfrwt>
<totfact> 0.93724315E+02</totfact>
</mgrwt>
</event>
<event>
 9    1  0.2031653E-002  0.2750677E+03  0.7818608E-02  0.1098414E+00
          1   -1    0    0  501    0  0.00000000000E+00  0.00000000000E+00  0.11467463420E+03  0.11467463420E+03  0.00000000000E+00 0.  1.
         -1   -1    0    0    0  501 -0.00000000000E+00 -0.00000000000E+00 -0.16494983631E+03  0.16494983631E+03  0.00000000000E+00 0.  1.
         36    2    1    2    0    0 -0.71054273576E-14  0.00000000000E+00 -0.50275202108E+02  0.27962447051E+03  0.27506771632E+03 0.  0.
         25    2    3    3    0    0 -0.43275012096E+02 -0.16944724030E+02  0.79518639403E+01  0.13446790090E+03  0.12593067096E+03 0.  0.
         25    2    3    3    0    0  0.43275012096E+02  0.16944724030E+02 -0.58227066048E+02  0.14515656961E+03  0.12458004710E+03 0.  0.
          5    1    4    4  502    0 -0.16888120095E+02 -0.48277566629E+02  0.52721298533E+02  0.73604058033E+02  0.47000000000E+01 0. -1.
         -5    1    4    4    0  502 -0.26386892001E+02  0.31332842599E+02 -0.44769434592E+02  0.60863842867E+02  0.47000000000E+01 0. -1.
          5    1    5    5  503    0 -0.36299134889E+02 -0.23030443347E+01 -0.51024339829E+02  0.62837126461E+02  0.47000000000E+01 0.  1.
         -5    1    5    5    0  503  0.79574146985E+02  0.19247768364E+02 -0.72027262194E+01  0.82319443150E+02  0.47000000000E+01 0.  1.
<mgrwt>
<rscale>  0 0.27506772E+03</rscale>
<asrwt>0</asrwt>
<pdfrwt beam="1">  1        1 0.17642252E-01 0.27506772E+03</pdfrwt>
<pdfrwt beam="2">  1       -1 0.25376898E-01 0.27506772E+03</pdfrwt>
<totfact> 0.40611407E+03</totfact>
</mgrwt>
</event>
<event>
 9    1  0.2031653E-002  0.2744908E+03  0.7818608E-02  0.1098737E+00
          2   -1    0    0  501    0  0.00000000000E+00  0.00000000000E+00  0.18994265585E+03  0.18994265585E+03  0.00000000000E+00 0.  1.
         -2   -1    0    0    0  501 -0.00000000000E+00 -0.00000000000E+00 -0.99168323090E+02  0.99168323090E+02  0.00000000000E+00 0.  1.
         36    2    1    2    0    0  0.00000000000E+00  0.71054273576E-14  0.90774332760E+02  0.28911097894E+03  0.27449076242E+03 0.  0.
         25    2    3    3    0    0  0.82335114580E+01  0.56410357137E+02  0.65799602908E+02  0.15046896081E+03  0.12272490098E+03 0.  0.
         25    2    3    3    0    0 -0.82335114580E+01 -0.56410357137E+02  0.24974729853E+02  0.13864201813E+03  0.12388685547E+03 0.  0.
          5    1    4    4  502    0 -0.57840089277E+01  0.62298957090E+02  0.96954208707E+02  0.11548516528E+03  0.47000000000E+01 0.  1.
         -5    1    4    4    0  502  0.14017520386E+02 -0.58885999527E+01 -0.31154605799E+02  0.34983795530E+02  0.47000000000E+01 0.  1.
          5    1    5    5  503    0  0.15163168191E+02 -0.22395760168E+02 -0.47637976785E+02  0.54981438461E+02  0.47000000000E+01 0.  1.
         -5    1    5    5    0  503 -0.23396679649E+02 -0.34014596969E+02  0.72612706637E+02  0.83660579670E+02  0.47000000000E+01 0.  1.
<mgrwt>
<rscale>  0 0.27449076E+03</rscale>
<asrwt>0</asrwt>
<pdfrwt beam="1">  1        2 0.29221947E-01 0.27449076E+03</pdfrwt>
<pdfrwt beam="2">  1       -2 0.15256665E-01 0.27449076E+03</pdfrwt>
<totfact> 0.59633178E+03</totfact>
</mgrwt>
</event>
<event>
 9    1  0.2031653E-002  0.2742022E+03  0.7818608E-02  0.1098898E+00
          1   -1    0    0  501    0  0.00000000000E+00  0.00000000000E+00  0.52256235361E+03  0.52256235361E+03  0.00000000000E+00 0. -1.
         -1   -1    0    0    0  501 -0.00000000000E+00 -0.00000000000E+00 -0.35970276568E+02  0.35970276568E+02  0.00000000000E+00 0. -1.
         36    2    1    2    0    0  0.14210854715E-13  0.00000000000E+00  0.48659207705E+03  0.55853263018E+03  0.27420220556E+03 0.  0.
         25    2    3    3    0    0  0.43632716735E+02  0.32152517462E+02  0.27183045892E+03  0.30417814122E+03  0.12527946701E+03 0.  0.
         25    2    3    3    0    0 -0.43632716735E+02 -0.32152517462E+02  0.21476161813E+03  0.25435448896E+03  0.12504421251E+03 0.  0.
          5    1    4    4  502    0  0.72417518389E+02 -0.50257823706E+01  0.87009178518E+02  0.11341182745E+03  0.47000000000E+01 0.  1.
         -5    1    4    4    0  502 -0.28784801654E+02  0.37178299833E+02  0.18482128040E+03  0.19076631378E+03  0.47000000000E+01 0.  1.
          5    1    5    5  503    0  0.43459849401E+02 -0.15100434736E+02  0.89857653749E+02  0.10106072222E+03  0.47000000000E+01 0. -1.
         -5    1    5    5    0  503 -0.87092566136E+02 -0.17052082726E+02  0.12490396438E+03  0.15329376673E+03  0.47000000000E+01 0. -1.
<mgrwt>
<rscale>  0 0.27420221E+03</rscale>
<asrwt>0</asrwt>
<pdfrwt beam="1">  1        1 0.80394203E-01 0.27420221E+03</pdfrwt>
<pdfrwt beam="2">  1       -1 0.55338891E-02 0.27420221E+03</pdfrwt>
<totfact> 0.63955432E+03</totfact>
</mgrwt>
</event>
<event>
 9    1  0.2031653E-002  0.2750141E+03  0.7818608E-02  0.1098444E+00
         -2   -1    0    0    0  501 -0.00000000000E+00  0.00000000000E+00  0.88245660181E+02  0.88245660181E+02  0.00000000000E+00 0.  1.
          2   -1    0    0  501    0  0.00000000000E+00 -0.00000000000E+00 -0.21426759990E+03  0.21426759990E+03  0.00000000000E+00 0.  1.
         36    2    1    2    0    0 -0.71054273576E-14  0.71054273576E-14 -0.12602193972E+03  0.30251326008E+03  0.27501407825E+03 0.  0.
         25    2    3    3    0    0 -0.34602710878E+02  0.37425996907E+02 -0.56442384421E+02  0.14665690919E+03  0.12539718262E+03 0.  0.
         25    2    3    3    0    0  0.34602710878E+02 -0.37425996907E+02 -0.69579555295E+02  0.15585635089E+03  0.12981461687E+03 0.  0.
          5    1    4    4  502    0 -0.63163679098E+02  0.66644348125E+02 -0.26183993132E+02  0.95597128569E+02  0.47000000000E+01 0. -1.
         -5    1    4    4    0  502  0.28560968220E+02 -0.29218351218E+02 -0.30258391290E+02  0.51059780621E+02  0.47000000000E+01 0. -1.
          5    1    5    5  503    0  0.71618333927E+02 -0.50400394002E+02 -0.75734245911E+02  0.11587558619E+03  0.47000000000E+01 0. -1.
         -5    1    5    5    0  503 -0.37015623049E+02  0.12974397095E+02  0.61546906168E+01  0.39980764704E+02  0.47000000000E+01 0. -1.
<mgrwt>
<rscale>  0 0.27501408E+03</rscale>
<asrwt>0</asrwt>
<pdfrwt beam="1">  1        2 0.32964246E-01 0.27501408E+03</pdfrwt>
<pdfrwt beam="2">  1       -2 0.13576255E-01 0.27501408E+03</pdfrwt>
<totfact> 0.63327377E+03</totfact>
</mgrwt>
</event>
<event>
 9    1  0.2031653E-002  0.2754711E+03  0.7818608E-02  0.1098189E+00
          3   -1    0    0  501    0  0.00000000000E+00  0.00000000000E+00  0.41901233391E+03  0.41901233391E+03  0.00000000000E+00 0. -1.
         -3   -1    0    0    0  501 -0.00000000000E+00 -0.00000000000E+00 -0.45275699020E+02  0.45275699020E+02  0.00000000000E+00 0. -1.
         36    2    1    2    0    0  0.00000000000E+00  0.00000000000E+00  0.37373663489E+03  0.46428803293E+03  0.27547106066E+03 0.  0.
         25    2    3    3    0    0  0.13635717016E+02  0.61692356100E+02  0.17246140425E+03  0.22259999921E+03  0.12576145718E+03 0.  0.
         25    2    3    3    0    0 -0.13635717016E+02 -0.61692356100E+02  0.20127523064E+03  0.24168803372E+03  0.11793857552E+03 0.  0.
          5    1    4    4  502    0  0.62658249480E+02  0.23320101626E+01  0.88832689318E+02  0.10883396157E+03  0.47000000000E+01 0.  1.
         -5    1    4    4    0  502 -0.49022532464E+02  0.59360345937E+02  0.83628714934E+02  0.11376603764E+03  0.47000000000E+01 0.  1.
          5    1    5    5  503    0 -0.46028796906E+02 -0.20897132989E+02  0.22702732209E+02  0.55613346973E+02  0.47000000000E+01 0.  1.
         -5    1    5    5    0  503  0.32393079890E+02 -0.40795223111E+02  0.17857249843E+03  0.18607468675E+03  0.47000000000E+01 0.  1.
<mgrwt>
<rscale>  0 0.27547106E+03</rscale>
<asrwt>0</asrwt>
<pdfrwt beam="1">  1        3 0.64463433E-01 0.27547106E+03</pdfrwt>
<pdfrwt beam="2">  1       -3 0.69654924E-02 0.27547106E+03</pdfrwt>
<totfact> 0.80597888E+02</totfact>
</mgrwt>
</event>
<event>
 9    1  0.2031653E-002  0.2750413E+03  0.7818608E-02  0.1098429E+00
         -1   -1    0    0    0  501 -0.00000000000E+00  0.00000000000E+00  0.64925201239E+02  0.64925201239E+02  0.00000000000E+00 0.  1.
          1   -1    0    0  501    0  0.00000000000E+00 -0.00000000000E+00 -0.29128791560E+03  0.29128791560E+03  0.00000000000E+00 0.  1.
         36    2    1    2    0    0  0.00000000000E+00  0.00000000000E+00 -0.22636271436E+03  0.35621311684E+03  0.27504128082E+03 0.  0.
         25    2    3    3    0    0 -0.44122887249E+02 -0.13181877554E+02 -0.14864851184E+03  0.20181081331E+03  0.12849370888E+03 0.  0.
         25    2    3    3    0    0  0.44122887249E+02  0.13181877554E+02 -0.77714202517E+02  0.15440230353E+03  0.12521973881E+03 0.  0.
          5    1    4    4  502    0 -0.63455671265E+02 -0.38893133733E+02 -0.15181926914E+03  0.16914632290E+03  0.47000000000E+01 0. -1.
         -5    1    4    4    0  502  0.19332784016E+02  0.25711256179E+02  0.31707572964E+01  0.32664490414E+02  0.47000000000E+01 0. -1.
          5    1    5    5  503    0  0.15039583617E+02  0.36385893473E+02  0.23756695728E+02  0.46223294031E+02  0.47000000000E+01 0. -1.
         -5    1    5    5    0  503  0.29083303631E+02 -0.23204015918E+02 -0.10147089824E+03  0.10817900950E+03  0.47000000000E+01 0. -1.
<mgrwt>
<rscale>  0 0.27504128E+03</rscale>
<asrwt>0</asrwt>
<pdfrwt beam="1">  1        1 0.44813526E-01 0.27504128E+03</pdfrwt>
<pdfrwt beam="2">  1       -1 0.99884925E-02 0.27504128E+03</pdfrwt>
<totfact> 0.55175989E+03</totfact>
</mgrwt>
</event>
<event>
 9    1  0.2031653E-002  0.2802711E+03  0.7818608E-02  0.1095541E+00
         -1   -1    0    0    0  501 -0.00000000000E+00  0.00000000000E+00  0.65529848467E+03  0.65529848467E+03  0.00000000000E+00 0.  1.
          1   -1    0    0  501    0  0.00000000000E+00 -0.00000000000E+00 -0.29967973668E+02  0.29967973668E+02  0.00000000000E+00 0.  1.
         36    2    1    2    0    0  0.00000000000E+00  0.00000000000E+00  0.62533051100E+03  0.68526645833E+03  0.28027106688E+03 0.  0.
         25    2    3    3    0    0  0.45978015641E+02 -0.40272530683E+02  0.38065889380E+03  0.40510035661E+03  0.12437544308E+03 0.  0.
         25    2    3    3    0    0 -0.45978015641E+02  0.40272530683E+02  0.24467161720E+03  0.28016610173E+03  0.12203683725E+03 0.  0.
          5    1    4    4  502    0 -0.13004915390E+02 -0.68538661963E+02  0.23866354883E+03  0.24869470350E+03  0.47000000000E+01 0.  1.
         -5    1    4    4    0  502  0.58982931031E+02  0.28266131280E+02  0.14199534497E+03  0.15640565311E+03  0.47000000000E+01 0.  1.
          5    1    5    5  503    0  0.12369530651E+02  0.13785797760E+02  0.20230409304E+03  0.20320455105E+03  0.47000000000E+01 0.  1.
         -5    1    5    5    0  503 -0.58347546291E+02  0.26486732923E+02  0.42367524162E+02  0.76961550678E+02  0.47000000000E+01 0.  1.
<mgrwt>
<rscale>  0 0.28027107E+03</rscale>
<asrwt>0</asrwt>
<pdfrwt beam="1">  1        1 0.46104580E-02 0.28027107E+03</pdfrwt>
<pdfrwt beam="2">  1       -1 0.10081514E+00 0.28027107E+03</pdfrwt>
<totfact> 0.18441065E+03</totfact>
</mgrwt>
</event>
<event>
 9    1  0.2031653E-002  0.2748077E+03  0.7818608E-02  0.1098559E+00
         -2   -1    0    0    0  501 -0.00000000000E+00  0.00000000000E+00  0.47482067404E+02  0.47482067404E+02  0.00000000000E+00 0.  1.
          2   -1    0    0  501    0  0.00000000000E+00 -0.00000000000E+00 -0.39761994459E+03  0.39761994459E+03  0.00000000000E+00 0.  1.
         36    2    1    2    0    0 -0.71054273576E-14  0.00000000000E+00 -0.35013787718E+03  0.44510201199E+03  0.27480769283E+03 0.  0.
         25    2    3    3    0    0  0.23540807727E+02 -0.26926007887E+02 -0.10789757985E+03  0.16989346388E+03  0.12626449145E+03 0.  0.
         25    2    3    3    0    0 -0.23540807727E+02  0.26926007887E+02 -0.24224029733E+03  0.27520854811E+03  0.12561928106E+03 0.  0.
          5    1    4    4  502    0  0.43630951569E+02  0.35792496383E+02 -0.20208267867E+02  0.60126756293E+02  0.47000000000E+01 0. -1.
         -5    1    4    4    0  502 -0.20090143842E+02 -0.62718504271E+02 -0.87689311984E+02  0.10976670758E+03  0.47000000000E+01 0. -1.
          5    1    5    5  503    0 -0.80597818575E+01  0.23778636105E+02  0.61488044135E+01  0.26273207157E+02  0.47000000000E+01 0. -1.
         -5    1    5    5    0  503 -0.15481025869E+02  0.31473717821E+01 -0.24838910174E+03  0.24893534096E+03  0.47000000000E+01 0. -1.
<mgrwt>
<rscale>  0 0.27480769E+03</rscale>
<asrwt>0</asrwt>
<pdfrwt beam="1">  1        2 0.61172299E-01 0.27480769E+03</pdfrwt>
<pdfrwt beam="2">  1       -2 0.73049335E-02 0.27480769E+03</pdfrwt>
<totfact> 0.87026179E+03</totfact>
</mgrwt>
</event>
<event>
 9    1  0.2031653E-002  0.2753705E+03  0.7818608E-02  0.1098245E+00
         -2   -1    0    0    0  501 -0.00000000000E+00  0.00000000000E+00  0.26431929225E+02  0.26431929225E+02  0.00000000000E+00 0.  1.
          2   -1    0    0  501    0  0.00000000000E+00 -0.00000000000E+00 -0.71720947709E+03  0.71720947709E+03  0.00000000000E+00 0.  1.
         36    2    1    2    0    0  0.14210854715E-13  0.00000000000E+00 -0.69077754786E+03  0.74364140631E+03  0.27537051504E+03 0.  0.
         25    2    3    3    0    0  0.40355076998E+02 -0.12392889539E+01 -0.23123410564E+03  0.26514289939E+03  0.12329427161E+03 0.  0.
         25    2    3    3    0    0 -0.40355076998E+02  0.12392889539E+01 -0.45954344223E+03  0.47849850692E+03  0.12708492340E+03 0.  0.
          5    1    4    4  502    0 -0.39428970677E+02 -0.24298116572E+02 -0.82325648672E+02  0.94576131380E+02  0.47000000000E+01 0.  1.
         -5    1    4    4    0  502  0.79784047675E+02  0.23058827618E+02 -0.14890845696E+03  0.17056676801E+03  0.47000000000E+01 0.  1.
          5    1    5    5  503    0 -0.71989162937E+02  0.21764187836E+02 -0.16353566096E+03  0.18006143912E+03  0.47000000000E+01 0. -1.
         -5    1    5    5    0  503  0.31634085939E+02 -0.20524898882E+02 -0.29600778126E+03  0.29843706780E+03  0.47000000000E+01 0. -1.
<mgrwt>
<rscale>  0 0.27537052E+03</rscale>
<asrwt>0</asrwt>
<pdfrwt beam="1">  1        2 0.11033993E+00 0.27537052E+03</pdfrwt>
<pdfrwt beam="2">  1       -2 0.40664502E-02 0.27537052E+03</pdfrwt>
<totfact> 0.10870791E+04</totfact>
</mgrwt>
</event>
<event>
 9    1  0.2031653E-002  0.2751278E+03  0.7818608E-02  0.1098380E+00
         -2   -1    0    0    0  501 -0.00000000000E+00  0.00000000000E+00  0.43021571999E+03  0.43021571999E+03  0.00000000000E+00 0.  1.
          2   -1    0    0  501    0  0.00000000000E+00 -0.00000000000E+00 -0.43986840441E+02  0.43986840441E+02  0.00000000000E+00 0.  1.
         36    2    1    2    0    0  0.00000000000E+00 -0.71054273576E-14  0.38622887955E+03  0.47420256043E+03  0.27512782651E+03 0.  0.
         25    2    3    3    0    0  0.12988840592E+02  0.46918889530E+02  0.14266606044E+03  0.19572639295E+03  0.12484039379E+03 0.  0.
         25    2    3    3    0    0 -0.12988840592E+02 -0.46918889530E+02  0.24356281911E+03  0.27847616748E+03  0.12592075614E+03 0.  0.
          5    1    4    4  502    0  0.51422569844E+02  0.18105112360E+02  0.13651278709E+03  0.14707109445E+03  0.47000000000E+01 0.  1.
         -5    1    4    4    0  502 -0.38433729252E+02  0.28813777170E+02  0.61532733422E+01  0.48655298497E+02  0.47000000000E+01 0.  1.
          5    1    5    5  503    0 -0.53256879149E+02 -0.16863053939E+02  0.40301127240E+02  0.69042947661E+02  0.47000000000E+01 0.  1.
         -5    1    5    5    0  503  0.40268038558E+02 -0.30055835590E+02  0.20326169187E+03  0.20943321982E+03  0.47000000000E+01 0.  1.
<mgrwt>
<rscale>  0 0.27512783E+03</rscale>
<asrwt>0</asrwt>
<pdfrwt beam="1">  1        2 0.67672065E-02 0.27512783E+03</pdfrwt>
<pdfrwt beam="2">  1       -2 0.66187031E-01 0.27512783E+03</pdfrwt>
<totfact> 0.22643469E+03</totfact>
</mgrwt>
</event>
<event>
 9    1  0.2031653E-002  0.2754044E+03  0.7818608E-02  0.1098226E+00
          2   -1    0    0  501    0  0.00000000000E+00  0.00000000000E+00  0.55055387296E+03  0.55055387296E+03  0.00000000000E+00 0.  1.
         -2   -1    0    0    0  501 -0.00000000000E+00 -0.00000000000E+00 -0.34441500130E+02  0.34441500130E+02  0.00000000000E+00 0.  1.
         36    2    1    2    0    0 -0.35527136788E-14 -0.71054273576E-14  0.51611237283E+03  0.58499537309E+03  0.27540443923E+03 0.  0.
         25    2    3    3    0    0  0.51697381799E+01 -0.17676807914E+02  0.36850355268E+03  0.38960414657E+03  0.12512924102E+03 0.  0.
         25    2    3    3    0    0 -0.51697381799E+01  0.17676807914E+02  0.14760882015E+03  0.19539122652E+03  0.12668927296E+03 0.  0.
          5    1    4    4  502    0  0.28658612520E+01 -0.59528310874E+02  0.31907097228E+03  0.32462317894E+03  0.47000000000E+01 0. -1.
         -5    1    4    4    0  502  0.23038769279E+01  0.41851502961E+02  0.49432580401E+02  0.64980967629E+02  0.47000000000E+01 0. -1.
          5    1    5    5  503    0  0.32064226754E+02 -0.36732929899E+02  0.10735093576E+03  0.11799888214E+03  0.47000000000E+01 0. -1.
         -5    1    5    5    0  503 -0.37233964934E+02  0.54409737813E+02  0.40257884391E+02  0.77392344384E+02  0.47000000000E+01 0. -1.
<mgrwt>
<rscale>  0 0.27540444E+03</rscale>
<asrwt>0</asrwt>
<pdfrwt beam="1">  1        2 0.84700589E-01 0.27540444E+03</pdfrwt>
<pdfrwt beam="2">  1       -2 0.52986927E-02 0.27540444E+03</pdfrwt>
<totfact> 0.99401495E+03</totfact>
</mgrwt>
</event>
<event>
 9    1  0.2031653E-002  0.2750648E+03  0.7818608E-02  0.1098415E+00
         -3   -1    0    0    0  501 -0.00000000000E+00  0.00000000000E+00  0.12849917910E+03  0.12849917910E+03  0.00000000000E+00 0. -1.
          3   -1    0    0  501    0  0.00000000000E+00 -0.00000000000E+00 -0.14720068101E+03  0.14720068101E+03  0.00000000000E+00 0. -1.
         36    2    1    2    0    0  0.00000000000E+00  0.00000000000E+00 -0.18701501908E+02  0.27569986012E+03  0.27506484089E+03 0.  0.
         25    2    3    3    0    0  0.50619426230E+02  0.15535341099E+01  0.87913782981E+01  0.13422058475E+03  0.12398845615E+03 0.  0.
         25    2    3    3    0    0 -0.50619426230E+02 -0.15535341099E+01 -0.27492880206E+02  0.14147927537E+03  0.12921217867E+03 0.  0.
          5    1    4    4  502    0  0.79714291632E+02  0.14570221785E+02 -0.27488998636E+02  0.85699443984E+02  0.47000000000E+01 0.  1.
         -5    1    4    4    0  502 -0.29094865402E+02 -0.13016687675E+02  0.36280376935E+02  0.48521140767E+02  0.47000000000E+01 0.  1.
          5    1    5    5  503    0  0.31828542470E+02  0.49723423986E+01  0.27024162047E+02  0.42310467251E+02  0.47000000000E+01 0.  1.
         -5    1    5    5    0  503 -0.82447968700E+02 -0.65258765085E+01 -0.54517042253E+02  0.99168808115E+02  0.47000000000E+01 0.  1.
<mgrwt>
<rscale>  0 0.27506484E+03</rscale>
<asrwt>0</asrwt>
<pdfrwt beam="1">  1        3 0.22646259E-01 0.27506484E+03</pdfrwt>
<pdfrwt beam="2">  1       -3 0.19769105E-01 0.27506484E+03</pdfrwt>
<totfact> 0.10470875E+03</totfact>
</mgrwt>
</event>
<event>
 9    1  0.2031653E-002  0.2745458E+03  0.7818608E-02  0.1098706E+00
         -2   -1    0    0    0  501 -0.00000000000E+00  0.00000000000E+00  0.79609961844E+01  0.79609961844E+01  0.00000000000E+00 0.  1.
          2   -1    0    0  501    0  0.00000000000E+00 -0.00000000000E+00 -0.23670220304E+04  0.23670220304E+04  0.00000000000E+00 0.  1.
         36    2    1    2    0    0  0.00000000000E+00  0.00000000000E+00 -0.23590610342E+04  0.23749830265E+04  0.27454583116E+03 0.  0.
         25    2    3    3    0    0 -0.43145718302E+02 -0.20803356607E+02 -0.13917343853E+04  0.13985101622E+04  0.12888654636E+03 0.  0.
         25    2    3    3    0    0  0.43145718302E+02  0.20803356607E+02 -0.96732664885E+03  0.97647286434E+03  0.12443502950E+03 0.  0.
          5    1    4    4  502    0  0.39349809923E+02 -0.48936397123E+01 -0.77925964511E+03  0.78028202578E+03  0.47000000000E+01 0. -1.
         -5    1    4    4    0  502 -0.82495528225E+02 -0.15909716894E+02 -0.61247474021E+03  0.61822813642E+03  0.47000000000E+01 0. -1.
          5    1    5    5  503    0  0.45425714857E+02  0.89658778217E+01 -0.11516955999E+03  0.12421755143E+03  0.47000000000E+01 0.  1.
         -5    1    5    5    0  503 -0.22799965551E+01  0.11837478785E+02 -0.85215708886E+03  0.85225531291E+03  0.47000000000E+01 0.  1.
<mgrwt>
<rscale>  0 0.27454583E+03</rscale>
<asrwt>0</asrwt>
<pdfrwt beam="1">  1        2 0.36415735E+00 0.27454583E+03</pdfrwt>
<pdfrwt beam="2">  1       -2 0.12247683E-02 0.27454583E+03</pdfrwt>
<totfact> 0.75182789E+03</totfact>
</mgrwt>
</event>
<event>
 9    1  0.2031653E-002  0.2692854E+03  0.7818608E-02  0.1101689E+00
         -2   -1    0    0    0  501 -0.00000000000E+00  0.00000000000E+00  0.13338788239E+03  0.13338788239E+03  0.00000000000E+00 0.  1.
          2   -1    0    0  501    0  0.00000000000E+00 -0.00000000000E+00 -0.13590932736E+03  0.13590932736E+03  0.00000000000E+00 0.  1.
         36    2    1    2    0    0  0.00000000000E+00  0.35527136788E-14 -0.25214449606E+01  0.26929720975E+03  0.26928540528E+03 0.  0.
         25    2    3    3    0    0 -0.30183787745E+02  0.40560306892E+01  0.43011715224E+02  0.13189120764E+03  0.12090397255E+03 0.  0.
         25    2    3    3    0    0  0.30183787745E+02 -0.40560306892E+01 -0.45533160185E+02  0.13740600211E+03  0.12601439724E+03 0.  0.
          5    1    4    4  502    0 -0.72023909053E+01 -0.30690913361E+02  0.73460427677E+02  0.80077031864E+02  0.47000000000E+01 0.  1.
         -5    1    4    4    0  502 -0.22981396840E+02  0.34746944050E+02 -0.30448712453E+02  0.51814175778E+02  0.47000000000E+01 0.  1.
          5    1    5    5  503    0  0.60804438664E+02  0.39622032273E+02 -0.10662640609E+02  0.73504197890E+02  0.47000000000E+01 0. -1.
         -5    1    5    5    0  503 -0.30620650918E+02 -0.43678062962E+02 -0.34870519576E+02  0.63901804218E+02  0.47000000000E+01 0. -1.
<mgrwt>
<rscale>  0 0.26928541E+03</rscale>
<asrwt>0</asrwt>
<pdfrwt beam="1">  1        2 0.20909127E-01 0.26928541E+03</pdfrwt>
<pdfrwt beam="2">  1       -2 0.20521213E-01 0.26928541E+03</pdfrwt>
<totfact> 0.52601546E+03</totfact>
</mgrwt>
</event>
<event>
 9    1  0.2031653E-002  0.2744083E+03  0.7818608E-02  0.1098783E+00
         -3   -1    0    0    0  501 -0.00000000000E+00  0.00000000000E+00  0.15677958301E+02  0.15677958301E+02  0.00000000000E+00 0.  1.
          3   -1    0    0  501    0  0.00000000000E+00 -0.00000000000E+00 -0.12007287889E+04  0.12007287889E+04  0.00000000000E+00 0.  1.
         36    2    1    2    0    0  0.71054273576E-14 -0.14210854715E-13 -0.11850508306E+04  0.12164067472E+04  0.27440827891E+03 0.  0.
         25    2    3    3    0    0 -0.19413637104E+02  0.36970434982E+02 -0.43786721159E+03  0.45762164605E+03  0.12627815953E+03 0.  0.
         25    2    3    3    0    0  0.19413637104E+02 -0.36970434982E+02 -0.74718361900E+03  0.75878510115E+03  0.12541039373E+03 0.  0.
          5    1    4    4  502    0  0.22986196337E+02  0.73276882215E+02 -0.25919120398E+03  0.27037018495E+03  0.47000000000E+01 0.  1.
         -5    1    4    4    0  502 -0.42399833441E+02 -0.36306447233E+02 -0.17867600761E+03  0.18725146110E+03  0.47000000000E+01 0.  1.
          5    1    5    5  503    0 -0.49096713115E+02 -0.38555808448E+02 -0.40033768625E+03  0.40520290057E+03  0.47000000000E+01 0.  1.
         -5    1    5    5    0  503  0.68510350219E+02  0.15853734656E+01 -0.34684593275E+03  0.35358220058E+03  0.47000000000E+01 0.  1.
<mgrwt>
<rscale>  0 0.27440828E+03</rscale>
<asrwt>0</asrwt>
<pdfrwt beam="1">  1        3 0.18472751E+00 0.27440828E+03</pdfrwt>
<pdfrwt beam="2">  1       -3 0.24119935E-02 0.27440828E+03</pdfrwt>
<totfact> 0.36112662E+02</totfact>
</mgrwt>
</event>
<event>
 9    1  0.2031653E-002  0.2730768E+03  0.7818608E-02  0.1099531E+00
         -3   -1    0    0    0  501 -0.00000000000E+00  0.00000000000E+00  0.11082093277E+03  0.11082093277E+03  0.00000000000E+00 0. -1.
          3   -1    0    0  501    0  0.00000000000E+00 -0.00000000000E+00 -0.16822395141E+03  0.16822395141E+03  0.00000000000E+00 0. -1.
         36    2    1    2    0    0  0.53290705182E-14  0.00000000000E+00 -0.57403018634E+02  0.27904488418E+03  0.27307680392E+03 0.  0.
         25    2    3    3    0    0 -0.10967012695E+02 -0.27093203076E+02 -0.48924242331E+02  0.13904810476E+03  0.12683247585E+03 0.  0.
         25    2    3    3    0    0  0.10967012695E+02  0.27093203076E+02 -0.84787763031E+01  0.13999677942E+03  0.13664878916E+03 0.  0.
          5    1    4    4  502    0 -0.55953716611E+02 -0.48787934488E+02 -0.48650317344E+02  0.88882081050E+02  0.47000000000E+01 0. -1.
         -5    1    4    4    0  502  0.44986703916E+02  0.21694731412E+02 -0.27392498737E+00  0.50166023713E+02  0.47000000000E+01 0. -1.
          5    1    5    5  503    0 -0.13544514585E+02 -0.53100951325E+02 -0.10446604001E+02  0.55985591380E+02  0.47000000000E+01 0.  1.
         -5    1    5    5    0  503  0.24511527281E+02  0.80194154401E+02  0.19678276980E+01  0.84011188038E+02  0.47000000000E+01 0.  1.
<mgrwt>
<rscale>  0 0.27307680E+03</rscale>
<asrwt>0</asrwt>
<pdfrwt beam="1">  1        3 0.25880608E-01 0.27307680E+03</pdfrwt>
<pdfrwt beam="2">  1       -3 0.17049374E-01 0.27307680E+03</pdfrwt>
<totfact> 0.10654691E+03</totfact>
</mgrwt>
</event>
<event>
 9    1  0.2031653E-002  0.2747310E+03  0.7818608E-02  0.1098602E+00
          1   -1    0    0  501    0  0.00000000000E+00  0.00000000000E+00  0.14935400583E+02  0.14935400583E+02  0.00000000000E+00 0. -1.
         -1   -1    0    0    0  501 -0.00000000000E+00 -0.00000000000E+00 -0.12633928349E+04  0.12633928349E+04  0.00000000000E+00 0. -1.
         36    2    1    2    0    0 -0.71054273576E-14 -0.14210854715E-13 -0.12484574344E+04  0.12783282355E+04  0.27473098175E+03 0.  0.
         25    2    3    3    0    0 -0.40634681453E+02 -0.49469483873E+02 -0.66925637817E+03  0.68322111834E+03  0.12160834531E+03 0.  0.
         25    2    3    3    0    0  0.40634681453E+02  0.49469483873E+02 -0.57920105619E+03  0.59510711719E+03  0.12074854146E+03 0.  0.
          5    1    4    4  502    0 -0.63373147465E+02 -0.74164719811E+02 -0.57074716543E+03  0.57904315758E+03  0.47000000000E+01 0.  1.
         -5    1    4    4    0  502  0.22738466013E+02  0.24695235938E+02 -0.98509212739E+02  0.10417796076E+03  0.47000000000E+01 0.  1.
          5    1    5    5  503    0  0.64476411048E+02  0.64951556477E+02 -0.28208665007E+03  0.29659885437E+03  0.47000000000E+01 0. -1.
         -5    1    5    5    0  503 -0.23841729596E+02 -0.15482072604E+02 -0.29711440612E+03  0.29850826281E+03  0.47000000000E+01 0. -1.
<mgrwt>
<rscale>  0 0.27473098E+03</rscale>
<asrwt>0</asrwt>
<pdfrwt beam="1">  1        1 0.22977542E-02 0.27473098E+03</pdfrwt>
<pdfrwt beam="2">  1       -1 0.19436810E+00 0.27473098E+03</pdfrwt>
<totfact> 0.90536329E+02</totfact>
</mgrwt>
</event>
<event>
 9    1  0.2031653E-002  0.2772975E+03  0.7818608E-02  0.1097174E+00
          1   -1    0    0  501    0  0.00000000000E+00  0.00000000000E+00  0.21777488515E+04  0.21777488515E+04  0.00000000000E+00 0.  1.
         -1   -1    0    0    0  501 -0.00000000000E+00 -0.00000000000E+00 -0.88272232105E+01  0.88272232105E+01  0.00000000000E+00 0.  1.
         36    2    1    2    0    0  0.71054273576E-14  0.35527136788E-14  0.21689216282E+04  0.21865760747E+04  0.27729749518E+03 0.  0.
         25    2    3    3    0    0 -0.89188552291E+01  0.19466637002E+02  0.65192390315E+03  0.66367562849E+03  0.12248293114E+03 0.  0.
         25    2    3    3    0    0  0.89188552291E+01 -0.19466637002E+02  0.15169977251E+04  0.15229004462E+04  0.13223152075E+03 0.  0.
          5    1    4    4  502    0  0.50991511403E+02  0.16448271856E+02  0.17802760362E+03  0.18597472283E+03  0.47000000000E+01 0.  1.
         -5    1    4    4    0  502 -0.59910366633E+02  0.30183651460E+01  0.47389629953E+03  0.47770090566E+03  0.47000000000E+01 0.  1.
          5    1    5    5  503    0 -0.60292003515E+02 -0.21422511045E+02  0.78759601761E+03  0.79020480043E+03  0.47000000000E+01 0. -1.
         -5    1    5    5    0  503  0.69210858744E+02  0.19558740433E+01  0.72940170748E+03  0.73269564574E+03  0.47000000000E+01 0. -1.
<mgrwt>
<rscale>  0 0.27729750E+03</rscale>
<asrwt>0</asrwt>
<pdfrwt beam="1">  1        1 0.33503786E+00 0.27729750E+03</pdfrwt>
<pdfrwt beam="2">  1       -1 0.13580361E-02 0.27729750E+03</pdfrwt>
<totfact> 0.31177345E+03</totfact>
</mgrwt>
</event>
<event>
 9    1  0.2031653E-002  0.2750388E+03  0.7818608E-02  0.1098430E+00
          2   -1    0    0  501    0  0.00000000000E+00  0.00000000000E+00  0.33960150316E+03  0.33960150316E+03  0.00000000000E+00 0. -1.
         -2   -1    0    0    0  501 -0.00000000000E+00 -0.00000000000E+00 -0.55687559244E+02  0.55687559244E+02  0.00000000000E+00 0. -1.
         36    2    1    2    0    0  0.00000000000E+00  0.00000000000E+00  0.28391394392E+03  0.39528906241E+03  0.27503875237E+03 0.  0.
         25    2    3    3    0    0  0.14519585298E+02  0.58685218902E+02  0.14282863989E+03  0.19859277840E+03  0.12403345512E+03 0.  0.
         25    2    3    3    0    0 -0.14519585298E+02 -0.58685218902E+02  0.14108530403E+03  0.19669628400E+03  0.12300240588E+03 0.  0.
          5    1    4    4  502    0 -0.69675923126E+01  0.54143367318E+02  0.79825097002E+00  0.54797616479E+02  0.47000000000E+01 0. -1.
         -5    1    4    4    0  502  0.21487177610E+02  0.45418515840E+01  0.14203038892E+03  0.14379516193E+03  0.47000000000E+01 0. -1.
          5    1    5    5  503    0  0.43531209657E+02 -0.40950570742E+02  0.11653588340E+03  0.13105196518E+03  0.47000000000E+01 0.  1.
         -5    1    5    5    0  503 -0.58050794954E+02 -0.17734648160E+02  0.24549420635E+02  0.65644318823E+02  0.47000000000E+01 0.  1.
<mgrwt>
<rscale>  0 0.27503875E+03</rscale>
<asrwt>0</asrwt>
<pdfrwt beam="1">  1        2 0.52246384E-01 0.27503875E+03</pdfrwt>
<pdfrwt beam="2">  1       -2 0.85673170E-02 0.27503875E+03</pdfrwt>
<totfact> 0.80478707E+03</totfact>
</mgrwt>
</event>
<event>
 9    1  0.2031653E-002  0.2736752E+03  0.7818608E-02  0.1099194E+00
         -2   -1    0    0    0  501 -0.00000000000E+00  0.00000000000E+00  0.58047938862E+01  0.58047938862E+01  0.00000000000E+00 0. -1.
          2   -1    0    0  501    0  0.00000000000E+00 -0.00000000000E+00 -0.32257016552E+04  0.32257016552E+04  0.00000000000E+00 0. -1.
         36    2    1    2    0    0  0.71054273576E-14 -0.71054273576E-14 -0.32198968614E+04  0.32315064491E+04  0.27367523269E+03 0.  0.
         25    2    3    3    0    0 -0.30696703730E+02  0.38144900866E+02 -0.19223484314E+04  0.19268679834E+04  0.12247208963E+03 0.  0.
         25    2    3    3    0    0  0.30696703730E+02 -0.38144900866E+02 -0.12975484300E+04  0.13046384658E+04  0.12669758105E+03 0.  0.
          5    1    4    4  502    0 -0.45045418896E+02  0.61623020287E+02 -0.17887714505E+04  0.17904055067E+04  0.47000000000E+01 0.  1.
         -5    1    4    4    0  502  0.14348715167E+02 -0.23478119421E+02 -0.13357698085E+03  0.13646247665E+03  0.47000000000E+01 0.  1.
          5    1    5    5  503    0 -0.44730232053E+02 -0.35949860964E+02 -0.69133908509E+03  0.69373266230E+03  0.47000000000E+01 0.  1.
         -5    1    5    5    0  503  0.75426935782E+02 -0.21950399015E+01 -0.60620934491E+03  0.61090580345E+03  0.47000000000E+01 0.  1.
<mgrwt>
<rscale>  0 0.27367523E+03</rscale>
<asrwt>0</asrwt>
<pdfrwt beam="1">  1        2 0.49626252E+00 0.27367523E+03</pdfrwt>
<pdfrwt beam="2">  1       -2 0.89304391E-03 0.27367523E+03</pdfrwt>
<totfact> 0.38205922E+03</totfact>
</mgrwt>
</event>
<event>
 9    1  0.2031653E-002  0.2752214E+03  0.7818608E-02  0.1098328E+00
          1   -1    0    0  501    0  0.00000000000E+00  0.00000000000E+00  0.38237882095E+03  0.38237882095E+03  0.00000000000E+00 0. -1.
         -1   -1    0    0    0  501 -0.00000000000E+00 -0.00000000000E+00 -0.49523421867E+02  0.49523421867E+02  0.00000000000E+00 0. -1.
         36    2    1    2    0    0  0.00000000000E+00  0.00000000000E+00  0.33285539908E+03  0.43190224282E+03  0.27522142114E+03 0.  0.
         25    2    3    3    0    0  0.31016510885E+02 -0.16346232703E+02  0.99790020469E+02  0.16295275927E+03  0.12396100313E+03 0.  0.
         25    2    3    3    0    0 -0.31016510885E+02  0.16346232703E+02  0.23306537861E+03  0.26894948355E+03  0.12955744179E+03 0.  0.
          5    1    4    4  502    0  0.16232968012E+02  0.34675040075E+02 -0.10901781734E+02  0.40084990952E+02  0.47000000000E+01 0. -1.
         -5    1    4    4    0  502  0.14783542873E+02 -0.51021272778E+02  0.11069180220E+03  0.12286776831E+03  0.47000000000E+01 0. -1.
          5    1    5    5  503    0 -0.39770848354E+02  0.96931126847E+01  0.24709975252E+03  0.25051158558E+03  0.47000000000E+01 0. -1.
         -5    1    5    5    0  503  0.87543374695E+01  0.66531200182E+01 -0.14034373910E+02  0.18437897970E+02  0.47000000000E+01 0. -1.
<mgrwt>
<rscale>  0 0.27522142E+03</rscale>
<asrwt>0</asrwt>
<pdfrwt beam="1">  1        1 0.58827509E-01 0.27522142E+03</pdfrwt>
<pdfrwt beam="2">  1       -1 0.76189882E-02 0.27522142E+03</pdfrwt>
<totfact> 0.59252456E+03</totfact>
</mgrwt>
</event>
<event>
 9    1  0.2031653E-002  0.2758350E+03  0.7818608E-02  0.1097986E+00
         -1   -1    0    0    0  501 -0.00000000000E+00  0.00000000000E+00  0.29707467149E+03  0.29707467149E+03  0.00000000000E+00 0. -1.
          1   -1    0    0  501    0  0.00000000000E+00 -0.00000000000E+00 -0.64028490928E+02  0.64028490928E+02  0.00000000000E+00 0. -1.
         36    2    1    2    0    0  0.00000000000E+00  0.00000000000E+00  0.23304618056E+03  0.36110316242E+03  0.27583504424E+03 0.  0.
         25    2    3    3    0    0 -0.87960564303E+01 -0.93319628339E+01  0.32774024881E+02  0.13090865074E+03  0.12608918270E+03 0.  0.
         25    2    3    3    0    0  0.87960564303E+01  0.93319628339E+01  0.20027215568E+03  0.23019451167E+03  0.11276577816E+03 0.  0.
          5    1    4    4  502    0  0.41809294882E+02  0.96334821476E+01 -0.26429722764E+02  0.50610684269E+02  0.47000000000E+01 0. -1.
         -5    1    4    4    0  502 -0.50605351312E+02 -0.18965444981E+02  0.59203747644E+02  0.80297966474E+02  0.47000000000E+01 0. -1.
          5    1    5    5  503    0  0.19442751737E+02 -0.47899798783E+02  0.67551812899E+02  0.85192421872E+02  0.47000000000E+01 0.  1.
         -5    1    5    5    0  503 -0.10646695307E+02  0.57231761616E+02  0.13272034278E+03  0.14500208980E+03  0.47000000000E+01 0.  1.
<mgrwt>
<rscale>  0 0.27583504E+03</rscale>
<asrwt>0</asrwt>
<pdfrwt beam="1">  1        1 0.98505372E-02 0.27583504E+03</pdfrwt>
<pdfrwt beam="2">  1       -1 0.45703795E-01 0.27583504E+03</pdfrwt>
<totfact> 0.31633629E+03</totfact>
</mgrwt>
</event>
<event>
 9    1  0.2031653E-002  0.2745269E+03  0.7818608E-02  0.1098716E+00
         -2   -1    0    0    0  501 -0.00000000000E+00  0.00000000000E+00  0.34150018562E+02  0.34150018562E+02  0.00000000000E+00 0. -1.
          2   -1    0    0  501    0  0.00000000000E+00 -0.00000000000E+00 -0.55172037529E+03  0.55172037529E+03  0.00000000000E+00 0. -1.
         36    2    1    2    0    0  0.00000000000E+00  0.00000000000E+00 -0.51757035673E+03  0.58587039385E+03  0.27452694627E+03 0.  0.
         25    2    3    3    0    0 -0.53858026489E+02  0.12036346240E+02 -0.33767468382E+03  0.36420828653E+03  0.12481155088E+03 0.  0.
         25    2    3    3    0    0  0.53858026489E+02 -0.12036346240E+02 -0.17989567291E+03  0.22166210733E+03  0.11715833750E+03 0.  0.
          5    1    4    4  502    0 -0.48089734242E+02  0.64916695759E+02 -0.17088223138E+03  0.18907571745E+03  0.47000000000E+01 0. -1.
         -5    1    4    4    0  502 -0.57682922476E+01 -0.52880349518E+02 -0.16679245244E+03  0.17513256908E+03  0.47000000000E+01 0. -1.
          5    1    5    5  503    0 -0.15523738210E+02  0.31501795443E+02 -0.10409704741E+03  0.10996196999E+03  0.47000000000E+01 0. -1.
         -5    1    5    5    0  503  0.69381764699E+02 -0.43538141683E+02 -0.75798625499E+02  0.11170013734E+03  0.47000000000E+01 0. -1.
<mgrwt>
<rscale>  0 0.27452695E+03</rscale>
<asrwt>0</asrwt>
<pdfrwt beam="1">  1        2 0.84880064E-01 0.27452695E+03</pdfrwt>
<pdfrwt beam="2">  1       -2 0.52538486E-02 0.27452695E+03</pdfrwt>
<totfact> 0.10044239E+04</totfact>
</mgrwt>
</event>
<event>
 9    1  0.2031653E-002  0.2758691E+03  0.7818608E-02  0.1097967E+00
         -3   -1    0    0    0  501 -0.00000000000E+00  0.00000000000E+00  0.34308010272E+02  0.34308010272E+02  0.00000000000E+00 0.  1.
          3   -1    0    0  501    0  0.00000000000E+00 -0.00000000000E+00 -0.55456268394E+03  0.55456268394E+03  0.00000000000E+00 0.  1.
         36    2    1    2    0    0  0.00000000000E+00 -0.71054273576E-14 -0.52025467367E+03  0.58887069422E+03  0.27586911576E+03 0.  0.
         25    2    3    3    0    0 -0.19653767360E+01 -0.50443377555E+02 -0.24608102901E+03  0.28277420493E+03  0.12983443724E+03 0.  0.
         25    2    3    3    0    0  0.19653767360E+01  0.50443377555E+02 -0.27417364467E+03  0.30609648928E+03  0.12639413071E+03 0.  0.
          5    1    4    4  502    0  0.41935723689E+02 -0.52913235333E+02 -0.56678006903E+02  0.88277414219E+02  0.47000000000E+01 0.  1.
         -5    1    4    4    0  502 -0.43901100425E+02  0.24698577779E+01 -0.18940302210E+03  0.19449679071E+03  0.47000000000E+01 0.  1.
          5    1    5    5  503    0 -0.20562071480E+02 -0.13351547052E+02 -0.13822261311E+01  0.25001262794E+02  0.47000000000E+01 0.  1.
         -5    1    5    5    0  503  0.22527448216E+02  0.63794924607E+02 -0.27279141853E+03  0.28109522649E+03  0.47000000000E+01 0.  1.
<mgrwt>
<rscale>  0 0.27586912E+03</rscale>
<asrwt>0</asrwt>
<pdfrwt beam="1">  1        3 0.85317337E-01 0.27586912E+03</pdfrwt>
<pdfrwt beam="2">  1       -3 0.52781553E-02 0.27586912E+03</pdfrwt>
<totfact> 0.68824122E+02</totfact>
</mgrwt>
</event>
<event>
 9    1  0.2031653E-002  0.2757864E+03  0.7818608E-02  0.1098013E+00
         -1   -1    0    0    0  501 -0.00000000000E+00  0.00000000000E+00  0.93334930515E+02  0.93334930515E+02  0.00000000000E+00 0. -1.
          1   -1    0    0  501    0  0.00000000000E+00 -0.00000000000E+00 -0.20372371227E+03  0.20372371227E+03  0.00000000000E+00 0. -1.
         36    2    1    2    0    0  0.00000000000E+00  0.00000000000E+00 -0.11038878176E+03  0.29705864279E+03  0.27578642845E+03 0.  0.
         25    2    3    3    0    0  0.36400389908E+02  0.33176574112E+02 -0.30036932211E+02  0.14235783251E+03  0.13014554055E+03 0.  0.
         25    2    3    3    0    0 -0.36400389908E+02 -0.33176574112E+02 -0.80351849547E+02  0.15470081028E+03  0.12267945028E+03 0.  0.
          5    1    4    4  502    0  0.61249165821E+02 -0.28383395416E+02  0.36455605668E+01  0.67767673422E+02  0.47000000000E+01 0.  1.
         -5    1    4    4    0  502 -0.24848775913E+02  0.61559969528E+02 -0.33682492778E+02  0.74590159086E+02  0.47000000000E+01 0.  1.
          5    1    5    5  503    0 -0.41610427345E+02 -0.10170040429E+02  0.22820449388E+02  0.48761873389E+02  0.47000000000E+01 0. -1.
         -5    1    5    5    0  503  0.52100374362E+01 -0.23006533683E+02 -0.10317229894E+03  0.10593893689E+03  0.47000000000E+01 0. -1.
<mgrwt>
<rscale>  0 0.27578643E+03</rscale>
<asrwt>0</asrwt>
<pdfrwt beam="1">  1        1 0.31342110E-01 0.27578643E+03</pdfrwt>
<pdfrwt beam="2">  1       -1 0.14359220E-01 0.27578643E+03</pdfrwt>
<totfact> 0.49041597E+03</totfact>
</mgrwt>
</event>
<event>
 9    1  0.2031653E-002  0.2749623E+03  0.7818608E-02  0.1098473E+00
          4   -1    0    0  501    0  0.00000000000E+00  0.00000000000E+00  0.19111384616E+03  0.19111384616E+03  0.00000000000E+00 0. -1.
         -4   -1    0    0    0  501 -0.00000000000E+00 -0.00000000000E+00 -0.98899543479E+02  0.98899543479E+02  0.00000000000E+00 0. -1.
         36    2    1    2    0    0 -0.14210854715E-13  0.00000000000E+00  0.92214302684E+02  0.29001338964E+03  0.27496234024E+03 0.  0.
         25    2    3    3    0    0 -0.52278297609E+02 -0.81932357207E+01  0.70005750247E+02  0.15258877953E+03  0.12482940783E+03 0.  0.
         25    2    3    3    0    0  0.52278297609E+02  0.81932357207E+01  0.22208552436E+02  0.13742461011E+03  0.12486854748E+03 0.  0.
          5    1    4    4  502    0  0.23630210604E+02  0.38023343790E+02  0.34741335636E+02  0.56861339483E+02  0.47000000000E+01 0. -1.
         -5    1    4    4    0  502 -0.75908508213E+02 -0.46216579510E+02  0.35264414612E+02  0.95727440051E+02  0.47000000000E+01 0. -1.
          5    1    5    5  503    0  0.22371590725E+02 -0.56449146459E+02  0.25368223618E+02  0.65974472162E+02  0.47000000000E+01 0. -1.
         -5    1    5    5    0  503  0.29906706884E+02  0.64642382180E+02 -0.31596711817E+01  0.71450137946E+02  0.47000000000E+01 0. -1.
<mgrwt>
<rscale>  0 0.27496234E+03</rscale>
<asrwt>0</asrwt>
<pdfrwt beam="1">  1        4 0.29402130E-01 0.27496234E+03</pdfrwt>
<pdfrwt beam="2">  1       -4 0.15215314E-01 0.27496234E+03</pdfrwt>
<totfact> 0.76152787E+02</totfact>
</mgrwt>
</event>
<event>
 9    1  0.2031653E-002  0.2752983E+03  0.7818608E-02  0.1098285E+00
         -2   -1    0    0    0  501 -0.00000000000E+00  0.00000000000E+00  0.63329713091E+01  0.63329713091E+01  0.00000000000E+00 0. -1.
          2   -1    0    0  501    0  0.00000000000E+00 -0.00000000000E+00 -0.29918485497E+04  0.29918485497E+04  0.00000000000E+00 0. -1.
         36    2    1    2    0    0 -0.35527136788E-14  0.00000000000E+00 -0.29855155783E+04  0.29981815210E+04  0.27529831838E+03 0.  0.
         25    2    3    3    0    0  0.35412264356E+01  0.15126487697E+02 -0.13882418518E+04  0.13950616264E+04  0.13689467307E+03 0.  0.
         25    2    3    3    0    0 -0.35412264356E+01 -0.15126487697E+02 -0.15972737266E+04  0.16031198945E+04  0.13589955057E+03 0.  0.
          5    1    4    4  502    0 -0.52199172994E+02 -0.32131917455E+02 -0.78209370499E+03  0.78450612947E+03  0.47000000000E+01 0.  1.
         -5    1    4    4    0  502  0.55740399430E+02  0.47258405152E+02 -0.60614814680E+03  0.61055549695E+03  0.47000000000E+01 0.  1.
          5    1    5    5  503    0  0.98256527374E+01 -0.72976861620E+02 -0.70195935157E+03  0.70582659842E+03  0.47000000000E+01 0. -1.
         -5    1    5    5    0  503 -0.13366879173E+02  0.57850373923E+02 -0.89531437498E+03  0.89729329612E+03  0.47000000000E+01 0. -1.
<mgrwt>
<rscale>  0 0.27529832E+03</rscale>
<asrwt>0</asrwt>
<pdfrwt beam="1">  1        2 0.46028551E+00 0.27529832E+03</pdfrwt>
<pdfrwt beam="2">  1       -2 0.97430091E-03 0.27529832E+03</pdfrwt>
<totfact> 0.46651956E+03</totfact>
</mgrwt>
</event>
<event>
 9    1  0.2031653E-002  0.2746885E+03  0.7818608E-02  0.1098626E+00
          2   -1    0    0  501    0  0.00000000000E+00  0.00000000000E+00  0.49476119136E+03  0.49476119136E+03  0.00000000000E+00 0.  1.
         -2   -1    0    0    0  501 -0.00000000000E+00 -0.00000000000E+00 -0.38126350441E+02  0.38126350441E+02  0.00000000000E+00 0.  1.
         36    2    1    2    0    0  0.14210854715E-13  0.00000000000E+00  0.45663484092E+03  0.53288754180E+03  0.27468846766E+03 0.  0.
         25    2    3    3    0    0 -0.39396231542E+02  0.31000838822E+01  0.29470059702E+03  0.32237195576E+03  0.12455345196E+03 0.  0.
         25    2    3    3    0    0  0.39396231542E+02 -0.31000838822E+01  0.16193424390E+03  0.21051558604E+03  0.12857853258E+03 0.  0.
          5    1    4    4  502    0 -0.40525858319E+02 -0.21842867885E+02  0.29329787778E+03  0.29692623862E+03  0.47000000000E+01 0.  1.
         -5    1    4    4    0  502  0.11296267772E+01  0.24942951767E+02  0.14027192420E+01  0.25445717141E+02  0.47000000000E+01 0.  1.
          5    1    5    5  503    0  0.54575724989E+02  0.23016972877E+02  0.16167267006E+02  0.61577279259E+02  0.47000000000E+01 0.  1.
         -5    1    5    5    0  503 -0.15179493447E+02 -0.26117056759E+02  0.14576697689E+03  0.14893830679E+03  0.47000000000E+01 0.  1.
<mgrwt>
<rscale>  0 0.27468847E+03</rscale>
<asrwt>0</asrwt>
<pdfrwt beam="1">  1        2 0.76117102E-01 0.27468847E+03</pdfrwt>
<pdfrwt beam="2">  1       -2 0.58655927E-02 0.27468847E+03</pdfrwt>
<totfact> 0.95988383E+03</totfact>
</mgrwt>
</event>
<event>
 9    1  0.2031653E-002  0.2747599E+03  0.7818608E-02  0.1098586E+00
          2   -1    0    0  501    0  0.00000000000E+00  0.00000000000E+00  0.39391423357E+03  0.39391423357E+03  0.00000000000E+00 0.  1.
         -2   -1    0    0    0  501 -0.00000000000E+00 -0.00000000000E+00 -0.47912080219E+02  0.47912080219E+02  0.00000000000E+00 0.  1.
         36    2    1    2    0    0  0.00000000000E+00  0.00000000000E+00  0.34600215335E+03  0.44182631379E+03  0.27475989779E+03 0.  0.
         25    2    3    3    0    0  0.25110617157E+02 -0.44276880134E+02  0.14673112101E+03  0.20073846771E+03  0.12718067990E+03 0.  0.
         25    2    3    3    0    0 -0.25110617157E+02  0.44276880134E+02  0.19927103235E+03  0.24108784608E+03  0.12579117610E+03 0.  0.
          5    1    4    4  502    0  0.69756537406E+02 -0.56377544601E+02  0.10592711162E+03  0.13887780608E+03  0.47000000000E+01 0. -1.
         -5    1    4    4    0  502 -0.44645920249E+02  0.12100664466E+02  0.40804009388E+02  0.61860661632E+02  0.47000000000E+01 0. -1.
          5    1    5    5  503    0 -0.43145271934E+02 -0.23185444594E+02  0.29293639384E+02  0.57265056008E+02  0.47000000000E+01 0.  1.
         -5    1    5    5    0  503  0.18034654776E+02  0.67462324729E+02  0.16997739296E+03  0.18382279007E+03  0.47000000000E+01 0.  1.
<mgrwt>
<rscale>  0 0.27475990E+03</rscale>
<asrwt>0</asrwt>
<pdfrwt beam="1">  1        2 0.60602188E-01 0.27475990E+03</pdfrwt>
<pdfrwt beam="2">  1       -2 0.73710895E-02 0.27475990E+03</pdfrwt>
<totfact> 0.86692493E+03</totfact>
</mgrwt>
</event>
<event>
 9    1  0.2031653E-002  0.2758493E+03  0.7818608E-02  0.1097978E+00
         -1   -1    0    0    0  501 -0.00000000000E+00  0.00000000000E+00  0.21379835282E+03  0.21379835282E+03  0.00000000000E+00 0.  1.
          1   -1    0    0  501    0  0.00000000000E+00 -0.00000000000E+00 -0.88977324532E+02  0.88977324532E+02  0.00000000000E+00 0.  1.
         36    2    1    2    0    0  0.00000000000E+00  0.00000000000E+00  0.12482102829E+03  0.30277567735E+03  0.27584927351E+03 0.  0.
         25    2    3    3    0    0 -0.37952665529E+02  0.42549799099E+02  0.47778633797E+02  0.14551807445E+03  0.12506726958E+03 0.  0.
         25    2    3    3    0    0  0.37952665529E+02 -0.42549799099E+02  0.77042394493E+02  0.15725760291E+03  0.12467370572E+03 0.  0.
          5    1    4    4  502    0  0.44906260176E+01 -0.40581045086E+01  0.75933335040E+02  0.76319036318E+02  0.47000000000E+01 0. -1.
         -5    1    4    4    0  502 -0.42443291546E+02  0.46607903608E+02 -0.28154701242E+02  0.69199038129E+02  0.47000000000E+01 0. -1.
          5    1    5    5  503    0 -0.34728509149E+02  0.18479332499E+02  0.36773665730E+02  0.54055042027E+02  0.47000000000E+01 0.  1.
         -5    1    5    5    0  503  0.72681174678E+02 -0.61029131598E+02  0.40268728763E+02  0.10320256088E+03  0.47000000000E+01 0.  1.
<mgrwt>
<rscale>  0 0.27584927E+03</rscale>
<asrwt>0</asrwt>
<pdfrwt beam="1">  1        1 0.13688819E-01 0.27584927E+03</pdfrwt>
<pdfrwt beam="2">  1       -1 0.32892054E-01 0.27584927E+03</pdfrwt>
<totfact> 0.36491432E+03</totfact>
</mgrwt>
</event>
<event>
 9    1  0.2031653E-002  0.2749418E+03  0.7818608E-02  0.1098484E+00
         -3   -1    0    0    0  501 -0.00000000000E+00  0.00000000000E+00  0.35616591011E+03  0.35616591011E+03  0.00000000000E+00 0. -1.
          3   -1    0    0  501    0  0.00000000000E+00 -0.00000000000E+00 -0.53060238578E+02  0.53060238578E+02  0.00000000000E+00 0. -1.
         36    2    1    2    0    0 -0.71054273576E-14  0.00000000000E+00  0.30310567153E+03  0.40922614869E+03  0.27494179867E+03 0.  0.
         25    2    3    3    0    0  0.40053148825E+02  0.32925995866E+02  0.19860026829E+03  0.24044968509E+03  0.12524219960E+03 0.  0.
         25    2    3    3    0    0 -0.40053148825E+02 -0.32925995866E+02  0.10450540324E+03  0.16877646360E+03  0.12196614048E+03 0.  0.
          5    1    4    4  502    0  0.21471913503E+02  0.50428637937E+02  0.20619397240E+03  0.21340603283E+03  0.47000000000E+01 0.  1.
         -5    1    4    4    0  502  0.18581235322E+02 -0.17502642070E+02 -0.75937041101E+01  0.27043652262E+02  0.47000000000E+01 0.  1.
          5    1    5    5  503    0 -0.51332967245E+02 -0.38980279032E+02  0.12649476402E+01  0.64639196871E+02  0.47000000000E+01 0.  1.
         -5    1    5    5    0  503  0.11279818420E+02  0.60542831660E+01  0.10324045560E+03  0.10413726673E+03  0.47000000000E+01 0.  1.
<mgrwt>
<rscale>  0 0.27494180E+03</rscale>
<asrwt>0</asrwt>
<pdfrwt beam="1">  1        3 0.81631139E-02 0.27494180E+03</pdfrwt>
<pdfrwt beam="2">  1       -3 0.54794754E-01 0.27494180E+03</pdfrwt>
<totfact> 0.87040439E+02</totfact>
</mgrwt>
</event>
<event>
 9    1  0.2031653E-002  0.2751249E+03  0.7818608E-02  0.1098382E+00
          2   -1    0    0  501    0  0.00000000000E+00  0.00000000000E+00  0.71277020604E+03  0.71277020604E+03  0.00000000000E+00 0. -1.
         -2   -1    0    0    0  501 -0.00000000000E+00 -0.00000000000E+00 -0.26549121475E+02  0.26549121475E+02  0.00000000000E+00 0. -1.
         36    2    1    2    0    0  0.00000000000E+00  0.00000000000E+00  0.68622108456E+03  0.73931932751E+03  0.27512486463E+03 0.  0.
         25    2    3    3    0    0  0.32296247834E+02  0.12461041661E+02  0.30378309848E+03  0.33122605597E+03  0.12738996839E+03 0.  0.
         25    2    3    3    0    0 -0.32296247834E+02 -0.12461041661E+02  0.38243798608E+03  0.40809327155E+03  0.13814115932E+03 0.  0.
          5    1    4    4  502    0  0.80662863734E+02  0.15048277120E+02  0.16896467019E+03  0.18789384770E+03  0.47000000000E+01 0.  1.
         -5    1    4    4    0  502 -0.48366615900E+02 -0.25872354592E+01  0.13481842828E+03  0.14333220826E+03  0.47000000000E+01 0.  1.
          5    1    5    5  503    0  0.39312710543E+02 -0.10418676604E+01  0.34120948508E+02  0.52277182647E+02  0.47000000000E+01 0.  1.
         -5    1    5    5    0  503 -0.71608958377E+02 -0.11419174000E+02  0.34831703758E+03  0.35581608890E+03  0.47000000000E+01 0.  1.
<mgrwt>
<rscale>  0 0.27512486E+03</rscale>
<asrwt>0</asrwt>
<pdfrwt beam="1">  1        2 0.10965694E+00 0.27512486E+03</pdfrwt>
<pdfrwt beam="2">  1       -2 0.40844808E-02 0.27512486E+03</pdfrwt>
<totfact> 0.10880524E+04</totfact>
</mgrwt>
</event>
<event>
 9    1  0.2031653E-002  0.2756913E+03  0.7818608E-02  0.1098066E+00
         -1   -1    0    0    0  501 -0.00000000000E+00  0.00000000000E+00  0.22306694853E+02  0.22306694853E+02  0.00000000000E+00 0. -1.
          1   -1    0    0  501    0  0.00000000000E+00 -0.00000000000E+00 -0.85182573527E+03  0.85182573527E+03  0.00000000000E+00 0. -1.
         36    2    1    2    0    0  0.00000000000E+00  0.71054273576E-14 -0.82951904041E+03  0.87413243012E+03  0.27569125300E+03 0.  0.
         25    2    3    3    0    0  0.46940305913E+02 -0.19254194172E+02 -0.45497464491E+03  0.47575986073E+03  0.12950444496E+03 0.  0.
         25    2    3    3    0    0 -0.46940305913E+02  0.19254194172E+02 -0.37454439550E+03  0.39837256939E+03  0.12586931128E+03 0.  0.
          5    1    4    4  502    0  0.17806268902E+02  0.37619874308E+02 -0.47717521970E+02  0.63493070946E+02  0.47000000000E+01 0. -1.
         -5    1    4    4    0  502  0.29134037011E+02 -0.56874068480E+02 -0.40725712294E+03  0.41226678979E+03  0.47000000000E+01 0. -1.
          5    1    5    5  503    0 -0.52534492227E+02 -0.63750250144E+01 -0.50713851161E+02  0.73447249894E+02  0.47000000000E+01 0.  1.
         -5    1    5    5    0  503  0.55941863137E+01  0.25629219186E+02 -0.32383054434E+03  0.32492531949E+03  0.47000000000E+01 0.  1.
<mgrwt>
<rscale>  0 0.27569125E+03</rscale>
<asrwt>0</asrwt>
<pdfrwt beam="1">  1        1 0.13105011E+00 0.27569125E+03</pdfrwt>
<pdfrwt beam="2">  1       -1 0.34317994E-02 0.27569125E+03</pdfrwt>
<totfact> 0.64405044E+03</totfact>
</mgrwt>
</event>
<event>
 9    1  0.2031653E-002  0.2720989E+03  0.7818608E-02  0.1100084E+00
          2   -1    0    0  501    0  0.00000000000E+00  0.00000000000E+00  0.64718206550E+03  0.64718206550E+03  0.00000000000E+00 0.  1.
         -2   -1    0    0    0  501 -0.00000000000E+00 -0.00000000000E+00 -0.28600065533E+02  0.28600065533E+02  0.00000000000E+00 0.  1.
         36    2    1    2    0    0  0.71054273576E-14  0.00000000000E+00  0.61858199997E+03  0.67578213103E+03  0.27209887530E+03 0.  0.
         25    2    3    3    0    0  0.12425160011E+02 -0.13737225473E+02  0.45370734901E+03  0.47087284671E+03  0.12461052627E+03 0.  0.
         25    2    3    3    0    0 -0.12425160011E+02  0.13737225473E+02  0.16487465095E+03  0.20490928432E+03  0.12025418208E+03 0.  0.
          5    1    4    4  502    0  0.24319211750E+02 -0.34498071279E+02  0.44162024610E+03  0.44365760756E+03  0.47000000000E+01 0. -1.
         -5    1    4    4    0  502 -0.11894051739E+02  0.20760845805E+02  0.12087102917E+02  0.27215239155E+02  0.47000000000E+01 0. -1.
          5    1    5    5  503    0  0.41522331599E+02  0.41609220827E+02  0.63600371410E+02  0.86732511336E+02  0.47000000000E+01 0.  1.
         -5    1    5    5    0  503 -0.53947491609E+02 -0.27871995353E+02  0.10127427954E+03  0.11817677298E+03  0.47000000000E+01 0.  1.
<mgrwt>
<rscale>  0 0.27209888E+03</rscale>
<asrwt>0</asrwt>
<pdfrwt beam="1">  1        2 0.99566460E-01 0.27209888E+03</pdfrwt>
<pdfrwt beam="2">  1       -2 0.44000106E-02 0.27209888E+03</pdfrwt>
<totfact> 0.10917945E+04</totfact>
</mgrwt>
</event>
<event>
 9    1  0.2031653E-002  0.2706121E+03  0.7818608E-02  0.1100930E+00
         -2   -1    0    0    0  501 -0.00000000000E+00  0.00000000000E+00  0.12313959558E+02  0.12313959558E+02  0.00000000000E+00 0.  1.
          2   -1    0    0  501    0  0.00000000000E+00 -0.00000000000E+00 -0.14867461420E+04  0.14867461420E+04  0.00000000000E+00 0.  1.
         36    2    1    2    0    0  0.00000000000E+00 -0.35527136788E-14 -0.14744321825E+04  0.14990601016E+04  0.27061213473E+03 0.  0.
         25    2    3    3    0    0  0.18808932048E+02 -0.28708014287E+02 -0.97260272762E+03  0.98121005687E+03  0.12505672285E+03 0.  0.
         25    2    3    3    0    0 -0.18808932048E+02  0.28708014287E+02 -0.50182945485E+03  0.51785004471E+03  0.12311759031E+03 0.  0.
          5    1    4    4  502    0 -0.43649191538E+01  0.85961551192E+01 -0.37665107723E+01  0.11367629720E+02  0.47000000000E+01 0.  1.
         -5    1    4    4    0  502  0.23173851201E+02 -0.37304169406E+02 -0.96883621684E+03  0.96984242715E+03  0.47000000000E+01 0.  1.
          5    1    5    5  503    0  0.48126962977E+02  0.31682855202E+02 -0.28703597473E+03  0.29279984404E+03  0.47000000000E+01 0.  1.
         -5    1    5    5    0  503 -0.66935895025E+02 -0.29748409150E+01 -0.21479348012E+03  0.22505020068E+03  0.47000000000E+01 0.  1.
<mgrwt>
<rscale>  0 0.27061213E+03</rscale>
<asrwt>0</asrwt>
<pdfrwt beam="1">  1        2 0.22873016E+00 0.27061213E+03</pdfrwt>
<pdfrwt beam="2">  1       -2 0.18944555E-02 0.27061213E+03</pdfrwt>
<totfact> 0.11607712E+04</totfact>
</mgrwt>
</event>
<event>
 9    1  0.2031653E-002  0.2753799E+03  0.7818608E-02  0.1098239E+00
         -3   -1    0    0    0  501 -0.00000000000E+00  0.00000000000E+00  0.45498329744E+02  0.45498329744E+02  0.00000000000E+00 0. -1.
          3   -1    0    0  501    0  0.00000000000E+00 -0.00000000000E+00 -0.41668619292E+03  0.41668619292E+03  0.00000000000E+00 0. -1.
         36    2    1    2    0    0 -0.71054273576E-14  0.00000000000E+00 -0.37118786318E+03  0.46218452267E+03  0.27537992524E+03 0.  0.
         25    2    3    3    0    0 -0.34368186124E+02  0.29905803374E+02 -0.16243831379E+03  0.21186793950E+03  0.12816508380E+03 0.  0.
         25    2    3    3    0    0  0.34368186124E+02 -0.29905803374E+02 -0.20874954939E+03  0.25031658317E+03  0.13040892664E+03 0.  0.
          5    1    4    4  502    0  0.23775326334E+01 -0.40114015142E+02 -0.12593773849E+02  0.42373104819E+02  0.47000000000E+01 0.  1.
         -5    1    4    4    0  502 -0.36745718757E+02  0.70019818516E+02 -0.14984453994E+03  0.16949483468E+03  0.47000000000E+01 0.  1.
          5    1    5    5  503    0 -0.17894447091E+02  0.15777955628E+02 -0.16787024329E+03  0.16962212032E+03  0.47000000000E+01 0. -1.
         -5    1    5    5    0  503  0.52262633215E+02 -0.45683759002E+02 -0.40879306095E+02  0.80694462845E+02  0.47000000000E+01 0. -1.
<mgrwt>
<rscale>  0 0.27537993E+03</rscale>
<asrwt>0</asrwt>
<pdfrwt beam="1">  1        3 0.64105566E-01 0.27537993E+03</pdfrwt>
<pdfrwt beam="2">  1       -3 0.69997432E-02 0.27537993E+03</pdfrwt>
<totfact> 0.80896496E+02</totfact>
</mgrwt>
</event>
<event>
 9    1  0.2031653E-002  0.2746149E+03  0.7818608E-02  0.1098667E+00
         -1   -1    0    0    0  501 -0.00000000000E+00  0.00000000000E+00  0.23003745067E+03  0.23003745067E+03  0.00000000000E+00 0.  1.
          1   -1    0    0  501    0  0.00000000000E+00 -0.00000000000E+00 -0.81957675464E+02  0.81957675464E+02  0.00000000000E+00 0.  1.
         36    2    1    2    0    0  0.00000000000E+00  0.00000000000E+00  0.14807977520E+03  0.31199512613E+03  0.27461489199E+03 0.  0.
         25    2    3    3    0    0 -0.18607422571E+02  0.46111510162E+02  0.52877591131E+02  0.14728710276E+03  0.12815983556E+03 0.  0.
         25    2    3    3    0    0  0.18607422571E+02 -0.46111510162E+02  0.95202184071E+02  0.16470802337E+03  0.12487101172E+03 0.  0.
          5    1    4    4  502    0 -0.22406494209E+02  0.24281505227E+02 -0.39766345924E+02  0.51914301950E+02  0.47000000000E+01 0.  1.
         -5    1    4    4    0  502  0.37990716383E+01  0.21830004935E+02  0.92643937055E+02  0.95372800807E+02  0.47000000000E+01 0.  1.
          5    1    5    5  503    0  0.44873377490E+02 -0.28641064086E+02  0.11524935206E+03  0.12703713516E+03  0.47000000000E+01 0.  1.
         -5    1    5    5    0  503 -0.26265954919E+02 -0.17470446076E+02 -0.20047167993E+02  0.37670888209E+02  0.47000000000E+01 0.  1.
<mgrwt>
<rscale>  0 0.27461489E+03</rscale>
<asrwt>0</asrwt>
<pdfrwt beam="1">  1        1 0.12608873E-01 0.27461489E+03</pdfrwt>
<pdfrwt beam="2">  1       -1 0.35390377E-01 0.27461489E+03</pdfrwt>
<totfact> 0.35834326E+03</totfact>
</mgrwt>
</event>
<event>
 9    1  0.2031653E-002  0.2753940E+03  0.7818608E-02  0.1098232E+00
         -3   -1    0    0    0  501 -0.00000000000E+00  0.00000000000E+00  0.19680539450E+03  0.19680539450E+03  0.00000000000E+00 0. -1.
          3   -1    0    0  501    0  0.00000000000E+00 -0.00000000000E+00 -0.96341195141E+02  0.96341195141E+02  0.00000000000E+00 0. -1.
         36    2    1    2    0    0  0.17763568394E-14  0.00000000000E+00  0.10046419936E+03  0.29314658965E+03  0.27539402257E+03 0.  0.
         25    2    3    3    0    0 -0.17726804194E+01 -0.48796275623E+02  0.84270832560E+02  0.15929087908E+03  0.12604678508E+03 0.  0.
         25    2    3    3    0    0  0.17726804194E+01  0.48796275623E+02  0.16193366804E+02  0.13385571056E+03  0.12357551218E+03 0.  0.
          5    1    4    4  502    0  0.27613193554E+02  0.25208570239E+02  0.68207777158E+02  0.77925293305E+02  0.47000000000E+01 0.  1.
         -5    1    4    4    0  502 -0.29385873974E+02 -0.74004845863E+02  0.16063055402E+02  0.81365585779E+02  0.47000000000E+01 0.  1.
          5    1    5    5  503    0  0.15032545415E+02  0.88012130958E+02  0.72284529752E+00  0.89413226777E+02  0.47000000000E+01 0. -1.
         -5    1    5    5    0  503 -0.13259864996E+02 -0.39215855334E+02  0.15470521506E+02  0.44442483785E+02  0.47000000000E+01 0. -1.
<mgrwt>
<rscale>  0 0.27539402E+03</rscale>
<asrwt>0</asrwt>
<pdfrwt beam="1">  1        3 0.14821722E-01 0.27539402E+03</pdfrwt>
<pdfrwt beam="2">  1       -3 0.30277753E-01 0.27539402E+03</pdfrwt>
<totfact> 0.10170692E+03</totfact>
</mgrwt>
</event>
<event>
 9    1  0.2031653E-002  0.2757144E+03  0.7818608E-02  0.1098053E+00
         -2   -1    0    0    0  501 -0.00000000000E+00  0.00000000000E+00  0.14485869894E+02  0.14485869894E+02  0.00000000000E+00 0.  1.
          2   -1    0    0  501    0  0.00000000000E+00 -0.00000000000E+00 -0.13119413080E+04  0.13119413080E+04  0.00000000000E+00 0.  1.
         36    2    1    2    0    0 -0.71054273576E-14  0.00000000000E+00 -0.12974554381E+04  0.13264271779E+04  0.27571442543E+03 0.  0.
         25    2    3    3    0    0 -0.20883509526E+02 -0.56496625441E+02 -0.59539127515E+03  0.61141241081E+03  0.12532508091E+03 0.  0.
         25    2    3    3    0    0  0.20883509526E+02  0.56496625441E+02 -0.70206416298E+03  0.71501476711E+03  0.12134264953E+03 0.  0.
          5    1    4    4  502    0  0.48831185222E+02 -0.47415832347E+02 -0.31494123937E+03  0.32224652063E+03  0.47000000000E+01 0. -1.
         -5    1    4    4    0  502 -0.69714694748E+02 -0.90807930945E+01 -0.28045003578E+03  0.28916589017E+03  0.47000000000E+01 0. -1.
          5    1    5    5  503    0 -0.25831380568E+02 -0.25955278975E+02 -0.13021954060E+03  0.13535196889E+03  0.47000000000E+01 0. -1.
         -5    1    5    5    0  503  0.46714890094E+02  0.82451904416E+02 -0.57184462238E+03  0.57966279822E+03  0.47000000000E+01 0. -1.
<mgrwt>
<rscale>  0 0.27571443E+03</rscale>
<asrwt>0</asrwt>
<pdfrwt beam="1">  1        2 0.20183711E+00 0.27571443E+03</pdfrwt>
<pdfrwt beam="2">  1       -2 0.22285955E-02 0.27571443E+03</pdfrwt>
<totfact> 0.11378203E+04</totfact>
</mgrwt>
</event>
<event>
 9    1  0.2031653E-002  0.2744786E+03  0.7818608E-02  0.1098743E+00
          2   -1    0    0  501    0  0.00000000000E+00  0.00000000000E+00  0.18642812868E+04  0.18642812868E+04  0.00000000000E+00 0. -1.
         -2   -1    0    0    0  501 -0.00000000000E+00 -0.00000000000E+00 -0.10102885981E+02  0.10102885981E+02  0.00000000000E+00 0. -1.
         36    2    1    2    0    0  0.00000000000E+00  0.17763568394E-14  0.18541784008E+04  0.18743841727E+04  0.27447856949E+03 0.  0.
         25    2    3    3    0    0 -0.61599528770E+02 -0.32278051815E+01  0.76791161759E+03  0.77944910328E+03  0.11852312646E+03 0.  0.
         25    2    3    3    0    0  0.61599528770E+02  0.32278051815E+01  0.10862667832E+04  0.10949350695E+04  0.12289166531E+03 0.  0.
          5    1    4    4  502    0 -0.72738891224E+02 -0.19270797674E-01  0.22748002827E+03  0.23887276933E+03  0.47000000000E+01 0.  1.
         -5    1    4    4    0  502  0.11139362454E+02 -0.32085343838E+01  0.54043158932E+03  0.54057633395E+03  0.47000000000E+01 0.  1.
          5    1    5    5  503    0  0.44272722741E+02 -0.57350593855E+02  0.49381951848E+03  0.49912821141E+03  0.47000000000E+01 0.  1.
         -5    1    5    5    0  503  0.17326806029E+02  0.60578399036E+02  0.59244726470E+03  0.59580685804E+03  0.47000000000E+01 0.  1.
<mgrwt>
<rscale>  0 0.27447857E+03</rscale>
<asrwt>0</asrwt>
<pdfrwt beam="1">  1        2 0.28681223E+00 0.27447857E+03</pdfrwt>
<pdfrwt beam="2">  1       -2 0.15542916E-02 0.27447857E+03</pdfrwt>
<totfact> 0.98055477E+03</totfact>
</mgrwt>
</event>
<event>
 9    1  0.2031653E-002  0.2738577E+03  0.7818608E-02  0.1099092E+00
         -2   -1    0    0    0  501 -0.00000000000E+00  0.00000000000E+00  0.80731108276E+02  0.80731108276E+02  0.00000000000E+00 0. -1.
          2   -1    0    0  501    0  0.00000000000E+00 -0.00000000000E+00 -0.23224632530E+03  0.23224632530E+03  0.00000000000E+00 0. -1.
         36    2    1    2    0    0  0.00000000000E+00  0.00000000000E+00 -0.15151521703E+03  0.31297743358E+03  0.27385765087E+03 0.  0.
         25    2    3    3    0    0  0.17903715425E+02  0.40090230812E+02 -0.40758794681E+02  0.14053675239E+03  0.12712800555E+03 0.  0.
         25    2    3    3    0    0 -0.17903715425E+02 -0.40090230812E+02 -0.11075642235E+03  0.17244068119E+03  0.12466368278E+03 0.  0.
          5    1    4    4  502    0  0.72465067806E+02  0.21794209268E+02 -0.31318848910E+02  0.82031298337E+02  0.47000000000E+01 0. -1.
         -5    1    4    4    0  502 -0.54561352381E+02  0.18296021543E+02 -0.94399457702E+01  0.58505454054E+02  0.47000000000E+01 0. -1.
          5    1    5    5  503    0 -0.70366191075E+02 -0.10201581128E+02 -0.53590696719E+02  0.89160113721E+02  0.47000000000E+01 0. -1.
         -5    1    5    5    0  503  0.52462475649E+02 -0.29888649684E+02 -0.57165725626E+02  0.83280567466E+02  0.47000000000E+01 0. -1.
<mgrwt>
<rscale>  0 0.27385765E+03</rscale>
<asrwt>0</asrwt>
<pdfrwt beam="1">  1        2 0.35730204E-01 0.27385765E+03</pdfrwt>
<pdfrwt beam="2">  1       -2 0.12420170E-01 0.27385765E+03</pdfrwt>
<totfact> 0.67047643E+03</totfact>
</mgrwt>
</event>
<event>
 9    1  0.2031653E-002  0.2754182E+03  0.7818608E-02  0.1098218E+00
          2   -1    0    0  501    0  0.00000000000E+00  0.00000000000E+00  0.12933411923E+03  0.12933411923E+03  0.00000000000E+00 0.  1.
         -2   -1    0    0    0  501 -0.00000000000E+00 -0.00000000000E+00 -0.14662637966E+03  0.14662637966E+03  0.00000000000E+00 0.  1.
         36    2    1    2    0    0  0.00000000000E+00  0.71054273576E-14 -0.17292260437E+02  0.27596049889E+03  0.27541818146E+03 0.  0.
         25    2    3    3    0    0  0.86333161992E+01  0.43414647540E+02 -0.43503067798E+02  0.13999119663E+03  0.12548168175E+03 0.  0.
         25    2    3    3    0    0 -0.86333161992E+01 -0.43414647540E+02  0.26210807361E+02  0.13596930226E+03  0.12586214270E+03 0.  0.
          5    1    4    4  502    0  0.38210032466E+02 -0.31998063990E+02 -0.54046865764E+01  0.50350603941E+02  0.47000000000E+01 0. -1.
         -5    1    4    4    0  502 -0.29576716267E+02  0.75412711530E+02 -0.38098381221E+02  0.89640592687E+02  0.47000000000E+01 0. -1.
          5    1    5    5  503    0  0.58206665915E+02 -0.25929045648E+02  0.16949666398E+02  0.66103801374E+02  0.47000000000E+01 0.  1.
         -5    1    5    5    0  503 -0.66839982114E+02 -0.17485601892E+02  0.92611409625E+01  0.69865500889E+02  0.47000000000E+01 0.  1.
<mgrwt>
<rscale>  0 0.27541818E+03</rscale>
<asrwt>0</asrwt>
<pdfrwt beam="1">  1        2 0.19897557E-01 0.27541818E+03</pdfrwt>
<pdfrwt beam="2">  1       -2 0.22557904E-01 0.27541818E+03</pdfrwt>
<totfact> 0.47311447E+03</totfact>
</mgrwt>
</event>
<event>
 9    1  0.2031653E-002  0.2743434E+03  0.7818608E-02  0.1098819E+00
          1   -1    0    0  501    0  0.00000000000E+00  0.00000000000E+00  0.31279999504E+02  0.31279999504E+02  0.00000000000E+00 0.  1.
         -1   -1    0    0    0  501 -0.00000000000E+00 -0.00000000000E+00 -0.60153708170E+03  0.60153708170E+03  0.00000000000E+00 0.  1.
         36    2    1    2    0    0  0.00000000000E+00  0.71054273576E-14 -0.57025708219E+03  0.63281708120E+03  0.27434343161E+03 0.  0.
         25    2    3    3    0    0 -0.10600935237E+02  0.57064542041E+02 -0.33838628202E+03  0.36379332803E+03  0.12029782988E+03 0.  0.
         25    2    3    3    0    0  0.10600935237E+02 -0.57064542041E+02 -0.23187080018E+03  0.26902375318E+03  0.12345432358E+03 0.  0.
          5    1    4    4  502    0  0.22735828535E+01  0.82651778095E+02 -0.31726404796E+03  0.32789487909E+03  0.47000000000E+01 0. -1.
         -5    1    4    4    0  502 -0.12874518091E+02 -0.25587236054E+02 -0.21122234053E+02  0.35898448940E+02  0.47000000000E+01 0. -1.
          5    1    5    5  503    0  0.67156530165E+01 -0.53398737065E+02 -0.20889074726E+02  0.57922090419E+02  0.47000000000E+01 0. -1.
         -5    1    5    5    0  503  0.38852822207E+01 -0.36658049761E+01 -0.21098172545E+03  0.21110166276E+03  0.47000000000E+01 0. -1.
<mgrwt>
<rscale>  0 0.27434343E+03</rscale>
<asrwt>0</asrwt>
<pdfrwt beam="1">  1        1 0.48123086E-02 0.27434343E+03</pdfrwt>
<pdfrwt beam="2">  1       -1 0.92544148E-01 0.27434343E+03</pdfrwt>
<totfact> 0.20968924E+03</totfact>
</mgrwt>
</event>
<event>
 9    1  0.2031653E-002  0.2748222E+03  0.7818608E-02  0.1098551E+00
          2   -1    0    0  501    0  0.00000000000E+00  0.00000000000E+00  0.22179170169E+03  0.22179170169E+03  0.00000000000E+00 0.  1.
         -2   -1    0    0    0  501 -0.00000000000E+00 -0.00000000000E+00 -0.85133103044E+02  0.85133103044E+02  0.00000000000E+00 0.  1.
         36    2    1    2    0    0  0.00000000000E+00  0.00000000000E+00  0.13665859865E+03  0.30692480474E+03  0.27482223924E+03 0.  0.
         25    2    3    3    0    0  0.45787710016E+02  0.33200354091E+02  0.50017367020E+02  0.14679427647E+03  0.12588901740E+03 0.  0.
         25    2    3    3    0    0 -0.45787710016E+02 -0.33200354091E+02  0.86641231630E+02  0.16013052827E+03  0.12221417743E+03 0.  0.
          5    1    4    4  502    0 -0.28648650438E+01  0.32073948255E+02  0.82100928761E+02  0.88315333390E+02  0.47000000000E+01 0. -1.
         -5    1    4    4    0  502  0.48652575059E+02  0.11264058356E+01 -0.32083561741E+02  0.58478943082E+02  0.47000000000E+01 0. -1.
          5    1    5    5  503    0 -0.25337385840E+02 -0.46647965613E+02  0.11233488927E+03  0.12433516463E+03  0.47000000000E+01 0.  1.
         -5    1    5    5    0  503 -0.20450324176E+02  0.13447611522E+02 -0.25693657641E+02  0.35795363632E+02  0.47000000000E+01 0.  1.
<mgrwt>
<rscale>  0 0.27482224E+03</rscale>
<asrwt>0</asrwt>
<pdfrwt beam="1">  1        2 0.34121800E-01 0.27482224E+03</pdfrwt>
<pdfrwt beam="2">  1       -2 0.13097401E-01 0.27482224E+03</pdfrwt>
<totfact> 0.64671491E+03</totfact>
</mgrwt>
</event>
<event>
 9    1  0.2031653E-002  0.2748755E+03  0.7818608E-02  0.1098521E+00
         -4   -1    0    0    0  501 -0.00000000000E+00  0.00000000000E+00  0.34627166586E+02  0.34627166586E+02  0.00000000000E+00 0. -1.
          4   -1    0    0  501    0  0.00000000000E+00 -0.00000000000E+00 -0.54550034266E+03  0.54550034266E+03  0.00000000000E+00 0. -1.
         36    2    1    2    0    0  0.00000000000E+00  0.00000000000E+00 -0.51087317607E+03  0.58012750924E+03  0.27487547172E+03 0.  0.
         25    2    3    3    0    0  0.73728676306E+01 -0.59005811467E+02 -0.26392446839E+03  0.29752626919E+03  0.12381320962E+03 0.  0.
         25    2    3    3    0    0 -0.73728676306E+01  0.59005811467E+02 -0.24694870768E+03  0.28260124005E+03  0.12386989825E+03 0.  0.
          5    1    4    4  502    0 -0.51665627221E+02 -0.11494453426E+02 -0.16157657804E+03  0.17008980001E+03  0.47000000000E+01 0.  1.
         -5    1    4    4    0  502  0.59038494851E+02 -0.47511358041E+02 -0.10234789035E+03  0.12743646918E+03  0.47000000000E+01 0.  1.
          5    1    5    5  503    0  0.51459704844E+02  0.18305626108E+02 -0.16422861257E+03  0.17313672157E+03  0.47000000000E+01 0. -1.
         -5    1    5    5    0  503 -0.58832572475E+02  0.40700185360E+02 -0.82720095109E+02  0.10946451849E+03  0.47000000000E+01 0. -1.
<mgrwt>
<rscale>  0 0.27487547E+03</rscale>
<asrwt>0</asrwt>
<pdfrwt beam="1">  1        4 0.83923124E-01 0.27487547E+03</pdfrwt>
<pdfrwt beam="2">  1       -4 0.53272567E-02 0.27487547E+03</pdfrwt>
<totfact> 0.51498830E+02</totfact>
</mgrwt>
</event>
<event>
 9    1  0.2031653E-002  0.2766849E+03  0.7818608E-02  0.1097513E+00
         -1   -1    0    0    0  501 -0.00000000000E+00  0.00000000000E+00  0.25021225303E+02  0.25021225303E+02  0.00000000000E+00 0. -1.
          1   -1    0    0  501    0  0.00000000000E+00 -0.00000000000E+00 -0.76489571993E+03  0.76489571993E+03  0.00000000000E+00 0. -1.
         36    2    1    2    0    0 -0.71054273576E-14 -0.71054273576E-14 -0.73987449462E+03  0.78991694523E+03  0.27668486147E+03 0.  0.
         25    2    3    3    0    0 -0.12335110682E+02 -0.61631867993E+02 -0.34996157911E+03  0.37536058530E+03  0.12029887795E+03 0.  0.
         25    2    3    3    0    0  0.12335110682E+02  0.61631867993E+02 -0.38991291552E+03  0.41455635993E+03  0.12599306237E+03 0.  0.
          5    1    4    4  502    0  0.46971925624E+02 -0.56681870977E+01 -0.18864902798E+03  0.19454828681E+03  0.47000000000E+01 0. -1.
         -5    1    4    4    0  502 -0.59307036306E+02 -0.55963680895E+02 -0.16131255113E+03  0.18081229849E+03  0.47000000000E+01 0. -1.
          5    1    5    5  503    0 -0.40385287609E+02  0.55719643068E+02 -0.31608275774E+03  0.32352132823E+03  0.47000000000E+01 0. -1.
         -5    1    5    5    0  503  0.52720398290E+02  0.59122249246E+01 -0.73830157775E+02  0.91035031699E+02  0.47000000000E+01 0. -1.
<mgrwt>
<rscale>  0 0.27668486E+03</rscale>
<asrwt>0</asrwt>
<pdfrwt beam="1">  1        1 0.11767628E+00 0.27668486E+03</pdfrwt>
<pdfrwt beam="2">  1       -1 0.38494187E-02 0.27668486E+03</pdfrwt>
<totfact> 0.64164880E+03</totfact>
</mgrwt>
</event>
<event>
 9    1  0.2031653E-002  0.2752314E+03  0.7818608E-02  0.1098322E+00
         -2   -1    0    0    0  501 -0.00000000000E+00  0.00000000000E+00  0.85066728083E+02  0.85066728083E+02  0.00000000000E+00 0. -1.
          2   -1    0    0  501    0  0.00000000000E+00 -0.00000000000E+00 -0.22262614063E+03  0.22262614063E+03  0.00000000000E+00 0. -1.
         36    2    1    2    0    0  0.00000000000E+00  0.00000000000E+00 -0.13755941255E+03  0.30769286872E+03  0.27523137444E+03 0.  0.
         25    2    3    3    0    0  0.26545267270E+02 -0.10174052951E+02 -0.36027939627E+00  0.12805371926E+03  0.12485776968E+03 0.  0.
         25    2    3    3    0    0 -0.26545267270E+02  0.10174052951E+02 -0.13719913315E+03  0.17963914945E+03  0.11242090246E+03 0.  0.
          5    1    4    4  502    0 -0.17655292114E+02  0.24375315886E+02 -0.46278465212E+02  0.55404437607E+02  0.47000000000E+01 0. -1.
         -5    1    4    4    0  502  0.44200559384E+02 -0.34549368837E+02  0.45918185815E+02  0.72649281658E+02  0.47000000000E+01 0. -1.
          5    1    5    5  503    0 -0.19684961651E+02  0.61788725254E+01 -0.15667031765E+03  0.15809286705E+03  0.47000000000E+01 0.  1.
         -5    1    5    5    0  503 -0.68603056191E+01  0.39951804253E+01  0.19471184492E+02  0.21546282402E+02  0.47000000000E+01 0.  1.
<mgrwt>
<rscale>  0 0.27523137E+03</rscale>
<asrwt>0</asrwt>
<pdfrwt beam="1">  1        2 0.34250175E-01 0.27523137E+03</pdfrwt>
<pdfrwt beam="2">  1       -2 0.13087189E-01 0.27523137E+03</pdfrwt>
<totfact> 0.64493392E+03</totfact>
</mgrwt>
</event>
<event>
 9    1  0.2031653E-002  0.2764863E+03  0.7818608E-02  0.1097624E+00
          2   -1    0    0  501    0  0.00000000000E+00  0.00000000000E+00  0.97271356777E+03  0.97271356777E+03  0.00000000000E+00 0. -1.
         -2   -1    0    0    0  501 -0.00000000000E+00 -0.00000000000E+00 -0.19647275788E+02  0.19647275788E+02  0.00000000000E+00 0. -1.
         36    2    1    2    0    0  0.35527136788E-14 -0.35527136788E-14  0.95306629198E+03  0.99236084356E+03  0.27648632320E+03 0.  0.
         25    2    3    3    0    0  0.77402895670E+01  0.24430863665E+02  0.64545553529E+03  0.65759789894E+03  0.12314775468E+03 0.  0.
         25    2    3    3    0    0 -0.77402895670E+01 -0.24430863665E+02  0.30761075670E+03  0.33476294461E+03  0.12955721620E+03 0.  0.
          5    1    4    4  502    0 -0.10965597400E+02 -0.48645366093E+02  0.27147484390E+03  0.27605669135E+03  0.47000000000E+01 0.  1.
         -5    1    4    4    0  502  0.18705886967E+02  0.73076229758E+02  0.37398069138E+03  0.38154120759E+03  0.47000000000E+01 0.  1.
          5    1    5    5  503    0 -0.60713809104E+02 -0.41953037041E+02  0.20401090357E+03  0.21699945324E+03  0.47000000000E+01 0. -1.
         -5    1    5    5    0  503  0.52973519537E+02  0.17522173376E+02  0.10359985313E+03  0.11776349137E+03  0.47000000000E+01 0. -1.
<mgrwt>
<rscale>  0 0.27648632E+03</rscale>
<asrwt>0</asrwt>
<pdfrwt beam="1">  1        2 0.14964820E+00 0.27648632E+03</pdfrwt>
<pdfrwt beam="2">  1       -2 0.30226586E-02 0.27648632E+03</pdfrwt>
<totfact> 0.11407443E+04</totfact>
</mgrwt>
</event>
<event>
 9    1  0.2031653E-002  0.2797112E+03  0.7818608E-02  0.1095847E+00
         -2   -1    0    0    0  501 -0.00000000000E+00  0.00000000000E+00  0.21949634497E+02  0.21949634497E+02  0.00000000000E+00 0.  1.
          2   -1    0    0  501    0  0.00000000000E+00 -0.00000000000E+00 -0.89111247627E+03  0.89111247627E+03  0.00000000000E+00 0.  1.
         36    2    1    2    0    0  0.00000000000E+00  0.00000000000E+00 -0.86916284177E+03  0.91306211076E+03  0.27971123074E+03 0.  0.
         25    2    3    3    0    0  0.52271551543E+02  0.41500121989E+02 -0.40110135554E+03  0.42419775832E+03  0.12085886612E+03 0.  0.
         25    2    3    3    0    0 -0.52271551543E+02 -0.41500121989E+02 -0.46806148622E+03  0.48886435244E+03  0.12430697879E+03 0.  0.
          5    1    4    4  502    0 -0.22118737847E+02 -0.24979129705E+02 -0.60446461953E+02  0.69203036403E+02  0.47000000000E+01 0. -1.
         -5    1    4    4    0  502  0.74390289390E+02  0.66479251694E+02 -0.34065489359E+03  0.35499472192E+03  0.47000000000E+01 0. -1.
          5    1    5    5  503    0  0.45916336174E+01 -0.12164202601E+02  0.24140537990E+01  0.14034549510E+02  0.47000000000E+01 0.  1.
         -5    1    5    5    0  503 -0.56863185160E+02 -0.29335919387E+02 -0.47047554002E+03  0.47482980293E+03  0.47000000000E+01 0.  1.
<mgrwt>
<rscale>  0 0.27971123E+03</rscale>
<asrwt>0</asrwt>
<pdfrwt beam="1">  1        2 0.13709423E+00 0.27971123E+03</pdfrwt>
<pdfrwt beam="2">  1       -2 0.33768667E-02 0.27971123E+03</pdfrwt>
<totfact> 0.10898149E+04</totfact>
</mgrwt>
</event>
<event>
 9    1  0.2031653E-002  0.2750389E+03  0.7818608E-02  0.1098430E+00
          2   -1    0    0  501    0  0.00000000000E+00  0.00000000000E+00  0.20096829937E+03  0.20096829937E+03  0.00000000000E+00 0.  1.
         -2   -1    0    0    0  501 -0.00000000000E+00 -0.00000000000E+00 -0.94102377190E+02  0.94102377190E+02  0.00000000000E+00 0.  1.
         36    2    1    2    0    0 -0.71054273576E-14  0.35527136788E-14  0.10686592218E+03  0.29507067656E+03  0.27503886787E+03 0.  0.
         25    2    3    3    0    0 -0.40277339960E+02  0.22128443746E+02  0.94871921368E+02  0.16088351933E+03  0.12153556348E+03 0.  0.
         25    2    3    3    0    0  0.40277339960E+02 -0.22128443746E+02  0.11994000809E+02  0.13418715723E+03  0.12550061742E+03 0.  0.
          5    1    4    4  502    0 -0.49587303766E+02 -0.28606197618E+02  0.92686844058E+02  0.10904199328E+03  0.47000000000E+01 0.  1.
         -5    1    4    4    0  502  0.93099638059E+01  0.50734641364E+02  0.21850773096E+01  0.51841526051E+02  0.47000000000E+01 0.  1.
          5    1    5    5  503    0 -0.39277200727E+02 -0.10732310315E+02 -0.22325214635E+02  0.46673184915E+02  0.47000000000E+01 0.  1.
         -5    1    5    5    0  503  0.79554540686E+02 -0.11396133431E+02  0.34319215444E+02  0.87513972311E+02  0.47000000000E+01 0.  1.
<mgrwt>
<rscale>  0 0.27503887E+03</rscale>
<asrwt>0</asrwt>
<pdfrwt beam="1">  1        2 0.30918200E-01 0.27503887E+03</pdfrwt>
<pdfrwt beam="2">  1       -2 0.14477289E-01 0.27503887E+03</pdfrwt>
<totfact> 0.61124288E+03</totfact>
</mgrwt>
</event>
<event>
 9    1  0.2031653E-002  0.2747762E+03  0.7818608E-02  0.1098577E+00
         -1   -1    0    0    0  501 -0.00000000000E+00  0.00000000000E+00  0.21248639698E+02  0.21248639698E+02  0.00000000000E+00 0.  1.
          1   -1    0    0  501    0  0.00000000000E+00 -0.00000000000E+00 -0.88831516545E+03  0.88831516545E+03  0.00000000000E+00 0.  1.
         36    2    1    2    0    0 -0.71054273576E-14  0.00000000000E+00 -0.86706652575E+03  0.90956380515E+03  0.27477619175E+03 0.  0.
         25    2    3    3    0    0  0.26393371616E+02  0.34640760405E+02 -0.49603460689E+03  0.51286914268E+03  0.12283254427E+03 0.  0.
         25    2    3    3    0    0 -0.26393371616E+02 -0.34640760405E+02 -0.37103191886E+03  0.39669466247E+03  0.13343679429E+03 0.  0.
          5    1    4    4  502    0 -0.82800724607E+01  0.72488292893E+02 -0.36105685171E+03  0.36838465274E+03  0.47000000000E+01 0.  1.
         -5    1    4    4    0  502  0.34673444076E+02 -0.37847532488E+02 -0.13497775518E+03  0.14448448994E+03  0.47000000000E+01 0.  1.
          5    1    5    5  503    0  0.21080161647E+02 -0.72852481175E+02 -0.24693265666E+03  0.25835960240E+03  0.47000000000E+01 0. -1.
         -5    1    5    5    0  503 -0.47473533262E+02  0.38211720770E+02 -0.12409926220E+03  0.13833506007E+03  0.47000000000E+01 0. -1.
<mgrwt>
<rscale>  0 0.27477619E+03</rscale>
<asrwt>0</asrwt>
<pdfrwt beam="1">  1        1 0.13666388E+00 0.27477619E+03</pdfrwt>
<pdfrwt beam="2">  1       -1 0.32690213E-02 0.27477619E+03</pdfrwt>
<totfact> 0.64707999E+03</totfact>
</mgrwt>
</event>
<event>
 9    1  0.2031653E-002  0.2755730E+03  0.7818608E-02  0.1098132E+00
          1   -1    0    0  501    0  0.00000000000E+00  0.00000000000E+00  0.62308868764E+03  0.62308868764E+03  0.00000000000E+00 0. -1.
         -1   -1    0    0    0  501 -0.00000000000E+00 -0.00000000000E+00 -0.30469373385E+02  0.30469373385E+02  0.00000000000E+00 0. -1.
         36    2    1    2    0    0  0.00000000000E+00  0.71054273576E-14  0.59261931425E+03  0.65355806102E+03  0.27557301664E+03 0.  0.
         25    2    3    3    0    0  0.84735591830E+00 -0.59932083598E+02  0.31225900579E+03  0.34122235175E+03  0.12383228164E+03 0.  0.
         25    2    3    3    0    0 -0.84735591830E+00  0.59932083598E+02  0.28036030846E+03  0.31233570927E+03  0.12393191709E+03 0.  0.
          5    1    4    4  502    0 -0.63085811187E+01  0.36914374632E+02  0.60093794484E+02  0.70963535606E+02  0.47000000000E+01 0. -1.
         -5    1    4    4    0  502  0.71559370370E+01 -0.96846458230E+02  0.25216521131E+03  0.27025881614E+03  0.47000000000E+01 0. -1.
          5    1    5    5  503    0 -0.73698716317E+01  0.72901868193E+02  0.28659562071E+03  0.29585154589E+03  0.47000000000E+01 0.  1.
         -5    1    5    5    0  503  0.65225157134E+01 -0.12969784595E+02 -0.62353122529E+01  0.16484163387E+02  0.47000000000E+01 0.  1.
<mgrwt>
<rscale>  0 0.27557302E+03</rscale>
<asrwt>0</asrwt>
<pdfrwt beam="1">  1        1 0.95859789E-01 0.27557302E+03</pdfrwt>
<pdfrwt beam="2">  1       -1 0.46875964E-02 0.27557302E+03</pdfrwt>
<totfact> 0.64453477E+03</totfact>
</mgrwt>
</event>
<event>
 9    1  0.2031653E-002  0.2756482E+03  0.7818608E-02  0.1098090E+00
         -1   -1    0    0    0  501 -0.00000000000E+00  0.00000000000E+00  0.13064117183E+03  0.13064117183E+03  0.00000000000E+00 0.  1.
          1   -1    0    0  501    0  0.00000000000E+00 -0.00000000000E+00 -0.14540198228E+03  0.14540198228E+03  0.00000000000E+00 0.  1.
         36    2    1    2    0    0 -0.71054273576E-14  0.00000000000E+00 -0.14760810451E+02  0.27604315410E+03  0.27564822039E+03 0.  0.
         25    2    3    3    0    0  0.78099829985E+01  0.16847236643E+02  0.50049783520E+02  0.13595429162E+03  0.12503504854E+03 0.  0.
         25    2    3    3    0    0 -0.78099829985E+01 -0.16847236643E+02 -0.64810593971E+02  0.14008886248E+03  0.12279923079E+03 0.  0.
          5    1    4    4  502    0  0.64186592574E+02  0.91993548391E+01  0.89816252667E+01  0.65630072286E+02  0.47000000000E+01 0.  1.
         -5    1    4    4    0  502 -0.56376609576E+02  0.76478818036E+01  0.41068158253E+02  0.70324219339E+02  0.47000000000E+01 0.  1.
          5    1    5    5  503    0  0.33064597005E+02  0.35727218982E+02 -0.53311568012E+02  0.72345801780E+02  0.47000000000E+01 0. -1.
         -5    1    5    5    0  503 -0.40874580004E+02 -0.52574455625E+02 -0.11499025959E+02  0.67743060698E+02  0.47000000000E+01 0. -1.
<mgrwt>
<rscale>  0 0.27564822E+03</rscale>
<asrwt>0</asrwt>
<pdfrwt beam="1">  1        1 0.22369536E-01 0.27564822E+03</pdfrwt>
<pdfrwt beam="2">  1       -1 0.20098642E-01 0.27564822E+03</pdfrwt>
<totfact> 0.43893500E+03</totfact>
</mgrwt>
</event>
<event>
 9    1  0.2031653E-002  0.2762139E+03  0.7818608E-02  0.1097775E+00
          1   -1    0    0  501    0  0.00000000000E+00  0.00000000000E+00  0.17823320571E+03  0.17823320571E+03  0.00000000000E+00 0.  1.
         -1   -1    0    0    0  501 -0.00000000000E+00 -0.00000000000E+00 -0.10701447948E+03  0.10701447948E+03  0.00000000000E+00 0.  1.
         36    2    1    2    0    0 -0.71054273576E-14  0.00000000000E+00  0.71218726225E+02  0.28524768519E+03  0.27621392966E+03 0.  0.
         25    2    3    3    0    0 -0.16503222593E+01  0.40563233326E+02 -0.21190353452E+01  0.13322977277E+03  0.12687624907E+03 0.  0.
         25    2    3    3    0    0  0.16503222593E+01 -0.40563233326E+02  0.73337761570E+02  0.15201791242E+03  0.12681844883E+03 0.  0.
          5    1    4    4  502    0 -0.58149375020E+02 -0.31672687000E+01  0.13457597717E+02  0.59954802497E+02  0.47000000000E+01 0. -1.
         -5    1    4    4    0  502  0.56499052760E+02  0.43730502026E+02 -0.15576633062E+02  0.73274970268E+02  0.47000000000E+01 0. -1.
          5    1    5    5  503    0  0.44081369136E+02 -0.62907366878E+01 -0.15740577984E+02  0.47461524083E+02  0.47000000000E+01 0.  1.
         -5    1    5    5    0  503 -0.42431046877E+02 -0.34272496638E+02  0.89078339554E+02  0.10455638834E+03  0.47000000000E+01 0.  1.
<mgrwt>
<rscale>  0 0.27621393E+03</rscale>
<asrwt>0</asrwt>
<pdfrwt beam="1">  1        1 0.27420493E-01 0.27621393E+03</pdfrwt>
<pdfrwt beam="2">  1       -1 0.16463766E-01 0.27621393E+03</pdfrwt>
<totfact> 0.46717109E+03</totfact>
</mgrwt>
</event>
<event>
 9    1  0.2031653E-002  0.2752026E+03  0.7818608E-02  0.1098338E+00
          2   -1    0    0  501    0  0.00000000000E+00  0.00000000000E+00  0.12244245701E+04  0.12244245701E+04  0.00000000000E+00 0.  1.
         -2   -1    0    0    0  501 -0.00000000000E+00 -0.00000000000E+00 -0.15463686455E+02  0.15463686455E+02  0.00000000000E+00 0.  1.
         36    2    1    2    0    0  0.00000000000E+00  0.14210854715E-13  0.12089608837E+04  0.12398882566E+04  0.27520259911E+03 0.  0.
         25    2    3    3    0    0  0.41078290367E+02 -0.20511100763E+02  0.46358751968E+03  0.48292420585E+03  0.12725670510E+03 0.  0.
         25    2    3    3    0    0 -0.41078290367E+02  0.20511100763E+02  0.74537336398E+03  0.75696405072E+03  0.12371334271E+03 0.  0.
          5    1    4    4  502    0  0.23171818555E+02  0.47409323988E+02  0.30281440348E+03  0.30741377674E+03  0.47000000000E+01 0. -1.
         -5    1    4    4    0  502  0.17906471812E+02 -0.67920424751E+02  0.16077311621E+03  0.17551042911E+03  0.47000000000E+01 0. -1.
          5    1    5    5  503    0  0.67619483015E+01 -0.44885343007E+02  0.37721247001E+03  0.37996283435E+03  0.47000000000E+01 0. -1.
         -5    1    5    5    0  503 -0.47840238668E+02  0.65396443770E+02  0.36816089397E+03  0.37700121637E+03  0.47000000000E+01 0. -1.
<mgrwt>
<rscale>  0 0.27520260E+03</rscale>
<asrwt>0</asrwt>
<pdfrwt beam="1">  1        2 0.18837294E+00 0.27520260E+03</pdfrwt>
<pdfrwt beam="2">  1       -2 0.23790296E-02 0.27520260E+03</pdfrwt>
<totfact> 0.11561349E+04</totfact>
</mgrwt>
</event>
<event>
 9    1  0.2031653E-002  0.2761981E+03  0.7818608E-02  0.1097784E+00
          1   -1    0    0  501    0  0.00000000000E+00  0.00000000000E+00  0.12999999798E+04  0.12999999798E+04  0.00000000000E+00 0.  1.
         -1   -1    0    0    0  501 -0.00000000000E+00 -0.00000000000E+00 -0.14670268834E+02  0.14670268834E+02  0.00000000000E+00 0.  1.
         36    2    1    2    0    0  0.14210854715E-13  0.00000000000E+00  0.12853297110E+04  0.13146702487E+04  0.27619811142E+03 0.  0.
         25    2    3    3    0    0 -0.38073520135E+02 -0.36746017509E+02  0.76244903176E+03  0.77470512288E+03  0.12664769498E+03 0.  0.
         25    2    3    3    0    0  0.38073520135E+02  0.36746017509E+02  0.52288067923E+03  0.53996512578E+03  0.12392848586E+03 0.  0.
          5    1    4    4  502    0 -0.81136059434E+02 -0.13507974665E+02  0.36238072220E+03  0.37162804434E+03  0.47000000000E+01 0. -1.
         -5    1    4    4    0  502  0.43062539299E+02 -0.23238042844E+02  0.40006830956E+03  0.40307707854E+03  0.47000000000E+01 0. -1.
          5    1    5    5  503    0 -0.32369768936E+02 -0.15378088653E+02  0.26741758081E+03  0.26984910613E+03  0.47000000000E+01 0.  1.
         -5    1    5    5    0  503  0.70443289071E+02  0.52124106161E+02  0.25546309842E+03  0.27011601965E+03  0.47000000000E+01 0.  1.
<mgrwt>
<rscale>  0 0.27619811E+03</rscale>
<asrwt>0</asrwt>
<pdfrwt beam="1">  1        1 0.19999991E+00 0.27619811E+03</pdfrwt>
<pdfrwt beam="2">  1       -1 0.22569655E-02 0.27619811E+03</pdfrwt>
<totfact> 0.56037159E+03</totfact>
</mgrwt>
</event>
<event>
 9    1  0.2031653E-002  0.2763882E+03  0.7818608E-02  0.1097678E+00
          1   -1    0    0  501    0  0.00000000000E+00  0.00000000000E+00  0.57374473365E+02  0.57374473365E+02  0.00000000000E+00 0.  1.
         -1   -1    0    0    0  501 -0.00000000000E+00 -0.00000000000E+00 -0.33285897091E+03  0.33285897091E+03  0.00000000000E+00 0.  1.
         36    2    1    2    0    0 -0.35527136788E-14  0.00000000000E+00 -0.27548449755E+03  0.39023344428E+03  0.27638819194E+03 0.  0.
         25    2    3    3    0    0  0.25588042113E+02  0.32416147436E+02 -0.20563908766E+03  0.24248276542E+03  0.12167539866E+03 0.  0.
         25    2    3    3    0    0 -0.25588042113E+02 -0.32416147436E+02 -0.69845409892E+02  0.14775067886E+03  0.12347601916E+03 0.  0.
          5    1    4    4  502    0  0.52557743064E+02  0.33312709721E+02 -0.20583992062E+03  0.21509118045E+03  0.47000000000E+01 0. -1.
         -5    1    4    4    0  502 -0.26969700950E+02 -0.89656228534E+00  0.20083296432E+00  0.27391584970E+02  0.47000000000E+01 0. -1.
          5    1    5    5  503    0  0.10090934454E+02  0.40260241617E+02 -0.48264638768E+02  0.63830082004E+02  0.47000000000E+01 0.  1.
         -5    1    5    5    0  503 -0.35678976567E+02 -0.72676389052E+02 -0.21580771123E+02  0.83920596857E+02  0.47000000000E+01 0.  1.
<mgrwt>
<rscale>  0 0.27638819E+03</rscale>
<asrwt>0</asrwt>
<pdfrwt beam="1">  1        1 0.88268421E-02 0.27638819E+03</pdfrwt>
<pdfrwt beam="2">  1       -1 0.51209072E-01 0.27638819E+03</pdfrwt>
<totfact> 0.29765329E+03</totfact>
</mgrwt>
</event>
<event>
 9    1  0.2031653E-002  0.2752947E+03  0.7818608E-02  0.1098287E+00
          2   -1    0    0  501    0  0.00000000000E+00  0.00000000000E+00  0.25079223378E+03  0.25079223378E+03  0.00000000000E+00 0. -1.
         -2   -1    0    0    0  501 -0.00000000000E+00 -0.00000000000E+00 -0.75547766579E+02  0.75547766579E+02  0.00000000000E+00 0. -1.
         36    2    1    2    0    0 -0.71054273576E-14  0.17763568394E-14  0.17524446720E+03  0.32634000036E+03  0.27529470128E+03 0.  0.
         25    2    3    3    0    0 -0.49012640066E+02  0.92649198586E+00  0.46448271448E+02  0.14106777916E+03  0.12385305455E+03 0.  0.
         25    2    3    3    0    0  0.49012640066E+02 -0.92649198586E+00  0.12879619576E+03  0.18527222121E+03  0.12383149291E+03 0.  0.
          5    1    4    4  502    0 -0.42601850905E+02  0.48319184582E+02  0.63015942428E+02  0.90237244524E+02  0.47000000000E+01 0. -1.
         -5    1    4    4    0  502 -0.64107891610E+01 -0.47392692596E+02 -0.16567670980E+02  0.50830534631E+02  0.47000000000E+01 0. -1.
          5    1    5    5  503    0  0.87852302002E+02  0.15702569459E+02  0.98933483949E+02  0.13332112324E+03  0.47000000000E+01 0.  1.
         -5    1    5    5    0  503 -0.38839661935E+02 -0.16629061445E+02  0.29862711807E+02  0.51951097970E+02  0.47000000000E+01 0.  1.
<mgrwt>
<rscale>  0 0.27529470E+03</rscale>
<asrwt>0</asrwt>
<pdfrwt beam="1">  1        2 0.38583420E-01 0.27529470E+03</pdfrwt>
<pdfrwt beam="2">  1       -2 0.11622733E-01 0.27529470E+03</pdfrwt>
<totfact> 0.68689312E+03</totfact>
</mgrwt>
</event>
<event>
 9    1  0.2031653E-002  0.2763853E+03  0.7818608E-02  0.1097680E+00
          2   -1    0    0  501    0  0.00000000000E+00  0.00000000000E+00  0.36407497442E+03  0.36407497442E+03  0.00000000000E+00 0. -1.
         -2   -1    0    0    0  501 -0.00000000000E+00 -0.00000000000E+00 -0.52454045501E+02  0.52454045501E+02  0.00000000000E+00 0. -1.
         36    2    1    2    0    0 -0.71054273576E-14  0.71054273576E-14  0.31162092892E+03  0.41652901992E+03  0.27638527655E+03 0.  0.
         25    2    3    3    0    0  0.28493305565E+02  0.41970808793E+02  0.18577519202E+03  0.23141587873E+03  0.12832563931E+03 0.  0.
         25    2    3    3    0    0 -0.28493305565E+02 -0.41970808793E+02  0.12584573690E+03  0.18511314120E+03  0.12592183406E+03 0.  0.
          5    1    4    4  502    0  0.70881756462E+02  0.30092352608E+02  0.58970377694E+02  0.97104935662E+02  0.47000000000E+01 0.  1.
         -5    1    4    4    0  502 -0.42388450897E+02  0.11878456185E+02  0.12680481433E+03  0.13431094307E+03  0.47000000000E+01 0.  1.
          5    1    5    5  503    0 -0.62001582706E+02 -0.63627333240E+02  0.57796389009E+02  0.10609027465E+03  0.47000000000E+01 0. -1.
         -5    1    5    5    0  503  0.33508277141E+02  0.21656524447E+02  0.68049347893E+02  0.79022866544E+02  0.47000000000E+01 0. -1.
<mgrwt>
<rscale>  0 0.27638528E+03</rscale>
<asrwt>0</asrwt>
<pdfrwt beam="1">  1        2 0.56011533E-01 0.27638528E+03</pdfrwt>
<pdfrwt beam="2">  1       -2 0.80698534E-02 0.27638528E+03</pdfrwt>
<totfact> 0.82003007E+03</totfact>
</mgrwt>
</event>
<event>
 9    1  0.2031653E-002  0.2743961E+03  0.7818608E-02  0.1098790E+00
         -1   -1    0    0    0  501 -0.00000000000E+00  0.00000000000E+00  0.39632367075E+02  0.39632367075E+02  0.00000000000E+00 0.  1.
          1   -1    0    0  501    0  0.00000000000E+00 -0.00000000000E+00 -0.47494781941E+03  0.47494781941E+03  0.00000000000E+00 0.  1.
         36    2    1    2    0    0  0.00000000000E+00  0.35527136788E-14 -0.43531545233E+03  0.51458018648E+03  0.27439611018E+03 0.  0.
         25    2    3    3    0    0  0.39154855101E+02  0.31569015458E+02 -0.17027844079E+03  0.21781473142E+03  0.12616974443E+03 0.  0.
         25    2    3    3    0    0 -0.39154855101E+02 -0.31569015458E+02 -0.26503701154E+03  0.29676545506E+03  0.12367462317E+03 0.  0.
          5    1    4    4  502    0  0.60048587641E+02  0.30968740316E+01 -0.20259869271E+02  0.63623704775E+02  0.47000000000E+01 0. -1.
         -5    1    4    4    0  502 -0.20893732540E+02  0.28472141427E+02 -0.15001857152E+03  0.15419102665E+03  0.47000000000E+01 0. -1.
          5    1    5    5  503    0 -0.73673720292E+02 -0.73601932324E+01 -0.23023771520E+03  0.24189560767E+03  0.47000000000E+01 0.  1.
         -5    1    5    5    0  503  0.34518865190E+02 -0.24208822226E+02 -0.34799296338E+02  0.54869847395E+02  0.47000000000E+01 0.  1.
<mgrwt>
<rscale>  0 0.27439611E+03</rscale>
<asrwt>0</asrwt>
<pdfrwt beam="1">  1        1 0.73068896E-01 0.27439611E+03</pdfrwt>
<pdfrwt beam="2">  1       -1 0.60972872E-02 0.27439611E+03</pdfrwt>
<totfact> 0.62741708E+03</totfact>
</mgrwt>
</event>
<event>
 9    1  0.2031653E-002  0.2754758E+03  0.7818608E-02  0.1098186E+00
         -3   -1    0    0    0  501 -0.00000000000E+00  0.00000000000E+00  0.82920402610E+02  0.82920402610E+02  0.00000000000E+00 0.  1.
          3   -1    0    0  501    0  0.00000000000E+00 -0.00000000000E+00 -0.22879449037E+03  0.22879449037E+03  0.00000000000E+00 0.  1.
         36    2    1    2    0    0  0.00000000000E+00  0.00000000000E+00 -0.14587408776E+03  0.31171489298E+03  0.27547581568E+03 0.  0.
         25    2    3    3    0    0  0.45291868984E+02  0.11627385375E+02 -0.10538566418E+03  0.17078480908E+03  0.12599509241E+03 0.  0.
         25    2    3    3    0    0 -0.45291868984E+02 -0.11627385375E+02 -0.40488423579E+02  0.14093008390E+03  0.12663106498E+03 0.  0.
          5    1    4    4  502    0 -0.33815190213E+02  0.36379218017E+02 -0.27596007686E+02  0.57013544293E+02  0.47000000000E+01 0. -1.
         -5    1    4    4    0  502  0.79107059197E+02 -0.24751832642E+02 -0.77789656498E+02  0.11377126479E+03  0.47000000000E+01 0. -1.
          5    1    5    5  503    0 -0.37466012542E+02 -0.49053227213E+01 -0.85986949435E+02  0.94040468735E+02  0.47000000000E+01 0.  1.
         -5    1    5    5    0  503 -0.78258564422E+01 -0.67220626537E+01  0.45498525855E+02  0.46889615166E+02  0.47000000000E+01 0.  1.
<mgrwt>
<rscale>  0 0.27547582E+03</rscale>
<asrwt>0</asrwt>
<pdfrwt beam="1">  1        3 0.35199152E-01 0.27547582E+03</pdfrwt>
<pdfrwt beam="2">  1       -3 0.12756985E-01 0.27547582E+03</pdfrwt>
<totfact> 0.98970469E+02</totfact>
</mgrwt>
</event>
<event>
 9    1  0.2031653E-002  0.2747697E+03  0.7818608E-02  0.1098580E+00
         -1   -1    0    0    0  501 -0.00000000000E+00  0.00000000000E+00  0.36370816260E+02  0.36370816260E+02  0.00000000000E+00 0.  1.
          1   -1    0    0  501    0  0.00000000000E+00 -0.00000000000E+00 -0.51894903746E+03  0.51894903746E+03  0.00000000000E+00 0.  1.
         36    2    1    2    0    0 -0.14210854715E-13 -0.71054273576E-14 -0.48257822120E+03  0.55531985372E+03  0.27476972242E+03 0.  0.
         25    2    3    3    0    0  0.46813364956E+02 -0.19576634278E+02 -0.26592359506E+03  0.29764271477E+03  0.12369758082E+03 0.  0.
         25    2    3    3    0    0 -0.46813364956E+02  0.19576634278E+02 -0.21665462615E+03  0.25767713895E+03  0.12993669674E+03 0.  0.
          5    1    4    4  502    0  0.15416432264E+00 -0.52708938938E+02 -0.45267630404E+02  0.69638382900E+02  0.47000000000E+01 0. -1.
         -5    1    4    4    0  502  0.46659200634E+02  0.33132304660E+02 -0.22065596465E+03  0.22800433187E+03  0.47000000000E+01 0. -1.
          5    1    5    5  503    0 -0.63185561651E+02 -0.26305745541E+01 -0.32218980217E+02  0.71130076690E+02  0.47000000000E+01 0. -1.
         -5    1    5    5    0  503  0.16372196695E+02  0.22207208832E+02 -0.18443564593E+03  0.18654706226E+03  0.47000000000E+01 0. -1.
<mgrwt>
<rscale>  0 0.27476972E+03</rscale>
<asrwt>0</asrwt>
<pdfrwt beam="1">  1        1 0.79838309E-01 0.27476972E+03</pdfrwt>
<pdfrwt beam="2">  1       -1 0.55955105E-02 0.27476972E+03</pdfrwt>
<totfact> 0.63490728E+03</totfact>
</mgrwt>
</event>
<event>
 9    1  0.2031653E-002  0.2754690E+03  0.7818608E-02  0.1098190E+00
         -2   -1    0    0    0  501 -0.00000000000E+00  0.00000000000E+00  0.11885377127E+02  0.11885377127E+02  0.00000000000E+00 0. -1.
          2   -1    0    0  501    0  0.00000000000E+00 -0.00000000000E+00 -0.15961450951E+04  0.15961450951E+04  0.00000000000E+00 0. -1.
         36    2    1    2    0    0  0.00000000000E+00  0.00000000000E+00 -0.15842597180E+04  0.16080304723E+04  0.27546895582E+03 0.  0.
         25    2    3    3    0    0  0.22933932214E+02 -0.30937006982E+02 -0.62207620832E+03  0.63725828316E+03  0.13280153184E+03 0.  0.
         25    2    3    3    0    0 -0.22933932214E+02  0.30937006982E+02 -0.96218350968E+03  0.97077218909E+03  0.12295720052E+03 0.  0.
          5    1    4    4  502    0  0.52455258604E+02 -0.10102605092E+02 -0.96326607697E+02  0.11024754934E+03  0.47000000000E+01 0.  1.
         -5    1    4    4    0  502 -0.29521326390E+02 -0.20834401890E+02 -0.52574960062E+03  0.52701073383E+03  0.47000000000E+01 0.  1.
          5    1    5    5  503    0 -0.94403070445E+00  0.28269381393E+01 -0.89087838991E+03  0.89089577302E+03  0.47000000000E+01 0.  1.
         -5    1    5    5    0  503 -0.21989901509E+02  0.28110068842E+02 -0.71305119768E+02  0.79876416068E+02  0.47000000000E+01 0.  1.
<mgrwt>
<rscale>  0 0.27546896E+03</rscale>
<asrwt>0</asrwt>
<pdfrwt beam="1">  1        2 0.24556074E+00 0.27546896E+03</pdfrwt>
<pdfrwt beam="2">  1       -2 0.18285199E-02 0.27546896E+03</pdfrwt>
<totfact> 0.10695841E+04</totfact>
</mgrwt>
</event>
<event>
 9    1  0.2031653E-002  0.2752084E+03  0.7818608E-02  0.1098335E+00
         -1   -1    0    0    0  501 -0.00000000000E+00  0.00000000000E+00  0.94181430310E+01  0.94181430310E+01  0.00000000000E+00 0.  1.
          1   -1    0    0  501    0  0.00000000000E+00 -0.00000000000E+00 -0.20104724384E+04  0.20104724384E+04  0.00000000000E+00 0.  1.
         36    2    1    2    0    0 -0.71054273576E-14  0.00000000000E+00 -0.20010542954E+04  0.20198905815E+04  0.27520840819E+03 0.  0.
         25    2    3    3    0    0  0.12260113114E+02  0.81590652762E+01 -0.61368113514E+03  0.62675586251E+03  0.12649701519E+03 0.  0.
         25    2    3    3    0    0 -0.12260113114E+02 -0.81590652762E+01 -0.13873731603E+04  0.13931347190E+04  0.12571069406E+03 0.  0.
          5    1    4    4  502    0  0.68408489032E+02 -0.64356926294E+01 -0.31193714879E+03  0.31944954893E+03  0.47000000000E+01 0. -1.
         -5    1    4    4    0  502 -0.56148375918E+02  0.14594757906E+02 -0.30174398634E+03  0.30730631359E+03  0.47000000000E+01 0. -1.
          5    1    5    5  503    0 -0.35342592668E+02  0.17120548035E+02 -0.12739792269E+04  0.12745930224E+04  0.47000000000E+01 0. -1.
         -5    1    5    5    0  503  0.23082479553E+02 -0.25279613311E+02 -0.11339393335E+03  0.11854169660E+03  0.47000000000E+01 0. -1.
<mgrwt>
<rscale>  0 0.27520841E+03</rscale>
<asrwt>0</asrwt>
<pdfrwt beam="1">  1        1 0.30930331E+00 0.27520841E+03</pdfrwt>
<pdfrwt beam="2">  1       -1 0.14489458E-02 0.27520841E+03</pdfrwt>
<totfact> 0.36458758E+03</totfact>
</mgrwt>
</event>
<event>
 9    1  0.2031653E-002  0.2802196E+03  0.7818608E-02  0.1095569E+00
         -1   -1    0    0    0  501 -0.00000000000E+00  0.00000000000E+00  0.68620147272E+03  0.68620147272E+03  0.00000000000E+00 0.  1.
          1   -1    0    0  501    0  0.00000000000E+00 -0.00000000000E+00 -0.28607865983E+02  0.28607865983E+02  0.00000000000E+00 0.  1.
         36    2    1    2    0    0  0.00000000000E+00  0.00000000000E+00  0.65759360674E+03  0.71480933871E+03  0.28021962650E+03 0.  0.
         25    2    3    3    0    0  0.59789910441E+02 -0.45942954991E+01  0.23029005166E+03  0.26552531307E+03  0.11778897676E+03 0.  0.
         25    2    3    3    0    0 -0.59789910441E+02  0.45942954991E+01  0.42730355508E+03  0.44928402564E+03  0.12518732589E+03 0.  0.
          5    1    4    4  502    0 -0.21353087345E+01  0.37225857958E+02  0.15443950673E+03  0.15894645414E+03  0.47000000000E+01 0. -1.
         -5    1    4    4    0  502  0.61925219175E+02 -0.41820153457E+02  0.75850544924E+02  0.10657885893E+03  0.47000000000E+01 0. -1.
          5    1    5    5  503    0  0.15525758924E+02  0.48675012479E+02  0.16670601126E+03  0.17442273424E+03  0.47000000000E+01 0.  1.
         -5    1    5    5    0  503 -0.75315669364E+02 -0.44080716980E+02  0.26059754382E+03  0.27486129139E+03  0.47000000000E+01 0.  1.
<mgrwt>
<rscale>  0 0.28021963E+03</rscale>
<asrwt>0</asrwt>
<pdfrwt beam="1">  1        1 0.44012107E-02 0.28021963E+03</pdfrwt>
<pdfrwt beam="2">  1       -1 0.10556945E+00 0.28021963E+03</pdfrwt>
<totfact> 0.17729552E+03</totfact>
</mgrwt>
</event>
<event>
 9    1  0.2031653E-002  0.2751600E+03  0.7818608E-02  0.1098362E+00
          2   -1    0    0  501    0  0.00000000000E+00  0.00000000000E+00  0.94928090316E+03  0.94928090316E+03  0.00000000000E+00 0. -1.
         -2   -1    0    0    0  501 -0.00000000000E+00 -0.00000000000E+00 -0.19939577797E+02  0.19939577797E+02  0.00000000000E+00 0. -1.
         36    2    1    2    0    0  0.35527136788E-14 -0.14210854715E-13  0.92934132537E+03  0.96922048096E+03  0.27516002922E+03 0.  0.
         25    2    3    3    0    0 -0.85254648188E+01 -0.43382486981E+02  0.34244816342E+03  0.36785003408E+03  0.12683918641E+03 0.  0.
         25    2    3    3    0    0  0.85254648188E+01  0.43382486981E+02  0.58689316194E+03  0.60137044688E+03  0.12348322609E+03 0.  0.
          5    1    4    4  502    0 -0.22393786178E+02 -0.75389800705E+02  0.31041737809E+03  0.32025949218E+03  0.47000000000E+01 0. -1.
         -5    1    4    4    0  502  0.13868321359E+02  0.32007313724E+02  0.32030785336E+02  0.47590541901E+02  0.47000000000E+01 0. -1.
          5    1    5    5  503    0  0.31202720402E+02  0.79090178687E+02  0.32146801205E+03  0.33255471564E+03  0.47000000000E+01 0. -1.
         -5    1    5    5    0  503 -0.22677255583E+02 -0.35707691705E+02  0.26542514989E+03  0.26881573124E+03  0.47000000000E+01 0. -1.
<mgrwt>
<rscale>  0 0.27516003E+03</rscale>
<asrwt>0</asrwt>
<pdfrwt beam="1">  1        2 0.14604318E+00 0.27516003E+03</pdfrwt>
<pdfrwt beam="2">  1       -2 0.30676281E-02 0.27516003E+03</pdfrwt>
<totfact> 0.11539998E+04</totfact>
</mgrwt>
</event>
<event>
 9    1  0.2031653E-002  0.2734934E+03  0.7818608E-02  0.1099297E+00
          2   -1    0    0  501    0  0.00000000000E+00  0.00000000000E+00  0.10458484727E+03  0.10458484727E+03  0.00000000000E+00 0. -1.
         -2   -1    0    0    0  501 -0.00000000000E+00 -0.00000000000E+00 -0.17879896103E+03  0.17879896103E+03  0.00000000000E+00 0. -1.
         36    2    1    2    0    0 -0.14210854715E-13 -0.71054273576E-14 -0.74214113757E+02  0.28338380829E+03  0.27349341513E+03 0.  0.
         25    2    3    3    0    0 -0.38680016929E+02 -0.38277881998E+02 -0.24633497846E+02  0.13854030015E+03  0.12500106235E+03 0.  0.
         25    2    3    3    0    0  0.38680016929E+02  0.38277881998E+02 -0.49580615912E+02  0.14484350815E+03  0.12473998725E+03 0.  0.
          5    1    4    4  502    0  0.76936328675E+01  0.40159793369E+02  0.74379926533E+01  0.41826005365E+02  0.47000000000E+01 0.  1.
         -5    1    4    4    0  502 -0.46373649796E+02 -0.78437675367E+02 -0.32071490499E+02  0.96714294782E+02  0.47000000000E+01 0.  1.
          5    1    5    5  503    0  0.14108244682E+02  0.77737462864E+02 -0.35054214394E+01  0.79224577500E+02  0.47000000000E+01 0. -1.
         -5    1    5    5    0  503  0.24571772246E+02 -0.39459580866E+02 -0.46075194472E+02  0.65618930646E+02  0.47000000000E+01 0. -1.
<mgrwt>
<rscale>  0 0.27349342E+03</rscale>
<asrwt>0</asrwt>
<pdfrwt beam="1">  1        2 0.16089977E-01 0.27349342E+03</pdfrwt>
<pdfrwt beam="2">  1       -2 0.27507532E-01 0.27349342E+03</pdfrwt>
<totfact> 0.42655128E+03</totfact>
</mgrwt>
</event>
<event>
 9    1  0.2031653E-002  0.2749314E+03  0.7818608E-02  0.1098490E+00
          2   -1    0    0  501    0  0.00000000000E+00  0.00000000000E+00  0.22090483502E+03  0.22090483502E+03  0.00000000000E+00 0.  1.
         -2   -1    0    0    0  501 -0.00000000000E+00 -0.00000000000E+00 -0.85542802587E+02  0.85542802587E+02  0.00000000000E+00 0.  1.
         36    2    1    2    0    0  0.00000000000E+00 -0.71054273576E-14  0.13536203243E+03  0.30644763760E+03  0.27493140011E+03 0.  0.
         25    2    3    3    0    0  0.45286023337E+02  0.48844513684E+02  0.64903827695E+02  0.15730918207E+03  0.12687419551E+03 0.  0.
         25    2    3    3    0    0 -0.45286023337E+02 -0.48844513684E+02  0.70458204734E+02  0.14913845554E+03  0.11331950352E+03 0.  0.
          5    1    4    4  502    0 -0.12354165351E+02  0.47047027547E+02  0.83316404103E+02  0.96590690003E+02  0.47000000000E+01 0.  1.
         -5    1    4    4    0  502  0.57640188689E+02  0.17974861374E+01 -0.18412576408E+02  0.60718492064E+02  0.47000000000E+01 0.  1.
          5    1    5    5  503    0 -0.53735215282E+02 -0.99050896340E+01 -0.13154414319E+02  0.56397808274E+02  0.47000000000E+01 0. -1.
         -5    1    5    5    0  503  0.84491919446E+01 -0.38939424050E+02  0.83612619053E+02  0.92740647263E+02  0.47000000000E+01 0. -1.
<mgrwt>
<rscale>  0 0.27493140E+03</rscale>
<asrwt>0</asrwt>
<pdfrwt beam="1">  1        2 0.33985359E-01 0.27493140E+03</pdfrwt>
<pdfrwt beam="2">  1       -2 0.13160431E-01 0.27493140E+03</pdfrwt>
<totfact> 0.64448740E+03</totfact>
</mgrwt>
</event>
<event>
 9    1  0.2031653E-002  0.2732225E+03  0.7818608E-02  0.1099449E+00
          2   -1    0    0  501    0  0.00000000000E+00  0.00000000000E+00  0.13181539841E+04  0.13181539841E+04  0.00000000000E+00 0.  1.
         -2   -1    0    0    0  501 -0.00000000000E+00 -0.00000000000E+00 -0.14158154877E+02  0.14158154877E+02  0.00000000000E+00 0.  1.
         36    2    1    2    0    0  0.71054273576E-14  0.71054273576E-14  0.13039958292E+04  0.13323121389E+04  0.27322246070E+03 0.  0.
         25    2    3    3    0    0 -0.47066678355E+02  0.73909970316E+01  0.54273786717E+03  0.55917814756E+03  0.12588053542E+03 0.  0.
         25    2    3    3    0    0  0.47066678355E+02 -0.73909970316E+01  0.76125796202E+03  0.77313399139E+03  0.12630354250E+03 0.  0.
          5    1    4    4  502    0  0.24266693592E+02 -0.31084504773E+02  0.79362171544E+02  0.88744369551E+02  0.47000000000E+01 0. -1.
         -5    1    4    4    0  502 -0.71333371947E+02  0.38475501804E+02  0.46337569562E+03  0.47043377801E+03  0.47000000000E+01 0. -1.
          5    1    5    5  503    0 -0.14556807071E+02 -0.31540423160E+02  0.66129336436E+02  0.74845695017E+02  0.47000000000E+01 0. -1.
         -5    1    5    5    0  503  0.61623485426E+02  0.24149426128E+02  0.69512862558E+03  0.69828829637E+03  0.47000000000E+01 0. -1.
<mgrwt>
<rscale>  0 0.27322246E+03</rscale>
<asrwt>0</asrwt>
<pdfrwt beam="1">  1        2 0.20279282E+00 0.27322246E+03</pdfrwt>
<pdfrwt beam="2">  1       -2 0.21781787E-02 0.27322246E+03</pdfrwt>
<totfact> 0.11673520E+04</totfact>
</mgrwt>
</event>
<event>
 9    1  0.2031653E-002  0.2757612E+03  0.7818608E-02  0.1098027E+00
         -2   -1    0    0    0  501 -0.00000000000E+00  0.00000000000E+00  0.12492292753E+02  0.12492292753E+02  0.00000000000E+00 0.  1.
          2   -1    0    0  501    0  0.00000000000E+00 -0.00000000000E+00 -0.15218233749E+04  0.15218233749E+04  0.00000000000E+00 0.  1.
         36    2    1    2    0    0  0.71054273576E-14  0.00000000000E+00 -0.15093310822E+04  0.15343156677E+04  0.27576122365E+03 0.  0.
         25    2    3    3    0    0  0.56387554380E+02  0.57547864879E+01 -0.61667776368E+03  0.63067613739E+03  0.11936604289E+03 0.  0.
         25    2    3    3    0    0 -0.56387554380E+02 -0.57547864879E+01 -0.89265331847E+03  0.90363953027E+03  0.12853707571E+03 0.  0.
          5    1    4    4  502    0 -0.10901736547E+02 -0.34702823255E+02 -0.36877327624E+03  0.37059270509E+03  0.47000000000E+01 0.  1.
         -5    1    4    4    0  502  0.67289290927E+02  0.40457609743E+02 -0.24790448745E+03  0.26008343230E+03  0.47000000000E+01 0.  1.
          5    1    5    5  503    0 -0.45543926540E+02 -0.60449450702E+02 -0.35069042006E+03  0.35879554911E+03  0.47000000000E+01 0. -1.
         -5    1    5    5    0  503 -0.10843627840E+02  0.54694664214E+02 -0.54196289841E+03  0.54484398116E+03  0.47000000000E+01 0. -1.
<mgrwt>
<rscale>  0 0.27576122E+03</rscale>
<asrwt>0</asrwt>
<pdfrwt beam="1">  1        2 0.23412669E+00 0.27576122E+03</pdfrwt>
<pdfrwt beam="2">  1       -2 0.19218910E-02 0.27576122E+03</pdfrwt>
<totfact> 0.10888922E+04</totfact>
</mgrwt>
</event>
<event>
 9    1  0.2031653E-002  0.2752336E+03  0.7818608E-02  0.1098321E+00
         -2   -1    0    0    0  501 -0.00000000000E+00  0.00000000000E+00  0.46913608790E+02  0.46913608790E+02  0.00000000000E+00 0.  1.
          2   -1    0    0  501    0  0.00000000000E+00 -0.00000000000E+00 -0.40368642285E+03  0.40368642285E+03  0.00000000000E+00 0.  1.
         36    2    1    2    0    0 -0.71054273576E-14  0.00000000000E+00 -0.35677281406E+03  0.45060003164E+03  0.27523362379E+03 0.  0.
         25    2    3    3    0    0  0.57662636682E+02  0.19117542303E+02 -0.16360512295E+03  0.21288810038E+03  0.12191901794E+03 0.  0.
         25    2    3    3    0    0 -0.57662636682E+02 -0.19117542303E+02 -0.19316769111E+03  0.23771193126E+03  0.12451002081E+03 0.  0.
          5    1    4    4  502    0  0.76244192984E+02 -0.50771568912E+01 -0.16509884736E+03  0.18198536723E+03  0.47000000000E+01 0.  1.
         -5    1    4    4    0  502 -0.18581556302E+02  0.24194699194E+02  0.14937244078E+01  0.30902733153E+02  0.47000000000E+01 0.  1.
          5    1    5    5  503    0  0.33570118348E+02 -0.52076158860E+01 -0.15893263705E+02  0.37798914539E+02  0.47000000000E+01 0.  1.
         -5    1    5    5    0  503 -0.91232755030E+02 -0.13909926417E+02 -0.17727442741E+03  0.19991301672E+03  0.47000000000E+01 0.  1.
<mgrwt>
<rscale>  0 0.27523362E+03</rscale>
<asrwt>0</asrwt>
<pdfrwt beam="1">  1        2 0.62105604E-01 0.27523362E+03</pdfrwt>
<pdfrwt beam="2">  1       -2 0.72174782E-02 0.27523362E+03</pdfrwt>
<totfact> 0.87226034E+03</totfact>
</mgrwt>
</event>
<event>
 9    1  0.2031653E-002  0.2732039E+03  0.7818608E-02  0.1099460E+00
          2   -1    0    0  501    0  0.00000000000E+00  0.00000000000E+00  0.50786351581E+02  0.50786351581E+02  0.00000000000E+00 0.  1.
         -2   -1    0    0    0  501 -0.00000000000E+00 -0.00000000000E+00 -0.36742327257E+03  0.36742327257E+03  0.00000000000E+00 0.  1.
         36    2    1    2    0    0  0.00000000000E+00  0.00000000000E+00 -0.31663692099E+03  0.41820962415E+03  0.27320386161E+03 0.  0.
         25    2    3    3    0    0 -0.73414085188E+01 -0.36784846117E+02 -0.90799097309E+02  0.15632468971E+03  0.12159733285E+03 0.  0.
         25    2    3    3    0    0  0.73414085188E+01  0.36784846117E+02 -0.22583782368E+03  0.26188493444E+03  0.12717694406E+03 0.  0.
          5    1    4    4  502    0 -0.51165583095E+02  0.12990157446E+02 -0.14140147981E+02  0.54851571253E+02  0.47000000000E+01 0.  1.
         -5    1    4    4    0  502  0.43824174577E+02 -0.49775003563E+02 -0.76658949328E+02  0.10147311846E+03  0.47000000000E+01 0.  1.
          5    1    5    5  503    0 -0.50161132048E+02  0.44527643987E+02 -0.16249399073E+03  0.17585572857E+03  0.47000000000E+01 0. -1.
         -5    1    5    5    0  503  0.57502540566E+02 -0.77427978700E+01 -0.63343832947E+02  0.86029205872E+02  0.47000000000E+01 0. -1.
<mgrwt>
<rscale>  0 0.27320386E+03</rscale>
<asrwt>0</asrwt>
<pdfrwt beam="1">  1        2 0.78132847E-02 0.27320386E+03</pdfrwt>
<pdfrwt beam="2">  1       -2 0.56526659E-01 0.27320386E+03</pdfrwt>
<totfact> 0.26139251E+03</totfact>
</mgrwt>
</event>
<event>
 9    1  0.2031653E-002  0.2742384E+03  0.7818608E-02  0.1098878E+00
          2   -1    0    0  501    0  0.00000000000E+00  0.00000000000E+00  0.54413446178E+03  0.54413446178E+03  0.00000000000E+00 0. -1.
         -2   -1    0    0    0  501 -0.00000000000E+00 -0.00000000000E+00 -0.34553361735E+02  0.34553361735E+02  0.00000000000E+00 0. -1.
         36    2    1    2    0    0  0.00000000000E+00  0.71054273576E-14  0.50958110005E+03  0.57868782352E+03  0.27423839914E+03 0.  0.
         25    2    3    3    0    0 -0.49389408120E+02  0.41583466815E+02  0.34710675668E+03  0.37441697875E+03  0.12464539741E+03 0.  0.
         25    2    3    3    0    0  0.49389408120E+02 -0.41583466815E+02  0.16247434337E+03  0.20427084477E+03  0.10564169358E+03 0.  0.
          5    1    4    4  502    0  0.35749880924E+02  0.62238073695E+00  0.16839111388E+03  0.17220946135E+03  0.47000000000E+01 0.  1.
         -5    1    4    4    0  502 -0.85139289045E+02  0.40961086078E+02  0.17871564279E+03  0.20220751739E+03  0.47000000000E+01 0.  1.
          5    1    5    5  503    0  0.45576332143E+02  0.46725943534E+00  0.15436220559E+03  0.16101925629E+03  0.47000000000E+01 0.  1.
         -5    1    5    5    0  503  0.38130759776E+01 -0.42050726251E+02  0.81121377838E+01  0.43251588480E+02  0.47000000000E+01 0.  1.
<mgrwt>
<rscale>  0 0.27423840E+03</rscale>
<asrwt>0</asrwt>
<pdfrwt beam="1">  1        2 0.83712988E-01 0.27423840E+03</pdfrwt>
<pdfrwt beam="2">  1       -2 0.53159022E-02 0.27423840E+03</pdfrwt>
<totfact> 0.10022341E+04</totfact>
</mgrwt>
</event>
<event>
 9    1  0.2031653E-002  0.2736870E+03  0.7818608E-02  0.1099188E+00
          1   -1    0    0  501    0  0.00000000000E+00  0.00000000000E+00  0.17833483120E+02  0.17833483120E+02  0.00000000000E+00 0. -1.
         -1   -1    0    0    0  501 -0.00000000000E+00 -0.00000000000E+00 -0.10500556782E+04  0.10500556782E+04  0.00000000000E+00 0. -1.
         36    2    1    2    0    0 -0.71054273576E-14  0.00000000000E+00 -0.10322221951E+04  0.10678891613E+04  0.27368704911E+03 0.  0.
         25    2    3    3    0    0  0.52765358900E+02 -0.20724923091E+02 -0.61260097569E+03  0.62796286415E+03  0.12587175138E+03 0.  0.
         25    2    3    3    0    0 -0.52765358900E+02  0.20724923091E+02 -0.41962121936E+03  0.43992629715E+03  0.11932926567E+03 0.  0.
          5    1    4    4  502    0 -0.21061500201E+02 -0.82434196265E+01 -0.19774488410E+02  0.30408241477E+02  0.47000000000E+01 0. -1.
         -5    1    4    4    0  502  0.73826859101E+02 -0.12481503465E+02 -0.59282648728E+03  0.59755462267E+03  0.47000000000E+01 0. -1.
          5    1    5    5  503    0 -0.45087838957E+02  0.21064653913E+02 -0.42597803066E+03  0.42890092734E+03  0.47000000000E+01 0.  1.
         -5    1    5    5    0  503 -0.76775199425E+01 -0.33973082166E+00  0.63568112985E+01  0.11025369807E+02  0.47000000000E+01 0.  1.
<mgrwt>
<rscale>  0 0.27368705E+03</rscale>
<asrwt>0</asrwt>
<pdfrwt beam="1">  1        1 0.27436123E-02 0.27368705E+03</pdfrwt>
<pdfrwt beam="2">  1       -1 0.16154705E+00 0.27368705E+03</pdfrwt>
<totfact> 0.11979275E+03</totfact>
</mgrwt>
</event>
<event>
 9    1  0.2031653E-002  0.2752739E+03  0.7818608E-02  0.1098299E+00
          2   -1    0    0  501    0  0.00000000000E+00  0.00000000000E+00  0.10930948243E+03  0.10930948243E+03  0.00000000000E+00 0. -1.
         -2   -1    0    0    0  501 -0.00000000000E+00 -0.00000000000E+00 -0.17330540981E+03  0.17330540981E+03  0.00000000000E+00 0. -1.
         36    2    1    2    0    0  0.00000000000E+00  0.00000000000E+00 -0.63995927383E+02  0.28261489224E+03  0.27527386108E+03 0.  0.
         25    2    3    3    0    0 -0.12061716617E+02  0.27301317813E+02  0.18129069911E+02  0.12716059653E+03  0.12227144872E+03 0.  0.
         25    2    3    3    0    0  0.12061716617E+02 -0.27301317813E+02 -0.82124997294E+02  0.15545429571E+03  0.12857167616E+03 0.  0.
          5    1    4    4  502    0 -0.18744503346E+02  0.74914805757E+02  0.77999198132E+01  0.77759329192E+02  0.47000000000E+01 0. -1.
         -5    1    4    4    0  502  0.66827867292E+01 -0.47613487945E+02  0.10329150098E+02  0.49401267337E+02  0.47000000000E+01 0. -1.
          5    1    5    5  503    0  0.26977329336E+02  0.21607811761E+02 -0.96102620388E+02  0.10223735850E+03  0.47000000000E+01 0. -1.
         -5    1    5    5    0  503 -0.14915612719E+02 -0.48909129574E+02  0.13977623094E+02  0.53216937208E+02  0.47000000000E+01 0. -1.
<mgrwt>
<rscale>  0 0.27527386E+03</rscale>
<asrwt>0</asrwt>
<pdfrwt beam="1">  1        2 0.16816843E-01 0.27527386E+03</pdfrwt>
<pdfrwt beam="2">  1       -2 0.26662371E-01 0.27527386E+03</pdfrwt>
<totfact> 0.42832598E+03</totfact>
</mgrwt>
</event>
<event>
 9    1  0.2031653E-002  0.2773313E+03  0.7818608E-02  0.1097156E+00
         -1   -1    0    0    0  501 -0.00000000000E+00  0.00000000000E+00  0.75796655615E+01  0.75796655615E+01  0.00000000000E+00 0.  1.
          1   -1    0    0  501    0  0.00000000000E+00 -0.00000000000E+00 -0.25368090666E+04  0.25368090666E+04  0.00000000000E+00 0.  1.
         36    2    1    2    0    0  0.71054273576E-14 -0.71054273576E-14 -0.25292294010E+04  0.25443887321E+04  0.27733131318E+03 0.  0.
         25    2    3    3    0    0 -0.49708940687E+02 -0.19652363814E+02 -0.11508807427E+04  0.11594561083E+04  0.13021055647E+03 0.  0.
         25    2    3    3    0    0  0.49708940687E+02  0.19652363814E+02 -0.13783486583E+04  0.13849326238E+04  0.12383922822E+03 0.  0.
          5    1    4    4  502    0 -0.34489415808E+02  0.40178047489E+02 -0.87937574077E+03  0.88098103201E+03  0.47000000000E+01 0. -1.
         -5    1    4    4    0  502 -0.15219524879E+02 -0.59830411302E+02 -0.27150500191E+03  0.27847507629E+03  0.47000000000E+01 0. -1.
          5    1    5    5  503    0  0.75211056566E+01  0.17050839991E+02 -0.28271291419E+02  0.34185583119E+02  0.47000000000E+01 0.  1.
         -5    1    5    5    0  503  0.42187835031E+02  0.26015238230E+01 -0.13500773669E+04  0.13507470407E+04  0.47000000000E+01 0.  1.
<mgrwt>
<rscale>  0 0.27733131E+03</rscale>
<asrwt>0</asrwt>
<pdfrwt beam="1">  1        1 0.39027840E+00 0.27733131E+03</pdfrwt>
<pdfrwt beam="2">  1       -1 0.11661022E-02 0.27733131E+03</pdfrwt>
<totfact> 0.22556486E+03</totfact>
</mgrwt>
</event>
<event>
 9    1  0.2031653E-002  0.2738582E+03  0.7818608E-02  0.1099092E+00
          1   -1    0    0  501    0  0.00000000000E+00  0.00000000000E+00  0.14070278440E+03  0.14070278440E+03  0.00000000000E+00 0. -1.
         -1   -1    0    0    0  501 -0.00000000000E+00 -0.00000000000E+00 -0.13325658157E+03  0.13325658157E+03  0.00000000000E+00 0. -1.
         36    2    1    2    0    0  0.00000000000E+00  0.35527136788E-14  0.74462028322E+01  0.27395936597E+03  0.27385815355E+03 0.  0.
         25    2    3    3    0    0 -0.49225606526E+02  0.19106886782E+02  0.16823824137E+02  0.13812687438E+03  0.12652177246E+03 0.  0.
         25    2    3    3    0    0  0.49225606526E+02 -0.19106886782E+02 -0.93776213047E+01  0.13583249160E+03  0.12479700530E+03 0.  0.
          5    1    4    4  502    0 -0.86502096040E+02  0.15349342658E+02 -0.14375622122E+02  0.89145742752E+02  0.47000000000E+01 0. -1.
         -5    1    4    4    0  502  0.37276489514E+02  0.37575441240E+01  0.31199446259E+02  0.48981131624E+02  0.47000000000E+01 0. -1.
          5    1    5    5  503    0  0.59332668225E+02  0.42008203388E+02  0.95171267971E+00  0.72856368476E+02  0.47000000000E+01 0.  1.
         -5    1    5    5    0  503 -0.10107061699E+02 -0.61115090170E+02 -0.10329333984E+02  0.62976123120E+02  0.47000000000E+01 0.  1.
<mgrwt>
<rscale>  0 0.27385815E+03</rscale>
<asrwt>0</asrwt>
<pdfrwt beam="1">  1        1 0.21646582E-01 0.27385815E+03</pdfrwt>
<pdfrwt beam="2">  1       -1 0.20501013E-01 0.27385815E+03</pdfrwt>
<totfact> 0.44318040E+03</totfact>
</mgrwt>
</event>
<event>
 9    1  0.2031653E-002  0.2776708E+03  0.7818608E-02  0.1096968E+00
          2   -1    0    0  501    0  0.00000000000E+00  0.00000000000E+00  0.29563595880E+03  0.29563595880E+03  0.00000000000E+00 0.  1.
         -2   -1    0    0    0  501 -0.00000000000E+00 -0.00000000000E+00 -0.65199334804E+02  0.65199334804E+02  0.00000000000E+00 0.  1.
         36    2    1    2    0    0  0.00000000000E+00  0.00000000000E+00  0.23043662400E+03  0.36083529361E+03  0.27767079687E+03 0.  0.
         25    2    3    3    0    0  0.46330012637E+02  0.29744301359E+02  0.15989684594E+03  0.21072863394E+03  0.12573130989E+03 0.  0.
         25    2    3    3    0    0 -0.46330012637E+02 -0.29744301359E+02  0.70539778060E+02  0.15010665966E+03  0.12051952312E+03 0.  0.
          5    1    4    4  502    0  0.72530121101E+02  0.12395479177E+02  0.34563937150E+02  0.81431088181E+02  0.47000000000E+01 0. -1.
         -5    1    4    4    0  502 -0.26200108464E+02  0.17348822182E+02  0.12533290879E+03  0.12929754576E+03  0.47000000000E+01 0. -1.
          5    1    5    5  503    0 -0.35056673193E+02 -0.76044364241E+02  0.52458028758E+02  0.98922446640E+02  0.47000000000E+01 0. -1.
         -5    1    5    5    0  503 -0.11273339444E+02  0.46300062882E+02  0.18081749303E+02  0.51184213024E+02  0.47000000000E+01 0. -1.
<mgrwt>
<rscale>  0 0.27767080E+03</rscale>
<asrwt>0</asrwt>
<pdfrwt beam="1">  1        2 0.45482454E-01 0.27767080E+03</pdfrwt>
<pdfrwt beam="2">  1       -2 0.10030667E-01 0.27767080E+03</pdfrwt>
<totfact> 0.72852884E+03</totfact>
</mgrwt>
</event>
<event>
 9    1  0.2031653E-002  0.2762063E+03  0.7818608E-02  0.1097779E+00
         -2   -1    0    0    0  501 -0.00000000000E+00  0.00000000000E+00  0.11122731270E+03  0.11122731270E+03  0.00000000000E+00 0. -1.
          2   -1    0    0  501    0  0.00000000000E+00 -0.00000000000E+00 -0.17147293054E+03  0.17147293054E+03  0.00000000000E+00 0. -1.
         36    2    1    2    0    0  0.00000000000E+00  0.14210854715E-13 -0.60245617840E+02  0.28270024323E+03  0.27620625094E+03 0.  0.
         25    2    3    3    0    0  0.58076774543E+01 -0.47059028513E+02  0.45242532539E+01  0.13299872927E+03  0.12417693763E+03 0.  0.
         25    2    3    3    0    0 -0.58076774543E+01  0.47059028513E+02 -0.64769871094E+02  0.14970151396E+03  0.12636109290E+03 0.  0.
          5    1    4    4  502    0 -0.50521123697E+02  0.89478161754E+01  0.12531568145E+02  0.53024310972E+02  0.47000000000E+01 0.  1.
         -5    1    4    4    0  502  0.56328801151E+02 -0.56006844688E+02 -0.80073148910E+01  0.79974418302E+02  0.47000000000E+01 0.  1.
          5    1    5    5  503    0 -0.21860909415E+02  0.29312942588E+02 -0.10015591750E+03  0.10672603138E+03  0.47000000000E+01 0.  1.
         -5    1    5    5    0  503  0.16053231961E+02  0.17746085925E+02  0.35386046411E+02  0.42975482576E+02  0.47000000000E+01 0.  1.
<mgrwt>
<rscale>  0 0.27620625E+03</rscale>
<asrwt>0</asrwt>
<pdfrwt beam="1">  1        2 0.26380451E-01 0.27620625E+03</pdfrwt>
<pdfrwt beam="2">  1       -2 0.17111894E-01 0.27620625E+03</pdfrwt>
<totfact> 0.55165623E+03</totfact>
</mgrwt>
</event>
<event>
 9    1  0.2031653E-002  0.2691269E+03  0.7818608E-02  0.1101780E+00
          2   -1    0    0  501    0  0.00000000000E+00  0.00000000000E+00  0.11716957992E+04  0.11716957992E+04  0.00000000000E+00 0.  1.
         -2   -1    0    0    0  501 -0.00000000000E+00 -0.00000000000E+00 -0.15453949905E+02  0.15453949905E+02  0.00000000000E+00 0.  1.
         36    2    1    2    0    0  0.00000000000E+00 -0.35527136788E-14  0.11562418493E+04  0.11871497491E+04  0.26912694540E+03 0.  0.
         25    2    3    3    0    0  0.19746721903E+02  0.28594195384E+01  0.78190254058E+03  0.79179962201E+03  0.12319476100E+03 0.  0.
         25    2    3    3    0    0 -0.19746721903E+02 -0.28594195384E+01  0.37433930873E+03  0.39535012712E+03  0.12559337420E+03 0.  0.
          5    1    4    4  502    0 -0.35831003679E+02 -0.34940599784E+02  0.47129573562E+03  0.47396884576E+03  0.47000000000E+01 0. -1.
         -5    1    4    4    0  502  0.55577725583E+02  0.37800019322E+02  0.31060680497E+03  0.31783077625E+03  0.47000000000E+01 0. -1.
          5    1    5    5  503    0  0.67253239924E+01 -0.16944402974E+02 -0.93576473335E+00  0.18849626803E+02  0.47000000000E+01 0. -1.
         -5    1    5    5    0  503 -0.26472045896E+02  0.14084983436E+02  0.37527507347E+03  0.37650050032E+03  0.47000000000E+01 0. -1.
<mgrwt>
<rscale>  0 0.26912695E+03</rscale>
<asrwt>0</asrwt>
<pdfrwt beam="1">  1        2 0.18026082E+00 0.26912695E+03</pdfrwt>
<pdfrwt beam="2">  1       -2 0.23775317E-02 0.26912695E+03</pdfrwt>
<totfact> 0.12391047E+04</totfact>
</mgrwt>
</event>
<event>
 9    1  0.2031653E-002  0.2746936E+03  0.7818608E-02  0.1098623E+00
         -3   -1    0    0    0  501 -0.00000000000E+00  0.00000000000E+00  0.13765677712E+03  0.13765677712E+03  0.00000000000E+00 0. -1.
          3   -1    0    0  501    0  0.00000000000E+00 -0.00000000000E+00 -0.13703752552E+03  0.13703752552E+03  0.00000000000E+00 0. -1.
         36    2    1    2    0    0  0.00000000000E+00  0.00000000000E+00  0.61925160583E+00  0.27469430264E+03  0.27469360464E+03 0.  0.
         25    2    3    3    0    0  0.17140695906E+02 -0.42557875458E+02 -0.31997186729E+02  0.13622864824E+03  0.12421533087E+03 0.  0.
         25    2    3    3    0    0 -0.17140695906E+02  0.42557875458E+02  0.32616438335E+02  0.13846565440E+03  0.12650663690E+03 0.  0.
          5    1    4    4  502    0  0.60928552380E+02 -0.52914073403E+02 -0.32334999753E-01  0.80834885444E+02  0.47000000000E+01 0.  1.
         -5    1    4    4    0  502 -0.43787856474E+02  0.10356197945E+02 -0.31964851729E+02  0.55393762795E+02  0.47000000000E+01 0.  1.
          5    1    5    5  503    0 -0.55310994632E+02  0.99212120054E+01 -0.25178093809E+02  0.61755671664E+02  0.47000000000E+01 0. -1.
         -5    1    5    5    0  503  0.38170298726E+02  0.32636663453E+02  0.57794532144E+02  0.76709982739E+02  0.47000000000E+01 0. -1.
<mgrwt>
<rscale>  0 0.27469360E+03</rscale>
<asrwt>0</asrwt>
<pdfrwt beam="1">  1        3 0.21082696E-01 0.27469360E+03</pdfrwt>
<pdfrwt beam="2">  1       -3 0.21177966E-01 0.27469360E+03</pdfrwt>
<totfact> 0.10529610E+03</totfact>
</mgrwt>
</event>
<event>
 9    1  0.2031653E-002  0.2838959E+03  0.7818608E-02  0.1093580E+00
         -1   -1    0    0    0  501 -0.00000000000E+00  0.00000000000E+00  0.69322726461E+03  0.69322726461E+03  0.00000000000E+00 0. -1.
          1   -1    0    0  501    0  0.00000000000E+00 -0.00000000000E+00 -0.29065818686E+02  0.29065818686E+02  0.00000000000E+00 0. -1.
         36    2    1    2    0    0  0.00000000000E+00  0.71054273576E-14  0.66416144592E+03  0.72229308329E+03  0.28389588219E+03 0.  0.
         25    2    3    3    0    0  0.36599899693E+02  0.53033036749E+02  0.27077958244E+03  0.30474625900E+03  0.12408321589E+03 0.  0.
         25    2    3    3    0    0 -0.36599899693E+02 -0.53033036749E+02  0.39338186348E+03  0.41754682429E+03  0.12427390842E+03 0.  0.
          5    1    4    4  502    0  0.89371379487E+01  0.58783568302E+02  0.39134441260E+02  0.71337050891E+02  0.47000000000E+01 0.  1.
         -5    1    4    4    0  502  0.27662761745E+02 -0.57505315530E+01  0.23164514118E+03  0.23340920811E+03  0.47000000000E+01 0.  1.
          5    1    5    5  503    0  0.44915846328E+02 -0.28940850894E+02  0.12607093213E+03  0.13700721160E+03  0.47000000000E+01 0.  1.
         -5    1    5    5    0  503 -0.81515746021E+02 -0.24092185855E+02  0.26731093135E+03  0.28053961269E+03  0.47000000000E+01 0.  1.
<mgrwt>
<rscale>  0 0.28389588E+03</rscale>
<asrwt>0</asrwt>
<pdfrwt beam="1">  1        1 0.44716649E-02 0.28389588E+03</pdfrwt>
<pdfrwt beam="2">  1       -1 0.10665034E+00 0.28389588E+03</pdfrwt>
<totfact> 0.16947662E+03</totfact>
</mgrwt>
</event>
<event>
 9    1  0.2031653E-002  0.2748102E+03  0.7818608E-02  0.1098558E+00
          2   -1    0    0  501    0  0.00000000000E+00  0.00000000000E+00  0.16696190063E+04  0.16696190063E+04  0.00000000000E+00 0. -1.
         -2   -1    0    0    0  501 -0.00000000000E+00 -0.00000000000E+00 -0.11308064537E+02  0.11308064537E+02  0.00000000000E+00 0. -1.
         36    2    1    2    0    0 -0.71054273576E-14 -0.35527136788E-14  0.16583109418E+04  0.16809270708E+04  0.27481018523E+03 0.  0.
         25    2    3    3    0    0 -0.23153078697E+01 -0.26592231354E+02  0.10657123280E+04  0.10734477062E+04  0.12583602167E+03 0.  0.
         25    2    3    3    0    0  0.23153078697E+01  0.26592231354E+02  0.59259861373E+03  0.60747936467E+03  0.13094103283E+03 0.  0.
          5    1    4    4  502    0  0.24869634649E+02 -0.13753224535E+02  0.53363012789E+02  0.60641166270E+02  0.47000000000E+01 0. -1.
         -5    1    4    4    0  502 -0.27184942519E+02 -0.12839006819E+02  0.10123493152E+04  0.10128065399E+04  0.47000000000E+01 0. -1.
          5    1    5    5  503    0 -0.62669258352E+02 -0.10248119639E+01  0.27425418936E+03  0.28136441950E+03  0.47000000000E+01 0. -1.
         -5    1    5    5    0  503  0.64984566222E+02  0.27617043317E+02  0.31834442438E+03  0.32611494516E+03  0.47000000000E+01 0. -1.
<mgrwt>
<rscale>  0 0.27481019E+03</rscale>
<asrwt>0</asrwt>
<pdfrwt beam="1">  1        2 0.25686427E+00 0.27481019E+03</pdfrwt>
<pdfrwt beam="2">  1       -2 0.17397036E-02 0.27481019E+03</pdfrwt>
<totfact> 0.10521711E+04</totfact>
</mgrwt>
</event>
<event>
 9    1  0.2031653E-002  0.2751381E+03  0.7818608E-02  0.1098374E+00
         -3   -1    0    0    0  501 -0.00000000000E+00  0.00000000000E+00  0.12627200013E+04  0.12627200013E+04  0.00000000000E+00 0. -1.
          3   -1    0    0  501    0  0.00000000000E+00 -0.00000000000E+00 -0.14987675192E+02  0.14987675192E+02  0.00000000000E+00 0. -1.
         36    2    1    2    0    0 -0.71054273576E-14  0.35527136788E-14  0.12477323261E+04  0.12777076765E+04  0.27513805435E+03 0.  0.
         25    2    3    3    0    0  0.46995178395E+02 -0.50960067824E+01  0.45899034260E+03  0.47762724679E+03  0.12337396891E+03 0.  0.
         25    2    3    3    0    0 -0.46995178395E+02  0.50960067824E+01  0.78874198349E+03  0.80008042968E+03  0.12561951025E+03 0.  0.
          5    1    4    4  502    0  0.62273675478E+02  0.39303480771E+02  0.17778467207E+03  0.19248962019E+03  0.47000000000E+01 0. -1.
         -5    1    4    4    0  502 -0.15278497083E+02 -0.44399487553E+02  0.28120567053E+03  0.28513762660E+03  0.47000000000E+01 0. -1.
          5    1    5    5  503    0 -0.44500055043E+02  0.29125110938E+02  0.12553821704E+03  0.13642016318E+03  0.47000000000E+01 0. -1.
         -5    1    5    5    0  503 -0.24951233524E+01 -0.24029104155E+02  0.66320376646E+03  0.66366026650E+03  0.47000000000E+01 0. -1.
<mgrwt>
<rscale>  0 0.27513805E+03</rscale>
<asrwt>0</asrwt>
<pdfrwt beam="1">  1        3 0.23057972E-02 0.27513805E+03</pdfrwt>
<pdfrwt beam="2">  1       -3 0.19426453E+00 0.27513805E+03</pdfrwt>
<totfact> 0.33532196E+02</totfact>
</mgrwt>
</event>
<event>
 9    1  0.2031653E-002  0.2746616E+03  0.7818608E-02  0.1098641E+00
          1   -1    0    0  501    0  0.00000000000E+00  0.00000000000E+00  0.11823872789E+04  0.11823872789E+04  0.00000000000E+00 0.  1.
         -1   -1    0    0    0  501 -0.00000000000E+00 -0.00000000000E+00 -0.15950573202E+02  0.15950573202E+02  0.00000000000E+00 0.  1.
         36    2    1    2    0    0 -0.71054273576E-14  0.00000000000E+00  0.11664367057E+04  0.11983378521E+04  0.27466164526E+03 0.  0.
         25    2    3    3    0    0  0.52158473317E+02  0.99594427394E+01  0.58909257248E+03  0.60550869702E+03  0.12958019285E+03 0.  0.
         25    2    3    3    0    0 -0.52158473317E+02 -0.99594427394E+01  0.57734413320E+03  0.59282915506E+03  0.12369503674E+03 0.  0.
          5    1    4    4  502    0  0.81491498079E+02 -0.32293393972E+02  0.39736584776E+03  0.40694647624E+03  0.47000000000E+01 0. -1.
         -5    1    4    4    0  502 -0.29333024761E+02  0.42252836712E+02  0.19172672472E+03  0.19856222078E+03  0.47000000000E+01 0. -1.
          5    1    5    5  503    0 -0.60775404356E+01  0.49472032008E+02  0.13239170342E+03  0.14154176621E+03  0.47000000000E+01 0.  1.
         -5    1    5    5    0  503 -0.46080932882E+02 -0.59431474748E+02  0.44495242978E+03  0.45128738885E+03  0.47000000000E+01 0.  1.
<mgrwt>
<rscale>  0 0.27466165E+03</rscale>
<asrwt>0</asrwt>
<pdfrwt beam="1">  1        1 0.18190567E+00 0.27466165E+03</pdfrwt>
<pdfrwt beam="2">  1       -1 0.24539353E-02 0.27466165E+03</pdfrwt>
<totfact> 0.59788335E+03</totfact>
</mgrwt>
</event>
<event>
 9    1  0.2031653E-002  0.2761035E+03  0.7818608E-02  0.1097836E+00
          2   -1    0    0  501    0  0.00000000000E+00  0.00000000000E+00  0.22929860923E+02  0.22929860923E+02  0.00000000000E+00 0. -1.
         -2   -1    0    0    0  501 -0.00000000000E+00 -0.00000000000E+00 -0.83115591466E+03  0.83115591466E+03  0.00000000000E+00 0. -1.
         36    2    1    2    0    0  0.26645352591E-14 -0.71054273576E-14 -0.80822605373E+03  0.85408577558E+03  0.27610352789E+03 0.  0.
         25    2    3    3    0    0  0.10219812733E+01 -0.56175813459E+02 -0.50996455400E+03  0.52635119291E+03  0.11757961336E+03 0.  0.
         25    2    3    3    0    0 -0.10219812733E+01  0.56175813459E+02 -0.29826149973E+03  0.32773458267E+03  0.12366595324E+03 0.  0.
          5    1    4    4  502    0 -0.34459661930E+02  0.23103822965E+02 -0.12927930266E+03  0.13585463934E+03  0.47000000000E+01 0. -1.
         -5    1    4    4    0  502  0.35481643203E+02 -0.79279636425E+02 -0.38068525135E+03  0.39049655357E+03  0.47000000000E+01 0. -1.
          5    1    5    5  503    0  0.26180392231E+01  0.88140696346E+02 -0.13533775884E+03  0.16159837700E+03  0.47000000000E+01 0. -1.
         -5    1    5    5    0  503 -0.36400204964E+01 -0.31964882887E+02 -0.16292374089E+03  0.16613620566E+03  0.47000000000E+01 0. -1.
<mgrwt>
<rscale>  0 0.27610353E+03</rscale>
<asrwt>0</asrwt>
<pdfrwt beam="1">  1        2 0.35276716E-02 0.27610353E+03</pdfrwt>
<pdfrwt beam="2">  1       -2 0.12787012E+00 0.27610353E+03</pdfrwt>
<totfact> 0.11935398E+03</totfact>
</mgrwt>
</event>
<event>
 9    1  0.2031653E-002  0.2746192E+03  0.7818608E-02  0.1098665E+00
          1   -1    0    0  501    0  0.00000000000E+00  0.00000000000E+00  0.37214804966E+03  0.37214804966E+03  0.00000000000E+00 0.  1.
         -1   -1    0    0    0  501 -0.00000000000E+00 -0.00000000000E+00 -0.50662418535E+02  0.50662418535E+02  0.00000000000E+00 0.  1.
         36    2    1    2    0    0  0.00000000000E+00  0.00000000000E+00  0.32148563113E+03  0.42281046820E+03  0.27461915628E+03 0.  0.
         25    2    3    3    0    0  0.50747897110E+01 -0.13794510452E+02  0.87388233190E+02  0.15628606337E+03  0.12873456526E+03 0.  0.
         25    2    3    3    0    0 -0.50747897110E+01  0.13794510452E+02  0.23409739794E+03  0.26652440483E+03  0.12656075474E+03 0.  0.
          5    1    4    4  502    0  0.25128349477E+02 -0.49355919369E+02  0.99039322205E+02  0.11357076238E+03  0.47000000000E+01 0.  1.
         -5    1    4    4    0  502 -0.20053559766E+02  0.35561408917E+02 -0.11651089014E+02  0.42715300990E+02  0.47000000000E+01 0.  1.
          5    1    5    5  503    0  0.42607809489E+02  0.47273483865E+02  0.84321150282E+02  0.10574665050E+03  0.47000000000E+01 0.  1.
         -5    1    5    5    0  503 -0.47682599200E+02 -0.33478973413E+02  0.14977624766E+03  0.16077775434E+03  0.47000000000E+01 0.  1.
<mgrwt>
<rscale>  0 0.27461916E+03</rscale>
<asrwt>0</asrwt>
<pdfrwt beam="1">  1        1 0.57253544E-01 0.27461916E+03</pdfrwt>
<pdfrwt beam="2">  1       -1 0.77942185E-02 0.27461916E+03</pdfrwt>
<totfact> 0.59242740E+03</totfact>
</mgrwt>
</event>
<event>
 9    1  0.2031653E-002  0.2753523E+03  0.7818608E-02  0.1098255E+00
          1   -1    0    0  501    0  0.00000000000E+00  0.00000000000E+00  0.38286986403E+03  0.38286986403E+03  0.00000000000E+00 0. -1.
         -1   -1    0    0    0  501 -0.00000000000E+00 -0.00000000000E+00 -0.49506959273E+02  0.49506959273E+02  0.00000000000E+00 0. -1.
         36    2    1    2    0    0  0.00000000000E+00 -0.35527136788E-14  0.33336290476E+03  0.43237682330E+03  0.27535230353E+03 0.  0.
         25    2    3    3    0    0  0.25321847000E+02  0.11573491273E+02  0.86687105355E+02  0.15766231621E+03  0.12871522864E+03 0.  0.
         25    2    3    3    0    0 -0.25321847000E+02 -0.11573491273E+02  0.24667579940E+03  0.27471450709E+03  0.11766039589E+03 0.  0.
          5    1    4    4  502    0  0.11613131361E+02  0.35246194794E+01 -0.33707027290E+02  0.36132277139E+02  0.47000000000E+01 0. -1.
         -5    1    4    4    0  502  0.13708715639E+02  0.80488717937E+01  0.12039413265E+03  0.12153003907E+03  0.47000000000E+01 0. -1.
          5    1    5    5  503    0 -0.18251517690E+02  0.29732013347E+02  0.22416702214E+03  0.22691420037E+03  0.47000000000E+01 0. -1.
         -5    1    5    5    0  503 -0.70703293107E+01 -0.41305504620E+02  0.22508777260E+02  0.47800306717E+02  0.47000000000E+01 0. -1.
<mgrwt>
<rscale>  0 0.27535230E+03</rscale>
<asrwt>0</asrwt>
<pdfrwt beam="1">  1        1 0.58903054E-01 0.27535230E+03</pdfrwt>
<pdfrwt beam="2">  1       -1 0.76164555E-02 0.27535230E+03</pdfrwt>
<totfact> 0.59186329E+03</totfact>
</mgrwt>
</event>
<event>
 9    1  0.2031653E-002  0.2750848E+03  0.7818608E-02  0.1098404E+00
         -2   -1    0    0    0  501 -0.00000000000E+00  0.00000000000E+00  0.27286584919E+02  0.27286584919E+02  0.00000000000E+00 0.  1.
          2   -1    0    0  501    0  0.00000000000E+00 -0.00000000000E+00 -0.69330458064E+03  0.69330458064E+03  0.00000000000E+00 0.  1.
         36    2    1    2    0    0  0.00000000000E+00  0.00000000000E+00 -0.66601799573E+03  0.72059116556E+03  0.27508481830E+03 0.  0.
         25    2    3    3    0    0 -0.25136193332E+02  0.48650202905E+02 -0.27503515646E+03  0.30671832167E+03  0.12423011349E+03 0.  0.
         25    2    3    3    0    0  0.25136193332E+02 -0.48650202905E+02 -0.39098283926E+03  0.41387284390E+03  0.12419532946E+03 0.  0.
          5    1    4    4  502    0 -0.65497158837E+02  0.47664177375E+02 -0.23900244878E+03  0.25240049949E+03  0.47000000000E+01 0.  1.
         -5    1    4    4    0  502  0.40360965505E+02  0.98602552929E+00 -0.36032707685E+02  0.54317822176E+02  0.47000000000E+01 0.  1.
          5    1    5    5  503    0  0.45953859706E+02 -0.61757165639E+02 -0.12613846095E+03  0.14784690075E+03  0.47000000000E+01 0. -1.
         -5    1    5    5    0  503 -0.20817666375E+02  0.13106962734E+02 -0.26484437831E+03  0.26602594315E+03  0.47000000000E+01 0. -1.
<mgrwt>
<rscale>  0 0.27508482E+03</rscale>
<asrwt>0</asrwt>
<pdfrwt beam="1">  1        2 0.10666224E+00 0.27508482E+03</pdfrwt>
<pdfrwt beam="2">  1       -2 0.41979364E-02 0.27508482E+03</pdfrwt>
<totfact> 0.10797841E+04</totfact>
</mgrwt>
</event>
<event>
 9    1  0.2031653E-002  0.2767066E+03  0.7818608E-02  0.1097501E+00
         -2   -1    0    0    0  501 -0.00000000000E+00  0.00000000000E+00  0.69460599419E+02  0.69460599419E+02  0.00000000000E+00 0.  1.
          2   -1    0    0  501    0  0.00000000000E+00 -0.00000000000E+00 -0.27557551083E+03  0.27557551083E+03  0.00000000000E+00 0.  1.
         36    2    1    2    0    0 -0.71054273576E-14  0.17763568394E-14 -0.20611491141E+03  0.34503611025E+03  0.27670663286E+03 0.  0.
         25    2    3    3    0    0  0.48552993321E+02 -0.51420642308E+01 -0.17214880802E+03  0.21893350579E+03  0.12614608148E+03 0.  0.
         25    2    3    3    0    0 -0.48552993321E+02  0.51420642308E+01 -0.33966103392E+02  0.12610260445E+03  0.11119503894E+03 0.  0.
          5    1    4    4  502    0 -0.21773827168E+02  0.43720632493E+02 -0.71218955223E+02  0.86485969025E+02  0.47000000000E+01 0.  1.
         -5    1    4    4    0  502  0.70326820488E+02 -0.48862696724E+02 -0.10092985279E+03  0.13244753677E+03  0.47000000000E+01 0.  1.
          5    1    5    5  503    0 -0.24472083930E+02  0.87491445909E+01 -0.74244500709E+02  0.78802070458E+02  0.47000000000E+01 0.  1.
         -5    1    5    5    0  503 -0.24080909391E+02 -0.36070803601E+01  0.40278397317E+02  0.47300533995E+02  0.47000000000E+01 0.  1.
<mgrwt>
<rscale>  0 0.27670663E+03</rscale>
<asrwt>0</asrwt>
<pdfrwt beam="1">  1        2 0.42396233E-01 0.27670663E+03</pdfrwt>
<pdfrwt beam="2">  1       -2 0.10686246E-01 0.27670663E+03</pdfrwt>
<totfact> 0.71020812E+03</totfact>
</mgrwt>
</event>
<event>
 9    1  0.2031653E-002  0.2747178E+03  0.7818608E-02  0.1098609E+00
          1   -1    0    0  501    0  0.00000000000E+00  0.00000000000E+00  0.66768390660E+02  0.66768390660E+02  0.00000000000E+00 0.  1.
         -1   -1    0    0    0  501 -0.00000000000E+00 -0.00000000000E+00 -0.28258079093E+03  0.28258079093E+03  0.00000000000E+00 0.  1.
         36    2    1    2    0    0  0.71054273576E-14  0.00000000000E+00 -0.21581240027E+03  0.34934918159E+03  0.27471777985E+03 0.  0.
         25    2    3    3    0    0  0.32036732611E+02  0.22099802335E+02 -0.16831405117E+03  0.21234899363E+03  0.12348166574E+03 0.  0.
         25    2    3    3    0    0 -0.32036732611E+02 -0.22099802335E+02 -0.47498349102E+02  0.13700018796E+03  0.12246715819E+03 0.  0.
          5    1    4    4  502    0 -0.21152172991E+02  0.54311213121E+02 -0.11991105257E+03  0.13340866846E+03  0.47000000000E+01 0.  1.
         -5    1    4    4    0  502  0.53188905602E+02 -0.32211410786E+02 -0.48402998600E+02  0.78940325167E+02  0.47000000000E+01 0.  1.
          5    1    5    5  503    0 -0.77567225966E+02 -0.63983093918E+00 -0.24692782947E+02  0.81540833068E+02  0.47000000000E+01 0.  1.
         -5    1    5    5    0  503  0.45530493355E+02 -0.21459971395E+02 -0.22805566156E+02  0.55459354893E+02  0.47000000000E+01 0.  1.
<mgrwt>
<rscale>  0 0.27471778E+03</rscale>
<asrwt>0</asrwt>
<pdfrwt beam="1">  1        1 0.10272060E-01 0.27471778E+03</pdfrwt>
<pdfrwt beam="2">  1       -1 0.43473967E-01 0.27471778E+03</pdfrwt>
<totfact> 0.32730584E+03</totfact>
</mgrwt>
</event>
<event>
 9    1  0.2031653E-002  0.2673751E+03  0.7818608E-02  0.1102791E+00
         -2   -1    0    0    0  501 -0.00000000000E+00  0.00000000000E+00  0.57319200644E+01  0.57319200644E+01  0.00000000000E+00 0.  1.
          2   -1    0    0  501    0  0.00000000000E+00 -0.00000000000E+00 -0.31180413631E+04  0.31180413631E+04  0.00000000000E+00 0.  1.
         36    2    1    2    0    0  0.71054273576E-14 -0.71054273576E-14 -0.31123094430E+04  0.31237732831E+04  0.26737512114E+03 0.  0.
         25    2    3    3    0    0 -0.21663753808E+02  0.30730414231E+02 -0.13489981654E+04  0.13553197525E+04  0.12522741163E+03 0.  0.
         25    2    3    3    0    0  0.21663753808E+02 -0.30730414231E+02 -0.17633112776E+04  0.17684535307E+04  0.12941233235E+03 0.  0.
          5    1    4    4  502    0 -0.22375977534E+01  0.34595375711E+02 -0.96328916478E+02  0.10248510630E+03  0.47000000000E+01 0. -1.
         -5    1    4    4    0  502 -0.19426156055E+02 -0.38649614801E+01 -0.12526692489E+04  0.12528346462E+04  0.47000000000E+01 0. -1.
          5    1    5    5  503    0 -0.21320633491E+02  0.43571591765E+02 -0.61283548797E+03  0.61477026468E+03  0.47000000000E+01 0.  1.
         -5    1    5    5    0  503  0.42984387300E+02 -0.74302005996E+02 -0.11504757896E+04  0.11536832660E+04  0.47000000000E+01 0.  1.
<mgrwt>
<rscale>  0 0.26737512E+03</rscale>
<asrwt>0</asrwt>
<pdfrwt beam="1">  1        2 0.47969759E+00 0.26737512E+03</pdfrwt>
<pdfrwt beam="2">  1       -2 0.88183584E-03 0.26737512E+03</pdfrwt>
<totfact> 0.45329921E+03</totfact>
</mgrwt>
</event>
<event>
 9    1  0.2031653E-002  0.2774892E+03  0.7818608E-02  0.1097068E+00
          2   -1    0    0  501    0  0.00000000000E+00  0.00000000000E+00  0.25778182776E+02  0.25778182776E+02  0.00000000000E+00 0. -1.
         -2   -1    0    0    0  501 -0.00000000000E+00 -0.00000000000E+00 -0.74675786100E+03  0.74675786100E+03  0.00000000000E+00 0. -1.
         36    2    1    2    0    0  0.00000000000E+00  0.00000000000E+00 -0.72097967822E+03  0.77253604377E+03  0.27748917550E+03 0.  0.
         25    2    3    3    0    0 -0.53206499162E+02  0.39024270549E+02 -0.36125770969E+03  0.38660968033E+03  0.12085564476E+03 0.  0.
         25    2    3    3    0    0  0.53206499162E+02 -0.39024270549E+02 -0.35972196854E+03  0.38592636345E+03  0.12322920965E+03 0.  0.
          5    1    4    4  502    0 -0.29056752974E+02  0.79754002938E+02 -0.17775452263E+03  0.19703744871E+03  0.47000000000E+01 0. -1.
         -5    1    4    4    0  502 -0.24149746189E+02 -0.40729732389E+02 -0.18350318706E+03  0.18957223162E+03  0.47000000000E+01 0. -1.
          5    1    5    5  503    0  0.72561334555E+02 -0.71088003567E+02 -0.27401956507E+03  0.29227976933E+03  0.47000000000E+01 0.  1.
         -5    1    5    5    0  503 -0.19354835392E+02  0.32063733017E+02 -0.85702403470E+02  0.93646594111E+02  0.47000000000E+01 0.  1.
<mgrwt>
<rscale>  0 0.27748918E+03</rscale>
<asrwt>0</asrwt>
<pdfrwt beam="1">  1        2 0.39658741E-02 0.27748918E+03</pdfrwt>
<pdfrwt beam="2">  1       -2 0.11488583E+00 0.27748918E+03</pdfrwt>
<totfact> 0.13231281E+03</totfact>
</mgrwt>
</event>
<event>
 9    1  0.2031653E-002  0.2741781E+03  0.7818608E-02  0.1098912E+00
          2   -1    0    0  501    0  0.00000000000E+00  0.00000000000E+00  0.26243851315E+03  0.26243851315E+03  0.00000000000E+00 0.  1.
         -2   -1    0    0    0  501 -0.00000000000E+00 -0.00000000000E+00 -0.71610718426E+02  0.71610718426E+02  0.00000000000E+00 0.  1.
         36    2    1    2    0    0 -0.71054273576E-14  0.00000000000E+00  0.19082779472E+03  0.33404923157E+03  0.27417812071E+03 0.  0.
         25    2    3    3    0    0  0.32656782880E+02  0.34806861149E+02  0.12853721435E+03  0.18568588056E+03  0.12521760147E+03 0.  0.
         25    2    3    3    0    0 -0.32656782880E+02 -0.34806861149E+02  0.62290580372E+02  0.14836335101E+03  0.12591101806E+03 0.  0.
          5    1    4    4  502    0 -0.31616188498E+02  0.30146236619E+02  0.24476361942E+01  0.44005225603E+02  0.47000000000E+01 0. -1.
         -5    1    4    4    0  502  0.64272971378E+02  0.46606245300E+01  0.12608957816E+03  0.14168065496E+03  0.47000000000E+01 0. -1.
          5    1    5    5  503    0 -0.68745348027E+02 -0.11627336459E+02 -0.31809825521E+01  0.69952315748E+02  0.47000000000E+01 0. -1.
         -5    1    5    5    0  503  0.36088565147E+02 -0.23179524690E+02  0.65471562924E+02  0.78411035262E+02  0.47000000000E+01 0. -1.
<mgrwt>
<rscale>  0 0.27417812E+03</rscale>
<asrwt>0</asrwt>
<pdfrwt beam="1">  1        2 0.40375155E-01 0.27417812E+03</pdfrwt>
<pdfrwt beam="2">  1       -2 0.11017034E-01 0.27417812E+03</pdfrwt>
<totfact> 0.71266585E+03</totfact>
</mgrwt>
</event>
<event>
 9    1  0.2031653E-002  0.2741998E+03  0.7818608E-02  0.1098900E+00
          2   -1    0    0  501    0  0.00000000000E+00  0.00000000000E+00  0.86035755456E+03  0.86035755456E+03  0.00000000000E+00 0.  1.
         -2   -1    0    0    0  501 -0.00000000000E+00 -0.00000000000E+00 -0.21847173802E+02  0.21847173802E+02  0.00000000000E+00 0.  1.
         36    2    1    2    0    0  0.71054273576E-14  0.35527136788E-14  0.83851038076E+03  0.88220472836E+03  0.27419978867E+03 0.  0.
         25    2    3    3    0    0  0.39456720775E+02 -0.61012815681E+01  0.28846015172E+03  0.31696007357E+03  0.12514140264E+03 0.  0.
         25    2    3    3    0    0 -0.39456720775E+02  0.61012815681E+01  0.55005022904E+03  0.56524465479E+03  0.12390402276E+03 0.  0.
          5    1    4    4  502    0  0.65849724448E+02  0.30792750480E+02  0.10418765883E+03  0.12712803760E+03  0.47000000000E+01 0.  1.
         -5    1    4    4    0  502 -0.26393003674E+02 -0.36894032048E+02  0.18427249289E+03  0.18983203597E+03  0.47000000000E+01 0.  1.
          5    1    5    5  503    0  0.25422727753E+02  0.27313833024E+02  0.38131262301E+03  0.38316284661E+03  0.47000000000E+01 0.  1.
         -5    1    5    5    0  503 -0.64879448528E+02 -0.21212551456E+02  0.16873760603E+03  0.18208180818E+03  0.47000000000E+01 0.  1.
<mgrwt>
<rscale>  0 0.27419979E+03</rscale>
<asrwt>0</asrwt>
<pdfrwt beam="1">  1        2 0.13236267E+00 0.27419979E+03</pdfrwt>
<pdfrwt beam="2">  1       -2 0.33611043E-02 0.27419979E+03</pdfrwt>
<totfact> 0.11488819E+04</totfact>
</mgrwt>
</event>
<event>
 9    1  0.2031653E-002  0.2752104E+03  0.7818608E-02  0.1098334E+00
         -1   -1    0    0    0  501 -0.00000000000E+00  0.00000000000E+00  0.90463543968E+03  0.90463543968E+03  0.00000000000E+00 0. -1.
          1   -1    0    0  501    0  0.00000000000E+00 -0.00000000000E+00 -0.20931291115E+02  0.20931291115E+02  0.00000000000E+00 0. -1.
         36    2    1    2    0    0  0.00000000000E+00  0.35527136788E-14  0.88370414856E+03  0.92556673079E+03  0.27521037583E+03 0.  0.
         25    2    3    3    0    0  0.77848008528E+01 -0.19553804605E+02  0.38854714637E+03  0.41454681710E+03  0.14295882000E+03 0.  0.
         25    2    3    3    0    0 -0.77848008528E+01  0.19553804605E+02  0.49515700219E+03  0.51101991369E+03  0.12457102781E+03 0.  0.
          5    1    4    4  502    0  0.24299554514E+02 -0.28363721894E+02  0.15033185587E+02  0.40534623943E+02  0.47000000000E+01 0. -1.
         -5    1    4    4    0  502 -0.16514753661E+02  0.88099172896E+01  0.37351396078E+03  0.37401219316E+03  0.47000000000E+01 0. -1.
          5    1    5    5  503    0 -0.54039637314E+02  0.47066373806E+02  0.25990826764E+03  0.26964777680E+03  0.47000000000E+01 0.  1.
         -5    1    5    5    0  503  0.46254836461E+02 -0.27512569201E+02  0.23524873455E+03  0.24137213689E+03  0.47000000000E+01 0.  1.
<mgrwt>
<rscale>  0 0.27521038E+03</rscale>
<asrwt>0</asrwt>
<pdfrwt beam="1">  1        1 0.32201993E-02 0.27521038E+03</pdfrwt>
<pdfrwt beam="2">  1       -1 0.13917465E+00 0.27521038E+03</pdfrwt>
<totfact> 0.14150335E+03</totfact>
</mgrwt>
</event>
<event>
 9    1  0.2031653E-002  0.2744815E+03  0.7818608E-02  0.1098742E+00
         -2   -1    0    0    0  501 -0.00000000000E+00  0.00000000000E+00  0.33504213525E+02  0.33504213525E+02  0.00000000000E+00 0. -1.
          2   -1    0    0  501    0  0.00000000000E+00 -0.00000000000E+00 -0.56216891246E+03  0.56216891246E+03  0.00000000000E+00 0. -1.
         36    2    1    2    0    0  0.35527136788E-14  0.00000000000E+00 -0.52866469893E+03  0.59567312598E+03  0.27448152783E+03 0.  0.
         25    2    3    3    0    0 -0.24658008565E+02  0.40682238022E+02 -0.33239748281E+03  0.35846911536E+03  0.12549485334E+03 0.  0.
         25    2    3    3    0    0  0.24658008565E+02 -0.40682238022E+02 -0.19626721612E+03  0.23720401062E+03  0.12442612528E+03 0.  0.
          5    1    4    4  502    0  0.28528552649E+02 -0.15743367962E+02 -0.21622256394E+03  0.21871446936E+03  0.47000000000E+01 0. -1.
         -5    1    4    4    0  502 -0.53186561214E+02  0.56425605984E+02 -0.11617491887E+03  0.13975464600E+03  0.47000000000E+01 0. -1.
          5    1    5    5  503    0  0.94426338714E+00 -0.66622611418E+02 -0.18973424559E+03  0.20114829837E+03  0.47000000000E+01 0. -1.
         -5    1    5    5    0  503  0.23713745178E+02  0.25940373395E+02 -0.65329705323E+01  0.36055712255E+02  0.47000000000E+01 0. -1.
<mgrwt>
<rscale>  0 0.27448153E+03</rscale>
<asrwt>0</asrwt>
<pdfrwt beam="1">  1        2 0.86487525E-01 0.27448153E+03</pdfrwt>
<pdfrwt beam="2">  1       -2 0.51544944E-02 0.27448153E+03</pdfrwt>
<totfact> 0.10121336E+04</totfact>
</mgrwt>
</event>
<event>
 9    1  0.2031653E-002  0.2756878E+03  0.7818608E-02  0.1098068E+00
          1   -1    0    0  501    0  0.00000000000E+00  0.00000000000E+00  0.13950572540E+03  0.13950572540E+03  0.00000000000E+00 0. -1.
         -1   -1    0    0    0  501 -0.00000000000E+00 -0.00000000000E+00 -0.13620189306E+03  0.13620189306E+03  0.00000000000E+00 0. -1.
         36    2    1    2    0    0  0.00000000000E+00  0.00000000000E+00  0.33038323351E+01  0.27570761846E+03  0.27568782267E+03 0.  0.
         25    2    3    3    0    0 -0.39522373768E+02  0.16490525171E+02  0.42614314743E+02  0.13896013203E+03  0.12513985386E+03 0.  0.
         25    2    3    3    0    0  0.39522373768E+02 -0.16490525171E+02 -0.39310482408E+02  0.13674748643E+03  0.12377643382E+03 0.  0.
          5    1    4    4  502    0 -0.63692264673E+02  0.25224211410E+02  0.72099229561E+02  0.99565829097E+02  0.47000000000E+01 0.  1.
         -5    1    4    4    0  502  0.24169890905E+02 -0.87336862391E+01 -0.29484914818E+02  0.39394302932E+02  0.47000000000E+01 0.  1.
          5    1    5    5  503    0 -0.36695837001E+02 -0.58195450146E+01 -0.46041265436E+02  0.59349302273E+02  0.47000000000E+01 0. -1.
         -5    1    5    5    0  503  0.76218210769E+02 -0.10670980157E+02  0.67307830287E+01  0.77398184155E+02  0.47000000000E+01 0. -1.
<mgrwt>
<rscale>  0 0.27568782E+03</rscale>
<asrwt>0</asrwt>
<pdfrwt beam="1">  1        1 0.21462419E-01 0.27568782E+03</pdfrwt>
<pdfrwt beam="2">  1       -1 0.20954137E-01 0.27568782E+03</pdfrwt>
<totfact> 0.43245626E+03</totfact>
</mgrwt>
</event>
<event>
 9    1  0.2031653E-002  0.2749599E+03  0.7818608E-02  0.1098474E+00
         -2   -1    0    0    0  501 -0.00000000000E+00  0.00000000000E+00  0.27904088346E+02  0.27904088346E+02  0.00000000000E+00 0. -1.
          2   -1    0    0  501    0  0.00000000000E+00 -0.00000000000E+00 -0.67734628725E+03  0.67734628725E+03  0.00000000000E+00 0. -1.
         36    2    1    2    0    0 -0.71054273576E-14  0.14210854715E-13 -0.64944219891E+03  0.70525037560E+03  0.27495985627E+03 0.  0.
         25    2    3    3    0    0  0.35164280209E+02 -0.53028749208E+02 -0.33576626120E+03  0.36347822183E+03  0.12380977641E+03 0.  0.
         25    2    3    3    0    0 -0.35164280209E+02  0.53028749208E+02 -0.31367593771E+03  0.34177215377E+03  0.11986257279E+03 0.  0.
          5    1    4    4  502    0  0.60615938527E+02  0.52940280904E+01 -0.84480803978E+02  0.10421811252E+03  0.47000000000E+01 0.  1.
         -5    1    4    4    0  502 -0.25451658318E+02 -0.58322777298E+02 -0.25128545723E+03  0.25926010930E+03  0.47000000000E+01 0.  1.
          5    1    5    5  503    0  0.12801205822E+02 -0.31685742378E+02 -0.12138303330E+03  0.12618949209E+03  0.47000000000E+01 0. -1.
         -5    1    5    5    0  503 -0.47965486031E+02  0.84714491585E+02 -0.19229290440E+03  0.21558266168E+03  0.47000000000E+01 0. -1.
<mgrwt>
<rscale>  0 0.27495986E+03</rscale>
<asrwt>0</asrwt>
<pdfrwt beam="1">  1        2 0.10420712E+00 0.27495986E+03</pdfrwt>
<pdfrwt beam="2">  1       -2 0.42929366E-02 0.27495986E+03</pdfrwt>
<totfact> 0.10736519E+04</totfact>
</mgrwt>
</event>
<event>
 9    1  0.2031653E-002  0.2762175E+03  0.7818608E-02  0.1097773E+00
          2   -1    0    0  501    0  0.00000000000E+00  0.00000000000E+00  0.68882498005E+03  0.68882498005E+03  0.00000000000E+00 0.  1.
         -2   -1    0    0    0  501 -0.00000000000E+00 -0.00000000000E+00 -0.27690671647E+02  0.27690671647E+02  0.00000000000E+00 0.  1.
         36    2    1    2    0    0  0.00000000000E+00 -0.71054273576E-14  0.66113430840E+03  0.71651565169E+03  0.27621749651E+03 0.  0.
         25    2    3    3    0    0  0.41600126843E+02  0.14837305312E+02  0.23554946362E+03  0.26925694965E+03  0.12273972030E+03 0.  0.
         25    2    3    3    0    0 -0.41600126843E+02 -0.14837305312E+02  0.42558484478E+03  0.44725870204E+03  0.13025809099E+03 0.  0.
          5    1    4    4  502    0  0.34486634925E+02  0.21031005821E+02  0.79774295087E+01  0.41441049405E+02  0.47000000000E+01 0.  1.
         -5    1    4    4    0  502  0.71134919189E+01 -0.61937005091E+01  0.22757203411E+03  0.22781590024E+03  0.47000000000E+01 0.  1.
          5    1    5    5  503    0 -0.72464774927E+01 -0.70453984347E+02  0.19397268529E+03  0.20655209508E+03  0.47000000000E+01 0.  1.
         -5    1    5    5    0  503 -0.34353649351E+02  0.55616679035E+02  0.23161215949E+03  0.24070660696E+03  0.47000000000E+01 0.  1.
<mgrwt>
<rscale>  0 0.27621750E+03</rscale>
<asrwt>0</asrwt>
<pdfrwt beam="1">  1        2 0.10597306E+00 0.27621750E+03</pdfrwt>
<pdfrwt beam="2">  1       -2 0.42601038E-02 0.27621750E+03</pdfrwt>
<totfact> 0.10645783E+04</totfact>
</mgrwt>
</event>
<event>
 9    1  0.2031653E-002  0.2750793E+03  0.7818608E-02  0.1098407E+00
         -1   -1    0    0    0  501 -0.00000000000E+00  0.00000000000E+00  0.10346710517E+04  0.10346710517E+04  0.00000000000E+00 0. -1.
          1   -1    0    0  501    0  0.00000000000E+00 -0.00000000000E+00 -0.18283257135E+02  0.18283257135E+02  0.00000000000E+00 0. -1.
         36    2    1    2    0    0  0.00000000000E+00  0.71054273576E-14  0.10163877945E+04  0.10529543088E+04  0.27507931138E+03 0.  0.
         25    2    3    3    0    0 -0.27525459634E+02  0.38212411133E+02  0.40670708228E+03  0.42920155912E+03  0.12878465858E+03 0.  0.
         25    2    3    3    0    0  0.27525459634E+02 -0.38212411133E+02  0.60968071225E+03  0.62375274967E+03  0.12304097912E+03 0.  0.
          5    1    4    4  502    0 -0.19064123545E+02  0.70375523574E+02  0.11970658957E+03  0.14024233566E+03  0.47000000000E+01 0.  1.
         -5    1    4    4    0  502 -0.84613360884E+01 -0.32163112440E+02  0.28700049271E+03  0.28895922346E+03  0.47000000000E+01 0.  1.
          5    1    5    5  503    0  0.40001352766E+02 -0.78710110957E+02  0.38024704006E+03  0.39039120285E+03  0.47000000000E+01 0.  1.
         -5    1    5    5    0  503 -0.12475893132E+02  0.40497699824E+02  0.22943367219E+03  0.23336154682E+03  0.47000000000E+01 0.  1.
<mgrwt>
<rscale>  0 0.27507931E+03</rscale>
<asrwt>0</asrwt>
<pdfrwt beam="1">  1        1 0.28128096E-02 0.27507931E+03</pdfrwt>
<pdfrwt beam="2">  1       -1 0.15918012E+00 0.27507931E+03</pdfrwt>
<totfact> 0.12040460E+03</totfact>
</mgrwt>
</event>
<event>
 9    1  0.2031653E-002  0.2746518E+03  0.7818608E-02  0.1098646E+00
         -2   -1    0    0    0  501 -0.00000000000E+00  0.00000000000E+00  0.62755488029E+02  0.62755488029E+02  0.00000000000E+00 0.  1.
          2   -1    0    0  501    0  0.00000000000E+00 -0.00000000000E+00 -0.30050609362E+03  0.30050609362E+03  0.00000000000E+00 0.  1.
         36    2    1    2    0    0  0.71054273576E-14 -0.71054273576E-14 -0.23775060559E+03  0.36326158165E+03  0.27465182731E+03 0.  0.
         25    2    3    3    0    0  0.18859325215E+02 -0.43861493406E+02 -0.67368592513E+02  0.14769312848E+03  0.12245500477E+03 0.  0.
         25    2    3    3    0    0 -0.18859325215E+02  0.43861493406E+02 -0.17038201308E+03  0.21556845317E+03  0.12312685682E+03 0.  0.
          5    1    4    4  502    0 -0.23956211390E+01 -0.11515316506E+02  0.35495589345E+02  0.37687774912E+02  0.47000000000E+01 0.  1.
         -5    1    4    4    0  502  0.21254946354E+02 -0.32346176900E+02 -0.10286418186E+03  0.11000535357E+03  0.47000000000E+01 0.  1.
          5    1    5    5  503    0  0.17035702315E+02  0.62264261604E+02 -0.33680762390E+02  0.72962573842E+02  0.47000000000E+01 0.  1.
         -5    1    5    5    0  503 -0.35895027530E+02 -0.18402768198E+02 -0.13670125069E+03  0.14260587932E+03  0.47000000000E+01 0.  1.
<mgrwt>
<rscale>  0 0.27465183E+03</rscale>
<asrwt>0</asrwt>
<pdfrwt beam="1">  1        2 0.46231706E-01 0.27465183E+03</pdfrwt>
<pdfrwt beam="2">  1       -2 0.96546906E-02 0.27465183E+03</pdfrwt>
<totfact> 0.76027981E+03</totfact>
</mgrwt>
</event>
<event>
 8    1  0.2031653E-002  0.2935481E+03  0.7818608E-02  0.1088511E+00
          2   -1    0    0  501    0  0.00000000000E+00  0.00000000000E+00  0.29541804848E+04  0.29541804848E+04  0.00000000000E+00 0.  1.
         -2   -1    0    0    0  501 -0.00000000000E+00 -0.00000000000E+00 -0.72922513270E+01  0.72922513270E+01  0.00000000000E+00 0.  1.
         25    2    1    2    0    0  0.77941285765E+01 -0.25976185176E+02  0.21516331020E+04  0.21558615493E+04  0.13220629233E+03 0.  0.
         25    2    1    2    0    0 -0.77941285765E+01  0.25976185176E+02  0.79525513151E+03  0.80561118681E+03  0.12586957329E+03 0.  0.
          5    1    3    3  502    0  0.32198788375E+01 -0.11805270890E+02  0.21246168059E+04  0.21246572415E+04  0.47000000000E+01 0. -1.
         -5    1    3    3    0  502  0.45742497390E+01 -0.14170914286E+02  0.27016296094E+02  0.31204307828E+02  0.47000000000E+01 0. -1.
          5    1    4    4  503    0 -0.52597062803E+02 -0.22943478410E+02  0.26370343264E+03  0.26991562497E+03  0.47000000000E+01 0. -1.
         -5    1    4    4    0  503  0.44802934227E+02  0.48919663586E+02  0.53155169887E+03  0.53569556184E+03  0.47000000000E+01 0. -1.
<mgrwt>
<rscale>  0 0.29354813E+03</rscale>
<asrwt>0</asrwt>
<pdfrwt beam="1">  1        2 0.45448835E+00 0.29354813E+03</pdfrwt>
<pdfrwt beam="2">  1       -2 0.11218872E-02 0.29354813E+03</pdfrwt>
<totfact> 0.39940028E+03</totfact>
</mgrwt>
</event>
<event>
 9    1  0.2031653E-002  0.2746287E+03  0.7818608E-02  0.1098659E+00
          1   -1    0    0  501    0  0.00000000000E+00  0.00000000000E+00  0.12391775712E+04  0.12391775712E+04  0.00000000000E+00 0.  1.
         -1   -1    0    0    0  501 -0.00000000000E+00 -0.00000000000E+00 -0.15215927990E+02  0.15215927990E+02  0.00000000000E+00 0.  1.
         36    2    1    2    0    0  0.71054273576E-14 -0.35527136788E-14  0.12239616432E+04  0.12543934992E+04  0.27462874351E+03 0.  0.
         25    2    3    3    0    0  0.40383859271E+02 -0.72488539487E+01  0.41271483723E+03  0.43290456887E+03  0.12405412894E+03 0.  0.
         25    2    3    3    0    0 -0.40383859271E+02  0.72488539487E+01  0.81124680600E+03  0.82148893034E+03  0.12263474406E+03 0.  0.
          5    1    4    4  502    0  0.72988731899E+02  0.18173661134E+02  0.16090580340E+03  0.17768062503E+03  0.47000000000E+01 0. -1.
         -5    1    4    4    0  502 -0.32604872628E+02 -0.25422515083E+02  0.25180903383E+03  0.25522394384E+03  0.47000000000E+01 0. -1.
          5    1    5    5  503    0  0.44111805541E+02  0.21713799645E+01  0.29616163550E+03  0.29947348901E+03  0.47000000000E+01 0. -1.
         -5    1    5    5    0  503 -0.84495664811E+02  0.50774739842E+01  0.51508517051E+03  0.52201544133E+03  0.47000000000E+01 0. -1.
<mgrwt>
<rscale>  0 0.27462874E+03</rscale>
<asrwt>0</asrwt>
<pdfrwt beam="1">  1        1 0.19064262E+00 0.27462874E+03</pdfrwt>
<pdfrwt beam="2">  1       -1 0.23409130E-02 0.27462874E+03</pdfrwt>
<totfact> 0.58484635E+03</totfact>
</mgrwt>
</event>
<event>
 9    1  0.2031653E-002  0.2718108E+03  0.7818608E-02  0.1100248E+00
         -2   -1    0    0    0  501 -0.00000000000E+00  0.00000000000E+00  0.89276256954E+01  0.89276256954E+01  0.00000000000E+00 0. -1.
          2   -1    0    0  501    0  0.00000000000E+00 -0.00000000000E+00 -0.20688902870E+04  0.20688902870E+04  0.00000000000E+00 0. -1.
         36    2    1    2    0    0  0.17763568394E-14  0.71054273576E-14 -0.20599626613E+04  0.20778179127E+04  0.27181080249E+03 0.  0.
         25    2    3    3    0    0  0.98243778101E+01 -0.35919979684E+02 -0.12093189044E+04  0.12166368747E+04  0.12793087615E+03 0.  0.
         25    2    3    3    0    0 -0.98243778101E+01  0.35919979684E+02 -0.85064375695E+03  0.86118103802E+03  0.12903958947E+03 0.  0.
          5    1    4    4  502    0 -0.13142406990E+02 -0.76034865812E+02 -0.95382939629E+03  0.95695696398E+03  0.47000000000E+01 0.  1.
         -5    1    4    4    0  502  0.22966784800E+02  0.40114886128E+02 -0.25548950806E+03  0.25967991070E+03  0.47000000000E+01 0.  1.
          5    1    5    5  503    0  0.97045287017E+01  0.76357820657E+02 -0.69053218064E+03  0.69482478162E+03  0.47000000000E+01 0.  1.
         -5    1    5    5    0  503 -0.19528906512E+02 -0.40437840973E+02 -0.16011157631E+03  0.16635625639E+03  0.47000000000E+01 0.  1.
<mgrwt>
<rscale>  0 0.27181080E+03</rscale>
<asrwt>0</asrwt>
<pdfrwt beam="1">  1        2 0.31829083E+00 0.27181080E+03</pdfrwt>
<pdfrwt beam="2">  1       -2 0.13734808E-02 0.27181080E+03</pdfrwt>
<totfact> 0.91703173E+03</totfact>
</mgrwt>
</event>
<event>
 9    1  0.2031653E-002  0.2756636E+03  0.7818608E-02  0.1098081E+00
          2   -1    0    0  501    0  0.00000000000E+00  0.00000000000E+00  0.31769313439E+03  0.31769313439E+03  0.00000000000E+00 0.  1.
         -2   -1    0    0    0  501 -0.00000000000E+00 -0.00000000000E+00 -0.59798597453E+02  0.59798597453E+02  0.00000000000E+00 0.  1.
         36    2    1    2    0    0  0.00000000000E+00  0.00000000000E+00  0.25789453694E+03  0.37749173185E+03  0.27566359105E+03 0.  0.
         25    2    3    3    0    0  0.39090661350E+02  0.42898234156E+02  0.13309302331E+03  0.19240007444E+03  0.12623667254E+03 0.  0.
         25    2    3    3    0    0 -0.39090661350E+02 -0.42898234156E+02  0.12480151363E+03  0.18509165741E+03  0.12375445664E+03 0.  0.
          5    1    4    4  502    0 -0.44724934654E+02  0.20932672776E+02  0.31356047381E+02  0.58683799099E+02  0.47000000000E+01 0. -1.
         -5    1    4    4    0  502  0.83815596004E+02  0.21965561380E+02  0.10173697593E+03  0.13371627534E+03  0.47000000000E+01 0. -1.
          5    1    5    5  503    0  0.24571953217E+02  0.96544929642E+00  0.10101008370E+03  0.10406651713E+03  0.47000000000E+01 0.  1.
         -5    1    5    5    0  503 -0.63662614567E+02 -0.43863683453E+02  0.23791429933E+02  0.81025140282E+02  0.47000000000E+01 0.  1.
<mgrwt>
<rscale>  0 0.27566359E+03</rscale>
<asrwt>0</asrwt>
<pdfrwt beam="1">  1        2 0.48875866E-01 0.27566359E+03</pdfrwt>
<pdfrwt beam="2">  1       -2 0.91997844E-02 0.27566359E+03</pdfrwt>
<totfact> 0.77305500E+03</totfact>
</mgrwt>
</event>
<event>
 9    1  0.2031653E-002  0.2758230E+03  0.7818608E-02  0.1097992E+00
          1   -1    0    0  501    0  0.00000000000E+00  0.00000000000E+00  0.42650767920E+03  0.42650767920E+03  0.00000000000E+00 0.  1.
         -1   -1    0    0    0  501 -0.00000000000E+00 -0.00000000000E+00 -0.44593746957E+02  0.44593746957E+02  0.00000000000E+00 0.  1.
         36    2    1    2    0    0  0.35527136788E-14 -0.71054273576E-14  0.38191393225E+03  0.47110142616E+03  0.27582295424E+03 0.  0.
         25    2    3    3    0    0  0.14626686184E+02 -0.57970017178E+02  0.17228403708E+03  0.22147434086E+03  0.12567669389E+03 0.  0.
         25    2    3    3    0    0 -0.14626686184E+02  0.57970017178E+02  0.20962989516E+03  0.24962708530E+03  0.12163275023E+03 0.  0.
          5    1    4    4  502    0 -0.23307559782E+02  0.10366939485E+02 -0.61137505037E+01  0.26649272457E+02  0.47000000000E+01 0. -1.
         -5    1    4    4    0  502  0.37934245965E+02 -0.68336956664E+02  0.17839778759E+03  0.19482506840E+03  0.47000000000E+01 0. -1.
          5    1    5    5  503    0  0.17268541470E+02  0.73124522069E+02  0.19851377473E+03  0.21230922498E+03  0.47000000000E+01 0. -1.
         -5    1    5    5    0  503 -0.31895227654E+02 -0.15154504891E+02  0.11116120433E+02  0.37317860323E+02  0.47000000000E+01 0. -1.
<mgrwt>
<rscale>  0 0.27582295E+03</rscale>
<asrwt>0</asrwt>
<pdfrwt beam="1">  1        1 0.65616563E-01 0.27582295E+03</pdfrwt>
<pdfrwt beam="2">  1       -1 0.68605768E-02 0.27582295E+03</pdfrwt>
<totfact> 0.60400375E+03</totfact>
</mgrwt>
</event>
<event>
 9    1  0.2031653E-002  0.2770705E+03  0.7818608E-02  0.1097300E+00
         -2   -1    0    0    0  501 -0.00000000000E+00  0.00000000000E+00  0.37896371435E+02  0.37896371435E+02  0.00000000000E+00 0.  1.
          2   -1    0    0  501    0  0.00000000000E+00 -0.00000000000E+00 -0.50643404830E+03  0.50643404830E+03  0.00000000000E+00 0.  1.
         36    2    1    2    0    0  0.00000000000E+00 -0.88817841970E-15 -0.46853767686E+03  0.54433041973E+03  0.27707048058E+03 0.  0.
         25    2    3    3    0    0 -0.38110283934E+02  0.25749850377E+01 -0.34362840043E+03  0.36765651412E+03  0.12502723903E+03 0.  0.
         25    2    3    3    0    0  0.38110283934E+02 -0.25749850377E+01 -0.12490927643E+03  0.17667390562E+03  0.11896351246E+03 0.  0.
          5    1    4    4  502    0  0.80873405959E+01  0.41918036965E+02 -0.42439504190E+02  0.60379867645E+02  0.47000000000E+01 0.  1.
         -5    1    4    4    0  502 -0.46197624530E+02 -0.39343051928E+02 -0.30118889624E+03  0.30727664647E+03  0.47000000000E+01 0.  1.
          5    1    5    5  503    0  0.20949731558E+01  0.81357187135E+00 -0.13786478447E+03  0.13796318208E+03  0.47000000000E+01 0. -1.
         -5    1    5    5    0  503  0.36015310779E+02 -0.33885569090E+01  0.12955508039E+02  0.38710723540E+02  0.47000000000E+01 0. -1.
<mgrwt>
<rscale>  0 0.27707048E+03</rscale>
<asrwt>0</asrwt>
<pdfrwt beam="1">  1        2 0.77912927E-01 0.27707048E+03</pdfrwt>
<pdfrwt beam="2">  1       -2 0.58302112E-02 0.27707048E+03</pdfrwt>
<totfact> 0.94417824E+03</totfact>
</mgrwt>
</event>
<event>
 9    1  0.2031653E-002  0.2768739E+03  0.7818608E-02  0.1097409E+00
         -2   -1    0    0    0  501 -0.00000000000E+00  0.00000000000E+00  0.16933308387E+02  0.16933308387E+02  0.00000000000E+00 0.  1.
          2   -1    0    0  501    0  0.00000000000E+00 -0.00000000000E+00 -0.11317808225E+04  0.11317808225E+04  0.00000000000E+00 0.  1.
         36    2    1    2    0    0 -0.17763568394E-14  0.00000000000E+00 -0.11148475141E+04  0.11487141309E+04  0.27687393301E+03 0.  0.
         25    2    3    3    0    0 -0.15318664060E+02  0.65177393181E+02 -0.55849279645E+03  0.57572587052E+03  0.12273271872E+03 0.  0.
         25    2    3    3    0    0  0.15318664060E+02 -0.65177393181E+02 -0.55635471768E+03  0.57298826039E+03  0.11959189190E+03 0.  0.
          5    1    4    4  502    0 -0.28558715529E+02  0.86842093850E+02 -0.52751172966E+03  0.53539505454E+03  0.47000000000E+01 0.  1.
         -5    1    4    4    0  502  0.13240051469E+02 -0.21664700669E+02 -0.30981066795E+02  0.40330815981E+02  0.47000000000E+01 0.  1.
          5    1    5    5  503    0 -0.37274988740E+02 -0.74501042313E+02 -0.33837623386E+03  0.34851168665E+03  0.47000000000E+01 0. -1.
         -5    1    5    5    0  503  0.52593652800E+02  0.93236491320E+01 -0.21797848382E+03  0.22447657374E+03  0.47000000000E+01 0. -1.
<mgrwt>
<rscale>  0 0.27687393E+03</rscale>
<asrwt>0</asrwt>
<pdfrwt beam="1">  1        2 0.17412012E+00 0.27687393E+03</pdfrwt>
<pdfrwt beam="2">  1       -2 0.26051245E-02 0.27687393E+03</pdfrwt>
<totfact> 0.11422169E+04</totfact>
</mgrwt>
</event>
<event>
 9    1  0.2031653E-002  0.2702472E+03  0.7818608E-02  0.1101138E+00
         -2   -1    0    0    0  501 -0.00000000000E+00  0.00000000000E+00  0.24807324884E+02  0.24807324884E+02  0.00000000000E+00 0. -1.
          2   -1    0    0  501    0  0.00000000000E+00 -0.00000000000E+00 -0.73600763947E+03  0.73600763947E+03  0.00000000000E+00 0. -1.
         36    2    1    2    0    0  0.00000000000E+00  0.71054273576E-14 -0.71120031459E+03  0.76081496435E+03  0.27024715080E+03 0.  0.
         25    2    3    3    0    0 -0.13163739129E+02 -0.35382405038E+02 -0.46283729326E+03  0.48082631478E+03  0.12470118820E+03 0.  0.
         25    2    3    3    0    0  0.13163739129E+02  0.35382405038E+02 -0.24836302133E+03  0.27998864957E+03  0.12362950664E+03 0.  0.
          5    1    4    4  502    0 -0.21874029892E+02 -0.51253599385E+02 -0.45814065943E+03  0.46154128575E+03  0.47000000000E+01 0. -1.
         -5    1    4    4    0  502  0.87102907629E+01  0.15871194347E+02 -0.46966338294E+01  0.19285029025E+02  0.47000000000E+01 0. -1.
          5    1    5    5  503    0  0.19566838448E+01  0.75180480144E+02 -0.95975608961E+02  0.12202188624E+03  0.47000000000E+01 0. -1.
         -5    1    5    5    0  503  0.11207055284E+02 -0.39798075105E+02 -0.15238741237E+03  0.15796676333E+03  0.47000000000E+01 0. -1.
<mgrwt>
<rscale>  0 0.27024715E+03</rscale>
<asrwt>0</asrwt>
<pdfrwt beam="1">  1        2 0.11323195E+00 0.27024715E+03</pdfrwt>
<pdfrwt beam="2">  1       -2 0.38165112E-02 0.27024715E+03</pdfrwt>
<totfact> 0.11576199E+04</totfact>
</mgrwt>
</event>
<event>
 9    1  0.2031653E-002  0.2761361E+03  0.7818608E-02  0.1097818E+00
          1   -1    0    0  501    0  0.00000000000E+00  0.00000000000E+00  0.15697469131E+03  0.15697469131E+03  0.00000000000E+00 0.  1.
         -1   -1    0    0    0  501 -0.00000000000E+00 -0.00000000000E+00 -0.12143863630E+03  0.12143863630E+03  0.00000000000E+00 0.  1.
         36    2    1    2    0    0  0.71054273576E-14  0.00000000000E+00  0.35536055006E+02  0.27841332761E+03  0.27613614357E+03 0.  0.
         25    2    3    3    0    0  0.40165200634E+02 -0.15426507306E+02  0.56851525012E+02  0.14347589355E+03  0.12450709081E+03 0.  0.
         25    2    3    3    0    0 -0.40165200634E+02  0.15426507306E+02 -0.21315470006E+02  0.13493743407E+03  0.12610527896E+03 0.  0.
          5    1    4    4  502    0  0.76178036980E+02  0.14821667917E+02  0.56671268785E+02  0.96210695162E+02  0.47000000000E+01 0.  1.
         -5    1    4    4    0  502 -0.36012836346E+02 -0.30248175223E+02  0.18025622739E+00  0.47265198384E+02  0.47000000000E+01 0.  1.
          5    1    5    5  503    0 -0.64978975123E+02 -0.74176937225E+01 -0.56074290029E+02  0.86276911109E+02  0.47000000000E+01 0. -1.
         -5    1    5    5    0  503  0.24813774489E+02  0.22844201029E+02  0.34758820023E+02  0.48660522957E+02  0.47000000000E+01 0. -1.
<mgrwt>
<rscale>  0 0.27613614E+03</rscale>
<asrwt>0</asrwt>
<pdfrwt beam="1">  1        1 0.24149953E-01 0.27613614E+03</pdfrwt>
<pdfrwt beam="2">  1       -1 0.18682867E-01 0.27613614E+03</pdfrwt>
<totfact> 0.44808058E+03</totfact>
</mgrwt>
</event>
<event>
 9    1  0.2031653E-002  0.2684398E+03  0.7818608E-02  0.1102176E+00
         -2   -1    0    0    0  501 -0.00000000000E+00  0.00000000000E+00  0.88012168124E+01  0.88012168124E+01  0.00000000000E+00 0.  1.
          2   -1    0    0  501    0  0.00000000000E+00 -0.00000000000E+00 -0.20468740223E+04  0.20468740223E+04  0.00000000000E+00 0.  1.
         36    2    1    2    0    0  0.00000000000E+00  0.00000000000E+00 -0.20380728055E+04  0.20556752392E+04  0.26843980374E+03 0.  0.
         25    2    3    3    0    0  0.37877289312E+02 -0.39251191102E+02 -0.99325643899E+03  0.10024912412E+04  0.12431810012E+03 0.  0.
         25    2    3    3    0    0 -0.37877289312E+02  0.39251191102E+02 -0.10448163665E+04  0.10531839980E+04  0.12074745849E+03 0.  0.
          5    1    4    4  502    0 -0.42434052293E+02 -0.17359715402E+02 -0.51163267496E+03  0.51370428517E+03  0.47000000000E+01 0. -1.
         -5    1    4    4    0  502  0.80311341605E+02 -0.21891475699E+02 -0.48162376403E+03  0.48878695602E+03  0.47000000000E+01 0. -1.
          5    1    5    5  503    0 -0.70450853798E+02  0.14839313959E+02 -0.36090835613E+03  0.36804953412E+03  0.47000000000E+01 0.  1.
         -5    1    5    5    0  503  0.32573564487E+02  0.24411877143E+02 -0.68390801041E+03  0.68513446385E+03  0.47000000000E+01 0.  1.
<mgrwt>
<rscale>  0 0.26843980E+03</rscale>
<asrwt>0</asrwt>
<pdfrwt beam="1">  1        2 0.31490417E+00 0.26843980E+03</pdfrwt>
<pdfrwt beam="2">  1       -2 0.13540313E-02 0.26843980E+03</pdfrwt>
<totfact> 0.96155696E+03</totfact>
</mgrwt>
</event>
<event>
 9    1  0.2031653E-002  0.2750925E+03  0.7818608E-02  0.1098400E+00
          2   -1    0    0  501    0  0.00000000000E+00  0.00000000000E+00  0.49800380321E+03  0.49800380321E+03  0.00000000000E+00 0. -1.
         -2   -1    0    0    0  501 -0.00000000000E+00 -0.00000000000E+00 -0.37989624061E+02  0.37989624061E+02  0.00000000000E+00 0. -1.
         36    2    1    2    0    0  0.00000000000E+00  0.00000000000E+00  0.46001417914E+03  0.53599342727E+03  0.27509254635E+03 0.  0.
         25    2    3    3    0    0  0.24289101704E+02 -0.43805196136E+02  0.29277810081E+03  0.32230811860E+03  0.12511854910E+03 0.  0.
         25    2    3    3    0    0 -0.24289101704E+02  0.43805196136E+02  0.16723607833E+03  0.21368530867E+03  0.12322601014E+03 0.  0.
          5    1    4    4  502    0  0.11274477099E+02 -0.42010551017E+02  0.30227817678E+03  0.30542787428E+03  0.47000000000E+01 0.  1.
         -5    1    4    4    0  502  0.13014624605E+02 -0.17946451197E+01 -0.95000759693E+01  0.16880244315E+02  0.47000000000E+01 0.  1.
          5    1    5    5  503    0 -0.48719755177E+02 -0.76635845037E+01  0.14345688155E+03  0.15177058983E+03  0.47000000000E+01 0.  1.
         -5    1    5    5    0  503  0.24430653473E+02  0.51468780640E+02  0.23779196781E+02  0.61914718842E+02  0.47000000000E+01 0.  1.
<mgrwt>
<rscale>  0 0.27509255E+03</rscale>
<asrwt>0</asrwt>
<pdfrwt beam="1">  1        2 0.76615965E-01 0.27509255E+03</pdfrwt>
<pdfrwt beam="2">  1       -2 0.58445579E-02 0.27509255E+03</pdfrwt>
<totfact> 0.95821615E+03</totfact>
</mgrwt>
</event>
<event>
 9    1  0.2031653E-002  0.2744871E+03  0.7818608E-02  0.1098739E+00
         -2   -1    0    0    0  501 -0.00000000000E+00  0.00000000000E+00  0.54629618071E+02  0.54629618071E+02  0.00000000000E+00 0. -1.
          2   -1    0    0  501    0  0.00000000000E+00 -0.00000000000E+00 -0.34479083430E+03  0.34479083430E+03  0.00000000000E+00 0. -1.
         36    2    1    2    0    0 -0.35527136788E-14  0.00000000000E+00 -0.29016121623E+03  0.39942045237E+03  0.27448709691E+03 0.  0.
         25    2    3    3    0    0 -0.29367785756E+02 -0.42712507493E+02 -0.17168328673E+03  0.21879858219E+03  0.12534290363E+03 0.  0.
         25    2    3    3    0    0  0.29367785756E+02  0.42712507493E+02 -0.11847792950E+03  0.18062187018E+03  0.12609684799E+03 0.  0.
          5    1    4    4  502    0  0.45177231432E+02 -0.10044829465E+02 -0.30056298881E+02  0.55383679376E+02  0.47000000000E+01 0. -1.
         -5    1    4    4    0  502 -0.74545017188E+02 -0.32667678029E+02 -0.14162698785E+03  0.16341490282E+03  0.47000000000E+01 0. -1.
          5    1    5    5  503    0  0.58664796236E+02  0.59631171048E+02 -0.12008969832E+03  0.14642766309E+03  0.47000000000E+01 0. -1.
         -5    1    5    5    0  503 -0.29297010480E+02 -0.16918663555E+02  0.16117688133E+01  0.34194207086E+02  0.47000000000E+01 0. -1.
<mgrwt>
<rscale>  0 0.27448710E+03</rscale>
<asrwt>0</asrwt>
<pdfrwt beam="1">  1        2 0.53044743E-01 0.27448710E+03</pdfrwt>
<pdfrwt beam="2">  1       -2 0.84045568E-02 0.27448710E+03</pdfrwt>
<totfact> 0.81585545E+03</totfact>
</mgrwt>
</event>
<event>
 9    1  0.2031653E-002  0.2762651E+03  0.7818608E-02  0.1097747E+00
          2   -1    0    0  501    0  0.00000000000E+00  0.00000000000E+00  0.20580490534E+04  0.20580490534E+04  0.00000000000E+00 0. -1.
         -2   -1    0    0    0  501 -0.00000000000E+00 -0.00000000000E+00 -0.92712081659E+01  0.92712081659E+01  0.00000000000E+00 0. -1.
         36    2    1    2    0    0  0.71054273576E-14  0.00000000000E+00  0.20487778453E+04  0.20673202616E+04  0.27626509870E+03 0.  0.
         25    2    3    3    0    0 -0.40532668364E+02  0.34915109510E+02  0.13751535892E+04  0.13803357476E+04  0.10685232901E+03 0.  0.
         25    2    3    3    0    0  0.40532668364E+02 -0.34915109510E+02  0.67362425606E+03  0.68698451397E+03  0.12375832092E+03 0.  0.
          5    1    4    4  502    0  0.31843513499E+02  0.31358279416E+02  0.65147307078E+03  0.65302113518E+03  0.47000000000E+01 0.  1.
         -5    1    4    4    0  502 -0.72376181863E+02  0.35568300939E+01  0.72368051843E+03  0.72731461246E+03  0.47000000000E+01 0.  1.
          5    1    5    5  503    0  0.28511652410E+02  0.44505188627E+02  0.31562750117E+03  0.32005692562E+03  0.47000000000E+01 0.  1.
         -5    1    5    5    0  503  0.12021015954E+02 -0.79420298137E+02  0.35799675489E+03  0.36692758835E+03  0.47000000000E+01 0.  1.
<mgrwt>
<rscale>  0 0.27626510E+03</rscale>
<asrwt>0</asrwt>
<pdfrwt beam="1">  1        2 0.31662257E+00 0.27626510E+03</pdfrwt>
<pdfrwt beam="2">  1       -2 0.14263414E-02 0.27626510E+03</pdfrwt>
<totfact> 0.87942814E+03</totfact>
</mgrwt>
</event>
<event>
 9    1  0.2031653E-002  0.2746595E+03  0.7818608E-02  0.1098642E+00
          2   -1    0    0  501    0  0.00000000000E+00  0.00000000000E+00  0.31433983031E+03  0.31433983031E+03  0.00000000000E+00 0.  1.
         -2   -1    0    0    0  501 -0.00000000000E+00 -0.00000000000E+00 -0.59997029464E+02  0.59997029464E+02  0.00000000000E+00 0.  1.
         36    2    1    2    0    0  0.00000000000E+00  0.00000000000E+00  0.25434280084E+03  0.37433685977E+03  0.27465946960E+03 0.  0.
         25    2    3    3    0    0  0.40756160640E+02  0.32865381844E+02  0.16903645638E+03  0.21612821648E+03  0.12408418279E+03 0.  0.
         25    2    3    3    0    0 -0.40756160640E+02 -0.32865381844E+02  0.85306344464E+02  0.15820864329E+03  0.12252185296E+03 0.  0.
          5    1    4    4  502    0  0.62769959869E+02 -0.29226932448E+00  0.16408805567E+03  0.17574735644E+03  0.47000000000E+01 0. -1.
         -5    1    4    4    0  502 -0.22013799229E+02  0.33157651168E+02  0.49484007079E+01  0.40380860034E+02  0.47000000000E+01 0. -1.
          5    1    5    5  503    0  0.15122155894E+02 -0.36607455063E+02 -0.15502397115E+02  0.42792518989E+02  0.47000000000E+01 0. -1.
         -5    1    5    5    0  503 -0.55878316534E+02  0.37420732196E+01  0.10080874158E+03  0.11541612430E+03  0.47000000000E+01 0. -1.
<mgrwt>
<rscale>  0 0.27465947E+03</rscale>
<asrwt>0</asrwt>
<pdfrwt beam="1">  1        2 0.48359973E-01 0.27465947E+03</pdfrwt>
<pdfrwt beam="2">  1       -2 0.92303124E-02 0.27465947E+03</pdfrwt>
<totfact> 0.77774307E+03</totfact>
</mgrwt>
</event>
<event>
 9    1  0.2031653E-002  0.2739400E+03  0.7818608E-02  0.1099046E+00
         -4   -1    0    0    0  501 -0.00000000000E+00  0.00000000000E+00  0.38254724418E+02  0.38254724418E+02  0.00000000000E+00 0. -1.
          4   -1    0    0  501    0  0.00000000000E+00 -0.00000000000E+00 -0.49041749294E+03  0.49041749294E+03  0.00000000000E+00 0. -1.
         36    2    1    2    0    0  0.00000000000E+00  0.00000000000E+00 -0.45216276852E+03  0.52867221736E+03  0.27394003754E+03 0.  0.
         25    2    3    3    0    0  0.16521311335E+02  0.40688958219E+02 -0.29047802778E+03  0.31946457740E+03  0.12550532477E+03 0.  0.
         25    2    3    3    0    0 -0.16521311335E+02 -0.40688958219E+02 -0.16168474074E+03  0.20920763995E+03  0.12528901060E+03 0.  0.
          5    1    4    4  502    0  0.41715743870E+02 -0.71894933064E+01 -0.24487214577E+03  0.24854848597E+03  0.47000000000E+01 0. -1.
         -5    1    4    4    0  502 -0.25194432536E+02  0.47878451525E+02 -0.45605882003E+02  0.70916091435E+02  0.47000000000E+01 0. -1.
          5    1    5    5  503    0 -0.22240106451E+01 -0.79838678852E+02 -0.14174484208E+03  0.16276624687E+03  0.47000000000E+01 0.  1.
         -5    1    5    5    0  503 -0.14297300690E+02  0.39149720633E+02 -0.19939898661E+02  0.46441393081E+02  0.47000000000E+01 0.  1.
<mgrwt>
<rscale>  0 0.27394004E+03</rscale>
<asrwt>0</asrwt>
<pdfrwt beam="1">  1        4 0.75448848E-01 0.27394004E+03</pdfrwt>
<pdfrwt beam="2">  1       -4 0.58853420E-02 0.27394004E+03</pdfrwt>
<totfact> 0.55491742E+02</totfact>
</mgrwt>
</event>
<event>
 9    1  0.2031653E-002  0.2831426E+03  0.7818608E-02  0.1093985E+00
          1   -1    0    0  501    0  0.00000000000E+00  0.00000000000E+00  0.11329085386E+04  0.11329085386E+04  0.00000000000E+00 0.  1.
         -1   -1    0    0    0  501 -0.00000000000E+00 -0.00000000000E+00 -0.17691132912E+02  0.17691132912E+02  0.00000000000E+00 0.  1.
         36    2    1    2    0    0  0.00000000000E+00  0.00000000000E+00  0.11152174056E+04  0.11505996715E+04  0.28314261801E+03 0.  0.
         25    2    3    3    0    0 -0.43281405476E+02 -0.44538200818E+02  0.42126888542E+03  0.44034671456E+03  0.11216427153E+03 0.  0.
         25    2    3    3    0    0  0.43281405476E+02  0.44538200818E+02  0.69394852022E+03  0.71025295691E+03  0.13797747166E+03 0.  0.
          5    1    4    4  502    0 -0.50813586130E+02 -0.37060730336E+02  0.95955106991E+02  0.11482591531E+03  0.47000000000E+01 0.  1.
         -5    1    4    4    0  502  0.75321806544E+01 -0.74774704823E+01  0.32531377843E+03  0.32552079925E+03  0.47000000000E+01 0.  1.
          5    1    5    5  503    0 -0.23261834388E+02  0.39447058048E+02  0.77181940209E+02  0.89868377209E+02  0.47000000000E+01 0.  1.
         -5    1    5    5    0  503  0.66543239864E+02  0.50911427698E+01  0.61676658002E+03  0.62038457970E+03  0.47000000000E+01 0.  1.
<mgrwt>
<rscale>  0 0.28314262E+03</rscale>
<asrwt>0</asrwt>
<pdfrwt beam="1">  1        1 0.17429356E+00 0.28314262E+03</pdfrwt>
<pdfrwt beam="2">  1       -1 0.27217136E-02 0.28314262E+03</pdfrwt>
<totfact> 0.55683069E+03</totfact>
</mgrwt>
</event>
<event>
 9    1  0.2031653E-002  0.2740788E+03  0.7818608E-02  0.1098968E+00
          2   -1    0    0  501    0  0.00000000000E+00  0.00000000000E+00  0.65473350339E+02  0.65473350339E+02  0.00000000000E+00 0. -1.
         -2   -1    0    0    0  501 -0.00000000000E+00 -0.00000000000E+00 -0.28683108150E+03  0.28683108150E+03  0.00000000000E+00 0. -1.
         36    2    1    2    0    0 -0.10658141036E-13 -0.71054273576E-14 -0.22135773116E+03  0.35230443184E+03  0.27407876158E+03 0.  0.
         25    2    3    3    0    0 -0.29491713612E+02 -0.28288550444E+02 -0.15277852534E+03  0.20338371773E+03  0.12788141216E+03 0.  0.
         25    2    3    3    0    0  0.29491713612E+02  0.28288550444E+02 -0.68579205822E+02  0.14892071410E+03  0.12571502838E+03 0.  0.
          5    1    4    4  502    0 -0.71032309397E+02  0.16020278883E+02 -0.90704552455E+02  0.11641152928E+03  0.47000000000E+01 0. -1.
         -5    1    4    4    0  502  0.41540595785E+02 -0.44308829327E+02 -0.62073972884E+02  0.86972188452E+02  0.47000000000E+01 0. -1.
          5    1    5    5  503    0  0.45087813075E+02 -0.34074518181E+02 -0.62166592475E+02  0.84147245333E+02  0.47000000000E+01 0. -1.
         -5    1    5    5    0  503 -0.15596099464E+02  0.62363068625E+02 -0.64126133464E+01  0.64773468771E+02  0.47000000000E+01 0. -1.
<mgrwt>
<rscale>  0 0.27407876E+03</rscale>
<asrwt>0</asrwt>
<pdfrwt beam="1">  1        2 0.10072823E-01 0.27407876E+03</pdfrwt>
<pdfrwt beam="2">  1       -2 0.44127859E-01 0.27407876E+03</pdfrwt>
<totfact> 0.31124943E+03</totfact>
</mgrwt>
</event>
<event>
 9    1  0.2031653E-002  0.2754646E+03  0.7818608E-02  0.1098192E+00
          1   -1    0    0  501    0  0.00000000000E+00  0.00000000000E+00  0.21740518630E+02  0.21740518630E+02  0.00000000000E+00 0.  1.
         -1   -1    0    0    0  501 -0.00000000000E+00 -0.00000000000E+00 -0.87257310096E+03  0.87257310096E+03  0.00000000000E+00 0.  1.
         36    2    1    2    0    0  0.00000000000E+00  0.00000000000E+00 -0.85083258233E+03  0.89431361959E+03  0.27546463844E+03 0.  0.
         25    2    3    3    0    0  0.29970965073E+01 -0.52165140936E+02 -0.41904301104E+03  0.44110415828E+03  0.12745842005E+03 0.  0.
         25    2    3    3    0    0 -0.29970965073E+01  0.52165140936E+02 -0.43178957129E+03  0.45320946131E+03  0.12738287728E+03 0.  0.
          5    1    4    4  502    0 -0.52788434016E+02 -0.18935457664E+02 -0.93624287059E+02  0.10923720726E+03  0.47000000000E+01 0.  1.
         -5    1    4    4    0  502  0.55785530524E+02 -0.33229683271E+02 -0.32541872398E+03  0.33186695102E+03  0.47000000000E+01 0.  1.
          5    1    5    5  503    0  0.28937139255E+02  0.44199721564E+02 -0.60592482192E+02  0.80526469641E+02  0.47000000000E+01 0.  1.
         -5    1    5    5    0  503 -0.31934235763E+02  0.79654193713E+01 -0.37119708910E+03  0.37268299166E+03  0.47000000000E+01 0.  1.
<mgrwt>
<rscale>  0 0.27546464E+03</rscale>
<asrwt>0</asrwt>
<pdfrwt beam="1">  1        1 0.33446949E-02 0.27546464E+03</pdfrwt>
<pdfrwt beam="2">  1       -1 0.13424203E+00 0.27546464E+03</pdfrwt>
<totfact> 0.14691937E+03</totfact>
</mgrwt>
</event>
<event>
 9    1  0.2031653E-002  0.2740065E+03  0.7818608E-02  0.1099008E+00
          2   -1    0    0  501    0  0.00000000000E+00  0.00000000000E+00  0.18231423721E+04  0.18231423721E+04  0.00000000000E+00 0.  1.
         -2   -1    0    0    0  501 -0.00000000000E+00 -0.00000000000E+00 -0.10295349117E+02  0.10295349117E+02  0.00000000000E+00 0.  1.
         36    2    1    2    0    0  0.00000000000E+00  0.53290705182E-14  0.18128470230E+04  0.18334377212E+04  0.27400647591E+03 0.  0.
         25    2    3    3    0    0 -0.41840373906E+02 -0.25027769700E+01  0.11043028443E+04  0.11127900755E+04  0.13061431538E+03 0.  0.
         25    2    3    3    0    0  0.41840373906E+02  0.25027769700E+01  0.70854417863E+03  0.72064764568E+03  0.12466473188E+03 0.  0.
          5    1    4    4  502    0 -0.10352182449E+02  0.67550901087E+01  0.69558710456E+01  0.14942324646E+02  0.47000000000E+01 0. -1.
         -5    1    4    4    0  502 -0.31488191457E+02 -0.92578670787E+01  0.10973469733E+04  0.10978477509E+04  0.47000000000E+01 0. -1.
          5    1    5    5  503    0  0.34872856687E+02  0.60499736011E+02  0.30889637983E+03  0.31672606092E+03  0.47000000000E+01 0. -1.
         -5    1    5    5    0  503  0.69675172188E+01 -0.57996959041E+02  0.39964779879E+03  0.40392158476E+03  0.47000000000E+01 0. -1.
<mgrwt>
<rscale>  0 0.27400648E+03</rscale>
<asrwt>0</asrwt>
<pdfrwt beam="1">  1        2 0.28048319E+00 0.27400648E+03</pdfrwt>
<pdfrwt beam="2">  1       -2 0.15839013E-02 0.27400648E+03</pdfrwt>
<totfact> 0.10024284E+04</totfact>
</mgrwt>
</event>
<event>
 9    1  0.2031653E-002  0.2796530E+03  0.7818608E-02  0.1095879E+00
         -2   -1    0    0    0  501 -0.00000000000E+00  0.00000000000E+00  0.32883128069E+02  0.32883128069E+02  0.00000000000E+00 0. -1.
          2   -1    0    0  501    0  0.00000000000E+00 -0.00000000000E+00 -0.59457379730E+03  0.59457379730E+03  0.00000000000E+00 0. -1.
         36    2    1    2    0    0  0.00000000000E+00  0.00000000000E+00 -0.56169066923E+03  0.62745692537E+03  0.27965297297E+03 0.  0.
         25    2    3    3    0    0 -0.44282317606E+02  0.10611013574E+02 -0.35499337895E+03  0.37940649152E+03  0.12591850320E+03 0.  0.
         25    2    3    3    0    0  0.44282317606E+02 -0.10611013574E+02 -0.20669729028E+03  0.24805043385E+03  0.12935119119E+03 0.  0.
          5    1    4    4  502    0 -0.69133204123E+01  0.43955710844E+01  0.92195017194E+01  0.13198646000E+02  0.47000000000E+01 0. -1.
         -5    1    4    4    0  502 -0.37368997193E+02  0.62154424896E+01 -0.36421288067E+03  0.36620784552E+03  0.47000000000E+01 0. -1.
          5    1    5    5  503    0  0.41981620954E+02  0.12801989003E+01 -0.22313291541E+03  0.22710016148E+03  0.47000000000E+01 0. -1.
         -5    1    5    5    0  503  0.23006966515E+01 -0.11891212474E+02  0.16435625122E+02  0.20950272369E+02  0.47000000000E+01 0. -1.
<mgrwt>
<rscale>  0 0.27965297E+03</rscale>
<asrwt>0</asrwt>
<pdfrwt beam="1">  1        2 0.91472898E-01 0.27965297E+03</pdfrwt>
<pdfrwt beam="2">  1       -2 0.50589424E-02 0.27965297E+03</pdfrwt>
<totfact> 0.97696063E+03</totfact>
</mgrwt>
</event>
<event>
 9    1  0.2031653E-002  0.2738908E+03  0.7818608E-02  0.1099073E+00
         -1   -1    0    0    0  501 -0.00000000000E+00  0.00000000000E+00  0.36653695575E+02  0.36653695575E+02  0.00000000000E+00 0.  1.
          1   -1    0    0  501    0  0.00000000000E+00 -0.00000000000E+00 -0.51165507643E+03  0.51165507643E+03  0.00000000000E+00 0.  1.
         36    2    1    2    0    0 -0.71054273576E-14  0.00000000000E+00 -0.47500138085E+03  0.54830877200E+03  0.27389084987E+03 0.  0.
         25    2    3    3    0    0  0.45991678358E+02  0.34057333569E+02 -0.24778124904E+03  0.28405379757E+03  0.12655384659E+03 0.  0.
         25    2    3    3    0    0 -0.45991678358E+02 -0.34057333569E+02 -0.22722013181E+03  0.26425497443E+03  0.12217432941E+03 0.  0.
          5    1    4    4  502    0  0.18513323841E+02  0.81121646424E+02 -0.16464138251E+03  0.18453276000E+03  0.47000000000E+01 0. -1.
         -5    1    4    4    0  502  0.27478354517E+02 -0.47064312856E+02 -0.83139866530E+02  0.99521037566E+02  0.47000000000E+01 0. -1.
          5    1    5    5  503    0 -0.24467829768E+02  0.33358933703E+02 -0.16413511877E+03  0.16933375435E+03  0.47000000000E+01 0.  1.
         -5    1    5    5    0  503 -0.21523848590E+02 -0.67416267272E+02 -0.63085013041E+02  0.94921220079E+02  0.47000000000E+01 0.  1.
<mgrwt>
<rscale>  0 0.27389085E+03</rscale>
<asrwt>0</asrwt>
<pdfrwt beam="1">  1        1 0.78716165E-01 0.27389085E+03</pdfrwt>
<pdfrwt beam="2">  1       -1 0.56390302E-02 0.27389085E+03</pdfrwt>
<totfact> 0.63947635E+03</totfact>
</mgrwt>
</event>
<event>
 9    1  0.2031653E-002  0.2748314E+03  0.7818608E-02  0.1098546E+00
          1   -1    0    0  501    0  0.00000000000E+00  0.00000000000E+00  0.52452653897E+03  0.52452653897E+03  0.00000000000E+00 0. -1.
         -1   -1    0    0    0  501 -0.00000000000E+00 -0.00000000000E+00 -0.36000236220E+02  0.36000236220E+02  0.00000000000E+00 0. -1.
         36    2    1    2    0    0  0.00000000000E+00  0.00000000000E+00  0.48852630275E+03  0.56052677519E+03  0.27483143420E+03 0.  0.
         25    2    3    3    0    0  0.19266379031E+02  0.17584274980E+02  0.14441973160E+03  0.19258157359E+03  0.12470045519E+03 0.  0.
         25    2    3    3    0    0 -0.19266379031E+02 -0.17584274980E+02  0.34410657115E+03  0.36794520160E+03  0.12764771437E+03 0.  0.
          5    1    4    4  502    0  0.37982502338E+02 -0.33995517723E+02  0.12346805247E+03  0.13365932698E+03  0.47000000000E+01 0. -1.
         -5    1    4    4    0  502 -0.18716123307E+02  0.51579792703E+02  0.20951679134E+02  0.58922246609E+02  0.47000000000E+01 0. -1.
          5    1    5    5  503    0  0.46849217649E+02  0.18106833373E+02  0.18775973362E+03  0.19441839979E+03  0.47000000000E+01 0. -1.
         -5    1    5    5    0  503 -0.66115596680E+02 -0.35691108352E+02  0.15634683753E+03  0.17352680181E+03  0.47000000000E+01 0. -1.
<mgrwt>
<rscale>  0 0.27483143E+03</rscale>
<asrwt>0</asrwt>
<pdfrwt beam="1">  1        1 0.80696385E-01 0.27483143E+03</pdfrwt>
<pdfrwt beam="2">  1       -1 0.55384982E-02 0.27483143E+03</pdfrwt>
<totfact> 0.63559167E+03</totfact>
</mgrwt>
</event>
<event>
 9    1  0.2031653E-002  0.2753370E+03  0.7818608E-02  0.1098263E+00
         -1   -1    0    0    0  501 -0.00000000000E+00  0.00000000000E+00  0.46593191861E+02  0.46593191861E+02  0.00000000000E+00 0. -1.
          1   -1    0    0  501    0  0.00000000000E+00 -0.00000000000E+00 -0.40676796636E+03  0.40676796636E+03  0.00000000000E+00 0. -1.
         36    2    1    2    0    0  0.00000000000E+00  0.35527136788E-14 -0.36017477450E+03  0.45336115822E+03  0.27533701458E+03 0.  0.
         25    2    3    3    0    0  0.45495617935E+02 -0.27471283713E+02 -0.21506037492E+03  0.25469280144E+03  0.12566994695E+03 0.  0.
         25    2    3    3    0    0 -0.45495617935E+02  0.27471283713E+02 -0.14511439958E+03  0.19866835678E+03  0.12484552191E+03 0.  0.
          5    1    4    4  502    0  0.23335171538E+02 -0.57588077316E+02 -0.36537605573E+02  0.72235749464E+02  0.47000000000E+01 0.  1.
         -5    1    4    4    0  502  0.22160446397E+02  0.30116793602E+02 -0.17852276935E+03  0.18245705198E+03  0.47000000000E+01 0.  1.
          5    1    5    5  503    0  0.10731860004E+02 -0.11373139910E+02  0.16452354645E+02  0.23179540632E+02  0.47000000000E+01 0. -1.
         -5    1    5    5    0  503 -0.56227477939E+02  0.38844423624E+02 -0.16156675423E+03  0.17548881615E+03  0.47000000000E+01 0. -1.
<mgrwt>
<rscale>  0 0.27533701E+03</rscale>
<asrwt>0</asrwt>
<pdfrwt beam="1">  1        1 0.62579687E-01 0.27533701E+03</pdfrwt>
<pdfrwt beam="2">  1       -1 0.71681834E-02 0.27533701E+03</pdfrwt>
<totfact> 0.60065854E+03</totfact>
</mgrwt>
</event>
<event>
 9    1  0.2031653E-002  0.2747802E+03  0.7818608E-02  0.1098575E+00
         -2   -1    0    0    0  501 -0.00000000000E+00  0.00000000000E+00  0.40827990496E+02  0.40827990496E+02  0.00000000000E+00 0. -1.
          2   -1    0    0  501    0  0.00000000000E+00 -0.00000000000E+00 -0.46233083379E+03  0.46233083379E+03  0.00000000000E+00 0. -1.
         36    2    1    2    0    0  0.00000000000E+00  0.00000000000E+00 -0.42150284329E+03  0.50315882428E+03  0.27478019498E+03 0.  0.
         25    2    3    3    0    0  0.33146949190E+02  0.24659883895E+02 -0.14937468300E+03  0.20094861718E+03  0.12790903295E+03 0.  0.
         25    2    3    3    0    0 -0.33146949190E+02 -0.24659883895E+02 -0.27212816029E+03  0.30221020710E+03  0.12478158334E+03 0.  0.
          5    1    4    4  502    0 -0.24241734203E+02 -0.33615705513E+02 -0.16514719490E+02  0.44860932827E+02  0.47000000000E+01 0.  1.
         -5    1    4    4    0  502  0.57388683394E+02  0.58275589408E+02 -0.13285996351E+03  0.15608768435E+03  0.47000000000E+01 0.  1.
          5    1    5    5  503    0 -0.71878989577E+00 -0.22323505088E+02 -0.26815046975E+03  0.26912008466E+03  0.47000000000E+01 0. -1.
         -5    1    5    5    0  503 -0.32428159294E+02 -0.23363788074E+01 -0.39776905339E+01  0.33090122441E+02  0.47000000000E+01 0. -1.
<mgrwt>
<rscale>  0 0.27478019E+03</rscale>
<asrwt>0</asrwt>
<pdfrwt beam="1">  1        2 0.71127818E-01 0.27478019E+03</pdfrwt>
<pdfrwt beam="2">  1       -2 0.62812295E-02 0.27478019E+03</pdfrwt>
<totfact> 0.93171512E+03</totfact>
</mgrwt>
</event>
<event>
 9    1  0.2031653E-002  0.2748916E+03  0.7818608E-02  0.1098512E+00
         -2   -1    0    0    0  501 -0.00000000000E+00  0.00000000000E+00  0.50620285868E+02  0.50620285868E+02  0.00000000000E+00 0. -1.
          2   -1    0    0  501    0  0.00000000000E+00 -0.00000000000E+00 -0.37319713963E+03  0.37319713963E+03  0.00000000000E+00 0. -1.
         36    2    1    2    0    0  0.00000000000E+00 -0.71054273576E-14 -0.32257685376E+03  0.42381742550E+03  0.27489158513E+03 0.  0.
         25    2    3    3    0    0 -0.26610373949E+02  0.47171872966E+02 -0.18139163219E+03  0.22851982628E+03  0.12800425451E+03 0.  0.
         25    2    3    3    0    0  0.26610373949E+02 -0.47171872966E+02 -0.14118522157E+03  0.19529759922E+03  0.12359040363E+03 0.  0.
          5    1    4    4  502    0 -0.67607532627E+01 -0.40436410572E+02 -0.25416265760E+02  0.48465324200E+02  0.47000000000E+01 0.  1.
         -5    1    4    4    0  502 -0.19849620686E+02  0.87608283538E+02 -0.15597536643E+03  0.18005450208E+03  0.47000000000E+01 0.  1.
          5    1    5    5  503    0  0.15351030734E+02 -0.79798747640E+02 -0.45020526638E+02  0.93018450257E+02  0.47000000000E+01 0.  1.
         -5    1    5    5    0  503  0.11259343215E+02  0.32626874674E+02 -0.96164694933E+02  0.10227914896E+03  0.47000000000E+01 0.  1.
<mgrwt>
<rscale>  0 0.27489159E+03</rscale>
<asrwt>0</asrwt>
<pdfrwt beam="1">  1        2 0.57414943E-01 0.27489159E+03</pdfrwt>
<pdfrwt beam="2">  1       -2 0.77877364E-02 0.27489159E+03</pdfrwt>
<totfact> 0.84379833E+03</totfact>
</mgrwt>
</event>
<event>
 9    1  0.2031653E-002  0.2756130E+03  0.7818608E-02  0.1098109E+00
         -2   -1    0    0    0  501 -0.00000000000E+00  0.00000000000E+00  0.47319019997E+02  0.47319019997E+02  0.00000000000E+00 0. -1.
          2   -1    0    0  501    0  0.00000000000E+00 -0.00000000000E+00 -0.40133196547E+03  0.40133196547E+03  0.00000000000E+00 0. -1.
         36    2    1    2    0    0  0.00000000000E+00  0.00000000000E+00 -0.35401294548E+03  0.44865098547E+03  0.27561302799E+03 0.  0.
         25    2    3    3    0    0  0.34444799678E+02 -0.45630299353E+02 -0.14499210098E+03  0.19927844571E+03  0.12417979358E+03 0.  0.
         25    2    3    3    0    0 -0.34444799678E+02  0.45630299353E+02 -0.20902084449E+03  0.24937253976E+03  0.12340332941E+03 0.  0.
          5    1    4    4  502    0  0.33419155821E+02  0.14053456125E+02  0.58171719032E+01  0.37017145944E+02  0.47000000000E+01 0. -1.
         -5    1    4    4    0  502  0.10256438571E+01 -0.59683755478E+02 -0.15080927289E+03  0.16226129977E+03  0.47000000000E+01 0. -1.
          5    1    5    5  503    0  0.35321919455E+02  0.40834281862E+02 -0.14363593291E+03  0.15352018692E+03  0.47000000000E+01 0. -1.
         -5    1    5    5    0  503 -0.69766719133E+02  0.47960174910E+01 -0.65384911584E+02  0.95852352841E+02  0.47000000000E+01 0. -1.
<mgrwt>
<rscale>  0 0.27561303E+03</rscale>
<asrwt>0</asrwt>
<pdfrwt beam="1">  1        2 0.61743380E-01 0.27561303E+03</pdfrwt>
<pdfrwt beam="2">  1       -2 0.72798491E-02 0.27561303E+03</pdfrwt>
<totfact> 0.86622812E+03</totfact>
</mgrwt>
</event>
<event>
 9    1  0.2031653E-002  0.2761069E+03  0.7818608E-02  0.1097834E+00
          2   -1    0    0  501    0  0.00000000000E+00  0.00000000000E+00  0.10501789330E+04  0.10501789330E+04  0.00000000000E+00 0.  1.
         -2   -1    0    0    0  501 -0.00000000000E+00 -0.00000000000E+00 -0.18148097830E+02  0.18148097830E+02  0.00000000000E+00 0.  1.
         36    2    1    2    0    0  0.00000000000E+00 -0.71054273576E-14  0.10320308351E+04  0.10683270308E+04  0.27610686347E+03 0.  0.
         25    2    3    3    0    0  0.33440364001E+02 -0.23829501352E+02  0.69819610047E+03  0.70995362156E+03  0.12194362209E+03 0.  0.
         25    2    3    3    0    0 -0.33440364001E+02  0.23829501352E+02  0.33383473466E+03  0.35837340924E+03  0.12369222814E+03 0.  0.
          5    1    4    4  502    0  0.16576782021E+02 -0.59261690770E+02  0.61229281025E+03  0.61539524956E+03  0.47000000000E+01 0. -1.
         -5    1    4    4    0  502  0.16863581980E+02  0.35432189418E+02  0.85903290223E+02  0.94558372000E+02  0.47000000000E+01 0. -1.
          5    1    5    5  503    0 -0.13641734598E+02 -0.48702776250E+02  0.92178135379E+02  0.10524711863E+03  0.47000000000E+01 0. -1.
         -5    1    5    5    0  503 -0.19798629403E+02  0.72532277602E+02  0.24165659928E+03  0.25312629061E+03  0.47000000000E+01 0. -1.
<mgrwt>
<rscale>  0 0.27610686E+03</rscale>
<asrwt>0</asrwt>
<pdfrwt beam="1">  1        2 0.16156594E+00 0.27610686E+03</pdfrwt>
<pdfrwt beam="2">  1       -2 0.27920159E-02 0.27610686E+03</pdfrwt>
<totfact> 0.11513274E+04</totfact>
</mgrwt>
</event>
<event>
 9    1  0.2031653E-002  0.2752116E+03  0.7818608E-02  0.1098333E+00
         -1   -1    0    0    0  501 -0.00000000000E+00  0.00000000000E+00  0.13908330277E+02  0.13908330277E+02  0.00000000000E+00 0. -1.
          1   -1    0    0  501    0  0.00000000000E+00 -0.00000000000E+00 -0.13614398780E+04  0.13614398780E+04  0.00000000000E+00 0. -1.
         36    2    1    2    0    0  0.00000000000E+00 -0.71054273576E-14 -0.13475315477E+04  0.13753482083E+04  0.27521159478E+03 0.  0.
         25    2    3    3    0    0 -0.28709300609E+02 -0.33071929368E+02 -0.83231683410E+03  0.84332136078E+03  0.12853648807E+03 0.  0.
         25    2    3    3    0    0  0.28709300609E+02  0.33071929368E+02 -0.51521471363E+03  0.53202684750E+03  0.12525329885E+03 0.  0.
          5    1    4    4  502    0  0.25727598559E+02  0.14676364090E+02 -0.55170393408E+02  0.62794643875E+02  0.47000000000E+01 0.  1.
         -5    1    4    4    0  502 -0.54436899169E+02 -0.47748293458E+02 -0.77714644069E+03  0.78052671690E+03  0.47000000000E+01 0.  1.
          5    1    5    5  503    0  0.34532985216E+01  0.79352492529E+02 -0.32318182260E+03  0.33283227578E+03  0.47000000000E+01 0. -1.
         -5    1    5    5    0  503  0.25256002088E+02 -0.46280563161E+02 -0.19203289102E+03  0.19919457172E+03  0.47000000000E+01 0. -1.
<mgrwt>
<rscale>  0 0.27521159E+03</rscale>
<asrwt>0</asrwt>
<pdfrwt beam="1">  1        1 0.20945217E+00 0.27521159E+03</pdfrwt>
<pdfrwt beam="2">  1       -1 0.21397444E-02 0.27521159E+03</pdfrwt>
<totfact> 0.55033647E+03</totfact>
</mgrwt>
</event>
<event>
 9    1  0.2031653E-002  0.2745376E+03  0.7818608E-02  0.1098710E+00
         -4   -1    0    0    0  501 -0.00000000000E+00  0.00000000000E+00  0.15758097234E+02  0.15758097234E+02  0.00000000000E+00 0.  1.
          4   -1    0    0  501    0  0.00000000000E+00 -0.00000000000E+00 -0.11957486653E+04  0.11957486653E+04  0.00000000000E+00 0.  1.
         36    2    1    2    0    0 -0.71054273576E-14  0.71054273576E-14 -0.11799905680E+04  0.12115067625E+04  0.27453760205E+03 0.  0.
         25    2    3    3    0    0 -0.55302551324E+02  0.17807995690E+02 -0.53307577350E+03  0.55146258127E+03  0.12870781389E+03 0.  0.
         25    2    3    3    0    0  0.55302551324E+02 -0.17807995690E+02 -0.64691479453E+03  0.66004418122E+03  0.11740559142E+03 0.  0.
          5    1    4    4  502    0 -0.20355158668E+02  0.72647447134E+02 -0.30738577468E+03  0.31654397568E+03  0.47000000000E+01 0.  1.
         -5    1    4    4    0  502 -0.34947392656E+02 -0.54839451444E+02 -0.22568999882E+03  0.23491860559E+03  0.47000000000E+01 0.  1.
          5    1    5    5  503    0  0.18558706435E+02  0.47627196822E+02 -0.18249383359E+03  0.18957548565E+03  0.47000000000E+01 0. -1.
         -5    1    5    5    0  503  0.36743844889E+02 -0.65435192512E+02 -0.46442096094E+03  0.47046869558E+03  0.47000000000E+01 0. -1.
<mgrwt>
<rscale>  0 0.27453760E+03</rscale>
<asrwt>0</asrwt>
<pdfrwt beam="1">  1        4 0.18396131E+00 0.27453760E+03</pdfrwt>
<pdfrwt beam="2">  1       -4 0.24243229E-02 0.27453760E+03</pdfrwt>
<totfact> 0.25757215E+02</totfact>
</mgrwt>
</event>
<event>
 9    1  0.2031653E-002  0.2766400E+03  0.7818608E-02  0.1097538E+00
          2   -1    0    0  501    0  0.00000000000E+00  0.00000000000E+00  0.12935025430E+04  0.12935025430E+04  0.00000000000E+00 0.  1.
         -2   -1    0    0    0  501 -0.00000000000E+00 -0.00000000000E+00 -0.14791177443E+02  0.14791177443E+02  0.00000000000E+00 0.  1.
         36    2    1    2    0    0 -0.35527136788E-14  0.35527136788E-14  0.12787113655E+04  0.13082937204E+04  0.27664002340E+03 0.  0.
         25    2    3    3    0    0  0.63395871005E+01 -0.14845685709E+02  0.34025297262E+03  0.36097398235E+03  0.11945520419E+03 0.  0.
         25    2    3    3    0    0 -0.63395871005E+01  0.14845685709E+02  0.93845839293E+03  0.94731973808E+03  0.12825734350E+03 0.  0.
          5    1    4    4  502    0 -0.69036438943E+01  0.50688272626E+02  0.11481391093E+03  0.12578269127E+03  0.47000000000E+01 0.  1.
         -5    1    4    4    0  502  0.13243230995E+02 -0.65533958334E+02  0.22543906170E+03  0.23519129108E+03  0.47000000000E+01 0.  1.
          5    1    5    5  503    0 -0.50329042373E+02  0.17447760198E+02  0.80337517586E+03  0.80515290476E+03  0.47000000000E+01 0. -1.
         -5    1    5    5    0  503  0.43989455273E+02 -0.26020744890E+01  0.13508321706E+03  0.14216683333E+03  0.47000000000E+01 0. -1.
<mgrwt>
<rscale>  0 0.27664002E+03</rscale>
<asrwt>0</asrwt>
<pdfrwt beam="1">  1        2 0.19900030E+00 0.27664002E+03</pdfrwt>
<pdfrwt beam="2">  1       -2 0.22755668E-02 0.27664002E+03</pdfrwt>
<totfact> 0.11296622E+04</totfact>
</mgrwt>
</event>
<event>
 9    1  0.2031653E-002  0.2750516E+03  0.7818608E-02  0.1098423E+00
         -1   -1    0    0    0  501 -0.00000000000E+00  0.00000000000E+00  0.11405505116E+03  0.11405505116E+03  0.00000000000E+00 0. -1.
          1   -1    0    0  501    0  0.00000000000E+00 -0.00000000000E+00 -0.16582640918E+03  0.16582640918E+03  0.00000000000E+00 0. -1.
         36    2    1    2    0    0  0.35527136788E-14  0.14210854715E-13 -0.51771358025E+02  0.27988146034E+03  0.27505155577E+03 0.  0.
         25    2    3    3    0    0 -0.26556487266E+02 -0.43790831744E+02 -0.28668314836E+01  0.13641483103E+03  0.12640373192E+03 0.  0.
         25    2    3    3    0    0  0.26556487266E+02  0.43790831744E+02 -0.48904526542E+02  0.14346662931E+03  0.12477234088E+03 0.  0.
          5    1    4    4  502    0  0.17664854194E+02  0.18040870646E+02 -0.43180271860E+02  0.50240879424E+02  0.47000000000E+01 0.  1.
         -5    1    4    4    0  502 -0.44221341460E+02 -0.61831702391E+02  0.40313440376E+02  0.86173951610E+02  0.47000000000E+01 0.  1.
          5    1    5    5  503    0  0.16081805282E+02  0.82706290728E+02 -0.62813587736E+01  0.84619740340E+02  0.47000000000E+01 0. -1.
         -5    1    5    5    0  503  0.10474681984E+02 -0.38915458984E+02 -0.42623167768E+02  0.58846888968E+02  0.47000000000E+01 0. -1.
<mgrwt>
<rscale>  0 0.27505156E+03</rscale>
<asrwt>0</asrwt>
<pdfrwt beam="1">  1        1 0.25511755E-01 0.27505156E+03</pdfrwt>
<pdfrwt beam="2">  1       -1 0.17546931E-01 0.27505156E+03</pdfrwt>
<totfact> 0.46222323E+03</totfact>
</mgrwt>
</event>
<event>
 9    1  0.2031653E-002  0.2742101E+03  0.7818608E-02  0.1098894E+00
         -1   -1    0    0    0  501 -0.00000000000E+00  0.00000000000E+00  0.28461744753E+02  0.28461744753E+02  0.00000000000E+00 0. -1.
          1   -1    0    0  501    0  0.00000000000E+00 -0.00000000000E+00 -0.66045813085E+03  0.66045813085E+03  0.00000000000E+00 0. -1.
         36    2    1    2    0    0  0.00000000000E+00  0.00000000000E+00 -0.63199638610E+03  0.68891987561E+03  0.27421007086E+03 0.  0.
         25    2    3    3    0    0  0.44737157954E+02 -0.45971717881E+02 -0.29755341410E+03  0.32770633755E+03  0.12140262471E+03 0.  0.
         25    2    3    3    0    0 -0.44737157954E+02  0.45971717881E+02 -0.33444297201E+03  0.36121353805E+03  0.12045043130E+03 0.  0.
          5    1    4    4  502    0  0.39080616743E+02  0.45563554966E+01 -0.17988950928E+02  0.43517207354E+02  0.47000000000E+01 0.  1.
         -5    1    4    4    0  502  0.56565412109E+01 -0.50528073378E+02 -0.27956446317E+03  0.28418913020E+03  0.47000000000E+01 0.  1.
          5    1    5    5  503    0 -0.86127634396E+02  0.33762489780E+02 -0.21398738645E+03  0.23317497010E+03  0.47000000000E+01 0.  1.
         -5    1    5    5    0  503  0.41390476441E+02  0.12209228101E+02 -0.12045558556E+03  0.12803856795E+03  0.47000000000E+01 0.  1.
<mgrwt>
<rscale>  0 0.27421007E+03</rscale>
<asrwt>0</asrwt>
<pdfrwt beam="1">  1        1 0.10160894E+00 0.27421007E+03</pdfrwt>
<pdfrwt beam="2">  1       -1 0.43787300E-02 0.27421007E+03</pdfrwt>
<totfact> 0.65696226E+03</totfact>
</mgrwt>
</event>
<event>
 9    1  0.2031653E-002  0.2738731E+03  0.7818608E-02  0.1099083E+00
         -1   -1    0    0    0  501 -0.00000000000E+00  0.00000000000E+00  0.59184146693E+02  0.59184146693E+02  0.00000000000E+00 0. -1.
          1   -1    0    0  501    0  0.00000000000E+00 -0.00000000000E+00 -0.31683514166E+03  0.31683514166E+03  0.00000000000E+00 0. -1.
         36    2    1    2    0    0 -0.35527136788E-14  0.00000000000E+00 -0.25765099496E+03  0.37601928835E+03  0.27387309106E+03 0.  0.
         25    2    3    3    0    0 -0.27919609170E+02 -0.15087010581E+02 -0.19290725454E+03  0.23120330350E+03  0.12342866860E+03 0.  0.
         25    2    3    3    0    0  0.27919609170E+02  0.15087010581E+02 -0.64743740427E+02  0.14481598485E+03  0.12558978891E+03 0.  0.
          5    1    4    4  502    0 -0.37195994307E+02 -0.27618512419E+02 -0.20544202000E+03  0.21065335934E+03  0.47000000000E+01 0.  1.
         -5    1    4    4    0  502  0.92763851373E+01  0.12531501837E+02  0.12534765466E+02  0.20549944156E+02  0.47000000000E+01 0.  1.
          5    1    5    5  503    0 -0.27020490138E+02 -0.41784594903E+02 -0.19965799722E+02  0.53821765273E+02  0.47000000000E+01 0.  1.
         -5    1    5    5    0  503  0.54940099308E+02  0.56871605484E+02 -0.44777940705E+02  0.90994219575E+02  0.47000000000E+01 0.  1.
<mgrwt>
<rscale>  0 0.27387309E+03</rscale>
<asrwt>0</asrwt>
<pdfrwt beam="1">  1        1 0.48743867E-01 0.27387309E+03</pdfrwt>
<pdfrwt beam="2">  1       -1 0.91052535E-02 0.27387309E+03</pdfrwt>
<totfact> 0.57243411E+03</totfact>
</mgrwt>
</event>
<event>
 9    1  0.2031653E-002  0.2754482E+03  0.7818608E-02  0.1098201E+00
         -3   -1    0    0    0  501 -0.00000000000E+00  0.00000000000E+00  0.10885673928E+02  0.10885673928E+02  0.00000000000E+00 0. -1.
          3   -1    0    0  501    0  0.00000000000E+00 -0.00000000000E+00 -0.17424671743E+04  0.17424671743E+04  0.00000000000E+00 0. -1.
         36    2    1    2    0    0  0.00000000000E+00 -0.71054273576E-14 -0.17315815004E+04  0.17533528483E+04  0.27544821285E+03 0.  0.
         25    2    3    3    0    0  0.28248763935E+02 -0.29113824570E+02 -0.11164740232E+04  0.11243667663E+04  0.12665217411E+03 0.  0.
         25    2    3    3    0    0 -0.28248763935E+02  0.29113824570E+02 -0.61510747724E+03  0.62898608201E+03  0.12498270024E+03 0.  0.
          5    1    4    4  502    0  0.15912213084E+02  0.45506649248E+02 -0.64756229919E+03  0.64937129208E+03  0.47000000000E+01 0. -1.
         -5    1    4    4    0  502  0.12336550851E+02 -0.74620473817E+02 -0.46891172398E+03  0.47499547417E+03  0.47000000000E+01 0. -1.
          5    1    5    5  503    0 -0.56118033827E+02 -0.31494728556E+02 -0.29970392052E+03  0.30657084275E+03  0.47000000000E+01 0. -1.
         -5    1    5    5    0  503  0.27869269892E+02  0.60608553126E+02 -0.31540355672E+03  0.32241523927E+03  0.47000000000E+01 0. -1.
<mgrwt>
<rscale>  0 0.27544821E+03</rscale>
<asrwt>0</asrwt>
<pdfrwt beam="1">  1        3 0.26807175E+00 0.27544821E+03</pdfrwt>
<pdfrwt beam="2">  1       -3 0.16747198E-02 0.27544821E+03</pdfrwt>
<totfact> 0.20882654E+02</totfact>
</mgrwt>
</event>
<event>
 9    1  0.2031653E-002  0.2749462E+03  0.7818608E-02  0.1098482E+00
         -1   -1    0    0    0  501 -0.00000000000E+00  0.00000000000E+00  0.76324476461E+02  0.76324476461E+02  0.00000000000E+00 0. -1.
          1   -1    0    0  501    0  0.00000000000E+00 -0.00000000000E+00 -0.24761189442E+03  0.24761189442E+03  0.00000000000E+00 0. -1.
         36    2    1    2    0    0  0.35527136788E-14  0.00000000000E+00 -0.17128741796E+03  0.32393637088E+03  0.27494616351E+03 0.  0.
         25    2    3    3    0    0  0.26275187868E+02  0.55787066464E+02 -0.62482276111E+02  0.14712775724E+03  0.11806760708E+03 0.  0.
         25    2    3    3    0    0 -0.26275187868E+02 -0.55787066464E+02 -0.10880514185E+03  0.17680861364E+03  0.12498057722E+03 0.  0.
          5    1    4    4  502    0 -0.91442777286E+01  0.67927868644E+02  0.59725641078E+01  0.68960674850E+02  0.47000000000E+01 0. -1.
         -5    1    4    4    0  502  0.35419465597E+02 -0.12140802180E+02 -0.68454840219E+02  0.78167082395E+02  0.47000000000E+01 0. -1.
          5    1    5    5  503    0 -0.35360488686E+02 -0.84515355865E+02 -0.37218902157E+02  0.98997708130E+02  0.47000000000E+01 0. -1.
         -5    1    5    5    0  503  0.90853008176E+01  0.28728289401E+02 -0.71586239689E+02  0.77810905506E+02  0.47000000000E+01 0. -1.
<mgrwt>
<rscale>  0 0.27494616E+03</rscale>
<asrwt>0</asrwt>
<pdfrwt beam="1">  1        1 0.38094138E-01 0.27494616E+03</pdfrwt>
<pdfrwt beam="2">  1       -1 0.11742227E-01 0.27494616E+03</pdfrwt>
<totfact> 0.52629359E+03</totfact>
</mgrwt>
</event>
<event>
 9    1  0.2031653E-002  0.2776513E+03  0.7818608E-02  0.1096979E+00
         -1   -1    0    0    0  501 -0.00000000000E+00  0.00000000000E+00  0.51735005563E+02  0.51735005563E+02  0.00000000000E+00 0.  1.
          1   -1    0    0  501    0  0.00000000000E+00 -0.00000000000E+00 -0.37252452053E+03  0.37252452053E+03  0.00000000000E+00 0.  1.
         36    2    1    2    0    0 -0.71054273576E-14  0.71054273576E-14 -0.32078951497E+03  0.42425952610E+03  0.27765127871E+03 0.  0.
         25    2    3    3    0    0 -0.33799342080E+02  0.36446836674E+02 -0.13668746532E+03  0.19856876670E+03  0.13518625857E+03 0.  0.
         25    2    3    3    0    0  0.33799342080E+02 -0.36446836674E+02 -0.18410204965E+03  0.22569075939E+03  0.12071448447E+03 0.  0.
          5    1    4    4  502    0 -0.27703161428E+01 -0.47277372938E+02 -0.78789817007E+02  0.92047541561E+02  0.47000000000E+01 0.  1.
         -5    1    4    4    0  502 -0.31029025937E+02  0.83724209613E+02 -0.57897648314E+02  0.10652122514E+03  0.47000000000E+01 0.  1.
          5    1    5    5  503    0 -0.35707215228E+02 -0.39364065466E+02 -0.11848900360E+03  0.12994717713E+03  0.47000000000E+01 0.  1.
         -5    1    5    5    0  503  0.69506557309E+02  0.29172287922E+01 -0.65613046047E+02  0.95743582262E+02  0.47000000000E+01 0.  1.
<mgrwt>
<rscale>  0 0.27765128E+03</rscale>
<asrwt>0</asrwt>
<pdfrwt beam="1">  1        1 0.57311466E-01 0.27765128E+03</pdfrwt>
<pdfrwt beam="2">  1       -1 0.79592315E-02 0.27765128E+03</pdfrwt>
<totfact> 0.57324380E+03</totfact>
</mgrwt>
</event>
<event>
 9    1  0.2031653E-002  0.2741226E+03  0.7818608E-02  0.1098943E+00
          2   -1    0    0  501    0  0.00000000000E+00  0.00000000000E+00  0.44346891496E+02  0.44346891496E+02  0.00000000000E+00 0. -1.
         -2   -1    0    0    0  501 -0.00000000000E+00 -0.00000000000E+00 -0.42361038455E+03  0.42361038455E+03  0.00000000000E+00 0. -1.
         36    2    1    2    0    0 -0.17763568394E-14  0.00000000000E+00 -0.37926349306E+03  0.46795727605E+03  0.27412262774E+03 0.  0.
         25    2    3    3    0    0 -0.13216901438E+02  0.32853384353E+01 -0.10334623503E+03  0.16476891724E+03  0.12760435675E+03 0.  0.
         25    2    3    3    0    0  0.13216901438E+02 -0.32853384353E+01 -0.27591725803E+03  0.30318835881E+03  0.12492945091E+03 0.  0.
          5    1    4    4  502    0 -0.20473417073E+02  0.34223400187E+02 -0.12143544233E+03  0.12790253547E+03  0.47000000000E+01 0.  1.
         -5    1    4    4    0  502  0.72565156347E+01 -0.30938061751E+02  0.18089207299E+02  0.36866381770E+02  0.47000000000E+01 0.  1.
          5    1    5    5  503    0  0.47389634314E+01 -0.16350522571E+02 -0.28432687172E+03  0.28487480995E+03  0.47000000000E+01 0. -1.
         -5    1    5    5    0  503  0.84779380070E+01  0.13065184136E+02  0.84096136891E+01  0.18313548858E+02  0.47000000000E+01 0. -1.
<mgrwt>
<rscale>  0 0.27412263E+03</rscale>
<asrwt>0</asrwt>
<pdfrwt beam="1">  1        2 0.68225987E-02 0.27412263E+03</pdfrwt>
<pdfrwt beam="2">  1       -2 0.65170828E-01 0.27412263E+03</pdfrwt>
<totfact> 0.23148256E+03</totfact>
</mgrwt>
</event>
<event>
 9    1  0.2031653E-002  0.2736660E+03  0.7818608E-02  0.1099200E+00
          2   -1    0    0  501    0  0.00000000000E+00  0.00000000000E+00  0.29541407126E+03  0.29541407126E+03  0.00000000000E+00 0.  1.
         -2   -1    0    0    0  501 -0.00000000000E+00 -0.00000000000E+00 -0.63379761782E+02  0.63379761782E+02  0.00000000000E+00 0.  1.
         36    2    1    2    0    0  0.00000000000E+00  0.00000000000E+00  0.23203430947E+03  0.35879383304E+03  0.27366602612E+03 0.  0.
         25    2    3    3    0    0 -0.19562662097E+02 -0.42099849370E+02  0.97638317345E+02  0.16936858952E+03  0.13037401212E+03 0.  0.
         25    2    3    3    0    0  0.19562662097E+02  0.42099849370E+02  0.13439599213E+03  0.18942524352E+03  0.12515808051E+03 0.  0.
          5    1    4    4  502    0 -0.56914446452E+02  0.23276083099E+02  0.55451952138E+02  0.82933945133E+02  0.47000000000E+01 0.  1.
         -5    1    4    4    0  502  0.37351784355E+02 -0.65375932469E+02  0.42186365207E+02  0.86434644386E+02  0.47000000000E+01 0.  1.
          5    1    5    5  503    0  0.45553383189E+02  0.58298153769E+01 -0.16268938135E+01  0.46193443807E+02  0.47000000000E+01 0. -1.
         -5    1    5    5    0  503 -0.25990721092E+02  0.36270033993E+02  0.13602288594E+03  0.14323179971E+03  0.47000000000E+01 0. -1.
<mgrwt>
<rscale>  0 0.27366603E+03</rscale>
<asrwt>0</asrwt>
<pdfrwt beam="1">  1        2 0.45448318E-01 0.27366603E+03</pdfrwt>
<pdfrwt beam="2">  1       -2 0.97507327E-02 0.27366603E+03</pdfrwt>
<totfact> 0.76221657E+03</totfact>
</mgrwt>
</event>
<event>
 9    1  0.2031653E-002  0.2747475E+03  0.7818608E-02  0.1098593E+00
          2   -1    0    0  501    0  0.00000000000E+00  0.00000000000E+00  0.83962424917E+02  0.83962424917E+02  0.00000000000E+00 0.  1.
         -2   -1    0    0    0  501 -0.00000000000E+00 -0.00000000000E+00 -0.22476180657E+03  0.22476180657E+03  0.00000000000E+00 0.  1.
         36    2    1    2    0    0  0.00000000000E+00  0.71054273576E-14 -0.14079938165E+03  0.30872423148E+03  0.27474749359E+03 0.  0.
         25    2    3    3    0    0  0.95469655408E+01  0.56158105949E+02 -0.72158248183E+02  0.15377577158E+03  0.12326920836E+03 0.  0.
         25    2    3    3    0    0 -0.95469655408E+01 -0.56158105949E+02 -0.68641133467E+02  0.15494845990E+03  0.12669862907E+03 0.  0.
          5    1    4    4  502    0 -0.70071072239E+00  0.63273680638E+02  0.15330087312E+02  0.65277494085E+02  0.47000000000E+01 0. -1.
         -5    1    4    4    0  502  0.10247676263E+02 -0.71155746893E+01 -0.87488335495E+02  0.88498277495E+02  0.47000000000E+01 0. -1.
          5    1    5    5  503    0  0.33683289844E+02 -0.71524540474E+02 -0.74159800279E+02  0.10849926213E+03  0.47000000000E+01 0.  1.
         -5    1    5    5    0  503 -0.43230255385E+02  0.15366434525E+02  0.55186668117E+01  0.46449197777E+02  0.47000000000E+01 0.  1.
<mgrwt>
<rscale>  0 0.27474749E+03</rscale>
<asrwt>0</asrwt>
<pdfrwt beam="1">  1        2 0.12917296E-01 0.27474749E+03</pdfrwt>
<pdfrwt beam="2">  1       -2 0.34578740E-01 0.27474749E+03</pdfrwt>
<totfact> 0.36503217E+03</totfact>
</mgrwt>
</event>
<event>
 9    1  0.2031653E-002  0.2722156E+03  0.7818608E-02  0.1100018E+00
          2   -1    0    0  501    0  0.00000000000E+00  0.00000000000E+00  0.21017710258E+02  0.21017710258E+02  0.00000000000E+00 0.  1.
         -2   -1    0    0    0  501 -0.00000000000E+00 -0.00000000000E+00 -0.88141558975E+03  0.88141558975E+03  0.00000000000E+00 0.  1.
         36    2    1    2    0    0  0.00000000000E+00  0.14210854715E-13 -0.86039787950E+03  0.90243330001E+03  0.27221563131E+03 0.  0.
         25    2    3    3    0    0 -0.97739505006E+01  0.49471940100E+02 -0.34138664510E+03  0.36569699018E+03  0.12102249464E+03 0.  0.
         25    2    3    3    0    0  0.97739505006E+01 -0.49471940100E+02 -0.51901123439E+03  0.53673630983E+03  0.12716210873E+03 0.  0.
          5    1    4    4  502    0 -0.62924899170E+02  0.42863540608E+02 -0.17690319768E+03  0.19264905242E+03  0.47000000000E+01 0. -1.
         -5    1    4    4    0  502  0.53150948669E+02  0.66083994926E+01 -0.16448344742E+03  0.17304793776E+03  0.47000000000E+01 0. -1.
          5    1    5    5  503    0 -0.40562326948E+02 -0.58157388989E+02 -0.41179097354E+03  0.41787735060E+03  0.47000000000E+01 0. -1.
         -5    1    5    5    0  503  0.50336277448E+02  0.86854488884E+01 -0.10722026086E+03  0.11885895923E+03  0.47000000000E+01 0. -1.
<mgrwt>
<rscale>  0 0.27221563E+03</rscale>
<asrwt>0</asrwt>
<pdfrwt beam="1">  1        2 0.32334949E-02 0.27221563E+03</pdfrwt>
<pdfrwt beam="2">  1       -2 0.13560236E+00 0.27221563E+03</pdfrwt>
<totfact> 0.11602553E+03</totfact>
</mgrwt>
</event>
<event>
 9    1  0.2031653E-002  0.2723054E+03  0.7818608E-02  0.1099967E+00
          2   -1    0    0  501    0  0.00000000000E+00  0.00000000000E+00  0.49101060485E+02  0.49101060485E+02  0.00000000000E+00 0.  1.
         -2   -1    0    0    0  501 -0.00000000000E+00 -0.00000000000E+00 -0.37753886364E+03  0.37753886364E+03  0.00000000000E+00 0.  1.
         36    2    1    2    0    0 -0.71054273576E-14 -0.35527136788E-14 -0.32843780315E+03  0.42663992412E+03  0.27230540633E+03 0.  0.
         25    2    3    3    0    0  0.51855659274E+02 -0.94466765077E+00 -0.12737099965E+03  0.18314869075E+03  0.12095523790E+03 0.  0.
         25    2    3    3    0    0 -0.51855659274E+02  0.94466765077E+00 -0.20106680350E+03  0.24349123337E+03  0.12716217780E+03 0.  0.
          5    1    4    4  502    0  0.31838962292E+00  0.54876991899E+02 -0.46430858895E+02  0.72038186191E+02  0.47000000000E+01 0. -1.
         -5    1    4    4    0  502  0.51537269651E+02 -0.55821659550E+02 -0.80940140755E+02  0.11111050456E+03  0.47000000000E+01 0. -1.
          5    1    5    5  503    0 -0.55067696398E+02  0.29550991907E+02 -0.20471795178E+03  0.21409633834E+03  0.47000000000E+01 0. -1.
         -5    1    5    5    0  503  0.32120371241E+01 -0.28606324256E+02  0.36511482836E+01  0.29394895028E+02  0.47000000000E+01 0. -1.
<mgrwt>
<rscale>  0 0.27230541E+03</rscale>
<asrwt>0</asrwt>
<pdfrwt beam="1">  1        2 0.75540093E-02 0.27230541E+03</pdfrwt>
<pdfrwt beam="2">  1       -2 0.58082902E-01 0.27230541E+03</pdfrwt>
<totfact> 0.25808146E+03</totfact>
</mgrwt>
</event>
<event>
 9    1  0.2031653E-002  0.2740253E+03  0.7818608E-02  0.1098998E+00
         -4   -1    0    0    0  501 -0.00000000000E+00  0.00000000000E+00  0.19373846797E+03  0.19373846797E+03  0.00000000000E+00 0.  1.
          4   -1    0    0  501    0  0.00000000000E+00 -0.00000000000E+00 -0.96895942837E+02  0.96895942837E+02  0.00000000000E+00 0.  1.
         36    2    1    2    0    0  0.00000000000E+00  0.00000000000E+00  0.96842525136E+02  0.29063441081E+03  0.27402533838E+03 0.  0.
         25    2    3    3    0    0 -0.25092277155E+01  0.28869548006E+02  0.98313434279E+02  0.16447984385E+03  0.12864035388E+03 0.  0.
         25    2    3    3    0    0  0.25092277155E+01 -0.28869548006E+02 -0.14709091434E+01  0.12615456696E+03  0.12277240800E+03 0.  0.
          5    1    4    4  502    0 -0.43710471435E+02  0.28842394262E+02 -0.53296153750E+01  0.52848687967E+02  0.47000000000E+01 0.  1.
         -5    1    4    4    0  502  0.41201243719E+02  0.27153744907E-01  0.10364304965E+03  0.11163115588E+03  0.47000000000E+01 0.  1.
          5    1    5    5  503    0  0.47445966167E+02  0.26465206201E+01 -0.37168209079E+02  0.60511895880E+02  0.47000000000E+01 0. -1.
         -5    1    5    5    0  503 -0.44936738451E+02 -0.31516068627E+02  0.35697299936E+02  0.65642671084E+02  0.47000000000E+01 0. -1.
<mgrwt>
<rscale>  0 0.27402534E+03</rscale>
<asrwt>0</asrwt>
<pdfrwt beam="1">  1        4 0.14907068E-01 0.27402534E+03</pdfrwt>
<pdfrwt beam="2">  1       -4 0.29805918E-01 0.27402534E+03</pdfrwt>
<totfact> 0.76888811E+02</totfact>
</mgrwt>
</event>
<event>
 9    1  0.2031653E-002  0.2746303E+03  0.7818608E-02  0.1098658E+00
         -1   -1    0    0    0  501 -0.00000000000E+00  0.00000000000E+00  0.16472181999E+02  0.16472181999E+02  0.00000000000E+00 0. -1.
          1   -1    0    0  501    0  0.00000000000E+00 -0.00000000000E+00 -0.11446848252E+04  0.11446848252E+04  0.00000000000E+00 0. -1.
         36    2    1    2    0    0 -0.35527136788E-14 -0.71054273576E-14 -0.11282126432E+04  0.11611570072E+04  0.27463034627E+03 0.  0.
         25    2    3    3    0    0  0.17044850312E+02 -0.38837711825E+02 -0.37775639221E+03  0.40039437054E+03  0.12576511964E+03 0.  0.
         25    2    3    3    0    0 -0.17044850312E+02  0.38837711825E+02 -0.75045625103E+03  0.76076263671E+03  0.11737252622E+03 0.  0.
          5    1    4    4  502    0  0.17948871145E+02  0.42212589314E+02 -0.86368881298E+02  0.97906783874E+02  0.47000000000E+01 0. -1.
         -5    1    4    4    0  502 -0.90402083380E+00 -0.81050301139E+02 -0.29138751092E+03  0.30248758667E+03  0.47000000000E+01 0. -1.
          5    1    5    5  503    0  0.26403431850E+02  0.38700444158E+02 -0.12172053473E+03  0.13050993896E+03  0.47000000000E+01 0.  1.
         -5    1    5    5    0  503 -0.43448282161E+02  0.13726766771E+00 -0.62873571630E+03  0.63025269775E+03  0.47000000000E+01 0.  1.
<mgrwt>
<rscale>  0 0.27463035E+03</rscale>
<asrwt>0</asrwt>
<pdfrwt beam="1">  1        1 0.17610538E+00 0.27463035E+03</pdfrwt>
<pdfrwt beam="2">  1       -1 0.25341816E-02 0.27463035E+03</pdfrwt>
<totfact> 0.60636369E+03</totfact>
</mgrwt>
</event>
<event>
 9    1  0.2031653E-002  0.2748076E+03  0.7818608E-02  0.1098559E+00
          2   -1    0    0  501    0  0.00000000000E+00  0.00000000000E+00  0.19033006525E+04  0.19033006525E+04  0.00000000000E+00 0. -1.
         -2   -1    0    0    0  501 -0.00000000000E+00 -0.00000000000E+00 -0.99195037862E+01  0.99195037862E+01  0.00000000000E+00 0. -1.
         36    2    1    2    0    0 -0.71054273576E-14  0.35527136788E-14  0.18933811487E+04  0.19132201563E+04  0.27480755469E+03 0.  0.
         25    2    3    3    0    0 -0.52572564423E+02 -0.24542839654E+01  0.10963321633E+04  0.11048835851E+04  0.12670290564E+03 0.  0.
         25    2    3    3    0    0  0.52572564423E+02  0.24542839654E+01  0.79704898536E+03  0.80833657114E+03  0.12389927009E+03 0.  0.
          5    1    4    4  502    0 -0.48289215419E+01  0.27421909029E+02  0.53270588514E+02  0.60291999292E+02  0.47000000000E+01 0.  1.
         -5    1    4    4    0  502 -0.47743642881E+02 -0.29876192994E+02  0.10430615748E+04  0.10445915858E+04  0.47000000000E+01 0.  1.
          5    1    5    5  503    0  0.19054879810E+02 -0.42371722333E+02  0.11703610178E+03  0.12600789824E+03  0.47000000000E+01 0.  1.
         -5    1    5    5    0  503  0.33517684613E+02  0.44826006299E+02  0.68001288358E+03  0.68232867290E+03  0.47000000000E+01 0.  1.
<mgrwt>
<rscale>  0 0.27480755E+03</rscale>
<asrwt>0</asrwt>
<pdfrwt beam="1">  1        2 0.29281520E+00 0.27480755E+03</pdfrwt>
<pdfrwt beam="2">  1       -2 0.15260790E-02 0.27480755E+03</pdfrwt>
<totfact> 0.96082021E+03</totfact>
</mgrwt>
</event>
<event>
 9    1  0.2031653E-002  0.2749438E+03  0.7818608E-02  0.1098483E+00
         -1   -1    0    0    0  501 -0.00000000000E+00  0.00000000000E+00  0.18551373925E+03  0.18551373925E+03  0.00000000000E+00 0.  1.
          1   -1    0    0  501    0  0.00000000000E+00 -0.00000000000E+00 -0.10187130279E+03  0.10187130279E+03  0.00000000000E+00 0.  1.
         36    2    1    2    0    0  0.71054273576E-14  0.71054273576E-14  0.83642436460E+02  0.28738504204E+03  0.27494382192E+03 0.  0.
         25    2    3    3    0    0 -0.33326675508E+02 -0.15454492626E+02  0.56350230317E+02  0.15303614427E+03  0.13745982815E+03 0.  0.
         25    2    3    3    0    0  0.33326675508E+02  0.15454492626E+02  0.27292206143E+02  0.13434889777E+03  0.12631410520E+03 0.  0.
          5    1    4    4  502    0  0.49701517003E+01  0.40374268829E+02  0.72510120008E+02  0.83274194652E+02  0.47000000000E+01 0. -1.
         -5    1    4    4    0  502 -0.38296827209E+02 -0.55828761455E+02 -0.16159889691E+02  0.69761949619E+02  0.47000000000E+01 0. -1.
          5    1    5    5  503    0  0.43593400089E+02 -0.49199138763E+02  0.14642864996E+02  0.67508838545E+02  0.47000000000E+01 0. -1.
         -5    1    5    5    0  503 -0.10266724581E+02  0.64653631389E+02  0.12649341148E+02  0.66840059223E+02  0.47000000000E+01 0. -1.
<mgrwt>
<rscale>  0 0.27494382E+03</rscale>
<asrwt>0</asrwt>
<pdfrwt beam="1">  1        1 0.15672508E-01 0.27494382E+03</pdfrwt>
<pdfrwt beam="2">  1       -1 0.28540575E-01 0.27494382E+03</pdfrwt>
<totfact> 0.38909865E+03</totfact>
</mgrwt>
</event>
<event>
 9    1  0.2031653E-002  0.2758854E+03  0.7818608E-02  0.1097958E+00
          3   -1    0    0  501    0  0.00000000000E+00  0.00000000000E+00  0.13808978333E+03  0.13808978333E+03  0.00000000000E+00 0.  1.
         -3   -1    0    0    0  501 -0.00000000000E+00 -0.00000000000E+00 -0.13779574010E+03  0.13779574010E+03  0.00000000000E+00 0.  1.
         36    2    1    2    0    0  0.00000000000E+00  0.00000000000E+00  0.29404322961E+00  0.27588552344E+03  0.27588536674E+03 0.  0.
         25    2    3    3    0    0  0.15459181033E+01 -0.48648371607E+02 -0.14088002175E+02  0.13864146562E+03  0.12905010756E+03 0.  0.
         25    2    3    3    0    0 -0.15459181033E+01  0.48648371607E+02  0.14382045404E+02  0.13724405781E+03  0.12751483934E+03 0.  0.
          5    1    4    4  502    0  0.46632207491E+02  0.22131329024E+02 -0.16976917912E+02  0.54540482594E+02  0.47000000000E+01 0. -1.
         -5    1    4    4    0  502 -0.45086289387E+02 -0.70779700631E+02  0.28889157371E+01  0.84100983028E+02  0.47000000000E+01 0. -1.
          5    1    5    5  503    0  0.23544290376E+02  0.73028380709E+02  0.46228097862E+02  0.89702870802E+02  0.47000000000E+01 0.  1.
         -5    1    5    5    0  503 -0.25090208479E+02 -0.24380009102E+02 -0.31846052458E+02  0.47541187011E+02  0.47000000000E+01 0.  1.
<mgrwt>
<rscale>  0 0.27588537E+03</rscale>
<asrwt>0</asrwt>
<pdfrwt beam="1">  1        3 0.21244582E-01 0.27588537E+03</pdfrwt>
<pdfrwt beam="2">  1       -3 0.21199345E-01 0.27588537E+03</pdfrwt>
<totfact> 0.10372522E+03</totfact>
</mgrwt>
</event>
<event>
 9    1  0.2031653E-002  0.2753319E+03  0.7818608E-02  0.1098266E+00
          3   -1    0    0  501    0  0.00000000000E+00  0.00000000000E+00  0.46505384455E+02  0.46505384455E+02  0.00000000000E+00 0.  1.
         -3   -1    0    0    0  501 -0.00000000000E+00 -0.00000000000E+00 -0.40752090625E+03  0.40752090625E+03  0.00000000000E+00 0.  1.
         36    2    1    2    0    0 -0.35527136788E-14  0.71054273576E-14 -0.36101552179E+03  0.45402629070E+03  0.27533191910E+03 0.  0.
         25    2    3    3    0    0 -0.29902041730E+02  0.47620537106E+02 -0.19942209179E+03  0.24092953026E+03  0.12294722527E+03 0.  0.
         25    2    3    3    0    0  0.29902041730E+02 -0.47620537106E+02 -0.16159343001E+03  0.21309676045E+03  0.12702733973E+03 0.  0.
          5    1    4    4  502    0  0.25964815747E+02 -0.28980401882E+02 -0.72756416672E+02  0.82641524169E+02  0.47000000000E+01 0.  1.
         -5    1    4    4    0  502 -0.55866857478E+02  0.76600938988E+02 -0.12666567511E+03  0.15828800609E+03  0.47000000000E+01 0.  1.
          5    1    5    5  503    0  0.78580522906E+02 -0.38436339686E+02 -0.11784976086E+03  0.14684313713E+03  0.47000000000E+01 0.  1.
         -5    1    5    5    0  503 -0.48678481176E+02 -0.91841974196E+01 -0.43743669148E+02  0.66253623315E+02  0.47000000000E+01 0.  1.
<mgrwt>
<rscale>  0 0.27533192E+03</rscale>
<asrwt>0</asrwt>
<pdfrwt beam="1">  1        3 0.71546746E-02 0.27533192E+03</pdfrwt>
<pdfrwt beam="2">  1       -3 0.62695524E-01 0.27533192E+03</pdfrwt>
<totfact> 0.81720657E+02</totfact>
</mgrwt>
</event>
<event>
 9    1  0.2031653E-002  0.2753522E+03  0.7818608E-02  0.1098255E+00
         -2   -1    0    0    0  501 -0.00000000000E+00  0.00000000000E+00  0.23240237078E+02  0.23240237078E+02  0.00000000000E+00 0.  1.
          2   -1    0    0  501    0  0.00000000000E+00 -0.00000000000E+00 -0.81559881007E+03  0.81559881007E+03  0.00000000000E+00 0.  1.
         36    2    1    2    0    0  0.00000000000E+00 -0.71054273576E-14 -0.79235857299E+03  0.83883904715E+03  0.27535220868E+03 0.  0.
         25    2    3    3    0    0 -0.32277199394E+02 -0.47482275417E+02 -0.40339193862E+03  0.42600365873E+03  0.12432890664E+03 0.  0.
         25    2    3    3    0    0  0.32277199394E+02  0.47482275417E+02 -0.38896663437E+03  0.41283538842E+03  0.12586354198E+03 0.  0.
          5    1    4    4  502    0  0.26683951465E+01  0.38973806414E+02 -0.76322597915E+02  0.85867961846E+02  0.47000000000E+01 0.  1.
         -5    1    4    4    0  502 -0.34945594541E+02 -0.86456081831E+02 -0.32706934071E+03  0.34013569688E+03  0.47000000000E+01 0.  1.
          5    1    5    5  503    0 -0.15392671638E+02  0.77021984503E+02 -0.26995280257E+03  0.28118663918E+03  0.47000000000E+01 0.  1.
         -5    1    5    5    0  503  0.47669871033E+02 -0.29539709086E+02 -0.11901383181E+03  0.13164874925E+03  0.47000000000E+01 0.  1.
<mgrwt>
<rscale>  0 0.27535221E+03</rscale>
<asrwt>0</asrwt>
<pdfrwt beam="1">  1        2 0.12547675E+00 0.27535221E+03</pdfrwt>
<pdfrwt beam="2">  1       -2 0.35754207E-02 0.27535221E+03</pdfrwt>
<totfact> 0.11227360E+04</totfact>
</mgrwt>
</event>
<event>
 9    1  0.2031653E-002  0.2748140E+03  0.7818608E-02  0.1098556E+00
          1   -1    0    0  501    0  0.00000000000E+00  0.00000000000E+00  0.15686064240E+04  0.15686064240E+04  0.00000000000E+00 0. -1.
         -1   -1    0    0    0  501 -0.00000000000E+00 -0.00000000000E+00 -0.12036600579E+02  0.12036600579E+02  0.00000000000E+00 0. -1.
         36    2    1    2    0    0  0.17763568394E-14 -0.14210854715E-13  0.15565698234E+04  0.15806430246E+04  0.27481403888E+03 0.  0.
         25    2    3    3    0    0  0.11968003439E+02 -0.43456746612E+02  0.99452194361E+03  0.10034101893E+04  0.12540490315E+03 0.  0.
         25    2    3    3    0    0 -0.11968003439E+02  0.43456746612E+02  0.56204787980E+03  0.57723283527E+03  0.12356457823E+03 0.  0.
          5    1    4    4  502    0 -0.33350613334E+02  0.15493819919E+02  0.11704804536E+03  0.12277889390E+03  0.47000000000E+01 0.  1.
         -5    1    4    4    0  502  0.45318616772E+02 -0.58950566530E+02  0.87747389826E+03  0.88063129540E+03  0.47000000000E+01 0.  1.
          5    1    5    5  503    0 -0.25274344669E+02  0.71741161426E+02  0.51464930426E+03  0.52026107208E+03  0.47000000000E+01 0.  1.
         -5    1    5    5    0  503  0.13306341231E+02 -0.28284414814E+02  0.47398575543E+02  0.56971763197E+02  0.47000000000E+01 0.  1.
<mgrwt>
<rscale>  0 0.27481404E+03</rscale>
<asrwt>0</asrwt>
<pdfrwt beam="1">  1        1 0.24132390E+00 0.27481404E+03</pdfrwt>
<pdfrwt beam="2">  1       -1 0.18517859E-02 0.27481404E+03</pdfrwt>
<totfact> 0.49475741E+03</totfact>
</mgrwt>
</event>
<event>
 9    1  0.2031653E-002  0.2752435E+03  0.7818608E-02  0.1098316E+00
         -2   -1    0    0    0  501 -0.00000000000E+00  0.00000000000E+00  0.65342232731E+02  0.65342232731E+02  0.00000000000E+00 0.  1.
          2   -1    0    0  501    0  0.00000000000E+00 -0.00000000000E+00 -0.28985461201E+03  0.28985461201E+03  0.00000000000E+00 0.  1.
         36    2    1    2    0    0  0.35527136788E-14  0.71054273576E-14 -0.22451237928E+03  0.35519684474E+03  0.27524351049E+03 0.  0.
         25    2    3    3    0    0  0.96280163856E+01  0.53651629148E+02 -0.13682826592E+03  0.19324787995E+03  0.12510624580E+03 0.  0.
         25    2    3    3    0    0 -0.96280163856E+01 -0.53651629148E+02 -0.87684113356E+02  0.16194896480E+03  0.12477085979E+03 0.  0.
          5    1    4    4  502    0  0.18597853128E+02 -0.26286978665E+02  0.21363769045E+01  0.32611953247E+02  0.47000000000E+01 0.  1.
         -5    1    4    4    0  502 -0.89698367428E+01  0.79938607813E+02 -0.13896464283E+03  0.16063592670E+03  0.47000000000E+01 0.  1.
          5    1    5    5  503    0 -0.46156014411E+02 -0.75739218130E+02 -0.38925341408E+02  0.96974630873E+02  0.47000000000E+01 0. -1.
         -5    1    5    5    0  503  0.36527998025E+02  0.22087588982E+02 -0.48758771949E+02  0.64974333923E+02  0.47000000000E+01 0. -1.
<mgrwt>
<rscale>  0 0.27524351E+03</rscale>
<asrwt>0</asrwt>
<pdfrwt beam="1">  1        2 0.44593017E-01 0.27524351E+03</pdfrwt>
<pdfrwt beam="2">  1       -2 0.10052651E-01 0.27524351E+03</pdfrwt>
<totfact> 0.74133634E+03</totfact>
</mgrwt>
</event>
<event>
 9    1  0.2031653E-002  0.2736122E+03  0.7818608E-02  0.1099230E+00
          4   -1    0    0  501    0  0.00000000000E+00  0.00000000000E+00  0.87220571525E+02  0.87220571525E+02  0.00000000000E+00 0.  1.
         -4   -1    0    0    0  501 -0.00000000000E+00 -0.00000000000E+00 -0.21458142802E+03  0.21458142802E+03  0.00000000000E+00 0.  1.
         36    2    1    2    0    0  0.71054273576E-14  0.00000000000E+00 -0.12736085650E+03  0.30180199955E+03  0.27361224235E+03 0.  0.
         25    2    3    3    0    0  0.33419395459E+02 -0.49886618876E+02 -0.93918682149E+02  0.15994309402E+03  0.11469761869E+03 0.  0.
         25    2    3    3    0    0 -0.33419395459E+02  0.49886618876E+02 -0.33442174350E+02  0.14185890553E+03  0.12409689487E+03 0.  0.
          5    1    4    4  502    0 -0.35786825199E+02 -0.25297008489E+02 -0.69696992699E+02  0.82464515324E+02  0.47000000000E+01 0.  1.
         -5    1    4    4    0  502  0.69206220658E+02 -0.24589610387E+02 -0.24221689450E+02  0.77478578695E+02  0.47000000000E+01 0.  1.
          5    1    5    5  503    0 -0.28899271259E+02  0.18896702096E+02  0.45203699421E+02  0.57076419568E+02  0.47000000000E+01 0. -1.
         -5    1    5    5    0  503 -0.45201242001E+01  0.30989916780E+02 -0.78645873770E+02  0.84782485962E+02  0.47000000000E+01 0. -1.
<mgrwt>
<rscale>  0 0.27361224E+03</rscale>
<asrwt>0</asrwt>
<pdfrwt beam="1">  1        4 0.13418550E-01 0.27361224E+03</pdfrwt>
<pdfrwt beam="2">  1       -4 0.33012527E-01 0.27361224E+03</pdfrwt>
<totfact> 0.75972078E+02</totfact>
</mgrwt>
</event>
<event>
 9    1  0.2031653E-002  0.2750169E+03  0.7818608E-02  0.1098442E+00
         -1   -1    0    0    0  501 -0.00000000000E+00  0.00000000000E+00  0.70139153299E+01  0.70139153299E+01  0.00000000000E+00 0. -1.
          1   -1    0    0  501    0  0.00000000000E+00 -0.00000000000E+00 -0.26958658044E+04  0.26958658044E+04  0.00000000000E+00 0. -1.
         36    2    1    2    0    0  0.71054273576E-14 -0.17763568394E-14 -0.26888518891E+04  0.27028797198E+04  0.27501690488E+03 0.  0.
         25    2    3    3    0    0  0.52892381271E+02  0.12065364505E+02 -0.10461250067E+04  0.10544605338E+04  0.12069097169E+03 0.  0.
         25    2    3    3    0    0 -0.52892381271E+02 -0.12065364505E+02 -0.16427268824E+04  0.16484191859E+04  0.12566234726E+03 0.  0.
          5    1    4    4  502    0  0.43611601479E+02 -0.49730200531E+02 -0.65490148797E+03  0.65825003879E+03  0.47000000000E+01 0.  1.
         -5    1    4    4    0  502  0.92807797916E+01  0.61795565036E+02 -0.39122351877E+03  0.39621049503E+03  0.47000000000E+01 0.  1.
          5    1    5    5  503    0  0.19192329943E+02  0.27409883324E+01 -0.11529338453E+04  0.11531064132E+04  0.47000000000E+01 0. -1.
         -5    1    5    5    0  503 -0.72084711214E+02 -0.14806352837E+02 -0.48979303710E+03  0.49531277277E+03  0.47000000000E+01 0. -1.
<mgrwt>
<rscale>  0 0.27501690E+03</rscale>
<asrwt>0</asrwt>
<pdfrwt beam="1">  1        1 0.41474988E+00 0.27501690E+03</pdfrwt>
<pdfrwt beam="2">  1       -1 0.10790605E-02 0.27501690E+03</pdfrwt>
<totfact> 0.19739197E+03</totfact>
</mgrwt>
</event>
<event>
 9    1  0.2031653E-002  0.2746168E+03  0.7818608E-02  0.1098666E+00
         -1   -1    0    0    0  501 -0.00000000000E+00  0.00000000000E+00  0.46022521014E+03  0.46022521014E+03  0.00000000000E+00 0.  1.
          1   -1    0    0  501    0  0.00000000000E+00 -0.00000000000E+00 -0.40966028739E+02  0.40966028739E+02  0.00000000000E+00 0.  1.
         36    2    1    2    0    0  0.00000000000E+00 -0.71054273576E-14  0.41925918140E+03  0.50119123888E+03  0.27461681802E+03 0.  0.
         25    2    3    3    0    0 -0.34786528848E+02 -0.35194090052E+02  0.16101860962E+03  0.20965146197E+03  0.12481192371E+03 0.  0.
         25    2    3    3    0    0  0.34786528848E+02  0.35194090052E+02  0.25824057178E+03  0.29153977690E+03  0.12593062391E+03 0.  0.
          5    1    4    4  502    0 -0.94118727753E+01  0.33764096248E+02  0.32087957148E+01  0.35510335320E+02  0.47000000000E+01 0. -1.
         -5    1    4    4    0  502 -0.25374656073E+02 -0.68958186299E+02  0.15780981390E+03  0.17414112665E+03  0.47000000000E+01 0. -1.
          5    1    5    5  503    0 -0.10631331745E+02  0.50005957658E+01  0.22924531372E+03  0.22959428354E+03  0.47000000000E+01 0.  1.
         -5    1    5    5    0  503  0.45417860593E+02  0.30193494286E+02  0.28995258066E+02  0.61945493366E+02  0.47000000000E+01 0.  1.
<mgrwt>
<rscale>  0 0.27461682E+03</rscale>
<asrwt>0</asrwt>
<pdfrwt beam="1">  1        1 0.63024663E-02 0.27461682E+03</pdfrwt>
<pdfrwt beam="2">  1       -1 0.70803875E-01 0.27461682E+03</pdfrwt>
<totfact> 0.25233019E+03</totfact>
</mgrwt>
</event>
<event>
 9    1  0.2031653E-002  0.2743629E+03  0.7818608E-02  0.1098808E+00
          2   -1    0    0  501    0  0.00000000000E+00  0.00000000000E+00  0.98899568431E+02  0.98899568431E+02  0.00000000000E+00 0.  1.
         -2   -1    0    0    0  501 -0.00000000000E+00 -0.00000000000E+00 -0.19028137395E+03  0.19028137395E+03  0.00000000000E+00 0.  1.
         36    2    1    2    0    0  0.14210854715E-13  0.14210854715E-13 -0.91381805516E+02  0.28918094238E+03  0.27436286749E+03 0.  0.
         25    2    3    3    0    0 -0.21505257203E+02 -0.51172727246E+02 -0.55084422425E+02  0.14691102529E+03  0.12436812959E+03 0.  0.
         25    2    3    3    0    0  0.21505257203E+02  0.51172727246E+02 -0.36297383091E+02  0.14226991708E+03  0.12586542491E+03 0.  0.
          5    1    4    4  502    0 -0.57724645793E+02 -0.65342377274E+02 -0.11112070205E+02  0.88018913330E+02  0.47000000000E+01 0. -1.
         -5    1    4    4    0  502  0.36219388590E+02  0.14169650028E+02 -0.43972352220E+02  0.58892111963E+02  0.47000000000E+01 0. -1.
          5    1    5    5  503    0  0.70967568544E+02  0.99259203498E+01 -0.28358524694E+02  0.77208908830E+02  0.47000000000E+01 0. -1.
         -5    1    5    5    0  503 -0.49462311341E+02  0.41246806896E+02 -0.79388583965E+01  0.65061008254E+02  0.47000000000E+01 0. -1.
<mgrwt>
<rscale>  0 0.27436287E+03</rscale>
<asrwt>0</asrwt>
<pdfrwt beam="1">  1        2 0.15215318E-01 0.27436287E+03</pdfrwt>
<pdfrwt beam="2">  1       -2 0.29274057E-01 0.27436287E+03</pdfrwt>
<totfact> 0.40737389E+03</totfact>
</mgrwt>
</event>
<event>
 9    1  0.2031653E-002  0.2750791E+03  0.7818608E-02  0.1098407E+00
          1   -1    0    0  501    0  0.00000000000E+00  0.00000000000E+00  0.24366000500E+04  0.24366000500E+04  0.00000000000E+00 0. -1.
         -1   -1    0    0    0  501 -0.00000000000E+00 -0.00000000000E+00 -0.77637393122E+01  0.77637393122E+01  0.00000000000E+00 0. -1.
         36    2    1    2    0    0 -0.35527136788E-14  0.00000000000E+00  0.24288363107E+04  0.24443637893E+04  0.27507909842E+03 0.  0.
         25    2    3    3    0    0 -0.19114462159E+02  0.63857346386E+02  0.96922787871E+03  0.97812067627E+03  0.11346476600E+03 0.  0.
         25    2    3    3    0    0  0.19114462159E+02 -0.63857346386E+02  0.14596084320E+04  0.14662431130E+04  0.12234773597E+03 0.  0.
          5    1    4    4  502    0 -0.81539097606E+00  0.61185805080E+01  0.76522155986E+03  0.76526088856E+03  0.47000000000E+01 0.  1.
         -5    1    4    4    0  502 -0.18299071182E+02  0.57738765878E+02  0.20400631885E+03  0.21285978771E+03  0.47000000000E+01 0.  1.
          5    1    5    5  503    0 -0.18949574932E+02 -0.66332561667E+02  0.39961171888E+03  0.40554988718E+03  0.47000000000E+01 0. -1.
         -5    1    5    5    0  503  0.38064037091E+02  0.24752152814E+01  0.10599967131E+04  0.10606932259E+04  0.47000000000E+01 0. -1.
<mgrwt>
<rscale>  0 0.27507910E+03</rscale>
<asrwt>0</asrwt>
<pdfrwt beam="1">  1        1 0.37486094E+00 0.27507910E+03</pdfrwt>
<pdfrwt beam="2">  1       -1 0.11944234E-02 0.27507910E+03</pdfrwt>
<totfact> 0.25398856E+03</totfact>
</mgrwt>
</event>
<event>
 9    1  0.2031653E-002  0.2727093E+03  0.7818608E-02  0.1099739E+00
         -2   -1    0    0    0  501 -0.00000000000E+00  0.00000000000E+00  0.28101623061E+02  0.28101623061E+02  0.00000000000E+00 0. -1.
          2   -1    0    0  501    0  0.00000000000E+00 -0.00000000000E+00 -0.66161963371E+03  0.66161963371E+03  0.00000000000E+00 0. -1.
         36    2    1    2    0    0  0.17763568394E-14  0.00000000000E+00 -0.63351801065E+03  0.68972125677E+03  0.27270926318E+03 0.  0.
         25    2    3    3    0    0  0.83664472108E+01 -0.44013163482E+02 -0.33790218750E+03  0.36297972017E+03  0.12477673236E+03 0.  0.
         25    2    3    3    0    0 -0.83664472108E+01  0.44013163482E+02 -0.29561582315E+03  0.32674153660E+03  0.13177314160E+03 0.  0.
          5    1    4    4  502    0  0.23228979007E+01 -0.27020952252E+02 -0.31447994192E+01  0.27703925329E+02  0.47000000000E+01 0.  1.
         -5    1    4    4    0  502  0.60435493101E+01 -0.16992211231E+02 -0.33475738808E+03  0.33527579484E+03  0.47000000000E+01 0.  1.
          5    1    5    5  503    0  0.14598522524E+01  0.65310268503E+02 -0.29565287984E+03  0.30282053711E+03  0.47000000000E+01 0. -1.
         -5    1    5    5    0  503 -0.98262994632E+01 -0.21297105021E+02  0.37056688554E-01  0.23920999490E+02  0.47000000000E+01 0. -1.
<mgrwt>
<rscale>  0 0.27270926E+03</rscale>
<asrwt>0</asrwt>
<pdfrwt beam="1">  1        2 0.10178763E+00 0.27270926E+03</pdfrwt>
<pdfrwt beam="2">  1       -2 0.43233270E-02 0.27270926E+03</pdfrwt>
<totfact> 0.10922369E+04</totfact>
</mgrwt>
</event>
<event>
 9    1  0.2031653E-002  0.2748728E+03  0.7818608E-02  0.1098523E+00
         -2   -1    0    0    0  501 -0.00000000000E+00  0.00000000000E+00  0.14999263509E+03  0.14999263509E+03  0.00000000000E+00 0.  1.
          2   -1    0    0  501    0  0.00000000000E+00 -0.00000000000E+00 -0.12593129626E+03  0.12593129626E+03  0.00000000000E+00 0.  1.
         36    2    1    2    0    0  0.71054273576E-14 -0.14210854715E-13  0.24061338828E+02  0.27592393135E+03  0.27487282126E+03 0.  0.
         25    2    3    3    0    0  0.53072684267E+02 -0.35384549793E+02  0.55813972007E+02  0.13200082029E+03  0.10119407546E+03 0.  0.
         25    2    3    3    0    0 -0.53072684267E+02  0.35384549793E+02 -0.31752633179E+02  0.14392311106E+03  0.12504741502E+03 0.  0.
          5    1    4    4  502    0  0.19294026804E+02 -0.65348659446E+02  0.53117632172E+02  0.86523289404E+02  0.47000000000E+01 0. -1.
         -5    1    4    4    0  502  0.33778657463E+02  0.29964109653E+02  0.26963398345E+01  0.45477530889E+02  0.47000000000E+01 0. -1.
          5    1    5    5  503    0  0.39246081422E+02  0.17335102017E+02  0.36278282632E+01  0.43312951953E+02  0.47000000000E+01 0. -1.
         -5    1    5    5    0  503 -0.92318765689E+02  0.18049447775E+02 -0.35380461442E+02  0.10061015911E+03  0.47000000000E+01 0. -1.
<mgrwt>
<rscale>  0 0.27487282E+03</rscale>
<asrwt>0</asrwt>
<pdfrwt beam="1">  1        2 0.19374046E-01 0.27487282E+03</pdfrwt>
<pdfrwt beam="2">  1       -2 0.23075790E-01 0.27487282E+03</pdfrwt>
<totfact> 0.46887605E+03</totfact>
</mgrwt>
</event>
<event>
 9    1  0.2031653E-002  0.2752018E+03  0.7818608E-02  0.1098339E+00
          2   -1    0    0  501    0  0.00000000000E+00  0.00000000000E+00  0.14188066231E+03  0.14188066231E+03  0.00000000000E+00 0. -1.
         -2   -1    0    0    0  501 -0.00000000000E+00 -0.00000000000E+00 -0.13345027222E+03  0.13345027222E+03  0.00000000000E+00 0. -1.
         36    2    1    2    0    0 -0.71054273576E-14  0.35527136788E-14  0.84303900897E+01  0.27533093453E+03  0.27520183871E+03 0.  0.
         25    2    3    3    0    0 -0.34593801091E+02 -0.24106897296E+02 -0.28102811184E+02  0.13591631967E+03  0.12611742300E+03 0.  0.
         25    2    3    3    0    0  0.34593801091E+02  0.24106897296E+02  0.36533201274E+02  0.13941461486E+03  0.12776496574E+03 0.  0.
          5    1    4    4  502    0 -0.67104827044E+02 -0.23850686222E+02  0.23155898117E+02  0.75034649753E+02  0.47000000000E+01 0. -1.
         -5    1    4    4    0  502  0.32511025954E+02 -0.25621107413E+00 -0.51258709301E+02  0.60881669917E+02  0.47000000000E+01 0. -1.
          5    1    5    5  503    0  0.71888288445E+02  0.34401603929E+02  0.54332627340E+02  0.96568735946E+02  0.47000000000E+01 0.  1.
         -5    1    5    5    0  503 -0.37294487355E+02 -0.10294706632E+02 -0.17799426066E+02  0.42845878914E+02  0.47000000000E+01 0.  1.
<mgrwt>
<rscale>  0 0.27520184E+03</rscale>
<asrwt>0</asrwt>
<pdfrwt beam="1">  1        2 0.21827794E-01 0.27520184E+03</pdfrwt>
<pdfrwt beam="2">  1       -2 0.20530811E-01 0.27520184E+03</pdfrwt>
<totfact> 0.50091891E+03</totfact>
</mgrwt>
</event>
<event>
 9    1  0.2031653E-002  0.2761691E+03  0.7818608E-02  0.1097800E+00
         -4   -1    0    0    0  501 -0.00000000000E+00  0.00000000000E+00  0.23726987700E+02  0.23726987700E+02  0.00000000000E+00 0.  1.
          4   -1    0    0  501    0  0.00000000000E+00 -0.00000000000E+00 -0.80361395843E+03  0.80361395843E+03  0.00000000000E+00 0.  1.
         36    2    1    2    0    0  0.00000000000E+00 -0.71054273576E-14 -0.77988697073E+03  0.82734094613E+03  0.27616906784E+03 0.  0.
         25    2    3    3    0    0  0.98981986310E+01  0.17481104933E+02 -0.56848846543E+03  0.58143715381E+03  0.12035973219E+03 0.  0.
         25    2    3    3    0    0 -0.98981986310E+01 -0.17481104933E+02 -0.21139850530E+03  0.24590379233E+03  0.12399912770E+03 0.  0.
          5    1    4    4  502    0  0.15402988920E+02 -0.50684867250E+02 -0.22853349214E+03  0.23463984075E+03  0.47000000000E+01 0. -1.
         -5    1    4    4    0  502 -0.55047902888E+01  0.68165972183E+02 -0.33995497329E+03  0.34679731306E+03  0.47000000000E+01 0. -1.
          5    1    5    5  503    0  0.24510542101E+02 -0.59013697902E+01  0.52558730079E+01  0.26178369708E+02  0.47000000000E+01 0.  1.
         -5    1    5    5    0  503 -0.34408740732E+02 -0.11579735142E+02 -0.21665437831E+03  0.21972542262E+03  0.47000000000E+01 0.  1.
<mgrwt>
<rscale>  0 0.27616907E+03</rscale>
<asrwt>0</asrwt>
<pdfrwt beam="1">  1        4 0.12363291E+00 0.27616907E+03</pdfrwt>
<pdfrwt beam="2">  1       -4 0.36503059E-02 0.27616907E+03</pdfrwt>
<totfact> 0.38092603E+02</totfact>
</mgrwt>
</event>
<event>
 9    1  0.2031653E-002  0.2751796E+03  0.7818608E-02  0.1098351E+00
         -3   -1    0    0    0  501 -0.00000000000E+00  0.00000000000E+00  0.63425669788E+03  0.63425669788E+03  0.00000000000E+00 0. -1.
          3   -1    0    0  501    0  0.00000000000E+00 -0.00000000000E+00 -0.29847468848E+02  0.29847468848E+02  0.00000000000E+00 0. -1.
         36    2    1    2    0    0 -0.71054273576E-14  0.00000000000E+00  0.60440922903E+03  0.66410416673E+03  0.27517962884E+03 0.  0.
         25    2    3    3    0    0 -0.36639567368E+02 -0.31844386387E+02  0.40698258327E+03  0.42541657608E+03  0.11396454394E+03 0.  0.
         25    2    3    3    0    0  0.36639567368E+02  0.31844386387E+02  0.19742664576E+03  0.23868759065E+03  0.12505183978E+03 0.  0.
          5    1    4    4  502    0  0.23837185593E+02 -0.14431329687E+02  0.29909260494E+03  0.30042461788E+03  0.47000000000E+01 0.  1.
         -5    1    4    4    0  502 -0.60476752961E+02 -0.17413056700E+02  0.10788997832E+03  0.12499195820E+03  0.47000000000E+01 0.  1.
          5    1    5    5  503    0  0.60838698275E+02  0.63732107924E+01  0.31402259654E+02  0.68921382277E+02  0.47000000000E+01 0.  1.
         -5    1    5    5    0  503 -0.24199130907E+02  0.25471175595E+02  0.16602438611E+03  0.16976620838E+03  0.47000000000E+01 0.  1.
<mgrwt>
<rscale>  0 0.27517963E+03</rscale>
<asrwt>0</asrwt>
<pdfrwt beam="1">  1        3 0.45919188E-02 0.27517963E+03</pdfrwt>
<pdfrwt beam="2">  1       -3 0.97577943E-01 0.27517963E+03</pdfrwt>
<totfact> 0.63410244E+02</totfact>
</mgrwt>
</event>
<event>
 9    1  0.2031653E-002  0.2756377E+03  0.7818608E-02  0.1098096E+00
          1   -1    0    0  501    0  0.00000000000E+00  0.00000000000E+00  0.93726336892E+02  0.93726336892E+02  0.00000000000E+00 0. -1.
         -1   -1    0    0    0  501 -0.00000000000E+00 -0.00000000000E+00 -0.20265413003E+03  0.20265413003E+03  0.00000000000E+00 0. -1.
         36    2    1    2    0    0  0.35527136788E-14 -0.71054273576E-14 -0.10892779314E+03  0.29638046693E+03  0.27563765537E+03 0.  0.
         25    2    3    3    0    0 -0.85721042734E+01 -0.33723900737E+02  0.33964414468E+00  0.12956559657E+03  0.12480523228E+03 0.  0.
         25    2    3    3    0    0  0.85721042734E+01  0.33723900737E+02 -0.10926743729E+03  0.16681487036E+03  0.12114885748E+03 0.  0.
          5    1    4    4  502    0  0.34627989057E+02 -0.65159226421E+02  0.11376267922E+02  0.74808635102E+02  0.47000000000E+01 0. -1.
         -5    1    4    4    0  502 -0.43200093331E+02  0.31435325684E+02 -0.11036623778E+02  0.54756961467E+02  0.47000000000E+01 0. -1.
          5    1    5    5  503    0 -0.39490772284E+01  0.32817283900E+02 -0.13431695291E+03  0.13840412990E+03  0.47000000000E+01 0.  1.
         -5    1    5    5    0  503  0.12521181502E+02  0.90661683737E+00  0.25049515626E+02  0.28410740458E+02  0.47000000000E+01 0.  1.
<mgrwt>
<rscale>  0 0.27563766E+03</rscale>
<asrwt>0</asrwt>
<pdfrwt beam="1">  1        1 0.14419437E-01 0.27563766E+03</pdfrwt>
<pdfrwt beam="2">  1       -1 0.31177558E-01 0.27563766E+03</pdfrwt>
<totfact> 0.37353172E+03</totfact>
</mgrwt>
</event>
<event>
 9    1  0.2031653E-002  0.2743417E+03  0.7818608E-02  0.1098820E+00
          2   -1    0    0  501    0  0.00000000000E+00  0.00000000000E+00  0.31991624967E+03  0.31991624967E+03  0.00000000000E+00 0. -1.
         -2   -1    0    0    0  501 -0.00000000000E+00 -0.00000000000E+00 -0.58814904804E+02  0.58814904804E+02  0.00000000000E+00 0. -1.
         36    2    1    2    0    0  0.00000000000E+00 -0.71054273576E-14  0.26110134487E+03  0.37873115448E+03  0.27434171225E+03 0.  0.
         25    2    3    3    0    0  0.13094334999E+02 -0.24594477113E+02  0.16457321808E+03  0.21659724791E+03  0.13803504547E+03 0.  0.
         25    2    3    3    0    0 -0.13094334999E+02  0.24594477113E+02  0.96528126792E+02  0.16213390657E+03  0.12725319047E+03 0.  0.
          5    1    4    4  502    0 -0.14084438630E+02  0.49546255607E+02  0.28121297802E+02  0.58873595493E+02  0.47000000000E+01 0.  1.
         -5    1    4    4    0  502  0.27178773629E+02 -0.74140732720E+02  0.13645192027E+03  0.15772365241E+03  0.47000000000E+01 0.  1.
          5    1    5    5  503    0 -0.39497719837E+02 -0.32154220305E+02  0.53308366495E+01  0.51424425861E+02  0.47000000000E+01 0.  1.
         -5    1    5    5    0  503  0.26403384838E+02  0.56748697418E+02  0.91197290142E+02  0.11070948071E+03  0.47000000000E+01 0.  1.
<mgrwt>
<rscale>  0 0.27434171E+03</rscale>
<asrwt>0</asrwt>
<pdfrwt beam="1">  1        2 0.49217883E-01 0.27434171E+03</pdfrwt>
<pdfrwt beam="2">  1       -2 0.90484471E-02 0.27434171E+03</pdfrwt>
<totfact> 0.78747649E+03</totfact>
</mgrwt>
</event>
<event>
 9    1  0.2031653E-002  0.2745598E+03  0.7818608E-02  0.1098698E+00
         -2   -1    0    0    0  501 -0.00000000000E+00  0.00000000000E+00  0.28397786819E+02  0.28397786819E+02  0.00000000000E+00 0.  1.
          2   -1    0    0  501    0  0.00000000000E+00 -0.00000000000E+00 -0.66363535005E+03  0.66363535005E+03  0.00000000000E+00 0.  1.
         36    2    1    2    0    0  0.00000000000E+00  0.00000000000E+00 -0.63523756323E+03  0.69203313687E+03  0.27455983097E+03 0.  0.
         25    2    3    3    0    0  0.20926134128E+02  0.48559458019E+02 -0.38558318327E+03  0.40876942057E+03  0.12498849514E+03 0.  0.
         25    2    3    3    0    0 -0.20926134128E+02 -0.48559458019E+02 -0.24965437996E+03  0.28326371630E+03  0.12294348086E+03 0.  0.
          5    1    4    4  502    0  0.21891714938E+02  0.68297997647E+02 -0.38129279531E+03  0.38800792443E+03  0.47000000000E+01 0.  1.
         -5    1    4    4    0  502 -0.96558080930E+00 -0.19738539629E+02 -0.42903879589E+01  0.20761496136E+02  0.47000000000E+01 0.  1.
          5    1    5    5  503    0 -0.69349064258E+02 -0.45566833578E+02 -0.13297079903E+03  0.15680864909E+03  0.47000000000E+01 0.  1.
         -5    1    5    5    0  503  0.48422930130E+02 -0.29926244411E+01 -0.11668358093E+03  0.12645506721E+03  0.47000000000E+01 0.  1.
<mgrwt>
<rscale>  0 0.27455983E+03</rscale>
<asrwt>0</asrwt>
<pdfrwt beam="1">  1        2 0.10209774E+00 0.27455983E+03</pdfrwt>
<pdfrwt beam="2">  1       -2 0.43688905E-02 0.27455983E+03</pdfrwt>
<totfact> 0.10714625E+04</totfact>
</mgrwt>
</event>
<event>
 9    1  0.2031653E-002  0.2753528E+03  0.7818608E-02  0.1098255E+00
         -4   -1    0    0    0  501 -0.00000000000E+00  0.00000000000E+00  0.54068167168E+02  0.54068167168E+02  0.00000000000E+00 0.  1.
          4   -1    0    0  501    0  0.00000000000E+00 -0.00000000000E+00 -0.35057218583E+03  0.35057218583E+03  0.00000000000E+00 0.  1.
         36    2    1    2    0    0  0.00000000000E+00  0.00000000000E+00 -0.29650401866E+03  0.40464035300E+03  0.27535283218E+03 0.  0.
         25    2    3    3    0    0 -0.17549985150E+02 -0.15065084656E+02 -0.66995446727E+02  0.14387598272E+03  0.12520762663E+03 0.  0.
         25    2    3    3    0    0  0.17549985150E+02  0.15065084656E+02 -0.22950857194E+03  0.26076437028E+03  0.12160967667E+03 0.  0.
          5    1    4    4  502    0 -0.19210444105E+02 -0.59777204871E+02 -0.75269571472E+02  0.98132327876E+02  0.47000000000E+01 0. -1.
         -5    1    4    4    0  502  0.16604589555E+01  0.44712120215E+02  0.82741247454E+01  0.45743654842E+02  0.47000000000E+01 0. -1.
          5    1    5    5  503    0  0.18851662305E+02 -0.49264730046E+02 -0.14552872896E+03  0.15486477893E+03  0.47000000000E+01 0.  1.
         -5    1    5    5    0  503 -0.13016771550E+01  0.64329814702E+02 -0.83979842973E+02  0.10589959135E+03  0.47000000000E+01 0.  1.
<mgrwt>
<rscale>  0 0.27535283E+03</rscale>
<asrwt>0</asrwt>
<pdfrwt beam="1">  1        4 0.53934181E-01 0.27535283E+03</pdfrwt>
<pdfrwt beam="2">  1       -4 0.83181798E-02 0.27535283E+03</pdfrwt>
<totfact> 0.64336270E+02</totfact>
</mgrwt>
</event>
<event>
 9    1  0.2031653E-002  0.2725549E+03  0.7818608E-02  0.1099826E+00
         -2   -1    0    0    0  501 -0.00000000000E+00  0.00000000000E+00  0.11753262502E+03  0.11753262502E+03  0.00000000000E+00 0.  1.
          2   -1    0    0  501    0  0.00000000000E+00 -0.00000000000E+00 -0.15801176558E+03  0.15801176558E+03  0.00000000000E+00 0.  1.
         36    2    1    2    0    0 -0.71054273576E-14 -0.35527136788E-14 -0.40479140564E+02  0.27554439061E+03  0.27255485755E+03 0.  0.
         25    2    3    3    0    0 -0.52473250540E+02 -0.20009299611E+02  0.48969985966E+01  0.13921902716E+03  0.12729549416E+03 0.  0.
         25    2    3    3    0    0  0.52473250540E+02  0.20009299611E+02 -0.45376139161E+02  0.13632536345E+03  0.11563648482E+03 0.  0.
          5    1    4    4  502    0 -0.67858137958E+02 -0.62388290271E+02  0.12875338833E+02  0.93192757230E+02  0.47000000000E+01 0. -1.
         -5    1    4    4    0  502  0.15384887418E+02  0.42378990661E+02 -0.79783402364E+01  0.46026269925E+02  0.47000000000E+01 0. -1.
          5    1    5    5  503    0  0.71044490210E+02  0.85139952879E+01  0.13844036005E+02  0.73031192225E+02  0.47000000000E+01 0.  1.
         -5    1    5    5    0  503 -0.18571239670E+02  0.11495304323E+02 -0.59220175166E+02  0.63294171225E+02  0.47000000000E+01 0.  1.
<mgrwt>
<rscale>  0 0.27255486E+03</rscale>
<asrwt>0</asrwt>
<pdfrwt beam="1">  1        2 0.24309502E-01 0.27255486E+03</pdfrwt>
<pdfrwt beam="2">  1       -2 0.18081942E-01 0.27255486E+03</pdfrwt>
<totfact> 0.55055503E+03</totfact>
</mgrwt>
</event>
<event>
 9    1  0.2031653E-002  0.2742308E+03  0.7818608E-02  0.1098882E+00
          1   -1    0    0  501    0  0.00000000000E+00  0.00000000000E+00  0.23240491299E+04  0.23240491299E+04  0.00000000000E+00 0.  1.
         -1   -1    0    0    0  501 -0.00000000000E+00 -0.00000000000E+00 -0.80896046999E+01  0.80896046999E+01  0.00000000000E+00 0.  1.
         36    2    1    2    0    0  0.14210854715E-13 -0.35527136788E-14  0.23159595252E+04  0.23321387346E+04  0.27423084264E+03 0.  0.
         25    2    3    3    0    0  0.50346882096E+02 -0.30449586474E+02  0.14232602228E+04  0.14295537037E+04  0.12038332081E+03 0.  0.
         25    2    3    3    0    0 -0.50346882096E+02  0.30449586474E+02  0.89269930234E+03  0.90258503090E+03  0.11952283362E+03 0.  0.
          5    1    4    4  502    0  0.67925927095E+02 -0.13301039105E+02  0.13563694949E+04  0.13581425352E+04  0.47000000000E+01 0.  1.
         -5    1    4    4    0  502 -0.17579044999E+02 -0.17148547369E+02  0.66890727970E+02  0.71411168512E+02  0.47000000000E+01 0.  1.
          5    1    5    5  503    0  0.14975148136E+02  0.74379259545E+01  0.17565633052E+02  0.24702616637E+02  0.47000000000E+01 0.  1.
         -5    1    5    5    0  503 -0.65322030232E+02  0.23011660519E+02  0.87513366929E+03  0.87788241427E+03  0.47000000000E+01 0.  1.
<mgrwt>
<rscale>  0 0.27423084E+03</rscale>
<asrwt>0</asrwt>
<pdfrwt beam="1">  1        1 0.35754549E+00 0.27423084E+03</pdfrwt>
<pdfrwt beam="2">  1       -1 0.12445564E-02 0.27423084E+03</pdfrwt>
<totfact> 0.28388938E+03</totfact>
</mgrwt>
</event>
<event>
 9    1  0.2031653E-002  0.2741076E+03  0.7818608E-02  0.1098951E+00
         -2   -1    0    0    0  501 -0.00000000000E+00  0.00000000000E+00  0.34166500628E+02  0.34166500628E+02  0.00000000000E+00 0. -1.
          2   -1    0    0  501    0  0.00000000000E+00 -0.00000000000E+00 -0.54977065316E+03  0.54977065316E+03  0.00000000000E+00 0. -1.
         36    2    1    2    0    0  0.71054273576E-14  0.71054273576E-14 -0.51560415253E+03  0.58393715379E+03  0.27410756550E+03 0.  0.
         25    2    3    3    0    0 -0.39695330730E+02  0.40151109255E+02 -0.23237564796E+03  0.26937276213E+03  0.12399763044E+03 0.  0.
         25    2    3    3    0    0  0.39695330730E+02 -0.40151109255E+02 -0.28322850457E+03  0.31456439166E+03  0.12467774397E+03 0.  0.
          5    1    4    4  502    0 -0.46054506823E+01  0.49525158116E+02 -0.22690871147E+03  0.23234372125E+03  0.47000000000E+01 0.  1.
         -5    1    4    4    0  502 -0.35089880047E+02 -0.93740488615E+01 -0.54669364876E+01  0.37029040878E+02  0.47000000000E+01 0.  1.
          5    1    5    5  503    0 -0.27385125293E+02 -0.37792067987E+02 -0.20975585068E+03  0.21493671716E+03  0.47000000000E+01 0.  1.
         -5    1    5    5    0  503  0.67080456023E+02 -0.23590412682E+01 -0.73472653893E+02  0.99627674499E+02  0.47000000000E+01 0.  1.
<mgrwt>
<rscale>  0 0.27410757E+03</rscale>
<asrwt>0</asrwt>
<pdfrwt beam="1">  1        2 0.84580104E-01 0.27410757E+03</pdfrwt>
<pdfrwt beam="2">  1       -2 0.52563845E-02 0.27410757E+03</pdfrwt>
<totfact> 0.10076811E+04</totfact>
</mgrwt>
</event>
<event>
 9    1  0.2031653E-002  0.2754781E+03  0.7818608E-02  0.1098185E+00
          2   -1    0    0  501    0  0.00000000000E+00  0.00000000000E+00  0.34225084695E+02  0.34225084695E+02  0.00000000000E+00 0. -1.
         -2   -1    0    0    0  501 -0.00000000000E+00 -0.00000000000E+00 -0.55433158681E+03  0.55433158681E+03  0.00000000000E+00 0. -1.
         36    2    1    2    0    0  0.00000000000E+00  0.00000000000E+00 -0.52010650211E+03  0.58855667150E+03  0.27547809719E+03 0.  0.
         25    2    3    3    0    0  0.23889317299E+02  0.40678752575E+02 -0.21853953953E+03  0.25453241821E+03  0.12166248884E+03 0.  0.
         25    2    3    3    0    0 -0.23889317299E+02 -0.40678752575E+02 -0.30156696258E+03  0.33402425329E+03  0.13566174285E+03 0.  0.
          5    1    4    4  502    0 -0.17898696316E+02  0.56615211155E+02 -0.43362334323E+02  0.73675148469E+02  0.47000000000E+01 0. -1.
         -5    1    4    4    0  502  0.41788013615E+02 -0.15936458580E+02 -0.17517720521E+03  0.18085726975E+03  0.47000000000E+01 0. -1.
          5    1    5    5  503    0 -0.32933695235E+02 -0.24701522313E+02 -0.11041350773E+02  0.42881172015E+02  0.47000000000E+01 0. -1.
         -5    1    5    5    0  503  0.90443779363E+01 -0.15977230262E+02 -0.29052561181E+03  0.29114308127E+03  0.47000000000E+01 0. -1.
<mgrwt>
<rscale>  0 0.27547810E+03</rscale>
<asrwt>0</asrwt>
<pdfrwt beam="1">  1        2 0.52653981E-02 0.27547810E+03</pdfrwt>
<pdfrwt beam="2">  1       -2 0.85281775E-01 0.27547810E+03</pdfrwt>
<totfact> 0.18097513E+03</totfact>
</mgrwt>
</event>
<event>
 9    1  0.2031653E-002  0.2767162E+03  0.7818608E-02  0.1097496E+00
         -1   -1    0    0    0  501 -0.00000000000E+00  0.00000000000E+00  0.16118734865E+03  0.16118734865E+03  0.00000000000E+00 0.  1.
          1   -1    0    0  501    0  0.00000000000E+00 -0.00000000000E+00 -0.11876218112E+03  0.11876218112E+03  0.00000000000E+00 0.  1.
         36    2    1    2    0    0 -0.71054273576E-14 -0.35527136788E-14  0.42425167532E+02  0.27994952977E+03  0.27671618019E+03 0.  0.
         25    2    3    3    0    0 -0.16968633732E+02  0.18660880215E+02 -0.14088689951E+02  0.13909810806E+03  0.13606479890E+03 0.  0.
         25    2    3    3    0    0  0.16968633732E+02 -0.18660880215E+02  0.56513857483E+02  0.14085142171E+03  0.12652724580E+03 0.  0.
          5    1    4    4  502    0 -0.44333772051E+02  0.67019903576E+02 -0.20232227931E+02  0.82997493134E+02  0.47000000000E+01 0.  1.
         -5    1    4    4    0  502  0.27365138318E+02 -0.48359023361E+02  0.61435379800E+01  0.56100614921E+02  0.47000000000E+01 0.  1.
          5    1    5    5  503    0 -0.50453784653E+02 -0.74849972876E+01 -0.12604452891E+01  0.51237567199E+02  0.47000000000E+01 0.  1.
         -5    1    5    5    0  503  0.67422418385E+02 -0.11175882928E+02  0.57774302772E+02  0.89613854514E+02  0.47000000000E+01 0.  1.
<mgrwt>
<rscale>  0 0.27671618E+03</rscale>
<asrwt>0</asrwt>
<pdfrwt beam="1">  1        1 0.18271105E-01 0.27671618E+03</pdfrwt>
<pdfrwt beam="2">  1       -1 0.24798054E-01 0.27671618E+03</pdfrwt>
<totfact> 0.40333162E+03</totfact>
</mgrwt>
</event>
<event>
 9    1  0.2031653E-002  0.2768932E+03  0.7818608E-02  0.1097398E+00
          1   -1    0    0  501    0  0.00000000000E+00  0.00000000000E+00  0.27550787344E+03  0.27550787344E+03  0.00000000000E+00 0.  1.
         -1   -1    0    0    0  501 -0.00000000000E+00 -0.00000000000E+00 -0.69571350574E+02  0.69571350574E+02  0.00000000000E+00 0.  1.
         36    2    1    2    0    0  0.00000000000E+00  0.00000000000E+00  0.20593652286E+03  0.34507922401E+03  0.27689315520E+03 0.  0.
         25    2    3    3    0    0  0.48819440631E+02  0.29937706381E+02  0.13231371426E+03  0.19459185269E+03  0.13068843141E+03 0.  0.
         25    2    3    3    0    0 -0.48819440631E+02 -0.29937706381E+02  0.73622808601E+02  0.15048737132E+03  0.11809541454E+03 0.  0.
          5    1    4    4  502    0  0.90688045701E+02  0.17561984825E+02  0.11453455461E+03  0.14721752322E+03  0.47000000000E+01 0.  1.
         -5    1    4    4    0  502 -0.41868605069E+02  0.12375721556E+02  0.17779159655E+02  0.47374329468E+02  0.47000000000E+01 0.  1.
          5    1    5    5  503    0 -0.69231907317E+02 -0.61704404317E+02  0.57057489848E+02  0.10898686917E+03  0.47000000000E+01 0.  1.
         -5    1    5    5    0  503  0.20412466686E+02  0.31766697936E+02  0.16565318753E+02  0.41500502158E+02  0.47000000000E+01 0.  1.
<mgrwt>
<rscale>  0 0.27689316E+03</rscale>
<asrwt>0</asrwt>
<pdfrwt beam="1">  1        1 0.42385826E-01 0.27689316E+03</pdfrwt>
<pdfrwt beam="2">  1       -1 0.10703285E-01 0.27689316E+03</pdfrwt>
<totfact> 0.53178885E+03</totfact>
</mgrwt>
</event>
<event>
 9    1  0.2031653E-002  0.2749771E+03  0.7818608E-02  0.1098464E+00
         -2   -1    0    0    0  501 -0.00000000000E+00  0.00000000000E+00  0.52569273347E+02  0.52569273347E+02  0.00000000000E+00 0. -1.
          2   -1    0    0  501    0  0.00000000000E+00 -0.00000000000E+00 -0.35958456364E+03  0.35958456364E+03  0.00000000000E+00 0. -1.
         36    2    1    2    0    0  0.71054273576E-14  0.00000000000E+00 -0.30701529029E+03  0.41215383698E+03  0.27497708426E+03 0.  0.
         25    2    3    3    0    0  0.45265526790E+02  0.52933328726E+02 -0.18351216801E+03  0.23158356030E+03  0.12289558327E+03 0.  0.
         25    2    3    3    0    0 -0.45265526790E+02 -0.52933328726E+02 -0.12350312228E+03  0.18057027668E+03  0.11181099411E+03 0.  0.
          5    1    4    4  502    0  0.12902149861E+02  0.90415518555E+02 -0.12216294689E+03  0.15260179245E+03  0.47000000000E+01 0. -1.
         -5    1    4    4    0  502  0.32363376929E+02 -0.37482189828E+02 -0.61349221123E+02  0.78981767852E+02  0.47000000000E+01 0. -1.
          5    1    5    5  503    0 -0.33893589792E+01  0.13782876162E+02  0.14991533510E+02  0.21172895565E+02  0.47000000000E+01 0.  1.
         -5    1    5    5    0  503 -0.41876167811E+02 -0.66716204888E+02 -0.13849465579E+03  0.15939738112E+03  0.47000000000E+01 0.  1.
<mgrwt>
<rscale>  0 0.27497708E+03</rscale>
<asrwt>0</asrwt>
<pdfrwt beam="1">  1        2 0.55320704E-01 0.27497708E+03</pdfrwt>
<pdfrwt beam="2">  1       -2 0.80875802E-02 0.27497708E+03</pdfrwt>
<totfact> 0.82809940E+03</totfact>
</mgrwt>
</event>
<event>
 9    1  0.2031653E-002  0.2745310E+03  0.7818608E-02  0.1098714E+00
         -4   -1    0    0    0  501 -0.00000000000E+00  0.00000000000E+00  0.63584819132E+02  0.63584819132E+02  0.00000000000E+00 0. -1.
          4   -1    0    0  501    0  0.00000000000E+00 -0.00000000000E+00 -0.29632576957E+03  0.29632576957E+03  0.00000000000E+00 0. -1.
         36    2    1    2    0    0  0.14210854715E-13  0.00000000000E+00 -0.23274095044E+03  0.35991058870E+03  0.27453102165E+03 0.  0.
         25    2    3    3    0    0  0.21992310357E+02  0.37343673344E+02 -0.11540966903E+03  0.18711529269E+03  0.14076409130E+03 0.  0.
         25    2    3    3    0    0 -0.21992310357E+02 -0.37343673344E+02 -0.11733128141E+03  0.17279529601E+03  0.11921985184E+03 0.  0.
          5    1    4    4  502    0  0.75977467162E+02  0.40740474903E+02 -0.96821021570E+02  0.12972571846E+03  0.47000000000E+01 0.  1.
         -5    1    4    4    0  502 -0.53985156805E+02 -0.33968015593E+01 -0.18588647457E+02  0.57389574231E+02  0.47000000000E+01 0.  1.
          5    1    5    5  503    0  0.43499979384E+02 -0.42411597844E+02 -0.59079779520E+02  0.84873448064E+02  0.47000000000E+01 0.  1.
         -5    1    5    5    0  503 -0.65492289741E+02  0.50679244998E+01 -0.58251501889E+02  0.87921847948E+02  0.47000000000E+01 0.  1.
<mgrwt>
<rscale>  0 0.27453102E+03</rscale>
<asrwt>0</asrwt>
<pdfrwt beam="1">  1        4 0.45588580E-01 0.27453102E+03</pdfrwt>
<pdfrwt beam="2">  1       -4 0.97822799E-02 0.27453102E+03</pdfrwt>
<totfact> 0.69110883E+02</totfact>
</mgrwt>
</event>
<event>
 9    1  0.2031653E-002  0.2746795E+03  0.7818608E-02  0.1098631E+00
          2   -1    0    0  501    0  0.00000000000E+00  0.00000000000E+00  0.15949196632E+04  0.15949196632E+04  0.00000000000E+00 0. -1.
         -2   -1    0    0    0  501 -0.00000000000E+00 -0.00000000000E+00 -0.11826429385E+02  0.11826429385E+02  0.00000000000E+00 0. -1.
         36    2    1    2    0    0  0.00000000000E+00  0.00000000000E+00  0.15830932339E+04  0.16067460926E+04  0.27467948429E+03 0.  0.
         25    2    3    3    0    0 -0.33825594266E+02 -0.34739894040E+02  0.66457221322E+03  0.67828847267E+03  0.12675959331E+03 0.  0.
         25    2    3    3    0    0  0.33825594266E+02  0.34739894040E+02  0.91852102063E+03  0.92845761996E+03  0.12649765078E+03 0.  0.
          5    1    4    4  502    0  0.46653018486E+02  0.11624425491E+01  0.20205413869E+03  0.20742666263E+03  0.47000000000E+01 0.  1.
         -5    1    4    4    0  502 -0.80478612752E+02 -0.35902336589E+02  0.46251807453E+03  0.47086181004E+03  0.47000000000E+01 0.  1.
          5    1    5    5  503    0  0.88213753795E+01  0.63678157511E+02  0.82209114767E+03  0.82461425496E+03  0.47000000000E+01 0. -1.
         -5    1    5    5    0  503  0.25004218887E+02 -0.28938263471E+02  0.96429872962E+02  0.10384336500E+03  0.47000000000E+01 0. -1.
<mgrwt>
<rscale>  0 0.27467948E+03</rscale>
<asrwt>0</asrwt>
<pdfrwt beam="1">  1        2 0.24537209E+00 0.27467948E+03</pdfrwt>
<pdfrwt beam="2">  1       -2 0.18194519E-02 0.27467948E+03</pdfrwt>
<totfact> 0.10789758E+04</totfact>
</mgrwt>
</event>
<event>
 9    1  0.2031653E-002  0.2740816E+03  0.7818608E-02  0.1098966E+00
          1   -1    0    0  501    0  0.00000000000E+00  0.00000000000E+00  0.19276617568E+03  0.19276617568E+03  0.00000000000E+00 0. -1.
         -1   -1    0    0    0  501 -0.00000000000E+00 -0.00000000000E+00 -0.97424687035E+02  0.97424687035E+02  0.00000000000E+00 0. -1.
         36    2    1    2    0    0  0.71054273576E-14  0.00000000000E+00  0.95341488641E+02  0.29019086271E+03  0.27408162533E+03 0.  0.
         25    2    3    3    0    0  0.55928876727E+02  0.56769203717E+00  0.27508127146E+02  0.13740041329E+03  0.12244923433E+03 0.  0.
         25    2    3    3    0    0 -0.55928876727E+02 -0.56769203717E+00  0.67833361495E+02  0.15279044942E+03  0.12496077375E+03 0.  0.
          5    1    4    4  502    0  0.91571403485E+02  0.14659570191E+02  0.32684382443E+02  0.98440762848E+02  0.47000000000E+01 0. -1.
         -5    1    4    4    0  502 -0.35642526759E+02 -0.14091878154E+02 -0.51762552968E+01  0.38959650442E+02  0.47000000000E+01 0. -1.
          5    1    5    5  503    0 -0.17075577253E+01 -0.52830638719E+02  0.54681038043E+02  0.76197756282E+02  0.47000000000E+01 0.  1.
         -5    1    5    5    0  503 -0.54221319002E+02  0.52262946682E+02  0.13152323452E+02  0.76592693140E+02  0.47000000000E+01 0.  1.
<mgrwt>
<rscale>  0 0.27408163E+03</rscale>
<asrwt>0</asrwt>
<pdfrwt beam="1">  1        1 0.29656335E-01 0.27408163E+03</pdfrwt>
<pdfrwt beam="2">  1       -1 0.14988413E-01 0.27408163E+03</pdfrwt>
<totfact> 0.49119584E+03</totfact>
</mgrwt>
</event>
<event>
 9    1  0.2031653E-002  0.2729934E+03  0.7818608E-02  0.1099579E+00
          2   -1    0    0  501    0  0.00000000000E+00  0.00000000000E+00  0.63314689475E+02  0.63314689475E+02  0.00000000000E+00 0.  1.
         -2   -1    0    0    0  501 -0.00000000000E+00 -0.00000000000E+00 -0.29426587472E+03  0.29426587472E+03  0.00000000000E+00 0.  1.
         36    2    1    2    0    0  0.71054273576E-14  0.14210854715E-13 -0.23095118525E+03  0.35758056420E+03  0.27299342469E+03 0.  0.
         25    2    3    3    0    0  0.28444491558E+02  0.58777996450E+02 -0.13979870130E+03  0.19443824637E+03  0.11831573354E+03 0.  0.
         25    2    3    3    0    0 -0.28444491558E+02 -0.58777996450E+02 -0.91152483949E+02  0.16314231782E+03  0.11850189268E+03 0.  0.
          5    1    4    4  502    0 -0.40557312377E+02 -0.91967108059E-01 -0.65089838964E+02  0.76835416193E+02  0.47000000000E+01 0. -1.
         -5    1    4    4    0  502  0.69001803935E+02  0.58869963558E+02 -0.74708862333E+02  0.11760283018E+03  0.47000000000E+01 0. -1.
          5    1    5    5  503    0  0.30269803270E+02 -0.51121279909E+02 -0.68110669301E+01  0.59984388654E+02  0.47000000000E+01 0.  1.
         -5    1    5    5    0  503 -0.58714294828E+02 -0.76567165412E+01 -0.84341417019E+02  0.10315792917E+03  0.47000000000E+01 0.  1.
<mgrwt>
<rscale>  0 0.27299342E+03</rscale>
<asrwt>0</asrwt>
<pdfrwt beam="1">  1        2 0.97407213E-02 0.27299342E+03</pdfrwt>
<pdfrwt beam="2">  1       -2 0.45271674E-01 0.27299342E+03</pdfrwt>
<totfact> 0.30865953E+03</totfact>
</mgrwt>
</event>
<event>
 9    1  0.2031653E-002  0.2746536E+03  0.7818608E-02  0.1098645E+00
          3   -1    0    0  501    0  0.00000000000E+00  0.00000000000E+00  0.87465849642E+02  0.87465849642E+02  0.00000000000E+00 0.  1.
         -3   -1    0    0    0  501 -0.00000000000E+00 -0.00000000000E+00 -0.21561150789E+03  0.21561150789E+03  0.00000000000E+00 0.  1.
         36    2    1    2    0    0  0.00000000000E+00  0.00000000000E+00 -0.12814565825E+03  0.30307735754E+03  0.27465355436E+03 0.  0.
         25    2    3    3    0    0  0.24596431768E+02  0.40961464339E+02 -0.10560555940E+03  0.16852819252E+03  0.12233720400E+03 0.  0.
         25    2    3    3    0    0 -0.24596431768E+02 -0.40961464339E+02 -0.22540098852E+02  0.13454916501E+03  0.12374407352E+03 0.  0.
          5    1    4    4  502    0  0.33210920740E+02 -0.25648140212E+02  0.12354325769E+01  0.42242261379E+02  0.47000000000E+01 0.  1.
         -5    1    4    4    0  502 -0.86144889715E+01  0.66609604552E+02 -0.10684099198E+03  0.12628593115E+03  0.47000000000E+01 0.  1.
          5    1    5    5  503    0 -0.62632270594E+02  0.14671685347E+02 -0.17359379874E+02  0.66794443933E+02  0.47000000000E+01 0. -1.
         -5    1    5    5    0  503  0.38035838826E+02 -0.55633149686E+02 -0.51807189780E+01  0.67754721078E+02  0.47000000000E+01 0. -1.
<mgrwt>
<rscale>  0 0.27465355E+03</rscale>
<asrwt>0</asrwt>
<pdfrwt beam="1">  1        3 0.13456285E-01 0.27465355E+03</pdfrwt>
<pdfrwt beam="2">  1       -3 0.33171001E-01 0.27465355E+03</pdfrwt>
<totfact> 0.10109551E+03</totfact>
</mgrwt>
</event>
<event>
 9    1  0.2031653E-002  0.2734072E+03  0.7818608E-02  0.1099345E+00
         -1   -1    0    0    0  501 -0.00000000000E+00  0.00000000000E+00  0.19595627593E+02  0.19595627593E+02  0.00000000000E+00 0. -1.
          1   -1    0    0  501    0  0.00000000000E+00 -0.00000000000E+00 -0.95367584001E+03  0.95367584001E+03  0.00000000000E+00 0. -1.
         36    2    1    2    0    0 -0.14210854715E-13  0.00000000000E+00 -0.93408021242E+03  0.97327146761E+03  0.27340721721E+03 0.  0.
         25    2    3    3    0    0  0.42288843028E+02 -0.24991759989E+02 -0.34990737765E+03  0.37395148600E+03  0.12244021658E+03 0.  0.
         25    2    3    3    0    0 -0.42288843028E+02  0.24991759989E+02 -0.58417283477E+03  0.59931998160E+03  0.12455362361E+03 0.  0.
          5    1    4    4  502    0  0.47455243289E+02 -0.43787223786E+02 -0.34781767930E+03  0.35379167474E+03  0.47000000000E+01 0. -1.
         -5    1    4    4    0  502 -0.51664002609E+01  0.18795463797E+02 -0.20896983538E+01  0.20159811264E+02  0.47000000000E+01 0. -1.
          5    1    5    5  503    0 -0.66980608216E+02  0.31011062956E+02 -0.55673388138E+03  0.56162513528E+03  0.47000000000E+01 0.  1.
         -5    1    5    5    0  503  0.24691765188E+02 -0.60193029671E+01 -0.27438953394E+02  0.37694846327E+02  0.47000000000E+01 0.  1.
<mgrwt>
<rscale>  0 0.27340722E+03</rscale>
<asrwt>0</asrwt>
<pdfrwt beam="1">  1        1 0.14671936E+00 0.27340722E+03</pdfrwt>
<pdfrwt beam="2">  1       -1 0.30147119E-02 0.27340722E+03</pdfrwt>
<totfact> 0.64873554E+03</totfact>
</mgrwt>
</event>
<event>
 9    1  0.2031653E-002  0.2767054E+03  0.7818608E-02  0.1097502E+00
          1   -1    0    0  501    0  0.00000000000E+00  0.00000000000E+00  0.12535133810E+04  0.12535133810E+04  0.00000000000E+00 0.  1.
         -1   -1    0    0    0  501 -0.00000000000E+00 -0.00000000000E+00 -0.15270259097E+02  0.15270259097E+02  0.00000000000E+00 0.  1.
         36    2    1    2    0    0 -0.71054273576E-14  0.71054273576E-14  0.12382431219E+04  0.12687836401E+04  0.27670543262E+03 0.  0.
         25    2    3    3    0    0 -0.11975341994E+02  0.41199379726E+02  0.49325802521E+03  0.50996996455E+03  0.12216827575E+03 0.  0.
         25    2    3    3    0    0  0.11975341994E+02 -0.41199379726E+02  0.74498509673E+03  0.75881367559E+03  0.13767571392E+03 0.  0.
          5    1    4    4  502    0 -0.66247608418E+01  0.58386712554E+02  0.48667971745E+03  0.49023681322E+03  0.47000000000E+01 0.  1.
         -5    1    4    4    0  502 -0.53505811524E+01 -0.17187332828E+02  0.65783077638E+01  0.19733151330E+02  0.47000000000E+01 0.  1.
          5    1    5    5  503    0 -0.39994910551E+02  0.13576310385E+01  0.72323255266E+02  0.82789970917E+02  0.47000000000E+01 0. -1.
         -5    1    5    5    0  503  0.51970252546E+02 -0.42557010765E+02  0.67266184147E+03  0.67602370467E+03  0.47000000000E+01 0. -1.
<mgrwt>
<rscale>  0 0.27670543E+03</rscale>
<asrwt>0</asrwt>
<pdfrwt beam="1">  1        1 0.19284813E+00 0.27670543E+03</pdfrwt>
<pdfrwt beam="2">  1       -1 0.23492716E-02 0.27670543E+03</pdfrwt>
<totfact> 0.56872278E+03</totfact>
</mgrwt>
</event>
<event>
 9    1  0.2031653E-002  0.2756920E+03  0.7818608E-02  0.1098065E+00
         -2   -1    0    0    0  501 -0.00000000000E+00  0.00000000000E+00  0.32749074579E+02  0.32749074579E+02  0.00000000000E+00 0.  1.
          2   -1    0    0  501    0  0.00000000000E+00 -0.00000000000E+00 -0.58021543678E+03  0.58021543678E+03  0.00000000000E+00 0.  1.
         36    2    1    2    0    0  0.35527136788E-14 -0.71054273576E-14 -0.54746636220E+03  0.61296451136E+03  0.27569199198E+03 0.  0.
         25    2    3    3    0    0  0.19245682206E+02  0.24683230584E+02 -0.18126122085E+03  0.22458734227E+03  0.12885723095E+03 0.  0.
         25    2    3    3    0    0 -0.19245682206E+02 -0.24683230584E+02 -0.36620514135E+03  0.38837716909E+03  0.12550283568E+03 0.  0.
          5    1    4    4  502    0  0.68512799204E+02 -0.12764517077E+02 -0.84486637443E+02  0.10962216226E+03  0.47000000000E+01 0. -1.
         -5    1    4    4    0  502 -0.49267116998E+02  0.37447747661E+02 -0.96774583409E+02  0.11496518002E+03  0.47000000000E+01 0. -1.
          5    1    5    5  503    0 -0.72343760683E+01 -0.64322001440E+02 -0.10194242864E+03  0.12084703068E+03  0.47000000000E+01 0. -1.
         -5    1    5    5    0  503 -0.12011306138E+02  0.39638770856E+02 -0.26426271271E+03  0.26753013841E+03  0.47000000000E+01 0. -1.
<mgrwt>
<rscale>  0 0.27569199E+03</rscale>
<asrwt>0</asrwt>
<pdfrwt beam="1">  1        2 0.89263911E-01 0.27569199E+03</pdfrwt>
<pdfrwt beam="2">  1       -2 0.50383193E-02 0.27569199E+03</pdfrwt>
<totfact> 0.10106860E+04</totfact>
</mgrwt>
</event>
<event>
 9    1  0.2031653E-002  0.2744571E+03  0.7818608E-02  0.1098755E+00
         -2   -1    0    0    0  501 -0.00000000000E+00  0.00000000000E+00  0.35576120149E+02  0.35576120149E+02  0.00000000000E+00 0.  1.
          2   -1    0    0  501    0  0.00000000000E+00 -0.00000000000E+00 -0.52933465578E+03  0.52933465578E+03  0.00000000000E+00 0.  1.
         36    2    1    2    0    0  0.00000000000E+00 -0.71054273576E-14 -0.49375853563E+03  0.56491077592E+03  0.27445708818E+03 0.  0.
         25    2    3    3    0    0 -0.30270382235E+02  0.31407253096E+02 -0.17545016229E+03  0.21901100277E+03  0.12361370596E+03 0.  0.
         25    2    3    3    0    0  0.30270382235E+02 -0.31407253096E+02 -0.31830837334E+03  0.34589977315E+03  0.12815506600E+03 0.  0.
          5    1    4    4  502    0 -0.13783073599E+02 -0.45700977435E+02 -0.41125471081E+02  0.63181855212E+02  0.47000000000E+01 0.  1.
         -5    1    4    4    0  502 -0.16487308636E+02  0.77108230532E+02 -0.13432469120E+03  0.15582914756E+03  0.47000000000E+01 0.  1.
          5    1    5    5  503    0  0.42962196423E+02 -0.66666996625E+02 -0.28390166511E+03  0.29480923359E+03  0.47000000000E+01 0.  1.
         -5    1    5    5    0  503 -0.12691814188E+02  0.35259743529E+02 -0.34406708232E+02  0.51090539560E+02  0.47000000000E+01 0.  1.
<mgrwt>
<rscale>  0 0.27445709E+03</rscale>
<asrwt>0</asrwt>
<pdfrwt beam="1">  1        2 0.81436097E-01 0.27445709E+03</pdfrwt>
<pdfrwt beam="2">  1       -2 0.54732495E-02 0.27445709E+03</pdfrwt>
<totfact> 0.98907816E+03</totfact>
</mgrwt>
</event>
<event>
 9    1  0.2031653E-002  0.2747858E+03  0.7818608E-02  0.1098571E+00
          1   -1    0    0  501    0  0.00000000000E+00  0.00000000000E+00  0.47000561212E+03  0.47000561212E+03  0.00000000000E+00 0.  1.
         -1   -1    0    0    0  501 -0.00000000000E+00 -0.00000000000E+00 -0.40162930159E+02  0.40162930159E+02  0.00000000000E+00 0.  1.
         36    2    1    2    0    0  0.35527136788E-14  0.00000000000E+00  0.42984268196E+03  0.51016854228E+03  0.27478575344E+03 0.  0.
         25    2    3    3    0    0 -0.25337543460E+02 -0.15292813523E+02  0.20666333637E+03  0.25252694848E+03  0.14207133368E+03 0.  0.
         25    2    3    3    0    0  0.25337543460E+02  0.15292813523E+02  0.22317934559E+03  0.25764159380E+03  0.12527693046E+03 0.  0.
          5    1    4    4  502    0 -0.21180168890E+02 -0.73138135473E+02  0.16237881825E+03  0.17940668056E+03  0.47000000000E+01 0.  1.
         -5    1    4    4    0  502 -0.41573745696E+01  0.57845321950E+02  0.44284518128E+02  0.73120267920E+02  0.47000000000E+01 0.  1.
          5    1    5    5  503    0 -0.10817281518E+02 -0.35963829875E+01 -0.13001078725E+02  0.17918303436E+02  0.47000000000E+01 0. -1.
         -5    1    5    5    0  503  0.36154824977E+02  0.18889196510E+02  0.23618042431E+03  0.23972329036E+03  0.47000000000E+01 0. -1.
<mgrwt>
<rscale>  0 0.27478575E+03</rscale>
<asrwt>0</asrwt>
<pdfrwt beam="1">  1        1 0.72308552E-01 0.27478575E+03</pdfrwt>
<pdfrwt beam="2">  1       -1 0.61789126E-02 0.27478575E+03</pdfrwt>
<totfact> 0.62348701E+03</totfact>
</mgrwt>
</event>
<event>
 9    1  0.2031653E-002  0.2746993E+03  0.7818608E-02  0.1098620E+00
         -1   -1    0    0    0  501 -0.00000000000E+00  0.00000000000E+00  0.72692231639E+01  0.72692231639E+01  0.00000000000E+00 0.  1.
          1   -1    0    0  501    0  0.00000000000E+00 -0.00000000000E+00 -0.25951779139E+04  0.25951779139E+04  0.00000000000E+00 0.  1.
         36    2    1    2    0    0  0.71054273576E-14  0.71054273576E-14 -0.25879086908E+04  0.26024471371E+04  0.27469930765E+03 0.  0.
         25    2    3    3    0    0 -0.45034691474E+02 -0.11569747396E+02 -0.19729506644E+04  0.19773549282E+04  0.12343502503E+03 0.  0.
         25    2    3    3    0    0  0.45034691474E+02  0.11569747396E+02 -0.61495802638E+03  0.62509220891E+03  0.10200447512E+03 0.  0.
          5    1    4    4  502    0 -0.25655499452E+02 -0.67528795518E+02 -0.10441707333E+04  0.10466771007E+04  0.47000000000E+01 0. -1.
         -5    1    4    4    0  502 -0.19379192022E+02  0.55959048122E+02 -0.92877993110E+03  0.93067782748E+03  0.47000000000E+01 0. -1.
          5    1    5    5  503    0 -0.14253225008E+02  0.39883250340E+02 -0.16869048681E+03  0.17398965033E+03  0.47000000000E+01 0.  1.
         -5    1    5    5    0  503  0.59287916482E+02 -0.28313502944E+02 -0.44626753957E+03  0.45110255859E+03  0.47000000000E+01 0.  1.
<mgrwt>
<rscale>  0 0.27469931E+03</rscale>
<asrwt>0</asrwt>
<pdfrwt beam="1">  1        1 0.39925877E+00 0.27469931E+03</pdfrwt>
<pdfrwt beam="2">  1       -1 0.11183403E-02 0.27469931E+03</pdfrwt>
<totfact> 0.21910383E+03</totfact>
</mgrwt>
</event>
<event>
 9    1  0.2031653E-002  0.2760179E+03  0.7818608E-02  0.1097884E+00
          4   -1    0    0  501    0  0.00000000000E+00  0.00000000000E+00  0.21026072665E+03  0.21026072665E+03  0.00000000000E+00 0. -1.
         -4   -1    0    0    0  501 -0.00000000000E+00 -0.00000000000E+00 -0.90585042356E+02  0.90585042356E+02  0.00000000000E+00 0. -1.
         36    2    1    2    0    0  0.00000000000E+00  0.00000000000E+00  0.11967568430E+03  0.30084576901E+03  0.27601794746E+03 0.  0.
         25    2    3    3    0    0 -0.21083721092E+02  0.51711761181E+01  0.12722932515E+03  0.17514611705E+03  0.11839593228E+03 0.  0.
         25    2    3    3    0    0  0.21083721092E+02 -0.51711761181E+01 -0.75536408586E+01  0.12569965196E+03  0.12358025997E+03 0.  0.
          5    1    4    4  502    0  0.33327827155E+01 -0.52107964793E+02  0.32481817391E+02  0.61672570050E+02  0.47000000000E+01 0. -1.
         -5    1    4    4    0  502 -0.24416503808E+02  0.57279140911E+02  0.94747507763E+02  0.11347354700E+03  0.47000000000E+01 0. -1.
          5    1    5    5  503    0 -0.12172376172E+02  0.54990315399E+02 -0.52299106982E+01  0.56758642472E+02  0.47000000000E+01 0. -1.
         -5    1    5    5    0  503  0.33256097264E+02 -0.60161491517E+02 -0.23237301604E+01  0.68941009484E+02  0.47000000000E+01 0. -1.
<mgrwt>
<rscale>  0 0.27601795E+03</rscale>
<asrwt>0</asrwt>
<pdfrwt beam="1">  1        4 0.32347804E-01 0.27601795E+03</pdfrwt>
<pdfrwt beam="2">  1       -4 0.13936160E-01 0.27601795E+03</pdfrwt>
<totfact> 0.74050098E+02</totfact>
</mgrwt>
</event>
<event>
 9    1  0.2031653E-002  0.2758019E+03  0.7818608E-02  0.1098004E+00
          2   -1    0    0  501    0  0.00000000000E+00  0.00000000000E+00  0.35823555520E+03  0.35823555520E+03  0.00000000000E+00 0.  1.
         -2   -1    0    0    0  501 -0.00000000000E+00 -0.00000000000E+00 -0.53084278009E+02  0.53084278009E+02  0.00000000000E+00 0.  1.
         36    2    1    2    0    0  0.00000000000E+00  0.71054273576E-14  0.30515127719E+03  0.41131983321E+03  0.27580192751E+03 0.  0.
         25    2    3    3    0    0  0.61309071106E+02  0.30497459406E+02  0.16744006988E+03  0.21227367133E+03  0.11106321311E+03 0.  0.
         25    2    3    3    0    0 -0.61309071106E+02 -0.30497459406E+02  0.13771120731E+03  0.19904616188E+03  0.12635703665E+03 0.  0.
          5    1    4    4  502    0  0.57343956139E+02 -0.18245242052E+01  0.19590382571E+02  0.60807329193E+02  0.47000000000E+01 0.  1.
         -5    1    4    4    0  502  0.39651149669E+01  0.32321983612E+02  0.14784968731E+03  0.15146634213E+03  0.47000000000E+01 0.  1.
          5    1    5    5  503    0  0.34086083823E+02 -0.17311262089E+01  0.79167328826E+01  0.35350000960E+02  0.47000000000E+01 0. -1.
         -5    1    5    5    0  503 -0.95395154929E+02 -0.28766333197E+02  0.12979447443E+03  0.16369616092E+03  0.47000000000E+01 0. -1.
<mgrwt>
<rscale>  0 0.27580193E+03</rscale>
<asrwt>0</asrwt>
<pdfrwt beam="1">  1        2 0.55113161E-01 0.27580193E+03</pdfrwt>
<pdfrwt beam="2">  1       -2 0.81668122E-02 0.27580193E+03</pdfrwt>
<totfact> 0.81898267E+03</totfact>
</mgrwt>
</event>
<event>
 9    1  0.2031653E-002  0.2771127E+03  0.7818608E-02  0.1097276E+00
         -1   -1    0    0    0  501 -0.00000000000E+00  0.00000000000E+00  0.92565935991E+03  0.92565935991E+03  0.00000000000E+00 0. -1.
          1   -1    0    0  501    0  0.00000000000E+00 -0.00000000000E+00 -0.20739659212E+02  0.20739659212E+02  0.00000000000E+00 0. -1.
         36    2    1    2    0    0  0.00000000000E+00  0.17763568394E-14  0.90491970070E+03  0.94639901912E+03  0.27711268229E+03 0.  0.
         25    2    3    3    0    0  0.31284427879E+02  0.15195094444E+02  0.22983320324E+03  0.25893671605E+03  0.11408468472E+03 0.  0.
         25    2    3    3    0    0 -0.31284427879E+02 -0.15195094444E+02  0.67508649746E+03  0.68746230307E+03  0.12511208081E+03 0.  0.
          5    1    4    4  502    0  0.10352219428E+02  0.28005909294E+02  0.23190242603E+03  0.23386390188E+03  0.47000000000E+01 0.  1.
         -5    1    4    4    0  502  0.20932208451E+02 -0.12810814849E+02 -0.20692227923E+01  0.25072814176E+02  0.47000000000E+01 0.  1.
          5    1    5    5  503    0  0.19629931948E+02 -0.18154913999E+02  0.30452055961E+02  0.40796480766E+02  0.47000000000E+01 0. -1.
         -5    1    5    5    0  503 -0.50914359827E+02  0.29598195550E+01  0.64463444150E+03  0.64666582231E+03  0.47000000000E+01 0. -1.
<mgrwt>
<rscale>  0 0.27711268E+03</rscale>
<asrwt>0</asrwt>
<pdfrwt beam="1">  1        1 0.31907175E-02 0.27711268E+03</pdfrwt>
<pdfrwt beam="2">  1       -1 0.14240910E+00 0.27711268E+03</pdfrwt>
<totfact> 0.13519342E+03</totfact>
</mgrwt>
</event>
<event>
 9    1  0.2031653E-002  0.2746418E+03  0.7818608E-02  0.1098652E+00
         -2   -1    0    0    0  501 -0.00000000000E+00  0.00000000000E+00  0.27952923108E+02  0.27952923108E+02  0.00000000000E+00 0.  1.
          2   -1    0    0  501    0  0.00000000000E+00 -0.00000000000E+00 -0.67459943871E+03  0.67459943871E+03  0.00000000000E+00 0.  1.
         36    2    1    2    0    0  0.17763568394E-14  0.00000000000E+00 -0.64664651560E+03  0.70255236182E+03  0.27464177569E+03 0.  0.
         25    2    3    3    0    0 -0.10543743094E+02 -0.61138487016E+01 -0.43932036652E+03  0.45883887678E+03  0.13184149856E+03 0.  0.
         25    2    3    3    0    0  0.10543743094E+02  0.61138487016E+01 -0.20732614908E+03  0.24371348504E+03  0.12752874590E+03 0.  0.
          5    1    4    4  502    0  0.27288450409E+02 -0.59614946848E+02 -0.19189684345E+03  0.20284252498E+03  0.47000000000E+01 0. -1.
         -5    1    4    4    0  502 -0.37832193503E+02  0.53501098146E+02 -0.24742352307E+03  0.25599635180E+03  0.47000000000E+01 0. -1.
          5    1    5    5  503    0 -0.91883006135E+01  0.52012573861E+02 -0.33343727278E+02  0.62638860595E+02  0.47000000000E+01 0.  1.
         -5    1    5    5    0  503  0.19732043708E+02 -0.45898725160E+02 -0.17398242180E+03  0.18107462444E+03  0.47000000000E+01 0.  1.
<mgrwt>
<rscale>  0 0.27464178E+03</rscale>
<asrwt>0</asrwt>
<pdfrwt beam="1">  1        2 0.10378452E+00 0.27464178E+03</pdfrwt>
<pdfrwt beam="2">  1       -2 0.43004503E-02 0.27464178E+03</pdfrwt>
<totfact> 0.10760126E+04</totfact>
</mgrwt>
</event>
<event>
 9    1  0.2031653E-002  0.2748239E+03  0.7818608E-02  0.1098550E+00
         -4   -1    0    0    0  501 -0.00000000000E+00  0.00000000000E+00  0.13079798512E+02  0.13079798512E+02  0.00000000000E+00 0. -1.
          4   -1    0    0  501    0  0.00000000000E+00 -0.00000000000E+00 -0.14436037548E+04  0.14436037548E+04  0.00000000000E+00 0. -1.
         36    2    1    2    0    0  0.71054273576E-14  0.35527136788E-14 -0.14305239563E+04  0.14566835533E+04  0.27482391631E+03 0.  0.
         25    2    3    3    0    0  0.32174035379E+02  0.93705646235E+01 -0.50041600150E+03  0.51705388689E+03  0.12572021060E+03 0.  0.
         25    2    3    3    0    0 -0.32174035379E+02 -0.93705646235E+01 -0.93010795482E+03  0.93962966645E+03  0.12915156380E+03 0.  0.
          5    1    4    4  502    0 -0.89481447073E+01  0.53941006294E+02 -0.12192612015E+03  0.13370777923E+03  0.47000000000E+01 0.  1.
         -5    1    4    4    0  502  0.41122180087E+02 -0.44570441670E+02 -0.37848988135E+03  0.38334610765E+03  0.47000000000E+01 0.  1.
          5    1    5    5  503    0 -0.66057610134E+02  0.88048241155E+01 -0.82344272145E+03  0.82614837547E+03  0.47000000000E+01 0. -1.
         -5    1    5    5    0  503  0.33883574755E+02 -0.18175388739E+02 -0.10666523337E+03  0.11348129099E+03  0.47000000000E+01 0. -1.
<mgrwt>
<rscale>  0 0.27482392E+03</rscale>
<asrwt>0</asrwt>
<pdfrwt beam="1">  1        4 0.22209282E+00 0.27482392E+03</pdfrwt>
<pdfrwt beam="2">  1       -4 0.20122773E-02 0.27482392E+03</pdfrwt>
<totfact> 0.19768127E+02</totfact>
</mgrwt>
</event>
<event>
 9    1  0.2031653E-002  0.2746537E+03  0.7818608E-02  0.1098645E+00
         -1   -1    0    0    0  501 -0.00000000000E+00  0.00000000000E+00  0.43940700193E+03  0.43940700193E+03  0.00000000000E+00 0. -1.
          1   -1    0    0  501    0  0.00000000000E+00 -0.00000000000E+00 -0.42918450031E+02  0.42918450031E+02  0.00000000000E+00 0. -1.
         36    2    1    2    0    0 -0.35527136788E-14  0.35527136788E-14  0.39648855190E+03  0.48232545196E+03  0.27465372712E+03 0.  0.
         25    2    3    3    0    0  0.31327221346E+02 -0.13388788100E+02  0.12266286271E+03  0.17804891461E+03  0.12447724154E+03 0.  0.
         25    2    3    3    0    0 -0.31327221346E+02  0.13388788100E+02  0.27382568919E+03  0.30427653735E+03  0.12823045145E+03 0.  0.
          5    1    4    4  502    0 -0.21528322592E+02  0.10837355008E+02  0.11687832035E+03  0.11943009966E+03  0.47000000000E+01 0. -1.
         -5    1    4    4    0  502  0.52855543938E+02 -0.24226143108E+02  0.57845423550E+01  0.58618814941E+02  0.47000000000E+01 0. -1.
          5    1    5    5  503    0  0.14476214552E+02  0.51300704823E+02  0.21087214286E+03  0.21755567963E+03  0.47000000000E+01 0. -1.
         -5    1    5    5    0  503 -0.45803435898E+02 -0.37911916722E+02  0.62953546328E+02  0.86720857727E+02  0.47000000000E+01 0. -1.
<mgrwt>
<rscale>  0 0.27465373E+03</rscale>
<asrwt>0</asrwt>
<pdfrwt beam="1">  1        1 0.66028388E-02 0.27465373E+03</pdfrwt>
<pdfrwt beam="2">  1       -1 0.67601074E-01 0.27465373E+03</pdfrwt>
<totfact> 0.25957939E+03</totfact>
</mgrwt>
</event>
<event>
 9    1  0.2031653E-002  0.2705100E+03  0.7818608E-02  0.1100988E+00
         -2   -1    0    0    0  501 -0.00000000000E+00  0.00000000000E+00  0.49532541705E+02  0.49532541705E+02  0.00000000000E+00 0. -1.
          2   -1    0    0  501    0  0.00000000000E+00 -0.00000000000E+00 -0.36933110407E+03  0.36933110407E+03  0.00000000000E+00 0. -1.
         36    2    1    2    0    0  0.00000000000E+00 -0.71054273576E-14 -0.31979856236E+03  0.41886364577E+03  0.27050995039E+03 0.  0.
         25    2    3    3    0    0  0.21850347766E+02  0.36445486336E+02 -0.18926871318E+03  0.23139057026E+03  0.12614768743E+03 0.  0.
         25    2    3    3    0    0 -0.21850347766E+02 -0.36445486336E+02 -0.13052984919E+03  0.18747307552E+03  0.12768085739E+03 0.  0.
          5    1    4    4  502    0  0.57419980153E+02  0.85416475416E+01 -0.29508622345E+02  0.65290601592E+02  0.47000000000E+01 0. -1.
         -5    1    4    4    0  502 -0.35569632387E+02  0.27903838794E+02 -0.15976009083E+03  0.16609996866E+03  0.47000000000E+01 0. -1.
          5    1    5    5  503    0  0.10064031865E+02  0.45066576628E+02 -0.37740324951E+02  0.59822263362E+02  0.47000000000E+01 0. -1.
         -5    1    5    5    0  503 -0.31914379631E+02 -0.81512062964E+02 -0.92789524234E+02  0.12765081215E+03  0.47000000000E+01 0. -1.
<mgrwt>
<rscale>  0 0.27050995E+03</rscale>
<asrwt>0</asrwt>
<pdfrwt beam="1">  1        2 0.56820171E-01 0.27050995E+03</pdfrwt>
<pdfrwt beam="2">  1       -2 0.76203909E-02 0.27050995E+03</pdfrwt>
<totfact> 0.88217644E+03</totfact>
</mgrwt>
</event>
<event>
 9    1  0.2031653E-002  0.2730485E+03  0.7818608E-02  0.1099547E+00
         -2   -1    0    0    0  501 -0.00000000000E+00  0.00000000000E+00  0.13698763211E+03  0.13698763211E+03  0.00000000000E+00 0. -1.
          2   -1    0    0  501    0  0.00000000000E+00 -0.00000000000E+00 -0.13606244472E+03  0.13606244472E+03  0.00000000000E+00 0. -1.
         36    2    1    2    0    0  0.00000000000E+00  0.00000000000E+00  0.92518738902E+00  0.27305007684E+03  0.27304850941E+03 0.  0.
         25    2    3    3    0    0 -0.45400505789E+01 -0.55262564169E+02 -0.27762541785E+02  0.13236619619E+03  0.11694224262E+03 0.  0.
         25    2    3    3    0    0  0.45400505789E+01  0.55262564169E+02  0.28687729174E+02  0.14068388065E+03  0.12607301619E+03 0.  0.
          5    1    4    4  502    0 -0.24895209318E+02 -0.38058977871E+02  0.39147580319E+02  0.60190367074E+02  0.47000000000E+01 0. -1.
         -5    1    4    4    0  502  0.20355158739E+02 -0.17203586298E+02 -0.66910122105E+02  0.72175829118E+02  0.47000000000E+01 0. -1.
          5    1    5    5  503    0  0.19512640620E+02  0.45051276134E+02 -0.43711747720E+02  0.65902712494E+02  0.47000000000E+01 0.  1.
         -5    1    5    5    0  503 -0.14972590041E+02  0.10211288035E+02  0.72399476894E+02  0.74781168153E+02  0.47000000000E+01 0.  1.
<mgrwt>
<rscale>  0 0.27304851E+03</rscale>
<asrwt>0</asrwt>
<pdfrwt beam="1">  1        2 0.20932684E-01 0.27304851E+03</pdfrwt>
<pdfrwt beam="2">  1       -2 0.21075020E-01 0.27304851E+03</pdfrwt>
<totfact> 0.50208419E+03</totfact>
</mgrwt>
</event>
<event>
 9    1  0.2031653E-002  0.2748570E+03  0.7818608E-02  0.1098532E+00
          1   -1    0    0  501    0  0.00000000000E+00  0.00000000000E+00  0.10425898155E+04  0.10425898155E+04  0.00000000000E+00 0.  1.
         -1   -1    0    0    0  501 -0.00000000000E+00 -0.00000000000E+00 -0.18115071382E+02  0.18115071382E+02  0.00000000000E+00 0.  1.
         36    2    1    2    0    0 -0.10658141036E-13  0.00000000000E+00  0.10244747441E+04  0.10607048868E+04  0.27485697320E+03 0.  0.
         25    2    3    3    0    0 -0.17961976537E+02 -0.37513919060E+02  0.61713689125E+03  0.63127604580E+03  0.12618073045E+03 0.  0.
         25    2    3    3    0    0  0.17961976537E+02  0.37513919060E+02  0.40733785284E+03  0.42942884105E+03  0.12944140159E+03 0.  0.
          5    1    4    4  502    0 -0.54170645582E+02 -0.66684601827E+02  0.41038791079E+03  0.41931088978E+03  0.47000000000E+01 0. -1.
         -5    1    4    4    0  502  0.36208669045E+02  0.29170682767E+02  0.20674898045E+03  0.21196515602E+03  0.47000000000E+01 0. -1.
          5    1    5    5  503    0  0.34271253711E+02 -0.22292025956E+02  0.31763234345E+03  0.32028713501E+03  0.47000000000E+01 0.  1.
         -5    1    5    5    0  503 -0.16309277174E+02  0.59805945017E+02  0.89705509391E+02  0.10914170604E+03  0.47000000000E+01 0.  1.
<mgrwt>
<rscale>  0 0.27485697E+03</rscale>
<asrwt>0</asrwt>
<pdfrwt beam="1">  1        1 0.16039839E+00 0.27485697E+03</pdfrwt>
<pdfrwt beam="2">  1       -1 0.27869349E-02 0.27485697E+03</pdfrwt>
<totfact> 0.62485215E+03</totfact>
</mgrwt>
</event>
<event>
 9    1  0.2031653E-002  0.2753715E+03  0.7818608E-02  0.1098244E+00
          3   -1    0    0  501    0  0.00000000000E+00  0.00000000000E+00  0.68305905022E+02  0.68305905022E+02  0.00000000000E+00 0. -1.
         -3   -1    0    0    0  501 -0.00000000000E+00 -0.00000000000E+00 -0.27753633046E+03  0.27753633046E+03  0.00000000000E+00 0. -1.
         36    2    1    2    0    0  0.35527136788E-14  0.14210854715E-13 -0.20923042544E+03  0.34584223548E+03  0.27537153251E+03 0.  0.
         25    2    3    3    0    0 -0.30217486229E+02 -0.52047831822E+02 -0.11420701405E+03  0.17522094801E+03  0.11847812157E+03 0.  0.
         25    2    3    3    0    0  0.30217486229E+02  0.52047831822E+02 -0.95023411384E+02  0.17062128747E+03  0.12829692808E+03 0.  0.
          5    1    4    4  502    0 -0.33066532712E+01  0.38130905583E+02 -0.30109255244E+02  0.48923993784E+02  0.47000000000E+01 0.  1.
         -5    1    4    4    0  502 -0.26910832958E+02 -0.90178737405E+02 -0.84097758810E+02  0.12629695423E+03  0.47000000000E+01 0.  1.
          5    1    5    5  503    0  0.38373062668E+02 -0.57359948712E+01  0.18233720333E+02  0.43127162355E+02  0.47000000000E+01 0. -1.
         -5    1    5    5    0  503 -0.81555764385E+01  0.57783826693E+02 -0.11325713172E+03  0.12749412512E+03  0.47000000000E+01 0. -1.
<mgrwt>
<rscale>  0 0.27537153E+03</rscale>
<asrwt>0</asrwt>
<pdfrwt beam="1">  1        3 0.10508601E-01 0.27537153E+03</pdfrwt>
<pdfrwt beam="2">  1       -3 0.42697898E-01 0.27537153E+03</pdfrwt>
<totfact> 0.94419144E+02</totfact>
</mgrwt>
</event>
<event>
 9    1  0.2031653E-002  0.2745078E+03  0.7818608E-02  0.1098727E+00
         -1   -1    0    0    0  501 -0.00000000000E+00  0.00000000000E+00  0.64299224808E+02  0.64299224808E+02  0.00000000000E+00 0. -1.
          1   -1    0    0  501    0  0.00000000000E+00 -0.00000000000E+00 -0.29298372708E+03  0.29298372708E+03  0.00000000000E+00 0. -1.
         36    2    1    2    0    0  0.00000000000E+00  0.00000000000E+00 -0.22868450227E+03  0.35728295188E+03  0.27450775240E+03 0.  0.
         25    2    3    3    0    0 -0.55672413648E+02 -0.13055861810E+02 -0.13786960376E+03  0.18923802923E+03  0.11633198569E+03 0.  0.
         25    2    3    3    0    0  0.55672413648E+02  0.13055861810E+02 -0.90814898506E+02  0.16804492266E+03  0.12931309706E+03 0.  0.
          5    1    4    4  502    0 -0.50507067049E+02  0.21940566421E+02 -0.95973212707E+01  0.56094124936E+02  0.47000000000E+01 0. -1.
         -5    1    4    4    0  502 -0.51653465987E+01 -0.34996428231E+02 -0.12827228249E+03  0.13314390429E+03  0.47000000000E+01 0. -1.
          5    1    5    5  503    0  0.38600028586E+02 -0.41481795255E+02 -0.94824743823E+02  0.11056456750E+03  0.47000000000E+01 0.  1.
         -5    1    5    5    0  503  0.17072385062E+02  0.54537657065E+02  0.40098453177E+01  0.57480355160E+02  0.47000000000E+01 0.  1.
<mgrwt>
<rscale>  0 0.27450775E+03</rscale>
<asrwt>0</asrwt>
<pdfrwt beam="1">  1        1 0.45074419E-01 0.27450775E+03</pdfrwt>
<pdfrwt beam="2">  1       -1 0.98921885E-02 0.27450775E+03</pdfrwt>
<totfact> 0.55597456E+03</totfact>
</mgrwt>
</event>
<event>
 9    1  0.2031653E-002  0.2749254E+03  0.7818608E-02  0.1098493E+00
         -3   -1    0    0    0  501 -0.00000000000E+00  0.00000000000E+00  0.17061247245E+03  0.17061247245E+03  0.00000000000E+00 0.  1.
          3   -1    0    0  501    0  0.00000000000E+00 -0.00000000000E+00 -0.11075390656E+03  0.11075390656E+03  0.00000000000E+00 0.  1.
         36    2    1    2    0    0  0.00000000000E+00  0.00000000000E+00  0.59858565891E+02  0.28136637900E+03  0.27492542866E+03 0.  0.
         25    2    3    3    0    0  0.31856651384E+02  0.22364718692E+02  0.77235415704E+02  0.15031123881E+03  0.12293547980E+03 0.  0.
         25    2    3    3    0    0 -0.31856651384E+02 -0.22364718692E+02 -0.17376849813E+02  0.13105514019E+03  0.12392928622E+03 0.  0.
          5    1    4    4  502    0 -0.79587622808E+01  0.61839592427E+02  0.69551204578E+02  0.93525061598E+02  0.47000000000E+01 0.  1.
         -5    1    4    4    0  502  0.39815413665E+02 -0.39474873735E+02  0.76842111261E+01  0.56786177212E+02  0.47000000000E+01 0.  1.
          5    1    5    5  503    0 -0.75724353652E+02 -0.32622010502E+02 -0.12688087168E+00  0.82586193786E+02  0.47000000000E+01 0. -1.
         -5    1    5    5    0  503  0.43867702268E+02  0.10257291810E+02 -0.17249968941E+02  0.48468946409E+02  0.47000000000E+01 0. -1.
<mgrwt>
<rscale>  0 0.27492543E+03</rscale>
<asrwt>0</asrwt>
<pdfrwt beam="1">  1        3 0.17039063E-01 0.27492543E+03</pdfrwt>
<pdfrwt beam="2">  1       -3 0.26248073E-01 0.27492543E+03</pdfrwt>
<totfact> 0.10400417E+03</totfact>
</mgrwt>
</event>
<event>
 9    1  0.2031653E-002  0.2748868E+03  0.7818608E-02  0.1098515E+00
          4   -1    0    0  501    0  0.00000000000E+00  0.00000000000E+00  0.13689840238E+03  0.13689840238E+03  0.00000000000E+00 0.  1.
         -4   -1    0    0    0  501 -0.00000000000E+00 -0.00000000000E+00 -0.13799059712E+03  0.13799059712E+03  0.00000000000E+00 0.  1.
         36    2    1    2    0    0  0.71054273576E-14  0.00000000000E+00 -0.10921947334E+01  0.27488899950E+03  0.27488682973E+03 0.  0.
         25    2    3    3    0    0  0.45013387503E+02 -0.21928265595E+02 -0.22486814962E+02  0.13395941498E+03  0.12219825747E+03 0.  0.
         25    2    3    3    0    0 -0.45013387503E+02  0.21928265595E+02  0.21394620229E+02  0.14092958452E+03  0.12998601514E+03 0.  0.
          5    1    4    4  502    0 -0.31738598114E+02  0.25875513458E+02 -0.11213238745E+02  0.42716595489E+02  0.47000000000E+01 0. -1.
         -5    1    4    4    0  502  0.76751985617E+02 -0.47803779054E+02 -0.11273576217E+02  0.91242819491E+02  0.47000000000E+01 0. -1.
          5    1    5    5  503    0 -0.16474623164E+02 -0.16903226204E+02  0.68969951751E+02  0.73048453160E+02  0.47000000000E+01 0. -1.
         -5    1    5    5    0  503 -0.28538764339E+02  0.38831491800E+02 -0.47575331522E+02  0.67881131361E+02  0.47000000000E+01 0. -1.
<mgrwt>
<rscale>  0 0.27488683E+03</rscale>
<asrwt>0</asrwt>
<pdfrwt beam="1">  1        4 0.21061293E-01 0.27488683E+03</pdfrwt>
<pdfrwt beam="2">  1       -4 0.21229322E-01 0.27488683E+03</pdfrwt>
<totfact> 0.77975675E+02</totfact>
</mgrwt>
</event>
<event>
 9    1  0.2031653E-002  0.2760206E+03  0.7818608E-02  0.1097882E+00
          2   -1    0    0  501    0  0.00000000000E+00  0.00000000000E+00  0.67953233440E+03  0.67953233440E+03  0.00000000000E+00 0. -1.
         -2   -1    0    0    0  501 -0.00000000000E+00 -0.00000000000E+00 -0.28029344956E+02  0.28029344956E+02  0.00000000000E+00 0. -1.
         36    2    1    2    0    0  0.00000000000E+00  0.00000000000E+00  0.65150298944E+03  0.70756167935E+03  0.27602062393E+03 0.  0.
         25    2    3    3    0    0 -0.47674089963E+02 -0.47444485797E+01  0.24617512887E+03  0.28051514409E+03  0.12566313437E+03 0.  0.
         25    2    3    3    0    0  0.47674089963E+02  0.47444485797E+01  0.40532786057E+03  0.42704653526E+03  0.12562937588E+03 0.  0.
          5    1    4    4  502    0 -0.12087606922E+02  0.49696771252E+02  0.42529706879E+02  0.66683920709E+02  0.47000000000E+01 0.  1.
         -5    1    4    4    0  502 -0.35586483041E+02 -0.54441219831E+02  0.20364542200E+03  0.21383122338E+03  0.47000000000E+01 0.  1.
          5    1    5    5  503    0  0.48177581825E+01 -0.23692721114E+02  0.73104051984E+01  0.25692174915E+02  0.47000000000E+01 0. -1.
         -5    1    5    5    0  503  0.42856331781E+02  0.28437169694E+02  0.39801745537E+03  0.40135436035E+03  0.47000000000E+01 0. -1.
<mgrwt>
<rscale>  0 0.27602062E+03</rscale>
<asrwt>0</asrwt>
<pdfrwt beam="1">  1        2 0.10454342E+00 0.27602062E+03</pdfrwt>
<pdfrwt beam="2">  1       -2 0.43122074E-02 0.27602062E+03</pdfrwt>
<totfact> 0.10624476E+04</totfact>
</mgrwt>
</event>
<event>
 9    1  0.2031653E-002  0.2755674E+03  0.7818608E-02  0.1098135E+00
          1   -1    0    0  501    0  0.00000000000E+00  0.00000000000E+00  0.72746788883E+03  0.72746788883E+03  0.00000000000E+00 0.  1.
         -1   -1    0    0    0  501 -0.00000000000E+00 -0.00000000000E+00 -0.26096470361E+02  0.26096470361E+02  0.00000000000E+00 0.  1.
         36    2    1    2    0    0 -0.71054273576E-14  0.00000000000E+00  0.70137141847E+03  0.75356435919E+03  0.27556737252E+03 0.  0.
         25    2    3    3    0    0  0.49306816203E+02  0.98399168209E+01  0.41929740215E+03  0.44046884262E+03  0.12519785854E+03 0.  0.
         25    2    3    3    0    0 -0.49306816203E+02 -0.98399168209E+01  0.28207401631E+03  0.31309551656E+03  0.12623417020E+03 0.  0.
          5    1    4    4  502    0 -0.24698829665E+01  0.11043303853E+02  0.36528628101E+03  0.36549173996E+03  0.47000000000E+01 0. -1.
         -5    1    4    4    0  502  0.51776699170E+02 -0.12033870319E+01  0.54011121145E+02  0.74977102669E+02  0.47000000000E+01 0. -1.
          5    1    5    5  503    0  0.33337030203E+02  0.20130620901E+02  0.42388151970E+02  0.57753310798E+02  0.47000000000E+01 0.  1.
         -5    1    5    5    0  503 -0.82643846406E+02 -0.29970537722E+02  0.23968586434E+03  0.25534220576E+03  0.47000000000E+01 0.  1.
<mgrwt>
<rscale>  0 0.27556737E+03</rscale>
<asrwt>0</asrwt>
<pdfrwt beam="1">  1        1 0.11191812E+00 0.27556737E+03</pdfrwt>
<pdfrwt beam="2">  1       -1 0.40148421E-02 0.27556737E+03</pdfrwt>
<totfact> 0.64962082E+03</totfact>
</mgrwt>
</event>
<event>
 9    1  0.2031653E-002  0.2735884E+03  0.7818608E-02  0.1099243E+00
          1   -1    0    0  501    0  0.00000000000E+00  0.00000000000E+00  0.62774087290E+02  0.62774087290E+02  0.00000000000E+00 0. -1.
         -1   -1    0    0    0  501 -0.00000000000E+00 -0.00000000000E+00 -0.29809525268E+03  0.29809525268E+03  0.00000000000E+00 0. -1.
         36    2    1    2    0    0  0.71054273576E-14  0.00000000000E+00 -0.23532116539E+03  0.36086933997E+03  0.27358843113E+03 0.  0.
         25    2    3    3    0    0 -0.11365556797E+02 -0.19076334862E+02 -0.10304778760E+03  0.17512913343E+03  0.13985093640E+03 0.  0.
         25    2    3    3    0    0  0.11365556797E+02  0.19076334862E+02 -0.13227337779E+03  0.18574020655E+03  0.12849161615E+03 0.  0.
          5    1    4    4  502    0 -0.57298194962E+02 -0.57475738305E+02 -0.64441219108E+02  0.10373670691E+03  0.47000000000E+01 0.  1.
         -5    1    4    4    0  502  0.45932638166E+02  0.38399403443E+02 -0.38606568491E+02  0.71392426519E+02  0.47000000000E+01 0.  1.
          5    1    5    5  503    0  0.55729915924E+02  0.30466526941E+02 -0.23958440844E+02  0.68045056253E+02  0.47000000000E+01 0.  1.
         -5    1    5    5    0  503 -0.44364359128E+02 -0.11390192079E+02 -0.10831493695E+03  0.11769515029E+03  0.47000000000E+01 0.  1.
<mgrwt>
<rscale>  0 0.27358843E+03</rscale>
<asrwt>0</asrwt>
<pdfrwt beam="1">  1        1 0.96575518E-02 0.27358843E+03</pdfrwt>
<pdfrwt beam="2">  1       -1 0.45860809E-01 0.27358843E+03</pdfrwt>
<totfact> 0.32278248E+03</totfact>
</mgrwt>
</event>
<event>
 9    1  0.2031653E-002  0.2754069E+03  0.7818608E-02  0.1098224E+00
         -2   -1    0    0    0  501 -0.00000000000E+00  0.00000000000E+00  0.11978778768E+02  0.11978778768E+02  0.00000000000E+00 0.  1.
          2   -1    0    0  501    0  0.00000000000E+00 -0.00000000000E+00 -0.15829866372E+04  0.15829866372E+04  0.00000000000E+00 0.  1.
         36    2    1    2    0    0  0.88817841970E-15  0.00000000000E+00 -0.15710078585E+04  0.15949654160E+04  0.27540694777E+03 0.  0.
         25    2    3    3    0    0  0.72987325302E-01  0.32007339941E+02 -0.47508212010E+03  0.49182764289E+03  0.12315410806E+03 0.  0.
         25    2    3    3    0    0 -0.72987325302E-01 -0.32007339941E+02 -0.10959257384E+04  0.11031377731E+04  0.12180003005E+03 0.  0.
          5    1    4    4  502    0 -0.73107174906E+01  0.24376468863E+02 -0.11873163278E+02  0.28473159830E+02  0.47000000000E+01 0. -1.
         -5    1    4    4    0  502  0.73837048159E+01  0.76308710779E+01 -0.46320895682E+03  0.46335448306E+03  0.47000000000E+01 0. -1.
          5    1    5    5  503    0 -0.48921017090E+02  0.18619305274E+02 -0.58758007885E+03  0.58992574406E+03  0.47000000000E+01 0.  1.
         -5    1    5    5    0  503  0.48848029765E+02 -0.50626645215E+02 -0.50834565951E+03  0.51321202904E+03  0.47000000000E+01 0.  1.
<mgrwt>
<rscale>  0 0.27540695E+03</rscale>
<asrwt>0</asrwt>
<pdfrwt beam="1">  1        2 0.24353614E+00 0.27540695E+03</pdfrwt>
<pdfrwt beam="2">  1       -2 0.18428910E-02 0.27540695E+03</pdfrwt>
<totfact> 0.10744870E+04</totfact>
</mgrwt>
</event>
<event>
 9    1  0.2031653E-002  0.2744172E+03  0.7818608E-02  0.1098778E+00
          2   -1    0    0  501    0  0.00000000000E+00  0.00000000000E+00  0.12520618021E+03  0.12520618021E+03  0.00000000000E+00 0. -1.
         -2   -1    0    0    0  501 -0.00000000000E+00 -0.00000000000E+00 -0.15036156377E+03  0.15036156377E+03  0.00000000000E+00 0. -1.
         36    2    1    2    0    0  0.00000000000E+00 -0.14210854715E-13 -0.25155383560E+02  0.27556774398E+03  0.27441717913E+03 0.  0.
         25    2    3    3    0    0  0.24779331784E+02  0.32940264327E+02 -0.52150400092E+02  0.14247790004E+03  0.12602067875E+03 0.  0.
         25    2    3    3    0    0 -0.24779331784E+02 -0.32940264327E+02  0.26995016532E+02  0.13308984394E+03  0.12363292177E+03 0.  0.
          5    1    4    4  502    0  0.45981548303E+01  0.69805742473E+02 -0.67656903166E+02  0.97434753841E+02  0.47000000000E+01 0.  1.
         -5    1    4    4    0  502  0.20181176954E+02 -0.36865478146E+02  0.15506503074E+02  0.45043146202E+02  0.47000000000E+01 0.  1.
          5    1    5    5  503    0 -0.29546303768E+01  0.57795285445E+01  0.70360070563E+02  0.70814986553E+02  0.47000000000E+01 0. -1.
         -5    1    5    5    0  503 -0.21824701407E+02 -0.38719792872E+02 -0.43365054032E+02  0.62274857388E+02  0.47000000000E+01 0. -1.
<mgrwt>
<rscale>  0 0.27441718E+03</rscale>
<asrwt>0</asrwt>
<pdfrwt beam="1">  1        2 0.19262489E-01 0.27441718E+03</pdfrwt>
<pdfrwt beam="2">  1       -2 0.23132548E-01 0.27441718E+03</pdfrwt>
<totfact> 0.46995411E+03</totfact>
</mgrwt>
</event>
<event>
 9    1  0.2031653E-002  0.2724658E+03  0.7818608E-02  0.1099877E+00
          3   -1    0    0  501    0  0.00000000000E+00  0.00000000000E+00  0.43460609741E+03  0.43460609741E+03  0.00000000000E+00 0. -1.
         -3   -1    0    0    0  501 -0.00000000000E+00 -0.00000000000E+00 -0.42703962696E+02  0.42703962696E+02  0.00000000000E+00 0. -1.
         36    2    1    2    0    0 -0.71054273576E-14  0.00000000000E+00  0.39190213471E+03  0.47731006010E+03  0.27246579654E+03 0.  0.
         25    2    3    3    0    0 -0.21723401061E+02  0.51291079742E+01  0.23143115203E+03  0.27796861135E+03  0.15234157956E+03 0.  0.
         25    2    3    3    0    0  0.21723401061E+02 -0.51291079742E+01  0.16047098268E+03  0.19934144876E+03  0.11613725934E+03 0.  0.
          5    1    4    4  502    0  0.64105423210E+02  0.55310324609E+01  0.70808745224E+02  0.95791784644E+02  0.47000000000E+01 0. -1.
         -5    1    4    4    0  502 -0.85828824271E+02 -0.40192448674E+00  0.16062240681E+03  0.18217682670E+03  0.47000000000E+01 0. -1.
          5    1    5    5  503    0  0.34334765913E+02 -0.24203317964E+02  0.55051428487E+01  0.42627143331E+02  0.47000000000E+01 0.  1.
         -5    1    5    5    0  503 -0.12611364852E+02  0.19074209990E+02  0.15496583983E+03  0.15671430543E+03  0.47000000000E+01 0.  1.
<mgrwt>
<rscale>  0 0.27246580E+03</rscale>
<asrwt>0</asrwt>
<pdfrwt beam="1">  1        3 0.66862473E-01 0.27246580E+03</pdfrwt>
<pdfrwt beam="2">  1       -3 0.65698407E-02 0.27246580E+03</pdfrwt>
<totfact> 0.81953597E+02</totfact>
</mgrwt>
</event>
<event>
 9    1  0.2031653E-002  0.2755801E+03  0.7818608E-02  0.1098128E+00
          2   -1    0    0  501    0  0.00000000000E+00  0.00000000000E+00  0.14944823355E+04  0.14944823355E+04  0.00000000000E+00 0. -1.
         -2   -1    0    0    0  501 -0.00000000000E+00 -0.00000000000E+00 -0.12704131089E+02  0.12704131089E+02  0.00000000000E+00 0. -1.
         36    2    1    2    0    0 -0.35527136788E-14 -0.71054273576E-14  0.14817782045E+04  0.15071864666E+04  0.27558011177E+03 0.  0.
         25    2    3    3    0    0 -0.17296398704E+02 -0.34494116246E+02  0.46947186561E+03  0.48638388233E+03  0.12114635332E+03 0.  0.
         25    2    3    3    0    0  0.17296398704E+02  0.34494116246E+02  0.10123063388E+04  0.10208025843E+04  0.12563750635E+03 0.  0.
          5    1    4    4  502    0 -0.41704229573E+02 -0.65186468282E+02  0.20863694591E+03  0.22257579295E+03  0.47000000000E+01 0.  1.
         -5    1    4    4    0  502  0.24407830870E+02  0.30692352036E+02  0.26083491971E+03  0.26380808937E+03  0.47000000000E+01 0.  1.
          5    1    5    5  503    0  0.22319163237E+02 -0.44924364265E+02  0.46496209754E+03  0.46768385230E+03  0.47000000000E+01 0. -1.
         -5    1    5    5    0  503 -0.50227645335E+01  0.79418480511E+02  0.54734424130E+03  0.55311873201E+03  0.47000000000E+01 0. -1.
<mgrwt>
<rscale>  0 0.27558011E+03</rscale>
<asrwt>0</asrwt>
<pdfrwt beam="1">  1        2 0.22992022E+00 0.27558011E+03</pdfrwt>
<pdfrwt beam="2">  1       -2 0.19544829E-02 0.27558011E+03</pdfrwt>
<totfact> 0.10986635E+04</totfact>
</mgrwt>
</event>
<event>
 9    1  0.2031653E-002  0.2737087E+03  0.7818608E-02  0.1099176E+00
          2   -1    0    0  501    0  0.00000000000E+00  0.00000000000E+00  0.12060940115E+04  0.12060940115E+04  0.00000000000E+00 0.  1.
         -2   -1    0    0    0  501 -0.00000000000E+00 -0.00000000000E+00 -0.15528735730E+02  0.15528735730E+02  0.00000000000E+00 0.  1.
         36    2    1    2    0    0  0.00000000000E+00  0.00000000000E+00  0.11905652757E+04  0.12216227472E+04  0.27370871502E+03 0.  0.
         25    2    3    3    0    0 -0.30540831907E+01 -0.19054931239E+02  0.27797061950E+03  0.29961811033E+03  0.11014049620E+03 0.  0.
         25    2    3    3    0    0  0.30540831907E+01  0.19054931239E+02  0.91259465623E+03  0.92200463686E+03  0.12996586470E+03 0.  0.
          5    1    4    4  502    0 -0.53407605165E+02 -0.24406072445E+01  0.18344224122E+03  0.19113208709E+03  0.47000000000E+01 0. -1.
         -5    1    4    4    0  502  0.50353521975E+02 -0.16614323994E+02  0.94528378282E+02  0.10848602324E+03  0.47000000000E+01 0. -1.
          5    1    5    5  503    0 -0.58905191306E+02 -0.10920120852E+02  0.51178187270E+03  0.51529782245E+03  0.47000000000E+01 0. -1.
         -5    1    5    5    0  503  0.61959274497E+02  0.29975052091E+02  0.40081278353E+03  0.40670681440E+03  0.47000000000E+01 0. -1.
<mgrwt>
<rscale>  0 0.27370872E+03</rscale>
<asrwt>0</asrwt>
<pdfrwt beam="1">  1        2 0.18555285E+00 0.27370872E+03</pdfrwt>
<pdfrwt beam="2">  1       -2 0.23890372E-02 0.27370872E+03</pdfrwt>
<totfact> 0.11765764E+04</totfact>
</mgrwt>
</event>
<event>
 9    1  0.2031653E-002  0.2751363E+03  0.7818608E-02  0.1098375E+00
         -2   -1    0    0    0  501 -0.00000000000E+00  0.00000000000E+00  0.15323983240E+02  0.15323983240E+02  0.00000000000E+00 0.  1.
          2   -1    0    0  501    0  0.00000000000E+00 -0.00000000000E+00 -0.12349922648E+04  0.12349922648E+04  0.00000000000E+00 0.  1.
         36    2    1    2    0    0  0.00000000000E+00  0.71054273576E-14 -0.12196682816E+04  0.12503162480E+04  0.27513633542E+03 0.  0.
         25    2    3    3    0    0  0.50571995797E+02  0.22222676817E+02 -0.74807716779E+03  0.75937926387E+03  0.11826260314E+03 0.  0.
         25    2    3    3    0    0 -0.50571995797E+02 -0.22222676817E+02 -0.47159111376E+03  0.49093698416E+03  0.12477808187E+03 0.  0.
          5    1    4    4  502    0 -0.23262484466E+02  0.41198737771E+02 -0.41188500917E+03  0.41462010318E+03  0.47000000000E+01 0. -1.
         -5    1    4    4    0  502  0.73834480263E+02 -0.18976060954E+02 -0.33619215862E+03  0.34475916069E+03  0.47000000000E+01 0. -1.
          5    1    5    5  503    0 -0.37470501658E+02 -0.51779734101E+02 -0.44272929975E+03  0.44734382998E+03  0.47000000000E+01 0.  1.
         -5    1    5    5    0  503 -0.13101494139E+02  0.29557057284E+02 -0.28861814007E+02  0.43593154184E+02  0.47000000000E+01 0.  1.
<mgrwt>
<rscale>  0 0.27513634E+03</rscale>
<asrwt>0</asrwt>
<pdfrwt beam="1">  1        2 0.18999889E+00 0.27513634E+03</pdfrwt>
<pdfrwt beam="2">  1       -2 0.23575349E-02 0.27513634E+03</pdfrwt>
<totfact> 0.11557774E+04</totfact>
</mgrwt>
</event>
<event>
 9    1  0.2031653E-002  0.2737973E+03  0.7818608E-02  0.1099126E+00
          2   -1    0    0  501    0  0.00000000000E+00  0.00000000000E+00  0.14121233445E+04  0.14121233445E+04  0.00000000000E+00 0. -1.
         -2   -1    0    0    0  501 -0.00000000000E+00 -0.00000000000E+00 -0.13271673993E+02  0.13271673993E+02  0.00000000000E+00 0. -1.
         36    2    1    2    0    0  0.00000000000E+00  0.14210854715E-13  0.13988516705E+04  0.14253950185E+04  0.27379730215E+03 0.  0.
         25    2    3    3    0    0  0.17391976388E+02 -0.47980122933E+02  0.80692311318E+03  0.81835539785E+03  0.12639649346E+03 0.  0.
         25    2    3    3    0    0 -0.17391976388E+02  0.47980122933E+02  0.59192855730E+03  0.60703962062E+03  0.12455163996E+03 0.  0.
          5    1    4    4  502    0 -0.40693880601E+02 -0.55063674351E+02  0.57654538839E+03  0.58061577228E+03  0.47000000000E+01 0.  1.
         -5    1    4    4    0  502  0.58085856989E+02  0.70835514177E+01  0.23037772480E+03  0.23773962557E+03  0.47000000000E+01 0.  1.
          5    1    5    5  503    0  0.40776846254E+02  0.15278222417E+02  0.84075086020E+02  0.94799184385E+02  0.47000000000E+01 0. -1.
         -5    1    5    5    0  503 -0.58168822642E+02  0.32701900516E+02  0.50785347128E+03  0.51224043624E+03  0.47000000000E+01 0. -1.
<mgrwt>
<rscale>  0 0.27379730E+03</rscale>
<asrwt>0</asrwt>
<pdfrwt beam="1">  1        2 0.21724963E+00 0.27379730E+03</pdfrwt>
<pdfrwt beam="2">  1       -2 0.20417971E-02 0.27379730E+03</pdfrwt>
<totfact> 0.11408818E+04</totfact>
</mgrwt>
</event>
<event>
 9    1  0.2031653E-002  0.2736624E+03  0.7818608E-02  0.1099202E+00
         -1   -1    0    0    0  501 -0.00000000000E+00  0.00000000000E+00  0.19113930807E+02  0.19113930807E+02  0.00000000000E+00 0.  1.
          1   -1    0    0  501    0  0.00000000000E+00 -0.00000000000E+00 -0.97953554030E+03  0.97953554030E+03  0.00000000000E+00 0.  1.
         36    2    1    2    0    0  0.00000000000E+00  0.00000000000E+00 -0.96042160949E+03  0.99864947111E+03  0.27366237988E+03 0.  0.
         25    2    3    3    0    0  0.40446749506E+02 -0.40150052760E+02 -0.50303927972E+03  0.52079275398E+03  0.12218268851E+03 0.  0.
         25    2    3    3    0    0 -0.40446749506E+02  0.40150052760E+02 -0.45738232977E+03  0.47785671713E+03  0.12609710637E+03 0.  0.
          5    1    4    4  502    0  0.67076241770E+02 -0.55947658614E+02 -0.23186605477E+03  0.24781711012E+03  0.47000000000E+01 0. -1.
         -5    1    4    4    0  502 -0.26629492264E+02  0.15797605854E+02 -0.27117322495E+03  0.27297564386E+03  0.47000000000E+01 0. -1.
          5    1    5    5  503    0 -0.38599129240E+01 -0.44380561815E+02 -0.11974541869E+03  0.12784986700E+03  0.47000000000E+01 0. -1.
         -5    1    5    5    0  503 -0.36586836582E+02  0.84530614575E+02 -0.33763691108E+03  0.35000685013E+03  0.47000000000E+01 0. -1.
<mgrwt>
<rscale>  0 0.27366238E+03</rscale>
<asrwt>0</asrwt>
<pdfrwt beam="1">  1        1 0.15069780E+00 0.27366238E+03</pdfrwt>
<pdfrwt beam="2">  1       -1 0.29406042E-02 0.27366238E+03</pdfrwt>
<totfact> 0.64324570E+03</totfact>
</mgrwt>
</event>
<event>
 9    1  0.2031653E-002  0.2750643E+03  0.7818608E-02  0.1098416E+00
          4   -1    0    0  501    0  0.00000000000E+00  0.00000000000E+00  0.10919292902E+03  0.10919292902E+03  0.00000000000E+00 0.  1.
         -4   -1    0    0    0  501 -0.00000000000E+00 -0.00000000000E+00 -0.17322633351E+03  0.17322633351E+03  0.00000000000E+00 0.  1.
         36    2    1    2    0    0  0.00000000000E+00  0.71054273576E-14 -0.64033404489E+02  0.28241926253E+03  0.27506428878E+03 0.  0.
         25    2    3    3    0    0  0.39582725458E+02 -0.35594902435E+02 -0.25450661569E+02  0.14255476606E+03  0.12977031987E+03 0.  0.
         25    2    3    3    0    0 -0.39582725458E+02  0.35594902435E+02 -0.38582742920E+02  0.13986449647E+03  0.12344901818E+03 0.  0.
          5    1    4    4  502    0  0.47688143995E+02 -0.71258481862E+02  0.15705157611E+02  0.87296462073E+02  0.47000000000E+01 0. -1.
         -5    1    4    4    0  502 -0.81054185373E+01  0.35663579426E+02 -0.41155819180E+02  0.55258303987E+02  0.47000000000E+01 0. -1.
          5    1    5    5  503    0  0.28621716766E+02  0.53943615750E+02 -0.48123473652E+01  0.61435861172E+02  0.47000000000E+01 0. -1.
         -5    1    5    5    0  503 -0.68204442224E+02 -0.18348713315E+02 -0.33770395554E+02  0.78428635302E+02  0.47000000000E+01 0. -1.
<mgrwt>
<rscale>  0 0.27506429E+03</rscale>
<asrwt>0</asrwt>
<pdfrwt beam="1">  1        4 0.16798912E-01 0.27506429E+03</pdfrwt>
<pdfrwt beam="2">  1       -4 0.26650205E-01 0.27506429E+03</pdfrwt>
<totfact> 0.76940166E+02</totfact>
</mgrwt>
</event>
<event>
 9    1  0.2031653E-002  0.2791575E+03  0.7818608E-02  0.1096150E+00
          1   -1    0    0  501    0  0.00000000000E+00  0.00000000000E+00  0.17085991889E+03  0.17085991889E+03  0.00000000000E+00 0. -1.
         -1   -1    0    0    0  501 -0.00000000000E+00 -0.00000000000E+00 -0.11402453620E+03  0.11402453620E+03  0.00000000000E+00 0. -1.
         36    2    1    2    0    0  0.71054273576E-14  0.00000000000E+00  0.56835382687E+02  0.28488445509E+03  0.27915746816E+03 0.  0.
         25    2    3    3    0    0  0.31517889155E+02 -0.91928404555E+01  0.82866860387E+02  0.15194651884E+03  0.12305666331E+03 0.  0.
         25    2    3    3    0    0 -0.31517889155E+02  0.91928404555E+01 -0.26031477700E+02  0.13293793626E+03  0.12616248021E+03 0.  0.
          5    1    4    4  502    0  0.81763722410E+01  0.24283065694E+02  0.10296819084E+03  0.10621232823E+03  0.47000000000E+01 0. -1.
         -5    1    4    4    0  502  0.23341516914E+02 -0.33475906149E+02 -0.20101330457E+02  0.45734190607E+02  0.47000000000E+01 0. -1.
          5    1    5    5  503    0 -0.62459016557E+02 -0.91700111231E+01  0.26884923388E+02  0.68775773052E+02  0.47000000000E+01 0.  1.
         -5    1    5    5    0  503  0.30941127402E+02  0.18362851579E+02 -0.52916401088E+02  0.64162163204E+02  0.47000000000E+01 0.  1.
<mgrwt>
<rscale>  0 0.27915747E+03</rscale>
<asrwt>0</asrwt>
<pdfrwt beam="1">  1        1 0.26286141E-01 0.27915747E+03</pdfrwt>
<pdfrwt beam="2">  1       -1 0.17542236E-01 0.27915747E+03</pdfrwt>
<totfact> 0.44538315E+03</totfact>
</mgrwt>
</event>
<event>
 9    1  0.2031653E-002  0.2789797E+03  0.7818608E-02  0.1096248E+00
         -1   -1    0    0    0  501 -0.00000000000E+00  0.00000000000E+00  0.86564354778E+03  0.86564354778E+03  0.00000000000E+00 0. -1.
          1   -1    0    0  501    0  0.00000000000E+00 -0.00000000000E+00 -0.22477406359E+02  0.22477406359E+02  0.00000000000E+00 0. -1.
         36    2    1    2    0    0 -0.35527136788E-14 -0.71054273576E-14  0.84316614142E+03  0.88812095414E+03  0.27897972533E+03 0.  0.
         25    2    3    3    0    0  0.24036796129E+02 -0.36717547428E+02  0.28817659908E+03  0.31736278888E+03  0.12548881087E+03 0.  0.
         25    2    3    3    0    0 -0.24036796129E+02  0.36717547428E+02  0.55498954234E+03  0.57075816526E+03  0.12579962338E+03 0.  0.
          5    1    4    4  502    0 -0.36763365511E+02  0.26144441177E+02  0.97074247762E+02  0.10714745180E+03  0.47000000000E+01 0. -1.
         -5    1    4    4    0  502  0.60800161640E+02 -0.62861988604E+02  0.19110235132E+03  0.21021533708E+03  0.47000000000E+01 0. -1.
          5    1    5    5  503    0 -0.42246169024E+02  0.75175990562E+02  0.43153232287E+03  0.44008908648E+03  0.47000000000E+01 0. -1.
         -5    1    5    5    0  503  0.18209372895E+02 -0.38458443135E+02  0.12345721947E+03  0.13066907878E+03  0.47000000000E+01 0. -1.
<mgrwt>
<rscale>  0 0.27897973E+03</rscale>
<asrwt>0</asrwt>
<pdfrwt beam="1">  1        1 0.34580632E-02 0.27897973E+03</pdfrwt>
<pdfrwt beam="2">  1       -1 0.13317591E+00 0.27897973E+03</pdfrwt>
<totfact> 0.14305013E+03</totfact>
</mgrwt>
</event>
<event>
 9    1  0.2031653E-002  0.2749512E+03  0.7818608E-02  0.1098479E+00
          1   -1    0    0  501    0  0.00000000000E+00  0.00000000000E+00  0.13789225126E+04  0.13789225126E+04  0.00000000000E+00 0.  1.
         -1   -1    0    0    0  501 -0.00000000000E+00 -0.00000000000E+00 -0.13706018252E+02  0.13706018252E+02  0.00000000000E+00 0.  1.
         36    2    1    2    0    0  0.00000000000E+00  0.35527136788E-14  0.13652164943E+04  0.13926285308E+04  0.27495117476E+03 0.  0.
         25    2    3    3    0    0  0.45329831073E+02  0.28654044788E+02  0.91662298957E+03  0.92410506174E+03  0.10438683947E+03 0.  0.
         25    2    3    3    0    0 -0.45329831073E+02 -0.28654044788E+02  0.44859350474E+03  0.46852346908E+03  0.12410584479E+03 0.  0.
          5    1    4    4  502    0  0.66246503214E+02  0.51702008222E+02  0.73137152135E+03  0.73619840334E+03  0.47000000000E+01 0.  1.
         -5    1    4    4    0  502 -0.20916672142E+02 -0.23047963434E+02  0.18525146823E+03  0.18790665840E+03  0.47000000000E+01 0.  1.
          5    1    5    5  503    0 -0.41186516561E+02 -0.76393031041E+02  0.27861265473E+03  0.29185497377E+03  0.47000000000E+01 0. -1.
         -5    1    5    5    0  503 -0.41433145114E+01  0.47738986253E+02  0.16998085001E+03  0.17666849531E+03  0.47000000000E+01 0. -1.
<mgrwt>
<rscale>  0 0.27495117E+03</rscale>
<asrwt>0</asrwt>
<pdfrwt beam="1">  1        1 0.21214181E+00 0.27495117E+03</pdfrwt>
<pdfrwt beam="2">  1       -1 0.21086193E-02 0.27495117E+03</pdfrwt>
<totfact> 0.54719308E+03</totfact>
</mgrwt>
</event>
<event>
 9    1  0.2031653E-002  0.2736130E+03  0.7818608E-02  0.1099229E+00
         -3   -1    0    0    0  501 -0.00000000000E+00  0.00000000000E+00  0.10766672712E+04  0.10766672712E+04  0.00000000000E+00 0.  1.
          3   -1    0    0  501    0  0.00000000000E+00 -0.00000000000E+00 -0.17383284757E+02  0.17383284757E+02  0.00000000000E+00 0.  1.
         36    2    1    2    0    0 -0.35527136788E-14  0.71054273576E-14  0.10592839864E+04  0.10940505559E+04  0.27361296580E+03 0.  0.
         25    2    3    3    0    0  0.14898162645E+02 -0.17137302714E+02  0.71752043288E+03  0.72879221270E+03  0.12564583281E+03 0.  0.
         25    2    3    3    0    0 -0.14898162645E+02  0.17137302714E+02  0.34176355355E+03  0.36525834324E+03  0.12686878409E+03 0.  0.
          5    1    4    4  502    0 -0.33765931633E+02  0.27701134552E+02  0.48524764967E+03  0.48723183651E+03  0.47000000000E+01 0.  1.
         -5    1    4    4    0  502  0.48664094278E+02 -0.44838437265E+02  0.23227278321E+03  0.24156037620E+03  0.47000000000E+01 0.  1.
          5    1    5    5  503    0 -0.31415529428E+02  0.67671403089E+02  0.17957963992E+03  0.19451810034E+03  0.47000000000E+01 0. -1.
         -5    1    5    5    0  503  0.16517366783E+02 -0.50534100375E+02  0.16218391363E+03  0.17074024290E+03  0.47000000000E+01 0. -1.
<mgrwt>
<rscale>  0 0.27361297E+03</rscale>
<asrwt>0</asrwt>
<pdfrwt beam="1">  1        3 0.26743523E-02 0.27361297E+03</pdfrwt>
<pdfrwt beam="2">  1       -3 0.16564107E+00 0.27361297E+03</pdfrwt>
<totfact> 0.40909278E+02</totfact>
</mgrwt>
</event>
<event>
 9    1  0.2031653E-002  0.2745151E+03  0.7818608E-02  0.1098723E+00
         -1   -1    0    0    0  501 -0.00000000000E+00  0.00000000000E+00  0.75722173846E+01  0.75722173846E+01  0.00000000000E+00 0.  1.
          1   -1    0    0  501    0  0.00000000000E+00 -0.00000000000E+00 -0.24879949427E+04  0.24879949427E+04  0.00000000000E+00 0.  1.
         36    2    1    2    0    0 -0.71054273576E-14 -0.17763568394E-14 -0.24804227253E+04  0.24955671601E+04  0.27451512569E+03 0.  0.
         25    2    3    3    0    0 -0.47416676792E+02  0.14391932713E+02 -0.13404593519E+04  0.13471114365E+04  0.12418727437E+03 0.  0.
         25    2    3    3    0    0  0.47416676792E+02 -0.14391932713E+02 -0.11399633734E+04  0.11484557236E+04  0.13030190899E+03 0.  0.
          5    1    4    4  502    0 -0.86151619219E+02  0.26566535914E+02 -0.79131382917E+03  0.79644682720E+03  0.47000000000E+01 0. -1.
         -5    1    4    4    0  502  0.38734942427E+02 -0.12174603201E+02 -0.54914552278E+03  0.55066460928E+03  0.47000000000E+01 0. -1.
          5    1    5    5  503    0  0.17250372736E+02  0.34992505261E+02 -0.10914067111E+03  0.11599925376E+03  0.47000000000E+01 0. -1.
         -5    1    5    5    0  503  0.30166304056E+02 -0.49384437974E+02 -0.10308227023E+04  0.10324564698E+04  0.47000000000E+01 0. -1.
<mgrwt>
<rscale>  0 0.27451513E+03</rscale>
<asrwt>0</asrwt>
<pdfrwt beam="1">  1        1 0.38276828E+00 0.27451513E+03</pdfrwt>
<pdfrwt beam="2">  1       -1 0.11649571E-02 0.27451513E+03</pdfrwt>
<totfact> 0.24348671E+03</totfact>
</mgrwt>
</event>
<event>
 9    1  0.2031653E-002  0.2761075E+03  0.7818608E-02  0.1097834E+00
          2   -1    0    0  501    0  0.00000000000E+00  0.00000000000E+00  0.55133729531E+03  0.55133729531E+03  0.00000000000E+00 0. -1.
         -2   -1    0    0    0  501 -0.00000000000E+00 -0.00000000000E+00 -0.34568390110E+02  0.34568390110E+02  0.00000000000E+00 0. -1.
         36    2    1    2    0    0  0.14210854715E-13  0.00000000000E+00  0.51676890520E+03  0.58590568542E+03  0.27610753490E+03 0.  0.
         25    2    3    3    0    0 -0.51743429522E+02  0.14741707208E+01  0.22585305586E+03  0.26337473281E+03  0.12520819207E+03 0.  0.
         25    2    3    3    0    0  0.51743429522E+02 -0.14741707208E+01  0.29091584934E+03  0.32253095262E+03  0.12928506611E+03 0.  0.
          5    1    4    4  502    0  0.21029621249E+02 -0.43363526820E+02  0.63740053582E+02  0.80047016551E+02  0.47000000000E+01 0. -1.
         -5    1    4    4    0  502 -0.72773050771E+02  0.44837697541E+02  0.16211300228E+03  0.18332771626E+03  0.47000000000E+01 0. -1.
          5    1    5    5  503    0 -0.35285371873E+02 -0.13659308666E+02  0.34448369291E+02  0.51384962083E+02  0.47000000000E+01 0. -1.
         -5    1    5    5    0  503  0.87028801395E+02  0.12185137945E+02  0.25646748005E+03  0.27114599053E+03  0.47000000000E+01 0. -1.
<mgrwt>
<rscale>  0 0.27610753E+03</rscale>
<asrwt>0</asrwt>
<pdfrwt beam="1">  1        2 0.84821116E-01 0.27610753E+03</pdfrwt>
<pdfrwt beam="2">  1       -2 0.53182143E-02 0.27610753E+03</pdfrwt>
<totfact> 0.98695472E+03</totfact>
</mgrwt>
</event>
<event>
 9    1  0.2031653E-002  0.2766724E+03  0.7818608E-02  0.1097520E+00
          1   -1    0    0  501    0  0.00000000000E+00  0.00000000000E+00  0.13370403285E+03  0.13370403285E+03  0.00000000000E+00 0.  1.
         -1   -1    0    0    0  501 -0.00000000000E+00 -0.00000000000E+00 -0.14312886120E+03  0.14312886120E+03  0.00000000000E+00 0.  1.
         36    2    1    2    0    0 -0.71054273576E-14  0.00000000000E+00 -0.94248283535E+01  0.27683289406E+03  0.27667241251E+03 0.  0.
         25    2    3    3    0    0  0.54660502217E+02 -0.41229590649E+02  0.11810559788E+02  0.13189310068E+03  0.11210999525E+03 0.  0.
         25    2    3    3    0    0 -0.54660502217E+02  0.41229590649E+02 -0.21235388142E+02  0.14493979338E+03  0.12597203002E+03 0.  0.
          5    1    4    4  502    0  0.61688598714E+02  0.15612501230E+02 -0.19146870043E+02  0.66617760683E+02  0.47000000000E+01 0. -1.
         -5    1    4    4    0  502 -0.70280964971E+01 -0.56842091879E+02  0.30957429831E+02  0.65275339994E+02  0.47000000000E+01 0. -1.
          5    1    5    5  503    0 -0.54997365099E+02 -0.22312265667E+02  0.26656111726E+02  0.65231784119E+02  0.47000000000E+01 0.  1.
         -5    1    5    5    0  503  0.33686288177E+00  0.63541856315E+02 -0.47891499868E+02  0.79708009260E+02  0.47000000000E+01 0.  1.
<mgrwt>
<rscale>  0 0.27667241E+03</rscale>
<asrwt>0</asrwt>
<pdfrwt beam="1">  1        1 0.20569851E-01 0.27667241E+03</pdfrwt>
<pdfrwt beam="2">  1       -1 0.22019825E-01 0.27667241E+03</pdfrwt>
<totfact> 0.42113631E+03</totfact>
</mgrwt>
</event>
<event>
 9    1  0.2031653E-002  0.2760437E+03  0.7818608E-02  0.1097870E+00
         -1   -1    0    0    0  501 -0.00000000000E+00  0.00000000000E+00  0.11361619091E+02  0.11361619091E+02  0.00000000000E+00 0. -1.
          1   -1    0    0  501    0  0.00000000000E+00 -0.00000000000E+00 -0.16767009075E+04  0.16767009075E+04  0.00000000000E+00 0. -1.
         36    2    1    2    0    0  0.35527136788E-14  0.71054273576E-14 -0.16653392884E+04  0.16880625265E+04  0.27604374320E+03 0.  0.
         25    2    3    3    0    0  0.28001622425E+01 -0.56760207890E+02 -0.85170258538E+03  0.86277798217E+03  0.12553481774E+03 0.  0.
         25    2    3    3    0    0 -0.28001622425E+01  0.56760207890E+02 -0.81363670298E+03  0.82528454437E+03  0.12593781257E+03 0.  0.
          5    1    4    4  502    0  0.23599916898E+02 -0.92650656545E+02 -0.56493672352E+03  0.57298925977E+03  0.47000000000E+01 0.  1.
         -5    1    4    4    0  502 -0.20799754655E+02  0.35890448655E+02 -0.28676586186E+03  0.28978872240E+03  0.47000000000E+01 0.  1.
          5    1    5    5  503    0 -0.58170148211E+02  0.32125568852E+02 -0.26311999863E+03  0.27142225774E+03  0.47000000000E+01 0. -1.
         -5    1    5    5    0  503  0.55369985969E+02  0.24634639038E+02 -0.55051670435E+03  0.55386228664E+03  0.47000000000E+01 0. -1.
<mgrwt>
<rscale>  0 0.27604374E+03</rscale>
<asrwt>0</asrwt>
<pdfrwt beam="1">  1        1 0.25795390E+00 0.27604374E+03</pdfrwt>
<pdfrwt beam="2">  1       -1 0.17479420E-02 0.27604374E+03</pdfrwt>
<totfact> 0.45719925E+03</totfact>
</mgrwt>
</event>
<event>
 9    1  0.2031653E-002  0.2743867E+03  0.7818608E-02  0.1098795E+00
          2   -1    0    0  501    0  0.00000000000E+00  0.00000000000E+00  0.29451870334E+03  0.29451870334E+03  0.00000000000E+00 0. -1.
         -2   -1    0    0    0  501 -0.00000000000E+00 -0.00000000000E+00 -0.63907726963E+02  0.63907726963E+02  0.00000000000E+00 0. -1.
         36    2    1    2    0    0  0.35527136788E-14 -0.71054273576E-14  0.23061097638E+03  0.35842643031E+03  0.27438674078E+03 0.  0.
         25    2    3    3    0    0  0.22349657523E+02 -0.47378055091E+02  0.14339961082E+03  0.19671412329E+03  0.12405164499E+03 0.  0.
         25    2    3    3    0    0 -0.22349657523E+02  0.47378055091E+02  0.87211365563E+02  0.16171230702E+03  0.12570147438E+03 0.  0.
          5    1    4    4  502    0  0.51548748287E+02  0.24156422773E+02  0.65180065470E+02  0.86667970704E+02  0.47000000000E+01 0. -1.
         -5    1    4    4    0  502 -0.29199090764E+02 -0.71534477864E+02  0.78219545349E+02  0.11004615259E+03  0.47000000000E+01 0. -1.
          5    1    5    5  503    0 -0.41349817092E+01  0.14811969708E+01  0.10781090372E+03  0.10800265265E+03  0.47000000000E+01 0.  1.
         -5    1    5    5    0  503 -0.18214675814E+02  0.45896858120E+02 -0.20599538155E+02  0.53709654370E+02  0.47000000000E+01 0.  1.
<mgrwt>
<rscale>  0 0.27438674E+03</rscale>
<asrwt>0</asrwt>
<pdfrwt beam="1">  1        2 0.45310569E-01 0.27438674E+03</pdfrwt>
<pdfrwt beam="2">  1       -2 0.98319581E-02 0.27438674E+03</pdfrwt>
<totfact> 0.75478595E+03</totfact>
</mgrwt>
</event>
<event>
 9    1  0.2031653E-002  0.2720521E+03  0.7818608E-02  0.1100111E+00
         -2   -1    0    0    0  501 -0.00000000000E+00  0.00000000000E+00  0.20483342814E+03  0.20483342814E+03  0.00000000000E+00 0.  1.
          2   -1    0    0  501    0  0.00000000000E+00 -0.00000000000E+00 -0.90332352672E+02  0.90332352672E+02  0.00000000000E+00 0.  1.
         36    2    1    2    0    0 -0.71054273576E-14  0.00000000000E+00  0.11450107547E+03  0.29516578081E+03  0.27205209406E+03 0.  0.
         25    2    3    3    0    0  0.53358611086E+02  0.51935620003E+01  0.64429326479E+02  0.14993379530E+03  0.12431769946E+03 0.  0.
         25    2    3    3    0    0 -0.53358611086E+02 -0.51935620003E+01  0.50071748992E+02  0.14523198551E+03  0.12534366799E+03 0.  0.
          5    1    4    4  502    0  0.46062776737E+02 -0.29901055554E+02  0.90081274965E+02  0.10560576984E+03  0.47000000000E+01 0. -1.
         -5    1    4    4    0  502  0.72958343490E+01  0.35094617555E+02 -0.25651948486E+02  0.44328025461E+02  0.47000000000E+01 0. -1.
          5    1    5    5  503    0  0.12599172462E+02  0.48751311997E+02  0.24161578417E+02  0.56047314295E+02  0.47000000000E+01 0. -1.
         -5    1    5    5    0  503 -0.65957783548E+02 -0.53944873997E+02  0.25910170576E+02  0.89184671219E+02  0.47000000000E+01 0. -1.
<mgrwt>
<rscale>  0 0.27205209E+03</rscale>
<asrwt>0</asrwt>
<pdfrwt beam="1">  1        2 0.13897285E-01 0.27205209E+03</pdfrwt>
<pdfrwt beam="2">  1       -2 0.31512835E-01 0.27205209E+03</pdfrwt>
<totfact> 0.39668778E+03</totfact>
</mgrwt>
</event>
<event>
 9    1  0.2031653E-002  0.2764960E+03  0.7818608E-02  0.1097618E+00
          2   -1    0    0  501    0  0.00000000000E+00  0.00000000000E+00  0.62520163310E+03  0.62520163310E+03  0.00000000000E+00 0. -1.
         -2   -1    0    0    0  501 -0.00000000000E+00 -0.00000000000E+00 -0.30570160678E+02  0.30570160678E+02  0.00000000000E+00 0. -1.
         36    2    1    2    0    0 -0.53290705182E-14  0.71054273576E-14  0.59463147242E+03  0.65577179378E+03  0.27649603527E+03 0.  0.
         25    2    3    3    0    0  0.12387471190E+02  0.35895451308E+02  0.37476813236E+03  0.39732911723E+03  0.12640150907E+03 0.  0.
         25    2    3    3    0    0 -0.12387471190E+02 -0.35895451308E+02  0.21986334006E+03  0.25844267655E+03  0.13042544189E+03 0.  0.
          5    1    4    4  502    0  0.21639232860E+02 -0.25822591780E+02  0.25540158741E+02  0.42537658064E+02  0.47000000000E+01 0. -1.
         -5    1    4    4    0  502 -0.92517616702E+01  0.61718043088E+02  0.34922797362E+03  0.35479145916E+03  0.47000000000E+01 0. -1.
          5    1    5    5  503    0  0.32871871869E+02 -0.53950530373E+02  0.19185294693E+03  0.20204173562E+03  0.47000000000E+01 0. -1.
         -5    1    5    5    0  503 -0.45259343059E+02  0.18055079065E+02  0.28010393129E+02  0.56400940927E+02  0.47000000000E+01 0. -1.
<mgrwt>
<rscale>  0 0.27649604E+03</rscale>
<asrwt>0</asrwt>
<pdfrwt beam="1">  1        2 0.96184857E-01 0.27649604E+03</pdfrwt>
<pdfrwt beam="2">  1       -2 0.47031021E-02 0.27649604E+03</pdfrwt>
<totfact> 0.10288063E+04</totfact>
</mgrwt>
</event>
<event>
 9    1  0.2031653E-002  0.2750000E+03  0.7818608E-02  0.1098452E+00
          2   -1    0    0  501    0  0.00000000000E+00  0.00000000000E+00  0.91482223058E+02  0.91482223058E+02  0.00000000000E+00 0. -1.
         -2   -1    0    0    0  501 -0.00000000000E+00 -0.00000000000E+00 -0.20666576330E+03  0.20666576330E+03  0.00000000000E+00 0. -1.
         36    2    1    2    0    0  0.00000000000E+00  0.71054273576E-14 -0.11518354024E+03  0.29814798636E+03  0.27499995241E+03 0.  0.
         25    2    3    3    0    0 -0.10773521918E+02 -0.56727218424E+02 -0.72036035416E+02  0.15627143179E+03  0.12608538341E+03 0.  0.
         25    2    3    3    0    0  0.10773521918E+02  0.56727218424E+02 -0.43147504826E+02  0.14187655457E+03  0.12220148722E+03 0.  0.
          5    1    4    4  502    0 -0.43685834703E+02 -0.67974056964E+02 -0.55966486110E+01  0.81131603273E+02  0.47000000000E+01 0.  1.
         -5    1    4    4    0  502  0.32912312785E+02  0.11246838540E+02 -0.66439386805E+02  0.75139828513E+02  0.47000000000E+01 0.  1.
          5    1    5    5  503    0  0.34677108721E+02  0.78406600172E+02  0.23563994067E+01  0.85893768330E+02  0.47000000000E+01 0.  1.
         -5    1    5    5    0  503 -0.23903586803E+02 -0.21679381748E+02 -0.45503904233E+02  0.55982786242E+02  0.47000000000E+01 0.  1.
<mgrwt>
<rscale>  0 0.27499995E+03</rscale>
<asrwt>0</asrwt>
<pdfrwt beam="1">  1        2 0.14074188E-01 0.27499995E+03</pdfrwt>
<pdfrwt beam="2">  1       -2 0.31794733E-01 0.27499995E+03</pdfrwt>
<totfact> 0.38454624E+03</totfact>
</mgrwt>
</event>
<event>
 9    1  0.2031653E-002  0.2745722E+03  0.7818608E-02  0.1098691E+00
          2   -1    0    0  501    0  0.00000000000E+00  0.00000000000E+00  0.17139867648E+03  0.17139867648E+03  0.00000000000E+00 0.  1.
         -2   -1    0    0    0  501 -0.00000000000E+00 -0.00000000000E+00 -0.10996274973E+03  0.10996274973E+03  0.00000000000E+00 0.  1.
         36    2    1    2    0    0  0.26645352591E-14  0.00000000000E+00  0.61435926748E+02  0.28136142622E+03  0.27457217461E+03 0.  0.
         25    2    3    3    0    0 -0.21129190684E+01 -0.44413205061E+02 -0.34903036247E+01  0.12815557671E+03  0.12014438153E+03 0.  0.
         25    2    3    3    0    0  0.21129190684E+01  0.44413205061E+02  0.64926230373E+02  0.15320584951E+03  0.13145196735E+03 0.  0.
          5    1    4    4  502    0 -0.75638341141E+01 -0.81362205821E+02  0.19377348432E+02  0.84110592406E+02  0.47000000000E+01 0.  1.
         -5    1    4    4    0  502  0.54509150457E+01  0.36949000760E+02 -0.22867652056E+02  0.44044984307E+02  0.47000000000E+01 0.  1.
          5    1    5    5  503    0  0.52685053473E+02 -0.15385334434E+02  0.66770378408E+01  0.55489604517E+02  0.47000000000E+01 0.  1.
         -5    1    5    5    0  503 -0.50572134405E+02  0.59798539495E+02  0.58249192532E+02  0.97716244988E+02  0.47000000000E+01 0.  1.
<mgrwt>
<rscale>  0 0.27457217E+03</rscale>
<asrwt>0</asrwt>
<pdfrwt beam="1">  1        2 0.26369027E-01 0.27457217E+03</pdfrwt>
<pdfrwt beam="2">  1       -2 0.16917346E-01 0.27457217E+03</pdfrwt>
<totfact> 0.56248028E+03</totfact>
</mgrwt>
</event>
<event>
 9    1  0.2031653E-002  0.2750324E+03  0.7818608E-02  0.1098433E+00
          1   -1    0    0  501    0  0.00000000000E+00  0.00000000000E+00  0.94802798277E+02  0.94802798277E+02  0.00000000000E+00 0. -1.
         -1   -1    0    0    0  501 -0.00000000000E+00 -0.00000000000E+00 -0.19947415109E+03  0.19947415109E+03  0.00000000000E+00 0. -1.
         36    2    1    2    0    0  0.00000000000E+00  0.71054273576E-14 -0.10467135281E+03  0.29427694937E+03  0.27503241778E+03 0.  0.
         25    2    3    3    0    0  0.14682798418E+02  0.56615429827E+02 -0.48950274369E+02  0.14420862852E+03  0.12238916503E+03 0.  0.
         25    2    3    3    0    0 -0.14682798418E+02 -0.56615429827E+02 -0.55721078441E+02  0.15006832084E+03  0.12647043478E+03 0.  0.
          5    1    4    4  502    0 -0.31934209152E+02  0.63392402318E+02  0.63412174144E+01  0.71419125058E+02  0.47000000000E+01 0. -1.
         -5    1    4    4    0  502  0.46617007570E+02 -0.67769724905E+01 -0.55291491783E+02  0.72789503464E+02  0.47000000000E+01 0. -1.
          5    1    5    5  503    0 -0.51195203592E+02 -0.37667989637E+02  0.17376357363E+02  0.66059474032E+02  0.47000000000E+01 0. -1.
         -5    1    5    5    0  503  0.36512405174E+02 -0.18947440190E+02 -0.73097435805E+02  0.84008846811E+02  0.47000000000E+01 0. -1.
<mgrwt>
<rscale>  0 0.27503242E+03</rscale>
<asrwt>0</asrwt>
<pdfrwt beam="1">  1        1 0.14585046E-01 0.27503242E+03</pdfrwt>
<pdfrwt beam="2">  1       -1 0.30688331E-01 0.27503242E+03</pdfrwt>
<totfact> 0.37801664E+03</totfact>
</mgrwt>
</event>
<event>
 9    1  0.2031653E-002  0.2738642E+03  0.7818608E-02  0.1099088E+00
         -1   -1    0    0    0  501 -0.00000000000E+00  0.00000000000E+00  0.82102745925E+03  0.82102745925E+03  0.00000000000E+00 0. -1.
          1   -1    0    0  501    0  0.00000000000E+00 -0.00000000000E+00 -0.22837733003E+02  0.22837733003E+02  0.00000000000E+00 0. -1.
         36    2    1    2    0    0  0.71054273576E-14  0.00000000000E+00  0.79818972625E+03  0.84386519225E+03  0.27386424303E+03 0.  0.
         25    2    3    3    0    0 -0.27544944019E+02  0.27195618932E+02  0.52959508427E+03  0.54544594697E+03  0.12466756659E+03 0.  0.
         25    2    3    3    0    0  0.27544944019E+02 -0.27195618932E+02  0.26859464198E+03  0.29841924528E+03  0.12414764848E+03 0.  0.
          5    1    4    4  502    0 -0.47194054482E+02  0.44328393631E+02  0.13331047359E+03  0.14827696257E+03  0.47000000000E+01 0.  1.
         -5    1    4    4    0  502  0.19649110463E+02 -0.17132774699E+02  0.39628461068E+03  0.39716898441E+03  0.47000000000E+01 0.  1.
          5    1    5    5  503    0  0.52753726024E+02  0.29773163599E+02  0.18026691078E+03  0.19023050755E+03  0.47000000000E+01 0. -1.
         -5    1    5    5    0  503 -0.25208782005E+02 -0.56968782531E+02  0.88327731198E+02  0.10818873773E+03  0.47000000000E+01 0. -1.
<mgrwt>
<rscale>  0 0.27386424E+03</rscale>
<asrwt>0</asrwt>
<pdfrwt beam="1">  1        1 0.35134980E-02 0.27386424E+03</pdfrwt>
<pdfrwt beam="2">  1       -1 0.12631189E+00 0.27386424E+03</pdfrwt>
<totfact> 0.15928667E+03</totfact>
</mgrwt>
</event>
<event>
 9    1  0.2031653E-002  0.2747682E+03  0.7818608E-02  0.1098581E+00
          1   -1    0    0  501    0  0.00000000000E+00  0.00000000000E+00  0.18974317004E+03  0.18974317004E+03  0.00000000000E+00 0. -1.
         -1   -1    0    0    0  501 -0.00000000000E+00 -0.00000000000E+00 -0.99473386148E+02  0.99473386148E+02  0.00000000000E+00 0. -1.
         36    2    1    2    0    0  0.00000000000E+00  0.71054273576E-14  0.90269783894E+02  0.28921655619E+03  0.27476823414E+03 0.  0.
         25    2    3    3    0    0  0.80255190526E+01 -0.23209700916E+02 -0.24003938248E+01  0.12743481978E+03  0.12502308679E+03 0.  0.
         25    2    3    3    0    0 -0.80255190526E+01  0.23209700916E+02  0.92670177719E+02  0.16178173641E+03  0.13031680331E+03 0.  0.
          5    1    4    4  502    0 -0.22578340947E+02  0.37784573060E+02  0.28213729249E+02  0.52493427773E+02  0.47000000000E+01 0.  1.
         -5    1    4    4    0  502  0.30603860000E+02 -0.60994273976E+02 -0.30614123073E+02  0.74941392009E+02  0.47000000000E+01 0.  1.
          5    1    5    5  503    0  0.50890670341E+01 -0.49529105555E+02  0.66556302554E+02  0.83251800642E+02  0.47000000000E+01 0.  1.
         -5    1    5    5    0  503 -0.13114586087E+02  0.72738806472E+02  0.26113875165E+02  0.78529935765E+02  0.47000000000E+01 0.  1.
<mgrwt>
<rscale>  0 0.27476823E+03</rscale>
<asrwt>0</asrwt>
<pdfrwt beam="1">  1        1 0.29191257E-01 0.27476823E+03</pdfrwt>
<pdfrwt beam="2">  1       -1 0.15303598E-01 0.27476823E+03</pdfrwt>
<totfact> 0.48484951E+03</totfact>
</mgrwt>
</event>
<event>
 9    1  0.2031653E-002  0.2678042E+03  0.7818608E-02  0.1102543E+00
          1   -1    0    0  501    0  0.00000000000E+00  0.00000000000E+00  0.38941694738E+03  0.38941694738E+03  0.00000000000E+00 0.  1.
         -1   -1    0    0    0  501 -0.00000000000E+00 -0.00000000000E+00 -0.46042607803E+02  0.46042607803E+02  0.00000000000E+00 0.  1.
         36    2    1    2    0    0  0.35527136788E-14  0.00000000000E+00  0.34337433957E+03  0.43545955518E+03  0.26780419549E+03 0.  0.
         25    2    3    3    0    0  0.19614186432E+02 -0.22224732033E+02  0.23416507172E+03  0.26512944751E+03  0.12075466078E+03 0.  0.
         25    2    3    3    0    0 -0.19614186432E+02  0.22224732033E+02  0.10920926785E+03  0.17033010767E+03  0.12730681981E+03 0.  0.
          5    1    4    4  502    0  0.44892052631E+02  0.29506848068E+01  0.22673076478E+02  0.50598036792E+02  0.47000000000E+01 0. -1.
         -5    1    4    4    0  502 -0.25277866199E+02 -0.25175416840E+02  0.21149199524E+03  0.21453141071E+03  0.47000000000E+01 0. -1.
          5    1    5    5  503    0  0.21662322144E+02  0.66406871727E+02  0.55988423424E+02  0.89643306335E+02  0.47000000000E+01 0. -1.
         -5    1    5    5    0  503 -0.41276508576E+02 -0.44182139694E+02  0.53220844431E+02  0.80686801338E+02  0.47000000000E+01 0. -1.
<mgrwt>
<rscale>  0 0.26780420E+03</rscale>
<asrwt>0</asrwt>
<pdfrwt beam="1">  1        1 0.59910297E-01 0.26780420E+03</pdfrwt>
<pdfrwt beam="2">  1       -1 0.70834784E-02 0.26780420E+03</pdfrwt>
<totfact> 0.64615672E+03</totfact>
</mgrwt>
</event>
<event>
 9    1  0.2031653E-002  0.2742921E+03  0.7818608E-02  0.1098848E+00
          1   -1    0    0  501    0  0.00000000000E+00  0.00000000000E+00  0.93451590416E+03  0.93451590416E+03  0.00000000000E+00 0.  1.
         -1   -1    0    0    0  501 -0.00000000000E+00 -0.00000000000E+00 -0.20127039536E+02  0.20127039536E+02  0.00000000000E+00 0.  1.
         36    2    1    2    0    0  0.00000000000E+00 -0.35527136788E-14  0.91438886462E+03  0.95464294369E+03  0.27429209649E+03 0.  0.
         25    2    3    3    0    0  0.48974990175E+02 -0.17104842582E+02  0.39751684188E+03  0.41986592704E+03  0.12480637729E+03 0.  0.
         25    2    3    3    0    0 -0.48974990175E+02  0.17104842582E+02  0.51687202274E+03  0.53477701665E+03  0.12703796417E+03 0.  0.
          5    1    4    4  502    0  0.17756316607E+01 -0.64835083484E+02  0.23829185758E+03  0.24700574954E+03  0.47000000000E+01 0. -1.
         -5    1    4    4    0  502  0.47199358514E+02  0.47730240902E+02  0.15922498430E+03  0.17286017750E+03  0.47000000000E+01 0. -1.
          5    1    5    5  503    0  0.20010261167E+02  0.45670239830E+01  0.10457326575E+02  0.23509868973E+02  0.47000000000E+01 0.  1.
         -5    1    5    5    0  503 -0.68985251342E+02  0.12537818599E+02  0.50641469617E+03  0.51126714768E+03  0.47000000000E+01 0.  1.
<mgrwt>
<rscale>  0 0.27429210E+03</rscale>
<asrwt>0</asrwt>
<pdfrwt beam="1">  1        1 0.14377164E+00 0.27429210E+03</pdfrwt>
<pdfrwt beam="2">  1       -1 0.30964684E-02 0.27429210E+03</pdfrwt>
<totfact> 0.64514710E+03</totfact>
</mgrwt>
</event>
<event>
 9    1  0.2031653E-002  0.2749771E+03  0.7818608E-02  0.1098464E+00
         -3   -1    0    0    0  501 -0.00000000000E+00  0.00000000000E+00  0.19932398679E+03  0.19932398679E+03  0.00000000000E+00 0. -1.
          3   -1    0    0  501    0  0.00000000000E+00 -0.00000000000E+00 -0.94836065115E+02  0.94836065115E+02  0.00000000000E+00 0. -1.
         36    2    1    2    0    0  0.71054273576E-14  0.00000000000E+00  0.10448792167E+03  0.29416005190E+03  0.27497710879E+03 0.  0.
         25    2    3    3    0    0 -0.51805091452E+02  0.22876323018E+02  0.60211535763E+02  0.15152838480E+03  0.12699735708E+03 0.  0.
         25    2    3    3    0    0  0.51805091452E+02 -0.22876323018E+02  0.44276385911E+02  0.14263166711E+03  0.12319212823E+03 0.  0.
          5    1    4    4  502    0  0.24474145449E+02  0.15446959366E+01  0.67382358028E+02  0.71859877918E+02  0.47000000000E+01 0.  1.
         -5    1    4    4    0  502 -0.76279236901E+02  0.21331627081E+02 -0.71708222648E+01  0.79668506878E+02  0.47000000000E+01 0.  1.
          5    1    5    5  503    0  0.76894827250E+02 -0.28033452463E+02  0.68676386917E+02  0.10694496264E+03  0.47000000000E+01 0.  1.
         -5    1    5    5    0  503 -0.25089735799E+02  0.51571294451E+01 -0.24400001005E+02  0.35686704465E+02  0.47000000000E+01 0.  1.
<mgrwt>
<rscale>  0 0.27497711E+03</rscale>
<asrwt>0</asrwt>
<pdfrwt beam="1">  1        3 0.14590164E-01 0.27497711E+03</pdfrwt>
<pdfrwt beam="2">  1       -3 0.30665229E-01 0.27497711E+03</pdfrwt>
<totfact> 0.10203090E+03</totfact>
</mgrwt>
</event>
<event>
 9    1  0.2031653E-002  0.2733643E+03  0.7818608E-02  0.1099369E+00
          1   -1    0    0  501    0  0.00000000000E+00  0.00000000000E+00  0.14678607031E+04  0.14678607031E+04  0.00000000000E+00 0. -1.
         -1   -1    0    0    0  501 -0.00000000000E+00 -0.00000000000E+00 -0.12727373263E+02  0.12727373263E+02  0.00000000000E+00 0. -1.
         36    2    1    2    0    0  0.00000000000E+00  0.14210854715E-13  0.14551333298E+04  0.14805880763E+04  0.27336430686E+03 0.  0.
         25    2    3    3    0    0 -0.20243673931E+01  0.49106819682E+02  0.91892553789E+03  0.92754022007E+03  0.11615135756E+03 0.  0.
         25    2    3    3    0    0  0.20243673931E+01 -0.49106819682E+02  0.53620779191E+03  0.55304785626E+03  0.12620442702E+03 0.  0.
          5    1    4    4  502    0 -0.35597352482E+02  0.21596841312E+02  0.11441770127E+03  0.12184865786E+03  0.47000000000E+01 0. -1.
         -5    1    4    4    0  502  0.33572985088E+02  0.27509978371E+02  0.80450783662E+03  0.80569156222E+03  0.47000000000E+01 0. -1.
          5    1    5    5  503    0 -0.19628899276E+02  0.10119848270E+02  0.42117545828E+03  0.42178022911E+03  0.47000000000E+01 0. -1.
         -5    1    5    5    0  503  0.21653266669E+02 -0.59226667953E+02  0.11503233364E+03  0.13126762714E+03  0.47000000000E+01 0. -1.
<mgrwt>
<rscale>  0 0.27336431E+03</rscale>
<asrwt>0</asrwt>
<pdfrwt beam="1">  1        1 0.22582459E+00 0.27336431E+03</pdfrwt>
<pdfrwt beam="2">  1       -1 0.19580586E-02 0.27336431E+03</pdfrwt>
<totfact> 0.53165677E+03</totfact>
</mgrwt>
</event>
<event>
 9    1  0.2031653E-002  0.2678338E+03  0.7818608E-02  0.1102526E+00
          1   -1    0    0  501    0  0.00000000000E+00  0.00000000000E+00  0.27617621108E+03  0.27617621108E+03  0.00000000000E+00 0.  1.
         -1   -1    0    0    0  501 -0.00000000000E+00 -0.00000000000E+00 -0.64935826160E+02  0.64935826160E+02  0.00000000000E+00 0.  1.
         36    2    1    2    0    0  0.71054273576E-14  0.00000000000E+00  0.21124038492E+03  0.34111203724E+03  0.26783375764E+03 0.  0.
         25    2    3    3    0    0  0.15407704225E+02  0.25829502521E+02  0.80159018442E+02  0.15648947507E+03  0.13099208763E+03 0.  0.
         25    2    3    3    0    0 -0.15407704225E+02 -0.25829502521E+02  0.13108136648E+03  0.18462256217E+03  0.12648559315E+03 0.  0.
          5    1    4    4  502    0 -0.20402991457E+02  0.61967059288E+01 -0.31031077500E+02  0.37943365633E+02  0.47000000000E+01 0.  1.
         -5    1    4    4    0  502  0.35810695682E+02  0.19632796592E+02  0.11119009594E+03  0.11854610944E+03  0.47000000000E+01 0.  1.
          5    1    5    5  503    0 -0.43007747777E+02  0.38926566662E+02  0.46588830048E+02  0.74548997620E+02  0.47000000000E+01 0. -1.
         -5    1    5    5    0  503  0.27600043552E+02 -0.64756069183E+02  0.84492536434E+02  0.11007356455E+03  0.47000000000E+01 0. -1.
<mgrwt>
<rscale>  0 0.26783376E+03</rscale>
<asrwt>0</asrwt>
<pdfrwt beam="1">  1        1 0.42488647E-01 0.26783376E+03</pdfrwt>
<pdfrwt beam="2">  1       -1 0.99901273E-02 0.26783376E+03</pdfrwt>
<totfact> 0.58924128E+03</totfact>
</mgrwt>
</event>
<event>
 9    1  0.2031653E-002  0.2724799E+03  0.7818608E-02  0.1099869E+00
          2   -1    0    0  501    0  0.00000000000E+00  0.00000000000E+00  0.56830489685E+03  0.56830489685E+03  0.00000000000E+00 0. -1.
         -2   -1    0    0    0  501 -0.00000000000E+00 -0.00000000000E+00 -0.32660859443E+02  0.32660859443E+02  0.00000000000E+00 0. -1.
         36    2    1    2    0    0 -0.35527136788E-14  0.35527136788E-14  0.53564403741E+03  0.60096575629E+03  0.27247991748E+03 0.  0.
         25    2    3    3    0    0  0.27920355949E+02 -0.30069301371E+02  0.21593937898E+03  0.25387302997E+03  0.12703539187E+03 0.  0.
         25    2    3    3    0    0 -0.27920355949E+02  0.30069301371E+02  0.31970465842E+03  0.34709272632E+03  0.12875784593E+03 0.  0.
          5    1    4    4  502    0 -0.49140083320E+02  0.24884845952E+01  0.72255453744E+02  0.87543594512E+02  0.47000000000E+01 0. -1.
         -5    1    4    4    0  502  0.77060439269E+02 -0.32557785966E+02  0.14368392524E+03  0.16632943546E+03  0.47000000000E+01 0. -1.
          5    1    5    5  503    0  0.31098416470E+01 -0.32051516598E+02  0.23599929472E+03  0.23823250815E+03  0.47000000000E+01 0.  1.
         -5    1    5    5    0  503 -0.31030197596E+02  0.62120817969E+02  0.83705363704E+02  0.10886021817E+03  0.47000000000E+01 0.  1.
<mgrwt>
<rscale>  0 0.27247992E+03</rscale>
<asrwt>0</asrwt>
<pdfrwt beam="1">  1        2 0.87431515E-01 0.27247992E+03</pdfrwt>
<pdfrwt beam="2">  1       -2 0.50247480E-02 0.27247992E+03</pdfrwt>
<totfact> 0.10388538E+04</totfact>
</mgrwt>
</event>
<event>
 9    1  0.2031653E-002  0.2752002E+03  0.7818608E-02  0.1098340E+00
         -1   -1    0    0    0  501 -0.00000000000E+00  0.00000000000E+00  0.32491081029E+02  0.32491081029E+02  0.00000000000E+00 0.  1.
          1   -1    0    0  501    0  0.00000000000E+00 -0.00000000000E+00 -0.58273796069E+03  0.58273796069E+03  0.00000000000E+00 0.  1.
         36    2    1    2    0    0  0.71054273576E-14  0.71054273576E-14 -0.55024687966E+03  0.61522904172E+03  0.27520019113E+03 0.  0.
         25    2    3    3    0    0  0.53810887416E+02  0.54010938142E+01 -0.30709932142E+03  0.33594115758E+03  0.12498673818E+03 0.  0.
         25    2    3    3    0    0 -0.53810887416E+02 -0.54010938142E+01 -0.24314755825E+03  0.27928788415E+03  0.12631786782E+03 0.  0.
          5    1    4    4  502    0 -0.25885503110E+02  0.32447995087E+02 -0.16953655736E+03  0.17460717608E+03  0.47000000000E+01 0. -1.
         -5    1    4    4    0  502  0.79696390525E+02 -0.27046901273E+02 -0.13756276406E+03  0.16133398150E+03  0.47000000000E+01 0. -1.
          5    1    5    5  503    0  0.27969173239E+02  0.35760020877E+02 -0.76067738568E+02  0.88709890067E+02  0.47000000000E+01 0.  1.
         -5    1    5    5    0  503 -0.81780060655E+02 -0.41161114692E+02 -0.16707981968E+03  0.19057799408E+03  0.47000000000E+01 0.  1.
<mgrwt>
<rscale>  0 0.27520019E+03</rscale>
<asrwt>0</asrwt>
<pdfrwt beam="1">  1        1 0.89651995E-01 0.27520019E+03</pdfrwt>
<pdfrwt beam="2">  1       -1 0.49986278E-02 0.27520019E+03</pdfrwt>
<totfact> 0.64255664E+03</totfact>
</mgrwt>
</event>
<event>
 9    1  0.2031653E-002  0.2742476E+03  0.7818608E-02  0.1098873E+00
          2   -1    0    0  501    0  0.00000000000E+00  0.00000000000E+00  0.98854893667E+03  0.98854893667E+03  0.00000000000E+00 0.  1.
         -2   -1    0    0    0  501 -0.00000000000E+00 -0.00000000000E+00 -0.19020749213E+02  0.19020749213E+02  0.00000000000E+00 0.  1.
         36    2    1    2    0    0 -0.14210854715E-13  0.00000000000E+00  0.96952818746E+03  0.10075696859E+04  0.27424763561E+03 0.  0.
         25    2    3    3    0    0  0.65768732283E+02  0.57156705705E+02  0.40478096069E+03  0.42236691754E+03  0.83389278346E+02 0.  0.
         25    2    3    3    0    0 -0.65768732283E+02 -0.57156705705E+02  0.56474722677E+03  0.58520276835E+03  0.12621582619E+03 0.  0.
          5    1    4    4  502    0  0.74614273516E+02  0.15428629516E+02  0.28819613077E+03  0.29813492283E+03  0.47000000000E+01 0.  1.
         -5    1    4    4    0  502 -0.88455412323E+01  0.41728076189E+02  0.11658482993E+03  0.12423199472E+03  0.47000000000E+01 0.  1.
          5    1    5    5  503    0  0.96400963743E+01 -0.45216842603E+02  0.40955641574E+03  0.41218447568E+03  0.47000000000E+01 0. -1.
         -5    1    5    5    0  503 -0.75408828658E+02 -0.11939863102E+02  0.15519081103E+03  0.17301829267E+03  0.47000000000E+01 0. -1.
<mgrwt>
<rscale>  0 0.27424764E+03</rscale>
<asrwt>0</asrwt>
<pdfrwt beam="1">  1        2 0.15208441E+00 0.27424764E+03</pdfrwt>
<pdfrwt beam="2">  1       -2 0.29262699E-02 0.27424764E+03</pdfrwt>
<totfact> 0.11701110E+04</totfact>
</mgrwt>
</event>
<event>
 9    1  0.2031653E-002  0.2751653E+03  0.7818608E-02  0.1098359E+00
          2   -1    0    0  501    0  0.00000000000E+00  0.00000000000E+00  0.14677045710E+03  0.14677045710E+03  0.00000000000E+00 0.  1.
         -2   -1    0    0    0  501 -0.00000000000E+00 -0.00000000000E+00 -0.12897003036E+03  0.12897003036E+03  0.00000000000E+00 0.  1.
         36    2    1    2    0    0  0.14210854715E-13 -0.71054273576E-14  0.17800426741E+02  0.27574048746E+03  0.27516533436E+03 0.  0.
         25    2    3    3    0    0  0.38261339245E+02 -0.42720930662E+02  0.32898869736E+02  0.14198925452E+03  0.12565669409E+03 0.  0.
         25    2    3    3    0    0 -0.38261339245E+02  0.42720930662E+02 -0.15098442995E+02  0.13375123295E+03  0.11988503383E+03 0.  0.
          5    1    4    4  502    0  0.51561500699E+02  0.52284190367E+01 -0.31224636624E+02  0.60687664745E+02  0.47000000000E+01 0. -1.
         -5    1    4    4    0  502 -0.13300161454E+02 -0.47949349699E+02  0.64123506360E+02  0.81301589770E+02  0.47000000000E+01 0. -1.
          5    1    5    5  503    0 -0.68345567129E+02 -0.10611110960E+02 -0.19978955255E+02  0.72145414789E+02  0.47000000000E+01 0.  1.
         -5    1    5    5    0  503  0.30084227884E+02  0.53332041621E+02  0.48805122595E+01  0.61605818157E+02  0.47000000000E+01 0.  1.
<mgrwt>
<rscale>  0 0.27516533E+03</rscale>
<asrwt>0</asrwt>
<pdfrwt beam="1">  1        2 0.22580070E-01 0.27516533E+03</pdfrwt>
<pdfrwt beam="2">  1       -2 0.19841543E-01 0.27516533E+03</pdfrwt>
<totfact> 0.51110802E+03</totfact>
</mgrwt>
</event>
<event>
 9    1  0.2031653E-002  0.2746980E+03  0.7818608E-02  0.1098621E+00
          2   -1    0    0  501    0  0.00000000000E+00  0.00000000000E+00  0.38814732220E+04  0.38814732220E+04  0.00000000000E+00 0.  1.
         -2   -1    0    0    0  501 -0.00000000000E+00 -0.00000000000E+00 -0.48602031169E+01  0.48602031169E+01  0.00000000000E+00 0.  1.
         36    2    1    2    0    0  0.00000000000E+00  0.00000000000E+00  0.38766130189E+04  0.38863334251E+04  0.27469800328E+03 0.  0.
         25    2    3    3    0    0 -0.15274281680E+02  0.31063020746E+02  0.25214459314E+04  0.25249437269E+04  0.12826934201E+03 0.  0.
         25    2    3    3    0    0  0.15274281680E+02 -0.31063020746E+02  0.13551670875E+04  0.13613896982E+04  0.12532302452E+03 0.  0.
          5    1    4    4  502    0 -0.27525564806E+02  0.60600716897E+02  0.69136278778E+03  0.69457519243E+03  0.47000000000E+01 0. -1.
         -5    1    4    4    0  502  0.12251283126E+02 -0.29537696151E+02  0.18300831436E+04  0.18303685345E+04  0.47000000000E+01 0. -1.
          5    1    5    5  503    0  0.41108429087E+02  0.29881372327E+02  0.31500255384E+03  0.31911047974E+03  0.47000000000E+01 0.  1.
         -5    1    5    5    0  503 -0.25834147407E+02 -0.60944393073E+02  0.10401645336E+04  0.10422792184E+04  0.47000000000E+01 0.  1.
<mgrwt>
<rscale>  0 0.27469800E+03</rscale>
<asrwt>0</asrwt>
<pdfrwt beam="1">  1        2 0.59714725E+00 0.27469800E+03</pdfrwt>
<pdfrwt beam="2">  1       -2 0.74772666E-03 0.27469800E+03</pdfrwt>
<totfact> 0.17850540E+03</totfact>
</mgrwt>
</event>
<event>
 9    1  0.2031653E-002  0.2748659E+03  0.7818608E-02  0.1098527E+00
          2   -1    0    0  501    0  0.00000000000E+00  0.00000000000E+00  0.19347602917E+02  0.19347602917E+02  0.00000000000E+00 0.  1.
         -2   -1    0    0    0  501 -0.00000000000E+00 -0.00000000000E+00 -0.97623516849E+03  0.97623516849E+03  0.00000000000E+00 0.  1.
         36    2    1    2    0    0  0.00000000000E+00  0.00000000000E+00 -0.95688756557E+03  0.99558277140E+03  0.27486586106E+03 0.  0.
         25    2    3    3    0    0  0.20620505121E+02 -0.28836980485E+02 -0.36682312367E+03  0.39133862202E+03  0.13164321613E+03 0.  0.
         25    2    3    3    0    0 -0.20620505121E+02  0.28836980485E+02 -0.59006444190E+03  0.60424414938E+03  0.12521249854E+03 0.  0.
          5    1    4    4  502    0 -0.12265108407E+02  0.30605174943E+02 -0.27506377322E+03  0.27707269616E+03  0.47000000000E+01 0.  1.
         -5    1    4    4    0  502  0.32885613528E+02 -0.59442155428E+02 -0.91759350448E+02  0.11426592586E+03  0.47000000000E+01 0.  1.
          5    1    5    5  503    0 -0.19968618522E+02  0.68947120675E+02 -0.20874888689E+03  0.22079546860E+03  0.47000000000E+01 0.  1.
         -5    1    5    5    0  503 -0.65188659926E+00 -0.40110140191E+02 -0.38131555501E+03  0.38344868078E+03  0.47000000000E+01 0.  1.
<mgrwt>
<rscale>  0 0.27486586E+03</rscale>
<asrwt>0</asrwt>
<pdfrwt beam="1">  1        2 0.29765549E-02 0.27486586E+03</pdfrwt>
<pdfrwt beam="2">  1       -2 0.15019000E+00 0.27486586E+03</pdfrwt>
<totfact> 0.10010898E+03</totfact>
</mgrwt>
</event>
<event>
 9    1  0.2031653E-002  0.2745828E+03  0.7818608E-02  0.1098685E+00
         -2   -1    0    0    0  501 -0.00000000000E+00  0.00000000000E+00  0.46489752958E+03  0.46489752958E+03  0.00000000000E+00 0. -1.
          2   -1    0    0  501    0  0.00000000000E+00 -0.00000000000E+00 -0.40544266131E+02  0.40544266131E+02  0.00000000000E+00 0. -1.
         36    2    1    2    0    0  0.71054273576E-14 -0.35527136788E-14  0.42435326345E+03  0.50544179572E+03  0.27458280473E+03 0.  0.
         25    2    3    3    0    0  0.27009164417E+02 -0.21342279685E+02  0.30540287559E+03  0.33188253746E+03  0.12526018678E+03 0.  0.
         25    2    3    3    0    0 -0.27009164417E+02  0.21342279685E+02  0.11895038786E+03  0.17355925825E+03  0.12160852555E+03 0.  0.
          5    1    4    4  502    0  0.31209186170E+02  0.40590132767E+02  0.22160570776E+03  0.22749231172E+03  0.47000000000E+01 0.  1.
         -5    1    4    4    0  502 -0.42000217537E+01 -0.61932412452E+02  0.83797167826E+02  0.10439022574E+03  0.47000000000E+01 0.  1.
          5    1    5    5  503    0  0.14984736885E+02  0.71124167326E+01  0.12707347233E+03  0.12823761610E+03  0.47000000000E+01 0.  1.
         -5    1    5    5    0  503 -0.41993901302E+02  0.14229862953E+02 -0.81230844695E+01  0.45321642154E+02  0.47000000000E+01 0.  1.
<mgrwt>
<rscale>  0 0.27458280E+03</rscale>
<asrwt>0</asrwt>
<pdfrwt beam="1">  1        2 0.62375797E-02 0.27458280E+03</pdfrwt>
<pdfrwt beam="2">  1       -2 0.71522693E-01 0.27458280E+03</pdfrwt>
<totfact> 0.21327290E+03</totfact>
</mgrwt>
</event>
<event>
 9    1  0.2031653E-002  0.2798153E+03  0.7818608E-02  0.1095790E+00
         -1   -1    0    0    0  501 -0.00000000000E+00  0.00000000000E+00  0.37088253943E+02  0.37088253943E+02  0.00000000000E+00 0.  1.
          1   -1    0    0  501    0  0.00000000000E+00 -0.00000000000E+00 -0.52777223153E+03  0.52777223153E+03  0.00000000000E+00 0.  1.
         36    2    1    2    0    0  0.00000000000E+00  0.71054273576E-14 -0.49068397759E+03  0.56486048547E+03  0.27981530013E+03 0.  0.
         25    2    3    3    0    0  0.10901336212E+02 -0.36510531905E+02 -0.13551269730E+03  0.18848675207E+03  0.12534634620E+03 0.  0.
         25    2    3    3    0    0 -0.10901336212E+02  0.36510531905E+02 -0.35517128029E+03  0.37637373340E+03  0.11856935009E+03 0.  0.
          5    1    4    4  502    0  0.30546312415E+02 -0.17566049995E+02  0.12669356820E+02  0.37739182779E+02  0.47000000000E+01 0.  1.
         -5    1    4    4    0  502 -0.19644976203E+02 -0.18944481910E+02 -0.14818205412E+03  0.15074756929E+03  0.47000000000E+01 0.  1.
          5    1    5    5  503    0 -0.48284101230E+02 -0.19225061280E+02 -0.10412125842E+03  0.11646580558E+03  0.47000000000E+01 0.  1.
         -5    1    5    5    0  503  0.37382765018E+02  0.55735593185E+02 -0.25105002187E+03  0.25990792783E+03  0.47000000000E+01 0.  1.
<mgrwt>
<rscale>  0 0.27981530E+03</rscale>
<asrwt>0</asrwt>
<pdfrwt beam="1">  1        1 0.81195729E-01 0.27981530E+03</pdfrwt>
<pdfrwt beam="2">  1       -1 0.57058851E-02 0.27981530E+03</pdfrwt>
<totfact> 0.60304786E+03</totfact>
</mgrwt>
</event>
<event>
 9    1  0.2031653E-002  0.2751432E+03  0.7818608E-02  0.1098372E+00
          1   -1    0    0  501    0  0.00000000000E+00  0.00000000000E+00  0.15850854739E+04  0.15850854739E+04  0.00000000000E+00 0. -1.
         -1   -1    0    0    0  501 -0.00000000000E+00 -0.00000000000E+00 -0.11940012659E+02  0.11940012659E+02  0.00000000000E+00 0. -1.
         36    2    1    2    0    0 -0.35527136788E-14 -0.17763568394E-14  0.15731454613E+04  0.15970254866E+04  0.27514316727E+03 0.  0.
         25    2    3    3    0    0 -0.29079776340E+01 -0.69481666367E+01  0.10779311778E+04  0.10857465424E+04  0.12981986374E+03 0.  0.
         25    2    3    3    0    0  0.29079776340E+01  0.69481666367E+01  0.49521428349E+03  0.51127894415E+03  0.12693399391E+03 0.  0.
          5    1    4    4  502    0 -0.19450246143E+02  0.57505726890E+02  0.61989845405E+03  0.62288153290E+03  0.47000000000E+01 0.  1.
         -5    1    4    4    0  502  0.16542268509E+02 -0.64453893527E+02  0.45803272373E+03  0.46286500953E+03  0.47000000000E+01 0.  1.
          5    1    5    5  503    0  0.23212495130E+02 -0.13031966703E+01  0.48673626328E+03  0.48731386010E+03  0.47000000000E+01 0. -1.
         -5    1    5    5    0  503 -0.20304517496E+02  0.82513633070E+01  0.84780202111E+01  0.23965084057E+02  0.47000000000E+01 0. -1.
<mgrwt>
<rscale>  0 0.27514317E+03</rscale>
<asrwt>0</asrwt>
<pdfrwt beam="1">  1        1 0.24385914E+00 0.27514317E+03</pdfrwt>
<pdfrwt beam="2">  1       -1 0.18369263E-02 0.27514317E+03</pdfrwt>
<totfact> 0.48827226E+03</totfact>
</mgrwt>
</event>
<event>
 9    1  0.2031653E-002  0.2743579E+03  0.7818608E-02  0.1098811E+00
         -1   -1    0    0    0  501 -0.00000000000E+00  0.00000000000E+00  0.35627950215E+02  0.35627950215E+02  0.00000000000E+00 0.  1.
          1   -1    0    0  501    0  0.00000000000E+00 -0.00000000000E+00 -0.52818251540E+03  0.52818251540E+03  0.00000000000E+00 0.  1.
         36    2    1    2    0    0  0.00000000000E+00 -0.35527136788E-14 -0.49255456518E+03  0.56381046561E+03  0.27435787113E+03 0.  0.
         25    2    3    3    0    0 -0.54269129311E+02 -0.25518188096E+01 -0.20469419239E+03  0.24577953350E+03  0.12472456260E+03 0.  0.
         25    2    3    3    0    0  0.54269129311E+02  0.25518188096E+01 -0.28786037279E+03  0.31803093211E+03  0.12380803439E+03 0.  0.
          5    1    4    4  502    0 -0.27658489329E+02  0.43932132092E+02 -0.24241998302E+02  0.57487292019E+02  0.47000000000E+01 0. -1.
         -5    1    4    4    0  502 -0.26610639982E+02 -0.46483950901E+02 -0.18045219409E+03  0.18829224148E+03  0.47000000000E+01 0. -1.
          5    1    5    5  503    0  0.19724305294E+02 -0.99540067883E+01  0.47530530961E+01  0.23082720468E+02  0.47000000000E+01 0.  1.
         -5    1    5    5    0  503  0.34544824017E+02  0.12505825598E+02 -0.29261342589E+03  0.29494821164E+03  0.47000000000E+01 0.  1.
<mgrwt>
<rscale>  0 0.27435787E+03</rscale>
<asrwt>0</asrwt>
<pdfrwt beam="1">  1        1 0.81258851E-01 0.27435787E+03</pdfrwt>
<pdfrwt beam="2">  1       -1 0.54812229E-02 0.27435787E+03</pdfrwt>
<totfact> 0.63957341E+03</totfact>
</mgrwt>
</event>
<event>
 9    1  0.2031653E-002  0.2727660E+03  0.7818608E-02  0.1099707E+00
          3   -1    0    0  501    0  0.00000000000E+00  0.00000000000E+00  0.74308037158E+03  0.74308037158E+03  0.00000000000E+00 0.  1.
         -3   -1    0    0    0  501 -0.00000000000E+00 -0.00000000000E+00 -0.25031373999E+02  0.25031373999E+02  0.00000000000E+00 0.  1.
         36    2    1    2    0    0 -0.71054273576E-14  0.00000000000E+00  0.71804899758E+03  0.76811174558E+03  0.27276600003E+03 0.  0.
         25    2    3    3    0    0 -0.43065868713E+02 -0.26524972479E+02  0.30155150152E+03  0.33016268356E+03  0.12456262012E+03 0.  0.
         25    2    3    3    0    0  0.43065868713E+02  0.26524972479E+02  0.41649749606E+03  0.43794906202E+03  0.12558253656E+03 0.  0.
          5    1    4    4  502    0 -0.65171516960E+02  0.12032019281E+02  0.79260573296E+02  0.10342352049E+03  0.47000000000E+01 0. -1.
         -5    1    4    4    0  502  0.22105648247E+02 -0.38556991760E+02  0.22229092822E+03  0.22673916307E+03  0.47000000000E+01 0. -1.
          5    1    5    5  503    0 -0.31567514158E+02 -0.27280566079E+02  0.15967664590E+03  0.16510438662E+03  0.47000000000E+01 0.  1.
         -5    1    5    5    0  503  0.74633382871E+02  0.53805538558E+02  0.25682085017E+03  0.27284467541E+03  0.47000000000E+01 0.  1.
<mgrwt>
<rscale>  0 0.27276600E+03</rscale>
<asrwt>0</asrwt>
<pdfrwt beam="1">  1        3 0.11432004E+00 0.27276600E+03</pdfrwt>
<pdfrwt beam="2">  1       -3 0.38509812E-02 0.27276600E+03</pdfrwt>
<totfact> 0.58075093E+02</totfact>
</mgrwt>
</event>
<event>
 9    1  0.2031653E-002  0.2702880E+03  0.7818608E-02  0.1101115E+00
         -1   -1    0    0    0  501 -0.00000000000E+00  0.00000000000E+00  0.35131006504E+02  0.35131006504E+02  0.00000000000E+00 0. -1.
          1   -1    0    0  501    0  0.00000000000E+00 -0.00000000000E+00 -0.51987995095E+03  0.51987995095E+03  0.00000000000E+00 0. -1.
         36    2    1    2    0    0  0.00000000000E+00  0.39968028887E-14 -0.48474894444E+03  0.55501095745E+03  0.27028803849E+03 0.  0.
         25    2    3    3    0    0  0.33577879940E+02  0.35254391191E+01 -0.20166558013E+03  0.24420979027E+03  0.13352719839E+03 0.  0.
         25    2    3    3    0    0 -0.33577879940E+02 -0.35254391191E+01 -0.28308336431E+03  0.31080116718E+03  0.12377912438E+03 0.  0.
          5    1    4    4  502    0  0.10513568418E+02  0.53621735834E+02 -0.17378517038E+03  0.18223391868E+03  0.47000000000E+01 0.  1.
         -5    1    4    4    0  502  0.23064311522E+02 -0.50096296715E+02 -0.27880409754E+02  0.61975871584E+02  0.47000000000E+01 0.  1.
          5    1    5    5  503    0  0.43793531947E+02 -0.70333708600E+01 -0.15265072358E+03  0.15903356613E+03  0.47000000000E+01 0.  1.
         -5    1    5    5    0  503 -0.77371411886E+02  0.35079317409E+01 -0.13043264073E+03  0.15176760106E+03  0.47000000000E+01 0.  1.
<mgrwt>
<rscale>  0 0.27028804E+03</rscale>
<asrwt>0</asrwt>
<pdfrwt beam="1">  1        1 0.79981525E-01 0.27028804E+03</pdfrwt>
<pdfrwt beam="2">  1       -1 0.54047706E-02 0.27028804E+03</pdfrwt>
<totfact> 0.66693652E+03</totfact>
</mgrwt>
</event>
<event>
 9    1  0.2031653E-002  0.2746140E+03  0.7818608E-02  0.1098668E+00
          1   -1    0    0  501    0  0.00000000000E+00  0.00000000000E+00  0.39148476221E+02  0.39148476221E+02  0.00000000000E+00 0. -1.
         -1   -1    0    0    0  501 -0.00000000000E+00 -0.00000000000E+00 -0.48158214227E+03  0.48158214227E+03  0.00000000000E+00 0. -1.
         36    2    1    2    0    0 -0.35527136788E-14 -0.35527136788E-14 -0.44243366605E+03  0.52073061849E+03  0.27461396210E+03 0.  0.
         25    2    3    3    0    0 -0.25042465799E+02  0.31340386423E+02 -0.30171891748E+03  0.32917419547E+03  0.12534752046E+03 0.  0.
         25    2    3    3    0    0  0.25042465799E+02 -0.31340386423E+02 -0.14071474857E+03  0.19155642302E+03  0.12362798154E+03 0.  0.
          5    1    4    4  502    0  0.10112793858E+02 -0.14852401174E+02 -0.25175718002E+03  0.25244133995E+03  0.47000000000E+01 0. -1.
         -5    1    4    4    0  502 -0.35155259656E+02  0.46192787597E+02 -0.49961737451E+02  0.76732855523E+02  0.47000000000E+01 0. -1.
          5    1    5    5  503    0 -0.58564391091E+01  0.20476293025E+01 -0.14537723831E+03  0.14558544599E+03  0.47000000000E+01 0.  1.
         -5    1    5    5    0  503  0.30898904908E+02 -0.33388015726E+02  0.46624897393E+01  0.45970977031E+02  0.47000000000E+01 0.  1.
<mgrwt>
<rscale>  0 0.27461396E+03</rscale>
<asrwt>0</asrwt>
<pdfrwt beam="1">  1        1 0.60228426E-02 0.27461396E+03</pdfrwt>
<pdfrwt beam="2">  1       -1 0.74089560E-01 0.27461396E+03</pdfrwt>
<totfact> 0.24510166E+03</totfact>
</mgrwt>
</event>
<event>
 9    1  0.2031653E-002  0.2763837E+03  0.7818608E-02  0.1097681E+00
         -2   -1    0    0    0  501 -0.00000000000E+00  0.00000000000E+00  0.10205136332E+02  0.10205136332E+02  0.00000000000E+00 0.  1.
          2   -1    0    0  501    0  0.00000000000E+00 -0.00000000000E+00 -0.18713109758E+04  0.18713109758E+04  0.00000000000E+00 0.  1.
         36    2    1    2    0    0 -0.35527136788E-14  0.71054273576E-14 -0.18611058394E+04  0.18815161121E+04  0.27638367265E+03 0.  0.
         25    2    3    3    0    0 -0.11005711536E+02 -0.53312007061E+02 -0.10538454303E+04  0.10625664014E+04  0.12447437756E+03 0.  0.
         25    2    3    3    0    0  0.11005711536E+02  0.53312007061E+02 -0.80726040913E+03  0.81894971067E+03  0.12667266748E+03 0.  0.
          5    1    4    4  502    0 -0.26784122290E+02 -0.82795543316E+02 -0.93392530468E+03  0.93798243903E+03  0.47000000000E+01 0.  1.
         -5    1    4    4    0  502  0.15778410753E+02  0.29483536255E+02 -0.11992012563E+03  0.12458396240E+03  0.47000000000E+01 0.  1.
          5    1    5    5  503    0  0.48784533623E+02 -0.21165202818E+02 -0.35977007636E+03  0.36370935426E+03  0.47000000000E+01 0.  1.
         -5    1    5    5    0  503 -0.37778822087E+02  0.74477209880E+02 -0.44749033276E+03  0.45524035641E+03  0.47000000000E+01 0.  1.
<mgrwt>
<rscale>  0 0.27638367E+03</rscale>
<asrwt>0</asrwt>
<pdfrwt beam="1">  1        2 0.28789371E+00 0.27638367E+03</pdfrwt>
<pdfrwt beam="2">  1       -2 0.15700226E-02 0.27638367E+03</pdfrwt>
<totfact> 0.95811420E+03</totfact>
</mgrwt>
</event>
<event>
 9    1  0.2031653E-002  0.2781792E+03  0.7818608E-02  0.1096688E+00
          4   -1    0    0  501    0  0.00000000000E+00  0.00000000000E+00  0.34398873041E+02  0.34398873041E+02  0.00000000000E+00 0.  1.
         -4   -1    0    0    0  501 -0.00000000000E+00 -0.00000000000E+00 -0.56239986604E+03  0.56239986604E+03  0.00000000000E+00 0.  1.
         36    2    1    2    0    0  0.00000000000E+00 -0.71054273576E-14 -0.52800099300E+03  0.59679873908E+03  0.27817923424E+03 0.  0.
         25    2    3    3    0    0  0.58059434674E+02 -0.23134431841E+02 -0.26042924043E+03  0.29457440343E+03  0.12265638996E+03 0.  0.
         25    2    3    3    0    0 -0.58059434674E+02  0.23134431841E+02 -0.26757175257E+03  0.30222433564E+03  0.12585231977E+03 0.  0.
          5    1    4    4  502    0  0.23325366681E+02 -0.64237730299E+02 -0.75630165887E+02  0.10204200467E+03  0.47000000000E+01 0. -1.
         -5    1    4    4    0  502  0.34734067994E+02  0.41103298458E+02 -0.18479907454E+03  0.19253239877E+03  0.47000000000E+01 0. -1.
          5    1    5    5  503    0  0.23714951011E+02  0.33664292233E+02 -0.16712514421E+03  0.17218765141E+03  0.47000000000E+01 0. -1.
         -5    1    5    5    0  503 -0.81774385685E+02 -0.10529860392E+02 -0.10044660836E+03  0.13003668423E+03  0.47000000000E+01 0. -1.
<mgrwt>
<rscale>  0 0.27817923E+03</rscale>
<asrwt>0</asrwt>
<pdfrwt beam="1">  1        4 0.52921344E-02 0.27817923E+03</pdfrwt>
<pdfrwt beam="2">  1       -4 0.86523055E-01 0.27817923E+03</pdfrwt>
<totfact> 0.48660536E+02</totfact>
</mgrwt>
</event>
<event>
 9    1  0.2031653E-002  0.2751301E+03  0.7818608E-02  0.1098379E+00
          2   -1    0    0  501    0  0.00000000000E+00  0.00000000000E+00  0.20381840673E+04  0.20381840673E+04  0.00000000000E+00 0. -1.
         -2   -1    0    0    0  501 -0.00000000000E+00 -0.00000000000E+00 -0.92848057908E+01  0.92848057908E+01  0.00000000000E+00 0. -1.
         36    2    1    2    0    0  0.00000000000E+00 -0.35527136788E-14  0.20288992615E+04  0.20474688731E+04  0.27513010181E+03 0.  0.
         25    2    3    3    0    0 -0.49921634880E+02 -0.14644649148E+02  0.86884784744E+03  0.87978272507E+03  0.12811879622E+03 0.  0.
         25    2    3    3    0    0  0.49921634880E+02  0.14644649148E+02  0.11600514141E+04  0.11676861480E+04  0.12273964978E+03 0.  0.
          5    1    4    4  502    0 -0.86012102855E+02 -0.30719727042E+02  0.71699438299E+03  0.72280344403E+03  0.47000000000E+01 0. -1.
         -5    1    4    4    0  502  0.36090467975E+02  0.16075077894E+02  0.15185346445E+03  0.15697928104E+03  0.47000000000E+01 0. -1.
          5    1    5    5  503    0  0.76436669358E+02  0.40650558185E+02  0.58186215016E+03  0.58828622634E+03  0.47000000000E+01 0.  1.
         -5    1    5    5    0  503 -0.26515034478E+02 -0.26005909037E+02  0.57818926391E+03  0.57939992170E+03  0.47000000000E+01 0.  1.
<mgrwt>
<rscale>  0 0.27513010E+03</rscale>
<asrwt>0</asrwt>
<pdfrwt beam="1">  1        2 0.31356642E+00 0.27513010E+03</pdfrwt>
<pdfrwt beam="2">  1       -2 0.14284333E-02 0.27513010E+03</pdfrwt>
<totfact> 0.89893655E+03</totfact>
</mgrwt>
</event>
<event>
 9    1  0.2031653E-002  0.2748810E+03  0.7818608E-02  0.1098518E+00
         -1   -1    0    0    0  501 -0.00000000000E+00  0.00000000000E+00  0.22794411964E+02  0.22794411964E+02  0.00000000000E+00 0.  1.
          1   -1    0    0  501    0  0.00000000000E+00 -0.00000000000E+00 -0.82870720559E+03  0.82870720559E+03  0.00000000000E+00 0.  1.
         36    2    1    2    0    0 -0.71054273576E-14  0.14210854715E-13 -0.80591279362E+03  0.85150161755E+03  0.27488101747E+03 0.  0.
         25    2    3    3    0    0 -0.42258301868E+02  0.37831341687E+02 -0.46518389339E+03  0.48462969341E+03  0.12350267438E+03 0.  0.
         25    2    3    3    0    0  0.42258301868E+02 -0.37831341687E+02 -0.34072890023E+03  0.36687192414E+03  0.12361978311E+03 0.  0.
          5    1    4    4  502    0  0.11827467705E+02 -0.34727522831E+02 -0.22300489915E+03  0.22605124393E+03  0.47000000000E+01 0. -1.
         -5    1    4    4    0  502 -0.54085769574E+02  0.72558864518E+02 -0.24217899423E+03  0.25857844949E+03  0.47000000000E+01 0. -1.
          5    1    5    5  503    0  0.44754112958E+02  0.24220171502E+02 -0.25966648645E+03  0.26464754206E+03  0.47000000000E+01 0. -1.
         -5    1    5    5    0  503 -0.24958110896E+01 -0.62051513189E+02 -0.81062413782E+02  0.10222438207E+03  0.47000000000E+01 0. -1.
<mgrwt>
<rscale>  0 0.27488102E+03</rscale>
<asrwt>0</asrwt>
<pdfrwt beam="1">  1        1 0.12749340E+00 0.27488102E+03</pdfrwt>
<pdfrwt beam="2">  1       -1 0.35068329E-02 0.27488102E+03</pdfrwt>
<totfact> 0.65131287E+03</totfact>
</mgrwt>
</event>
<event>
 9    1  0.2031653E-002  0.2748027E+03  0.7818608E-02  0.1098562E+00
          2   -1    0    0  501    0  0.00000000000E+00  0.00000000000E+00  0.68613217288E+03  0.68613217288E+03  0.00000000000E+00 0. -1.
         -2   -1    0    0    0  501 -0.00000000000E+00 -0.00000000000E+00 -0.27515291018E+02  0.27515291018E+02  0.00000000000E+00 0. -1.
         36    2    1    2    0    0  0.00000000000E+00  0.71054273576E-14  0.65861688186E+03  0.71364746390E+03  0.27480266675E+03 0.  0.
         25    2    3    3    0    0 -0.21161064044E+02 -0.19695266973E+02  0.43946654158E+03  0.46039862030E+03  0.13416539880E+03 0.  0.
         25    2    3    3    0    0  0.21161064044E+02  0.19695266973E+02  0.21915034028E+03  0.25324884359E+03  0.12358159638E+03 0.  0.
          5    1    4    4  502    0  0.71755724976E+01  0.50442015329E+02  0.97238888175E+02  0.10987892029E+03  0.47000000000E+01 0.  1.
         -5    1    4    4    0  502 -0.28336636542E+02 -0.70137282302E+02  0.34222765341E+03  0.35051970001E+03  0.47000000000E+01 0.  1.
          5    1    5    5  503    0  0.29035370147E+02  0.58197289166E+02  0.19781516055E+03  0.20828563304E+03  0.47000000000E+01 0. -1.
         -5    1    5    5    0  503 -0.78743061034E+01 -0.38502022194E+02  0.21335179730E+02  0.44963210558E+02  0.47000000000E+01 0. -1.
<mgrwt>
<rscale>  0 0.27480267E+03</rscale>
<asrwt>0</asrwt>
<pdfrwt beam="1">  1        2 0.10555878E+00 0.27480267E+03</pdfrwt>
<pdfrwt beam="2">  1       -2 0.42331222E-02 0.27480267E+03</pdfrwt>
<totfact> 0.10797194E+04</totfact>
</mgrwt>
</event>
<event>
 9    1  0.2031653E-002  0.2749981E+03  0.7818608E-02  0.1098453E+00
         -2   -1    0    0    0  501 -0.00000000000E+00  0.00000000000E+00  0.34845142861E+03  0.34845142861E+03  0.00000000000E+00 0. -1.
          2   -1    0    0  501    0  0.00000000000E+00 -0.00000000000E+00 -0.54257185925E+02  0.54257185925E+02  0.00000000000E+00 0. -1.
         36    2    1    2    0    0  0.17763568394E-14  0.00000000000E+00  0.29419424268E+03  0.40270861453E+03  0.27499813780E+03 0.  0.
         25    2    3    3    0    0 -0.64765238206E+01 -0.28465343591E+01  0.29439365963E+02  0.12803065588E+03  0.12439905328E+03 0.  0.
         25    2    3    3    0    0  0.64765238206E+01  0.28465343591E+01  0.26475487672E+03  0.27467795866E+03  0.72820245171E+02 0.  0.
          5    1    4    4  502    0  0.35139454023E+02  0.39542545194E+02  0.41295290318E+02  0.67273955673E+02  0.47000000000E+01 0. -1.
         -5    1    4    4    0  502 -0.41615977844E+02 -0.42389079553E+02 -0.11855924355E+02  0.60756700203E+02  0.47000000000E+01 0. -1.
          5    1    5    5  503    0  0.16183291353E+02  0.17670257806E+02  0.27742585783E+02  0.36957786674E+02  0.47000000000E+01 0.  1.
         -5    1    5    5    0  503 -0.97067675322E+01 -0.14823723446E+02  0.23701229093E+03  0.23772017198E+03  0.47000000000E+01 0.  1.
<mgrwt>
<rscale>  0 0.27499814E+03</rscale>
<asrwt>0</asrwt>
<pdfrwt beam="1">  1        2 0.83472596E-02 0.27499814E+03</pdfrwt>
<pdfrwt beam="2">  1       -2 0.53607911E-01 0.27499814E+03</pdfrwt>
<totfact> 0.26777353E+03</totfact>
</mgrwt>
</event>
<event>
 9    1  0.2031653E-002  0.2752190E+03  0.7818608E-02  0.1098329E+00
         -1   -1    0    0    0  501 -0.00000000000E+00  0.00000000000E+00  0.22621716172E+02  0.22621716172E+02  0.00000000000E+00 0. -1.
          1   -1    0    0  501    0  0.00000000000E+00 -0.00000000000E+00 -0.83708843378E+03  0.83708843378E+03  0.00000000000E+00 0. -1.
         36    2    1    2    0    0 -0.71054273576E-14  0.00000000000E+00 -0.81446671761E+03  0.85971014996E+03  0.27521901794E+03 0.  0.
         25    2    3    3    0    0  0.54432780164E+02 -0.56920986848E+01 -0.33067046711E+03  0.35674194970E+03  0.12217419251E+03 0.  0.
         25    2    3    3    0    0 -0.54432780164E+02  0.56920986848E+01 -0.48379625050E+03  0.50296820025E+03  0.12618585863E+03 0.  0.
          5    1    4    4  502    0  0.19548692118E+02  0.57641066322E+02 -0.13811084758E+03  0.15100112619E+03  0.47000000000E+01 0. -1.
         -5    1    4    4    0  502  0.34884088045E+02 -0.63333165007E+02 -0.19255961953E+03  0.20574082352E+03  0.47000000000E+01 0. -1.
          5    1    5    5  503    0  0.30901218945E+02  0.25829549332E+02 -0.24923155863E+03  0.25250843703E+03  0.47000000000E+01 0. -1.
         -5    1    5    5    0  503 -0.85333999109E+02 -0.20137450647E+02 -0.23456469187E+03  0.25045976323E+03  0.47000000000E+01 0. -1.
<mgrwt>
<rscale>  0 0.27521902E+03</rscale>
<asrwt>0</asrwt>
<pdfrwt beam="1">  1        1 0.12878283E+00 0.27521902E+03</pdfrwt>
<pdfrwt beam="2">  1       -1 0.34802641E-02 0.27521902E+03</pdfrwt>
<totfact> 0.64840006E+03</totfact>
</mgrwt>
</event>
<event>
 9    1  0.2031653E-002  0.2751854E+03  0.7818608E-02  0.1098348E+00
         -3   -1    0    0    0  501 -0.00000000000E+00  0.00000000000E+00  0.32143874944E+03  0.32143874944E+03  0.00000000000E+00 0. -1.
          3   -1    0    0  501    0  0.00000000000E+00 -0.00000000000E+00 -0.58896934824E+02  0.58896934824E+02  0.00000000000E+00 0. -1.
         36    2    1    2    0    0 -0.71054273576E-14  0.00000000000E+00  0.26254181462E+03  0.38033568427E+03  0.27518544348E+03 0.  0.
         25    2    3    3    0    0 -0.34953533120E+02 -0.33532405018E+02  0.15454512589E+03  0.20484192087E+03  0.12541867862E+03 0.  0.
         25    2    3    3    0    0  0.34953533120E+02  0.33532405018E+02  0.10799668873E+03  0.17549376340E+03  0.12957084761E+03 0.  0.
          5    1    4    4  502    0 -0.43042700645E+02 -0.67092124235E+02  0.48978643172E+02  0.93675101816E+02  0.47000000000E+01 0.  1.
         -5    1    4    4    0  502  0.80891675252E+01  0.33559719218E+02  0.10556648272E+03  0.11116681906E+03  0.47000000000E+01 0.  1.
          5    1    5    5  503    0  0.45710623179E+00 -0.48749960705E+02  0.38999372285E+02  0.62608375266E+02  0.47000000000E+01 0. -1.
         -5    1    5    5    0  503  0.34496426888E+02  0.82282365722E+02  0.68997316443E+02  0.11288538813E+03  0.47000000000E+01 0. -1.
<mgrwt>
<rscale>  0 0.27518544E+03</rscale>
<asrwt>0</asrwt>
<pdfrwt beam="1">  1        3 0.90610671E-02 0.27518544E+03</pdfrwt>
<pdfrwt beam="2">  1       -3 0.49452114E-01 0.27518544E+03</pdfrwt>
<totfact> 0.90241397E+02</totfact>
</mgrwt>
</event>
<event>
 9    1  0.2031653E-002  0.2747450E+03  0.7818608E-02  0.1098594E+00
         -2   -1    0    0    0  501 -0.00000000000E+00  0.00000000000E+00  0.19895651492E+03  0.19895651492E+03  0.00000000000E+00 0.  1.
          2   -1    0    0  501    0  0.00000000000E+00 -0.00000000000E+00 -0.94850920597E+02  0.94850920597E+02  0.00000000000E+00 0.  1.
         36    2    1    2    0    0  0.00000000000E+00  0.17763568394E-14  0.10410559432E+03  0.29380743552E+03  0.27474503525E+03 0.  0.
         25    2    3    3    0    0 -0.31399965046E+02  0.23081309558E+01  0.11389186522E+02  0.13097246653E+03  0.12662064660E+03 0.  0.
         25    2    3    3    0    0  0.31399965046E+02 -0.23081309558E+01  0.92716407801E+02  0.16283496898E+03  0.13010614734E+03 0.  0.
          5    1    4    4  502    0  0.37810652253E+02 -0.29315525975E+02  0.23944650283E+02  0.53707371600E+02  0.47000000000E+01 0.  1.
         -5    1    4    4    0  502 -0.69210617299E+02  0.31623656931E+02 -0.12555463761E+02  0.77265094932E+02  0.47000000000E+01 0.  1.
          5    1    5    5  503    0  0.81998649329E+01  0.15283607938E+02  0.12078875260E+03  0.12211813629E+03  0.47000000000E+01 0. -1.
         -5    1    5    5    0  503  0.23200100113E+02 -0.17591738893E+02 -0.28072344796E+02  0.40716832697E+02  0.47000000000E+01 0. -1.
<mgrwt>
<rscale>  0 0.27474504E+03</rscale>
<asrwt>0</asrwt>
<pdfrwt beam="1">  1        2 0.14592449E-01 0.27474504E+03</pdfrwt>
<pdfrwt beam="2">  1       -2 0.30608694E-01 0.27474504E+03</pdfrwt>
<totfact> 0.39481803E+03</totfact>
</mgrwt>
</event>
<event>
 9    1  0.2031653E-002  0.2761602E+03  0.7818608E-02  0.1097805E+00
         -4   -1    0    0    0  501 -0.00000000000E+00  0.00000000000E+00  0.94118383387E+02  0.94118383387E+02  0.00000000000E+00 0.  1.
          4   -1    0    0  501    0  0.00000000000E+00 -0.00000000000E+00 -0.20257581428E+03  0.20257581428E+03  0.00000000000E+00 0.  1.
         36    2    1    2    0    0  0.00000000000E+00  0.00000000000E+00 -0.10845743090E+03  0.29669419767E+03  0.27616015754E+03 0.  0.
         25    2    3    3    0    0  0.46083984871E+02 -0.12657376934E+02 -0.70457427050E+02  0.15301098096E+03  0.12713838293E+03 0.  0.
         25    2    3    3    0    0 -0.46083984871E+02  0.12657376934E+02 -0.38000003848E+02  0.14368321671E+03  0.13006507456E+03 0.  0.
          5    1    4    4  502    0  0.87778534720E+02 -0.14073847897E+02 -0.65942274487E+02  0.11078636160E+03  0.47000000000E+01 0. -1.
         -5    1    4    4    0  502 -0.41694549849E+02  0.14164709634E+01 -0.45151525634E+01  0.42224619356E+02  0.47000000000E+01 0. -1.
          5    1    5    5  503    0 -0.47203276306E+02 -0.33335779625E+02 -0.67382180743E+02  0.88892473129E+02  0.47000000000E+01 0.  1.
         -5    1    5    5    0  503  0.11192914354E+01  0.45993156559E+02  0.29382176896E+02  0.54790743586E+02  0.47000000000E+01 0.  1.
<mgrwt>
<rscale>  0 0.27616016E+03</rscale>
<asrwt>0</asrwt>
<pdfrwt beam="1">  1        4 0.31165510E-01 0.27616016E+03</pdfrwt>
<pdfrwt beam="2">  1       -4 0.14479751E-01 0.27616016E+03</pdfrwt>
<totfact> 0.74389787E+02</totfact>
</mgrwt>
</event>
<event>
 9    1  0.2031653E-002  0.2749764E+03  0.7818608E-02  0.1098465E+00
         -2   -1    0    0    0  501 -0.00000000000E+00  0.00000000000E+00  0.93287536570E+01  0.93287536570E+01  0.00000000000E+00 0. -1.
          2   -1    0    0  501    0  0.00000000000E+00 -0.00000000000E+00 -0.20263162510E+04  0.20263162510E+04  0.00000000000E+00 0. -1.
         36    2    1    2    0    0  0.00000000000E+00  0.00000000000E+00 -0.20169874973E+04  0.20356450047E+04  0.27497639998E+03 0.  0.
         25    2    3    3    0    0 -0.26772043538E+02 -0.40375909534E+02 -0.80834742545E+03  0.81963833172E+03  0.12662732016E+03 0.  0.
         25    2    3    3    0    0  0.26772043538E+02  0.40375909534E+02 -0.12086400719E+04  0.12160066729E+04  0.12455701044E+03 0.  0.
          5    1    4    4  502    0 -0.18263352337E+02  0.13592217308E+02 -0.67574335670E+03  0.67614308584E+03  0.47000000000E+01 0.  1.
         -5    1    4    4    0  502 -0.85086912010E+01 -0.53968126842E+02 -0.13260406875E+03  0.14349524588E+03  0.47000000000E+01 0.  1.
          5    1    5    5  503    0 -0.49736443624E+02  0.22802765426E+02 -0.51897388462E+03  0.52187130870E+03  0.47000000000E+01 0. -1.
         -5    1    5    5    0  503  0.76508487162E+02  0.17573144107E+02 -0.68966618729E+03  0.69413536424E+03  0.47000000000E+01 0. -1.
<mgrwt>
<rscale>  0 0.27497640E+03</rscale>
<asrwt>0</asrwt>
<pdfrwt beam="1">  1        2 0.31174106E+00 0.27497640E+03</pdfrwt>
<pdfrwt beam="2">  1       -2 0.14351924E-02 0.27497640E+03</pdfrwt>
<totfact> 0.90569225E+03</totfact>
</mgrwt>
</event>
<event>
 9    1  0.2031653E-002  0.2740753E+03  0.7818608E-02  0.1098970E+00
          2   -1    0    0  501    0  0.00000000000E+00  0.00000000000E+00  0.36553541010E+03  0.36553541010E+03  0.00000000000E+00 0. -1.
         -2   -1    0    0    0  501 -0.00000000000E+00 -0.00000000000E+00 -0.51374842502E+02  0.51374842502E+02  0.00000000000E+00 0. -1.
         36    2    1    2    0    0  0.35527136788E-14 -0.71054273576E-14  0.31416056760E+03  0.41691025260E+03  0.27407534820E+03 0.  0.
         25    2    3    3    0    0 -0.65775308857E+01  0.52073698861E+02  0.12346829422E+03  0.18368910922E+03  0.12546846275E+03 0.  0.
         25    2    3    3    0    0  0.65775308857E+01 -0.52073698861E+02  0.19069227338E+03  0.23322114338E+03  0.12358650641E+03 0.  0.
          5    1    4    4  502    0  0.12422181930E+02 -0.23892508674E+01  0.12506800265E+03  0.12579393630E+03  0.47000000000E+01 0. -1.
         -5    1    4    4    0  502 -0.18999712815E+02  0.54462949729E+02 -0.15997084345E+01  0.57895172919E+02  0.47000000000E+01 0. -1.
          5    1    5    5  503    0 -0.46180482842E+02 -0.25710802556E+02  0.27775255310E+02  0.59893548660E+02  0.47000000000E+01 0.  1.
         -5    1    5    5    0  503  0.52758013727E+02 -0.26362896305E+02  0.16291701807E+03  0.17332759472E+03  0.47000000000E+01 0.  1.
<mgrwt>
<rscale>  0 0.27407535E+03</rscale>
<asrwt>0</asrwt>
<pdfrwt beam="1">  1        2 0.56236215E-01 0.27407535E+03</pdfrwt>
<pdfrwt beam="2">  1       -2 0.79038221E-02 0.27407535E+03</pdfrwt>
<totfact> 0.84316397E+03</totfact>
</mgrwt>
</event>
<event>
 9    1  0.2031653E-002  0.2749241E+03  0.7818608E-02  0.1098494E+00
          3   -1    0    0  501    0  0.00000000000E+00  0.00000000000E+00  0.60635266280E+03  0.60635266280E+03  0.00000000000E+00 0.  1.
         -3   -1    0    0    0  501 -0.00000000000E+00 -0.00000000000E+00 -0.31163086188E+02  0.31163086188E+02  0.00000000000E+00 0.  1.
         36    2    1    2    0    0  0.00000000000E+00  0.71054273576E-14  0.57518957661E+03  0.63751574899E+03  0.27492413711E+03 0.  0.
         25    2    3    3    0    0 -0.53962386059E+02 -0.21055569816E+02  0.27665509471E+03  0.31030854509E+03  0.12805497099E+03 0.  0.
         25    2    3    3    0    0  0.53962386059E+02  0.21055569816E+02  0.29853448190E+03  0.32720720390E+03  0.12077434028E+03 0.  0.
          5    1    4    4  502    0 -0.59720432795E+02 -0.26171316905E+02  0.28827632233E+03  0.29559566292E+03  0.47000000000E+01 0. -1.
         -5    1    4    4    0  502  0.57580467356E+01  0.51157470887E+01 -0.11621227615E+02  0.14712882171E+02  0.47000000000E+01 0. -1.
          5    1    5    5  503    0  0.36488198501E+02  0.38925447381E+02  0.29693335496E+03  0.30172518352E+03  0.47000000000E+01 0. -1.
         -5    1    5    5    0  503  0.17474187558E+02 -0.17869877564E+02  0.16011269393E+01  0.25482020376E+02  0.47000000000E+01 0. -1.
<mgrwt>
<rscale>  0 0.27492414E+03</rscale>
<asrwt>0</asrwt>
<pdfrwt beam="1">  1        3 0.93285016E-01 0.27492414E+03</pdfrwt>
<pdfrwt beam="2">  1       -3 0.47943214E-02 0.27492414E+03</pdfrwt>
<totfact> 0.65689813E+02</totfact>
</mgrwt>
</event>
<event>
 9    1  0.2031653E-002  0.2749441E+03  0.7818608E-02  0.1098483E+00
          2   -1    0    0  501    0  0.00000000000E+00  0.00000000000E+00  0.10306439514E+04  0.10306439514E+04  0.00000000000E+00 0.  1.
         -2   -1    0    0    0  501 -0.00000000000E+00 -0.00000000000E+00 -0.18336651360E+02  0.18336651360E+02  0.00000000000E+00 0.  1.
         36    2    1    2    0    0  0.00000000000E+00  0.71054273576E-14  0.10123073000E+04  0.10489806028E+04  0.27494405841E+03 0.  0.
         25    2    3    3    0    0 -0.90950402740E+01 -0.63867834489E+02  0.39644055569E+03  0.41744814765E+03  0.11373663323E+03 0.  0.
         25    2    3    3    0    0  0.90950402740E+01  0.63867834489E+02  0.61586674435E+03  0.63153245511E+03  0.12401441458E+03 0.  0.
          5    1    4    4  502    0  0.20422120503E+02 -0.35899486585E+02  0.36895971762E+02  0.55580921863E+02  0.47000000000E+01 0. -1.
         -5    1    4    4    0  502 -0.29517160777E+02 -0.27968347903E+02  0.35954458393E+03  0.36186722579E+03  0.47000000000E+01 0. -1.
          5    1    5    5  503    0 -0.10857145812E+02  0.94654817241E+02  0.33758696596E+03  0.35080544698E+03  0.47000000000E+01 0.  1.
         -5    1    5    5    0  503  0.19952186086E+02 -0.30786982752E+02  0.27827977839E+03  0.28072700813E+03  0.47000000000E+01 0.  1.
<mgrwt>
<rscale>  0 0.27494406E+03</rscale>
<asrwt>0</asrwt>
<pdfrwt beam="1">  1        2 0.15856056E+00 0.27494406E+03</pdfrwt>
<pdfrwt beam="2">  1       -2 0.28210241E-02 0.27494406E+03</pdfrwt>
<totfact> 0.11647388E+04</totfact>
</mgrwt>
</event>
<event>
 9    1  0.2031653E-002  0.2741058E+03  0.7818608E-02  0.1098952E+00
          2   -1    0    0  501    0  0.00000000000E+00  0.00000000000E+00  0.25789643083E+04  0.25789643083E+04  0.00000000000E+00 0. -1.
         -2   -1    0    0    0  501 -0.00000000000E+00 -0.00000000000E+00 -0.72833475025E+01  0.72833475025E+01  0.00000000000E+00 0. -1.
         36    2    1    2    0    0  0.71054273576E-14  0.00000000000E+00  0.25716809608E+04  0.25862476558E+04  0.27410576976E+03 0.  0.
         25    2    3    3    0    0  0.34647047747E+02  0.14353497993E+02  0.16423118532E+04  0.16475738124E+04  0.12611424706E+03 0.  0.
         25    2    3    3    0    0 -0.34647047747E+02 -0.14353497993E+02  0.92936910762E+03  0.93867384343E+03  0.12639305881E+03 0.  0.
          5    1    4    4  502    0  0.28395672171E+01  0.32481377755E+02  0.11022411080E+03  0.11504150401E+03  0.47000000000E+01 0. -1.
         -5    1    4    4    0  502  0.31807480530E+02 -0.18127879761E+02  0.15320877424E+04  0.15325323084E+04  0.47000000000E+01 0. -1.
          5    1    5    5  503    0  0.23475199602E+02 -0.54733851941E+02  0.36343677908E+03  0.36831408055E+03  0.47000000000E+01 0. -1.
         -5    1    5    5    0  503 -0.58122247349E+02  0.40380353948E+02  0.56593232854E+03  0.57035976288E+03  0.47000000000E+01 0. -1.
<mgrwt>
<rscale>  0 0.27410577E+03</rscale>
<asrwt>0</asrwt>
<pdfrwt beam="1">  1        2 0.39676301E+00 0.27410577E+03</pdfrwt>
<pdfrwt beam="2">  1       -2 0.11205171E-02 0.27410577E+03</pdfrwt>
<totfact> 0.65551875E+03</totfact>
</mgrwt>
</event>
<event>
 9    1  0.2031653E-002  0.2741108E+03  0.7818608E-02  0.1098950E+00
         -2   -1    0    0    0  501 -0.00000000000E+00  0.00000000000E+00  0.11104159960E+02  0.11104159960E+02  0.00000000000E+00 0. -1.
          2   -1    0    0  501    0  0.00000000000E+00 -0.00000000000E+00 -0.16916343287E+04  0.16916343287E+04  0.00000000000E+00 0. -1.
         36    2    1    2    0    0  0.00000000000E+00 -0.71054273576E-14 -0.16805301687E+04  0.17027384887E+04  0.27411076724E+03 0.  0.
         25    2    3    3    0    0 -0.16922805846E+01  0.43986288822E+02 -0.61516500475E+03  0.62913912936E+03  0.12429965247E+03 0.  0.
         25    2    3    3    0    0  0.16922805846E+01 -0.43986288822E+02 -0.10653651640E+04  0.10735993593E+04  0.12519981720E+03 0.  0.
          5    1    4    4  502    0  0.51165104383E+02  0.56801269649E+02 -0.39010297233E+03  0.39755084098E+03  0.47000000000E+01 0. -1.
         -5    1    4    4    0  502 -0.52857384968E+02 -0.12814980827E+02 -0.22506203242E+03  0.23158828838E+03  0.47000000000E+01 0. -1.
          5    1    5    5  503    0  0.45429947640E+02  0.11270786065E+01 -0.17038237320E+03  0.17640122887E+03  0.47000000000E+01 0.  1.
         -5    1    5    5    0  503 -0.43737667056E+02 -0.45113367428E+02 -0.89498279079E+03  0.89719813043E+03  0.47000000000E+01 0.  1.
<mgrwt>
<rscale>  0 0.27411077E+03</rscale>
<asrwt>0</asrwt>
<pdfrwt beam="1">  1        2 0.26025145E+00 0.27411077E+03</pdfrwt>
<pdfrwt beam="2">  1       -2 0.17083322E-02 0.27411077E+03</pdfrwt>
<totfact> 0.10520872E+04</totfact>
</mgrwt>
</event>
<event>
 9    1  0.2031653E-002  0.2799711E+03  0.7818608E-02  0.1095705E+00
         -2   -1    0    0    0  501 -0.00000000000E+00  0.00000000000E+00  0.72827825623E+02  0.72827825623E+02  0.00000000000E+00 0. -1.
          2   -1    0    0  501    0  0.00000000000E+00 -0.00000000000E+00 -0.26907231092E+03  0.26907231092E+03  0.00000000000E+00 0. -1.
         36    2    1    2    0    0  0.00000000000E+00 -0.71054273576E-14 -0.19624448529E+03  0.34190013654E+03  0.27997107950E+03 0.  0.
         25    2    3    3    0    0  0.31110671765E+02 -0.42967099613E+02 -0.76669678402E+02  0.15993161777E+03  0.12994551638E+03 0.  0.
         25    2    3    3    0    0 -0.31110671765E+02  0.42967099613E+02 -0.11957480689E+03  0.18196851877E+03  0.12649253668E+03 0.  0.
          5    1    4    4  502    0  0.49624874188E+01 -0.52573624319E+02 -0.10642642901E+03  0.11890032400E+03  0.47000000000E+01 0.  1.
         -5    1    4    4    0  502  0.26148184346E+02  0.96065247066E+01  0.29756750607E+02  0.41031293767E+02  0.47000000000E+01 0.  1.
          5    1    5    5  503    0  0.46423534687E+02  0.12457900982E+02 -0.20596996417E+02  0.52504001096E+02  0.47000000000E+01 0.  1.
         -5    1    5    5    0  503 -0.77534206452E+02  0.30509198631E+02 -0.98977810475E+02  0.12946451768E+03  0.47000000000E+01 0.  1.
<mgrwt>
<rscale>  0 0.27997108E+03</rscale>
<asrwt>0</asrwt>
<pdfrwt beam="1">  1        2 0.41395739E-01 0.27997108E+03</pdfrwt>
<pdfrwt beam="2">  1       -2 0.11204281E-01 0.27997108E+03</pdfrwt>
<totfact> 0.67578417E+03</totfact>
</mgrwt>
</event>
<event>
 9    1  0.2031653E-002  0.2725630E+03  0.7818608E-02  0.1099822E+00
         -2   -1    0    0    0  501 -0.00000000000E+00  0.00000000000E+00  0.21695816026E+03  0.21695816026E+03  0.00000000000E+00 0.  1.
          2   -1    0    0  501    0  0.00000000000E+00 -0.00000000000E+00 -0.85604727356E+02  0.85604727356E+02  0.00000000000E+00 0.  1.
         36    2    1    2    0    0  0.71054273576E-14 -0.35527136788E-14  0.13135343291E+03  0.30256288762E+03  0.27256297736E+03 0.  0.
         25    2    3    3    0    0 -0.28047152253E+02 -0.10292284654E+02  0.91274023475E+02  0.15553084495E+03  0.12233692205E+03 0.  0.
         25    2    3    3    0    0  0.28047152253E+02  0.10292284654E+02  0.40079409432E+02  0.14703204267E+03  0.13827323905E+03 0.  0.
          5    1    4    4  502    0  0.20888991240E+02  0.42800646067E+02  0.14439712272E+02  0.49988404148E+02  0.47000000000E+01 0. -1.
         -5    1    4    4    0  502 -0.48936143493E+02 -0.53092930720E+02  0.76834311203E+02  0.10554244080E+03  0.47000000000E+01 0. -1.
          5    1    5    5  503    0  0.72292261308E+02 -0.27618959059E+02  0.25624898505E+01  0.77573412319E+02  0.47000000000E+01 0.  1.
         -5    1    5    5    0  503 -0.44245109055E+02  0.37911243713E+02  0.37516919581E+02  0.69458630350E+02  0.47000000000E+01 0.  1.
<mgrwt>
<rscale>  0 0.27256298E+03</rscale>
<asrwt>0</asrwt>
<pdfrwt beam="1">  1        2 0.13169958E-01 0.27256298E+03</pdfrwt>
<pdfrwt beam="2">  1       -2 0.33378178E-01 0.27256298E+03</pdfrwt>
<totfact> 0.38066324E+03</totfact>
</mgrwt>
</event>
<event>
 9    1  0.2031653E-002  0.2746149E+03  0.7818608E-02  0.1098667E+00
         -2   -1    0    0    0  501 -0.00000000000E+00  0.00000000000E+00  0.21793466635E+02  0.21793466635E+02  0.00000000000E+00 0.  1.
          2   -1    0    0  501    0  0.00000000000E+00 -0.00000000000E+00 -0.86509117025E+03  0.86509117025E+03  0.00000000000E+00 0.  1.
         36    2    1    2    0    0  0.00000000000E+00 -0.71054273576E-14 -0.84329770362E+03  0.88688463689E+03  0.27461489803E+03 0.  0.
         25    2    3    3    0    0 -0.24138266400E+02  0.56135303224E+02 -0.43776391691E+03  0.45955400155E+03  0.12577283177E+03 0.  0.
         25    2    3    3    0    0  0.24138266400E+02 -0.56135303224E+02 -0.40553378670E+03  0.42733063534E+03  0.12008326932E+03 0.  0.
          5    1    4    4  502    0 -0.69515890571E+02  0.29082068365E+02 -0.16191907644E+03  0.17865638264E+03  0.47000000000E+01 0. -1.
         -5    1    4    4    0  502  0.45377624171E+02  0.27053234858E+02 -0.27584484047E+03  0.28089761890E+03  0.47000000000E+01 0. -1.
          5    1    5    5  503    0  0.24531279891E+02 -0.90194762288E+02 -0.34743484253E+03  0.35981931388E+03  0.47000000000E+01 0.  1.
         -5    1    5    5    0  503 -0.39301349120E+00  0.34059459064E+02 -0.58098944169E+02  0.67511321457E+02  0.47000000000E+01 0.  1.
<mgrwt>
<rscale>  0 0.27461490E+03</rscale>
<asrwt>0</asrwt>
<pdfrwt beam="1">  1        2 0.13309093E+00 0.27461490E+03</pdfrwt>
<pdfrwt beam="2">  1       -2 0.33528415E-02 0.27461490E+03</pdfrwt>
<totfact> 0.11448940E+04</totfact>
</mgrwt>
</event>
<event>
 9    1  0.2031653E-002  0.2762940E+03  0.7818608E-02  0.1097730E+00
         -4   -1    0    0    0  501 -0.00000000000E+00  0.00000000000E+00  0.14908165699E+02  0.14908165699E+02  0.00000000000E+00 0. -1.
          4   -1    0    0  501    0  0.00000000000E+00 -0.00000000000E+00 -0.12801440333E+04  0.12801440333E+04  0.00000000000E+00 0. -1.
         36    2    1    2    0    0  0.00000000000E+00  0.00000000000E+00 -0.12652358676E+04  0.12950521990E+04  0.27629404168E+03 0.  0.
         25    2    3    3    0    0  0.18488477506E+02  0.53031146072E+02 -0.57709224344E+03  0.59317882623E+03  0.12518600637E+03 0.  0.
         25    2    3    3    0    0 -0.18488477506E+02 -0.53031146072E+02 -0.68814362413E+03  0.70187337274E+03  0.12621591690E+03 0.  0.
          5    1    4    4  502    0 -0.53611093591E+02  0.20973744757E+02 -0.22149225597E+03  0.22889944687E+03  0.47000000000E+01 0.  1.
         -5    1    4    4    0  502  0.72099571097E+02  0.32057401316E+02 -0.35559998748E+03  0.36427937936E+03  0.47000000000E+01 0.  1.
          5    1    5    5  503    0 -0.39610946639E+02 -0.68300432158E+02 -0.65348524775E+03  0.65825453675E+03  0.47000000000E+01 0. -1.
         -5    1    5    5    0  503  0.21122469132E+02  0.15269286086E+02 -0.34658376375E+02  0.43618835986E+02  0.47000000000E+01 0. -1.
<mgrwt>
<rscale>  0 0.27629404E+03</rscale>
<asrwt>0</asrwt>
<pdfrwt beam="1">  1        4 0.19694518E+00 0.27629404E+03</pdfrwt>
<pdfrwt beam="2">  1       -4 0.22935646E-02 0.27629404E+03</pdfrwt>
<totfact> 0.23139228E+02</totfact>
</mgrwt>
</event>
<event>
 9    1  0.2031653E-002  0.2741259E+03  0.7818608E-02  0.1098941E+00
         -2   -1    0    0    0  501 -0.00000000000E+00  0.00000000000E+00  0.23736311637E+03  0.23736311637E+03  0.00000000000E+00 0.  1.
          2   -1    0    0  501    0  0.00000000000E+00 -0.00000000000E+00 -0.79145633536E+02  0.79145633536E+02  0.00000000000E+00 0.  1.
         36    2    1    2    0    0  0.14210854715E-13  0.00000000000E+00  0.15821748284E+03  0.31650874991E+03  0.27412591430E+03 0.  0.
         25    2    3    3    0    0 -0.55545512659E+02 -0.11257342129E+02  0.69569505464E+02  0.15323119670E+03  0.12420890397E+03 0.  0.
         25    2    3    3    0    0  0.55545512659E+02  0.11257342129E+02  0.88647977372E+02  0.16327755320E+03  0.12485617229E+03 0.  0.
          5    1    4    4  502    0  0.24304339433E+01 -0.33445502743E+02 -0.23530616667E+02  0.41234555698E+02  0.47000000000E+01 0.  1.
         -5    1    4    4    0  502 -0.57975946602E+02  0.22188160613E+02  0.93100122132E+02  0.11199664101E+03  0.47000000000E+01 0.  1.
          5    1    5    5  503    0  0.11615566987E+02 -0.45569586583E+02 -0.22694896858E+01  0.47315422446E+02  0.47000000000E+01 0.  1.
         -5    1    5    5    0  503  0.43929945672E+02  0.56826928713E+02  0.90917467057E+02  0.11596213076E+03  0.47000000000E+01 0.  1.
<mgrwt>
<rscale>  0 0.27412591E+03</rscale>
<asrwt>0</asrwt>
<pdfrwt beam="1">  1        2 0.12176251E-01 0.27412591E+03</pdfrwt>
<pdfrwt beam="2">  1       -2 0.36517402E-01 0.27412591E+03</pdfrwt>
<totfact> 0.35407219E+03</totfact>
</mgrwt>
</event>
<event>
 9    1  0.2031653E-002  0.2749880E+03  0.7818608E-02  0.1098458E+00
          1   -1    0    0  501    0  0.00000000000E+00  0.00000000000E+00  0.27860744217E+03  0.27860744217E+03  0.00000000000E+00 0. -1.
         -1   -1    0    0    0  501 -0.00000000000E+00 -0.00000000000E+00 -0.67853919120E+02  0.67853919120E+02  0.00000000000E+00 0. -1.
         36    2    1    2    0    0  0.00000000000E+00  0.00000000000E+00  0.21075352305E+03  0.34646136129E+03  0.27498804954E+03 0.  0.
         25    2    3    3    0    0 -0.45356178907E+02  0.42744285239E+02  0.63805462044E+02  0.15126076166E+03  0.12216556040E+03 0.  0.
         25    2    3    3    0    0  0.45356178907E+02 -0.42744285239E+02  0.14694806100E+03  0.19520059962E+03  0.11236229161E+03 0.  0.
          5    1    4    4  502    0  0.14405292587E+01  0.22512557993E+02 -0.33878588575E+02  0.40972419453E+02  0.47000000000E+01 0.  1.
         -5    1    4    4    0  502 -0.46796708165E+02  0.20231727246E+02  0.97684050619E+02  0.11028834221E+03  0.47000000000E+01 0.  1.
          5    1    5    5  503    0  0.66744896949E+02 -0.28618923450E+02  0.15212148782E+03  0.16863262171E+03  0.47000000000E+01 0. -1.
         -5    1    5    5    0  503 -0.21388718042E+02 -0.14125361789E+02 -0.51734268209E+01  0.26567977910E+02  0.47000000000E+01 0. -1.
<mgrwt>
<rscale>  0 0.27498805E+03</rscale>
<asrwt>0</asrwt>
<pdfrwt beam="1">  1        1 0.42862683E-01 0.27498805E+03</pdfrwt>
<pdfrwt beam="2">  1       -1 0.10439065E-01 0.27498805E+03</pdfrwt>
<totfact> 0.54497152E+03</totfact>
</mgrwt>
</event>
<event>
 9    1  0.2031653E-002  0.2750754E+03  0.7818608E-02  0.1098409E+00
          1   -1    0    0  501    0  0.00000000000E+00  0.00000000000E+00  0.65103499352E+03  0.65103499352E+03  0.00000000000E+00 0.  1.
         -1   -1    0    0    0  501 -0.00000000000E+00 -0.00000000000E+00 -0.29056227382E+02  0.29056227382E+02  0.00000000000E+00 0.  1.
         36    2    1    2    0    0  0.00000000000E+00  0.00000000000E+00  0.62197876614E+03  0.68009122090E+03  0.27507541370E+03 0.  0.
         25    2    3    3    0    0 -0.37600044544E+02  0.28597782001E+02  0.23301586138E+03  0.26840919022E+03  0.12456125103E+03 0.  0.
         25    2    3    3    0    0  0.37600044544E+02 -0.28597782001E+02  0.38896290476E+03  0.41168203068E+03  0.12632638923E+03 0.  0.
          5    1    4    4  502    0 -0.27058741216E+02  0.41825897749E+02  0.24307806194E+03  0.24817456638E+03  0.47000000000E+01 0.  1.
         -5    1    4    4    0  502 -0.10541303328E+02 -0.13228115747E+02 -0.10062200565E+02  0.20234623848E+02  0.47000000000E+01 0.  1.
          5    1    5    5  503    0  0.39742313740E+02 -0.32934481761E+02  0.39746489038E+03  0.40082984005E+03  0.47000000000E+01 0.  1.
         -5    1    5    5    0  503 -0.21422691966E+01  0.43366997597E+01 -0.85019856139E+01  0.10852190631E+02  0.47000000000E+01 0.  1.
<mgrwt>
<rscale>  0 0.27507541E+03</rscale>
<asrwt>0</asrwt>
<pdfrwt beam="1">  1        1 0.10015922E+00 0.27507541E+03</pdfrwt>
<pdfrwt beam="2">  1       -1 0.44701893E-02 0.27507541E+03</pdfrwt>
<totfact> 0.65026924E+03</totfact>
</mgrwt>
</event>
<event>
 9    1  0.2031653E-002  0.2769720E+03  0.7818608E-02  0.1097354E+00
         -1   -1    0    0    0  501 -0.00000000000E+00  0.00000000000E+00  0.17346944625E+02  0.17346944625E+02  0.00000000000E+00 0.  1.
          1   -1    0    0  501    0  0.00000000000E+00 -0.00000000000E+00 -0.11055765057E+04  0.11055765057E+04  0.00000000000E+00 0.  1.
         36    2    1    2    0    0 -0.17763568394E-14  0.00000000000E+00 -0.10882295611E+04  0.11229234503E+04  0.27697201608E+03 0.  0.
         25    2    3    3    0    0  0.14315448682E+02 -0.57290616115E+02 -0.55085015092E+03  0.56838753073E+03  0.12704861100E+03 0.  0.
         25    2    3    3    0    0 -0.14315448682E+02  0.57290616115E+02 -0.53737941017E+03  0.55453591961E+03  0.12347594460E+03 0.  0.
          5    1    4    4  502    0  0.32560082204E+02 -0.70178072960E+02 -0.53503029059E+03  0.54061504116E+03  0.47000000000E+01 0.  1.
         -5    1    4    4    0  502 -0.18244633522E+02  0.12887456845E+02 -0.15819860328E+02  0.27772489573E+02  0.47000000000E+01 0.  1.
          5    1    5    5  503    0 -0.10937696515E+02  0.35785673743E+02 -0.52960737793E+03  0.53094850260E+03  0.47000000000E+01 0. -1.
         -5    1    5    5    0  503 -0.33777521676E+01  0.21504942372E+02 -0.77720322404E+01  0.23587417012E+02  0.47000000000E+01 0. -1.
<mgrwt>
<rscale>  0 0.27697202E+03</rscale>
<asrwt>0</asrwt>
<pdfrwt beam="1">  1        1 0.17008874E+00 0.27697202E+03</pdfrwt>
<pdfrwt beam="2">  1       -1 0.26687600E-02 0.27697202E+03</pdfrwt>
<totfact> 0.59940196E+03</totfact>
</mgrwt>
</event>
<event>
 9    1  0.2031653E-002  0.2743210E+03  0.7818608E-02  0.1098832E+00
         -1   -1    0    0    0  501 -0.00000000000E+00  0.00000000000E+00  0.54359582045E+02  0.54359582045E+02  0.00000000000E+00 0. -1.
          1   -1    0    0  501    0  0.00000000000E+00 -0.00000000000E+00 -0.34608433341E+03  0.34608433341E+03  0.00000000000E+00 0. -1.
         36    2    1    2    0    0  0.35527136788E-14  0.35527136788E-14 -0.29172475136E+03  0.40044391545E+03  0.27432097781E+03 0.  0.
         25    2    3    3    0    0 -0.18866792151E+02 -0.14695385547E+02 -0.22219646710E+03  0.25664777173E+03  0.12619389264E+03 0.  0.
         25    2    3    3    0    0  0.18866792151E+02  0.14695385547E+02 -0.69528284263E+02  0.14379614372E+03  0.12357685234E+03 0.  0.
          5    1    4    4  502    0 -0.23912500689E+02  0.25482084990E+02 -0.21161435989E+03  0.21453174976E+03  0.47000000000E+01 0. -1.
         -5    1    4    4    0  502  0.50457085383E+01 -0.40177470537E+02 -0.10582107211E+02  0.42116021968E+02  0.47000000000E+01 0. -1.
          5    1    5    5  503    0  0.31346834784E+02  0.38738497043E+02  0.17112036109E+02  0.52898081099E+02  0.47000000000E+01 0.  1.
         -5    1    5    5    0  503 -0.12480042633E+02 -0.24043111496E+02 -0.86640320372E+02  0.90898062623E+02  0.47000000000E+01 0.  1.
<mgrwt>
<rscale>  0 0.27432098E+03</rscale>
<asrwt>0</asrwt>
<pdfrwt beam="1">  1        1 0.53243744E-01 0.27432098E+03</pdfrwt>
<pdfrwt beam="2">  1       -1 0.83630126E-02 0.27432098E+03</pdfrwt>
<totfact> 0.58337000E+03</totfact>
</mgrwt>
</event>
<event>
 9    1  0.2031653E-002  0.2747802E+03  0.7818608E-02  0.1098574E+00
          2   -1    0    0  501    0  0.00000000000E+00  0.00000000000E+00  0.34300549201E+03  0.34300549201E+03  0.00000000000E+00 0.  1.
         -2   -1    0    0    0  501 -0.00000000000E+00 -0.00000000000E+00 -0.55031324055E+02  0.55031324055E+02  0.00000000000E+00 0.  1.
         36    2    1    2    0    0 -0.71054273576E-14  0.00000000000E+00  0.28797416796E+03  0.39803681607E+03  0.27478024953E+03 0.  0.
         25    2    3    3    0    0 -0.36746090415E+02  0.37970198821E+02  0.10896784584E+03  0.17367200584E+03  0.12448278205E+03 0.  0.
         25    2    3    3    0    0  0.36746090415E+02 -0.37970198821E+02  0.17900632212E+03  0.22436481023E+03  0.12451623809E+03 0.  0.
          5    1    4    4  502    0 -0.52964519890E+02  0.62854868951E+02  0.27451043592E+02  0.86784933672E+02  0.47000000000E+01 0.  1.
         -5    1    4    4    0  502  0.16218429475E+02 -0.24884670130E+02  0.81516802245E+02  0.86887072171E+02  0.47000000000E+01 0.  1.
          5    1    5    5  503    0  0.46490173782E+02 -0.76916430053E+02  0.93446392238E+02  0.12973739512E+03  0.47000000000E+01 0.  1.
         -5    1    5    5    0  503 -0.97440833671E+01  0.38946231232E+02  0.85559929885E+02  0.94627415106E+02  0.47000000000E+01 0.  1.
<mgrwt>
<rscale>  0 0.27478025E+03</rscale>
<asrwt>0</asrwt>
<pdfrwt beam="1">  1        2 0.52770074E-01 0.27478025E+03</pdfrwt>
<pdfrwt beam="2">  1       -2 0.84663577E-02 0.27478025E+03</pdfrwt>
<totfact> 0.81109833E+03</totfact>
</mgrwt>
</event>
<event>
 9    1  0.2031653E-002  0.2749157E+03  0.7818608E-02  0.1098499E+00
         -1   -1    0    0    0  501 -0.00000000000E+00  0.00000000000E+00  0.17910506355E+02  0.17910506355E+02  0.00000000000E+00 0.  1.
          1   -1    0    0  501    0  0.00000000000E+00 -0.00000000000E+00 -0.10549484671E+04  0.10549484671E+04  0.00000000000E+00 0.  1.
         36    2    1    2    0    0  0.00000000000E+00  0.00000000000E+00 -0.10370379607E+04  0.10728589734E+04  0.27491570507E+03 0.  0.
         25    2    3    3    0    0  0.26121208423E+02  0.32459849630E+02 -0.60603497221E+03  0.62029630731E+03  0.12551160087E+03 0.  0.
         25    2    3    3    0    0 -0.26121208423E+02 -0.32459849630E+02 -0.43100298850E+03  0.45256266611E+03  0.13158051259E+03 0.  0.
          5    1    4    4  502    0  0.12055825256E+01  0.59815685558E+02 -0.54821253373E+03  0.55148748110E+03  0.47000000000E+01 0.  1.
         -5    1    4    4    0  502  0.24915625897E+02 -0.27355835927E+02 -0.57822438482E+02  0.68808826216E+02  0.47000000000E+01 0.  1.
          5    1    5    5  503    0 -0.69710392873E+02  0.15998813618E+02 -0.25240083252E+03  0.26238096572E+03  0.47000000000E+01 0. -1.
         -5    1    5    5    0  503  0.43589184450E+02 -0.48458663248E+02 -0.17860215598E+03  0.19018170040E+03  0.47000000000E+01 0. -1.
<mgrwt>
<rscale>  0 0.27491571E+03</rscale>
<asrwt>0</asrwt>
<pdfrwt beam="1">  1        1 0.16229971E+00 0.27491571E+03</pdfrwt>
<pdfrwt beam="2">  1       -1 0.27554634E-02 0.27491571E+03</pdfrwt>
<totfact> 0.62225629E+03</totfact>
</mgrwt>
</event>
<event>
 9    1  0.2031653E-002  0.2752801E+03  0.7818608E-02  0.1098295E+00
          2   -1    0    0  501    0  0.00000000000E+00  0.00000000000E+00  0.17074950046E+04  0.17074950046E+04  0.00000000000E+00 0. -1.
         -2   -1    0    0    0  501 -0.00000000000E+00 -0.00000000000E+00 -0.11095077373E+02  0.11095077373E+02  0.00000000000E+00 0. -1.
         36    2    1    2    0    0  0.35527136788E-14 -0.14210854715E-13  0.16963999272E+04  0.17185900820E+04  0.27528014232E+03 0.  0.
         25    2    3    3    0    0  0.26319681557E+02 -0.47130260397E+02  0.97209534511E+03  0.98153649117E+03  0.12462157291E+03 0.  0.
         25    2    3    3    0    0 -0.26319681557E+02  0.47130260397E+02  0.72430458210E+03  0.73705359078E+03  0.12536698511E+03 0.  0.
          5    1    4    4  502    0  0.50615036365E+02  0.17335537336E+02  0.22783252341E+03  0.23407723401E+03  0.47000000000E+01 0.  1.
         -5    1    4    4    0  502 -0.24295354808E+02 -0.64465797733E+02  0.74426282170E+03  0.74745925716E+03  0.47000000000E+01 0.  1.
          5    1    5    5  503    0  0.62590014230E+01  0.67333439594E+02  0.19699794612E+03  0.20833446177E+03  0.47000000000E+01 0. -1.
         -5    1    5    5    0  503 -0.32578682980E+02 -0.20203179197E+02  0.52730663598E+03  0.52871912901E+03  0.47000000000E+01 0. -1.
<mgrwt>
<rscale>  0 0.27528014E+03</rscale>
<asrwt>0</asrwt>
<pdfrwt beam="1">  1        2 0.26269133E+00 0.27528014E+03</pdfrwt>
<pdfrwt beam="2">  1       -2 0.17069363E-02 0.27528014E+03</pdfrwt>
<totfact> 0.10333576E+04</totfact>
</mgrwt>
</event>
<event>
 9    1  0.2031653E-002  0.2728329E+03  0.7818608E-02  0.1099669E+00
         -2   -1    0    0    0  501 -0.00000000000E+00  0.00000000000E+00  0.31551207454E+02  0.31551207454E+02  0.00000000000E+00 0.  1.
          2   -1    0    0  501    0  0.00000000000E+00 -0.00000000000E+00 -0.58981735940E+03  0.58981735940E+03  0.00000000000E+00 0.  1.
         36    2    1    2    0    0  0.71054273576E-14 -0.71054273576E-14 -0.55826615195E+03  0.62136856686E+03  0.27283291493E+03 0.  0.
         25    2    3    3    0    0 -0.45116639835E+02  0.11076542469E+02 -0.22619783669E+03  0.26291119878E+03  0.12569262564E+03 0.  0.
         25    2    3    3    0    0  0.45116639835E+02 -0.11076542469E+02 -0.33206831526E+03  0.35845736808E+03  0.12674430063E+03 0.  0.
          5    1    4    4  502    0  0.25909538697E+02 -0.35628146908E+02 -0.11220801949E+03  0.12063746800E+03  0.47000000000E+01 0. -1.
         -5    1    4    4    0  502 -0.71026178532E+02  0.46704689377E+02 -0.11398981719E+03  0.14227373078E+03  0.47000000000E+01 0. -1.
          5    1    5    5  503    0  0.22954582917E+02  0.50530235279E+02 -0.76715305234E+02  0.94802666689E+02  0.47000000000E+01 0. -1.
         -5    1    5    5    0  503  0.22162056918E+02 -0.61606777748E+02 -0.25535301003E+03  0.26365470139E+03  0.47000000000E+01 0. -1.
<mgrwt>
<rscale>  0 0.27283291E+03</rscale>
<asrwt>0</asrwt>
<pdfrwt beam="1">  1        2 0.90741141E-01 0.27283291E+03</pdfrwt>
<pdfrwt beam="2">  1       -2 0.48540314E-02 0.27283291E+03</pdfrwt>
<totfact> 0.10490432E+04</totfact>
</mgrwt>
</event>
<event>
 9    1  0.2031653E-002  0.2751349E+03  0.7818608E-02  0.1098376E+00
          4   -1    0    0  501    0  0.00000000000E+00  0.00000000000E+00  0.58930305013E+02  0.58930305013E+02  0.00000000000E+00 0. -1.
         -4   -1    0    0    0  501 -0.00000000000E+00 -0.00000000000E+00 -0.32113874390E+03  0.32113874390E+03  0.00000000000E+00 0. -1.
         36    2    1    2    0    0  0.00000000000E+00  0.00000000000E+00 -0.26220843889E+03  0.38006904891E+03  0.27513490603E+03 0.  0.
         25    2    3    3    0    0  0.52870850954E+02  0.12066710047E+02 -0.16747017875E+03  0.21514403912E+03  0.12369221652E+03 0.  0.
         25    2    3    3    0    0 -0.52870850954E+02 -0.12066710047E+02 -0.94738260139E+02  0.16492500979E+03  0.12362842937E+03 0.  0.
          5    1    4    4  502    0  0.87763260854E+02  0.92037102309E+01 -0.15357651220E+03  0.17718615448E+03  0.47000000000E+01 0. -1.
         -5    1    4    4    0  502 -0.34892409900E+02  0.28629998166E+01 -0.13893666545E+02  0.37957884644E+02  0.47000000000E+01 0. -1.
          5    1    5    5  503    0 -0.27466304642E+02  0.35939067114E+02  0.10258236989E+02  0.46619050418E+02  0.47000000000E+01 0. -1.
         -5    1    5    5    0  503 -0.25404546312E+02 -0.48005777162E+02 -0.10499649713E+03  0.11830595937E+03  0.47000000000E+01 0. -1.
<mgrwt>
<rscale>  0 0.27513491E+03</rscale>
<asrwt>0</asrwt>
<pdfrwt beam="1">  1        4 0.90662009E-02 0.27513491E+03</pdfrwt>
<pdfrwt beam="2">  1       -4 0.49405960E-01 0.27513491E+03</pdfrwt>
<totfact> 0.66725977E+02</totfact>
</mgrwt>
</event>
<event>
 9    1  0.2031653E-002  0.2753949E+03  0.7818608E-02  0.1098231E+00
          2   -1    0    0  501    0  0.00000000000E+00  0.00000000000E+00  0.45547683513E+02  0.45547683513E+02  0.00000000000E+00 0. -1.
         -2   -1    0    0    0  501 -0.00000000000E+00 -0.00000000000E+00 -0.41628000414E+03  0.41628000414E+03  0.00000000000E+00 0. -1.
         36    2    1    2    0    0  0.00000000000E+00  0.35527136788E-14 -0.37073232062E+03  0.46182768765E+03  0.27539491558E+03 0.  0.
         25    2    3    3    0    0  0.39828092095E+02 -0.80002739754E+01 -0.11813514537E+03  0.17556522090E+03  0.12335701404E+03 0.  0.
         25    2    3    3    0    0 -0.39828092095E+02  0.80002739754E+01 -0.25259717525E+03  0.28626246675E+03  0.12841567514E+03 0.  0.
          5    1    4    4  502    0 -0.94200696939E+01 -0.50046430470E+02 -0.92628670718E+02  0.10580899562E+03  0.47000000000E+01 0. -1.
         -5    1    4    4    0  502  0.49248161789E+02  0.42046156495E+02 -0.25506474654E+02  0.69756225277E+02  0.47000000000E+01 0. -1.
          5    1    5    5  503    0 -0.44073083179E+02 -0.18450261014E+02 -0.19882738095E+02  0.51964045903E+02  0.47000000000E+01 0.  1.
         -5    1    5    5    0  503  0.42449910842E+01  0.26450534989E+02 -0.23271443716E+03  0.23429842085E+03  0.47000000000E+01 0.  1.
<mgrwt>
<rscale>  0 0.27539492E+03</rscale>
<asrwt>0</asrwt>
<pdfrwt beam="1">  1        2 0.70073362E-02 0.27539492E+03</pdfrwt>
<pdfrwt beam="2">  1       -2 0.64043075E-01 0.27539492E+03</pdfrwt>
<totfact> 0.23204769E+03</totfact>
</mgrwt>
</event>
<event>
 9    1  0.2031653E-002  0.2753422E+03  0.7818608E-02  0.1098260E+00
         -2   -1    0    0    0  501 -0.00000000000E+00  0.00000000000E+00  0.16087016870E+02  0.16087016870E+02  0.00000000000E+00 0. -1.
          2   -1    0    0  501    0  0.00000000000E+00 -0.00000000000E+00 -0.11781756537E+04  0.11781756537E+04  0.00000000000E+00 0. -1.
         36    2    1    2    0    0  0.14210854715E-13 -0.71054273576E-14 -0.11620886369E+04  0.11942626706E+04  0.27534219885E+03 0.  0.
         25    2    3    3    0    0 -0.52521651212E+02  0.29734596003E+02 -0.61496838115E+03  0.62971584882E+03  0.12129827037E+03 0.  0.
         25    2    3    3    0    0  0.52521651212E+02 -0.29734596003E+02 -0.54712025573E+03  0.56454682180E+03  0.12541877742E+03 0.  0.
          5    1    4    4  502    0 -0.30170149143E+02  0.50336162191E+02 -0.11872875926E+03  0.13252386728E+03  0.47000000000E+01 0.  1.
         -5    1    4    4    0  502 -0.22351502070E+02 -0.20601566188E+02 -0.49623962188E+03  0.49719198153E+03  0.47000000000E+01 0.  1.
          5    1    5    5  503    0  0.93107413239E+02 -0.25277631841E+02 -0.41928143557E+03  0.43026382753E+03  0.47000000000E+01 0.  1.
         -5    1    5    5    0  503 -0.40585762027E+02 -0.44569641617E+01 -0.12783882017E+03  0.13428299427E+03  0.47000000000E+01 0.  1.
<mgrwt>
<rscale>  0 0.27534220E+03</rscale>
<asrwt>0</asrwt>
<pdfrwt beam="1">  1        2 0.18125782E+00 0.27534220E+03</pdfrwt>
<pdfrwt beam="2">  1       -2 0.24749253E-02 0.27534220E+03</pdfrwt>
<totfact> 0.11585402E+04</totfact>
</mgrwt>
</event>
<event>
 9    1  0.2031653E-002  0.2849687E+03  0.7818608E-02  0.1093006E+00
         -3   -1    0    0    0  501 -0.00000000000E+00  0.00000000000E+00  0.12455510037E+02  0.12455510037E+02  0.00000000000E+00 0.  1.
          3   -1    0    0  501    0  0.00000000000E+00 -0.00000000000E+00 -0.16299440092E+04  0.16299440092E+04  0.00000000000E+00 0.  1.
         36    2    1    2    0    0  0.00000000000E+00  0.00000000000E+00 -0.16174884992E+04  0.16423995192E+04  0.28496865769E+03 0.  0.
         25    2    3    3    0    0 -0.68110597332E+02 -0.91206495090E+01 -0.79440070941E+03  0.80710952777E+03  0.12502424966E+03 0.  0.
         25    2    3    3    0    0  0.68110597332E+02  0.91206495090E+01 -0.82308778975E+03  0.83528999146E+03  0.12455368511E+03 0.  0.
          5    1    4    4  502    0 -0.46148642548E+02 -0.65693802095E+01 -0.77743946423E+03  0.77884983438E+03  0.47000000000E+01 0.  1.
         -5    1    4    4    0  502 -0.21961954784E+02 -0.25512692995E+01 -0.16961245172E+02  0.28259693395E+02  0.47000000000E+01 0.  1.
          5    1    5    5  503    0  0.33092583329E+02 -0.12251077424E+02 -0.51546814646E+02  0.62644808800E+02  0.47000000000E+01 0.  1.
         -5    1    5    5    0  503  0.35018014003E+02  0.21371726933E+02 -0.77154097511E+03  0.77264518266E+03  0.47000000000E+01 0.  1.
<mgrwt>
<rscale>  0 0.28496866E+03</rscale>
<asrwt>0</asrwt>
<pdfrwt beam="1">  1        3 0.25076041E+00 0.28496866E+03</pdfrwt>
<pdfrwt beam="2">  1       -3 0.19162339E-02 0.28496866E+03</pdfrwt>
<totfact> 0.21155284E+02</totfact>
</mgrwt>
</event>
<event>
 9    1  0.2031653E-002  0.2751743E+03  0.7818608E-02  0.1098354E+00
          2   -1    0    0  501    0  0.00000000000E+00  0.00000000000E+00  0.57974893016E+03  0.57974893016E+03  0.00000000000E+00 0.  1.
         -2   -1    0    0    0  501 -0.00000000000E+00 -0.00000000000E+00 -0.32652451651E+02  0.32652451651E+02  0.00000000000E+00 0.  1.
         36    2    1    2    0    0  0.71054273576E-14  0.14210854715E-13  0.54709647851E+03  0.61240138181E+03  0.27517430048E+03 0.  0.
         25    2    3    3    0    0  0.30657854102E+02  0.45129380854E+02  0.28448705742E+03  0.31257157458E+03  0.11743738061E+03 0.  0.
         25    2    3    3    0    0 -0.30657854102E+02 -0.45129380854E+02  0.26260942109E+03  0.29982980723E+03  0.13400612009E+03 0.  0.
          5    1    4    4  502    0 -0.18859896631E+02 -0.21977500912E+02  0.20784350086E+02  0.35955325834E+02  0.47000000000E+01 0. -1.
         -5    1    4    4    0  502  0.49517750733E+02  0.67106881767E+02  0.26370270733E+03  0.27661624875E+03  0.47000000000E+01 0. -1.
          5    1    5    5  503    0  0.30277426112E+01  0.35914957921E+02  0.19345819947E+02  0.41175261714E+02  0.47000000000E+01 0.  1.
         -5    1    5    5    0  503 -0.33685596713E+02 -0.81044338775E+02  0.24326360114E+03  0.25865454551E+03  0.47000000000E+01 0.  1.
<mgrwt>
<rscale>  0 0.27517430E+03</rscale>
<asrwt>0</asrwt>
<pdfrwt beam="1">  1        2 0.89192136E-01 0.27517430E+03</pdfrwt>
<pdfrwt beam="2">  1       -2 0.50234545E-02 0.27517430E+03</pdfrwt>
<totfact> 0.10161048E+04</totfact>
</mgrwt>
</event>
<event>
 9    1  0.2031653E-002  0.2696179E+03  0.7818608E-02  0.1101498E+00
          2   -1    0    0  501    0  0.00000000000E+00  0.00000000000E+00  0.14465385083E+04  0.14465385083E+04  0.00000000000E+00 0.  1.
         -2   -1    0    0    0  501 -0.00000000000E+00 -0.00000000000E+00 -0.12563409054E+02  0.12563409054E+02  0.00000000000E+00 0.  1.
         36    2    1    2    0    0  0.00000000000E+00  0.71054273576E-14  0.14339750992E+04  0.14591019174E+04  0.26961791477E+03 0.  0.
         25    2    3    3    0    0  0.47794482364E+02 -0.11612233476E+02  0.74953042418E+03  0.76120189675E+03  0.12334226503E+03 0.  0.
         25    2    3    3    0    0 -0.47794482364E+02  0.11612233476E+02  0.68444467507E+03  0.69790002060E+03  0.12720365173E+03 0.  0.
          5    1    4    4  502    0 -0.16889471097E+02 -0.50977644392E+02  0.39370225117E+03  0.39737580077E+03  0.47000000000E+01 0. -1.
         -5    1    4    4    0  502  0.64683953461E+02  0.39365410915E+02  0.35582817300E+03  0.36382609598E+03  0.47000000000E+01 0. -1.
          5    1    5    5  503    0  0.24116849919E+02 -0.32363007549E+02  0.37332254054E+03  0.37552735717E+03  0.47000000000E+01 0.  1.
         -5    1    5    5    0  503 -0.71911332283E+02  0.43975241025E+02  0.31112213453E+03  0.32237266343E+03  0.47000000000E+01 0.  1.
<mgrwt>
<rscale>  0 0.26961791E+03</rscale>
<asrwt>0</asrwt>
<pdfrwt beam="1">  1        2 0.22254425E+00 0.26961791E+03</pdfrwt>
<pdfrwt beam="2">  1       -2 0.19328333E-02 0.26961791E+03</pdfrwt>
<totfact> 0.11844484E+04</totfact>
</mgrwt>
</event>
<event>
 9    1  0.2031653E-002  0.2754476E+03  0.7818608E-02  0.1098202E+00
         -1   -1    0    0    0  501 -0.00000000000E+00  0.00000000000E+00  0.26418445636E+02  0.26418445636E+02  0.00000000000E+00 0.  1.
          1   -1    0    0  501    0  0.00000000000E+00 -0.00000000000E+00 -0.71797756101E+03  0.71797756101E+03  0.00000000000E+00 0.  1.
         36    2    1    2    0    0  0.00000000000E+00  0.71054273576E-14 -0.69155911537E+03  0.74439600664E+03  0.27544764412E+03 0.  0.
         25    2    3    3    0    0 -0.16216198784E+02  0.63784338651E+02 -0.39886275853E+03  0.42336580208E+03  0.12576046785E+03 0.  0.
         25    2    3    3    0    0  0.16216198784E+02 -0.63784338651E+02 -0.29269635684E+03  0.32103020456E+03  0.11427085355E+03 0.  0.
          5    1    4    4  502    0 -0.68067522348E+02  0.56625448718E+02 -0.27051218490E+03  0.28467272651E+03  0.47000000000E+01 0. -1.
         -5    1    4    4    0  502  0.51851323563E+02  0.71588899328E+01 -0.12835057363E+03  0.13869307557E+03  0.47000000000E+01 0. -1.
          5    1    5    5  503    0  0.19192580248E+02 -0.68431182844E+02 -0.30140092128E+03  0.30970274017E+03  0.47000000000E+01 0.  1.
         -5    1    5    5    0  503 -0.29763814643E+01  0.46468441933E+01  0.87045644328E+01  0.11327464392E+02  0.47000000000E+01 0.  1.
<mgrwt>
<rscale>  0 0.27544764E+03</rscale>
<asrwt>0</asrwt>
<pdfrwt beam="1">  1        1 0.11045807E+00 0.27544764E+03</pdfrwt>
<pdfrwt beam="2">  1       -1 0.40643769E-02 0.27544764E+03</pdfrwt>
<totfact> 0.65036045E+03</totfact>
</mgrwt>
</event>
<event>
 9    1  0.2031653E-002  0.2736357E+03  0.7818608E-02  0.1099217E+00
         -2   -1    0    0    0  501 -0.00000000000E+00  0.00000000000E+00  0.38366320568E+02  0.38366320568E+02  0.00000000000E+00 0.  1.
          2   -1    0    0  501    0  0.00000000000E+00 -0.00000000000E+00 -0.48790507624E+03  0.48790507624E+03  0.00000000000E+00 0.  1.
         36    2    1    2    0    0  0.00000000000E+00  0.35527136788E-14 -0.44953875567E+03  0.52627139680E+03  0.27363568891E+03 0.  0.
         25    2    3    3    0    0  0.47963950295E+02 -0.98940033752E+01 -0.31829739820E+03  0.34552537663E+03  0.12520431449E+03 0.  0.
         25    2    3    3    0    0 -0.47963950295E+02  0.98940033752E+01 -0.13124135747E+03  0.18074602017E+03  0.11422083027E+03 0.  0.
          5    1    4    4  502    0 -0.12870441126E+02  0.31154087390E+02 -0.22078167589E+03  0.22338948906E+03  0.47000000000E+01 0.  1.
         -5    1    4    4    0  502  0.60834391421E+02 -0.41048090765E+02 -0.97515722310E+02  0.12213588757E+03  0.47000000000E+01 0.  1.
          5    1    5    5  503    0 -0.75109697301E+02  0.37016506507E+02 -0.75080052113E+02  0.11256461526E+03  0.47000000000E+01 0.  1.
         -5    1    5    5    0  503  0.27145747006E+02 -0.27122503132E+02 -0.56161305359E+02  0.68181404916E+02  0.47000000000E+01 0.  1.
<mgrwt>
<rscale>  0 0.27363569E+03</rscale>
<asrwt>0</asrwt>
<pdfrwt beam="1">  1        2 0.75062320E-01 0.27363569E+03</pdfrwt>
<pdfrwt beam="2">  1       -2 0.59025108E-02 0.27363569E+03</pdfrwt>
<totfact> 0.96546879E+03</totfact>
</mgrwt>
</event>
<event>
 9    1  0.2031653E-002  0.2747229E+03  0.7818608E-02  0.1098607E+00
         -2   -1    0    0    0  501 -0.00000000000E+00  0.00000000000E+00  0.17056830767E+02  0.17056830767E+02  0.00000000000E+00 0.  1.
          2   -1    0    0  501    0  0.00000000000E+00 -0.00000000000E+00 -0.11061940603E+04  0.11061940603E+04  0.00000000000E+00 0.  1.
         36    2    1    2    0    0  0.00000000000E+00 -0.14210854715E-13 -0.10891372295E+04  0.11232508910E+04  0.27472287769E+03 0.  0.
         25    2    3    3    0    0  0.15614823925E+02  0.42087848843E+02 -0.38600767005E+03  0.40789958386E+03  0.12395539292E+03 0.  0.
         25    2    3    3    0    0 -0.15614823925E+02 -0.42087848843E+02 -0.70312955946E+03  0.71535130718E+03  0.12377845348E+03 0.  0.
          5    1    4    4  502    0  0.55910168254E+02 -0.18321550428E+02 -0.17808940963E+03  0.18761544165E+03  0.47000000000E+01 0.  1.
         -5    1    4    4    0  502 -0.40295344329E+02  0.60409399271E+02 -0.20791826042E+03  0.22028414221E+03  0.47000000000E+01 0.  1.
          5    1    5    5  503    0  0.49978914908E+02 -0.38003195147E+02 -0.41748660457E+03  0.42220763822E+03  0.47000000000E+01 0. -1.
         -5    1    5    5    0  503 -0.65593738833E+02 -0.40846536968E+01 -0.28564295489E+03  0.29314366895E+03  0.47000000000E+01 0. -1.
<mgrwt>
<rscale>  0 0.27472288E+03</rscale>
<asrwt>0</asrwt>
<pdfrwt beam="1">  1        2 0.17018363E+00 0.27472288E+03</pdfrwt>
<pdfrwt beam="2">  1       -2 0.26241289E-02 0.27472288E+03</pdfrwt>
<totfact> 0.11692314E+04</totfact>
</mgrwt>
</event>
<event>
 9    1  0.2031653E-002  0.2751506E+03  0.7818608E-02  0.1098367E+00
          1   -1    0    0  501    0  0.00000000000E+00  0.00000000000E+00  0.31833614206E+04  0.31833614206E+04  0.00000000000E+00 0.  1.
         -1   -1    0    0    0  501 -0.00000000000E+00 -0.00000000000E+00 -0.59455884023E+01  0.59455884023E+01  0.00000000000E+00 0.  1.
         36    2    1    2    0    0  0.71054273576E-14  0.88817841970E-15  0.31774158322E+04  0.31893070090E+04  0.27515055328E+03 0.  0.
         25    2    3    3    0    0 -0.11328674748E+02 -0.61278384506E+00  0.94532298808E+03  0.95380615953E+03  0.12641963370E+03 0.  0.
         25    2    3    3    0    0  0.11328674748E+02  0.61278384506E+00  0.22320928441E+04  0.22355008495E+04  0.12286931620E+03 0.  0.
          5    1    4    4  502    0  0.55039146859E+02  0.47874552975E+01  0.30368443160E+03  0.30870463458E+03  0.47000000000E+01 0. -1.
         -5    1    4    4    0  502 -0.66367821607E+02 -0.54002391425E+01  0.64163855648E+03  0.64510152495E+03  0.47000000000E+01 0. -1.
          5    1    5    5  503    0  0.57809717499E+02  0.21697180830E+02  0.76102878984E+03  0.76354413105E+03  0.47000000000E+01 0. -1.
         -5    1    5    5    0  503 -0.46481042751E+02 -0.21084396985E+02  0.14710640543E+04  0.14719567184E+04  0.47000000000E+01 0. -1.
<mgrwt>
<rscale>  0 0.27515055E+03</rscale>
<asrwt>0</asrwt>
<pdfrwt beam="1">  1        1 0.48974655E+00 0.27515055E+03</pdfrwt>
<pdfrwt beam="2">  1       -1 0.91470845E-03 0.27515055E+03</pdfrwt>
<totfact> 0.11482726E+03</totfact>
</mgrwt>
</event>
<event>
 9    1  0.2031653E-002  0.2753414E+03  0.7818608E-02  0.1098261E+00
         -2   -1    0    0    0  501 -0.00000000000E+00  0.00000000000E+00  0.68528608352E+02  0.68528608352E+02  0.00000000000E+00 0.  1.
          2   -1    0    0  501    0  0.00000000000E+00 -0.00000000000E+00 -0.27657382038E+03  0.27657382038E+03  0.00000000000E+00 0.  1.
         36    2    1    2    0    0  0.00000000000E+00  0.71054273576E-14 -0.20804521203E+03  0.34510242873E+03  0.27534138096E+03 0.  0.
         25    2    3    3    0    0  0.17631902378E+02  0.29252686605E+02 -0.17045937238E+03  0.21131394909E+03  0.12012736488E+03 0.  0.
         25    2    3    3    0    0 -0.17631902378E+02 -0.29252686605E+02 -0.37585839652E+02  0.13378847964E+03  0.12377422303E+03 0.  0.
          5    1    4    4  502    0  0.46258652482E+02  0.32065135490E+02 -0.17306816095E+03  0.18205140532E+03  0.47000000000E+01 0.  1.
         -5    1    4    4    0  502 -0.28626750104E+02 -0.28124488859E+01  0.26087885717E+01  0.29262543773E+02  0.47000000000E+01 0.  1.
          5    1    5    5  503    0 -0.15914500606E+00 -0.31966770112E+01  0.44980194174E+02  0.45338195145E+02  0.47000000000E+01 0.  1.
         -5    1    5    5    0  503 -0.17472757372E+02 -0.26056009593E+02 -0.82566033826E+02  0.88450284498E+02  0.47000000000E+01 0.  1.
<mgrwt>
<rscale>  0 0.27534138E+03</rscale>
<asrwt>0</asrwt>
<pdfrwt beam="1">  1        2 0.42549818E-01 0.27534138E+03</pdfrwt>
<pdfrwt beam="2">  1       -2 0.10542863E-01 0.27534138E+03</pdfrwt>
<totfact> 0.72274664E+03</totfact>
</mgrwt>
</event>
<event>
 9    1  0.2031653E-002  0.2748705E+03  0.7818608E-02  0.1098524E+00
         -2   -1    0    0    0  501 -0.00000000000E+00  0.00000000000E+00  0.31322187783E+02  0.31322187783E+02  0.00000000000E+00 0.  1.
          2   -1    0    0  501    0  0.00000000000E+00 -0.00000000000E+00 -0.60303715915E+03  0.60303715915E+03  0.00000000000E+00 0.  1.
         36    2    1    2    0    0  0.14210854715E-13  0.00000000000E+00 -0.57171497137E+03  0.63435934693E+03  0.27487046505E+03 0.  0.
         25    2    3    3    0    0 -0.16792914658E+02 -0.16562960568E+02 -0.20314725711E+03  0.24390279799E+03  0.13290384927E+03 0.  0.
         25    2    3    3    0    0  0.16792914658E+02  0.16562960568E+02 -0.36856771426E+03  0.39045654894E+03  0.12671946564E+03 0.  0.
          5    1    4    4  502    0 -0.72764813948E+02  0.86162850960E+01 -0.11124565897E+03  0.13329157947E+03  0.47000000000E+01 0. -1.
         -5    1    4    4    0  502  0.55971899290E+02 -0.25179245664E+02 -0.91901598140E+02  0.11061121852E+03  0.47000000000E+01 0. -1.
          5    1    5    5  503    0 -0.28087591483E+02 -0.44459849898E+02 -0.14056801964E+03  0.15015674874E+03  0.47000000000E+01 0. -1.
         -5    1    5    5    0  503  0.44880506140E+02  0.61022810465E+02 -0.22799969462E+03  0.24029980020E+03  0.47000000000E+01 0. -1.
<mgrwt>
<rscale>  0 0.27487047E+03</rscale>
<asrwt>0</asrwt>
<pdfrwt beam="1">  1        2 0.92774954E-01 0.27487047E+03</pdfrwt>
<pdfrwt beam="2">  1       -2 0.48187978E-02 0.27487047E+03</pdfrwt>
<totfact> 0.10340776E+04</totfact>
</mgrwt>
</event>
<event>
 9    1  0.2031653E-002  0.2748488E+03  0.7818608E-02  0.1098536E+00
          2   -1    0    0  501    0  0.00000000000E+00  0.00000000000E+00  0.25526759605E+04  0.25526759605E+04  0.00000000000E+00 0.  1.
         -2   -1    0    0    0  501 -0.00000000000E+00 -0.00000000000E+00 -0.73983033297E+01  0.73983033297E+01  0.00000000000E+00 0.  1.
         36    2    1    2    0    0  0.00000000000E+00  0.35527136788E-14  0.25452776572E+04  0.25600742639E+04  0.27484883888E+03 0.  0.
         25    2    3    3    0    0 -0.27308849474E+02 -0.28698519872E+02  0.10283128509E+04  0.10365359650E+04  0.12413746014E+03 0.  0.
         25    2    3    3    0    0  0.27308849474E+02  0.28698519872E+02  0.15169648063E+04  0.15235382989E+04  0.13571052422E+03 0.  0.
          5    1    4    4  502    0 -0.65489506648E+02  0.13306839772E+02  0.39243110162E+03  0.39810828550E+03  0.47000000000E+01 0.  1.
         -5    1    4    4    0  502  0.38180657174E+02 -0.42005359644E+02  0.63588174930E+03  0.63842767947E+03  0.47000000000E+01 0.  1.
          5    1    5    5  503    0  0.20209414107E+01 -0.94061738051E+00  0.14029339493E+04  0.14029435930E+04  0.47000000000E+01 0. -1.
         -5    1    5    5    0  503  0.25287908063E+02  0.29639137252E+02  0.11403085699E+03  0.12059470592E+03  0.47000000000E+01 0. -1.
<mgrwt>
<rscale>  0 0.27484884E+03</rscale>
<asrwt>0</asrwt>
<pdfrwt beam="1">  1        2 0.39271868E+00 0.27484884E+03</pdfrwt>
<pdfrwt beam="2">  1       -2 0.11382025E-02 0.27484884E+03</pdfrwt>
<totfact> 0.66253079E+03</totfact>
</mgrwt>
</event>
<event>
 9    1  0.2031653E-002  0.2745807E+03  0.7818608E-02  0.1098686E+00
          1   -1    0    0  501    0  0.00000000000E+00  0.00000000000E+00  0.27510544431E+04  0.27510544431E+04  0.00000000000E+00 0. -1.
         -1   -1    0    0    0  501 -0.00000000000E+00 -0.00000000000E+00 -0.68514238030E+01  0.68514238030E+01  0.00000000000E+00 0. -1.
         36    2    1    2    0    0  0.71054273576E-14  0.00000000000E+00  0.27442030193E+04  0.27579058669E+04  0.27458069775E+03 0.  0.
         25    2    3    3    0    0  0.37981852191E+02  0.34813750980E+02  0.15635642657E+04  0.15695149595E+04  0.12644910731E+03 0.  0.
         25    2    3    3    0    0 -0.37981852191E+02 -0.34813750980E+02  0.11806387536E+04  0.11883909074E+04  0.12534138969E+03 0.  0.
          5    1    4    4  502    0  0.64189870148E+02 -0.25099092455E+02  0.93198677737E+03  0.93454360362E+03  0.47000000000E+01 0.  1.
         -5    1    4    4    0  502 -0.26208017957E+02  0.59912843435E+02  0.63157748832E+03  0.63497135587E+03  0.47000000000E+01 0.  1.
          5    1    5    5  503    0  0.25874981357E+02  0.30742167671E+02  0.49591518314E+03  0.49756261354E+03  0.47000000000E+01 0. -1.
         -5    1    5    5    0  503 -0.63856833548E+02 -0.65555918651E+02  0.68472357043E+03  0.69082829384E+03  0.47000000000E+01 0. -1.
<mgrwt>
<rscale>  0 0.27458070E+03</rscale>
<asrwt>0</asrwt>
<pdfrwt beam="1">  1        1 0.42323826E+00 0.27458070E+03</pdfrwt>
<pdfrwt beam="2">  1       -1 0.10540674E-02 0.27458070E+03</pdfrwt>
<totfact> 0.18734950E+03</totfact>
</mgrwt>
</event>
<event>
 9    1  0.2031653E-002  0.2742475E+03  0.7818608E-02  0.1098873E+00
         -1   -1    0    0    0  501 -0.00000000000E+00  0.00000000000E+00  0.36566957521E+02  0.36566957521E+02  0.00000000000E+00 0.  1.
          1   -1    0    0  501    0  0.00000000000E+00 -0.00000000000E+00 -0.51420513050E+03  0.51420513050E+03  0.00000000000E+00 0.  1.
         36    2    1    2    0    0  0.71054273576E-14  0.00000000000E+00 -0.47763817298E+03  0.55077208802E+03  0.27424745880E+03 0.  0.
         25    2    3    3    0    0  0.35150560796E+02 -0.55161113243E+01 -0.32050804671E+03  0.34647666189E+03  0.12670706302E+03 0.  0.
         25    2    3    3    0    0 -0.35150560796E+02  0.55161113243E+01 -0.15713012627E+03  0.20429542614E+03  0.12562147567E+03 0.  0.
          5    1    4    4  502    0  0.47455366850E+02 -0.40263347585E+02 -0.72341296226E+02  0.95543195160E+02  0.47000000000E+01 0. -1.
         -5    1    4    4    0  502 -0.12304806054E+02  0.34747236261E+02 -0.24816675048E+03  0.25093346673E+03  0.47000000000E+01 0. -1.
          5    1    5    5  503    0 -0.45357924677E+02 -0.51634201845E+02 -0.10798634230E+03  0.12808814252E+03  0.47000000000E+01 0.  1.
         -5    1    5    5    0  503  0.10207363881E+02  0.57150313169E+02 -0.49143783979E+02  0.76207283619E+02  0.47000000000E+01 0.  1.
<mgrwt>
<rscale>  0 0.27424746E+03</rscale>
<asrwt>0</asrwt>
<pdfrwt beam="1">  1        1 0.79108478E-01 0.27424746E+03</pdfrwt>
<pdfrwt beam="2">  1       -1 0.56256861E-02 0.27424746E+03</pdfrwt>
<totfact> 0.63753827E+03</totfact>
</mgrwt>
</event>
<event>
 9    1  0.2031653E-002  0.2750193E+03  0.7818608E-02  0.1098441E+00
         -1   -1    0    0    0  501 -0.00000000000E+00  0.00000000000E+00  0.58101889074E+02  0.58101889074E+02  0.00000000000E+00 0. -1.
          1   -1    0    0  501    0  0.00000000000E+00 -0.00000000000E+00 -0.32544377559E+03  0.32544377559E+03  0.00000000000E+00 0. -1.
         36    2    1    2    0    0  0.00000000000E+00  0.00000000000E+00 -0.26734188651E+03  0.38354566466E+03  0.27501925859E+03 0.  0.
         25    2    3    3    0    0 -0.46805619920E+02 -0.15401730486E+02 -0.80952807302E+02  0.15512144765E+03  0.12280605504E+03 0.  0.
         25    2    3    3    0    0  0.46805619920E+02  0.15401730486E+02 -0.18638907921E+03  0.22842421701E+03  0.12251022288E+03 0.  0.
          5    1    4    4  502    0 -0.55045622405E+02  0.53159885128E+01 -0.10698553450E+03  0.12052499687E+03  0.47000000000E+01 0.  1.
         -5    1    4    4    0  502  0.82400024847E+01 -0.20717718999E+02  0.26032727193E+02  0.34596450780E+02  0.47000000000E+01 0.  1.
          5    1    5    5  503    0 -0.18480362576E+02 -0.29526155566E+02 -0.12562425931E+02  0.37325891935E+02  0.47000000000E+01 0.  1.
         -5    1    5    5    0  503  0.65285982497E+02  0.44927886052E+02 -0.17382665328E+03  0.19109832507E+03  0.47000000000E+01 0.  1.
<mgrwt>
<rscale>  0 0.27501926E+03</rscale>
<asrwt>0</asrwt>
<pdfrwt beam="1">  1        1 0.50068272E-01 0.27501926E+03</pdfrwt>
<pdfrwt beam="2">  1       -1 0.89387524E-02 0.27501926E+03</pdfrwt>
<totfact> 0.56940088E+03</totfact>
</mgrwt>
</event>
<event>
 9    1  0.2031653E-002  0.2742582E+03  0.7818608E-02  0.1098867E+00
          2   -1    0    0  501    0  0.00000000000E+00  0.00000000000E+00  0.35694203368E+03  0.35694203368E+03  0.00000000000E+00 0.  1.
         -2   -1    0    0    0  501 -0.00000000000E+00 -0.00000000000E+00 -0.52681900381E+02  0.52681900381E+02  0.00000000000E+00 0.  1.
         36    2    1    2    0    0  0.00000000000E+00 -0.71054273576E-14  0.30426013330E+03  0.40962393406E+03  0.27425816057E+03 0.  0.
         25    2    3    3    0    0 -0.33941629028E+02  0.39653728964E+02  0.12226535959E+03  0.18333883008E+03  0.12625314276E+03 0.  0.
         25    2    3    3    0    0  0.33941629028E+02 -0.39653728964E+02  0.18199477371E+03  0.22628510398E+03  0.12392900477E+03 0.  0.
          5    1    4    4  502    0 -0.63941146996E+02  0.19552882094E+02  0.12986088858E+03  0.14613940557E+03  0.47000000000E+01 0. -1.
         -5    1    4    4    0  502  0.29999517968E+02  0.20100846871E+02 -0.75955289909E+01  0.37199424510E+02  0.47000000000E+01 0. -1.
          5    1    5    5  503    0  0.85360530817E+01  0.44952290321E+02  0.60764323619E+02  0.76210010053E+02  0.47000000000E+01 0. -1.
         -5    1    5    5    0  503  0.25405575946E+02 -0.84606019285E+02  0.12123045009E+03  0.15007509393E+03  0.47000000000E+01 0. -1.
<mgrwt>
<rscale>  0 0.27425816E+03</rscale>
<asrwt>0</asrwt>
<pdfrwt beam="1">  1        2 0.54914158E-01 0.27425816E+03</pdfrwt>
<pdfrwt beam="2">  1       -2 0.81049080E-02 0.27425816E+03</pdfrwt>
<totfact> 0.83185321E+03</totfact>
</mgrwt>
</event>
<event>
 9    1  0.2031653E-002  0.2744831E+03  0.7818608E-02  0.1098741E+00
         -2   -1    0    0    0  501 -0.00000000000E+00  0.00000000000E+00  0.68112105057E+01  0.68112105057E+01  0.00000000000E+00 0.  1.
          2   -1    0    0  501    0  0.00000000000E+00 -0.00000000000E+00 -0.27653296723E+04  0.27653296723E+04  0.00000000000E+00 0.  1.
         36    2    1    2    0    0  0.00000000000E+00  0.00000000000E+00 -0.27585184618E+04  0.27721408828E+04  0.27448309613E+03 0.  0.
         25    2    3    3    0    0 -0.36967288627E+02 -0.30548186644E+02 -0.17182536339E+04  0.17230362040E+04  0.11898923301E+03 0.  0.
         25    2    3    3    0    0  0.36967288627E+02  0.30548186644E+02 -0.10402648279E+04  0.10491046789E+04  0.12716109039E+03 0.  0.
          5    1    4    4  502    0 -0.72445335010E+02  0.64884084409E+01 -0.79011601692E+03  0.79347075321E+03  0.47000000000E+01 0. -1.
         -5    1    4    4    0  502  0.35478046384E+02 -0.37036595085E+02 -0.92813761698E+03  0.92956545074E+03  0.47000000000E+01 0. -1.
          5    1    5    5  503    0  0.18606440452E+02  0.38836760073E+02 -0.10465621472E+03  0.11326741296E+03  0.47000000000E+01 0. -1.
         -5    1    5    5    0  503  0.18360848175E+02 -0.82885734285E+01 -0.93560861317E+03  0.93583726589E+03  0.47000000000E+01 0. -1.
<mgrwt>
<rscale>  0 0.27448310E+03</rscale>
<asrwt>0</asrwt>
<pdfrwt beam="1">  1        2 0.42543560E+00 0.27448310E+03</pdfrwt>
<pdfrwt beam="2">  1       -2 0.10478779E-02 0.27448310E+03</pdfrwt>
<totfact> 0.56800827E+03</totfact>
</mgrwt>
</event>
<event>
 9    1  0.2031653E-002  0.2759743E+03  0.7818608E-02  0.1097908E+00
          1   -1    0    0  501    0  0.00000000000E+00  0.00000000000E+00  0.15692289834E+04  0.15692289834E+04  0.00000000000E+00 0.  1.
         -1   -1    0    0    0  501 -0.00000000000E+00 -0.00000000000E+00 -0.12133634473E+02  0.12133634473E+02  0.00000000000E+00 0.  1.
         36    2    1    2    0    0  0.00000000000E+00  0.00000000000E+00  0.15570953489E+04  0.15813626179E+04  0.27597428061E+03 0.  0.
         25    2    3    3    0    0 -0.22114781365E+02  0.18599345943E+02  0.49643171368E+03  0.51253543722E+03  0.12414962279E+03 0.  0.
         25    2    3    3    0    0  0.22114781365E+02 -0.18599345943E+02  0.10606636353E+04  0.10688271807E+04  0.12864367741E+03 0.  0.
          5    1    4    4  502    0 -0.42497141953E+02  0.62618083861E+02  0.35295439060E+03  0.36100681897E+03  0.47000000000E+01 0.  1.
         -5    1    4    4    0  502  0.20382360588E+02 -0.44018737917E+02  0.14347732308E+03  0.15152861825E+03  0.47000000000E+01 0.  1.
          5    1    5    5  503    0  0.31375619315E+02 -0.70968654194E+02  0.68265104258E+03  0.68706296313E+03  0.47000000000E+01 0.  1.
         -5    1    5    5    0  503 -0.92608379500E+01  0.52369308251E+02  0.37801259269E+03  0.38176421754E+03  0.47000000000E+01 0.  1.
<mgrwt>
<rscale>  0 0.27597428E+03</rscale>
<asrwt>0</asrwt>
<pdfrwt beam="1">  1        1 0.24141968E+00 0.27597428E+03</pdfrwt>
<pdfrwt beam="2">  1       -1 0.18667142E-02 0.27597428E+03</pdfrwt>
<totfact> 0.48854195E+03</totfact>
</mgrwt>
</event>
<event>
 9    1  0.2031653E-002  0.2751523E+03  0.7818608E-02  0.1098366E+00
         -1   -1    0    0    0  501 -0.00000000000E+00  0.00000000000E+00  0.16402187613E+02  0.16402187613E+02  0.00000000000E+00 0.  1.
          1   -1    0    0  501    0  0.00000000000E+00 -0.00000000000E+00 -0.11539438656E+04  0.11539438656E+04  0.00000000000E+00 0.  1.
         36    2    1    2    0    0 -0.14210854715E-13 -0.35527136788E-14 -0.11375416780E+04  0.11703460532E+04  0.27515234891E+03 0.  0.
         25    2    3    3    0    0  0.27537562010E+02  0.16508535647E+02 -0.79680496630E+03  0.80774977683E+03  0.12857176435E+03 0.  0.
         25    2    3    3    0    0 -0.27537562010E+02 -0.16508535647E+02 -0.34073671168E+03  0.36259627637E+03  0.11976520313E+03 0.  0.
          5    1    4    4  502    0 -0.47134972367E+02  0.28160224380E+02 -0.40074331578E+03  0.40451452261E+03  0.47000000000E+01 0. -1.
         -5    1    4    4    0  502  0.74672534377E+02 -0.11651688733E+02 -0.39606165051E+03  0.40323525422E+03  0.47000000000E+01 0. -1.
          5    1    5    5  503    0 -0.64237201929E+02 -0.30644287423E+02 -0.13106822344E+03  0.14921950161E+03  0.47000000000E+01 0.  1.
         -5    1    5    5    0  503  0.36699639919E+02  0.14135751776E+02 -0.20966848823E+03  0.21337677476E+03  0.47000000000E+01 0.  1.
<mgrwt>
<rscale>  0 0.27515235E+03</rscale>
<asrwt>0</asrwt>
<pdfrwt beam="1">  1        1 0.17752989E+00 0.27515235E+03</pdfrwt>
<pdfrwt beam="2">  1       -1 0.25234125E-02 0.27515235E+03</pdfrwt>
<totfact> 0.60102705E+03</totfact>
</mgrwt>
</event>
<event>
 9    1  0.2031653E-002  0.2786527E+03  0.7818608E-02  0.1096427E+00
         -1   -1    0    0    0  501 -0.00000000000E+00  0.00000000000E+00  0.14158340534E+03  0.14158340534E+03  0.00000000000E+00 0. -1.
          1   -1    0    0  501    0  0.00000000000E+00 -0.00000000000E+00 -0.13710524682E+03  0.13710524682E+03  0.00000000000E+00 0. -1.
         36    2    1    2    0    0  0.00000000000E+00 -0.71054273576E-14  0.44781585209E+01  0.27868865216E+03  0.27865267079E+03 0.  0.
         25    2    3    3    0    0  0.25704250316E+02  0.39125226086E+02 -0.34490871495E+02  0.13867092400E+03  0.12589087793E+03 0.  0.
         25    2    3    3    0    0 -0.25704250316E+02 -0.39125226086E+02  0.38969030015E+02  0.14001772816E+03  0.12607492652E+03 0.  0.
          5    1    4    4  502    0  0.48768125831E+02  0.33823304117E+01  0.32704728701E+02  0.59003894240E+02  0.47000000000E+01 0. -1.
         -5    1    4    4    0  502 -0.23063875515E+02  0.35742895674E+02 -0.67195600195E+02  0.79667029759E+02  0.47000000000E+01 0. -1.
          5    1    5    5  503    0  0.37503891659E+02 -0.57090092440E+02  0.23028071660E+02  0.72237127773E+02  0.47000000000E+01 0. -1.
         -5    1    5    5    0  503 -0.63208141976E+02  0.17964866355E+02  0.15940958355E+02  0.67780600384E+02  0.47000000000E+01 0. -1.
<mgrwt>
<rscale>  0 0.27865267E+03</rscale>
<asrwt>0</asrwt>
<pdfrwt beam="1">  1        1 0.21093115E-01 0.27865267E+03</pdfrwt>
<pdfrwt beam="2">  1       -1 0.21782062E-01 0.27865267E+03</pdfrwt>
<totfact> 0.41516676E+03</totfact>
</mgrwt>
</event>
<event>
 9    1  0.2031653E-002  0.2742825E+03  0.7818608E-02  0.1098853E+00
          2   -1    0    0  501    0  0.00000000000E+00  0.00000000000E+00  0.33853073093E+04  0.33853073093E+04  0.00000000000E+00 0.  1.
         -2   -1    0    0    0  501 -0.00000000000E+00 -0.00000000000E+00 -0.55556927392E+01  0.55556927392E+01  0.00000000000E+00 0.  1.
         36    2    1    2    0    0  0.00000000000E+00  0.71054273576E-14  0.33797516165E+04  0.33908630020E+04  0.27428253490E+03 0.  0.
         25    2    3    3    0    0 -0.40199537932E+02 -0.52825038753E+02  0.17365356322E+04  0.17417909958E+04  0.11778532789E+03 0.  0.
         25    2    3    3    0    0  0.40199537932E+02  0.52825038753E+02  0.16432159843E+04  0.16490720062E+04  0.12195582414E+03 0.  0.
          5    1    4    4  502    0 -0.38314292343E+02  0.25541718702E+02  0.35202340376E+03  0.35505342019E+03  0.47000000000E+01 0. -1.
         -5    1    4    4    0  502 -0.18852455896E+01 -0.78366757455E+02  0.13845122285E+04  0.13867375756E+04  0.47000000000E+01 0. -1.
          5    1    5    5  503    0  0.56134254544E+01 -0.34043300883E+02  0.21599554748E+03  0.21878442223E+03  0.47000000000E+01 0. -1.
         -5    1    5    5    0  503  0.34586112478E+02  0.86868339637E+02  0.14272204368E+04  0.14302875840E+04  0.47000000000E+01 0. -1.
<mgrwt>
<rscale>  0 0.27428253E+03</rscale>
<asrwt>0</asrwt>
<pdfrwt beam="1">  1        2 0.52081486E+00 0.27428253E+03</pdfrwt>
<pdfrwt beam="2">  1       -2 0.85472466E-03 0.27428253E+03</pdfrwt>
<totfact> 0.32273039E+03</totfact>
</mgrwt>
</event>
<event>
 8    1  0.2031653E-002  0.3268556E+03  0.7818608E-02  0.1072537E+00
         -2   -1    0    0    0  501 -0.00000000000E+00  0.00000000000E+00  0.99921210198E+03  0.99921210198E+03  0.00000000000E+00 0. -1.
          2   -1    0    0  501    0  0.00000000000E+00 -0.00000000000E+00 -0.26729711872E+02  0.26729711872E+02  0.00000000000E+00 0. -1.
         25    2    1    2    0    0  0.33577249392E+02 -0.83351684883E+02  0.32538447128E+03  0.36116204187E+03  0.12840572920E+03 0.  0.
         25    2    1    2    0    0 -0.33577249392E+02  0.83351684883E+02  0.64709791884E+03  0.66477977199E+03  0.12296948251E+03 0.  0.
          5    1    3    3  502    0  0.65367179261E+02 -0.47372544175E+01  0.19298725317E+03  0.20386632775E+03  0.47000000000E+01 0.  1.
         -5    1    3    3    0  502 -0.31789929869E+02 -0.78614430466E+02  0.13239721810E+03  0.15729571412E+03  0.47000000000E+01 0.  1.
          5    1    4    4  503    0 -0.46371955581E+02  0.45405368510E+01  0.85233840002E+02  0.97251592382E+02  0.47000000000E+01 0.  1.
         -5    1    4    4    0  503  0.12794706189E+02  0.78811148032E+02  0.56186407883E+03  0.56752817960E+03  0.47000000000E+01 0.  1.
<mgrwt>
<rscale>  0 0.32685564E+03</rscale>
<asrwt>0</asrwt>
<pdfrwt beam="1">  1        2 0.41122641E-02 0.32685564E+03</pdfrwt>
<pdfrwt beam="2">  1       -2 0.15372491E+00 0.32685564E+03</pdfrwt>
<totfact> 0.60982866E+02</totfact>
</mgrwt>
</event>
<event>
 9    1  0.2031653E-002  0.2782260E+03  0.7818608E-02  0.1096662E+00
         -2   -1    0    0    0  501 -0.00000000000E+00  0.00000000000E+00  0.12072255272E+02  0.12072255272E+02  0.00000000000E+00 0. -1.
          2   -1    0    0  501    0  0.00000000000E+00 -0.00000000000E+00 -0.16030494842E+04  0.16030494842E+04  0.00000000000E+00 0. -1.
         36    2    1    2    0    0 -0.71054273576E-14  0.00000000000E+00 -0.15909772290E+04  0.16151217395E+04  0.27822596995E+03 0.  0.
         25    2    3    3    0    0  0.39770882776E+02  0.32530895522E+02 -0.10613123044E+04  0.10710899159E+04  0.13494375888E+03 0.  0.
         25    2    3    3    0    0 -0.39770882776E+02 -0.32530895522E+02 -0.52966492453E+03  0.54403182364E+03  0.11307391641E+03 0.  0.
          5    1    4    4  502    0  0.96451348790E+01  0.60261807742E+02 -0.20892595126E+03  0.21770773346E+03  0.47000000000E+01 0.  1.
         -5    1    4    4    0  502  0.30125747897E+02 -0.27730912220E+02 -0.85238635318E+03  0.85338218241E+03  0.47000000000E+01 0.  1.
          5    1    5    5  503    0 -0.40216100942E+02 -0.54065681992E+02 -0.51011005529E+03  0.51456271848E+03  0.47000000000E+01 0.  1.
         -5    1    5    5    0  503  0.44521816590E+00  0.21534786470E+02 -0.19554869238E+02  0.29469105152E+02  0.47000000000E+01 0.  1.
<mgrwt>
<rscale>  0 0.27822597E+03</rscale>
<asrwt>0</asrwt>
<pdfrwt beam="1">  1        2 0.24662286E+00 0.27822597E+03</pdfrwt>
<pdfrwt beam="2">  1       -2 0.18572711E-02 0.27822597E+03</pdfrwt>
<totfact> 0.10367674E+04</totfact>
</mgrwt>
</event>
<event>
 9    1  0.2031653E-002  0.2810503E+03  0.7818608E-02  0.1095117E+00
         -1   -1    0    0    0  501 -0.00000000000E+00  0.00000000000E+00  0.58804312711E+02  0.58804312711E+02  0.00000000000E+00 0. -1.
          1   -1    0    0  501    0  0.00000000000E+00 -0.00000000000E+00 -0.33581402772E+03  0.33581402772E+03  0.00000000000E+00 0. -1.
         36    2    1    2    0    0 -0.71054273576E-14  0.00000000000E+00 -0.27700971501E+03  0.39461834043E+03  0.28105026667E+03 0.  0.
         25    2    3    3    0    0 -0.29687566129E+02  0.32874063317E+02 -0.18832332596E+03  0.23304004635E+03  0.12992279431E+03 0.  0.
         25    2    3    3    0    0  0.29687566129E+02 -0.32874063317E+02 -0.88686389051E+02  0.16157829408E+03  0.12759394145E+03 0.  0.
          5    1    4    4  502    0 -0.35662480916E+02  0.47209680345E+02 -0.20279246213E+03  0.21129940644E+03  0.47000000000E+01 0. -1.
         -5    1    4    4    0  502  0.59749147874E+01 -0.14335617027E+02  0.14469136172E+02  0.21740639913E+02  0.47000000000E+01 0. -1.
          5    1    5    5  503    0  0.67417039822E+02  0.12456114456E+02 -0.21387253513E+02  0.71970248426E+02  0.47000000000E+01 0.  1.
         -5    1    5    5    0  503 -0.37729473693E+02 -0.45330177774E+02 -0.67299135538E+02  0.89608045656E+02  0.47000000000E+01 0.  1.
<mgrwt>
<rscale>  0 0.28105027E+03</rscale>
<asrwt>0</asrwt>
<pdfrwt beam="1">  1        1 0.51663698E-01 0.28105027E+03</pdfrwt>
<pdfrwt beam="2">  1       -1 0.90468170E-02 0.28105027E+03</pdfrwt>
<totfact> 0.53762445E+03</totfact>
</mgrwt>
</event>
<event>
 9    1  0.2031653E-002  0.2723209E+03  0.7818608E-02  0.1099959E+00
         -3   -1    0    0    0  501 -0.00000000000E+00  0.00000000000E+00  0.10764943219E+03  0.10764943219E+03  0.00000000000E+00 0.  1.
          3   -1    0    0  501    0  0.00000000000E+00 -0.00000000000E+00 -0.17222257363E+03  0.17222257363E+03  0.00000000000E+00 0.  1.
         36    2    1    2    0    0  0.00000000000E+00 -0.71054273576E-14 -0.64573141439E+02  0.27987200583E+03  0.27232085680E+03 0.  0.
         25    2    3    3    0    0 -0.24012103028E+02  0.34186156556E+01 -0.81244998434E+02  0.15272247487E+03  0.12702415729E+03 0.  0.
         25    2    3    3    0    0  0.24012103028E+02 -0.34186156556E+01  0.16671856995E+02  0.12714953096E+03  0.12369633941E+03 0.  0.
          5    1    4    4  502    0 -0.53326604691E+02  0.35914935352E+02 -0.49672291109E+01  0.64655801861E+02  0.47000000000E+01 0.  1.
         -5    1    4    4    0  502  0.29314501663E+02 -0.32496319696E+02 -0.76277769323E+02  0.88066673007E+02  0.47000000000E+01 0.  1.
          5    1    5    5  503    0  0.58253217780E+02  0.38225261157E+02 -0.21094346366E+01  0.69865210847E+02  0.47000000000E+01 0.  1.
         -5    1    5    5    0  503 -0.34241114751E+02 -0.41643876812E+02  0.18781291632E+02  0.57284320112E+02  0.47000000000E+01 0.  1.
<mgrwt>
<rscale>  0 0.27232086E+03</rscale>
<asrwt>0</asrwt>
<pdfrwt beam="1">  1        3 0.26495780E-01 0.27232086E+03</pdfrwt>
<pdfrwt beam="2">  1       -3 0.16561451E-01 0.27232086E+03</pdfrwt>
<totfact> 0.10732745E+03</totfact>
</mgrwt>
</event>
<event>
 9    1  0.2031653E-002  0.2748752E+03  0.7818608E-02  0.1098521E+00
          3   -1    0    0  501    0  0.00000000000E+00  0.00000000000E+00  0.64278511688E+03  0.64278511688E+03  0.00000000000E+00 0. -1.
         -3   -1    0    0    0  501 -0.00000000000E+00 -0.00000000000E+00 -0.29386322124E+02  0.29386322124E+02  0.00000000000E+00 0. -1.
         36    2    1    2    0    0  0.35527136788E-14  0.00000000000E+00  0.61339879476E+03  0.67217143901E+03  0.27487517531E+03 0.  0.
         25    2    3    3    0    0  0.20900649114E+02  0.55311823163E+02  0.33558525594E+03  0.36115151534E+03  0.11965248896E+03 0.  0.
         25    2    3    3    0    0 -0.20900649114E+02 -0.55311823163E+02  0.27781353882E+03  0.31101992367E+03  0.12671541205E+03 0.  0.
          5    1    4    4  502    0 -0.44635042519E+01  0.23765967931E+02  0.31413730008E+03  0.31510169375E+03  0.47000000000E+01 0.  1.
         -5    1    4    4    0  502  0.25364153366E+02  0.31545855232E+02  0.21447955864E+02  0.46049821596E+02  0.47000000000E+01 0.  1.
          5    1    5    5  503    0  0.35478289031E+01 -0.93801345411E+02  0.18531099281E+03  0.20778241876E+03  0.47000000000E+01 0. -1.
         -5    1    5    5    0  503 -0.24448478017E+02  0.38489522248E+02  0.92502546010E+02  0.10323750490E+03  0.47000000000E+01 0. -1.
<mgrwt>
<rscale>  0 0.27487518E+03</rscale>
<asrwt>0</asrwt>
<pdfrwt beam="1">  1        3 0.98890008E-01 0.27487518E+03</pdfrwt>
<pdfrwt beam="2">  1       -3 0.45209731E-02 0.27487518E+03</pdfrwt>
<totfact> 0.63164406E+02</totfact>
</mgrwt>
</event>
<event>
 9    1  0.2031653E-002  0.2723539E+03  0.7818608E-02  0.1099940E+00
          1   -1    0    0  501    0  0.00000000000E+00  0.00000000000E+00  0.26859303783E+03  0.26859303783E+03  0.00000000000E+00 0. -1.
         -1   -1    0    0    0  501 -0.00000000000E+00 -0.00000000000E+00 -0.69041860072E+02  0.69041860072E+02  0.00000000000E+00 0. -1.
         36    2    1    2    0    0  0.14210854715E-13  0.35527136788E-14  0.19955117776E+03  0.33763489790E+03  0.27235390898E+03 0.  0.
         25    2    3    3    0    0 -0.49403803132E+02  0.32843593625E+01  0.10670342661E+03  0.17355942707E+03  0.12761555820E+03 0.  0.
         25    2    3    3    0    0  0.49403803132E+02 -0.32843593625E+01  0.92847751152E+02  0.16407547083E+03  0.12589095462E+03 0.  0.
          5    1    4    4  502    0 -0.46947815660E+02 -0.51736628975E+02  0.93351978237E+02  0.11669386451E+03  0.47000000000E+01 0.  1.
         -5    1    4    4    0  502 -0.24559874719E+01  0.55020988338E+02  0.13351448369E+02  0.56865562564E+02  0.47000000000E+01 0.  1.
          5    1    5    5  503    0 -0.14705867346E+02 -0.35190927275E+02  0.83224742205E+02  0.91668487562E+02  0.47000000000E+01 0.  1.
         -5    1    5    5    0  503  0.64109670478E+02  0.31906567913E+02  0.96230089472E+01  0.72406983268E+02  0.47000000000E+01 0.  1.
<mgrwt>
<rscale>  0 0.27235391E+03</rscale>
<asrwt>0</asrwt>
<pdfrwt beam="1">  1        1 0.41322005E-01 0.27235391E+03</pdfrwt>
<pdfrwt beam="2">  1       -1 0.10621825E-01 0.27235391E+03</pdfrwt>
<totfact> 0.55526568E+03</totfact>
</mgrwt>
</event>
<event>
 9    1  0.2031653E-002  0.2752219E+03  0.7818608E-02  0.1098328E+00
         -2   -1    0    0    0  501 -0.00000000000E+00  0.00000000000E+00  0.13468649880E+03  0.13468649880E+03  0.00000000000E+00 0.  1.
          2   -1    0    0  501    0  0.00000000000E+00 -0.00000000000E+00 -0.14059886952E+03  0.14059886952E+03  0.00000000000E+00 0.  1.
         36    2    1    2    0    0 -0.71054273576E-14  0.35527136788E-14 -0.59123707202E+01  0.27528536833E+03  0.27522187029E+03 0.  0.
         25    2    3    3    0    0 -0.16551474283E+02  0.19372449934E+02  0.53983616151E+02  0.13429742462E+03  0.12030097393E+03 0.  0.
         25    2    3    3    0    0  0.16551474283E+02 -0.19372449934E+02 -0.59895986871E+02  0.14098794371E+03  0.12506329562E+03 0.  0.
          5    1    4    4  502    0 -0.44058806627E+02  0.44993070297E+02 -0.59150525870E+01  0.63424227731E+02  0.47000000000E+01 0. -1.
         -5    1    4    4    0  502  0.27507332344E+02 -0.25620620363E+02  0.59898668738E+02  0.70873196887E+02  0.47000000000E+01 0. -1.
          5    1    5    5  503    0 -0.47818445837E+02  0.18573727946E+02 -0.14849951285E+02  0.53611548991E+02  0.47000000000E+01 0. -1.
         -5    1    5    5    0  503  0.64369920120E+02 -0.37946177881E+02 -0.45046035585E+02  0.87376394718E+02  0.47000000000E+01 0. -1.
<mgrwt>
<rscale>  0 0.27522187E+03</rscale>
<asrwt>0</asrwt>
<pdfrwt beam="1">  1        2 0.21630595E-01 0.27522187E+03</pdfrwt>
<pdfrwt beam="2">  1       -2 0.20721000E-01 0.27522187E+03</pdfrwt>
<totfact> 0.49815121E+03</totfact>
</mgrwt>
</event>
<event>
 9    1  0.2031653E-002  0.2744866E+03  0.7818608E-02  0.1098739E+00
          2   -1    0    0  501    0  0.00000000000E+00  0.00000000000E+00  0.49202531103E+03  0.49202531103E+03  0.00000000000E+00 0.  1.
         -2   -1    0    0    0  501 -0.00000000000E+00 -0.00000000000E+00 -0.38282034981E+02  0.38282034981E+02  0.00000000000E+00 0.  1.
         36    2    1    2    0    0  0.00000000000E+00  0.28421709430E-13  0.45374327604E+03  0.53030734601E+03  0.27448664935E+03 0.  0.
         25    2    3    3    0    0  0.62041550205E+01  0.55775350181E+02  0.23385714805E+03  0.27168836684E+03  0.12639628854E+03 0.  0.
         25    2    3    3    0    0 -0.62041550205E+01 -0.55775350181E+02  0.21988612800E+03  0.25861897917E+03  0.12403421251E+03 0.  0.
          5    1    4    4  502    0  0.50557761963E+02  0.71908580636E+02  0.17671447081E+03  0.19742599995E+03  0.47000000000E+01 0.  1.
         -5    1    4    4    0  502 -0.44353606942E+02 -0.16133230456E+02  0.57142677234E+02  0.74262366884E+02  0.47000000000E+01 0.  1.
          5    1    5    5  503    0  0.58153185353E+02 -0.19013709170E+02  0.11070164143E+03  0.12657115595E+03  0.47000000000E+01 0. -1.
         -5    1    5    5    0  503 -0.64357340373E+02 -0.36761641011E+02  0.10918448657E+03  0.13204782322E+03  0.47000000000E+01 0. -1.
<mgrwt>
<rscale>  0 0.27448665E+03</rscale>
<asrwt>0</asrwt>
<pdfrwt beam="1">  1        2 0.75696197E-01 0.27448665E+03</pdfrwt>
<pdfrwt beam="2">  1       -2 0.58895442E-02 0.27448665E+03</pdfrwt>
<totfact> 0.95980412E+03</totfact>
</mgrwt>
</event>
<event>
 9    1  0.2031653E-002  0.2763181E+03  0.7818608E-02  0.1097717E+00
          2   -1    0    0  501    0  0.00000000000E+00  0.00000000000E+00  0.10895768874E+04  0.10895768874E+04  0.00000000000E+00 0. -1.
         -2   -1    0    0    0  501 -0.00000000000E+00 -0.00000000000E+00 -0.17518656638E+02  0.17518656638E+02  0.00000000000E+00 0. -1.
         36    2    1    2    0    0 -0.71054273576E-14  0.14210854715E-13  0.10720582308E+04  0.11070955441E+04  0.27631810199E+03 0.  0.
         25    2    3    3    0    0 -0.34392194192E+02  0.58101604627E+02  0.56447749381E+03  0.58260070171E+03  0.12739747693E+03 0.  0.
         25    2    3    3    0    0  0.34392194192E+02 -0.58101604627E+02  0.50758073698E+03  0.52449484236E+03  0.11356943087E+03 0.  0.
          5    1    4    4  502    0  0.40563536236E+02 -0.10675814995E+02  0.15400100484E+03  0.15968022104E+03  0.47000000000E+01 0.  1.
         -5    1    4    4    0  502 -0.74955730428E+02  0.68777419622E+02  0.41047648897E+03  0.42292048067E+03  0.47000000000E+01 0.  1.
          5    1    5    5  503    0  0.95353995509E+00 -0.23061364291E+02  0.11824688019E+02  0.26356194873E+02  0.47000000000E+01 0. -1.
         -5    1    5    5    0  503  0.33438654237E+02 -0.35040240336E+02  0.49575604896E+03  0.49813864749E+03  0.47000000000E+01 0. -1.
<mgrwt>
<rscale>  0 0.27631810E+03</rscale>
<asrwt>0</asrwt>
<pdfrwt beam="1">  1        2 0.16762716E+00 0.27631810E+03</pdfrwt>
<pdfrwt beam="2">  1       -2 0.26951788E-02 0.27631810E+03</pdfrwt>
<totfact> 0.11495879E+04</totfact>
</mgrwt>
</event>
<event>
 9    1  0.2031653E-002  0.2751857E+03  0.7818608E-02  0.1098348E+00
          1   -1    0    0  501    0  0.00000000000E+00  0.00000000000E+00  0.10924772333E+03  0.10924772333E+03  0.00000000000E+00 0.  1.
         -1   -1    0    0    0  501 -0.00000000000E+00 -0.00000000000E+00 -0.17329229537E+03  0.17329229537E+03  0.00000000000E+00 0.  1.
         36    2    1    2    0    0  0.00000000000E+00  0.35527136788E-14 -0.64044572031E+02  0.28254001870E+03  0.27518567361E+03 0.  0.
         25    2    3    3    0    0 -0.54192165995E+02 -0.60874905996E+01 -0.18679388247E+02  0.13745459833E+03  0.12478380769E+03 0.  0.
         25    2    3    3    0    0  0.54192165995E+02  0.60874905996E+01 -0.45365183784E+02  0.14508542036E+03  0.12656196469E+03 0.  0.
          5    1    4    4  502    0 -0.20454129079E+02  0.19578444102E+02 -0.67068609345E+02  0.72951869265E+02  0.47000000000E+01 0. -1.
         -5    1    4    4    0  502 -0.33738036916E+02 -0.25665934701E+02  0.48389221098E+02  0.64502729070E+02  0.47000000000E+01 0. -1.
          5    1    5    5  503    0  0.19708724287E+02 -0.21628589039E+02 -0.82165989856E+02  0.87347407322E+02  0.47000000000E+01 0.  1.
         -5    1    5    5    0  503  0.34483441709E+02  0.27716079638E+02  0.36800806072E+02  0.57738013043E+02  0.47000000000E+01 0.  1.
<mgrwt>
<rscale>  0 0.27518567E+03</rscale>
<asrwt>0</asrwt>
<pdfrwt beam="1">  1        1 0.16807342E-01 0.27518567E+03</pdfrwt>
<pdfrwt beam="2">  1       -1 0.26660353E-01 0.27518567E+03</pdfrwt>
<totfact> 0.39832963E+03</totfact>
</mgrwt>
</event>
<event>
 9    1  0.2031653E-002  0.2751856E+03  0.7818608E-02  0.1098348E+00
          2   -1    0    0  501    0  0.00000000000E+00  0.00000000000E+00  0.10490118259E+03  0.10490118259E+03  0.00000000000E+00 0.  1.
         -2   -1    0    0    0  501 -0.00000000000E+00 -0.00000000000E+00 -0.18047254369E+03  0.18047254369E+03  0.00000000000E+00 0.  1.
         36    2    1    2    0    0 -0.71054273576E-14 -0.71054273576E-14 -0.75571361101E+02  0.28537372627E+03  0.27518563376E+03 0.  0.
         25    2    3    3    0    0  0.13212642712E+02  0.53732399110E+02 -0.34737194924E+02  0.14459515774E+03  0.12899357461E+03 0.  0.
         25    2    3    3    0    0 -0.13212642712E+02 -0.53732399110E+02 -0.40834166176E+02  0.14077856853E+03  0.12283904749E+03 0.  0.
          5    1    4    4  502    0  0.62778037371E+01  0.60433152299E+02 -0.78590296162E+02  0.99448988770E+02  0.47000000000E+01 0. -1.
         -5    1    4    4    0  502  0.69348389752E+01 -0.67007531889E+01  0.43853101238E+02  0.45146168974E+02  0.47000000000E+01 0. -1.
          5    1    5    5  503    0 -0.65365521401E+02 -0.23133384143E+02 -0.35549372787E+01  0.69588306697E+02  0.47000000000E+01 0. -1.
         -5    1    5    5    0  503  0.52152878688E+02 -0.30599014967E+02 -0.37279228898E+02  0.71190261832E+02  0.47000000000E+01 0. -1.
<mgrwt>
<rscale>  0 0.27518563E+03</rscale>
<asrwt>0</asrwt>
<pdfrwt beam="1">  1        2 0.16138644E-01 0.27518563E+03</pdfrwt>
<pdfrwt beam="2">  1       -2 0.27765006E-01 0.27518563E+03</pdfrwt>
<totfact> 0.41808650E+03</totfact>
</mgrwt>
</event>
<event>
 9    1  0.2031653E-002  0.2729749E+03  0.7818608E-02  0.1099589E+00
         -2   -1    0    0    0  501 -0.00000000000E+00  0.00000000000E+00  0.25061169665E+02  0.25061169665E+02  0.00000000000E+00 0. -1.
          2   -1    0    0  501    0  0.00000000000E+00 -0.00000000000E+00 -0.74333411352E+03  0.74333411352E+03  0.00000000000E+00 0. -1.
         36    2    1    2    0    0 -0.71054273576E-14  0.00000000000E+00 -0.71827294386E+03  0.76839528319E+03  0.27297488776E+03 0.  0.
         25    2    3    3    0    0 -0.18573498189E+02  0.41917979036E+02 -0.24011830388E+03  0.27348863001E+03  0.12262601307E+03 0.  0.
         25    2    3    3    0    0  0.18573498189E+02 -0.41917979036E+02 -0.47815463997E+03  0.49490665318E+03  0.11915806240E+03 0.  0.
          5    1    4    4  502    0  0.51971157910E+02  0.11417650396E+02 -0.11025733503E+03  0.12251585172E+03  0.47000000000E+01 0.  1.
         -5    1    4    4    0  502 -0.70544656099E+02  0.30500328640E+02 -0.12986096886E+03  0.15097277829E+03  0.47000000000E+01 0.  1.
          5    1    5    5  503    0 -0.44346833825E+02 -0.66643664104E+01 -0.97107577420E+02  0.10706552686E+03  0.47000000000E+01 0.  1.
         -5    1    5    5    0  503  0.62920332014E+02 -0.35253612626E+02 -0.38104706255E+03  0.38784112632E+03  0.47000000000E+01 0.  1.
<mgrwt>
<rscale>  0 0.27297489E+03</rscale>
<asrwt>0</asrwt>
<pdfrwt beam="1">  1        2 0.11435909E+00 0.27297489E+03</pdfrwt>
<pdfrwt beam="2">  1       -2 0.38555648E-02 0.27297489E+03</pdfrwt>
<totfact> 0.11266129E+04</totfact>
</mgrwt>
</event>
<event>
 9    1  0.2031653E-002  0.2752288E+03  0.7818608E-02  0.1098324E+00
          1   -1    0    0  501    0  0.00000000000E+00  0.00000000000E+00  0.52951129869E+02  0.52951129869E+02  0.00000000000E+00 0.  1.
         -1   -1    0    0    0  501 -0.00000000000E+00 -0.00000000000E+00 -0.35764529834E+03  0.35764529834E+03  0.00000000000E+00 0.  1.
         36    2    1    2    0    0  0.00000000000E+00  0.00000000000E+00 -0.30469416847E+03  0.41059642821E+03  0.27522879674E+03 0.  0.
         25    2    3    3    0    0 -0.23340709464E+02  0.74942162967E+02 -0.17468594906E+03  0.22659873374E+03  0.12112261896E+03 0.  0.
         25    2    3    3    0    0  0.23340709464E+02 -0.74942162967E+02 -0.13000821942E+03  0.18399769447E+03  0.10388406012E+03 0.  0.
          5    1    4    4  502    0  0.43786606544E+02  0.60190933109E+02 -0.78412741286E+02  0.10821674241E+03  0.47000000000E+01 0.  1.
         -5    1    4    4    0  502 -0.67127316008E+02  0.14751229859E+02 -0.96273207772E+02  0.11838199133E+03  0.47000000000E+01 0.  1.
          5    1    5    5  503    0  0.45176981130E+02 -0.88261607954E+02 -0.79451723209E+02  0.12714455310E+03  0.47000000000E+01 0.  1.
         -5    1    5    5    0  503 -0.21836271666E+02  0.13319444987E+02 -0.50556496208E+02  0.56853141372E+02  0.47000000000E+01 0.  1.
<mgrwt>
<rscale>  0 0.27522880E+03</rscale>
<asrwt>0</asrwt>
<pdfrwt beam="1">  1        1 0.81463275E-02 0.27522880E+03</pdfrwt>
<pdfrwt beam="2">  1       -1 0.55022355E-01 0.27522880E+03</pdfrwt>
<totfact> 0.29008253E+03</totfact>
</mgrwt>
</event>
<event>
 9    1  0.2031653E-002  0.2794088E+03  0.7818608E-02  0.1096012E+00
         -3   -1    0    0    0  501 -0.00000000000E+00  0.00000000000E+00  0.12201162248E+03  0.12201162248E+03  0.00000000000E+00 0. -1.
          3   -1    0    0  501    0  0.00000000000E+00 -0.00000000000E+00 -0.15996279903E+03  0.15996279903E+03  0.00000000000E+00 0. -1.
         36    2    1    2    0    0  0.00000000000E+00  0.00000000000E+00 -0.37951176544E+02  0.28197442151E+03  0.27940880906E+03 0.  0.
         25    2    3    3    0    0  0.24617819125E+01  0.56358542506E+02 -0.39986245217E+02  0.14434888167E+03  0.12670972398E+03 0.  0.
         25    2    3    3    0    0 -0.24617819125E+01 -0.56358542506E+02  0.20350686729E+01  0.13762553983E+03  0.12551614249E+03 0.  0.
          5    1    4    4  502    0  0.37865636816E+02  0.84402022237E+02 -0.33404717257E+02  0.98465592692E+02  0.47000000000E+01 0.  1.
         -5    1    4    4    0  502 -0.35403854904E+02 -0.28043479730E+02 -0.65815279599E+01  0.45883288981E+02  0.47000000000E+01 0.  1.
          5    1    5    5  503    0 -0.50199710805E+02  0.14055761576E+02  0.28734725731E+01  0.52420628029E+02  0.47000000000E+01 0. -1.
         -5    1    5    5    0  503  0.47737928892E+02 -0.70414304083E+02 -0.83840390016E+00  0.85204911804E+02  0.47000000000E+01 0. -1.
<mgrwt>
<rscale>  0 0.27940881E+03</rscale>
<asrwt>0</asrwt>
<pdfrwt beam="1">  1        3 0.24609661E-01 0.27940881E+03</pdfrwt>
<pdfrwt beam="2">  1       -3 0.18771019E-01 0.27940881E+03</pdfrwt>
<totfact> 0.98884853E+02</totfact>
</mgrwt>
</event>
<event>
 9    1  0.2031653E-002  0.2748277E+03  0.7818608E-02  0.1098548E+00
         -1   -1    0    0    0  501 -0.00000000000E+00  0.00000000000E+00  0.17040073366E+02  0.17040073366E+02  0.00000000000E+00 0. -1.
          1   -1    0    0  501    0  0.00000000000E+00 -0.00000000000E+00 -0.11081273971E+04  0.11081273971E+04  0.00000000000E+00 0. -1.
         36    2    1    2    0    0 -0.71054273576E-14  0.71054273576E-14 -0.10910873238E+04  0.11251674705E+04  0.27482774348E+03 0.  0.
         25    2    3    3    0    0  0.53574762082E+02  0.19813538952E+02 -0.63396383769E+03  0.64828103948E+03  0.12286304243E+03 0.  0.
         25    2    3    3    0    0 -0.53574762082E+02 -0.19813538952E+02 -0.45712348607E+03  0.47688643101E+03  0.12327187476E+03 0.  0.
          5    1    4    4  502    0  0.13580177031E+02 -0.51116409994E+02 -0.28581953171E+03  0.29070982661E+03  0.47000000000E+01 0.  1.
         -5    1    4    4    0  502  0.39994585051E+02  0.70929948947E+02 -0.34814430597E+03  0.35757121287E+03  0.47000000000E+01 0.  1.
          5    1    5    5  503    0 -0.41611279213E+02  0.25868998105E+02 -0.63159350682E+02  0.80074322971E+02  0.47000000000E+01 0.  1.
         -5    1    5    5    0  503 -0.11963482870E+02 -0.45682537057E+02 -0.39396413538E+03  0.39681210803E+03  0.47000000000E+01 0.  1.
<mgrwt>
<rscale>  0 0.27482774E+03</rscale>
<asrwt>0</asrwt>
<pdfrwt beam="1">  1        1 0.17048112E+00 0.27482774E+03</pdfrwt>
<pdfrwt beam="2">  1       -1 0.26215501E-02 0.27482774E+03</pdfrwt>
<totfact> 0.61266837E+03</totfact>
</mgrwt>
</event>
<event>
 9    1  0.2031653E-002  0.2741736E+03  0.7818608E-02  0.1098914E+00
          2   -1    0    0  501    0  0.00000000000E+00  0.00000000000E+00  0.23067993891E+02  0.23067993891E+02  0.00000000000E+00 0. -1.
         -2   -1    0    0    0  501 -0.00000000000E+00 -0.00000000000E+00 -0.81466963897E+03  0.81466963897E+03  0.00000000000E+00 0. -1.
         36    2    1    2    0    0  0.00000000000E+00  0.35527136788E-14 -0.79160164508E+03  0.83773763286E+03  0.27417362568E+03 0.  0.
         25    2    3    3    0    0  0.58543358595E+02  0.18914183146E+02 -0.37093168748E+03  0.39671414448E+03  0.12651768451E+03 0.  0.
         25    2    3    3    0    0 -0.58543358595E+02 -0.18914183146E+02 -0.42066995760E+03  0.44102348838E+03  0.11727503109E+03 0.  0.
          5    1    4    4  502    0  0.21375933839E+00 -0.43329522739E+02 -0.21038065747E+03  0.21484786308E+03  0.47000000000E+01 0. -1.
         -5    1    4    4    0  502  0.58329599257E+02  0.62243705885E+02 -0.16055103001E+03  0.18186628140E+03  0.47000000000E+01 0. -1.
          5    1    5    5  503    0 -0.93216014741E+02 -0.28114113349E+01 -0.31519876957E+03  0.32873923371E+03  0.47000000000E+01 0.  1.
         -5    1    5    5    0  503  0.34672656146E+02 -0.16102771811E+02 -0.10547118803E+03  0.11228425467E+03  0.47000000000E+01 0.  1.
<mgrwt>
<rscale>  0 0.27417363E+03</rscale>
<asrwt>0</asrwt>
<pdfrwt beam="1">  1        2 0.35489223E-02 0.27417363E+03</pdfrwt>
<pdfrwt beam="2">  1       -2 0.12533378E+00 0.27417363E+03</pdfrwt>
<totfact> 0.12435468E+03</totfact>
</mgrwt>
</event>
<event>
 9    1  0.2031653E-002  0.2741708E+03  0.7818608E-02  0.1098916E+00
          2   -1    0    0  501    0  0.00000000000E+00  0.00000000000E+00  0.18487120521E+03  0.18487120521E+03  0.00000000000E+00 0.  1.
         -2   -1    0    0    0  501 -0.00000000000E+00 -0.00000000000E+00 -0.10165132763E+03  0.10165132763E+03  0.00000000000E+00 0.  1.
         36    2    1    2    0    0  0.00000000000E+00  0.14210854715E-13  0.83219877581E+02  0.28652253284E+03  0.27417077489E+03 0.  0.
         25    2    3    3    0    0 -0.15802304520E+02  0.45018984678E+02  0.60086343720E+02  0.14599820152E+03  0.12421225518E+03 0.  0.
         25    2    3    3    0    0  0.15802304520E+02 -0.45018984678E+02  0.23133533861E+02  0.14052433132E+03  0.13013648795E+03 0.  0.
          5    1    4    4  502    0 -0.19725098484E+02  0.46862519116E+02  0.96420259267E+02  0.10910605668E+03  0.47000000000E+01 0. -1.
         -5    1    4    4    0  502  0.39227939643E+01 -0.18435344379E+01 -0.36333915547E+02  0.36892144837E+02  0.47000000000E+01 0. -1.
          5    1    5    5  503    0 -0.98603107649E+01 -0.65974416379E+02 -0.33460997647E+02  0.74776852758E+02  0.47000000000E+01 0.  1.
         -5    1    5    5    0  503  0.25662615285E+02  0.20955431701E+02  0.56594531508E+02  0.65747478565E+02  0.47000000000E+01 0.  1.
<mgrwt>
<rscale>  0 0.27417077E+03</rscale>
<asrwt>0</asrwt>
<pdfrwt beam="1">  1        2 0.28441724E-01 0.27417077E+03</pdfrwt>
<pdfrwt beam="2">  1       -2 0.15638666E-01 0.27417077E+03</pdfrwt>
<totfact> 0.58967338E+03</totfact>
</mgrwt>
</event>
<event>
 9    1  0.2031653E-002  0.2752544E+03  0.7818608E-02  0.1098309E+00
          2   -1    0    0  501    0  0.00000000000E+00  0.00000000000E+00  0.45409777162E+03  0.45409777162E+03  0.00000000000E+00 0.  1.
         -2   -1    0    0    0  501 -0.00000000000E+00 -0.00000000000E+00 -0.41711816309E+02  0.41711816309E+02  0.00000000000E+00 0.  1.
         36    2    1    2    0    0 -0.14210854715E-13  0.00000000000E+00  0.41238595531E+03  0.49580958793E+03  0.27525437570E+03 0.  0.
         25    2    3    3    0    0 -0.41429315286E+02 -0.45662290232E+02  0.26159141457E+03  0.29524520393E+03  0.12222204936E+03 0.  0.
         25    2    3    3    0    0  0.41429315286E+02  0.45662290232E+02  0.15079454075E+03  0.20056438401E+03  0.11698566450E+03 0.  0.
          5    1    4    4  502    0 -0.54014634847E+02 -0.25284820123E+02  0.26402393078E+03  0.27071687965E+03  0.47000000000E+01 0.  1.
         -5    1    4    4    0  502  0.12585319561E+02 -0.20377470110E+02 -0.24325162075E+01  0.24528324273E+02  0.47000000000E+01 0.  1.
          5    1    5    5  503    0  0.36414355318E+02  0.78828810451E+02  0.65737797495E+02  0.10901162621E+03  0.47000000000E+01 0.  1.
         -5    1    5    5    0  503  0.50149599683E+01 -0.33166520219E+02  0.85056743251E+02  0.91552757792E+02  0.47000000000E+01 0.  1.
<mgrwt>
<rscale>  0 0.27525438E+03</rscale>
<asrwt>0</asrwt>
<pdfrwt beam="1">  1        2 0.69861192E-01 0.27525438E+03</pdfrwt>
<pdfrwt beam="2">  1       -2 0.64172028E-02 0.27525438E+03</pdfrwt>
<totfact> 0.91961691E+03</totfact>
</mgrwt>
</event>
<event>
 9    1  0.2031653E-002  0.2750913E+03  0.7818608E-02  0.1098401E+00
          4   -1    0    0  501    0  0.00000000000E+00  0.00000000000E+00  0.11624169160E+03  0.11624169160E+03  0.00000000000E+00 0.  1.
         -4   -1    0    0    0  501 -0.00000000000E+00 -0.00000000000E+00 -0.16275404340E+03  0.16275404340E+03  0.00000000000E+00 0.  1.
         36    2    1    2    0    0  0.00000000000E+00  0.71054273576E-14 -0.46512351795E+02  0.27899573500E+03  0.27509129626E+03 0.  0.
         25    2    3    3    0    0  0.44595347324E+02 -0.11852330107E+02 -0.44834717823E+01  0.13900046369E+03  0.13104123265E+03 0.  0.
         25    2    3    3    0    0 -0.44595347324E+02  0.11852330107E+02 -0.42028880013E+02  0.13999527131E+03  0.12531171734E+03 0.  0.
          5    1    4    4  502    0  0.45864636042E+02  0.47380099325E+02  0.27391765110E+02  0.71560026881E+02  0.47000000000E+01 0.  1.
         -5    1    4    4    0  502 -0.12692887186E+01 -0.59232429432E+02 -0.31875236893E+02  0.67440436811E+02  0.47000000000E+01 0.  1.
          5    1    5    5  503    0 -0.44904672487E+02 -0.42726967004E+02 -0.55773433124E+02  0.83515203185E+02  0.47000000000E+01 0. -1.
         -5    1    5    5    0  503  0.30932516378E+00  0.54579297111E+02  0.13744553111E+02  0.56480068125E+02  0.47000000000E+01 0. -1.
<mgrwt>
<rscale>  0 0.27509130E+03</rscale>
<asrwt>0</asrwt>
<pdfrwt beam="1">  1        4 0.17883337E-01 0.27509130E+03</pdfrwt>
<pdfrwt beam="2">  1       -4 0.25039084E-01 0.27509130E+03</pdfrwt>
<totfact> 0.77315231E+02</totfact>
</mgrwt>
</event>
<event>
 9    1  0.2031653E-002  0.2750231E+03  0.7818608E-02  0.1098439E+00
          2   -1    0    0  501    0  0.00000000000E+00  0.00000000000E+00  0.12218083388E+04  0.12218083388E+04  0.00000000000E+00 0.  1.
         -2   -1    0    0    0  501 -0.00000000000E+00 -0.00000000000E+00 -0.15476584210E+02  0.15476584210E+02  0.00000000000E+00 0.  1.
         36    2    1    2    0    0  0.00000000000E+00 -0.14210854715E-13  0.12063317546E+04  0.12372849230E+04  0.27502305099E+03 0.  0.
         25    2    3    3    0    0  0.23924511621E+02  0.32326765338E+02  0.78330979694E+03  0.79419991999E+03  0.12474723612E+03 0.  0.
         25    2    3    3    0    0 -0.23924511621E+02 -0.32326765338E+02  0.42302195766E+03  0.44308500303E+03  0.12553621482E+03 0.  0.
          5    1    4    4  502    0 -0.37699039766E+02  0.53410992338E+02  0.36910039606E+03  0.37487483788E+03  0.47000000000E+01 0. -1.
         -5    1    4    4    0  502  0.61623551387E+02 -0.21084227000E+02  0.41420940088E+03  0.41932508212E+03  0.47000000000E+01 0. -1.
          5    1    5    5  503    0 -0.45615882738E+02 -0.67379569347E+01  0.39869802905E+03  0.40138313017E+03  0.47000000000E+01 0.  1.
         -5    1    5    5    0  503  0.21691371117E+02 -0.25588808403E+02  0.24323928614E+02  0.41701872856E+02  0.47000000000E+01 0.  1.
<mgrwt>
<rscale>  0 0.27502305E+03</rscale>
<asrwt>0</asrwt>
<pdfrwt beam="1">  1        2 0.18797044E+00 0.27502305E+03</pdfrwt>
<pdfrwt beam="2">  1       -2 0.23810139E-02 0.27502305E+03</pdfrwt>
<totfact> 0.11586247E+04</totfact>
</mgrwt>
</event>
<event>
 9    1  0.2031653E-002  0.2751784E+03  0.7818608E-02  0.1098352E+00
          2   -1    0    0  501    0  0.00000000000E+00  0.00000000000E+00  0.21083388948E+03  0.21083388948E+03  0.00000000000E+00 0.  1.
         -2   -1    0    0    0  501 -0.00000000000E+00 -0.00000000000E+00 -0.89790047821E+02  0.89790047821E+02  0.00000000000E+00 0.  1.
         36    2    1    2    0    0  0.00000000000E+00  0.00000000000E+00  0.12104384166E+03  0.30062393731E+03  0.27517837865E+03 0.  0.
         25    2    3    3    0    0 -0.19621615079E+02  0.41690052795E+02  0.83827872142E+02  0.16201102631E+03  0.13075699682E+03 0.  0.
         25    2    3    3    0    0  0.19621615079E+02 -0.41690052795E+02  0.37215969522E+02  0.13861291100E+03  0.12532135663E+03 0.  0.
          5    1    4    4  502    0 -0.31198453007E+02  0.77537924785E+02  0.17399741450E+02  0.85500375745E+02  0.47000000000E+01 0.  1.
         -5    1    4    4    0  502  0.11576837928E+02 -0.35847871990E+02  0.66428130693E+02  0.76510650565E+02  0.47000000000E+01 0.  1.
          5    1    5    5  503    0 -0.98857207690E+01 -0.14133864682E+02 -0.44165061381E+02  0.47645946866E+02  0.47000000000E+01 0.  1.
         -5    1    5    5    0  503  0.29507335848E+02 -0.27556188114E+02  0.81381030902E+02  0.90966964130E+02  0.47000000000E+01 0.  1.
<mgrwt>
<rscale>  0 0.27517838E+03</rscale>
<asrwt>0</asrwt>
<pdfrwt beam="1">  1        2 0.32435983E-01 0.27517838E+03</pdfrwt>
<pdfrwt beam="2">  1       -2 0.13813854E-01 0.27517838E+03</pdfrwt>
<totfact> 0.62650145E+03</totfact>
</mgrwt>
</event>
<event>
 9    1  0.2031653E-002  0.2752016E+03  0.7818608E-02  0.1098339E+00
         -2   -1    0    0    0  501 -0.00000000000E+00  0.00000000000E+00  0.18364256025E+03  0.18364256025E+03  0.00000000000E+00 0.  1.
          2   -1    0    0  501    0  0.00000000000E+00 -0.00000000000E+00 -0.10310235443E+03  0.10310235443E+03  0.00000000000E+00 0.  1.
         36    2    1    2    0    0 -0.17763568394E-14  0.00000000000E+00  0.80540205815E+02  0.28674491468E+03  0.27520160127E+03 0.  0.
         25    2    3    3    0    0 -0.67628537371E+01  0.39984754463E+02  0.54631117875E+02  0.13983614156E+03  0.12216820644E+03 0.  0.
         25    2    3    3    0    0  0.67628537371E+01 -0.39984754463E+02  0.25909087939E+02  0.14690877313E+03  0.13880342216E+03 0.  0.
          5    1    4    4  502    0  0.32807310734E+02  0.14987918554E+02  0.78917755291E+02  0.86896832165E+02  0.47000000000E+01 0.  1.
         -5    1    4    4    0  502 -0.39570164471E+02  0.24996835909E+02 -0.24286637416E+02  0.52939309390E+02  0.47000000000E+01 0.  1.
          5    1    5    5  503    0 -0.13420904391E+02  0.71970439611E+01 -0.51503189255E+02  0.53912768616E+02  0.47000000000E+01 0.  1.
         -5    1    5    5    0  503  0.20183758128E+02 -0.47181798424E+02  0.77412277194E+02  0.92996004512E+02  0.47000000000E+01 0.  1.
<mgrwt>
<rscale>  0 0.27520160E+03</rscale>
<asrwt>0</asrwt>
<pdfrwt beam="1">  1        2 0.15861901E-01 0.27520160E+03</pdfrwt>
<pdfrwt beam="2">  1       -2 0.28252702E-01 0.27520160E+03</pdfrwt>
<totfact> 0.41354246E+03</totfact>
</mgrwt>
</event>
<event>
 9    1  0.2031653E-002  0.2758496E+03  0.7818608E-02  0.1097978E+00
         -1   -1    0    0    0  501 -0.00000000000E+00  0.00000000000E+00  0.29343424190E+03  0.29343424190E+03  0.00000000000E+00 0. -1.
          1   -1    0    0  501    0  0.00000000000E+00 -0.00000000000E+00 -0.64829677514E+02  0.64829677514E+02  0.00000000000E+00 0. -1.
         36    2    1    2    0    0 -0.14210854715E-13 -0.71054273576E-14  0.22860456439E+03  0.35826391942E+03  0.27584957694E+03 0.  0.
         25    2    3    3    0    0  0.44486672862E+02 -0.69898915676E+01  0.87268089057E+02  0.15979780510E+03  0.12606227231E+03 0.  0.
         25    2    3    3    0    0 -0.44486672862E+02  0.69898915676E+01  0.14133647533E+03  0.19846611432E+03  0.13185172212E+03 0.  0.
          5    1    4    4  502    0 -0.20628885954E+02  0.32716600005E+02 -0.57881731201E+01  0.39389336116E+02  0.47000000000E+01 0.  1.
         -5    1    4    4    0  502  0.65115558816E+02 -0.39706491572E+02  0.93056262177E+02  0.12040846899E+03  0.47000000000E+01 0.  1.
          5    1    5    5  503    0 -0.68011732090E+02 -0.45057798377E+02  0.89440444986E+02  0.12115066692E+03  0.47000000000E+01 0.  1.
         -5    1    5    5    0  503  0.23525059228E+02  0.52047689944E+02  0.51896030347E+02  0.77315447396E+02  0.47000000000E+01 0.  1.
<mgrwt>
<rscale>  0 0.27584958E+03</rscale>
<asrwt>0</asrwt>
<pdfrwt beam="1">  1        1 0.99737967E-02 0.27584958E+03</pdfrwt>
<pdfrwt beam="2">  1       -1 0.45143729E-01 0.27584958E+03</pdfrwt>
<totfact> 0.31813316E+03</totfact>
</mgrwt>
</event>
<event>
 9    1  0.2031653E-002  0.2812162E+03  0.7818608E-02  0.1095027E+00
          2   -1    0    0  501    0  0.00000000000E+00  0.00000000000E+00  0.83030601532E+03  0.83030601532E+03  0.00000000000E+00 0.  1.
         -2   -1    0    0    0  501 -0.00000000000E+00 -0.00000000000E+00 -0.23811273816E+02  0.23811273816E+02  0.00000000000E+00 0.  1.
         36    2    1    2    0    0 -0.17763568394E-14 -0.71054273576E-14  0.80649474151E+03  0.85411728914E+03  0.28121624336E+03 0.  0.
         25    2    3    3    0    0  0.37132934422E+00  0.59064355271E+02  0.38964119728E+03  0.41440506011E+03  0.12815051803E+03 0.  0.
         25    2    3    3    0    0 -0.37132934422E+00 -0.59064355271E+02  0.41685354422E+03  0.43971222903E+03  0.12685121631E+03 0.  0.
          5    1    4    4  502    0 -0.45213080979E+02 -0.14822435063E+02  0.20227652551E+03  0.20785045115E+03  0.47000000000E+01 0.  1.
         -5    1    4    4    0  502  0.45584410324E+02  0.73886790334E+02  0.18736467178E+03  0.20655460895E+03  0.47000000000E+01 0.  1.
          5    1    5    5  503    0 -0.47782533638E+01 -0.99062828709E+02  0.28746157834E+03  0.30412583704E+03  0.47000000000E+01 0.  1.
         -5    1    5    5    0  503  0.44069240196E+01  0.39998473438E+02  0.12939196589E+03  0.13558639199E+03  0.47000000000E+01 0.  1.
<mgrwt>
<rscale>  0 0.28121624E+03</rscale>
<asrwt>0</asrwt>
<pdfrwt beam="1">  1        2 0.12773936E+00 0.28121624E+03</pdfrwt>
<pdfrwt beam="2">  1       -2 0.36632735E-02 0.28121624E+03</pdfrwt>
<totfact> 0.10587419E+04</totfact>
</mgrwt>
</event>
<event>
 9    1  0.2031653E-002  0.2775626E+03  0.7818608E-02  0.1097028E+00
         -1   -1    0    0    0  501 -0.00000000000E+00  0.00000000000E+00  0.11826640581E+03  0.11826640581E+03  0.00000000000E+00 0.  1.
          1   -1    0    0  501    0  0.00000000000E+00 -0.00000000000E+00 -0.16285472907E+03  0.16285472907E+03  0.00000000000E+00 0.  1.
         36    2    1    2    0    0  0.00000000000E+00  0.00000000000E+00 -0.44588323262E+02  0.28112113488E+03  0.27756255855E+03 0.  0.
         25    2    3    3    0    0  0.28495770494E+02  0.49007350461E+02 -0.40078486824E+02  0.14140274817E+03  0.12318572462E+03 0.  0.
         25    2    3    3    0    0 -0.28495770494E+02 -0.49007350461E+02 -0.45098364385E+01  0.13971838671E+03  0.12762115665E+03 0.  0.
          5    1    4    4  502    0  0.43979030279E+02 -0.12871642392E+02  0.23073032874E+02  0.51519793557E+02  0.47000000000E+01 0. -1.
         -5    1    4    4    0  502 -0.15483259785E+02  0.61878992852E+02 -0.63151519698E+02  0.89882954614E+02  0.47000000000E+01 0. -1.
          5    1    5    5  503    0 -0.65408472238E+02  0.76916819432E+01 -0.22149641770E+02  0.69642852054E+02  0.47000000000E+01 0.  1.
         -5    1    5    5    0  503  0.36912701745E+02 -0.56699032404E+02  0.17639805332E+02  0.70075534659E+02  0.47000000000E+01 0.  1.
<mgrwt>
<rscale>  0 0.27756256E+03</rscale>
<asrwt>0</asrwt>
<pdfrwt beam="1">  1        1 0.25054574E-01 0.27756256E+03</pdfrwt>
<pdfrwt beam="2">  1       -1 0.18194832E-01 0.27756256E+03</pdfrwt>
<totfact> 0.44629970E+03</totfact>
</mgrwt>
</event>
<event>
 9    1  0.2031653E-002  0.2766976E+03  0.7818608E-02  0.1097506E+00
          1   -1    0    0  501    0  0.00000000000E+00  0.00000000000E+00  0.21870875196E+04  0.21870875196E+04  0.00000000000E+00 0.  1.
         -1   -1    0    0    0  501 -0.00000000000E+00 -0.00000000000E+00 -0.87515438338E+01  0.87515438338E+01  0.00000000000E+00 0.  1.
         36    2    1    2    0    0  0.00000000000E+00  0.71054273576E-14  0.21783359758E+04  0.21958390635E+04  0.27669761326E+03 0.  0.
         25    2    3    3    0    0  0.24772897880E+02  0.45956708817E+02  0.82831930052E+03  0.83890229657E+03  0.12214124617E+03 0.  0.
         25    2    3    3    0    0 -0.24772897880E+02 -0.45956708817E+02  0.13500166753E+04  0.13569367669E+04  0.12651739121E+03 0.  0.
          5    1    4    4  502    0 -0.23515981877E+02  0.22292759349E+02  0.68455800611E+03  0.68534058850E+03  0.47000000000E+01 0.  1.
         -5    1    4    4    0  502  0.48288879757E+02  0.23663949468E+02  0.14376129442E+03  0.15356170807E+03  0.47000000000E+01 0.  1.
          5    1    5    5  503    0  0.14159555657E+02  0.20431017458E+02  0.67188625341E+02  0.71793599060E+02  0.47000000000E+01 0. -1.
         -5    1    5    5    0  503 -0.38932453537E+02 -0.66387726275E+02  0.12828280499E+04  0.12851431678E+04  0.47000000000E+01 0. -1.
<mgrwt>
<rscale>  0 0.27669761E+03</rscale>
<asrwt>0</asrwt>
<pdfrwt beam="1">  1        1 0.33647457E+00 0.27669761E+03</pdfrwt>
<pdfrwt beam="2">  1       -1 0.13463931E-02 0.27669761E+03</pdfrwt>
<totfact> 0.31130598E+03</totfact>
</mgrwt>
</event>
<event>
 9    1  0.2031653E-002  0.2750606E+03  0.7818608E-02  0.1098418E+00
         -1   -1    0    0    0  501 -0.00000000000E+00  0.00000000000E+00  0.20454525023E+02  0.20454525023E+02  0.00000000000E+00 0.  1.
          1   -1    0    0  501    0  0.00000000000E+00 -0.00000000000E+00 -0.92471412904E+03  0.92471412904E+03  0.00000000000E+00 0.  1.
         36    2    1    2    0    0  0.35527136788E-14  0.00000000000E+00 -0.90425960401E+03  0.94516865406E+03  0.27506063544E+03 0.  0.
         25    2    3    3    0    0  0.27376477453E+02  0.37279424317E+02 -0.31334900847E+03  0.33959322518E+03  0.12246113867E+03 0.  0.
         25    2    3    3    0    0 -0.27376477453E+02 -0.37279424317E+02 -0.59091059555E+03  0.60557542888E+03  0.12412510278E+03 0.  0.
          5    1    4    4  502    0  0.69972718049E+01  0.59780122139E+02 -0.62595397627E+02  0.86964927527E+02  0.47000000000E+01 0. -1.
         -5    1    4    4    0  502  0.20379205648E+02 -0.22500697821E+02 -0.25075361084E+03  0.25262829765E+03  0.47000000000E+01 0. -1.
          5    1    5    5  503    0 -0.36327393251E+02 -0.11223303141E+02 -0.45636023245E+02  0.59585053927E+02  0.47000000000E+01 0. -1.
         -5    1    5    5    0  503  0.89509157972E+01 -0.26056121176E+02 -0.54527457230E+03  0.54599037495E+03  0.47000000000E+01 0. -1.
<mgrwt>
<rscale>  0 0.27506064E+03</rscale>
<asrwt>0</asrwt>
<pdfrwt beam="1">  1        1 0.14226368E+00 0.27506064E+03</pdfrwt>
<pdfrwt beam="2">  1       -1 0.31468508E-02 0.27506064E+03</pdfrwt>
<totfact> 0.64108447E+03</totfact>
</mgrwt>
</event>
<event>
 9    1  0.2031653E-002  0.2741935E+03  0.7818608E-02  0.1098903E+00
         -3   -1    0    0    0  501 -0.00000000000E+00  0.00000000000E+00  0.24148217752E+03  0.24148217752E+03  0.00000000000E+00 0. -1.
          3   -1    0    0  501    0  0.00000000000E+00 -0.00000000000E+00 -0.77834006236E+02  0.77834006236E+02  0.00000000000E+00 0. -1.
         36    2    1    2    0    0  0.53290705182E-14  0.71054273576E-14  0.16364817129E+03  0.31931618376E+03  0.27419354705E+03 0.  0.
         25    2    3    3    0    0 -0.60784370836E+01 -0.35388321192E+02  0.12578165828E+03  0.17867307895E+03  0.12171180267E+03 0.  0.
         25    2    3    3    0    0  0.60784370836E+01  0.35388321192E+02  0.37866513009E+02  0.14064310480E+03  0.13060371146E+03 0.  0.
          5    1    4    4  502    0  0.15412441024E+02 -0.17985920347E+02  0.14348565543E+03  0.14550347069E+03  0.47000000000E+01 0.  1.
         -5    1    4    4    0  502 -0.21490878108E+02 -0.17402400845E+02 -0.17703997153E+02  0.33169608261E+02  0.47000000000E+01 0.  1.
          5    1    5    5  503    0 -0.55043779250E+02  0.44457390651E+02  0.65585621822E+01  0.71213636023E+02  0.47000000000E+01 0.  1.
         -5    1    5    5    0  503  0.61122216333E+02 -0.90690694597E+01  0.31307950827E+02  0.69429468782E+02  0.47000000000E+01 0.  1.
<mgrwt>
<rscale>  0 0.27419355E+03</rscale>
<asrwt>0</asrwt>
<pdfrwt beam="1">  1        3 0.11974463E-01 0.27419355E+03</pdfrwt>
<pdfrwt beam="2">  1       -3 0.37151104E-01 0.27419355E+03</pdfrwt>
<totfact> 0.99291360E+02</totfact>
</mgrwt>
</event>
<event>
 9    1  0.2031653E-002  0.2753221E+03  0.7818608E-02  0.1098272E+00
          1   -1    0    0  501    0  0.00000000000E+00  0.00000000000E+00  0.96181058200E+02  0.96181058200E+02  0.00000000000E+00 0.  1.
         -1   -1    0    0    0  501 -0.00000000000E+00 -0.00000000000E+00 -0.19703006166E+03  0.19703006166E+03  0.00000000000E+00 0.  1.
         36    2    1    2    0    0 -0.14210854715E-13  0.71054273576E-14 -0.10084900346E+03  0.29321111986E+03  0.27532206470E+03 0.  0.
         25    2    3    3    0    0 -0.33305421824E+02  0.35867782669E+02 -0.30946395321E+02  0.13969046895E+03  0.12712198384E+03 0.  0.
         25    2    3    3    0    0  0.33305421824E+02 -0.35867782669E+02 -0.69902608137E+02  0.15352065091E+03  0.12761844175E+03 0.  0.
          5    1    4    4  502    0 -0.13958734335E+02  0.57593952792E+02  0.33920074879E+02  0.68443926993E+02  0.47000000000E+01 0.  1.
         -5    1    4    4    0  502 -0.19346687489E+02 -0.21726170123E+02 -0.64866470199E+02  0.71246541959E+02  0.47000000000E+01 0.  1.
          5    1    5    5  503    0 -0.42037501394E+02 -0.10193745434E+02 -0.58600981040E+02  0.72987868501E+02  0.47000000000E+01 0.  1.
         -5    1    5    5    0  503  0.75342923218E+02 -0.25674037235E+02 -0.11301627098E+02  0.80532782406E+02  0.47000000000E+01 0.  1.
<mgrwt>
<rscale>  0 0.27532206E+03</rscale>
<asrwt>0</asrwt>
<pdfrwt beam="1">  1        1 0.14797086E-01 0.27532206E+03</pdfrwt>
<pdfrwt beam="2">  1       -1 0.30312317E-01 0.27532206E+03</pdfrwt>
<totfact> 0.37880581E+03</totfact>
</mgrwt>
</event>
<event>
 9    1  0.2031653E-002  0.2746528E+03  0.7818608E-02  0.1098646E+00
         -1   -1    0    0    0  501 -0.00000000000E+00  0.00000000000E+00  0.11113379207E+03  0.11113379207E+03  0.00000000000E+00 0.  1.
          1   -1    0    0  501    0  0.00000000000E+00 -0.00000000000E+00 -0.16969224083E+03  0.16969224083E+03  0.00000000000E+00 0.  1.
         36    2    1    2    0    0  0.00000000000E+00 -0.35527136788E-14 -0.58558448768E+02  0.28082603290E+03  0.27465281508E+03 0.  0.
         25    2    3    3    0    0  0.56021619747E+02  0.29813162604E+02 -0.65858475730E+02  0.14957006497E+03  0.11834956260E+03 0.  0.
         25    2    3    3    0    0 -0.56021619747E+02 -0.29813162604E+02  0.73000269625E+01  0.13125596793E+03  0.11466295033E+03 0.  0.
          5    1    4    4  502    0  0.70170746084E+02 -0.45142791085E+01  0.37135939973E+01  0.70570483222E+02  0.47000000000E+01 0.  1.
         -5    1    4    4    0  502 -0.14149126337E+02  0.34327441713E+02 -0.69572069727E+02  0.78999581751E+02  0.47000000000E+01 0.  1.
          5    1    5    5  503    0  0.16733827231E+02 -0.24937981897E+01  0.42370075507E+02  0.45864510263E+02  0.47000000000E+01 0. -1.
         -5    1    5    5    0  503 -0.72755446977E+02 -0.27319364415E+02 -0.35070048544E+02  0.85391457663E+02  0.47000000000E+01 0. -1.
<mgrwt>
<rscale>  0 0.27465282E+03</rscale>
<asrwt>0</asrwt>
<pdfrwt beam="1">  1        1 0.26106499E-01 0.27465282E+03</pdfrwt>
<pdfrwt beam="2">  1       -1 0.17097506E-01 0.27465282E+03</pdfrwt>
<totfact> 0.46794659E+03</totfact>
</mgrwt>
</event>
<event>
 9    1  0.2031653E-002  0.2755425E+03  0.7818608E-02  0.1098149E+00
         -2   -1    0    0    0  501 -0.00000000000E+00  0.00000000000E+00  0.90304029600E+01  0.90304029600E+01  0.00000000000E+00 0.  1.
          2   -1    0    0  501    0  0.00000000000E+00 -0.00000000000E+00 -0.21018900163E+04  0.21018900163E+04  0.00000000000E+00 0.  1.
         36    2    1    2    0    0  0.35527136788E-14  0.35527136788E-14 -0.20928596134E+04  0.21109204193E+04  0.27554247459E+03 0.  0.
         25    2    3    3    0    0 -0.93261269333E+01  0.17309344863E+02 -0.14174384906E+04  0.14233559482E+04  0.12815494805E+03 0.  0.
         25    2    3    3    0    0  0.93261269333E+01 -0.17309344863E+02 -0.67542112282E+03  0.68756447110E+03  0.12714015375E+03 0.  0.
          5    1    4    4  502    0  0.45286321968E+02  0.17012540774E+02 -0.25290691568E+03  0.25753499860E+03  0.47000000000E+01 0.  1.
         -5    1    4    4    0  502 -0.54612448901E+02  0.29680408858E+00 -0.11645315749E+04  0.11658209496E+04  0.47000000000E+01 0.  1.
          5    1    5    5  503    0  0.15464943808E+02 -0.20722426594E+02 -0.67816873504E+03  0.67867776347E+03  0.47000000000E+01 0. -1.
         -5    1    5    5    0  503 -0.61388168750E+01  0.34130817307E+01  0.27476122133E+01  0.88867076243E+01  0.47000000000E+01 0. -1.
<mgrwt>
<rscale>  0 0.27554247E+03</rscale>
<asrwt>0</asrwt>
<pdfrwt beam="1">  1        2 0.32336782E+00 0.27554247E+03</pdfrwt>
<pdfrwt beam="2">  1       -2 0.13892922E-02 0.27554247E+03</pdfrwt>
<totfact> 0.86645247E+03</totfact>
</mgrwt>
</event>
<event>
 9    1  0.2031653E-002  0.2744065E+03  0.7818608E-02  0.1098784E+00
          2   -1    0    0  501    0  0.00000000000E+00  0.00000000000E+00  0.73480655320E+02  0.73480655320E+02  0.00000000000E+00 0. -1.
         -2   -1    0    0    0  501 -0.00000000000E+00 -0.00000000000E+00 -0.25618618674E+03  0.25618618674E+03  0.00000000000E+00 0. -1.
         36    2    1    2    0    0  0.71054273576E-14  0.00000000000E+00 -0.18270553142E+03  0.32966684206E+03  0.27440647868E+03 0.  0.
         25    2    3    3    0    0  0.36074202734E+02  0.30573495729E+02 -0.13820964884E+03  0.19160650703E+03  0.12399620865E+03 0.  0.
         25    2    3    3    0    0 -0.36074202734E+02 -0.30573495729E+02 -0.44495882581E+02  0.13806033503E+03  0.12183876968E+03 0.  0.
          5    1    4    4  502    0 -0.15227244729E+02  0.37376821139E+00  0.18194851900E+02  0.24189901207E+02  0.47000000000E+01 0.  1.
         -5    1    4    4    0  502  0.51301447462E+02  0.30199727518E+02 -0.15640450074E+03  0.16741660582E+03  0.47000000000E+01 0.  1.
          5    1    5    5  503    0 -0.32834211932E+02 -0.36097057464E+02 -0.84274991358E+02  0.97495882985E+02  0.47000000000E+01 0. -1.
         -5    1    5    5    0  503 -0.32399908018E+01  0.55235617348E+01  0.39779108776E+02  0.40564452045E+02  0.47000000000E+01 0. -1.
<mgrwt>
<rscale>  0 0.27440648E+03</rscale>
<asrwt>0</asrwt>
<pdfrwt beam="1">  1        2 0.11304716E-01 0.27440648E+03</pdfrwt>
<pdfrwt beam="2">  1       -2 0.39413260E-01 0.27440648E+03</pdfrwt>
<totfact> 0.33557345E+03</totfact>
</mgrwt>
</event>
<event>
 9    1  0.2031653E-002  0.2759425E+03  0.7818608E-02  0.1097926E+00
          2   -1    0    0  501    0  0.00000000000E+00  0.00000000000E+00  0.26841046529E+04  0.26841046529E+04  0.00000000000E+00 0. -1.
         -2   -1    0    0    0  501 -0.00000000000E+00 -0.00000000000E+00 -0.70921449847E+01  0.70921449847E+01  0.00000000000E+00 0. -1.
         36    2    1    2    0    0  0.71054273576E-14  0.71054273576E-14  0.26770125079E+04  0.26911967978E+04  0.27594245307E+03 0.  0.
         25    2    3    3    0    0  0.40977043673E+02  0.23745628145E+02  0.10420562910E+04  0.10507002926E+04  0.12588414655E+03 0.  0.
         25    2    3    3    0    0 -0.40977043673E+02 -0.23745628145E+02  0.16349562169E+04  0.16404965052E+04  0.12611098114E+03 0.  0.
          5    1    4    4  502    0  0.53756521300E+02  0.32241511030E+02  0.22858249054E+03  0.23706818343E+03  0.47000000000E+01 0. -1.
         -5    1    4    4    0  502 -0.12779477628E+02 -0.84958828845E+01  0.81347380048E+03  0.81363210921E+03  0.47000000000E+01 0. -1.
          5    1    5    5  503    0 -0.72802772899E+02 -0.52350659172E+02  0.12248726239E+04  0.12281595458E+04  0.47000000000E+01 0.  1.
         -5    1    5    5    0  503  0.31825729227E+02  0.28605031027E+02  0.41008359299E+03  0.41233695939E+03  0.47000000000E+01 0.  1.
<mgrwt>
<rscale>  0 0.27594245E+03</rscale>
<asrwt>0</asrwt>
<pdfrwt beam="1">  1        2 0.41293837E+00 0.27594245E+03</pdfrwt>
<pdfrwt beam="2">  1       -2 0.10911014E-02 0.27594245E+03</pdfrwt>
<totfact> 0.59529120E+03</totfact>
</mgrwt>
</event>
<event>
 9    1  0.2031653E-002  0.2751339E+03  0.7818608E-02  0.1098377E+00
          1   -1    0    0  501    0  0.00000000000E+00  0.00000000000E+00  0.49093732576E+03  0.49093732576E+03  0.00000000000E+00 0. -1.
         -1   -1    0    0    0  501 -0.00000000000E+00 -0.00000000000E+00 -0.38548040397E+02  0.38548040397E+02  0.00000000000E+00 0. -1.
         36    2    1    2    0    0  0.71054273576E-14  0.00000000000E+00  0.45238928536E+03  0.52948536616E+03  0.27513394458E+03 0.  0.
         25    2    3    3    0    0  0.55576211768E+01 -0.43031731009E+02  0.29081661161E+03  0.31966652480E+03  0.12541837371E+03 0.  0.
         25    2    3    3    0    0 -0.55576211768E+01  0.43031731009E+02  0.16157267376E+03  0.20981884136E+03  0.12663175059E+03 0.  0.
          5    1    4    4  502    0 -0.52875386091E+02 -0.34659442414E+02  0.88516336508E+02  0.10887752400E+03  0.47000000000E+01 0. -1.
         -5    1    4    4    0  502  0.58433007268E+02 -0.83722885958E+01  0.20230027510E+03  0.21078900080E+03  0.47000000000E+01 0. -1.
          5    1    5    5  503    0 -0.49897237932E+02 -0.12004694867E+02  0.11222416545E+03  0.12349170160E+03  0.47000000000E+01 0.  1.
         -5    1    5    5    0  503  0.44339616755E+02  0.55036425876E+02  0.49348508303E+02  0.86327139759E+02  0.47000000000E+01 0.  1.
<mgrwt>
<rscale>  0 0.27513394E+03</rscale>
<asrwt>0</asrwt>
<pdfrwt beam="1">  1        1 0.75528815E-01 0.27513394E+03</pdfrwt>
<pdfrwt beam="2">  1       -1 0.59304681E-02 0.27513394E+03</pdfrwt>
<totfact> 0.62630753E+03</totfact>
</mgrwt>
</event>
<event>
 9    1  0.2031653E-002  0.2753384E+03  0.7818608E-02  0.1098263E+00
         -2   -1    0    0    0  501 -0.00000000000E+00  0.00000000000E+00  0.22516578267E+02  0.22516578267E+02  0.00000000000E+00 0.  1.
          2   -1    0    0  501    0  0.00000000000E+00 -0.00000000000E+00 -0.84172714764E+03  0.84172714764E+03  0.00000000000E+00 0.  1.
         36    2    1    2    0    0  0.00000000000E+00  0.35527136788E-14 -0.81921056937E+03  0.86424372590E+03  0.27533844773E+03 0.  0.
         25    2    3    3    0    0  0.48768771775E+02  0.23196729648E+02 -0.42467859244E+03  0.44715640542E+03  0.12915286548E+03 0.  0.
         25    2    3    3    0    0 -0.48768771775E+02 -0.23196729648E+02 -0.39453197692E+03  0.41708732048E+03  0.12405591773E+03 0.  0.
          5    1    4    4  502    0  0.50968591865E+02  0.21487092626E+02 -0.57452787807E+02  0.79889957648E+02  0.47000000000E+01 0. -1.
         -5    1    4    4    0  502 -0.21998200898E+01  0.17096370221E+01 -0.36722580464E+03  0.36726644777E+03  0.47000000000E+01 0. -1.
          5    1    5    5  503    0 -0.57634287613E+02 -0.20472612061E+01 -0.38867268683E+03  0.39295604064E+03  0.47000000000E+01 0.  1.
         -5    1    5    5    0  503  0.88655158385E+01 -0.21149468442E+02 -0.58592900945E+01  0.24131279844E+02  0.47000000000E+01 0.  1.
<mgrwt>
<rscale>  0 0.27533845E+03</rscale>
<asrwt>0</asrwt>
<pdfrwt beam="1">  1        2 0.12949650E+00 0.27533845E+03</pdfrwt>
<pdfrwt beam="2">  1       -2 0.34640886E-02 0.27533845E+03</pdfrwt>
<totfact> 0.11302031E+04</totfact>
</mgrwt>
</event>
<event>
 9    1  0.2031653E-002  0.2742086E+03  0.7818608E-02  0.1098895E+00
         -1   -1    0    0    0  501 -0.00000000000E+00  0.00000000000E+00  0.10772970433E+02  0.10772970433E+02  0.00000000000E+00 0. -1.
          1   -1    0    0  501    0  0.00000000000E+00 -0.00000000000E+00 -0.17448846848E+04  0.17448846848E+04  0.00000000000E+00 0. -1.
         36    2    1    2    0    0  0.00000000000E+00  0.00000000000E+00 -0.17341117144E+04  0.17556576552E+04  0.27420861488E+03 0.  0.
         25    2    3    3    0    0 -0.34215014407E+02 -0.19504192647E+02 -0.62103882459E+03  0.63457649019E+03  0.12428603906E+03 0.  0.
         25    2    3    3    0    0  0.34215014407E+02  0.19504192647E+02 -0.11130728898E+04  0.11210811651E+04  0.12783051250E+03 0.  0.
          5    1    4    4  502    0  0.40341373517E+02 -0.10308655734E+02 -0.37361454623E+03  0.37595693098E+03  0.47000000000E+01 0. -1.
         -5    1    4    4    0  502 -0.74556387924E+02 -0.91955369132E+01 -0.24742427837E+03  0.25861955921E+03  0.47000000000E+01 0. -1.
          5    1    5    5  503    0  0.62336342111E+02 -0.26997438652E+02 -0.83083010850E+03  0.83361588303E+03  0.47000000000E+01 0.  1.
         -5    1    5    5    0  503 -0.28121327704E+02  0.46501631299E+02 -0.28224278128E+03  0.28746528202E+03  0.47000000000E+01 0.  1.
<mgrwt>
<rscale>  0 0.27420861E+03</rscale>
<asrwt>0</asrwt>
<pdfrwt beam="1">  1        1 0.26844387E+00 0.27420861E+03</pdfrwt>
<pdfrwt beam="2">  1       -1 0.16573796E-02 0.27420861E+03</pdfrwt>
<totfact> 0.44598208E+03</totfact>
</mgrwt>
</event>
<event>
 9    1  0.2031653E-002  0.2753987E+03  0.7818608E-02  0.1098229E+00
          2   -1    0    0  501    0  0.00000000000E+00  0.00000000000E+00  0.30062318238E+03  0.30062318238E+03  0.00000000000E+00 0. -1.
         -2   -1    0    0    0  501 -0.00000000000E+00 -0.00000000000E+00 -0.63072691214E+02  0.63072691214E+02  0.00000000000E+00 0. -1.
         36    2    1    2    0    0  0.35527136788E-14  0.00000000000E+00  0.23755049117E+03  0.36369587360E+03  0.27539871571E+03 0.  0.
         25    2    3    3    0    0 -0.22121270081E+02  0.25623246335E+02  0.16626211128E+03  0.21632482666E+03  0.13419180168E+03 0.  0.
         25    2    3    3    0    0  0.22121270081E+02 -0.25623246335E+02  0.71288379885E+02  0.14737104694E+03  0.12445999770E+03 0.  0.
          5    1    4    4  502    0 -0.43362588785E+02 -0.25371735064E+02  0.11252353113E+02  0.51698592794E+02  0.47000000000E+01 0. -1.
         -5    1    4    4    0  502  0.21241318704E+02  0.50994981399E+02  0.15500975817E+03  0.16462623386E+03  0.47000000000E+01 0. -1.
          5    1    5    5  503    0 -0.33654732821E+02  0.33183377661E+02  0.31193514067E+02  0.56823436311E+02  0.47000000000E+01 0. -1.
         -5    1    5    5    0  503  0.55776002902E+02 -0.58806623996E+02  0.40094865818E+02  0.90547610628E+02  0.47000000000E+01 0. -1.
<mgrwt>
<rscale>  0 0.27539872E+03</rscale>
<asrwt>0</asrwt>
<pdfrwt beam="1">  1        2 0.46249720E-01 0.27539872E+03</pdfrwt>
<pdfrwt beam="2">  1       -2 0.97034911E-02 0.27539872E+03</pdfrwt>
<totfact> 0.75399003E+03</totfact>
</mgrwt>
</event>
<event>
 9    1  0.2031653E-002  0.2750346E+03  0.7818608E-02  0.1098432E+00
          2   -1    0    0  501    0  0.00000000000E+00  0.00000000000E+00  0.23485818516E+04  0.23485818516E+04  0.00000000000E+00 0. -1.
         -2   -1    0    0    0  501 -0.00000000000E+00 -0.00000000000E+00 -0.80520946742E+01  0.80520946742E+01  0.00000000000E+00 0. -1.
         36    2    1    2    0    0 -0.71054273576E-14 -0.17763568394E-14  0.23405297570E+04  0.23566339463E+04  0.27503456815E+03 0.  0.
         25    2    3    3    0    0 -0.37128326711E+02  0.85529910020E+01  0.11378035301E+04  0.11448751199E+04  0.12120437543E+03 0.  0.
         25    2    3    3    0    0  0.37128326711E+02 -0.85529910020E+01  0.12027262268E+04  0.12117588265E+04  0.14267939741E+03 0.  0.
          5    1    4    4  502    0 -0.26647271228E+02 -0.23280611845E+02  0.10524780893E+04  0.10530832267E+04  0.47000000000E+01 0.  1.
         -5    1    4    4    0  502 -0.10481055483E+02  0.31833602847E+02  0.85325440808E+02  0.91791893125E+02  0.47000000000E+01 0.  1.
          5    1    5    5  503    0  0.74461853736E+02 -0.22352775675E+02  0.37199187314E+03  0.38005822965E+03  0.47000000000E+01 0. -1.
         -5    1    5    5    0  503 -0.37333527025E+02  0.13799784673E+02  0.83073435370E+03  0.83170059680E+03  0.47000000000E+01 0. -1.
<mgrwt>
<rscale>  0 0.27503457E+03</rscale>
<asrwt>0</asrwt>
<pdfrwt beam="1">  1        2 0.36131974E+00 0.27503457E+03</pdfrwt>
<pdfrwt beam="2">  1       -2 0.12387857E-02 0.27503457E+03</pdfrwt>
<totfact> 0.75659314E+03</totfact>
</mgrwt>
</event>
<event>
 9    1  0.2031653E-002  0.2722762E+03  0.7818608E-02  0.1099984E+00
          2   -1    0    0  501    0  0.00000000000E+00  0.00000000000E+00  0.72986549153E+02  0.72986549153E+02  0.00000000000E+00 0. -1.
         -2   -1    0    0    0  501 -0.00000000000E+00 -0.00000000000E+00 -0.25393154302E+03  0.25393154302E+03  0.00000000000E+00 0. -1.
         36    2    1    2    0    0 -0.71054273576E-14  0.35527136788E-14 -0.18094499387E+03  0.32691809218E+03  0.27227623507E+03 0.  0.
         25    2    3    3    0    0 -0.10550814351E+02 -0.17413034884E-01 -0.23613779243E+02  0.12709157937E+03  0.12443206577E+03 0.  0.
         25    2    3    3    0    0  0.10550814351E+02  0.17413034884E-01 -0.15733121463E+03  0.19982651280E+03  0.12274446682E+03 0.  0.
          5    1    4    4  502    0  0.37096771603E+02 -0.45454646950E+02 -0.12030271814E+02  0.60075892275E+02  0.47000000000E+01 0. -1.
         -5    1    4    4    0  502 -0.47647585954E+02  0.45437233915E+02 -0.11583507429E+02  0.67015687100E+02  0.47000000000E+01 0. -1.
          5    1    5    5  503    0  0.66314341396E+02  0.45331298401E+01 -0.77139930348E+02  0.10193527356E+03  0.47000000000E+01 0. -1.
         -5    1    5    5    0  503 -0.55763527045E+02 -0.45157168052E+01 -0.80191284281E+02  0.97891239247E+02  0.47000000000E+01 0. -1.
<mgrwt>
<rscale>  0 0.27227624E+03</rscale>
<asrwt>0</asrwt>
<pdfrwt beam="1">  1        2 0.11228700E-01 0.27227624E+03</pdfrwt>
<pdfrwt beam="2">  1       -2 0.39066391E-01 0.27227624E+03</pdfrwt>
<totfact> 0.34401625E+03</totfact>
</mgrwt>
</event>
<event>
 9    1  0.2031653E-002  0.2754769E+03  0.7818608E-02  0.1098185E+00
          1   -1    0    0  501    0  0.00000000000E+00  0.00000000000E+00  0.20762642270E+03  0.20762642270E+03  0.00000000000E+00 0. -1.
         -1   -1    0    0    0  501 -0.00000000000E+00 -0.00000000000E+00 -0.91375076195E+02  0.91375076195E+02  0.00000000000E+00 0. -1.
         36    2    1    2    0    0  0.00000000000E+00  0.35527136788E-14  0.11625134651E+03  0.29900149890E+03  0.27547689700E+03 0.  0.
         25    2    3    3    0    0  0.12608285740E+02 -0.10475526519E+02  0.10610338746E+03  0.17099195561E+03  0.13308498987E+03 0.  0.
         25    2    3    3    0    0 -0.12608285740E+02  0.10475526519E+02  0.10147959049E+02  0.12800954328E+03  0.12654942344E+03 0.  0.
          5    1    4    4  502    0 -0.18359855155E+02  0.25073529167E+02  0.11802252015E+03  0.12213587273E+03  0.47000000000E+01 0.  1.
         -5    1    4    4    0  502  0.30968140895E+02 -0.35549055686E+02 -0.11919132688E+02  0.48856082883E+02  0.47000000000E+01 0.  1.
          5    1    5    5  503    0 -0.27984413126E+02 -0.34443668088E+02 -0.39178631782E+02  0.59384752569E+02  0.47000000000E+01 0. -1.
         -5    1    5    5    0  503  0.15376127386E+02  0.44919194608E+02  0.49326590831E+02  0.68624790714E+02  0.47000000000E+01 0. -1.
<mgrwt>
<rscale>  0 0.27547690E+03</rscale>
<asrwt>0</asrwt>
<pdfrwt beam="1">  1        1 0.31942526E-01 0.27547690E+03</pdfrwt>
<pdfrwt beam="2">  1       -1 0.14057704E-01 0.27547690E+03</pdfrwt>
<totfact> 0.49514718E+03</totfact>
</mgrwt>
</event>
<event>
 9    1  0.2031653E-002  0.2746165E+03  0.7818608E-02  0.1098666E+00
          2   -1    0    0  501    0  0.00000000000E+00  0.00000000000E+00  0.21407066782E+03  0.21407066782E+03  0.00000000000E+00 0.  1.
         -2   -1    0    0    0  501 -0.00000000000E+00 -0.00000000000E+00 -0.88071641319E+02  0.88071641319E+02  0.00000000000E+00 0.  1.
         36    2    1    2    0    0  0.71054273576E-14  0.00000000000E+00  0.12599902651E+03  0.30214230914E+03  0.27461649676E+03 0.  0.
         25    2    3    3    0    0 -0.47660742060E+02  0.81030674631E+01  0.45842871506E+02  0.14221356329E+03  0.12564204185E+03 0.  0.
         25    2    3    3    0    0  0.47660742060E+02 -0.81030674631E+01  0.80156154999E+02  0.15992874585E+03  0.12967262059E+03 0.  0.
          5    1    4    4  502    0 -0.10589495305E+02  0.45893390261E+02  0.69461795776E+02  0.84055765732E+02  0.47000000000E+01 0. -1.
         -5    1    4    4    0  502 -0.37071246755E+02 -0.37790322798E+02 -0.23618924270E+02  0.58157797558E+02  0.47000000000E+01 0. -1.
          5    1    5    5  503    0  0.51455707396E+02 -0.38405583644E+02 -0.95187843275E+01  0.65079765932E+02  0.47000000000E+01 0.  1.
         -5    1    5    5    0  503 -0.37949653360E+01  0.30302516181E+02  0.89674939327E+02  0.94848979921E+02  0.47000000000E+01 0.  1.
<mgrwt>
<rscale>  0 0.27461650E+03</rscale>
<asrwt>0</asrwt>
<pdfrwt beam="1">  1        2 0.32933949E-01 0.27461650E+03</pdfrwt>
<pdfrwt beam="2">  1       -2 0.13549483E-01 0.27461650E+03</pdfrwt>
<totfact> 0.63592365E+03</totfact>
</mgrwt>
</event>
<event>
 9    1  0.2031653E-002  0.2753774E+03  0.7818608E-02  0.1098241E+00
         -1   -1    0    0    0  501 -0.00000000000E+00  0.00000000000E+00  0.13714217894E+02  0.13714217894E+02  0.00000000000E+00 0. -1.
          1   -1    0    0  501    0  0.00000000000E+00 -0.00000000000E+00 -0.13823742547E+04  0.13823742547E+04  0.00000000000E+00 0. -1.
         36    2    1    2    0    0 -0.71054273576E-14  0.00000000000E+00 -0.13686600368E+04  0.13960884726E+04  0.27537742639E+03 0.  0.
         25    2    3    3    0    0  0.26898840874E+02 -0.30745895858E+02 -0.37495846444E+03  0.39674881482E+03  0.12307280063E+03 0.  0.
         25    2    3    3    0    0 -0.26898840874E+02  0.30745895858E+02 -0.99370157239E+03  0.99933965779E+03  0.97816557496E+02 0.  0.
          5    1    4    4  502    0  0.66778942840E+02 -0.36581588095E+02 -0.31665370301E+03  0.32571352048E+03  0.47000000000E+01 0. -1.
         -5    1    4    4    0  502 -0.39880101967E+02  0.58356922375E+01 -0.58304761428E+02  0.71035294339E+02  0.47000000000E+01 0. -1.
          5    1    5    5  503    0 -0.49069605512E+02  0.30362945030E+02 -0.92863586031E+03  0.93043881350E+03  0.47000000000E+01 0.  1.
         -5    1    5    5    0  503  0.22170764638E+02  0.38295082794E+00 -0.65065712076E+02  0.68900844290E+02  0.47000000000E+01 0.  1.
<mgrwt>
<rscale>  0 0.27537743E+03</rscale>
<asrwt>0</asrwt>
<pdfrwt beam="1">  1        1 0.21267296E+00 0.27537743E+03</pdfrwt>
<pdfrwt beam="2">  1       -1 0.21098797E-02 0.27537743E+03</pdfrwt>
<totfact> 0.54380350E+03</totfact>
</mgrwt>
</event>
<event>
 9    1  0.2031653E-002  0.2768234E+03  0.7818608E-02  0.1097437E+00
          2   -1    0    0  501    0  0.00000000000E+00  0.00000000000E+00  0.61439167737E+03  0.61439167737E+03  0.00000000000E+00 0.  1.
         -2   -1    0    0    0  501 -0.00000000000E+00 -0.00000000000E+00 -0.31181731055E+02  0.31181731055E+02  0.00000000000E+00 0.  1.
         36    2    1    2    0    0 -0.35527136788E-14  0.00000000000E+00  0.58320994631E+03  0.64557340842E+03  0.27682338085E+03 0.  0.
         25    2    3    3    0    0 -0.26076907212E+02  0.21406119385E+02  0.39729203022E+03  0.41944920615E+03  0.13022462220E+03 0.  0.
         25    2    3    3    0    0  0.26076907212E+02 -0.21406119385E+02  0.18591791610E+03  0.22612420227E+03  0.12421133721E+03 0.  0.
          5    1    4    4  502    0  0.71661024544E+01  0.29226233665E+02  0.12187287257E+02  0.32804660176E+02  0.47000000000E+01 0.  1.
         -5    1    4    4    0  502 -0.33243009666E+02 -0.78201142794E+01  0.38510474296E+03  0.38664454597E+03  0.47000000000E+01 0.  1.
          5    1    5    5  503    0  0.37902953168E+02  0.42514591294E+02  0.12255257992E+03  0.13522333075E+03  0.47000000000E+01 0.  1.
         -5    1    5    5    0  503 -0.11826045956E+02 -0.63920710679E+02  0.63365336171E+02  0.90900871529E+02  0.47000000000E+01 0.  1.
<mgrwt>
<rscale>  0 0.27682338E+03</rscale>
<asrwt>0</asrwt>
<pdfrwt beam="1">  1        2 0.94521787E-01 0.27682338E+03</pdfrwt>
<pdfrwt beam="2">  1       -2 0.47971899E-02 0.27682338E+03</pdfrwt>
<totfact> 0.10190227E+04</totfact>
</mgrwt>
</event>
<event>
 9    1  0.2031653E-002  0.2750732E+03  0.7818608E-02  0.1098411E+00
         -1   -1    0    0    0  501 -0.00000000000E+00  0.00000000000E+00  0.17148428817E+02  0.17148428817E+02  0.00000000000E+00 0. -1.
          1   -1    0    0  501    0  0.00000000000E+00 -0.00000000000E+00 -0.11030929894E+04  0.11030929894E+04  0.00000000000E+00 0. -1.
         36    2    1    2    0    0 -0.10658141036E-13  0.71054273576E-14 -0.10859445606E+04  0.11202414183E+04  0.27507316560E+03 0.  0.
         25    2    3    3    0    0 -0.22547220927E+02  0.24633101949E+02 -0.74122624746E+03  0.75245687706E+03  0.12513926252E+03 0.  0.
         25    2    3    3    0    0  0.22547220927E+02 -0.24633101949E+02 -0.34471831317E+03  0.36778454121E+03  0.12377231691E+03 0.  0.
          5    1    4    4  502    0 -0.59917356607E+02 -0.92848816749E+01 -0.58640378486E+03  0.58954879997E+03  0.47000000000E+01 0. -1.
         -5    1    4    4    0  502  0.37370135680E+02  0.33917983624E+02 -0.15482246260E+03  0.16290807709E+03  0.47000000000E+01 0. -1.
          5    1    5    5  503    0  0.32053886204E+02 -0.97986491315E+01 -0.34766849816E+03  0.34931209506E+03  0.47000000000E+01 0.  1.
         -5    1    5    5    0  503 -0.95066652767E+01 -0.14834452817E+02  0.29501849893E+01  0.18472446144E+02  0.47000000000E+01 0.  1.
<mgrwt>
<rscale>  0 0.27507317E+03</rscale>
<asrwt>0</asrwt>
<pdfrwt beam="1">  1        1 0.16970657E+00 0.27507317E+03</pdfrwt>
<pdfrwt beam="2">  1       -1 0.26382205E-02 0.27507317E+03</pdfrwt>
<totfact> 0.61207664E+03</totfact>
</mgrwt>
</event>
<event>
 9    1  0.2031653E-002  0.2766413E+03  0.7818608E-02  0.1097538E+00
         -2   -1    0    0    0  501 -0.00000000000E+00  0.00000000000E+00  0.88936954515E+01  0.88936954515E+01  0.00000000000E+00 0. -1.
          2   -1    0    0  501    0  0.00000000000E+00 -0.00000000000E+00 -0.21512540056E+04  0.21512540056E+04  0.00000000000E+00 0. -1.
         36    2    1    2    0    0 -0.71054273576E-14  0.00000000000E+00 -0.21423603101E+04  0.21601477010E+04  0.27664126926E+03 0.  0.
         25    2    3    3    0    0  0.54653047581E+02  0.25392518922E+02 -0.11458827615E+04  0.11543805973E+04  0.12615674651E+03 0.  0.
         25    2    3    3    0    0 -0.54653047581E+02 -0.25392518922E+02 -0.99647754862E+03  0.10057671037E+04  0.12234470321E+03 0.  0.
          5    1    4    4  502    0  0.82594048901E+02  0.51445615189E+02 -0.93047320315E+03  0.93555913764E+03  0.47000000000E+01 0.  1.
         -5    1    4    4    0  502 -0.27941001320E+02 -0.26053096267E+02 -0.21540955836E+03  0.21882145967E+03  0.47000000000E+01 0.  1.
          5    1    5    5  503    0 -0.57183552258E+02 -0.65948313177E+02 -0.49797609370E+03  0.50559016857E+03  0.47000000000E+01 0. -1.
         -5    1    5    5    0  503  0.25305046771E+01  0.40555794255E+02 -0.49850145493E+03  0.50017693516E+03  0.47000000000E+01 0. -1.
<mgrwt>
<rscale>  0 0.27664127E+03</rscale>
<asrwt>0</asrwt>
<pdfrwt beam="1">  1        2 0.33096236E+00 0.27664127E+03</pdfrwt>
<pdfrwt beam="2">  1       -2 0.13682600E-02 0.27664127E+03</pdfrwt>
<totfact> 0.83425196E+03</totfact>
</mgrwt>
</event>
<event>
 9    1  0.2031653E-002  0.2618701E+03  0.7818608E-02  0.1106025E+00
          2   -1    0    0  501    0  0.00000000000E+00  0.00000000000E+00  0.15067430261E+04  0.15067430261E+04  0.00000000000E+00 0.  1.
         -2   -1    0    0    0  501 -0.00000000000E+00 -0.00000000000E+00 -0.11378175926E+02  0.11378175926E+02  0.00000000000E+00 0.  1.
         36    2    1    2    0    0  0.17763568394E-14 -0.14210854715E-13  0.14953648502E+04  0.15181212020E+04  0.26187009930E+03 0.  0.
         25    2    3    3    0    0 -0.87290870591E+01  0.56339273128E+02  0.88751667443E+03  0.89688721250E+03  0.11606254299E+03 0.  0.
         25    2    3    3    0    0  0.87290870591E+01 -0.56339273128E+02  0.60784817575E+03  0.62123398954E+03  0.11489975778E+03 0.  0.
          5    1    4    4  502    0 -0.44158234505E+00  0.17950344199E+01 -0.21572822440E+01  0.54919040611E+01  0.47000000000E+01 0.  1.
         -5    1    4    4    0  502 -0.82875047140E+01  0.54544238708E+02  0.88967395668E+03  0.89139530843E+03  0.47000000000E+01 0.  1.
          5    1    5    5  503    0  0.27898027671E+02  0.25520021727E+02  0.11242291974E+03  0.11870372504E+03  0.47000000000E+01 0. -1.
         -5    1    5    5    0  503 -0.19168940612E+02 -0.81859294855E+02  0.49542525601E+03  0.50253026449E+03  0.47000000000E+01 0. -1.
<mgrwt>
<rscale>  0 0.26187010E+03</rscale>
<asrwt>0</asrwt>
<pdfrwt beam="1">  1        2 0.23180646E+00 0.26187010E+03</pdfrwt>
<pdfrwt beam="2">  1       -2 0.17504898E-02 0.26187010E+03</pdfrwt>
<totfact> 0.12707574E+04</totfact>
</mgrwt>
</event>
<event>
 9    1  0.2031653E-002  0.2755818E+03  0.7818608E-02  0.1098127E+00
         -2   -1    0    0    0  501 -0.00000000000E+00  0.00000000000E+00  0.40876631154E+02  0.40876631154E+02  0.00000000000E+00 0. -1.
          2   -1    0    0  501    0  0.00000000000E+00 -0.00000000000E+00 -0.46447893933E+03  0.46447893933E+03  0.00000000000E+00 0. -1.
         36    2    1    2    0    0  0.00000000000E+00  0.00000000000E+00 -0.42360230817E+03  0.50535557048E+03  0.27558181567E+03 0.  0.
         25    2    3    3    0    0 -0.51404298056E+02  0.28655468597E+02 -0.22935322943E+03  0.26755188197E+03  0.12456953062E+03 0.  0.
         25    2    3    3    0    0  0.51404298056E+02 -0.28655468597E+02 -0.19424907875E+03  0.23780368851E+03  0.12391267867E+03 0.  0.
          5    1    4    4  502    0 -0.73519259984E+02  0.65412469081E+01 -0.59902004274E+02  0.95174626953E+02  0.47000000000E+01 0. -1.
         -5    1    4    4    0  502  0.22114961928E+02  0.22114221689E+02 -0.16945122515E+03  0.17237725502E+03  0.47000000000E+01 0. -1.
          5    1    5    5  503    0 -0.32945503091E+02 -0.98967274646E+01 -0.13215281952E+02  0.37149496168E+02  0.47000000000E+01 0. -1.
         -5    1    5    5    0  503  0.84349801147E+02 -0.18758741132E+02 -0.18103379680E+03  0.20065419234E+03  0.47000000000E+01 0. -1.
<mgrwt>
<rscale>  0 0.27558182E+03</rscale>
<asrwt>0</asrwt>
<pdfrwt beam="1">  1        2 0.71458296E-01 0.27558182E+03</pdfrwt>
<pdfrwt beam="2">  1       -2 0.62887127E-02 0.27558182E+03</pdfrwt>
<totfact> 0.92535981E+03</totfact>
</mgrwt>
</event>
<event>
 9    1  0.2031653E-002  0.2742480E+03  0.7818608E-02  0.1098873E+00
         -2   -1    0    0    0  501 -0.00000000000E+00  0.00000000000E+00  0.38928920716E+02  0.38928920716E+02  0.00000000000E+00 0. -1.
          2   -1    0    0  501    0  0.00000000000E+00 -0.00000000000E+00 -0.48300840363E+03  0.48300840363E+03  0.00000000000E+00 0. -1.
         36    2    1    2    0    0  0.17763568394E-14  0.71054273576E-14 -0.44407948292E+03  0.52193732435E+03  0.27424803263E+03 0.  0.
         25    2    3    3    0    0 -0.45578190121E+01 -0.50548734699E+02 -0.27140997751E+03  0.30242161586E+03  0.12336737637E+03 0.  0.
         25    2    3    3    0    0  0.45578190121E+01  0.50548734699E+02 -0.17266950541E+03  0.21951570849E+03  0.12568388872E+03 0.  0.
          5    1    4    4  502    0 -0.19438565556E+02 -0.55840164365E+02 -0.42617339367E+02  0.73036356713E+02  0.47000000000E+01 0.  1.
         -5    1    4    4    0  502  0.14880746544E+02  0.52914296663E+01 -0.22879263814E+03  0.22938525914E+03  0.47000000000E+01 0.  1.
          5    1    5    5  503    0 -0.13268809216E+02  0.13581037542E+02  0.16683695473E+02  0.25708783973E+02  0.47000000000E+01 0. -1.
         -5    1    5    5    0  503  0.17826628228E+02  0.36967697157E+02 -0.18935320088E+03  0.19380692452E+03  0.47000000000E+01 0. -1.
<mgrwt>
<rscale>  0 0.27424803E+03</rscale>
<asrwt>0</asrwt>
<pdfrwt beam="1">  1        2 0.74308982E-01 0.27424803E+03</pdfrwt>
<pdfrwt beam="2">  1       -2 0.59890650E-02 0.27424803E+03</pdfrwt>
<totfact> 0.95490332E+03</totfact>
</mgrwt>
</event>
<event>
 9    1  0.2031653E-002  0.2747231E+03  0.7818608E-02  0.1098606E+00
          2   -1    0    0  501    0  0.00000000000E+00  0.00000000000E+00  0.10347634952E+04  0.10347634952E+04  0.00000000000E+00 0.  1.
         -2   -1    0    0    0  501 -0.00000000000E+00 -0.00000000000E+00 -0.18234310143E+02  0.18234310143E+02  0.00000000000E+00 0.  1.
         36    2    1    2    0    0  0.35527136788E-14 -0.71054273576E-14  0.10165291851E+04  0.10529978054E+04  0.27472312241E+03 0.  0.
         25    2    3    3    0    0 -0.81854096775E+01  0.56469983248E+02  0.51757424369E+03  0.53588356483E+03  0.12661847174E+03 0.  0.
         25    2    3    3    0    0  0.81854096775E+01 -0.56469983248E+02  0.49895494138E+03  0.51711424053E+03  0.12326899159E+03 0.  0.
          5    1    4    4  502    0 -0.36365635151E+02  0.80657117731E+02  0.24067479019E+03  0.25646534794E+03  0.47000000000E+01 0. -1.
         -5    1    4    4    0  502  0.28180225474E+02 -0.24187134483E+02  0.27689945350E+03  0.27941821689E+03  0.47000000000E+01 0. -1.
          5    1    5    5  503    0 -0.21205665798E+02 -0.15014581986E+01  0.39648803968E+03  0.39708536897E+03  0.47000000000E+01 0. -1.
         -5    1    5    5    0  503  0.29391075476E+02 -0.54968525049E+02  0.10246690170E+03  0.12002887156E+03  0.47000000000E+01 0. -1.
<mgrwt>
<rscale>  0 0.27472312E+03</rscale>
<asrwt>0</asrwt>
<pdfrwt beam="1">  1        2 0.15919434E+00 0.27472312E+03</pdfrwt>
<pdfrwt beam="2">  1       -2 0.28052793E-02 0.27472312E+03</pdfrwt>
<totfact> 0.11677264E+04</totfact>
</mgrwt>
</event>
<event>
 9    1  0.2031653E-002  0.2750712E+03  0.7818608E-02  0.1098412E+00
         -4   -1    0    0    0  501 -0.00000000000E+00  0.00000000000E+00  0.69786808109E+03  0.69786808109E+03  0.00000000000E+00 0. -1.
          4   -1    0    0  501    0  0.00000000000E+00 -0.00000000000E+00 -0.27105477110E+02  0.27105477110E+02  0.00000000000E+00 0. -1.
         36    2    1    2    0    0  0.00000000000E+00  0.14210854715E-13  0.67076260398E+03  0.72497355820E+03  0.27507124384E+03 0.  0.
         25    2    3    3    0    0 -0.37270705943E+02 -0.13609076256E+02  0.47469216025E+03  0.49212494756E+03  0.12361231545E+03 0.  0.
         25    2    3    3    0    0  0.37270705943E+02  0.13609076256E+02  0.19607044372E+03  0.23284861063E+03  0.11916603582E+03 0.  0.
          5    1    4    4  502    0 -0.79071010966E+02 -0.25006927884E+02  0.25620372896E+03  0.26933253044E+03  0.47000000000E+01 0. -1.
         -5    1    4    4    0  502  0.41800305023E+02  0.11397851627E+02  0.21848843129E+03  0.22279241713E+03  0.47000000000E+01 0. -1.
          5    1    5    5  503    0  0.29273141089E+02 -0.50939852967E+02  0.75600023785E+02  0.95860518493E+02  0.47000000000E+01 0.  1.
         -5    1    5    5    0  503  0.79975648538E+01  0.64548929223E+02  0.12047041994E+03  0.13698809214E+03  0.47000000000E+01 0.  1.
<mgrwt>
<rscale>  0 0.27507124E+03</rscale>
<asrwt>0</asrwt>
<pdfrwt beam="1">  1        4 0.41700739E-02 0.27507124E+03</pdfrwt>
<pdfrwt beam="2">  1       -4 0.10736431E+00 0.27507124E+03</pdfrwt>
<totfact> 0.43254186E+02</totfact>
</mgrwt>
</event>
<event>
 9    1  0.2031653E-002  0.2753956E+03  0.7818608E-02  0.1098231E+00
          1   -1    0    0  501    0  0.00000000000E+00  0.00000000000E+00  0.90225875457E+03  0.90225875457E+03  0.00000000000E+00 0.  1.
         -1   -1    0    0    0  501 -0.00000000000E+00 -0.00000000000E+00 -0.21014691576E+02  0.21014691576E+02  0.00000000000E+00 0.  1.
         36    2    1    2    0    0  0.00000000000E+00 -0.35527136788E-14  0.88124406299E+03  0.92327344615E+03  0.27539563867E+03 0.  0.
         25    2    3    3    0    0  0.44623362788E+02 -0.29138646500E+02  0.46648603438E+03  0.48676694825E+03  0.12842327051E+03 0.  0.
         25    2    3    3    0    0 -0.44623362788E+02  0.29138646500E+02  0.41475802861E+03  0.43650649790E+03  0.12519343107E+03 0.  0.
          5    1    4    4  502    0 -0.44646942660E+02 -0.65107425829E+01  0.12229344938E+03  0.13043587321E+03  0.47000000000E+01 0.  1.
         -5    1    4    4    0  502  0.89270305449E+02 -0.22627903917E+02  0.34419258500E+03  0.35633107504E+03  0.47000000000E+01 0.  1.
          5    1    5    5  503    0 -0.21081924098E+02 -0.42138591413E+02  0.76352357807E+02  0.89843647258E+02  0.47000000000E+01 0. -1.
         -5    1    5    5    0  503 -0.23541438690E+02  0.71277237913E+02  0.33840567081E+03  0.34666285064E+03  0.47000000000E+01 0. -1.
<mgrwt>
<rscale>  0 0.27539564E+03</rscale>
<asrwt>0</asrwt>
<pdfrwt beam="1">  1        1 0.13880901E+00 0.27539564E+03</pdfrwt>
<pdfrwt beam="2">  1       -1 0.32330302E-02 0.27539564E+03</pdfrwt>
<totfact> 0.64136414E+03</totfact>
</mgrwt>
</event>
<event>
 8    1  0.2031653E-002  0.2919313E+03  0.7818608E-02  0.1089345E+00
          1   -1    0    0  501    0  0.00000000000E+00  0.00000000000E+00  0.90860857776E+02  0.90860857776E+02  0.00000000000E+00 0. -1.
         -1   -1    0    0    0  501 -0.00000000000E+00 -0.00000000000E+00 -0.23449014559E+03  0.23449014559E+03  0.00000000000E+00 0. -1.
         25    2    1    2    0    0 -0.12412328453E+02  0.54603393287E+02 -0.13323999778E+03  0.18930914905E+03  0.12226798621E+03 0.  0.
         25    2    1    2    0    0  0.12412328453E+02 -0.54603393287E+02 -0.10389290039E+02  0.13604185432E+03  0.12354696404E+03 0.  0.
          5    1    3    3  502    0 -0.24504922883E+02  0.39282240635E+02  0.75062043550E+01  0.47138294185E+02  0.47000000000E+01 0. -1.
         -5    1    3    3    0  502  0.12092594430E+02  0.15321152651E+02 -0.14074620213E+03  0.14217085487E+03  0.47000000000E+01 0. -1.
          5    1    4    4  503    0  0.37669871190E+02  0.13004421159E+02  0.32778927294E+02  0.51813919362E+02  0.47000000000E+01 0.  1.
         -5    1    4    4    0  503 -0.25257542737E+02 -0.67607814445E+02 -0.43168217334E+02  0.84227934956E+02  0.47000000000E+01 0.  1.
<mgrwt>
<rscale>  0 0.29193133E+03</rscale>
<asrwt>0</asrwt>
<pdfrwt beam="1">  1        1 0.13978594E-01 0.29193133E+03</pdfrwt>
<pdfrwt beam="2">  1       -1 0.36075406E-01 0.29193133E+03</pdfrwt>
<totfact> 0.30281338E+03</totfact>
</mgrwt>
</event>
<event>
 9    1  0.2031653E-002  0.2755355E+03  0.7818608E-02  0.1098153E+00
          2   -1    0    0  501    0  0.00000000000E+00  0.00000000000E+00  0.13801781243E+03  0.13801781243E+03  0.00000000000E+00 0. -1.
         -2   -1    0    0    0  501 -0.00000000000E+00 -0.00000000000E+00 -0.13751809253E+03  0.13751809253E+03  0.00000000000E+00 0. -1.
         36    2    1    2    0    0  0.14210854715E-13  0.00000000000E+00  0.49971990103E+00  0.27553590496E+03  0.27553545181E+03 0.  0.
         25    2    3    3    0    0 -0.54673399097E+02 -0.20178209515E+02 -0.72030049089E+02  0.15198159999E+03  0.12047297646E+03 0.  0.
         25    2    3    3    0    0  0.54673399097E+02  0.20178209515E+02  0.72529768990E+02  0.12355430497E+03  0.81294269038E+02 0.  0.
          5    1    4    4  502    0 -0.82636092100E+02 -0.14203455330E+02 -0.85659514733E+02  0.11995876093E+03  0.47000000000E+01 0.  1.
         -5    1    4    4    0  502  0.27962693003E+02 -0.59747541858E+01  0.13629465644E+02  0.32022839057E+02  0.47000000000E+01 0.  1.
          5    1    5    5  503    0  0.69119643602E+02  0.35236877195E+02  0.63372557574E+02  0.10028625878E+03  0.47000000000E+01 0. -1.
         -5    1    5    5    0  503 -0.14446244506E+02 -0.15058667679E+02  0.91572114154E+01  0.23268046190E+02  0.47000000000E+01 0. -1.
<mgrwt>
<rscale>  0 0.27553545E+03</rscale>
<asrwt>0</asrwt>
<pdfrwt beam="1">  1        2 0.21233510E-01 0.27553545E+03</pdfrwt>
<pdfrwt beam="2">  1       -2 0.21156630E-01 0.27553545E+03</pdfrwt>
<totfact> 0.49087315E+03</totfact>
</mgrwt>
</event>
<event>
 9    1  0.2031653E-002  0.2740980E+03  0.7818608E-02  0.1098957E+00
         -1   -1    0    0    0  501 -0.00000000000E+00  0.00000000000E+00  0.70941848354E+02  0.70941848354E+02  0.00000000000E+00 0. -1.
          1   -1    0    0  501    0  0.00000000000E+00 -0.00000000000E+00 -0.26475810576E+03  0.26475810576E+03  0.00000000000E+00 0. -1.
         36    2    1    2    0    0  0.00000000000E+00  0.00000000000E+00 -0.19381625741E+03  0.33569995412E+03  0.27409800721E+03 0.  0.
         25    2    3    3    0    0  0.21620505307E+02 -0.48128714197E+02 -0.10643430064E+03  0.17447014527E+03  0.12778009180E+03 0.  0.
         25    2    3    3    0    0 -0.21620505307E+02  0.48128714197E+02 -0.87381956769E+02  0.16122980884E+03  0.12480234577E+03 0.  0.
          5    1    4    4  502    0 -0.20435477182E+01 -0.35908446675E+02 -0.13221863529E+03  0.13710379334E+03  0.47000000000E+01 0. -1.
         -5    1    4    4    0  502  0.23664053025E+02 -0.12220267522E+02  0.25784334649E+02  0.37366351938E+02  0.47000000000E+01 0. -1.
          5    1    5    5  503    0  0.15842724524E+02  0.49968043547E+02  0.12790910920E+02  0.54161745711E+02  0.47000000000E+01 0. -1.
         -5    1    5    5    0  503 -0.37463229830E+02 -0.18393293503E+01 -0.10017286769E+03  0.10706806313E+03  0.47000000000E+01 0. -1.
<mgrwt>
<rscale>  0 0.27409801E+03</rscale>
<asrwt>0</asrwt>
<pdfrwt beam="1">  1        1 0.40732016E-01 0.27409801E+03</pdfrwt>
<pdfrwt beam="2">  1       -1 0.10914131E-01 0.27409801E+03</pdfrwt>
<totfact> 0.54216476E+03</totfact>
</mgrwt>
</event>
<event>
 9    1  0.2031653E-002  0.2745436E+03  0.7818608E-02  0.1098707E+00
          1   -1    0    0  501    0  0.00000000000E+00  0.00000000000E+00  0.20177038345E+03  0.20177038345E+03  0.00000000000E+00 0. -1.
         -1   -1    0    0    0  501 -0.00000000000E+00 -0.00000000000E+00 -0.93391035795E+02  0.93391035795E+02  0.00000000000E+00 0. -1.
         36    2    1    2    0    0 -0.71054273576E-14  0.00000000000E+00  0.10837934766E+03  0.29516141925E+03  0.27454358563E+03 0.  0.
         25    2    3    3    0    0 -0.31014380650E+02 -0.36216721729E+01  0.10847892990E+03  0.16790535112E+03  0.12429609964E+03 0.  0.
         25    2    3    3    0    0  0.31014380650E+02  0.36216721729E+01 -0.99582242899E-01  0.12725606813E+03  0.12336567043E+03 0.  0.
          5    1    4    4  502    0  0.83763399963E+01  0.27038499513E+02 -0.16601606554E+02  0.33150367537E+02  0.47000000000E+01 0. -1.
         -5    1    4    4    0  502 -0.39390720646E+02 -0.30660171686E+02  0.12508053645E+03  0.13475498358E+03  0.47000000000E+01 0. -1.
          5    1    5    5  503    0  0.69017984751E+02  0.33657132727E+02  0.99208509403E+01  0.77568022315E+02  0.47000000000E+01 0.  1.
         -5    1    5    5    0  503 -0.38003604101E+02 -0.30035460554E+02 -0.10020433183E+02  0.49688045811E+02  0.47000000000E+01 0.  1.
<mgrwt>
<rscale>  0 0.27454359E+03</rscale>
<asrwt>0</asrwt>
<pdfrwt beam="1">  1        1 0.31041597E-01 0.27454359E+03</pdfrwt>
<pdfrwt beam="2">  1       -1 0.14367852E-01 0.27454359E+03</pdfrwt>
<totfact> 0.49586294E+03</totfact>
</mgrwt>
</event>
<event>
 9    1  0.2031653E-002  0.2766556E+03  0.7818608E-02  0.1097530E+00
          1   -1    0    0  501    0  0.00000000000E+00  0.00000000000E+00  0.18087937870E+02  0.18087937870E+02  0.00000000000E+00 0.  1.
         -1   -1    0    0    0  501 -0.00000000000E+00 -0.00000000000E+00 -0.10578640286E+04  0.10578640286E+04  0.00000000000E+00 0.  1.
         36    2    1    2    0    0 -0.71054273576E-14  0.71054273576E-14 -0.10397760907E+04  0.10759519665E+04  0.27665558967E+03 0.  0.
         25    2    3    3    0    0  0.68279383189E+01  0.46757064652E+02 -0.54738326746E+03  0.56581042536E+03  0.13520411279E+03 0.  0.
         25    2    3    3    0    0 -0.68279383189E+01 -0.46757064652E+02 -0.49239282326E+03  0.51014154109E+03  0.12474315901E+03 0.  0.
          5    1    4    4  502    0  0.42773569489E+02  0.18353398082E+02 -0.49001798169E+03  0.49224601354E+03  0.47000000000E+01 0. -1.
         -5    1    4    4    0  502 -0.35945631170E+02  0.28403666570E+02 -0.57365285770E+02  0.73564411819E+02  0.47000000000E+01 0. -1.
          5    1    5    5  503    0  0.36607906050E+02 -0.47137414448E+02 -0.10978878113E+03  0.12505095397E+03  0.47000000000E+01 0.  1.
         -5    1    5    5    0  503 -0.43435844369E+02  0.38034979620E+00 -0.38260404213E+03  0.38509058713E+03  0.47000000000E+01 0.  1.
<mgrwt>
<rscale>  0 0.27665559E+03</rscale>
<asrwt>0</asrwt>
<pdfrwt beam="1">  1        1 0.27827593E-02 0.27665559E+03</pdfrwt>
<pdfrwt beam="2">  1       -1 0.16274833E+00 0.27665559E+03</pdfrwt>
<totfact> 0.11509120E+03</totfact>
</mgrwt>
</event>
<event>
 9    1  0.2031653E-002  0.2732184E+03  0.7818608E-02  0.1099452E+00
         -2   -1    0    0    0  501 -0.00000000000E+00  0.00000000000E+00  0.13205695012E+02  0.13205695012E+02  0.00000000000E+00 0.  1.
          2   -1    0    0  501    0  0.00000000000E+00 -0.00000000000E+00 -0.14131837772E+04  0.14131837772E+04  0.00000000000E+00 0.  1.
         36    2    1    2    0    0 -0.71054273576E-14  0.00000000000E+00 -0.13999780822E+04  0.14263894722E+04  0.27321840317E+03 0.  0.
         25    2    3    3    0    0  0.53639359247E+02  0.11018415910E+02 -0.54754900390E+03  0.56352121579E+03  0.12143995483E+03 0.  0.
         25    2    3    3    0    0 -0.53639359247E+02 -0.11018415910E+02 -0.85242907827E+03  0.86286825640E+03  0.12209712558E+03 0.  0.
          5    1    4    4  502    0 -0.43879640288E+01  0.40376996572E+02 -0.40153257910E+03  0.40360879346E+03  0.47000000000E+01 0.  1.
         -5    1    4    4    0  502  0.58027323275E+02 -0.29358580662E+02 -0.14601642480E+03  0.15991242234E+03  0.47000000000E+01 0.  1.
          5    1    5    5  503    0 -0.77995369757E+02 -0.36998737356E+02 -0.73502864189E+03  0.74009551996E+03  0.47000000000E+01 0. -1.
         -5    1    5    5    0  503  0.24356010510E+02  0.25980321446E+02 -0.11740043638E+03  0.12277273644E+03  0.47000000000E+01 0. -1.
<mgrwt>
<rscale>  0 0.27321840E+03</rscale>
<asrwt>0</asrwt>
<pdfrwt beam="1">  1        2 0.21741291E+00 0.27321840E+03</pdfrwt>
<pdfrwt beam="2">  1       -2 0.20316452E-02 0.27321840E+03</pdfrwt>
<totfact> 0.11477050E+04</totfact>
</mgrwt>
</event>
<event>
 9    1  0.2031653E-002  0.2753664E+03  0.7818608E-02  0.1098247E+00
          1   -1    0    0  501    0  0.00000000000E+00  0.00000000000E+00  0.14271943270E+03  0.14271943270E+03  0.00000000000E+00 0. -1.
         -1   -1    0    0    0  501 -0.00000000000E+00 -0.00000000000E+00 -0.13282465520E+03  0.13282465520E+03  0.00000000000E+00 0. -1.
         36    2    1    2    0    0  0.00000000000E+00  0.00000000000E+00  0.98947774958E+01  0.27554408790E+03  0.27536637005E+03 0.  0.
         25    2    3    3    0    0  0.40566442400E+02  0.22497036542E+02  0.55246233654E+02  0.13540440861E+03  0.11458819589E+03 0.  0.
         25    2    3    3    0    0 -0.40566442400E+02 -0.22497036542E+02 -0.45351456158E+02  0.14013967929E+03  0.12422005568E+03 0.  0.
          5    1    4    4  502    0  0.38727617893E+02 -0.33050368737E+02  0.60697249532E+02  0.79362468221E+02  0.47000000000E+01 0. -1.
         -5    1    4    4    0  502  0.18388245068E+01  0.55547405279E+02 -0.54510158784E+01  0.56041940392E+02  0.47000000000E+01 0. -1.
          5    1    5    5  503    0 -0.71575191345E+02  0.14321621078E+02 -0.54114170089E+02  0.90986538844E+02  0.47000000000E+01 0.  1.
         -5    1    5    5    0  503  0.31008748945E+02 -0.36818657620E+02  0.87627139311E+01  0.49153140444E+02  0.47000000000E+01 0.  1.
<mgrwt>
<rscale>  0 0.27536637E+03</rscale>
<asrwt>0</asrwt>
<pdfrwt beam="1">  1        1 0.21956836E-01 0.27536637E+03</pdfrwt>
<pdfrwt beam="2">  1       -1 0.20434562E-01 0.27536637E+03</pdfrwt>
<totfact> 0.43755012E+03</totfact>
</mgrwt>
</event>
<event>
 9    1  0.2031653E-002  0.2746784E+03  0.7818608E-02  0.1098631E+00
         -3   -1    0    0    0  501 -0.00000000000E+00  0.00000000000E+00  0.24758900113E+02  0.24758900113E+02  0.00000000000E+00 0. -1.
          3   -1    0    0  501    0  0.00000000000E+00 -0.00000000000E+00 -0.76182938253E+03  0.76182938253E+03  0.00000000000E+00 0. -1.
         36    2    1    2    0    0  0.00000000000E+00  0.00000000000E+00 -0.73707048242E+03  0.78658828265E+03  0.27467841258E+03 0.  0.
         25    2    3    3    0    0 -0.44231959673E+02 -0.35207450402E+02 -0.31165675146E+03  0.33960888397E+03  0.12250809166E+03 0.  0.
         25    2    3    3    0    0  0.44231959673E+02  0.35207450402E+02 -0.42541373096E+03  0.44697939867E+03  0.12497083471E+03 0.  0.
          5    1    4    4  502    0 -0.52334795248E+02  0.28601307950E+02 -0.21681162650E+03  0.22491406580E+03  0.47000000000E+01 0.  1.
         -5    1    4    4    0  502  0.81028355753E+01 -0.63808758352E+02 -0.94845124961E+02  0.11469481817E+03  0.47000000000E+01 0.  1.
          5    1    5    5  503    0 -0.83812767191E+01 -0.19727045298E+02 -0.29585810722E+03  0.29667071262E+03  0.47000000000E+01 0.  1.
         -5    1    5    5    0  503  0.52613236392E+02  0.54934495700E+02 -0.12955562374E+03  0.15030868606E+03  0.47000000000E+01 0.  1.
<mgrwt>
<rscale>  0 0.27467841E+03</rscale>
<asrwt>0</asrwt>
<pdfrwt beam="1">  1        3 0.11720455E+00 0.27467841E+03</pdfrwt>
<pdfrwt beam="2">  1       -3 0.38090606E-02 0.27467841E+03</pdfrwt>
<totfact> 0.55751738E+02</totfact>
</mgrwt>
</event>
<event>
 9    1  0.2031653E-002  0.2759000E+03  0.7818608E-02  0.1097950E+00
         -2   -1    0    0    0  501 -0.00000000000E+00  0.00000000000E+00  0.78316519488E+02  0.78316519488E+02  0.00000000000E+00 0. -1.
          2   -1    0    0  501    0  0.00000000000E+00 -0.00000000000E+00 -0.24299086798E+03  0.24299086798E+03  0.00000000000E+00 0. -1.
         36    2    1    2    0    0  0.00000000000E+00  0.00000000000E+00 -0.16467434850E+03  0.32130738747E+03  0.27589997498E+03 0.  0.
         25    2    3    3    0    0 -0.39616194698E+02 -0.32692098378E+02 -0.12647775402E+03  0.18513011520E+03  0.12505327310E+03 0.  0.
         25    2    3    3    0    0  0.39616194698E+02  0.32692098378E+02 -0.38196594478E+02  0.13617727227E+03  0.12019589625E+03 0.  0.
          5    1    4    4  502    0 -0.75590642108E+02 -0.80062396371E+01 -0.11799063650E+03  0.14043477258E+03  0.47000000000E+01 0.  1.
         -5    1    4    4    0  502  0.35974447409E+02 -0.24685858741E+02 -0.84871175158E+01  0.44695342620E+02  0.47000000000E+01 0.  1.
          5    1    5    5  503    0  0.18355713805E+02  0.27948662998E+02 -0.81090683253E+02  0.87839904958E+02  0.47000000000E+01 0. -1.
         -5    1    5    5    0  503  0.21260480893E+02  0.47434353804E+01  0.42894088775E+02  0.48337367314E+02  0.47000000000E+01 0. -1.
<mgrwt>
<rscale>  0 0.27589997E+03</rscale>
<asrwt>0</asrwt>
<pdfrwt beam="1">  1        2 0.37383210E-01 0.27589997E+03</pdfrwt>
<pdfrwt beam="2">  1       -2 0.12048695E-01 0.27589997E+03</pdfrwt>
<totfact> 0.67074564E+03</totfact>
</mgrwt>
</event>
<event>
 8    1  0.2031653E-002  0.3377559E+03  0.7818608E-02  0.1067756E+00
         -1   -1    0    0    0  501 -0.00000000000E+00  0.00000000000E+00  0.66396757430E+02  0.66396757430E+02  0.00000000000E+00 0.  1.
          1   -1    0    0  501    0  0.00000000000E+00 -0.00000000000E+00 -0.42953541878E+03  0.42953541878E+03  0.00000000000E+00 0.  1.
         25    2    1    2    0    0  0.20062789754E+02  0.10351601895E+03 -0.10897820996E+03  0.19442343326E+03  0.12168048094E+03 0.  0.
         25    2    1    2    0    0 -0.20062789754E+02 -0.10351601895E+03 -0.25416045139E+03  0.30150874295E+03  0.12325544741E+03 0.  0.
          5    1    3    3  502    0 -0.18412141568E+02  0.10317880937E+03 -0.11446870813E+03  0.15527410860E+03  0.47000000000E+01 0. -1.
         -5    1    3    3    0  502  0.38474931322E+02  0.33720957237E+00  0.54904981742E+01  0.39149324653E+02  0.47000000000E+01 0. -1.
          5    1    4    4  503    0  0.12517192753E+02 -0.84408178456E+02 -0.24880444309E+03  0.26307254057E+03  0.47000000000E+01 0. -1.
         -5    1    4    4    0  503 -0.32579982507E+02 -0.19107840490E+02 -0.53560083021E+01  0.38436202378E+02  0.47000000000E+01 0. -1.
<mgrwt>
<rscale>  0 0.33775588E+03</rscale>
<asrwt>0</asrwt>
<pdfrwt beam="1">  1        1 0.66082373E-01 0.33775588E+03</pdfrwt>
<pdfrwt beam="2">  1       -1 0.10214886E-01 0.33775588E+03</pdfrwt>
<totfact> 0.32631423E+03</totfact>
</mgrwt>
</event>
<event>
 9    1  0.2031653E-002  0.2755128E+03  0.7818608E-02  0.1098165E+00
          1   -1    0    0  501    0  0.00000000000E+00  0.00000000000E+00  0.87431307163E+02  0.87431307163E+02  0.00000000000E+00 0. -1.
         -1   -1    0    0    0  501 -0.00000000000E+00 -0.00000000000E+00 -0.21704848201E+03  0.21704848201E+03  0.00000000000E+00 0. -1.
         36    2    1    2    0    0  0.00000000000E+00  0.14210854715E-13 -0.12961717485E+03  0.30447978917E+03  0.27551284906E+03 0.  0.
         25    2    3    3    0    0  0.19149533368E+02  0.51619197268E+02 -0.56053731863E+02  0.14785893873E+03  0.12525573340E+03 0.  0.
         25    2    3    3    0    0 -0.19149533368E+02 -0.51619197268E+02 -0.73563442982E+02  0.15662085044E+03  0.12683558056E+03 0.  0.
          5    1    4    4  502    0  0.67894275626E+02  0.41945162342E+02 -0.11152874659E+02  0.80718683833E+02  0.47000000000E+01 0. -1.
         -5    1    4    4    0  502 -0.48744742257E+02  0.96740349266E+01 -0.44900857204E+02  0.67140254894E+02  0.47000000000E+01 0. -1.
          5    1    5    5  503    0 -0.71076466776E+01  0.41544571042E+02 -0.34918154227E+02  0.54934847947E+02  0.47000000000E+01 0.  1.
         -5    1    5    5    0  503 -0.12041886691E+02 -0.93163768310E+02 -0.38645288756E+02  0.10168600250E+03  0.47000000000E+01 0.  1.
<mgrwt>
<rscale>  0 0.27551285E+03</rscale>
<asrwt>0</asrwt>
<pdfrwt beam="1">  1        1 0.13450970E-01 0.27551285E+03</pdfrwt>
<pdfrwt beam="2">  1       -1 0.33392074E-01 0.27551285E+03</pdfrwt>
<totfact> 0.36385480E+03</totfact>
</mgrwt>
</event>
<event>
 9    1  0.2031653E-002  0.2783822E+03  0.7818608E-02  0.1096576E+00
         -1   -1    0    0    0  501 -0.00000000000E+00  0.00000000000E+00  0.90848906745E+01  0.90848906745E+01  0.00000000000E+00 0. -1.
          1   -1    0    0  501    0  0.00000000000E+00 -0.00000000000E+00 -0.21325696944E+04  0.21325696944E+04  0.00000000000E+00 0. -1.
         36    2    1    2    0    0  0.35527136788E-14 -0.71054273576E-14 -0.21234848037E+04  0.21416545851E+04  0.27838220151E+03 0.  0.
         25    2    3    3    0    0  0.12431377917E+02 -0.59893424056E+02 -0.10663311436E+04  0.10753884724E+04  0.12512592572E+03 0.  0.
         25    2    3    3    0    0 -0.12431377917E+02  0.59893424056E+02 -0.10571536601E+04  0.10662661127E+04  0.12493118341E+03 0.  0.
          5    1    4    4  502    0 -0.28731835973E+02  0.18890723348E+02 -0.57589767565E+03  0.57694245870E+03  0.47000000000E+01 0.  1.
         -5    1    4    4    0  502  0.41163213890E+02 -0.78784147404E+02 -0.49043346796E+03  0.49844601368E+03  0.47000000000E+01 0.  1.
          5    1    5    5  503    0  0.52738911803E+01  0.31865932276E+02 -0.99609353112E+03  0.99662814746E+03  0.47000000000E+01 0.  1.
         -5    1    5    5    0  503 -0.17705269097E+02  0.28027491780E+02 -0.61060128981E+02  0.69637965224E+02  0.47000000000E+01 0.  1.
<mgrwt>
<rscale>  0 0.27838220E+03</rscale>
<asrwt>0</asrwt>
<pdfrwt beam="1">  1        1 0.32808755E+00 0.27838220E+03</pdfrwt>
<pdfrwt beam="2">  1       -1 0.13976759E-02 0.27838220E+03</pdfrwt>
<totfact> 0.31997473E+03</totfact>
</mgrwt>
</event>
<event>
 9    1  0.2031653E-002  0.2749852E+03  0.7818608E-02  0.1098460E+00
          1   -1    0    0  501    0  0.00000000000E+00  0.00000000000E+00  0.11658999520E+03  0.11658999520E+03  0.00000000000E+00 0.  1.
         -1   -1    0    0    0  501 -0.00000000000E+00 -0.00000000000E+00 -0.16214265279E+03  0.16214265279E+03  0.00000000000E+00 0.  1.
         36    2    1    2    0    0  0.00000000000E+00  0.00000000000E+00 -0.45552657590E+02  0.27873264799E+03  0.27498517131E+03 0.  0.
         25    2    3    3    0    0  0.52263712549E+02  0.75394002160E+01 -0.17512726929E+02  0.14038237791E+03  0.12888823926E+03 0.  0.
         25    2    3    3    0    0 -0.52263712549E+02 -0.75394002160E+01 -0.28039930661E+02  0.13835027007E+03  0.12476466372E+03 0.  0.
          5    1    4    4  502    0  0.73877854918E+02 -0.32092922805E+02 -0.39631704803E+02  0.89892464462E+02  0.47000000000E+01 0.  1.
         -5    1    4    4    0  502 -0.21614142368E+02  0.39632323021E+02  0.22118977874E+02  0.50489913453E+02  0.47000000000E+01 0.  1.
          5    1    5    5  503    0 -0.47544011011E+02  0.54681230104E+02 -0.19571291178E+02  0.75203692377E+02  0.47000000000E+01 0. -1.
         -5    1    5    5    0  503 -0.47197015385E+01 -0.62220630320E+02 -0.84686394827E+01  0.63146577696E+02  0.47000000000E+01 0. -1.
<mgrwt>
<rscale>  0 0.27498517E+03</rscale>
<asrwt>0</asrwt>
<pdfrwt beam="1">  1        1 0.17936922E-01 0.27498517E+03</pdfrwt>
<pdfrwt beam="2">  1       -1 0.24945024E-01 0.27498517E+03</pdfrwt>
<totfact> 0.40898979E+03</totfact>
</mgrwt>
</event>
<event>
 9    1  0.2031653E-002  0.2745575E+03  0.7818608E-02  0.1098699E+00
          1   -1    0    0  501    0  0.00000000000E+00  0.00000000000E+00  0.68755793275E+03  0.68755793275E+03  0.00000000000E+00 0. -1.
         -1   -1    0    0    0  501 -0.00000000000E+00 -0.00000000000E+00 -0.27409258795E+02  0.27409258795E+02  0.00000000000E+00 0. -1.
         36    2    1    2    0    0 -0.71054273576E-14 -0.71054273576E-14  0.66014867396E+03  0.71496719155E+03  0.27455748626E+03 0.  0.
         25    2    3    3    0    0  0.24922305153E+00 -0.45526636524E+02  0.26219842468E+03  0.29387131771E+03  0.12465793486E+03 0.  0.
         25    2    3    3    0    0 -0.24922305153E+00  0.45526636524E+02  0.39795024928E+03  0.42109587384E+03  0.12994074540E+03 0.  0.
          5    1    4    4  502    0  0.55750240619E+02 -0.38619825763E+02  0.19388506755E+03  0.20545824318E+03  0.47000000000E+01 0. -1.
         -5    1    4    4    0  502 -0.55501017567E+02 -0.69068107609E+01  0.68313357129E+02  0.88413074532E+02  0.47000000000E+01 0. -1.
          5    1    5    5  503    0  0.56906924299E+02  0.45816918578E+02  0.15429615012E+03  0.17078343012E+03  0.47000000000E+01 0.  1.
         -5    1    5    5    0  503 -0.57156147350E+02 -0.29028205380E+00  0.24365409916E+03  0.25031244372E+03  0.47000000000E+01 0.  1.
<mgrwt>
<rscale>  0 0.27455749E+03</rscale>
<asrwt>0</asrwt>
<pdfrwt beam="1">  1        1 0.10577813E+00 0.27455749E+03</pdfrwt>
<pdfrwt beam="2">  1       -1 0.42168095E-02 0.27455749E+03</pdfrwt>
<totfact> 0.65583084E+03</totfact>
</mgrwt>
</event>
<event>
 9    1  0.2031653E-002  0.2763006E+03  0.7818608E-02  0.1097727E+00
         -2   -1    0    0    0  501 -0.00000000000E+00  0.00000000000E+00  0.19573076728E+02  0.19573076728E+02  0.00000000000E+00 0. -1.
          2   -1    0    0  501    0  0.00000000000E+00 -0.00000000000E+00 -0.97508966447E+03  0.97508966447E+03  0.00000000000E+00 0. -1.
         36    2    1    2    0    0  0.71054273576E-14  0.00000000000E+00 -0.95551658774E+03  0.99466274120E+03  0.27630059587E+03 0.  0.
         25    2    3    3    0    0 -0.80486196688E+01  0.55398700735E+02 -0.47574031372E+03  0.49485173553E+03  0.12415956561E+03 0.  0.
         25    2    3    3    0    0  0.80486196688E+01 -0.55398700735E+02 -0.47977627402E+03  0.49981100567E+03  0.12842107287E+03 0.  0.
          5    1    4    4  502    0 -0.48346949996E+02 -0.66643747110E+01 -0.30195032972E+03  0.30590510470E+03  0.47000000000E+01 0. -1.
         -5    1    4    4    0  502  0.40298330328E+02  0.62063075446E+02 -0.17378998400E+03  0.18894663082E+03  0.47000000000E+01 0. -1.
          5    1    5    5  503    0 -0.42152456761E+02  0.19540431557E+02 -0.21628000521E+03  0.22126407013E+03  0.47000000000E+01 0. -1.
         -5    1    5    5    0  503  0.50201076429E+02 -0.74939132292E+02 -0.26349626880E+03  0.27854693554E+03  0.47000000000E+01 0. -1.
<mgrwt>
<rscale>  0 0.27630060E+03</rscale>
<asrwt>0</asrwt>
<pdfrwt beam="1">  1        2 0.15001376E+00 0.27630060E+03</pdfrwt>
<pdfrwt beam="2">  1       -2 0.30112433E-02 0.27630060E+03</pdfrwt>
<totfact> 0.11432762E+04</totfact>
</mgrwt>
</event>
<event>
 9    1  0.2031653E-002  0.2747308E+03  0.7818608E-02  0.1098602E+00
         -3   -1    0    0    0  501 -0.00000000000E+00  0.00000000000E+00  0.94099595319E+02  0.94099595319E+02  0.00000000000E+00 0.  1.
          3   -1    0    0  501    0  0.00000000000E+00 -0.00000000000E+00 -0.20052421000E+03  0.20052421000E+03  0.00000000000E+00 0.  1.
         36    2    1    2    0    0  0.00000000000E+00  0.00000000000E+00 -0.10642461469E+03  0.29462380532E+03  0.27473075556E+03 0.  0.
         25    2    3    3    0    0 -0.27391074774E+02  0.86619293991E+01 -0.48250783120E+02  0.13383932524E+03  0.12148879336E+03 0.  0.
         25    2    3    3    0    0  0.27391074774E+02 -0.86619293991E+01 -0.58173831566E+02  0.16078448008E+03  0.14711272670E+03 0.  0.
          5    1    4    4  502    0  0.11938633485E+02  0.47931541131E+02 -0.58942626261E+02  0.77047302323E+02  0.47000000000E+01 0.  1.
         -5    1    4    4    0  502 -0.39329708260E+02 -0.39269611732E+02  0.10691843141E+02  0.56792022918E+02  0.47000000000E+01 0.  1.
          5    1    5    5  503    0 -0.28268612665E+02  0.56894004066E+02 -0.22449700870E+02  0.67543476590E+02  0.47000000000E+01 0. -1.
         -5    1    5    5    0  503  0.55659687440E+02 -0.65555933465E+02 -0.35724130696E+02  0.93241003493E+02  0.47000000000E+01 0. -1.
<mgrwt>
<rscale>  0 0.27473076E+03</rscale>
<asrwt>0</asrwt>
<pdfrwt beam="1">  1        3 0.30849878E-01 0.27473076E+03</pdfrwt>
<pdfrwt beam="2">  1       -3 0.14476861E-01 0.27473076E+03</pdfrwt>
<totfact> 0.10225974E+03</totfact>
</mgrwt>
</event>
<event>
 9    1  0.2031653E-002  0.2748012E+03  0.7818608E-02  0.1098563E+00
          2   -1    0    0  501    0  0.00000000000E+00  0.00000000000E+00  0.10749635296E+04  0.10749635296E+04  0.00000000000E+00 0.  1.
         -2   -1    0    0    0  501 -0.00000000000E+00 -0.00000000000E+00 -0.17562383681E+02  0.17562383681E+02  0.00000000000E+00 0.  1.
         36    2    1    2    0    0  0.00000000000E+00  0.71054273576E-14  0.10574011459E+04  0.10925259133E+04  0.27480117867E+03 0.  0.
         25    2    3    3    0    0 -0.16702575449E+02 -0.48524983706E+02  0.45955878993E+03  0.47866658985E+03  0.12366799412E+03 0.  0.
         25    2    3    3    0    0  0.16702575449E+02  0.48524983706E+02  0.59784235597E+03  0.61385932340E+03  0.12951500405E+03 0.  0.
          5    1    4    4  502    0 -0.49311828523E+02  0.23124099794E+02  0.17099130021E+03  0.17951739518E+03  0.47000000000E+01 0.  1.
         -5    1    4    4    0  502  0.32609253075E+02 -0.71649083500E+02  0.28856748971E+03  0.29914919467E+03  0.47000000000E+01 0.  1.
          5    1    5    5  503    0 -0.12423565465E+01 -0.31728373098E+02  0.47138342048E+02  0.57029346833E+02  0.47000000000E+01 0.  1.
         -5    1    5    5    0  503  0.17944931995E+02  0.80253356804E+02  0.55070401392E+03  0.55682997657E+03  0.47000000000E+01 0.  1.
<mgrwt>
<rscale>  0 0.27480118E+03</rscale>
<asrwt>0</asrwt>
<pdfrwt beam="1">  1        2 0.16537895E+00 0.27480118E+03</pdfrwt>
<pdfrwt beam="2">  1       -2 0.27019060E-02 0.27480118E+03</pdfrwt>
<totfact> 0.11681737E+04</totfact>
</mgrwt>
</event>
<event>
 9    1  0.2031653E-002  0.2749274E+03  0.7818608E-02  0.1098492E+00
         -2   -1    0    0    0  501 -0.00000000000E+00  0.00000000000E+00  0.13957021087E+02  0.13957021087E+02  0.00000000000E+00 0. -1.
          2   -1    0    0  501    0  0.00000000000E+00 -0.00000000000E+00 -0.13538894343E+04  0.13538894343E+04  0.00000000000E+00 0. -1.
         36    2    1    2    0    0  0.00000000000E+00 -0.35527136788E-14 -0.13399324132E+04  0.13678464554E+04  0.27492736048E+03 0.  0.
         25    2    3    3    0    0  0.54624447704E+02 -0.14011466394E+02 -0.56282728144E+03  0.57884469445E+03  0.12290842153E+03 0.  0.
         25    2    3    3    0    0 -0.54624447704E+02  0.14011466394E+02 -0.77710513181E+03  0.78900176097E+03  0.12430302273E+03 0.  0.
          5    1    4    4  502    0  0.75468694429E+02  0.16110305689E+02 -0.20461596190E+03  0.21873465124E+03  0.47000000000E+01 0. -1.
         -5    1    4    4    0  502 -0.20844246725E+02 -0.30121772083E+02 -0.35821131954E+03  0.36011004321E+03  0.47000000000E+01 0. -1.
          5    1    5    5  503    0  0.38217144979E+02 -0.81320014891E+01 -0.28496536951E+03  0.28767000441E+03  0.47000000000E+01 0. -1.
         -5    1    5    5    0  503 -0.92841592683E+02  0.22143467883E+02 -0.49213976230E+03  0.50133175657E+03  0.47000000000E+01 0. -1.
<mgrwt>
<rscale>  0 0.27492736E+03</rscale>
<asrwt>0</asrwt>
<pdfrwt beam="1">  1        2 0.20829069E+00 0.27492736E+03</pdfrwt>
<pdfrwt beam="2">  1       -2 0.21472340E-02 0.27492736E+03</pdfrwt>
<totfact> 0.11397022E+04</totfact>
</mgrwt>
</event>
<event>
 9    1  0.2031653E-002  0.2753472E+03  0.7818608E-02  0.1098258E+00
          2   -1    0    0  501    0  0.00000000000E+00  0.00000000000E+00  0.72840898779E+03  0.72840898779E+03  0.00000000000E+00 0.  1.
         -2   -1    0    0    0  501 -0.00000000000E+00 -0.00000000000E+00 -0.26021130628E+02  0.26021130628E+02  0.00000000000E+00 0.  1.
         36    2    1    2    0    0 -0.88817841970E-15  0.14210854715E-13  0.70238785716E+03  0.75443011842E+03  0.27534723839E+03 0.  0.
         25    2    3    3    0    0 -0.30567393822E+01  0.43524644919E+02  0.32066492498E+03  0.34894732598E+03  0.13051629717E+03 0.  0.
         25    2    3    3    0    0  0.30567393822E+01 -0.43524644919E+02  0.38172293218E+03  0.40548279244E+03  0.12961542978E+03 0.  0.
          5    1    4    4  502    0  0.50920514027E+01  0.56573798567E+02  0.44491112207E+02  0.72305412917E+02  0.47000000000E+01 0. -1.
         -5    1    4    4    0  502 -0.81487907849E+01 -0.13049153648E+02  0.27617381277E+03  0.27664191307E+03  0.47000000000E+01 0. -1.
          5    1    5    5  503    0  0.16375650587E+02  0.37006760493E+02  0.22557638389E+03  0.22922577784E+03  0.47000000000E+01 0.  1.
         -5    1    5    5    0  503 -0.13318911205E+02 -0.80531405412E+02  0.15614654829E+03  0.17625701460E+03  0.47000000000E+01 0.  1.
<mgrwt>
<rscale>  0 0.27534724E+03</rscale>
<asrwt>0</asrwt>
<pdfrwt beam="1">  1        2 0.11206291E+00 0.27534724E+03</pdfrwt>
<pdfrwt beam="2">  1       -2 0.40032514E-02 0.27534724E+03</pdfrwt>
<totfact> 0.10920518E+04</totfact>
</mgrwt>
</event>
<event>
 9    1  0.2031653E-002  0.2760015E+03  0.7818608E-02  0.1097893E+00
         -1   -1    0    0    0  501 -0.00000000000E+00  0.00000000000E+00  0.38667124834E+02  0.38667124834E+02  0.00000000000E+00 0. -1.
          1   -1    0    0  501    0  0.00000000000E+00 -0.00000000000E+00 -0.49251666688E+03  0.49251666688E+03  0.00000000000E+00 0. -1.
         36    2    1    2    0    0  0.00000000000E+00 -0.53290705182E-14 -0.45384954204E+03  0.53118379171E+03  0.27600147420E+03 0.  0.
         25    2    3    3    0    0  0.56274917994E+01 -0.76563667541E+01 -0.34774180139E+03  0.36839124633E+03  0.12123308676E+03 0.  0.
         25    2    3    3    0    0 -0.56274917994E+01  0.76563667541E+01 -0.10610774065E+03  0.16279254538E+03  0.12309456360E+03 0.  0.
          5    1    4    4  502    0  0.42641752416E+02  0.41381863542E+02 -0.18555032451E+03  0.19488917519E+03  0.47000000000E+01 0. -1.
         -5    1    4    4    0  502 -0.37014260616E+02 -0.49038230296E+02 -0.16219147688E+03  0.17350207114E+03  0.47000000000E+01 0. -1.
          5    1    5    5  503    0 -0.60298336598E+02 -0.27491342036E+01 -0.82078637367E+02  0.10199235191E+03  0.47000000000E+01 0.  1.
         -5    1    5    5    0  503  0.54670844799E+02  0.10405500958E+02 -0.24029103284E+02  0.60800193469E+02  0.47000000000E+01 0.  1.
<mgrwt>
<rscale>  0 0.27600147E+03</rscale>
<asrwt>0</asrwt>
<pdfrwt beam="1">  1        1 0.75771793E-01 0.27600147E+03</pdfrwt>
<pdfrwt beam="2">  1       -1 0.59487886E-02 0.27600147E+03</pdfrwt>
<totfact> 0.62081538E+03</totfact>
</mgrwt>
</event>
<event>
 9    1  0.2031653E-002  0.2751101E+03  0.7818608E-02  0.1098390E+00
          2   -1    0    0  501    0  0.00000000000E+00  0.00000000000E+00  0.75097167507E+03  0.75097167507E+03  0.00000000000E+00 0. -1.
         -2   -1    0    0    0  501 -0.00000000000E+00 -0.00000000000E+00 -0.25195885365E+02  0.25195885365E+02  0.00000000000E+00 0. -1.
         36    2    1    2    0    0  0.35527136788E-14 -0.35527136788E-14  0.72577578971E+03  0.77616756044E+03  0.27511013240E+03 0.  0.
         25    2    3    3    0    0  0.16070880538E+02 -0.11231852918E+02  0.54257794883E+03  0.55800870006E+03  0.12883497609E+03 0.  0.
         25    2    3    3    0    0 -0.16070880538E+02  0.11231852918E+02  0.18319784088E+03  0.21815886038E+03  0.11682213719E+03 0.  0.
          5    1    4    4  502    0  0.36235505695E+02 -0.57592353119E+02  0.41722492241E+03  0.42276307418E+03  0.47000000000E+01 0.  1.
         -5    1    4    4    0  502 -0.20164625157E+02  0.46360500201E+02  0.12535302642E+03  0.13524562588E+03  0.47000000000E+01 0.  1.
          5    1    5    5  503    0 -0.19039227708E+02  0.13194855918E+02 -0.94246136486E+01  0.25446213015E+02  0.47000000000E+01 0.  1.
         -5    1    5    5    0  503  0.29683471697E+01 -0.19630029998E+01  0.19262245453E+03  0.19271264736E+03  0.47000000000E+01 0.  1.
<mgrwt>
<rscale>  0 0.27511013E+03</rscale>
<asrwt>0</asrwt>
<pdfrwt beam="1">  1        2 0.11553409E+00 0.27511013E+03</pdfrwt>
<pdfrwt beam="2">  1       -2 0.38762906E-02 0.27511013E+03</pdfrwt>
<totfact> 0.11038079E+04</totfact>
</mgrwt>
</event>
<event>
 9    1  0.2031653E-002  0.2750448E+03  0.7818608E-02  0.1098427E+00
          1   -1    0    0  501    0  0.00000000000E+00  0.00000000000E+00  0.19030150049E+04  0.19030150049E+04  0.00000000000E+00 0. -1.
         -1   -1    0    0    0  501 -0.00000000000E+00 -0.00000000000E+00 -0.99381278786E+01  0.99381278786E+01  0.00000000000E+00 0. -1.
         36    2    1    2    0    0  0.71054273576E-14  0.00000000000E+00  0.18930768770E+04  0.19129531328E+04  0.27504477071E+03 0.  0.
         25    2    3    3    0    0  0.38230860327E+02  0.44589618646E+02  0.95705805467E+03  0.96676947426E+03  0.12342310797E+03 0.  0.
         25    2    3    3    0    0 -0.38230860327E+02 -0.44589618646E+02  0.93601882237E+03  0.94618365854E+03  0.12522957749E+03 0.  0.
          5    1    4    4  502    0  0.38215126961E+02  0.84864958434E+02  0.75098000501E+03  0.75674005776E+03  0.47000000000E+01 0. -1.
         -5    1    4    4    0  502  0.15733366204E-01 -0.40275339789E+02  0.20607804967E+03  0.21002941651E+03  0.47000000000E+01 0. -1.
          5    1    5    5  503    0 -0.64092572978E+02 -0.70460259199E+02  0.78284583790E+03  0.78863312253E+03  0.47000000000E+01 0. -1.
         -5    1    5    5    0  503  0.25861712651E+02  0.25870640553E+02  0.15317298447E+03  0.15755053601E+03  0.47000000000E+01 0. -1.
<mgrwt>
<rscale>  0 0.27504477E+03</rscale>
<asrwt>0</asrwt>
<pdfrwt beam="1">  1        1 0.29277125E+00 0.27504477E+03</pdfrwt>
<pdfrwt beam="2">  1       -1 0.15289443E-02 0.27504477E+03</pdfrwt>
<totfact> 0.39590570E+03</totfact>
</mgrwt>
</event>
<event>
 9    1  0.2031653E-002  0.2766565E+03  0.7818608E-02  0.1097529E+00
          2   -1    0    0  501    0  0.00000000000E+00  0.00000000000E+00  0.37798848368E+03  0.37798848368E+03  0.00000000000E+00 0.  1.
         -2   -1    0    0    0  501 -0.00000000000E+00 -0.00000000000E+00 -0.50622439214E+02  0.50622439214E+02  0.00000000000E+00 0.  1.
         36    2    1    2    0    0  0.00000000000E+00  0.00000000000E+00  0.32736604447E+03  0.42861092290E+03  0.27665645873E+03 0.  0.
         25    2    3    3    0    0  0.82017766125E+01 -0.58804821347E+02  0.16913857304E+03  0.21845228705E+03  0.12485298824E+03 0.  0.
         25    2    3    3    0    0 -0.82017766125E+01  0.58804821347E+02  0.15822747143E+03  0.21015863585E+03  0.12492174893E+03 0.  0.
          5    1    4    4  502    0 -0.55316458547E+02 -0.10345940624E+02  0.87408161882E+02  0.10406356633E+03  0.47000000000E+01 0. -1.
         -5    1    4    4    0  502  0.63518235160E+02 -0.48458880724E+02  0.81730411162E+02  0.11438872072E+03  0.47000000000E+01 0. -1.
          5    1    5    5  503    0 -0.40778610154E+02  0.69364059782E+02  0.15591379272E+03  0.17551486716E+03  0.47000000000E+01 0.  1.
         -5    1    5    5    0  503  0.32576833542E+02 -0.10559238435E+02  0.23136787122E+01  0.34643768691E+02  0.47000000000E+01 0.  1.
<mgrwt>
<rscale>  0 0.27665646E+03</rscale>
<asrwt>0</asrwt>
<pdfrwt beam="1">  1        2 0.58152073E-01 0.27665646E+03</pdfrwt>
<pdfrwt beam="2">  1       -2 0.77880678E-02 0.27665646E+03</pdfrwt>
<totfact> 0.83238291E+03</totfact>
</mgrwt>
</event>
<event>
 9    1  0.2031653E-002  0.2678847E+03  0.7818608E-02  0.1102496E+00
         -1   -1    0    0    0  501 -0.00000000000E+00  0.00000000000E+00  0.34726947250E+02  0.34726947250E+02  0.00000000000E+00 0.  1.
          1   -1    0    0  501    0  0.00000000000E+00 -0.00000000000E+00 -0.51661758731E+03  0.51661758731E+03  0.00000000000E+00 0.  1.
         36    2    1    2    0    0 -0.35527136788E-14 -0.35527136788E-14 -0.48189064006E+03  0.55134453456E+03  0.26788468939E+03 0.  0.
         25    2    3    3    0    0  0.17232644255E+02 -0.61043385577E+01 -0.27998807864E+03  0.30916862725E+03  0.12983716309E+03 0.  0.
         25    2    3    3    0    0 -0.17232644255E+02  0.61043385577E+01 -0.20190256142E+03  0.24217590731E+03  0.13247754072E+03 0.  0.
          5    1    4    4  502    0 -0.53896803903E+02 -0.96798826651E+01 -0.82061199022E+02  0.98765864469E+02  0.47000000000E+01 0.  1.
         -5    1    4    4    0  502  0.71129448158E+02  0.35755441074E+01 -0.19792687962E+03  0.21040276278E+03  0.47000000000E+01 0.  1.
          5    1    5    5  503    0  0.20302063758E+02  0.24031961352E+02  0.40016764941E+01  0.32059513004E+02  0.47000000000E+01 0.  1.
         -5    1    5    5    0  503 -0.37534708014E+02 -0.17927622795E+02 -0.20590423792E+03  0.21011639431E+03  0.47000000000E+01 0.  1.
<mgrwt>
<rscale>  0 0.26788469E+03</rscale>
<asrwt>0</asrwt>
<pdfrwt beam="1">  1        1 0.79479620E-01 0.26788469E+03</pdfrwt>
<pdfrwt beam="2">  1       -1 0.53426079E-02 0.26788469E+03</pdfrwt>
<totfact> 0.68416314E+03</totfact>
</mgrwt>
</event>
<event>
 9    1  0.2031653E-002  0.2755504E+03  0.7818608E-02  0.1098144E+00
          1   -1    0    0  501    0  0.00000000000E+00  0.00000000000E+00  0.79902336349E+03  0.79902336349E+03  0.00000000000E+00 0.  1.
         -1   -1    0    0    0  501 -0.00000000000E+00 -0.00000000000E+00 -0.23756511395E+02  0.23756511395E+02  0.00000000000E+00 0.  1.
         36    2    1    2    0    0  0.00000000000E+00  0.00000000000E+00  0.77526685210E+03  0.82277987489E+03  0.27555041383E+03 0.  0.
         25    2    3    3    0    0 -0.34564563245E+02  0.56493429910E+01  0.24243180097E+03  0.27444967913E+03  0.12378539552E+03 0.  0.
         25    2    3    3    0    0  0.34564563245E+02 -0.56493429910E+01  0.53283505112E+03  0.54833019575E+03  0.12460412418E+03 0.  0.
          5    1    4    4  502    0 -0.10220440987E+02 -0.57714929182E+02  0.89805877439E+02  0.10734363552E+03  0.47000000000E+01 0.  1.
         -5    1    4    4    0  502 -0.24344122258E+02  0.63364272173E+02  0.15262592353E+03  0.16710604361E+03  0.47000000000E+01 0.  1.
          5    1    5    5  503    0  0.59434957404E+02  0.41608253523E+02  0.24559518600E+03  0.25613052592E+03  0.47000000000E+01 0.  1.
         -5    1    5    5    0  503 -0.24870394159E+02 -0.47257596514E+02  0.28723986513E+03  0.29219966984E+03  0.47000000000E+01 0.  1.
<mgrwt>
<rscale>  0 0.27555041E+03</rscale>
<asrwt>0</asrwt>
<pdfrwt beam="1">  1        1 0.12292665E+00 0.27555041E+03</pdfrwt>
<pdfrwt beam="2">  1       -1 0.36548485E-02 0.27555041E+03</pdfrwt>
<totfact> 0.64830874E+03</totfact>
</mgrwt>
</event>
<event>
 9    1  0.2031653E-002  0.2752628E+03  0.7818608E-02  0.1098305E+00
         -2   -1    0    0    0  501 -0.00000000000E+00  0.00000000000E+00  0.19780783648E+03  0.19780783648E+03  0.00000000000E+00 0.  1.
          2   -1    0    0  501    0  0.00000000000E+00 -0.00000000000E+00 -0.95761612929E+02  0.95761612929E+02  0.00000000000E+00 0.  1.
         36    2    1    2    0    0  0.00000000000E+00  0.00000000000E+00  0.10204622355E+03  0.29356944941E+03  0.27526276516E+03 0.  0.
         25    2    3    3    0    0  0.48395590534E+02  0.18624145628E+02  0.77252050721E+02  0.15506643019E+03  0.12405130570E+03 0.  0.
         25    2    3    3    0    0 -0.48395590534E+02 -0.18624145628E+02  0.24794172832E+02  0.13850301922E+03  0.12601326654E+03 0.  0.
          5    1    4    4  502    0  0.75778981800E+02  0.13733969406E+02  0.47885960700E+01  0.77305217487E+02  0.47000000000E+01 0. -1.
         -5    1    4    4    0  502 -0.27383391266E+02  0.48901762219E+01  0.72463454651E+02  0.77761212701E+02  0.47000000000E+01 0. -1.
          5    1    5    5  503    0 -0.38492076425E+02 -0.29180741548E+02  0.73163474416E+02  0.87796011375E+02  0.47000000000E+01 0.  1.
         -5    1    5    5    0  503 -0.99035141085E+01  0.10556595920E+02 -0.48369301584E+02  0.50707007847E+02  0.47000000000E+01 0.  1.
<mgrwt>
<rscale>  0 0.27526277E+03</rscale>
<asrwt>0</asrwt>
<pdfrwt beam="1">  1        2 0.14732556E-01 0.27526277E+03</pdfrwt>
<pdfrwt beam="2">  1       -2 0.30431975E-01 0.27526277E+03</pdfrwt>
<totfact> 0.39452140E+03</totfact>
</mgrwt>
</event>
<event>
 9    1  0.2031653E-002  0.2752375E+03  0.7818608E-02  0.1098319E+00
          2   -1    0    0  501    0  0.00000000000E+00  0.00000000000E+00  0.73473357728E+02  0.73473357728E+02  0.00000000000E+00 0. -1.
         -2   -1    0    0    0  501 -0.00000000000E+00 -0.00000000000E+00 -0.25776585351E+03  0.25776585351E+03  0.00000000000E+00 0. -1.
         36    2    1    2    0    0 -0.35527136788E-14  0.00000000000E+00 -0.18429249579E+03  0.33123921124E+03  0.27523751754E+03 0.  0.
         25    2    3    3    0    0 -0.88245804641E+01  0.18162917981E+02 -0.14281662464E+03  0.19048833114E+03  0.12442447997E+03 0.  0.
         25    2    3    3    0    0  0.88245804641E+01 -0.18162917981E+02 -0.41475871142E+02  0.14075088010E+03  0.13297668049E+03 0.  0.
          5    1    4    4  502    0 -0.24793416311E+02 -0.47046173381E+02 -0.36537644972E+02  0.64692699914E+02  0.47000000000E+01 0.  1.
         -5    1    4    4    0  502  0.15968835847E+02  0.65209091362E+02 -0.10627897967E+03  0.12579563122E+03  0.47000000000E+01 0.  1.
          5    1    5    5  503    0 -0.20533021212E+02  0.19287789245E+02  0.38278976892E+02  0.47759751318E+02  0.47000000000E+01 0. -1.
         -5    1    5    5    0  503  0.29357601677E+02 -0.37450707226E+02 -0.79754848034E+02  0.92991128786E+02  0.47000000000E+01 0. -1.
<mgrwt>
<rscale>  0 0.27523752E+03</rscale>
<asrwt>0</asrwt>
<pdfrwt beam="1">  1        2 0.11303593E-01 0.27523752E+03</pdfrwt>
<pdfrwt beam="2">  1       -2 0.39656285E-01 0.27523752E+03</pdfrwt>
<totfact> 0.33173623E+03</totfact>
</mgrwt>
</event>
<event>
 9    1  0.2031653E-002  0.2753796E+03  0.7818608E-02  0.1098240E+00
         -2   -1    0    0    0  501 -0.00000000000E+00  0.00000000000E+00  0.34968613407E+02  0.34968613407E+02  0.00000000000E+00 0. -1.
          2   -1    0    0  501    0  0.00000000000E+00 -0.00000000000E+00 -0.54215719694E+03  0.54215719694E+03  0.00000000000E+00 0. -1.
         36    2    1    2    0    0  0.00000000000E+00  0.00000000000E+00 -0.50718858353E+03  0.57712581034E+03  0.27537963197E+03 0.  0.
         25    2    3    3    0    0 -0.18884818273E+02  0.54764787071E+02 -0.27548490828E+03  0.30670458956E+03  0.12173722644E+03 0.  0.
         25    2    3    3    0    0  0.18884818273E+02 -0.54764787071E+02 -0.23170367525E+03  0.27042122079E+03  0.12682754143E+03 0.  0.
          5    1    4    4  502    0 -0.32648053776E+02 -0.14790034118E+01 -0.23148752344E+03  0.23383037949E+03  0.47000000000E+01 0.  1.
         -5    1    4    4    0  502  0.13763235503E+02  0.56243790482E+02 -0.43997384843E+02  0.72874210064E+02  0.47000000000E+01 0.  1.
          5    1    5    5  503    0  0.60224471064E+01 -0.92906276486E+02 -0.12246547845E+03  0.15390818527E+03  0.47000000000E+01 0. -1.
         -5    1    5    5    0  503  0.12862371167E+02  0.38141489415E+02 -0.10923819680E+03  0.11651303552E+03  0.47000000000E+01 0. -1.
<mgrwt>
<rscale>  0 0.27537963E+03</rscale>
<asrwt>0</asrwt>
<pdfrwt beam="1">  1        2 0.83408790E-01 0.27537963E+03</pdfrwt>
<pdfrwt beam="2">  1       -2 0.53797873E-02 0.27537963E+03</pdfrwt>
<totfact> 0.98837856E+03</totfact>
</mgrwt>
</event>
<event>
 9    1  0.2031653E-002  0.2745422E+03  0.7818608E-02  0.1098708E+00
         -1   -1    0    0    0  501 -0.00000000000E+00  0.00000000000E+00  0.35220919399E+03  0.35220919399E+03  0.00000000000E+00 0.  1.
          1   -1    0    0  501    0  0.00000000000E+00 -0.00000000000E+00 -0.53500465141E+02  0.53500465141E+02  0.00000000000E+00 0.  1.
         36    2    1    2    0    0  0.35527136788E-14  0.00000000000E+00  0.29870872884E+03  0.40570965913E+03  0.27454220590E+03 0.  0.
         25    2    3    3    0    0 -0.10187869897E+02 -0.54566606027E+02  0.17280174370E+03  0.21945020189E+03  0.12335575096E+03 0.  0.
         25    2    3    3    0    0  0.10187869897E+02  0.54566606027E+02  0.12590698514E+03  0.18625945724E+03  0.12553369793E+03 0.  0.
          5    1    4    4  502    0 -0.18928257379E+02 -0.45892975064E+02  0.38809086995E+01  0.50015952855E+02  0.47000000000E+01 0. -1.
         -5    1    4    4    0  502  0.87403874819E+01 -0.86736309627E+01  0.16892083500E+03  0.16943424903E+03  0.47000000000E+01 0. -1.
          5    1    5    5  503    0  0.58188104937E+02  0.24596410319E+02  0.11058738689E+03  0.12744606348E+03  0.47000000000E+01 0.  1.
         -5    1    5    5    0  503 -0.48000235041E+02  0.29970195708E+02  0.15319598246E+02  0.58813393756E+02  0.47000000000E+01 0.  1.
<mgrwt>
<rscale>  0 0.27454221E+03</rscale>
<asrwt>0</asrwt>
<pdfrwt beam="1">  1        1 0.82308410E-02 0.27454221E+03</pdfrwt>
<pdfrwt beam="2">  1       -1 0.54186028E-01 0.27454221E+03</pdfrwt>
<totfact> 0.29439437E+03</totfact>
</mgrwt>
</event>
<event>
 9    1  0.2031653E-002  0.2735556E+03  0.7818608E-02  0.1099262E+00
          1   -1    0    0  501    0  0.00000000000E+00  0.00000000000E+00  0.32801468232E+03  0.32801468232E+03  0.00000000000E+00 0.  1.
         -1   -1    0    0    0  501 -0.00000000000E+00 -0.00000000000E+00 -0.57034555095E+02  0.57034555095E+02  0.00000000000E+00 0.  1.
         36    2    1    2    0    0 -0.17763568394E-14 -0.71054273576E-14  0.27098012723E+03  0.38504923741E+03  0.27355563581E+03 0.  0.
         25    2    3    3    0    0 -0.14471435574E+02 -0.67118151119E+01  0.59527625024E+02  0.13955245929E+03  0.12520734740E+03 0.  0.
         25    2    3    3    0    0  0.14471435574E+02  0.67118151119E+01  0.21145250220E+03  0.24549677813E+03  0.12370140046E+03 0.  0.
          5    1    4    4  502    0 -0.15903158520E+02 -0.50772856787E+02 -0.12609716192E+02  0.54880674009E+02  0.47000000000E+01 0. -1.
         -5    1    4    4    0  502  0.14317229456E+01  0.44061041675E+02  0.72137341216E+02  0.84671785276E+02  0.47000000000E+01 0. -1.
          5    1    5    5  503    0 -0.65413923952E+01  0.44066891792E+02  0.19666414870E+02  0.48923804436E+02  0.47000000000E+01 0. -1.
         -5    1    5    5    0  503  0.21012827969E+02 -0.37355076680E+02  0.19178608733E+03  0.19657297369E+03  0.47000000000E+01 0. -1.
<mgrwt>
<rscale>  0 0.27355564E+03</rscale>
<asrwt>0</asrwt>
<pdfrwt beam="1">  1        1 0.50463796E-01 0.27355564E+03</pdfrwt>
<pdfrwt beam="2">  1       -1 0.87745472E-02 0.27355564E+03</pdfrwt>
<totfact> 0.57994820E+03</totfact>
</mgrwt>
</event>
<event>
 9    1  0.2031653E-002  0.2726194E+03  0.7818608E-02  0.1099790E+00
          2   -1    0    0  501    0  0.00000000000E+00  0.00000000000E+00  0.22125656502E+03  0.22125656502E+03  0.00000000000E+00 0. -1.
         -2   -1    0    0    0  501 -0.00000000000E+00 -0.00000000000E+00 -0.83976428569E+02  0.83976428569E+02  0.00000000000E+00 0. -1.
         36    2    1    2    0    0  0.17763568394E-14  0.00000000000E+00  0.13728013645E+03  0.30523299359E+03  0.27261941330E+03 0.  0.
         25    2    3    3    0    0 -0.12340567570E+02 -0.36407667351E+02  0.43728206570E+02  0.13908289866E+03  0.12630949608E+03 0.  0.
         25    2    3    3    0    0  0.12340567570E+02  0.36407667351E+02  0.93551929877E+02  0.16615009493E+03  0.13181836978E+03 0.  0.
          5    1    4    4  502    0  0.43782998311E+02  0.15498737939E+02  0.41495656917E+02  0.62459117523E+02  0.47000000000E+01 0.  1.
         -5    1    4    4    0  502 -0.56123565881E+02 -0.51906405291E+02  0.22325496536E+01  0.76623781135E+02  0.47000000000E+01 0.  1.
          5    1    5    5  503    0 -0.55655341600E+01 -0.49035642892E+02  0.39272060749E+02  0.63244400541E+02  0.47000000000E+01 0.  1.
         -5    1    5    5    0  503  0.17906101730E+02  0.85443310244E+02  0.54279869128E+02  0.10290569439E+03  0.47000000000E+01 0.  1.
<mgrwt>
<rscale>  0 0.27261941E+03</rscale>
<asrwt>0</asrwt>
<pdfrwt beam="1">  1        2 0.34039471E-01 0.27261941E+03</pdfrwt>
<pdfrwt beam="2">  1       -2 0.12919451E-01 0.27261941E+03</pdfrwt>
<totfact> 0.66281752E+03</totfact>
</mgrwt>
</event>
<event>
 9    1  0.2031653E-002  0.2711963E+03  0.7818608E-02  0.1100597E+00
         -2   -1    0    0    0  501 -0.00000000000E+00  0.00000000000E+00  0.82896057203E+01  0.82896057203E+01  0.00000000000E+00 0. -1.
          2   -1    0    0  501    0  0.00000000000E+00 -0.00000000000E+00 -0.22180626265E+04  0.22180626265E+04  0.00000000000E+00 0. -1.
         36    2    1    2    0    0 -0.35527136788E-14 -0.14210854715E-13 -0.22097730207E+04  0.22263522322E+04  0.27119634685E+03 0.  0.
         25    2    3    3    0    0 -0.41915343458E+01 -0.46206286943E+02 -0.13302676223E+04  0.13369289843E+04  0.12495828172E+03 0.  0.
         25    2    3    3    0    0  0.41915343458E+01  0.46206286943E+02 -0.87950539840E+03  0.88942324785E+03  0.12406199296E+03 0.  0.
          5    1    4    4  502    0 -0.58996740519E+02 -0.48744728014E+02 -0.67121958112E+03  0.67558454688E+03  0.47000000000E+01 0.  1.
         -5    1    4    4    0  502  0.54805206173E+02  0.25384410713E+01 -0.65904804122E+03  0.66134443745E+03  0.47000000000E+01 0.  1.
          5    1    5    5  503    0  0.31349325896E+02  0.42617654654E+02 -0.83671050970E+03  0.83839466349E+03  0.47000000000E+01 0. -1.
         -5    1    5    5    0  503 -0.27157791550E+02  0.35886322895E+01 -0.42794888692E+02  0.51028584360E+02  0.47000000000E+01 0. -1.
<mgrwt>
<rscale>  0 0.27119635E+03</rscale>
<asrwt>0</asrwt>
<pdfrwt beam="1">  1        2 0.34124057E+00 0.27119635E+03</pdfrwt>
<pdfrwt beam="2">  1       -2 0.12753233E-02 0.27119635E+03</pdfrwt>
<totfact> 0.85180150E+03</totfact>
</mgrwt>
</event>
<event>
 9    1  0.2031653E-002  0.2748305E+03  0.7818608E-02  0.1098546E+00
         -2   -1    0    0    0  501 -0.00000000000E+00  0.00000000000E+00  0.21449309372E+02  0.21449309372E+02  0.00000000000E+00 0. -1.
          2   -1    0    0  501    0  0.00000000000E+00 -0.00000000000E+00 -0.88035254196E+03  0.88035254196E+03  0.00000000000E+00 0. -1.
         36    2    1    2    0    0 -0.71054273576E-14  0.71054273576E-14 -0.85890323259E+03  0.90180185134E+03  0.27483052254E+03 0.  0.
         25    2    3    3    0    0  0.25472443320E+02  0.49122794312E+02 -0.33721610729E+03  0.36285994823E+03  0.12202763919E+03 0.  0.
         25    2    3    3    0    0 -0.25472443320E+02 -0.49122794312E+02 -0.52168712530E+03  0.53894190311E+03  0.12344644153E+03 0.  0.
          5    1    4    4  502    0 -0.49300083246E+02  0.16015705880E+02 -0.12733366145E+03  0.13756072252E+03  0.47000000000E+01 0. -1.
         -5    1    4    4    0  502  0.74772526566E+02  0.33107088432E+02 -0.20988244584E+03  0.22529922571E+03  0.47000000000E+01 0. -1.
          5    1    5    5  503    0 -0.17122487715E+02 -0.22005967769E+01 -0.31122262550E+01  0.18160345921E+02  0.47000000000E+01 0.  1.
         -5    1    5    5    0  503 -0.83499556056E+01 -0.46922197535E+02 -0.51857489905E+03  0.52078155718E+03  0.47000000000E+01 0.  1.
<mgrwt>
<rscale>  0 0.27483052E+03</rscale>
<asrwt>0</asrwt>
<pdfrwt beam="1">  1        2 0.13543886E+00 0.27483052E+03</pdfrwt>
<pdfrwt beam="2">  1       -2 0.32998935E-02 0.27483052E+03</pdfrwt>
<totfact> 0.11457139E+04</totfact>
</mgrwt>
</event>
<event>
 9    1  0.2031653E-002  0.2695637E+03  0.7818608E-02  0.1101530E+00
          3   -1    0    0  501    0  0.00000000000E+00  0.00000000000E+00  0.31581720766E+03  0.31581720766E+03  0.00000000000E+00 0. -1.
         -3   -1    0    0    0  501 -0.00000000000E+00 -0.00000000000E+00 -0.57521081479E+02  0.57521081479E+02  0.00000000000E+00 0. -1.
         36    2    1    2    0    0  0.00000000000E+00 -0.71054273576E-14  0.25829612619E+03  0.37333828914E+03  0.26956370182E+03 0.  0.
         25    2    3    3    0    0 -0.56720286434E+02  0.24301853422E+02  0.15133297687E+03  0.20575550458E+03  0.12500354716E+03 0.  0.
         25    2    3    3    0    0  0.56720286434E+02 -0.24301853422E+02  0.10696314932E+03  0.16758278456E+03  0.11329211534E+03 0.  0.
          5    1    4    4  502    0  0.26596084132E+02  0.45853127407E+02  0.57266550379E+02  0.78175499848E+02  0.47000000000E+01 0.  1.
         -5    1    4    4    0  502 -0.83316370566E+02 -0.21551273985E+02  0.94066426490E+02  0.12758000473E+03  0.47000000000E+01 0.  1.
          5    1    5    5  503    0  0.44881772469E+02  0.56786349578E+01  0.12309778855E+03  0.13123176422E+03  0.47000000000E+01 0. -1.
         -5    1    5    5    0  503  0.11838513965E+02 -0.29980488380E+02 -0.16134639237E+02  0.36351020339E+02  0.47000000000E+01 0. -1.
<mgrwt>
<rscale>  0 0.26956370E+03</rscale>
<asrwt>0</asrwt>
<pdfrwt beam="1">  1        3 0.48587262E-01 0.26956370E+03</pdfrwt>
<pdfrwt beam="2">  1       -3 0.88493973E-02 0.26956370E+03</pdfrwt>
<totfact> 0.97066497E+02</totfact>
</mgrwt>
</event>
<event>
 9    1  0.2031653E-002  0.2751904E+03  0.7818608E-02  0.1098345E+00
         -2   -1    0    0    0  501 -0.00000000000E+00  0.00000000000E+00  0.54529095065E+01  0.54529095065E+01  0.00000000000E+00 0. -1.
          2   -1    0    0  501    0  0.00000000000E+00 -0.00000000000E+00 -0.34719884617E+04  0.34719884617E+04  0.00000000000E+00 0. -1.
         36    2    1    2    0    0 -0.71054273576E-14  0.71054273576E-14 -0.34665355522E+04  0.34774413712E+04  0.27519039874E+03 0.  0.
         25    2    3    3    0    0  0.91150215588E+01  0.54478930283E+02 -0.14334708410E+04  0.14399467620E+04  0.12472765515E+03 0.  0.
         25    2    3    3    0    0 -0.91150215588E+01 -0.54478930283E+02 -0.20330647112E+04  0.20374946092E+04  0.12239740662E+03 0.  0.
          5    1    4    4  502    0 -0.55289517571E+02  0.10082169609E+02 -0.49256800473E+03  0.49578615368E+03  0.47000000000E+01 0. -1.
         -5    1    4    4    0  502  0.64404539130E+02  0.44396760674E+02 -0.94090283629E+03  0.94416060835E+03  0.47000000000E+01 0. -1.
          5    1    5    5  503    0  0.42274686124E+02 -0.46659805810E+02 -0.56761115081E+03  0.57111189367E+03  0.47000000000E+01 0. -1.
         -5    1    5    5    0  503 -0.51389707683E+02 -0.78191244733E+01 -0.14654535604E+04  0.14663827156E+04  0.47000000000E+01 0. -1.
<mgrwt>
<rscale>  0 0.27519040E+03</rscale>
<asrwt>0</asrwt>
<pdfrwt beam="1">  1        2 0.53415491E+00 0.27519040E+03</pdfrwt>
<pdfrwt beam="2">  1       -2 0.83890469E-03 0.27519040E+03</pdfrwt>
<totfact> 0.29114954E+03</totfact>
</mgrwt>
</event>
<event>
 9    1  0.2031653E-002  0.2753985E+03  0.7818608E-02  0.1098229E+00
         -1   -1    0    0    0  501 -0.00000000000E+00  0.00000000000E+00  0.14424687494E+02  0.14424687494E+02  0.00000000000E+00 0. -1.
          1   -1    0    0  501    0  0.00000000000E+00 -0.00000000000E+00 -0.13144887291E+04  0.13144887291E+04  0.00000000000E+00 0. -1.
         36    2    1    2    0    0  0.00000000000E+00 -0.35527136788E-14 -0.13000640416E+04  0.13289134166E+04  0.27539854125E+03 0.  0.
         25    2    3    3    0    0 -0.49777070732E+02 -0.19879019725E+02 -0.77737152813E+03  0.78863814345E+03  0.12153475375E+03 0.  0.
         25    2    3    3    0    0  0.49777070732E+02  0.19879019725E+02 -0.52269251347E+03  0.54027527313E+03  0.12576555540E+03 0.  0.
          5    1    4    4  502    0 -0.31493532662E+02  0.31583885424E+02 -0.62673867365E+03  0.62834133994E+03  0.47000000000E+01 0. -1.
         -5    1    4    4    0  502 -0.18283538070E+02 -0.51462905150E+02 -0.15063285447E+03  0.16029680351E+03  0.47000000000E+01 0. -1.
          5    1    5    5  503    0 -0.17148862211E+02  0.25276487816E+02 -0.30218653865E+02  0.43223157600E+02  0.47000000000E+01 0. -1.
         -5    1    5    5    0  503  0.66925932943E+02 -0.53974680910E+01 -0.49247385960E+03  0.49705211553E+03  0.47000000000E+01 0. -1.
<mgrwt>
<rscale>  0 0.27539854E+03</rscale>
<asrwt>0</asrwt>
<pdfrwt beam="1">  1        1 0.20222910E+00 0.27539854E+03</pdfrwt>
<pdfrwt beam="2">  1       -1 0.22191819E-02 0.27539854E+03</pdfrwt>
<totfact> 0.56145210E+03</totfact>
</mgrwt>
</event>
<event>
 9    1  0.2031653E-002  0.2669984E+03  0.7818608E-02  0.1103010E+00
          1   -1    0    0  501    0  0.00000000000E+00  0.00000000000E+00  0.14193966596E+04  0.14193966596E+04  0.00000000000E+00 0. -1.
         -1   -1    0    0    0  501 -0.00000000000E+00 -0.00000000000E+00 -0.12556062756E+02  0.12556062756E+02  0.00000000000E+00 0. -1.
         36    2    1    2    0    0  0.00000000000E+00 -0.35527136788E-14  0.14068405968E+04  0.14319527223E+04  0.26699837852E+03 0.  0.
         25    2    3    3    0    0  0.44177126412E+02  0.25969273975E+01  0.70308577648E+03  0.71549407009E+03  0.12507514830E+03 0.  0.
         25    2    3    3    0    0 -0.44177126412E+02 -0.25969273975E+01  0.70375482035E+03  0.71645865224E+03  0.12682188566E+03 0.  0.
          5    1    4    4  502    0  0.57332189352E+02  0.33449904549E+02  0.64369300520E+03  0.64712336613E+03  0.47000000000E+01 0.  1.
         -5    1    4    4    0  502 -0.13155062941E+02 -0.30852977151E+02  0.59392771277E+02  0.68370703960E+02  0.47000000000E+01 0.  1.
          5    1    5    5  503    0  0.21934307810E+02  0.45739262277E+02  0.32045663696E+03  0.32448072384E+03  0.47000000000E+01 0.  1.
         -5    1    5    5    0  503 -0.66111434221E+02 -0.48336189675E+02  0.38329818339E+03  0.39197792841E+03  0.47000000000E+01 0.  1.
<mgrwt>
<rscale>  0 0.26699838E+03</rscale>
<asrwt>0</asrwt>
<pdfrwt beam="1">  1        1 0.21836859E+00 0.26699838E+03</pdfrwt>
<pdfrwt beam="2">  1       -1 0.19317031E-02 0.26699838E+03</pdfrwt>
<totfact> 0.58404825E+03</totfact>
</mgrwt>
</event>
<event>
 9    1  0.2031653E-002  0.2757424E+03  0.7818608E-02  0.1098037E+00
         -2   -1    0    0    0  501 -0.00000000000E+00  0.00000000000E+00  0.44621185935E+02  0.44621185935E+02  0.00000000000E+00 0.  1.
          2   -1    0    0  501    0  0.00000000000E+00 -0.00000000000E+00 -0.42599635713E+03  0.42599635713E+03  0.00000000000E+00 0.  1.
         36    2    1    2    0    0  0.00000000000E+00  0.00000000000E+00 -0.38137517120E+03  0.47061754307E+03  0.27574236279E+03 0.  0.
         25    2    3    3    0    0  0.34508218636E+02 -0.38565745492E+01 -0.27502280583E+03  0.30403559415E+03  0.12487757389E+03 0.  0.
         25    2    3    3    0    0 -0.34508218636E+02  0.38565745492E+01 -0.10635236537E+03  0.16658194892E+03  0.12342216076E+03 0.  0.
          5    1    4    4  502    0 -0.33992373671E+02 -0.37150821587E+02 -0.14121907664E+03  0.15000194205E+03  0.47000000000E+01 0.  1.
         -5    1    4    4    0  502  0.68500592308E+02  0.33294247037E+02 -0.13380372919E+03  0.15403365209E+03  0.47000000000E+01 0.  1.
          5    1    5    5  503    0  0.29519266128E+02 -0.37684527530E+02 -0.60978909454E+02  0.77666132168E+02  0.47000000000E+01 0. -1.
         -5    1    5    5    0  503 -0.64027484764E+02  0.41541102079E+02 -0.45373455915E+02  0.88915816753E+02  0.47000000000E+01 0. -1.
<mgrwt>
<rscale>  0 0.27574236E+03</rscale>
<asrwt>0</asrwt>
<pdfrwt beam="1">  1        2 0.65537902E-01 0.27574236E+03</pdfrwt>
<pdfrwt beam="2">  1       -2 0.68647977E-02 0.27574236E+03</pdfrwt>
<totfact> 0.88899793E+03</totfact>
</mgrwt>
</event>
<event>
 9    1  0.2031653E-002  0.2763888E+03  0.7818608E-02  0.1097678E+00
          1   -1    0    0  501    0  0.00000000000E+00  0.00000000000E+00  0.88196376928E+02  0.88196376928E+02  0.00000000000E+00 0. -1.
         -1   -1    0    0    0  501 -0.00000000000E+00 -0.00000000000E+00 -0.21653601203E+03  0.21653601203E+03  0.00000000000E+00 0. -1.
         36    2    1    2    0    0  0.00000000000E+00  0.00000000000E+00 -0.12833963510E+03  0.30473238895E+03  0.27638879670E+03 0.  0.
         25    2    3    3    0    0 -0.52108117509E+02 -0.71919813864E+02 -0.39266072310E+02  0.13238165043E+03  0.89974226301E+02 0.  0.
         25    2    3    3    0    0  0.52108117509E+02  0.71919813864E+02 -0.89073562787E+02  0.17235073853E+03  0.11782598163E+03 0.  0.
          5    1    4    4  502    0 -0.11056400955E+01 -0.48443677893E+02  0.18132776536E+02  0.51950937938E+02  0.47000000000E+01 0. -1.
         -5    1    4    4    0  502 -0.51002477413E+02 -0.23476135972E+02 -0.57398848846E+02  0.80430712488E+02  0.47000000000E+01 0. -1.
          5    1    5    5  503    0  0.84837493830E+02  0.57600235802E+02 -0.37186259928E+02  0.10917918964E+03  0.47000000000E+01 0.  1.
         -5    1    5    5    0  503 -0.32729376321E+02  0.14319578062E+02 -0.51887302860E+02  0.63171548883E+02  0.47000000000E+01 0.  1.
<mgrwt>
<rscale>  0 0.27638880E+03</rscale>
<asrwt>0</asrwt>
<pdfrwt beam="1">  1        1 0.13568674E-01 0.27638880E+03</pdfrwt>
<pdfrwt beam="2">  1       -1 0.33313232E-01 0.27638880E+03</pdfrwt>
<totfact> 0.36119519E+03</totfact>
</mgrwt>
</event>
<event>
 9    1  0.2031653E-002  0.2775166E+03  0.7818608E-02  0.1097053E+00
          4   -1    0    0  501    0  0.00000000000E+00  0.00000000000E+00  0.96207174728E+02  0.96207174728E+02  0.00000000000E+00 0.  1.
         -4   -1    0    0    0  501 -0.00000000000E+00 -0.00000000000E+00 -0.20012925442E+03  0.20012925442E+03  0.00000000000E+00 0.  1.
         36    2    1    2    0    0  0.00000000000E+00  0.35527136788E-14 -0.10392207969E+03  0.29633642915E+03  0.27751663120E+03 0.  0.
         25    2    3    3    0    0  0.71237637567E+02 -0.44008592501E+01 -0.32917357578E+02  0.13605089936E+03  0.11105010680E+03 0.  0.
         25    2    3    3    0    0 -0.71237637567E+02  0.44008592501E+01 -0.71004722117E+02  0.16028552979E+03  0.12472213888E+03 0.  0.
          5    1    4    4  502    0  0.15516260485E+02  0.46147670312E+02  0.90993551173E+01  0.49751885172E+02  0.47000000000E+01 0. -1.
         -5    1    4    4    0  502  0.55721377082E+02 -0.50548529562E+02 -0.42016712695E+02  0.86299014192E+02  0.47000000000E+01 0. -1.
          5    1    5    5  503    0  0.27537720397E+02 -0.27973621686E+02 -0.16716955220E+02  0.42923142321E+02  0.47000000000E+01 0. -1.
         -5    1    5    5    0  503 -0.98775357965E+02  0.32374480936E+02 -0.54287766896E+02  0.11736238747E+03  0.47000000000E+01 0. -1.
<mgrwt>
<rscale>  0 0.27751663E+03</rscale>
<asrwt>0</asrwt>
<pdfrwt beam="1">  1        4 0.14801104E-01 0.27751663E+03</pdfrwt>
<pdfrwt beam="2">  1       -4 0.30789116E-01 0.27751663E+03</pdfrwt>
<totfact> 0.73310010E+02</totfact>
</mgrwt>
</event>
<event>
 9    1  0.2031653E-002  0.2739869E+03  0.7818608E-02  0.1099019E+00
         -2   -1    0    0    0  501 -0.00000000000E+00  0.00000000000E+00  0.10197437555E+03  0.10197437555E+03  0.00000000000E+00 0.  1.
          2   -1    0    0  501    0  0.00000000000E+00 -0.00000000000E+00 -0.18403842891E+03  0.18403842891E+03  0.00000000000E+00 0.  1.
         36    2    1    2    0    0  0.00000000000E+00  0.00000000000E+00 -0.82064053360E+02  0.28601280446E+03  0.27398688922E+03 0.  0.
         25    2    3    3    0    0  0.12702861604E+02 -0.35872403837E+02 -0.79013972049E+02  0.15502664339E+03  0.12783528595E+03 0.  0.
         25    2    3    3    0    0 -0.12702861604E+02  0.35872403837E+02 -0.30500813116E+01  0.13098616107E+03  0.12529915940E+03 0.  0.
          5    1    4    4  502    0 -0.54138177167E+02 -0.38046283312E+02 -0.39649225064E+02  0.77282682077E+02  0.47000000000E+01 0. -1.
         -5    1    4    4    0  502  0.66841038771E+02  0.21738794747E+01 -0.39364746984E+02  0.77743961316E+02  0.47000000000E+01 0. -1.
          5    1    5    5  503    0  0.47839700665E+02  0.34682978070E+02 -0.27711871470E+02  0.65433811962E+02  0.47000000000E+01 0. -1.
         -5    1    5    5    0  503 -0.60542562269E+02  0.11894257672E+01  0.24661790158E+02  0.65552349108E+02  0.47000000000E+01 0. -1.
<mgrwt>
<rscale>  0 0.27398689E+03</rscale>
<asrwt>0</asrwt>
<pdfrwt beam="1">  1        2 0.28313604E-01 0.27398689E+03</pdfrwt>
<pdfrwt beam="2">  1       -2 0.15688366E-01 0.27398689E+03</pdfrwt>
<totfact> 0.58948890E+03</totfact>
</mgrwt>
</event>
<event>
 9    1  0.2031653E-002  0.2762906E+03  0.7818608E-02  0.1097732E+00
          2   -1    0    0  501    0  0.00000000000E+00  0.00000000000E+00  0.40705145912E+03  0.40705145912E+03  0.00000000000E+00 0. -1.
         -2   -1    0    0    0  501 -0.00000000000E+00 -0.00000000000E+00 -0.46883796761E+02  0.46883796761E+02  0.00000000000E+00 0. -1.
         36    2    1    2    0    0 -0.71054273576E-14  0.00000000000E+00  0.36016766236E+03  0.45393525588E+03  0.27629055634E+03 0.  0.
         25    2    3    3    0    0 -0.35038433360E+02  0.37435951476E+02  0.16854980658E+03  0.21751998346E+03  0.12758042025E+03 0.  0.
         25    2    3    3    0    0  0.35038433360E+02 -0.37435951476E+02  0.19161785578E+03  0.23641527242E+03  0.12862984142E+03 0.  0.
          5    1    4    4  502    0  0.15771933205E+02  0.35150936099E+02 -0.26107017004E+01  0.38900487773E+02  0.47000000000E+01 0.  1.
         -5    1    4    4    0  502 -0.50810366566E+02  0.22850153778E+01  0.17116050828E+03  0.17861949569E+03  0.47000000000E+01 0.  1.
          5    1    5    5  503    0  0.69571630531E+02 -0.55812311154E+02  0.87255047351E+02  0.12486296144E+03  0.47000000000E+01 0. -1.
         -5    1    5    5    0  503 -0.34533197171E+02  0.18376359678E+02  0.10436280843E+03  0.11155231098E+03  0.47000000000E+01 0. -1.
<mgrwt>
<rscale>  0 0.27629056E+03</rscale>
<asrwt>0</asrwt>
<pdfrwt beam="1">  1        2 0.62623299E-01 0.27629056E+03</pdfrwt>
<pdfrwt beam="2">  1       -2 0.72128921E-02 0.27629056E+03</pdfrwt>
<totfact> 0.86539563E+03</totfact>
</mgrwt>
</event>
<event>
 9    1  0.2031653E-002  0.2750479E+03  0.7818608E-02  0.1098425E+00
          2   -1    0    0  501    0  0.00000000000E+00  0.00000000000E+00  0.96276013087E+03  0.96276013087E+03  0.00000000000E+00 0. -1.
         -2   -1    0    0    0  501 -0.00000000000E+00 -0.00000000000E+00 -0.19644394827E+02  0.19644394827E+02  0.00000000000E+00 0. -1.
         36    2    1    2    0    0  0.00000000000E+00  0.71054273576E-14  0.94311573605E+03  0.98240452570E+03  0.27504792408E+03 0.  0.
         25    2    3    3    0    0  0.36741164856E+02  0.11064522175E+02  0.29685188528E+03  0.32527506912E+03  0.12732043021E+03 0.  0.
         25    2    3    3    0    0 -0.36741164856E+02 -0.11064522175E+02  0.64626385076E+03  0.65712945658E+03  0.11264910588E+03 0.  0.
          5    1    4    4  502    0 -0.16665183683E+02  0.57991859399E+02  0.11478149550E+03  0.12976003165E+03  0.47000000000E+01 0.  1.
         -5    1    4    4    0  502  0.53406348538E+02 -0.46927337224E+02  0.18207038978E+03  0.19551503747E+03  0.47000000000E+01 0.  1.
          5    1    5    5  503    0 -0.53944804227E+02 -0.37297758915E+02  0.21818821986E+03  0.22788013079E+03  0.47000000000E+01 0.  1.
         -5    1    5    5    0  503  0.17203639372E+02  0.26233236740E+02  0.42807563090E+03  0.42924932579E+03  0.47000000000E+01 0.  1.
<mgrwt>
<rscale>  0 0.27504792E+03</rscale>
<asrwt>0</asrwt>
<pdfrwt beam="1">  1        2 0.14811691E+00 0.27504792E+03</pdfrwt>
<pdfrwt beam="2">  1       -2 0.30222153E-02 0.27504792E+03</pdfrwt>
<totfact> 0.11571931E+04</totfact>
</mgrwt>
</event>
<event>
 9    1  0.2031653E-002  0.2761914E+03  0.7818608E-02  0.1097787E+00
         -2   -1    0    0    0  501 -0.00000000000E+00  0.00000000000E+00  0.52336156019E+02  0.52336156019E+02  0.00000000000E+00 0. -1.
          2   -1    0    0  501    0  0.00000000000E+00 -0.00000000000E+00 -0.36438336660E+03  0.36438336660E+03  0.00000000000E+00 0. -1.
         36    2    1    2    0    0  0.35527136788E-14 -0.35527136788E-14 -0.31204721058E+03  0.41671952262E+03  0.27619141714E+03 0.  0.
         25    2    3    3    0    0  0.18259700956E+02  0.14010098966E+02 -0.67120192184E+02  0.14095972872E+03  0.12179829789E+03 0.  0.
         25    2    3    3    0    0 -0.18259700956E+02 -0.14010098966E+02 -0.24492701840E+03  0.27575979391E+03  0.12459743192E+03 0.  0.
          5    1    4    4  502    0 -0.11253057388E+02  0.17358836300E+02 -0.96568000921E+02  0.98870770707E+02  0.47000000000E+01 0. -1.
         -5    1    4    4    0  502  0.29512758345E+02 -0.33487373339E+01  0.29447808737E+02  0.42088958008E+02  0.47000000000E+01 0. -1.
          5    1    5    5  503    0 -0.39042717354E+02 -0.52228488664E+02 -0.71439840362E+02  0.96839504323E+02  0.47000000000E+01 0. -1.
         -5    1    5    5    0  503  0.20783016398E+02  0.38218389698E+02 -0.17348717804E+03  0.17892028958E+03  0.47000000000E+01 0. -1.
<mgrwt>
<rscale>  0 0.27619142E+03</rscale>
<asrwt>0</asrwt>
<pdfrwt beam="1">  1        2 0.56058981E-01 0.27619142E+03</pdfrwt>
<pdfrwt beam="2">  1       -2 0.80517161E-02 0.27619142E+03</pdfrwt>
<totfact> 0.82214402E+03</totfact>
</mgrwt>
</event>
<event>
 9    1  0.2031653E-002  0.2755131E+03  0.7818608E-02  0.1098165E+00
          2   -1    0    0  501    0  0.00000000000E+00  0.00000000000E+00  0.21252922968E+04  0.21252922968E+04  0.00000000000E+00 0. -1.
         -2   -1    0    0    0  501 -0.00000000000E+00 -0.00000000000E+00 -0.89290631978E+01  0.89290631978E+01  0.00000000000E+00 0. -1.
         36    2    1    2    0    0  0.00000000000E+00  0.00000000000E+00  0.21163632336E+04  0.21342213600E+04  0.27551311571E+03 0.  0.
         25    2    3    3    0    0 -0.23145291454E+02 -0.16308393673E+01  0.14248068076E+04  0.14298707755E+04  0.11797301150E+03 0.  0.
         25    2    3    3    0    0  0.23145291454E+02  0.16308393673E+01  0.69155642596E+03  0.70435058447E+03  0.13160961746E+03 0.  0.
          5    1    4    4  502    0 -0.30554662558E+02 -0.56620022153E+02  0.78272929429E+03  0.78538312463E+03  0.47000000000E+01 0.  1.
         -5    1    4    4    0  502  0.74093711046E+01  0.54989182786E+02  0.64207751333E+03  0.64448765087E+03  0.47000000000E+01 0.  1.
          5    1    5    5  503    0  0.31839272509E+02 -0.16609945513E+02  0.46404014274E+02  0.58864693192E+02  0.47000000000E+01 0. -1.
         -5    1    5    5    0  503 -0.86939810549E+01  0.18240784880E+02  0.64515241168E+03  0.64548589128E+03  0.47000000000E+01 0. -1.
<mgrwt>
<rscale>  0 0.27551312E+03</rscale>
<asrwt>0</asrwt>
<pdfrwt beam="1">  1        2 0.32696764E+00 0.27551312E+03</pdfrwt>
<pdfrwt beam="2">  1       -2 0.13737037E-02 0.27551312E+03</pdfrwt>
<totfact> 0.85610242E+03</totfact>
</mgrwt>
</event>
<event>
 9    1  0.2031653E-002  0.2765393E+03  0.7818608E-02  0.1097594E+00
         -2   -1    0    0    0  501 -0.00000000000E+00  0.00000000000E+00  0.38618232452E+02  0.38618232452E+02  0.00000000000E+00 0.  1.
          2   -1    0    0  501    0  0.00000000000E+00 -0.00000000000E+00 -0.49506385887E+03  0.49506385887E+03  0.00000000000E+00 0.  1.
         36    2    1    2    0    0  0.35527136788E-14  0.00000000000E+00 -0.45644562641E+03  0.53368209132E+03  0.27653926434E+03 0.  0.
         25    2    3    3    0    0  0.39725551982E+01 -0.23832459643E+02 -0.12511611234E+03  0.17993411304E+03  0.12703730217E+03 0.  0.
         25    2    3    3    0    0 -0.39725551982E+01  0.23832459643E+02 -0.33132951407E+03  0.35374797828E+03  0.12155088610E+03 0.  0.
          5    1    4    4  502    0 -0.25354915518E+02 -0.98535416911E+01  0.18096027174E+02  0.33007881244E+02  0.47000000000E+01 0. -1.
         -5    1    4    4    0  502  0.29327470716E+02 -0.13978917951E+02 -0.14321213952E+03  0.14692623180E+03  0.47000000000E+01 0. -1.
          5    1    5    5  503    0  0.40153095322E+02  0.72460278570E+01 -0.28338773972E+03  0.28634852367E+03  0.47000000000E+01 0. -1.
         -5    1    5    5    0  503 -0.44125650521E+02  0.16586431786E+02 -0.47941774356E+02  0.67399454609E+02  0.47000000000E+01 0. -1.
<mgrwt>
<rscale>  0 0.27653926E+03</rscale>
<asrwt>0</asrwt>
<pdfrwt beam="1">  1        2 0.76163662E-01 0.27653926E+03</pdfrwt>
<pdfrwt beam="2">  1       -2 0.59412672E-02 0.27653926E+03</pdfrwt>
<totfact> 0.94080714E+03</totfact>
</mgrwt>
</event>
<event>
 9    1  0.2031653E-002  0.2765705E+03  0.7818608E-02  0.1097577E+00
          1   -1    0    0  501    0  0.00000000000E+00  0.00000000000E+00  0.27506124253E+03  0.27506124253E+03  0.00000000000E+00 0.  1.
         -1   -1    0    0    0  501 -0.00000000000E+00 -0.00000000000E+00 -0.69522024450E+02  0.69522024450E+02  0.00000000000E+00 0.  1.
         36    2    1    2    0    0  0.71054273576E-14 -0.71054273576E-14  0.20553921808E+03  0.34458326698E+03  0.27657052937E+03 0.  0.
         25    2    3    3    0    0 -0.56508345975E+02 -0.16791154030E+02  0.97008403295E+02  0.16805431223E+03  0.12392128765E+03 0.  0.
         25    2    3    3    0    0  0.56508345975E+02  0.16791154030E+02  0.10853081478E+03  0.17652895474E+03  0.12612849831E+03 0.  0.
          5    1    4    4  502    0 -0.41693038293E+02 -0.68432372243E+02  0.40381237273E+02  0.89855624958E+02  0.47000000000E+01 0.  1.
         -5    1    4    4    0  502 -0.14815307682E+02  0.51641218213E+02  0.56627166022E+02  0.78198687277E+02  0.47000000000E+01 0.  1.
          5    1    5    5  503    0  0.85975289901E+02 -0.17334829050E+02  0.45577953042E+02  0.98952951322E+02  0.47000000000E+01 0. -1.
         -5    1    5    5    0  503 -0.29466943926E+02  0.34125983080E+02  0.62952861739E+02  0.77576003420E+02  0.47000000000E+01 0. -1.
<mgrwt>
<rscale>  0 0.27657053E+03</rscale>
<asrwt>0</asrwt>
<pdfrwt beam="1">  1        1 0.42317114E-01 0.27657053E+03</pdfrwt>
<pdfrwt beam="2">  1       -1 0.10695696E-01 0.27657053E+03</pdfrwt>
<totfact> 0.53343959E+03</totfact>
</mgrwt>
</event>
<event>
 9    1  0.2031653E-002  0.2750117E+03  0.7818608E-02  0.1098445E+00
          1   -1    0    0  501    0  0.00000000000E+00  0.00000000000E+00  0.57085449589E+02  0.57085449589E+02  0.00000000000E+00 0.  1.
         -1   -1    0    0    0  501 -0.00000000000E+00 -0.00000000000E+00 -0.33122019845E+03  0.33122019845E+03  0.00000000000E+00 0.  1.
         36    2    1    2    0    0  0.35527136788E-14  0.00000000000E+00 -0.27413474886E+03  0.38830564804E+03  0.27501166478E+03 0.  0.
         25    2    3    3    0    0 -0.98457755906E+01  0.16241769611E+01 -0.17893135919E+03  0.22039630115E+03  0.12829076745E+03 0.  0.
         25    2    3    3    0    0  0.98457755906E+01 -0.16241769611E+01 -0.95203389671E+02  0.16790934688E+03  0.13795030307E+03 0.  0.
          5    1    4    4  502    0 -0.62262146615E+02  0.26511068211E+02 -0.73915909000E+02  0.10032478877E+03  0.47000000000E+01 0. -1.
         -5    1    4    4    0  502  0.52416371024E+02 -0.24886891250E+02 -0.10501545019E+03  0.12007151238E+03  0.47000000000E+01 0. -1.
          5    1    5    5  503    0  0.91750667651E+01 -0.21353296536E+02 -0.12754413058E+03  0.12972948920E+03  0.47000000000E+01 0. -1.
         -5    1    5    5    0  503  0.67070882547E+00  0.19729119574E+02  0.32340740913E+02  0.38179857678E+02  0.47000000000E+01 0. -1.
<mgrwt>
<rscale>  0 0.27501166E+03</rscale>
<asrwt>0</asrwt>
<pdfrwt beam="1">  1        1 0.87823768E-02 0.27501166E+03</pdfrwt>
<pdfrwt beam="2">  1       -1 0.50956954E-01 0.27501166E+03</pdfrwt>
<totfact> 0.30241442E+03</totfact>
</mgrwt>
</event>
<event>
 9    1  0.2031653E-002  0.2754677E+03  0.7818608E-02  0.1098190E+00
          2   -1    0    0  501    0  0.00000000000E+00  0.00000000000E+00  0.96482900064E+02  0.96482900064E+02  0.00000000000E+00 0. -1.
         -2   -1    0    0    0  501 -0.00000000000E+00 -0.00000000000E+00 -0.19662151172E+03  0.19662151172E+03  0.00000000000E+00 0. -1.
         36    2    1    2    0    0 -0.71054273576E-14  0.35527136788E-14 -0.10013861166E+03  0.29310441178E+03  0.27546770167E+03 0.  0.
         25    2    3    3    0    0 -0.40398529463E+02  0.22804086977E+02  0.11968962548E+02  0.13340268507E+03  0.12450282227E+03 0.  0.
         25    2    3    3    0    0  0.40398529463E+02 -0.22804086977E+02 -0.11210757421E+03  0.15970172671E+03  0.10384828239E+03 0.  0.
          5    1    4    4  502    0 -0.29447136411E+02 -0.29376971699E+02  0.51861489825E+02  0.66647163749E+02  0.47000000000E+01 0.  1.
         -5    1    4    4    0  502 -0.10951393052E+02  0.52181058676E+02 -0.39892527277E+02  0.66755521321E+02  0.47000000000E+01 0.  1.
          5    1    5    5  503    0  0.46004238421E+02 -0.20605331771E+02 -0.13039762579E+03  0.13988066508E+03  0.47000000000E+01 0.  1.
         -5    1    5    5    0  503 -0.56057089575E+01 -0.21987552061E+01  0.18290051587E+02  0.19821061637E+02  0.47000000000E+01 0.  1.
<mgrwt>
<rscale>  0 0.27546770E+03</rscale>
<asrwt>0</asrwt>
<pdfrwt beam="1">  1        2 0.14843523E-01 0.27546770E+03</pdfrwt>
<pdfrwt beam="2">  1       -2 0.30249463E-01 0.27546770E+03</pdfrwt>
<totfact> 0.39533448E+03</totfact>
</mgrwt>
</event>
<event>
 9    1  0.2031653E-002  0.2748685E+03  0.7818608E-02  0.1098525E+00
         -2   -1    0    0    0  501 -0.00000000000E+00  0.00000000000E+00  0.24681993458E+02  0.24681993458E+02  0.00000000000E+00 0.  1.
          2   -1    0    0  501    0  0.00000000000E+00 -0.00000000000E+00 -0.76526146407E+03  0.76526146407E+03  0.00000000000E+00 0.  1.
         36    2    1    2    0    0  0.00000000000E+00  0.71054273576E-14 -0.74057947061E+03  0.78994345753E+03  0.27486853912E+03 0.  0.
         25    2    3    3    0    0  0.37856497385E+02  0.25900971337E+02 -0.37311819097E+03  0.39660973012E+03  0.12640458410E+03 0.  0.
         25    2    3    3    0    0 -0.37856497385E+02 -0.25900971337E+02 -0.36746127964E+03  0.39333372741E+03  0.13258828897E+03 0.  0.
          5    1    4    4  502    0 -0.28524510673E+02  0.23720737442E+02 -0.32499048409E+02  0.49543912254E+02  0.47000000000E+01 0. -1.
         -5    1    4    4    0  502  0.66381008059E+02  0.21802338954E+01 -0.34061914256E+03  0.34706581786E+03  0.47000000000E+01 0. -1.
          5    1    5    5  503    0 -0.16163529559E+02 -0.28701417746E+02 -0.94021039935E+01  0.34576301537E+02  0.47000000000E+01 0. -1.
         -5    1    5    5    0  503 -0.21692967826E+02  0.28004464086E+01 -0.35805917565E+03  0.35875742587E+03  0.47000000000E+01 0. -1.
<mgrwt>
<rscale>  0 0.27486854E+03</rscale>
<asrwt>0</asrwt>
<pdfrwt beam="1">  1        2 0.11773254E+00 0.27486854E+03</pdfrwt>
<pdfrwt beam="2">  1       -2 0.37972296E-02 0.27486854E+03</pdfrwt>
<totfact> 0.11120142E+04</totfact>
</mgrwt>
</event>
<event>
 9    1  0.2031653E-002  0.2774343E+03  0.7818608E-02  0.1097099E+00
          2   -1    0    0  501    0  0.00000000000E+00  0.00000000000E+00  0.77443375287E+03  0.77443375287E+03  0.00000000000E+00 0.  1.
         -2   -1    0    0    0  501 -0.00000000000E+00 -0.00000000000E+00 -0.24847123920E+02  0.24847123920E+02  0.00000000000E+00 0.  1.
         36    2    1    2    0    0 -0.71054273576E-14 -0.71054273576E-14  0.74958662895E+03  0.79928087679E+03  0.27743432683E+03 0.  0.
         25    2    3    3    0    0 -0.28247535865E+02 -0.18944584582E+02  0.47519412284E+03  0.49332563925E+03  0.12807775526E+03 0.  0.
         25    2    3    3    0    0  0.28247535865E+02  0.18944584582E+02  0.27439250611E+03  0.30595523754E+03  0.13099824198E+03 0.  0.
          5    1    4    4  502    0  0.29015995455E+02  0.26757567119E+02  0.31018378246E+03  0.31272026524E+03  0.47000000000E+01 0. -1.
         -5    1    4    4    0  502 -0.57263531320E+02 -0.45702151701E+02  0.16501034037E+03  0.18060537400E+03  0.47000000000E+01 0. -1.
          5    1    5    5  503    0 -0.47507601275E+02  0.21306983446E+02  0.66247305241E+02  0.84390492203E+02  0.47000000000E+01 0. -1.
         -5    1    5    5    0  503  0.75755137139E+02 -0.23623988640E+01  0.20814520087E+03  0.22156474534E+03  0.47000000000E+01 0. -1.
<mgrwt>
<rscale>  0 0.27743433E+03</rscale>
<asrwt>0</asrwt>
<pdfrwt beam="1">  1        2 0.11914364E+00 0.27743433E+03</pdfrwt>
<pdfrwt beam="2">  1       -2 0.38226350E-02 0.27743433E+03</pdfrwt>
<totfact> 0.10849598E+04</totfact>
</mgrwt>
</event>
<event>
 9    1  0.2031653E-002  0.2748090E+03  0.7818608E-02  0.1098558E+00
          1   -1    0    0  501    0  0.00000000000E+00  0.00000000000E+00  0.18991725884E+03  0.18991725884E+03  0.00000000000E+00 0. -1.
         -1   -1    0    0    0  501 -0.00000000000E+00 -0.00000000000E+00 -0.99411710808E+02  0.99411710808E+02  0.00000000000E+00 0. -1.
         36    2    1    2    0    0  0.35527136788E-14  0.00000000000E+00  0.90505548032E+02  0.28932896965E+03  0.27480902178E+03 0.  0.
         25    2    3    3    0    0 -0.20751368648E+02  0.67109701880E+01 -0.33813319800E+02  0.13157075848E+03  0.12526718433E+03 0.  0.
         25    2    3    3    0    0  0.20751368648E+02 -0.67109701880E+01  0.12431886783E+03  0.15775821117E+03  0.94640455785E+02 0.  0.
          5    1    4    4  502    0 -0.32234510316E+02 -0.49152110602E+02 -0.43835388274E+02  0.73475335298E+02  0.47000000000E+01 0.  1.
         -5    1    4    4    0  502  0.11483141667E+02  0.55863080790E+02  0.10022068475E+02  0.58095423180E+02  0.47000000000E+01 0.  1.
          5    1    5    5  503    0  0.50595812959E+01  0.38905160680E+02  0.90230693956E+02  0.98503192954E+02  0.47000000000E+01 0. -1.
         -5    1    5    5    0  503  0.15691787353E+02 -0.45616130868E+02  0.34088173876E+02  0.59255018217E+02  0.47000000000E+01 0. -1.
<mgrwt>
<rscale>  0 0.27480902E+03</rscale>
<asrwt>0</asrwt>
<pdfrwt beam="1">  1        1 0.29218040E-01 0.27480902E+03</pdfrwt>
<pdfrwt beam="2">  1       -1 0.15294109E-01 0.27480902E+03</pdfrwt>
<totfact> 0.48476807E+03</totfact>
</mgrwt>
</event>
<event>
 9    1  0.2031653E-002  0.2767243E+03  0.7818608E-02  0.1097492E+00
         -2   -1    0    0    0  501 -0.00000000000E+00  0.00000000000E+00  0.15949560920E+02  0.15949560920E+02  0.00000000000E+00 0.  1.
          2   -1    0    0  501    0  0.00000000000E+00 -0.00000000000E+00 -0.12002891609E+04  0.12002891609E+04  0.00000000000E+00 0.  1.
         36    2    1    2    0    0 -0.71054273576E-14  0.00000000000E+00 -0.11843396000E+04  0.12162387218E+04  0.27672430391E+03 0.  0.
         25    2    3    3    0    0 -0.52315487192E+02  0.23375036369E+02 -0.63419430530E+03  0.64887275153E+03  0.12470015347E+03 0.  0.
         25    2    3    3    0    0  0.52315487192E+02 -0.23375036369E+02 -0.55014529468E+03  0.56736597029E+03  0.12633683731E+03 0.  0.
          5    1    4    4  502    0 -0.24294043960E+02  0.78665892320E+01 -0.17459609871E+02  0.31289163858E+02  0.47000000000E+01 0.  1.
         -5    1    4    4    0  502 -0.28021443232E+02  0.15508447137E+02 -0.61673469543E+03  0.61758358767E+03  0.47000000000E+01 0.  1.
          5    1    5    5  503    0 -0.38387467413E+02  0.12904287118E+02 -0.15003526424E+03  0.15547600714E+03  0.47000000000E+01 0.  1.
         -5    1    5    5    0  503  0.90702954605E+02 -0.36279323487E+02 -0.40011003044E+03  0.41188996315E+03  0.47000000000E+01 0.  1.
<mgrwt>
<rscale>  0 0.27672430E+03</rscale>
<asrwt>0</asrwt>
<pdfrwt beam="1">  1        2 0.18465986E+00 0.27672430E+03</pdfrwt>
<pdfrwt beam="2">  1       -2 0.24537788E-02 0.27672430E+03</pdfrwt>
<totfact> 0.11399243E+04</totfact>
</mgrwt>
</event>
<event>
 9    1  0.2031653E-002  0.2743614E+03  0.7818608E-02  0.1098809E+00
          1   -1    0    0  501    0  0.00000000000E+00  0.00000000000E+00  0.92197158230E+03  0.92197158230E+03  0.00000000000E+00 0. -1.
         -1   -1    0    0    0  501 -0.00000000000E+00 -0.00000000000E+00 -0.20411191185E+02  0.20411191185E+02  0.00000000000E+00 0. -1.
         36    2    1    2    0    0  0.71054273576E-14  0.14210854715E-13  0.90156039112E+03  0.94238277349E+03  0.27436135467E+03 0.  0.
         25    2    3    3    0    0  0.44399124101E+02  0.39696995343E+02  0.45649852434E+03  0.47694965210E+03  0.12467130483E+03 0.  0.
         25    2    3    3    0    0 -0.44399124101E+02 -0.39696995343E+02  0.44506186677E+03  0.46543312139E+03  0.12247771867E+03 0.  0.
          5    1    4    4  502    0  0.54021262621E+02  0.61859818585E+02  0.16456279406E+03  0.18397808880E+03  0.47000000000E+01 0.  1.
         -5    1    4    4    0  502 -0.96221385202E+01 -0.22162823242E+02  0.29193573028E+03  0.29297156330E+03  0.47000000000E+01 0.  1.
          5    1    5    5  503    0 -0.15934035199E+02  0.37637599879E+02  0.25391292879E+03  0.25722431419E+03  0.47000000000E+01 0.  1.
         -5    1    5    5    0  503 -0.28465088901E+02 -0.77334595222E+02  0.19114893798E+03  0.20820880720E+03  0.47000000000E+01 0.  1.
<mgrwt>
<rscale>  0 0.27436135E+03</rscale>
<asrwt>0</asrwt>
<pdfrwt beam="1">  1        1 0.14184175E+00 0.27436135E+03</pdfrwt>
<pdfrwt beam="2">  1       -1 0.31401840E-02 0.27436135E+03</pdfrwt>
<totfact> 0.64621828E+03</totfact>
</mgrwt>
</event>
<event>
 9    1  0.2031653E-002  0.2750648E+03  0.7818608E-02  0.1098415E+00
          3   -1    0    0  501    0  0.00000000000E+00  0.00000000000E+00  0.69615299382E+02  0.69615299382E+02  0.00000000000E+00 0. -1.
         -3   -1    0    0    0  501 -0.00000000000E+00 -0.00000000000E+00 -0.27170987426E+03  0.27170987426E+03  0.00000000000E+00 0. -1.
         36    2    1    2    0    0  0.00000000000E+00  0.35527136788E-14 -0.20209457488E+03  0.34132517364E+03  0.27506482321E+03 0.  0.
         25    2    3    3    0    0  0.23305311487E+02 -0.14439488024E+02 -0.33161009546E+02  0.13221352295E+03  0.12501650586E+03 0.  0.
         25    2    3    3    0    0 -0.23305311487E+02  0.14439488024E+02 -0.16893356533E+03  0.20911165070E+03  0.12015613427E+03 0.  0.
          5    1    4    4  502    0 -0.41638719491E+02  0.86069132304E+01  0.17844058697E+02  0.46350429847E+02  0.47000000000E+01 0. -1.
         -5    1    4    4    0  502  0.64944030978E+02 -0.23046401254E+02 -0.51005068243E+02  0.85863093101E+02  0.47000000000E+01 0. -1.
          5    1    5    5  503    0 -0.41275119914E+02 -0.44406351165E+02 -0.72504988441E+02  0.94628869255E+02  0.47000000000E+01 0. -1.
         -5    1    5    5    0  503  0.17969808427E+02  0.58845839189E+02 -0.96428576892E+02  0.11448278144E+03  0.47000000000E+01 0. -1.
<mgrwt>
<rscale>  0 0.27506482E+03</rscale>
<asrwt>0</asrwt>
<pdfrwt beam="1">  1        3 0.10710046E-01 0.27506482E+03</pdfrwt>
<pdfrwt beam="2">  1       -3 0.41801519E-01 0.27506482E+03</pdfrwt>
<totfact> 0.95338628E+02</totfact>
</mgrwt>
</event>
<event>
 9    1  0.2031653E-002  0.2722943E+03  0.7818608E-02  0.1099974E+00
         -2   -1    0    0    0  501 -0.00000000000E+00  0.00000000000E+00  0.94116701795E+03  0.94116701795E+03  0.00000000000E+00 0.  1.
          2   -1    0    0  501    0  0.00000000000E+00 -0.00000000000E+00 -0.19694745196E+02  0.19694745196E+02  0.00000000000E+00 0.  1.
         36    2    1    2    0    0  0.00000000000E+00  0.00000000000E+00  0.92147227275E+03  0.96086176314E+03  0.27229428643E+03 0.  0.
         25    2    3    3    0    0 -0.47060944079E+02  0.21927285591E+02  0.46493259513E+03  0.48432905296E+03  0.12536656339E+03 0.  0.
         25    2    3    3    0    0  0.47060944079E+02 -0.21927285591E+02  0.45653967762E+03  0.47653271018E+03  0.12633055181E+03 0.  0.
          5    1    4    4  502    0  0.31282091270E+02  0.43881933126E+02  0.19466292002E+03  0.20203944101E+03  0.47000000000E+01 0.  1.
         -5    1    4    4    0  502 -0.78343035349E+02 -0.21954647536E+02  0.27026967511E+03  0.28228961196E+03  0.47000000000E+01 0.  1.
          5    1    5    5  503    0  0.57311761175E+02 -0.61200229621E+02  0.20241076891E+03  0.21913994489E+03  0.47000000000E+01 0.  1.
         -5    1    5    5    0  503 -0.10250817097E+02  0.39272944031E+02  0.25412890871E+03  0.25739276529E+03  0.47000000000E+01 0.  1.
<mgrwt>
<rscale>  0 0.27229429E+03</rscale>
<asrwt>0</asrwt>
<pdfrwt beam="1">  1        2 0.30299615E-02 0.27229429E+03</pdfrwt>
<pdfrwt beam="2">  1       -2 0.14479489E+00 0.27229429E+03</pdfrwt>
<totfact> 0.10732948E+03</totfact>
</mgrwt>
</event>
<event>
 9    1  0.2031653E-002  0.2751090E+03  0.7818608E-02  0.1098391E+00
          1   -1    0    0  501    0  0.00000000000E+00  0.00000000000E+00  0.11333048337E+03  0.11333048337E+03  0.00000000000E+00 0. -1.
         -1   -1    0    0    0  501 -0.00000000000E+00 -0.00000000000E+00 -0.16695637367E+03  0.16695637367E+03  0.00000000000E+00 0. -1.
         36    2    1    2    0    0 -0.17763568394E-14  0.44408920985E-14 -0.53625890299E+02  0.28028685705E+03  0.27510904406E+03 0.  0.
         25    2    3    3    0    0 -0.94398467767E+00 -0.32535220183E+01 -0.93595506890E+02  0.15139453133E+03  0.11894834464E+03 0.  0.
         25    2    3    3    0    0  0.94398467767E+00  0.32535220183E+01  0.39969616591E+02  0.12889232572E+03  0.12249157059E+03 0.  0.
          5    1    4    4  502    0 -0.37232179298E+02 -0.59546345567E+00  0.12162400601E+02  0.39453817818E+02  0.47000000000E+01 0. -1.
         -5    1    4    4    0  502  0.36288194621E+02 -0.26580585627E+01 -0.10575790749E+03  0.11194071351E+03  0.47000000000E+01 0. -1.
          5    1    5    5  503    0  0.58898395505E+01  0.41249848722E+02 -0.28212673055E+02  0.50539936193E+02  0.47000000000E+01 0.  1.
         -5    1    5    5    0  503 -0.49458548728E+01 -0.37996326704E+02  0.68182289645E+02  0.78352389527E+02  0.47000000000E+01 0.  1.
<mgrwt>
<rscale>  0 0.27510904E+03</rscale>
<asrwt>0</asrwt>
<pdfrwt beam="1">  1        1 0.17435459E-01 0.27510904E+03</pdfrwt>
<pdfrwt beam="2">  1       -1 0.25685596E-01 0.27510904E+03</pdfrwt>
<totfact> 0.40415594E+03</totfact>
</mgrwt>
</event>
<event>
 9    1  0.2031653E-002  0.2760814E+03  0.7818608E-02  0.1097849E+00
         -1   -1    0    0    0  501 -0.00000000000E+00  0.00000000000E+00  0.10947271407E+03  0.10947271407E+03  0.00000000000E+00 0. -1.
          1   -1    0    0  501    0  0.00000000000E+00 -0.00000000000E+00 -0.17406377074E+03  0.17406377074E+03  0.00000000000E+00 0. -1.
         36    2    1    2    0    0  0.00000000000E+00 -0.71054273576E-14 -0.64591056670E+02  0.28353648481E+03  0.27608138948E+03 0.  0.
         25    2    3    3    0    0  0.11361348673E+02  0.97456646727E+01 -0.58427066144E+02  0.15067442183E+03  0.13807607002E+03 0.  0.
         25    2    3    3    0    0 -0.11361348673E+02 -0.97456646727E+01 -0.61639905262E+01  0.13286206298E+03  0.13187219106E+03 0.  0.
          5    1    4    4  502    0 -0.95970947688E+00  0.59833110178E+02 -0.75212098779E+02  0.96228228284E+02  0.47000000000E+01 0.  1.
         -5    1    4    4    0  502  0.12321058150E+02 -0.50087445505E+02  0.16785032635E+02  0.54446193547E+02  0.47000000000E+01 0.  1.
          5    1    5    5  503    0 -0.26203112016E+02  0.39251010156E+02 -0.47328135646E+02  0.67002144006E+02  0.47000000000E+01 0. -1.
         -5    1    5    5    0  503  0.14841763343E+02 -0.48996674829E+02  0.41164145120E+02  0.65859918971E+02  0.47000000000E+01 0. -1.
<mgrwt>
<rscale>  0 0.27608139E+03</rscale>
<asrwt>0</asrwt>
<pdfrwt beam="1">  1        1 0.26779041E-01 0.27608139E+03</pdfrwt>
<pdfrwt beam="2">  1       -1 0.16841956E-01 0.27608139E+03</pdfrwt>
<totfact> 0.46421920E+03</totfact>
</mgrwt>
</event>
<event>
 9    1  0.2031653E-002  0.2712829E+03  0.7818608E-02  0.1100548E+00
         -2   -1    0    0    0  501 -0.00000000000E+00  0.00000000000E+00  0.77776167986E+01  0.77776167986E+01  0.00000000000E+00 0.  1.
          2   -1    0    0  501    0  0.00000000000E+00 -0.00000000000E+00 -0.23655831626E+04  0.23655831626E+04  0.00000000000E+00 0.  1.
         36    2    1    2    0    0  0.00000000000E+00  0.00000000000E+00 -0.23578055458E+04  0.23733607794E+04  0.27128287336E+03 0.  0.
         25    2    3    3    0    0 -0.11308248512E+02  0.46354861071E+02 -0.14546639404E+04  0.14607591244E+04  0.12447244745E+03 0.  0.
         25    2    3    3    0    0  0.11308248512E+02 -0.46354861071E+02 -0.90314160539E+03  0.91260165506E+03  0.12206707912E+03 0.  0.
          5    1    4    4  502    0 -0.53188618492E+02  0.57613229931E+02 -0.11839774168E+04  0.11865803499E+04  0.47000000000E+01 0.  1.
         -5    1    4    4    0  502  0.41880369981E+02 -0.11258368860E+02 -0.27068652365E+03  0.27417877443E+03  0.47000000000E+01 0.  1.
          5    1    5    5  503    0  0.53810469446E+02 -0.43479195031E+02 -0.29870985606E+03  0.30665236854E+03  0.47000000000E+01 0.  1.
         -5    1    5    5    0  503 -0.42502220934E+02 -0.28756660400E+01 -0.60443174933E+03  0.60594928652E+03  0.47000000000E+01 0.  1.
<mgrwt>
<rscale>  0 0.27128287E+03</rscale>
<asrwt>0</asrwt>
<pdfrwt beam="1">  1        2 0.36393589E+00 0.27128287E+03</pdfrwt>
<pdfrwt beam="2">  1       -2 0.11965564E-02 0.27128287E+03</pdfrwt>
<totfact> 0.77918798E+03</totfact>
</mgrwt>
</event>
<event>
 9    1  0.2031653E-002  0.2749178E+03  0.7818608E-02  0.1098498E+00
          1   -1    0    0  501    0  0.00000000000E+00  0.00000000000E+00  0.66525607722E+03  0.66525607722E+03  0.00000000000E+00 0.  1.
         -1   -1    0    0    0  501 -0.00000000000E+00 -0.00000000000E+00 -0.28402516278E+02  0.28402516278E+02  0.00000000000E+00 0.  1.
         36    2    1    2    0    0  0.14210854715E-13  0.00000000000E+00  0.63685356094E+03  0.69365859349E+03  0.27491778089E+03 0.  0.
         25    2    3    3    0    0  0.62023935058E+02  0.17059249942E+02  0.22465203852E+03  0.26436965033E+03  0.12363165888E+03 0.  0.
         25    2    3    3    0    0 -0.62023935058E+02 -0.17059249942E+02  0.41220152242E+03  0.42928894316E+03  0.10119740662E+03 0.  0.
          5    1    4    4  502    0 -0.47423531899E+01  0.17367423676E+01  0.18490203871E+03  0.18503070044E+03  0.47000000000E+01 0. -1.
         -5    1    4    4    0  502  0.66766288248E+02  0.15322507574E+02  0.39749999808E+02  0.79338949889E+02  0.47000000000E+01 0. -1.
          5    1    5    5  503    0  0.18279770550E+02 -0.24379616786E+02  0.54842710020E+02  0.62915249092E+02  0.47000000000E+01 0.  1.
         -5    1    5    5    0  503 -0.80303705608E+02  0.73203668443E+01  0.35735881240E+03  0.36637369407E+03  0.47000000000E+01 0.  1.
<mgrwt>
<rscale>  0 0.27491778E+03</rscale>
<asrwt>0</asrwt>
<pdfrwt beam="1">  1        1 0.10234708E+00 0.27491778E+03</pdfrwt>
<pdfrwt beam="2">  1       -1 0.43696184E-02 0.27491778E+03</pdfrwt>
<totfact> 0.65225554E+03</totfact>
</mgrwt>
</event>
<event>
 9    1  0.2031653E-002  0.2753172E+03  0.7818608E-02  0.1098274E+00
         -2   -1    0    0    0  501 -0.00000000000E+00  0.00000000000E+00  0.82411242242E+02  0.82411242242E+02  0.00000000000E+00 0.  1.
          2   -1    0    0  501    0  0.00000000000E+00 -0.00000000000E+00 -0.22994303595E+03  0.22994303595E+03  0.00000000000E+00 0.  1.
         36    2    1    2    0    0  0.00000000000E+00  0.00000000000E+00 -0.14753179371E+03  0.31235427820E+03  0.27531720787E+03 0.  0.
         25    2    3    3    0    0  0.96064507540E+01 -0.62456199492E+02 -0.71526684682E+02  0.15378111553E+03  0.12057986616E+03 0.  0.
         25    2    3    3    0    0 -0.96064507540E+01  0.62456199492E+02 -0.76005109030E+02  0.15857316266E+03  0.12399842970E+03 0.  0.
          5    1    4    4  502    0 -0.12108926000E+02 -0.86341280549E+02 -0.15107744967E+02  0.88610252080E+02  0.47000000000E+01 0.  1.
         -5    1    4    4    0  502  0.21715376754E+02  0.23885081057E+02 -0.56418939715E+02  0.65170863453E+02  0.47000000000E+01 0.  1.
          5    1    5    5  503    0  0.47131611749E+02 -0.39666079224E+00 -0.43803021897E+01  0.47569141396E+02  0.47000000000E+01 0. -1.
         -5    1    5    5    0  503 -0.56738062503E+02  0.62852860284E+02 -0.71624806840E+02  0.11100402127E+03  0.47000000000E+01 0. -1.
<mgrwt>
<rscale>  0 0.27531721E+03</rscale>
<asrwt>0</asrwt>
<pdfrwt beam="1">  1        2 0.35375852E-01 0.27531721E+03</pdfrwt>
<pdfrwt beam="2">  1       -2 0.12678653E-01 0.27531721E+03</pdfrwt>
<totfact> 0.65563226E+03</totfact>
</mgrwt>
</event>
<event>
 9    1  0.2031653E-002  0.2743566E+03  0.7818608E-02  0.1098812E+00
         -2   -1    0    0    0  501 -0.00000000000E+00  0.00000000000E+00  0.58055314409E+02  0.58055314409E+02  0.00000000000E+00 0. -1.
          2   -1    0    0  501    0  0.00000000000E+00 -0.00000000000E+00 -0.32413709190E+03  0.32413709190E+03  0.00000000000E+00 0. -1.
         36    2    1    2    0    0 -0.14210854715E-13 -0.71054273576E-14 -0.26608177749E+03  0.38219240631E+03  0.27435656203E+03 0.  0.
         25    2    3    3    0    0  0.35226589480E+02  0.26742027521E+02 -0.89289010269E+02  0.16045344783E+03  0.12576459328E+03 0.  0.
         25    2    3    3    0    0 -0.35226589480E+02 -0.26742027521E+02 -0.17679276722E+03  0.22173895848E+03  0.12631878135E+03 0.  0.
          5    1    4    4  502    0  0.64660663344E+02 -0.97280942843E+01 -0.92349818559E+02  0.11325288601E+03  0.47000000000E+01 0. -1.
         -5    1    4    4    0  502 -0.29434073864E+02  0.36470121805E+02  0.30608082896E+01  0.47200561819E+02  0.47000000000E+01 0. -1.
          5    1    5    5  503    0 -0.68499546909E+01  0.10549877532E+02 -0.17404594207E+03  0.17456317409E+03  0.47000000000E+01 0. -1.
         -5    1    5    5    0  503 -0.28376634789E+02 -0.37291905052E+02 -0.27468251487E+01  0.47175784390E+02  0.47000000000E+01 0. -1.
<mgrwt>
<rscale>  0 0.27435656E+03</rscale>
<asrwt>0</asrwt>
<pdfrwt beam="1">  1        2 0.49867246E-01 0.27435656E+03</pdfrwt>
<pdfrwt beam="2">  1       -2 0.89315866E-02 0.27435656E+03</pdfrwt>
<totfact> 0.79251795E+03</totfact>
</mgrwt>
</event>
<event>
 9    1  0.2031653E-002  0.2752637E+03  0.7818608E-02  0.1098304E+00
          1   -1    0    0  501    0  0.00000000000E+00  0.00000000000E+00  0.12654734254E+03  0.12654734254E+03  0.00000000000E+00 0.  1.
         -1   -1    0    0    0  501 -0.00000000000E+00 -0.00000000000E+00 -0.14968724730E+03  0.14968724730E+03  0.00000000000E+00 0.  1.
         36    2    1    2    0    0  0.71054273576E-14 -0.71054273576E-14 -0.23139904758E+02  0.27623458984E+03  0.27526367983E+03 0.  0.
         25    2    3    3    0    0  0.46828025386E+02 -0.37166790822E+02 -0.11018123977E+02  0.13766946390E+03  0.12352023289E+03 0.  0.
         25    2    3    3    0    0 -0.46828025386E+02  0.37166790822E+02 -0.12121780782E+02  0.13856512594E+03  0.12441512069E+03 0.  0.
          5    1    4    4  502    0 -0.12621762980E+00 -0.66049500115E+02 -0.37752335682E+02  0.76222577008E+02  0.47000000000E+01 0. -1.
         -5    1    4    4    0  502  0.46954243016E+02  0.28882709293E+02  0.26734211705E+02  0.61446886892E+02  0.47000000000E+01 0. -1.
          5    1    5    5  503    0  0.40005304533E+01 -0.42634495532E+02 -0.13447066138E+00  0.43079142698E+02  0.47000000000E+01 0.  1.
         -5    1    5    5    0  503 -0.50828555839E+02  0.79801286355E+02 -0.11987310120E+02  0.95485983246E+02  0.47000000000E+01 0.  1.
<mgrwt>
<rscale>  0 0.27526368E+03</rscale>
<asrwt>0</asrwt>
<pdfrwt beam="1">  1        1 0.19468822E-01 0.27526368E+03</pdfrwt>
<pdfrwt beam="2">  1       -1 0.23028807E-01 0.27526368E+03</pdfrwt>
<totfact> 0.41989137E+03</totfact>
</mgrwt>
</event>
<event>
 9    1  0.2031653E-002  0.2746434E+03  0.7818608E-02  0.1098651E+00
         -1   -1    0    0    0  501 -0.00000000000E+00  0.00000000000E+00  0.31153170281E+03  0.31153170281E+03  0.00000000000E+00 0.  1.
          1   -1    0    0  501    0  0.00000000000E+00 -0.00000000000E+00 -0.60530736227E+02  0.60530736227E+02  0.00000000000E+00 0.  1.
         36    2    1    2    0    0  0.00000000000E+00  0.00000000000E+00  0.25100096659E+03  0.37206243904E+03  0.27464335659E+03 0.  0.
         25    2    3    3    0    0 -0.46277555493E+02 -0.11885607243E+02  0.19209812343E+03  0.22551030555E+03  0.10802929735E+03 0.  0.
         25    2    3    3    0    0  0.46277555493E+02  0.11885607243E+02  0.58902843159E+02  0.14655213349E+03  0.12539977311E+03 0.  0.
          5    1    4    4  502    0 -0.32437059726E+02  0.44995485620E+02  0.65546064881E+02  0.85994960266E+02  0.47000000000E+01 0. -1.
         -5    1    4    4    0  502 -0.13840495768E+02 -0.56881092863E+02  0.12655205855E+03  0.13951534529E+03  0.47000000000E+01 0. -1.
          5    1    5    5  503    0  0.20043239806E+02  0.14948962208E+02 -0.38152403650E+02  0.45857374950E+02  0.47000000000E+01 0. -1.
         -5    1    5    5    0  503  0.26234315687E+02 -0.30633549653E+01  0.97055246809E+02  0.10069475853E+03  0.47000000000E+01 0. -1.
<mgrwt>
<rscale>  0 0.27464336E+03</rscale>
<asrwt>0</asrwt>
<pdfrwt beam="1">  1        1 0.93124211E-02 0.27464336E+03</pdfrwt>
<pdfrwt beam="2">  1       -1 0.47927953E-01 0.27464336E+03</pdfrwt>
<totfact> 0.31281897E+03</totfact>
</mgrwt>
</event>
<event>
 9    1  0.2031653E-002  0.2750933E+03  0.7818608E-02  0.1098399E+00
          1   -1    0    0  501    0  0.00000000000E+00  0.00000000000E+00  0.39290121915E+02  0.39290121915E+02  0.00000000000E+00 0. -1.
         -1   -1    0    0    0  501 -0.00000000000E+00 -0.00000000000E+00 -0.48152275422E+03  0.48152275422E+03  0.00000000000E+00 0. -1.
         36    2    1    2    0    0 -0.14210854715E-13 -0.35527136788E-14 -0.44223263231E+03  0.52081287614E+03  0.27509334938E+03 0.  0.
         25    2    3    3    0    0  0.24303943433E+02  0.22177298620E+02 -0.12741674711E+03  0.18084492347E+03  0.12404573616E+03 0.  0.
         25    2    3    3    0    0 -0.24303943433E+02 -0.22177298620E+02 -0.31481588520E+03  0.33996795267E+03  0.12404294832E+03 0.  0.
          5    1    4    4  502    0  0.42081059383E+02  0.45752847770E+02 -0.14455216179E+02  0.63993608374E+02  0.47000000000E+01 0.  1.
         -5    1    4    4    0  502 -0.17777115950E+02 -0.23575549150E+02 -0.11296153093E+03  0.11685131509E+03  0.47000000000E+01 0.  1.
          5    1    5    5  503    0  0.35281806149E+02  0.19852800302E+02 -0.46275002377E+02  0.61663647070E+02  0.47000000000E+01 0.  1.
         -5    1    5    5    0  503 -0.59585749582E+02 -0.42030098922E+02 -0.26854088282E+03  0.27830430560E+03  0.47000000000E+01 0.  1.
<mgrwt>
<rscale>  0 0.27509335E+03</rscale>
<asrwt>0</asrwt>
<pdfrwt beam="1">  1        1 0.60446342E-02 0.27509335E+03</pdfrwt>
<pdfrwt beam="2">  1       -1 0.74080423E-01 0.27509335E+03</pdfrwt>
<totfact> 0.24395723E+03</totfact>
</mgrwt>
</event>
<event>
 9    1  0.2031653E-002  0.2762290E+03  0.7818608E-02  0.1097767E+00
         -2   -1    0    0    0  501 -0.00000000000E+00  0.00000000000E+00  0.11149709886E+03  0.11149709886E+03  0.00000000000E+00 0. -1.
          2   -1    0    0  501    0  0.00000000000E+00 -0.00000000000E+00 -0.17108619274E+03  0.17108619274E+03  0.00000000000E+00 0. -1.
         36    2    1    2    0    0  0.00000000000E+00  0.00000000000E+00 -0.59589093875E+02  0.28258329160E+03  0.27622899302E+03 0.  0.
         25    2    3    3    0    0  0.15645507568E+02  0.39119989396E+02  0.15507590097E+02  0.13115949106E+03  0.12323624170E+03 0.  0.
         25    2    3    3    0    0 -0.15645507568E+02 -0.39119989396E+02 -0.75096683973E+02  0.15142380054E+03  0.12455721556E+03 0.  0.
          5    1    4    4  502    0  0.67815033720E+01  0.23258345944E+02  0.69630652615E+02  0.73874604754E+02  0.47000000000E+01 0.  1.
         -5    1    4    4    0  502  0.88640041958E+01  0.15861643452E+02 -0.54123062517E+02  0.57284886311E+02  0.47000000000E+01 0.  1.
          5    1    5    5  503    0 -0.57332847328E+02 -0.22937265274E+01  0.34914745292E+00  0.57571941674E+02  0.47000000000E+01 0.  1.
         -5    1    5    5    0  503  0.41687339761E+02 -0.36826262868E+02 -0.75445831426E+02  0.93851858866E+02  0.47000000000E+01 0.  1.
<mgrwt>
<rscale>  0 0.27622899E+03</rscale>
<asrwt>0</asrwt>
<pdfrwt beam="1">  1        2 0.26320953E-01 0.27622899E+03</pdfrwt>
<pdfrwt beam="2">  1       -2 0.17153400E-01 0.27622899E+03</pdfrwt>
<totfact> 0.55080181E+03</totfact>
</mgrwt>
</event>
<event>
 9    1  0.2031653E-002  0.2749852E+03  0.7818608E-02  0.1098460E+00
          2   -1    0    0  501    0  0.00000000000E+00  0.00000000000E+00  0.38529681783E+02  0.38529681783E+02  0.00000000000E+00 0. -1.
         -2   -1    0    0    0  501 -0.00000000000E+00 -0.00000000000E+00 -0.49064035651E+03  0.49064035651E+03  0.00000000000E+00 0. -1.
         36    2    1    2    0    0  0.00000000000E+00 -0.88817841970E-15 -0.45211067473E+03  0.52917003829E+03  0.27498521274E+03 0.  0.
         25    2    3    3    0    0  0.30691881191E+01  0.39924593293E-01 -0.33057214651E+03  0.35193461763E+03  0.12070877983E+03 0.  0.
         25    2    3    3    0    0 -0.30691881191E+01 -0.39924593293E-01 -0.12153852822E+03  0.17723542066E+03  0.12896262632E+03 0.  0.
          5    1    4    4  502    0  0.60971264727E+02  0.58144684558E+01 -0.14750820576E+03  0.15978755875E+03  0.47000000000E+01 0. -1.
         -5    1    4    4    0  502 -0.57902076608E+02 -0.57745438625E+01 -0.18306394075E+03  0.19214705888E+03  0.47000000000E+01 0. -1.
          5    1    5    5  503    0  0.28891934149E+02  0.33759930245E+02  0.24239998615E+01  0.44748659470E+02  0.47000000000E+01 0. -1.
         -5    1    5    5    0  503 -0.31961122268E+02 -0.33799854838E+02 -0.12396252808E+03  0.13248676119E+03  0.47000000000E+01 0. -1.
<mgrwt>
<rscale>  0 0.27498521E+03</rscale>
<asrwt>0</asrwt>
<pdfrwt beam="1">  1        2 0.59276435E-02 0.27498521E+03</pdfrwt>
<pdfrwt beam="2">  1       -2 0.75483130E-01 0.27498521E+03</pdfrwt>
<totfact> 0.20282393E+03</totfact>
</mgrwt>
</event>
<event>
 9    1  0.2031653E-002  0.2612181E+03  0.7818608E-02  0.1106414E+00
         -2   -1    0    0    0  501 -0.00000000000E+00  0.00000000000E+00  0.26216763564E+02  0.26216763564E+02  0.00000000000E+00 0. -1.
          2   -1    0    0  501    0  0.00000000000E+00 -0.00000000000E+00 -0.65068006303E+03  0.65068006303E+03  0.00000000000E+00 0. -1.
         36    2    1    2    0    0  0.35527136788E-14  0.00000000000E+00 -0.62446329946E+03  0.67689682659E+03  0.26121811092E+03 0.  0.
         25    2    3    3    0    0 -0.16134623483E+02  0.18430120140E+02 -0.38295101944E+03  0.40365214030E+03  0.12523406754E+03 0.  0.
         25    2    3    3    0    0  0.16134623483E+02 -0.18430120140E+02 -0.24151228002E+03  0.27324468629E+03  0.12543716268E+03 0.  0.
          5    1    4    4  502    0 -0.50104902704E+01  0.25395364791E+02 -0.67066236708E+01  0.27149555552E+02  0.47000000000E+01 0.  1.
         -5    1    4    4    0  502 -0.11124133212E+02 -0.69652446506E+01 -0.37624439577E+03  0.37650258474E+03  0.47000000000E+01 0.  1.
          5    1    5    5  503    0 -0.48460498527E+02  0.19809789548E+02 -0.10229029257E+03  0.11500539828E+03  0.47000000000E+01 0.  1.
         -5    1    5    5    0  503  0.64595122010E+02 -0.38239909689E+02 -0.13922198745E+03  0.15823928801E+03  0.47000000000E+01 0.  1.
<mgrwt>
<rscale>  0 0.26121811E+03</rscale>
<asrwt>0</asrwt>
<pdfrwt beam="1">  1        2 0.10010462E+00 0.26121811E+03</pdfrwt>
<pdfrwt beam="2">  1       -2 0.40333483E-02 0.26121811E+03</pdfrwt>
<totfact> 0.12347948E+04</totfact>
</mgrwt>
</event>
<event>
 9    1  0.2031653E-002  0.2750116E+03  0.7818608E-02  0.1098445E+00
          1   -1    0    0  501    0  0.00000000000E+00  0.00000000000E+00  0.27836443042E+03  0.27836443042E+03  0.00000000000E+00 0.  1.
         -1   -1    0    0    0  501 -0.00000000000E+00 -0.00000000000E+00 -0.67924764757E+02  0.67924764757E+02  0.00000000000E+00 0.  1.
         36    2    1    2    0    0  0.17763568394E-14 -0.14210854715E-13  0.21043966566E+03  0.34628919517E+03  0.27501155214E+03 0.  0.
         25    2    3    3    0    0 -0.11848124396E+01 -0.58403753698E+02  0.15571732800E+03  0.19944603272E+03  0.11008374766E+03 0.  0.
         25    2    3    3    0    0  0.11848124396E+01  0.58403753698E+02  0.54722337656E+02  0.14684316246E+03  0.12310961740E+03 0.  0.
          5    1    4    4  502    0 -0.63473349970E+01 -0.51549469200E+02  0.17239497756E+03  0.18011039593E+03  0.47000000000E+01 0.  1.
         -5    1    4    4    0  502  0.51625225574E+01 -0.68542844980E+01 -0.16677649555E+02  0.19335636783E+02  0.47000000000E+01 0.  1.
          5    1    5    5  503    0 -0.18104148280E+02  0.89766022440E+02  0.59665790263E+02  0.10939741998E+03  0.47000000000E+01 0.  1.
         -5    1    5    5    0  503  0.19288960719E+02 -0.31362268742E+02 -0.49434526074E+01  0.37445742481E+02  0.47000000000E+01 0.  1.
<mgrwt>
<rscale>  0 0.27501155E+03</rscale>
<asrwt>0</asrwt>
<pdfrwt beam="1">  1        1 0.42825296E-01 0.27501155E+03</pdfrwt>
<pdfrwt beam="2">  1       -1 0.10449964E-01 0.27501155E+03</pdfrwt>
<totfact> 0.54468897E+03</totfact>
</mgrwt>
</event>
<event>
 9    1  0.2031653E-002  0.2754060E+03  0.7818608E-02  0.1098225E+00
          2   -1    0    0  501    0  0.00000000000E+00  0.00000000000E+00  0.98185133671E+03  0.98185133671E+03  0.00000000000E+00 0.  1.
         -2   -1    0    0    0  501 -0.00000000000E+00 -0.00000000000E+00 -0.19312615850E+02  0.19312615850E+02  0.00000000000E+00 0.  1.
         36    2    1    2    0    0  0.71054273576E-14  0.71054273576E-14  0.96253872086E+03  0.10011639526E+04  0.27540601074E+03 0.  0.
         25    2    3    3    0    0  0.40845698895E+02  0.38465700459E+02  0.42427297044E+03  0.44515475876E+03  0.12250397779E+03 0.  0.
         25    2    3    3    0    0 -0.40845698895E+02 -0.38465700459E+02  0.53826575043E+03  0.55600919380E+03  0.12754694932E+03 0.  0.
          5    1    4    4  502    0  0.69274263811E+02  0.13970329685E+02  0.12639642647E+03  0.14488699169E+03  0.47000000000E+01 0. -1.
         -5    1    4    4    0  502 -0.28428564916E+02  0.24495370774E+02  0.29787654397E+03  0.30026776707E+03  0.47000000000E+01 0. -1.
          5    1    5    5  503    0 -0.54932836281E+02 -0.74827789254E+02  0.44844843995E+03  0.45797915656E+03  0.47000000000E+01 0.  1.
         -5    1    5    5    0  503  0.14087137387E+02  0.36362088795E+02  0.89817310476E+02  0.98030037246E+02  0.47000000000E+01 0.  1.
<mgrwt>
<rscale>  0 0.27540601E+03</rscale>
<asrwt>0</asrwt>
<pdfrwt beam="1">  1        2 0.15105401E+00 0.27540601E+03</pdfrwt>
<pdfrwt beam="2">  1       -2 0.29711724E-02 0.27540601E+03</pdfrwt>
<totfact> 0.11549941E+04</totfact>
</mgrwt>
</event>
<event>
 9    1  0.2031653E-002  0.2759081E+03  0.7818608E-02  0.1097945E+00
         -1   -1    0    0    0  501 -0.00000000000E+00  0.00000000000E+00  0.28845464713E+02  0.28845464713E+02  0.00000000000E+00 0.  1.
          1   -1    0    0  501    0  0.00000000000E+00 -0.00000000000E+00 -0.65976811518E+03  0.65976811518E+03  0.00000000000E+00 0.  1.
         36    2    1    2    0    0  0.00000000000E+00  0.00000000000E+00 -0.63092265047E+03  0.68861357989E+03  0.27590808531E+03 0.  0.
         25    2    3    3    0    0 -0.63599099334E+02 -0.88194570359E+01 -0.32066382712E+03  0.34928530552E+03  0.12268784117E+03 0.  0.
         25    2    3    3    0    0  0.63599099334E+02  0.88194570359E+01 -0.31025882335E+03  0.33932827437E+03  0.12149284780E+03 0.  0.
          5    1    4    4  502    0  0.18425729702E+02  0.11234843307E+02 -0.20400095534E+03  0.20519310173E+03  0.47000000000E+01 0.  1.
         -5    1    4    4    0  502 -0.82024829035E+02 -0.20054300343E+02 -0.11666287178E+03  0.14409220379E+03  0.47000000000E+01 0.  1.
          5    1    5    5  503    0 -0.24660457472E+02 -0.31417901981E+02 -0.96445461306E+02  0.10449420909E+03  0.47000000000E+01 0. -1.
         -5    1    5    5    0  503  0.88259556806E+02  0.40237359017E+02 -0.21381336204E+03  0.23483406528E+03  0.47000000000E+01 0. -1.
<mgrwt>
<rscale>  0 0.27590809E+03</rscale>
<asrwt>0</asrwt>
<pdfrwt beam="1">  1        1 0.10150278E+00 0.27590809E+03</pdfrwt>
<pdfrwt beam="2">  1       -1 0.44377639E-02 0.27590809E+03</pdfrwt>
<totfact> 0.64504184E+03</totfact>
</mgrwt>
</event>
<event>
 9    1  0.2031653E-002  0.2758269E+03  0.7818608E-02  0.1097990E+00
         -2   -1    0    0    0  501 -0.00000000000E+00  0.00000000000E+00  0.11357565656E+03  0.11357565656E+03  0.00000000000E+00 0.  1.
          2   -1    0    0  501    0  0.00000000000E+00 -0.00000000000E+00 -0.16746655455E+03  0.16746655455E+03  0.00000000000E+00 0.  1.
         36    2    1    2    0    0  0.00000000000E+00  0.00000000000E+00 -0.53890897995E+02  0.28104221111E+03  0.27582693041E+03 0.  0.
         25    2    3    3    0    0  0.41009127890E+02 -0.35011123782E+02 -0.18965839930E+02  0.13844445617E+03  0.12609376274E+03 0.  0.
         25    2    3    3    0    0 -0.41009127890E+02  0.35011123782E+02 -0.34925058066E+02  0.14259775494E+03  0.12730605906E+03 0.  0.
          5    1    4    4  502    0 -0.20710741743E+02 -0.24067665469E+02  0.40661460772E+02  0.51803781105E+02  0.47000000000E+01 0.  1.
         -5    1    4    4    0  502  0.61719869633E+02 -0.10943458313E+02 -0.59627300701E+02  0.86640675069E+02  0.47000000000E+01 0.  1.
          5    1    5    5  503    0 -0.28346719776E+02 -0.13342472126E+01  0.45204307748E+02  0.53580184553E+02  0.47000000000E+01 0. -1.
         -5    1    5    5    0  503 -0.12662408114E+02  0.36345370995E+02 -0.80129365814E+02  0.89017570388E+02  0.47000000000E+01 0. -1.
<mgrwt>
<rscale>  0 0.27582693E+03</rscale>
<asrwt>0</asrwt>
<pdfrwt beam="1">  1        2 0.25764085E-01 0.27582693E+03</pdfrwt>
<pdfrwt beam="2">  1       -2 0.17473178E-01 0.27582693E+03</pdfrwt>
<totfact> 0.54681313E+03</totfact>
</mgrwt>
</event>
<event>
 9    1  0.2031653E-002  0.2748857E+03  0.7818608E-02  0.1098515E+00
         -1   -1    0    0    0  501 -0.00000000000E+00  0.00000000000E+00  0.16276183129E+03  0.16276183129E+03  0.00000000000E+00 0.  1.
          1   -1    0    0  501    0  0.00000000000E+00 -0.00000000000E+00 -0.11606248017E+03  0.11606248017E+03  0.00000000000E+00 0.  1.
         36    2    1    2    0    0  0.00000000000E+00  0.35527136788E-14  0.46699351118E+02  0.27882431146E+03  0.27488573492E+03 0.  0.
         25    2    3    3    0    0  0.83118744816E+01 -0.31458228887E+02 -0.29445976113E+02  0.12920532286E+03  0.12152465809E+03 0.  0.
         25    2    3    3    0    0 -0.83118744816E+01  0.31458228887E+02  0.76145327231E+02  0.14961898859E+03  0.12461550251E+03 0.  0.
          5    1    4    4  502    0  0.47384918752E+02 -0.59989789106E+02 -0.11812251795E+02  0.77496610343E+02  0.47000000000E+01 0. -1.
         -5    1    4    4    0  502 -0.39073044270E+02  0.28531560219E+02 -0.17633724318E+02  0.51708712519E+02  0.47000000000E+01 0. -1.
          5    1    5    5  503    0  0.54240460074E+02  0.67385134760E+01  0.11174043249E+02  0.55985572386E+02  0.47000000000E+01 0.  1.
         -5    1    5    5    0  503 -0.62552334555E+02  0.24719715411E+02  0.64971283982E+02  0.93633416207E+02  0.47000000000E+01 0.  1.
<mgrwt>
<rscale>  0 0.27488573E+03</rscale>
<asrwt>0</asrwt>
<pdfrwt beam="1">  1        1 0.17855766E-01 0.27488573E+03</pdfrwt>
<pdfrwt beam="2">  1       -1 0.25040282E-01 0.27488573E+03</pdfrwt>
<totfact> 0.40879968E+03</totfact>
</mgrwt>
</event>
<event>
 9    1  0.2031653E-002  0.2731921E+03  0.7818608E-02  0.1099466E+00
          1   -1    0    0  501    0  0.00000000000E+00  0.00000000000E+00  0.13341872078E+03  0.13341872078E+03  0.00000000000E+00 0.  1.
         -1   -1    0    0    0  501 -0.00000000000E+00 -0.00000000000E+00 -0.13984901618E+03  0.13984901618E+03  0.00000000000E+00 0.  1.
         36    2    1    2    0    0  0.00000000000E+00  0.00000000000E+00 -0.64302954067E+01  0.27326773696E+03  0.27319207046E+03 0.  0.
         25    2    3    3    0    0 -0.13003561452E+02 -0.37652652958E+02  0.37697792896E+02  0.13636151021E+03  0.12484599710E+03 0.  0.
         25    2    3    3    0    0  0.13003561452E+02  0.37652652958E+02 -0.44128088303E+02  0.13690622675E+03  0.12332563343E+03 0.  0.
          5    1    4    4  502    0 -0.28642628173E+02 -0.41281113924E+02  0.77900354041E+02  0.92817485826E+02  0.47000000000E+01 0.  1.
         -5    1    4    4    0  502  0.15639066720E+02  0.36284609651E+01 -0.40202561144E+02  0.43544024383E+02  0.47000000000E+01 0.  1.
          5    1    5    5  503    0  0.59102826830E+01 -0.35854693768E+02 -0.50769164850E+02  0.62610610971E+02  0.47000000000E+01 0.  1.
         -5    1    5    5    0  503  0.70932787691E+01  0.73507346727E+02  0.66410765473E+01  0.74295615781E+02  0.47000000000E+01 0.  1.
<mgrwt>
<rscale>  0 0.27319207E+03</rscale>
<asrwt>0</asrwt>
<pdfrwt beam="1">  1        1 0.20525957E-01 0.27319207E+03</pdfrwt>
<pdfrwt beam="2">  1       -1 0.21515233E-01 0.27319207E+03</pdfrwt>
<totfact> 0.43848067E+03</totfact>
</mgrwt>
</event>
<event>
 9    1  0.2031653E-002  0.2718947E+03  0.7818608E-02  0.1100200E+00
         -1   -1    0    0    0  501 -0.00000000000E+00  0.00000000000E+00  0.11433177476E+03  0.11433177476E+03  0.00000000000E+00 0. -1.
          1   -1    0    0  501    0  0.00000000000E+00 -0.00000000000E+00 -0.16164957053E+03  0.16164957053E+03  0.00000000000E+00 0. -1.
         36    2    1    2    0    0  0.35527136788E-14 -0.35527136788E-14 -0.47317795776E+02  0.27598134529E+03  0.27189470232E+03 0.  0.
         25    2    3    3    0    0  0.31539255984E+02 -0.27886868602E+02  0.61704726970E+01  0.13143431946E+03  0.12435635685E+03 0.  0.
         25    2    3    3    0    0 -0.31539255984E+02  0.27886868602E+02 -0.53488268473E+02  0.14454702583E+03  0.12751645268E+03 0.  0.
          5    1    4    4  502    0 -0.37810172593E+02 -0.45597108481E+02 -0.22060071042E+00  0.59420906405E+02  0.47000000000E+01 0.  1.
         -5    1    4    4    0  502  0.69349428577E+02  0.17710239879E+02  0.63910734074E+01  0.72013413055E+02  0.47000000000E+01 0.  1.
          5    1    5    5  503    0  0.26789003973E+02  0.47137905384E+02 -0.61844806096E+02  0.82380233666E+02  0.47000000000E+01 0.  1.
         -5    1    5    5    0  503 -0.58328259957E+02 -0.19251036783E+02  0.83565376231E+01  0.62166792163E+02  0.47000000000E+01 0.  1.
<mgrwt>
<rscale>  0 0.27189470E+03</rscale>
<asrwt>0</asrwt>
<pdfrwt beam="1">  1        1 0.24869165E-01 0.27189470E+03</pdfrwt>
<pdfrwt beam="2">  1       -1 0.17589504E-01 0.27189470E+03</pdfrwt>
<totfact> 0.47543993E+03</totfact>
</mgrwt>
</event>
<event>
 9    1  0.2031653E-002  0.2770311E+03  0.7818608E-02  0.1097322E+00
         -1   -1    0    0    0  501 -0.00000000000E+00  0.00000000000E+00  0.20810350609E+02  0.20810350609E+02  0.00000000000E+00 0. -1.
          1   -1    0    0  501    0  0.00000000000E+00 -0.00000000000E+00 -0.92197184291E+03  0.92197184291E+03  0.00000000000E+00 0. -1.
         36    2    1    2    0    0 -0.14210854715E-13  0.00000000000E+00 -0.90116149230E+03  0.94278219352E+03  0.27703109791E+03 0.  0.
         25    2    3    3    0    0  0.70730720177E+02  0.40570670131E+02 -0.42796382396E+03  0.44691600832E+03  0.99659770330E+02 0.  0.
         25    2    3    3    0    0 -0.70730720177E+02 -0.40570670131E+02 -0.47319766834E+03  0.49586618520E+03  0.12376763006E+03 0.  0.
          5    1    4    4  502    0  0.63632085279E+02 -0.17616044942E+02 -0.17232420598E+03  0.18459980846E+03  0.47000000000E+01 0.  1.
         -5    1    4    4    0  502  0.70986348983E+01  0.58186715073E+02 -0.25563961798E+03  0.26231619987E+03  0.47000000000E+01 0.  1.
          5    1    5    5  503    0  0.12929393427E+02 -0.52507260850E+02 -0.10658461302E+03  0.11960999703E+03  0.47000000000E+01 0. -1.
         -5    1    5    5    0  503 -0.83660113604E+02  0.11936590719E+02 -0.36661305532E+03  0.37625618817E+03  0.47000000000E+01 0. -1.
<mgrwt>
<rscale>  0 0.27703110E+03</rscale>
<asrwt>0</asrwt>
<pdfrwt beam="1">  1        1 0.14184178E+00 0.27703110E+03</pdfrwt>
<pdfrwt beam="2">  1       -1 0.32015933E-02 0.27703110E+03</pdfrwt>
<totfact> 0.62812188E+03</totfact>
</mgrwt>
</event>
<event>
 9    1  0.2031653E-002  0.2748054E+03  0.7818608E-02  0.1098560E+00
          2   -1    0    0  501    0  0.00000000000E+00  0.00000000000E+00  0.69044206361E+03  0.69044206361E+03  0.00000000000E+00 0. -1.
         -2   -1    0    0    0  501 -0.00000000000E+00 -0.00000000000E+00 -0.27344083293E+02  0.27344083293E+02  0.00000000000E+00 0. -1.
         36    2    1    2    0    0  0.17763568394E-14  0.00000000000E+00  0.66309798031E+03  0.71778614690E+03  0.27480542423E+03 0.  0.
         25    2    3    3    0    0 -0.13978551756E+02  0.37929099953E+02  0.22030040307E+03  0.25685700270E+03  0.12573478321E+03 0.  0.
         25    2    3    3    0    0  0.13978551756E+02 -0.37929099953E+02  0.44279757724E+03  0.46092914420E+03  0.12145766765E+03 0.  0.
          5    1    4    4  502    0 -0.50218610429E+02  0.14416467145E+02  0.27517193296E+02  0.59237060065E+02  0.47000000000E+01 0.  1.
         -5    1    4    4    0  502  0.36240058672E+02  0.23512632808E+02  0.19278320977E+03  0.19761994263E+03  0.47000000000E+01 0.  1.
          5    1    5    5  503    0  0.14539339132E+02 -0.50566398096E+02  0.44422903203E+03  0.44735877760E+03  0.47000000000E+01 0. -1.
         -5    1    5    5    0  503 -0.56078737594E+00  0.12637298143E+02 -0.14314547896E+01  0.13570366600E+02  0.47000000000E+01 0. -1.
<mgrwt>
<rscale>  0 0.27480542E+03</rscale>
<asrwt>0</asrwt>
<pdfrwt beam="1">  1        2 0.10622184E+00 0.27480542E+03</pdfrwt>
<pdfrwt beam="2">  1       -2 0.42067826E-02 0.27480542E+03</pdfrwt>
<totfact> 0.10817209E+04</totfact>
</mgrwt>
</event>
<event>
 9    1  0.2031653E-002  0.2748476E+03  0.7818608E-02  0.1098537E+00
         -1   -1    0    0    0  501 -0.00000000000E+00  0.00000000000E+00  0.17676641280E+03  0.17676641280E+03  0.00000000000E+00 0.  1.
          1   -1    0    0  501    0  0.00000000000E+00 -0.00000000000E+00 -0.10683759028E+03  0.10683759028E+03  0.00000000000E+00 0.  1.
         36    2    1    2    0    0 -0.14210854715E-13  0.71054273576E-14  0.69928822526E+02  0.28360400308E+03  0.27484757656E+03 0.  0.
         25    2    3    3    0    0 -0.43493747627E+02 -0.14583412195E+02 -0.89126909538E+00  0.13414359308E+03  0.12605287466E+03 0.  0.
         25    2    3    3    0    0  0.43493747627E+02  0.14583412195E+02  0.70820091622E+02  0.14946040999E+03  0.12336347427E+03 0.  0.
          5    1    4    4  502    0 -0.38325319415E+02  0.53325007353E+02 -0.20144548326E+01  0.65867553057E+02  0.47000000000E+01 0.  1.
         -5    1    4    4    0  502 -0.51684282120E+01 -0.67908419548E+02  0.11231857372E+01  0.68276040028E+02  0.47000000000E+01 0.  1.
          5    1    5    5  503    0 -0.27427427510E+02 -0.32668962674E+02  0.84202560436E+01  0.43732317728E+02  0.47000000000E+01 0.  1.
         -5    1    5    5    0  503  0.70921175137E+02  0.47252374869E+02  0.62399835578E+02  0.10572809226E+03  0.47000000000E+01 0.  1.
<mgrwt>
<rscale>  0 0.27484758E+03</rscale>
<asrwt>0</asrwt>
<pdfrwt beam="1">  1        1 0.16436552E-01 0.27484758E+03</pdfrwt>
<pdfrwt beam="2">  1       -1 0.27194833E-01 0.27484758E+03</pdfrwt>
<totfact> 0.39663963E+03</totfact>
</mgrwt>
</event>
<event>
 9    1  0.2031653E-002  0.2750318E+03  0.7818608E-02  0.1098434E+00
          2   -1    0    0  501    0  0.00000000000E+00  0.00000000000E+00  0.18614758736E+03  0.18614758736E+03  0.00000000000E+00 0.  1.
         -2   -1    0    0    0  501 -0.00000000000E+00 -0.00000000000E+00 -0.10158941334E+03  0.10158941334E+03  0.00000000000E+00 0.  1.
         36    2    1    2    0    0  0.71054273576E-14  0.00000000000E+00  0.84558174020E+02  0.28773700069E+03  0.27503181048E+03 0.  0.
         25    2    3    3    0    0  0.45544569648E+01 -0.31401851104E+02 -0.32291255748E+01  0.13062599743E+03  0.12667243039E+03 0.  0.
         25    2    3    3    0    0 -0.45544569648E+01  0.31401851104E+02  0.87787299595E+02  0.15711100326E+03  0.12637419850E+03 0.  0.
          5    1    4    4  502    0  0.61932872150E+02 -0.32255221253E+02  0.12142542221E+02  0.71032466397E+02  0.47000000000E+01 0.  1.
         -5    1    4    4    0  502 -0.57378415185E+02  0.85337014899E+00 -0.15371667796E+02  0.59593531030E+02  0.47000000000E+01 0.  1.
          5    1    5    5  503    0 -0.61112698138E+02 -0.62496108953E+00  0.61536599026E+02  0.86856176923E+02  0.47000000000E+01 0.  1.
         -5    1    5    5    0  503  0.56558241173E+02  0.32026812193E+02  0.26250700569E+02  0.70254826342E+02  0.47000000000E+01 0.  1.
<mgrwt>
<rscale>  0 0.27503181E+03</rscale>
<asrwt>0</asrwt>
<pdfrwt beam="1">  1        2 0.28638090E-01 0.27503181E+03</pdfrwt>
<pdfrwt beam="2">  1       -2 0.15629141E-01 0.27503181E+03</pdfrwt>
<totfact> 0.58587738E+03</totfact>
</mgrwt>
</event>
<event>
 9    1  0.2031653E-002  0.2750496E+03  0.7818608E-02  0.1098424E+00
          2   -1    0    0  501    0  0.00000000000E+00  0.00000000000E+00  0.17452871792E+04  0.17452871792E+04  0.00000000000E+00 0. -1.
         -2   -1    0    0    0  501 -0.00000000000E+00 -0.00000000000E+00 -0.10836654698E+02  0.10836654698E+02  0.00000000000E+00 0. -1.
         36    2    1    2    0    0  0.00000000000E+00  0.71054273576E-14  0.17344505245E+04  0.17561238339E+04  0.27504962833E+03 0.  0.
         25    2    3    3    0    0  0.40590409353E+02  0.34113732094E+02  0.84559871385E+03  0.85654020519E+03  0.12574820154E+03 0.  0.
         25    2    3    3    0    0 -0.40590409353E+02 -0.34113732094E+02  0.88885181066E+03  0.89958362872E+03  0.12799154540E+03 0.  0.
          5    1    4    4  502    0 -0.22074061552E+02  0.16787307662E+02  0.64506436264E+03  0.64567731867E+03  0.47000000000E+01 0.  1.
         -5    1    4    4    0  502  0.62664470905E+02  0.17326424431E+02  0.20053435121E+03  0.21086288652E+03  0.47000000000E+01 0.  1.
          5    1    5    5  503    0  0.30131847767E+02 -0.50031468317E+02  0.54508976942E+03  0.54822989958E+03  0.47000000000E+01 0. -1.
         -5    1    5    5    0  503 -0.70722257120E+02  0.15917736223E+02  0.34376204125E+03  0.35135372914E+03  0.47000000000E+01 0. -1.
<mgrwt>
<rscale>  0 0.27504963E+03</rscale>
<asrwt>0</asrwt>
<pdfrwt beam="1">  1        2 0.26850550E+00 0.27504963E+03</pdfrwt>
<pdfrwt beam="2">  1       -2 0.16671790E-02 0.27504963E+03</pdfrwt>
<totfact> 0.10218037E+04</totfact>
</mgrwt>
</event>
<event>
 9    1  0.2031653E-002  0.2750809E+03  0.7818608E-02  0.1098406E+00
         -2   -1    0    0    0  501 -0.00000000000E+00  0.00000000000E+00  0.58252116618E+02  0.58252116618E+02  0.00000000000E+00 0. -1.
          2   -1    0    0  501    0  0.00000000000E+00 -0.00000000000E+00 -0.32475003860E+03  0.32475003860E+03  0.00000000000E+00 0. -1.
         36    2    1    2    0    0 -0.14210854715E-13  0.00000000000E+00 -0.26649792198E+03  0.38300215522E+03  0.27508091261E+03 0.  0.
         25    2    3    3    0    0  0.56538542874E+02  0.92510456702E+01 -0.71336850760E+02  0.14545022330E+03  0.11306914923E+03 0.  0.
         25    2    3    3    0    0 -0.56538542874E+02 -0.92510456702E+01 -0.19516107122E+03  0.23755193191E+03  0.12272280945E+03 0.  0.
          5    1    4    4  502    0  0.72834761166E+02 -0.33711516031E+02 -0.41653743953E+02  0.90545530716E+02  0.47000000000E+01 0.  1.
         -5    1    4    4    0  502 -0.16296218293E+02  0.42962561702E+02 -0.29683106806E+02  0.54904692589E+02  0.47000000000E+01 0.  1.
          5    1    5    5  503    0 -0.46120219818E+02 -0.41290937167E+02 -0.19380717622E+03  0.20350756183E+03  0.47000000000E+01 0. -1.
         -5    1    5    5    0  503 -0.10418323056E+02  0.32039891496E+02 -0.13538949996E+01  0.34044370079E+02  0.47000000000E+01 0. -1.
<mgrwt>
<rscale>  0 0.27508091E+03</rscale>
<asrwt>0</asrwt>
<pdfrwt beam="1">  1        2 0.49961545E-01 0.27508091E+03</pdfrwt>
<pdfrwt beam="2">  1       -2 0.89618640E-02 0.27508091E+03</pdfrwt>
<totfact> 0.78678205E+03</totfact>
</mgrwt>
</event>
<event>
 9    1  0.2031653E-002  0.2746249E+03  0.7818608E-02  0.1098661E+00
          1   -1    0    0  501    0  0.00000000000E+00  0.00000000000E+00  0.30079744081E+02  0.30079744081E+02  0.00000000000E+00 0. -1.
         -1   -1    0    0    0  501 -0.00000000000E+00 -0.00000000000E+00 -0.62682411992E+03  0.62682411992E+03  0.00000000000E+00 0. -1.
         36    2    1    2    0    0 -0.35527136788E-14 -0.71054273576E-14 -0.59674437584E+03  0.65690386400E+03  0.27462490135E+03 0.  0.
         25    2    3    3    0    0 -0.52294634031E-01 -0.26175012997E+02 -0.41742091150E+03  0.43717893154E+03  0.12727948297E+03 0.  0.
         25    2    3    3    0    0  0.52294634031E-01  0.26175012997E+02 -0.17932346434E+03  0.21972493246E+03  0.12424575261E+03 0.  0.
          5    1    4    4  502    0 -0.17259954143E+02 -0.41949089324E+02 -0.45239494633E+02  0.64236547127E+02  0.47000000000E+01 0. -1.
         -5    1    4    4    0  502  0.17207659509E+02  0.15774076327E+02 -0.37218141687E+03  0.37294238441E+03  0.47000000000E+01 0. -1.
          5    1    5    5  503    0 -0.38481098255E+02  0.23535653220E+02 -0.17476098169E+03  0.18054975109E+03  0.47000000000E+01 0.  1.
         -5    1    5    5    0  503  0.38533392889E+02  0.26393597778E+01 -0.45624826425E+01  0.39175181371E+02  0.47000000000E+01 0.  1.
<mgrwt>
<rscale>  0 0.27462490E+03</rscale>
<asrwt>0</asrwt>
<pdfrwt beam="1">  1        1 0.46276530E-02 0.27462490E+03</pdfrwt>
<pdfrwt beam="2">  1       -1 0.96434478E-01 0.27462490E+03</pdfrwt>
<totfact> 0.20236438E+03</totfact>
</mgrwt>
</event>
<event>
 9    1  0.2031653E-002  0.2757912E+03  0.7818608E-02  0.1098010E+00
          1   -1    0    0  501    0  0.00000000000E+00  0.00000000000E+00  0.15002036892E+04  0.15002036892E+04  0.00000000000E+00 0.  1.
         -1   -1    0    0    0  501 -0.00000000000E+00 -0.00000000000E+00 -0.12675080480E+02  0.12675080480E+02  0.00000000000E+00 0.  1.
         36    2    1    2    0    0  0.00000000000E+00 -0.35527136788E-14  0.14875286087E+04  0.15128787697E+04  0.27579124349E+03 0.  0.
         25    2    3    3    0    0 -0.44037554397E+02  0.14905729383E+02  0.85842798897E+03  0.86904264494E+03  0.12718105006E+03 0.  0.
         25    2    3    3    0    0  0.44037554397E+02 -0.14905729383E+02  0.62910061976E+03  0.64383612476E+03  0.12882499290E+03 0.  0.
          5    1    4    4  502    0 -0.13245530397E+02  0.63654779231E+02  0.26914749175E+03  0.27692930020E+03  0.47000000000E+01 0. -1.
         -5    1    4    4    0  502 -0.30792024001E+02 -0.48749049848E+02  0.58928049723E+03  0.59211334474E+03  0.47000000000E+01 0. -1.
          5    1    5    5  503    0  0.14183296217E+02 -0.24906456218E+02  0.60000985160E+03  0.60071241828E+03  0.47000000000E+01 0.  1.
         -5    1    5    5    0  503  0.29854258180E+02  0.10000726834E+02  0.29090768159E+02  0.43123706483E+02  0.47000000000E+01 0.  1.
<mgrwt>
<rscale>  0 0.27579124E+03</rscale>
<asrwt>0</asrwt>
<pdfrwt beam="1">  1        1 0.23080043E+00 0.27579124E+03</pdfrwt>
<pdfrwt beam="2">  1       -1 0.19500136E-02 0.27579124E+03</pdfrwt>
<totfact> 0.50909407E+03</totfact>
</mgrwt>
</event>
<event>
 9    1  0.2031653E-002  0.2767012E+03  0.7818608E-02  0.1097504E+00
         -1   -1    0    0    0  501 -0.00000000000E+00  0.00000000000E+00  0.10084663959E+04  0.10084663959E+04  0.00000000000E+00 0. -1.
          1   -1    0    0  501    0  0.00000000000E+00 -0.00000000000E+00 -0.18980197123E+02  0.18980197123E+02  0.00000000000E+00 0. -1.
         36    2    1    2    0    0  0.00000000000E+00  0.00000000000E+00  0.98948619876E+03  0.10274465930E+04  0.27670121782E+03 0.  0.
         25    2    3    3    0    0  0.21315970977E+02 -0.56458496322E+02  0.41456011794E+03  0.43689534849E+03  0.12399807146E+03 0.  0.
         25    2    3    3    0    0 -0.21315970977E+02  0.56458496322E+02  0.57492608083E+03  0.59055124452E+03  0.12070145633E+03 0.  0.
          5    1    4    4  502    0  0.57958556502E+02 -0.38484786730E+02  0.36906999287E+03  0.37559955101E+03  0.47000000000E+01 0.  1.
         -5    1    4    4    0  502 -0.36642585525E+02 -0.17973709591E+02  0.45490125062E+02  0.61295797479E+02  0.47000000000E+01 0.  1.
          5    1    5    5  503    0 -0.55329512326E+02 -0.12972125642E+02  0.21984617047E+03  0.22712124438E+03  0.47000000000E+01 0. -1.
         -5    1    5    5    0  503  0.34013541349E+02  0.69430621964E+02  0.35507991036E+03  0.36343000014E+03  0.47000000000E+01 0. -1.
<mgrwt>
<rscale>  0 0.27670122E+03</rscale>
<asrwt>0</asrwt>
<pdfrwt beam="1">  1        1 0.29200311E-02 0.27670122E+03</pdfrwt>
<pdfrwt beam="2">  1       -1 0.15514863E+00 0.27670122E+03</pdfrwt>
<totfact> 0.12240047E+03</totfact>
</mgrwt>
</event>
<event>
 9    1  0.2031653E-002  0.2742535E+03  0.7818608E-02  0.1098870E+00
          2   -1    0    0  501    0  0.00000000000E+00  0.00000000000E+00  0.10640338382E+03  0.10640338382E+03  0.00000000000E+00 0. -1.
         -2   -1    0    0    0  501 -0.00000000000E+00 -0.00000000000E+00 -0.17672132743E+03  0.17672132743E+03  0.00000000000E+00 0. -1.
         36    2    1    2    0    0  0.00000000000E+00 -0.35527136788E-14 -0.70317943607E+02  0.28312471124E+03  0.27425351214E+03 0.  0.
         25    2    3    3    0    0  0.57540484720E+02 -0.15982967864E+02 -0.50797604400E+02  0.14544677922E+03  0.12250716848E+03 0.  0.
         25    2    3    3    0    0 -0.57540484720E+02  0.15982967864E+02 -0.19520339207E+02  0.13767793203E+03  0.12250635363E+03 0.  0.
          5    1    4    4  502    0  0.50995101968E+02 -0.64963871059E+01 -0.90308745579E+02  0.10402145451E+03  0.47000000000E+01 0. -1.
         -5    1    4    4    0  502  0.65453827513E+01 -0.94865807578E+01  0.39511141179E+02  0.41425324707E+02  0.47000000000E+01 0. -1.
          5    1    5    5  503    0 -0.56769936941E+02 -0.36073059178E+02 -0.43423709073E+02  0.80198502782E+02  0.47000000000E+01 0.  1.
         -5    1    5    5    0  503 -0.77054777827E+00  0.52056027042E+02  0.23903369866E+02  0.57479429244E+02  0.47000000000E+01 0.  1.
<mgrwt>
<rscale>  0 0.27425351E+03</rscale>
<asrwt>0</asrwt>
<pdfrwt beam="1">  1        2 0.16369751E-01 0.27425351E+03</pdfrwt>
<pdfrwt beam="2">  1       -2 0.27187896E-01 0.27425351E+03</pdfrwt>
<totfact> 0.42687712E+03</totfact>
</mgrwt>
</event>
<event>
 9    1  0.2031653E-002  0.2738136E+03  0.7818608E-02  0.1099117E+00
         -1   -1    0    0    0  501 -0.00000000000E+00  0.00000000000E+00  0.46987418859E+02  0.46987418859E+02  0.00000000000E+00 0. -1.
          1   -1    0    0  501    0  0.00000000000E+00 -0.00000000000E+00 -0.39890408815E+03  0.39890408815E+03  0.00000000000E+00 0. -1.
         36    2    1    2    0    0  0.10658141036E-13 -0.88817841970E-15 -0.35191666929E+03  0.44589150701E+03  0.27381361160E+03 0.  0.
         25    2    3    3    0    0 -0.29024560768E+02 -0.72658080667E+01 -0.24777087643E+03  0.28147655502E+03  0.13016691870E+03 0.  0.
         25    2    3    3    0    0  0.29024560768E+02  0.72658080667E+01 -0.10414579286E+03  0.16441495199E+03  0.12365562330E+03 0.  0.
          5    1    4    4  502    0  0.23543403019E+02 -0.12971599719E+02  0.80050270099E+00  0.27299908966E+02  0.47000000000E+01 0.  1.
         -5    1    4    4    0  502 -0.52567963787E+02  0.57057916528E+01 -0.24857137913E+03  0.25417664605E+03  0.47000000000E+01 0.  1.
          5    1    5    5  503    0  0.33064230674E+02  0.54570269741E+02 -0.18874396048E+02  0.66704501466E+02  0.47000000000E+01 0.  1.
         -5    1    5    5    0  503 -0.40396699056E+01 -0.47304461674E+02 -0.85271396814E+02  0.97710450525E+02  0.47000000000E+01 0.  1.
<mgrwt>
<rscale>  0 0.27381361E+03</rscale>
<asrwt>0</asrwt>
<pdfrwt beam="1">  1        1 0.61369861E-01 0.27381361E+03</pdfrwt>
<pdfrwt beam="2">  1       -1 0.72288335E-02 0.27381361E+03</pdfrwt>
<totfact> 0.60795796E+03</totfact>
</mgrwt>
</event>
<event>
 9    1  0.2031653E-002  0.2746549E+03  0.7818608E-02  0.1098645E+00
         -1   -1    0    0    0  501 -0.00000000000E+00  0.00000000000E+00  0.30557136266E+02  0.30557136266E+02  0.00000000000E+00 0.  1.
          1   -1    0    0  501    0  0.00000000000E+00 -0.00000000000E+00 -0.61716630813E+03  0.61716630813E+03  0.00000000000E+00 0.  1.
         36    2    1    2    0    0  0.00000000000E+00  0.71054273576E-14 -0.58660917186E+03  0.64772344440E+03  0.27465494699E+03 0.  0.
         25    2    3    3    0    0  0.49060766114E+02  0.38720782670E+02 -0.26298036217E+03  0.29562290742E+03  0.11969951847E+03 0.  0.
         25    2    3    3    0    0 -0.49060766114E+02 -0.38720782670E+02 -0.32362880970E+03  0.35210053698E+03  0.12382618419E+03 0.  0.
          5    1    4    4  502    0 -0.15800383171E+02 -0.24678878471E+01  0.45173108389E+01  0.17269588182E+02  0.47000000000E+01 0.  1.
         -5    1    4    4    0  502  0.64861149285E+02  0.41188670517E+02 -0.26749767300E+03  0.27835331923E+03  0.47000000000E+01 0.  1.
          5    1    5    5  503    0 -0.34697931751E+02 -0.45104103360E+01 -0.31044389391E+03  0.31244486159E+03  0.47000000000E+01 0.  1.
         -5    1    5    5    0  503 -0.14362834364E+02 -0.34210372334E+02 -0.13184915790E+02  0.39655675390E+02  0.47000000000E+01 0.  1.
<mgrwt>
<rscale>  0 0.27465495E+03</rscale>
<asrwt>0</asrwt>
<pdfrwt beam="1">  1        1 0.94948657E-01 0.27465495E+03</pdfrwt>
<pdfrwt beam="2">  1       -1 0.47010982E-02 0.27465495E+03</pdfrwt>
<totfact> 0.65035904E+03</totfact>
</mgrwt>
</event>
<event>
 9    1  0.2031653E-002  0.2758462E+03  0.7818608E-02  0.1097980E+00
         -2   -1    0    0    0  501 -0.00000000000E+00  0.00000000000E+00  0.17222295803E+02  0.17222295803E+02  0.00000000000E+00 0.  1.
          2   -1    0    0  501    0  0.00000000000E+00 -0.00000000000E+00 -0.11045437746E+04  0.11045437746E+04  0.00000000000E+00 0.  1.
         36    2    1    2    0    0  0.71054273576E-14  0.00000000000E+00 -0.10873214788E+04  0.11217660704E+04  0.27584618622E+03 0.  0.
         25    2    3    3    0    0 -0.54515452489E+02  0.44144900862E+01 -0.46936703472E+03  0.48891493427E+03  0.12546305191E+03 0.  0.
         25    2    3    3    0    0  0.54515452489E+02 -0.44144900862E+01 -0.61795444406E+03  0.63285113611E+03  0.12506575574E+03 0.  0.
          5    1    4    4  502    0 -0.13500515487E+02 -0.34597265042E+01 -0.43325267082E+03  0.43350224959E+03  0.47000000000E+01 0. -1.
         -5    1    4    4    0  502 -0.41014937002E+02  0.78742165904E+01 -0.36114363896E+02  0.55412684683E+02  0.47000000000E+01 0. -1.
          5    1    5    5  503    0  0.92063925408E+02 -0.47645203965E+00 -0.51292636944E+03  0.52114445582E+03  0.47000000000E+01 0.  1.
         -5    1    5    5    0  503 -0.37548472919E+02 -0.39380380465E+01 -0.10502807462E+03  0.11170668029E+03  0.47000000000E+01 0.  1.
<mgrwt>
<rscale>  0 0.27584619E+03</rscale>
<asrwt>0</asrwt>
<pdfrwt beam="1">  1        2 0.16992977E+00 0.27584619E+03</pdfrwt>
<pdfrwt beam="2">  1       -2 0.26495846E-02 0.27584619E+03</pdfrwt>
<totfact> 0.11553292E+04</totfact>
</mgrwt>
</event>
<event>
 9    1  0.2031653E-002  0.2778557E+03  0.7818608E-02  0.1096866E+00
         -2   -1    0    0    0  501 -0.00000000000E+00  0.00000000000E+00  0.21474280166E+02  0.21474280166E+02  0.00000000000E+00 0. -1.
          2   -1    0    0  501    0  0.00000000000E+00 -0.00000000000E+00 -0.89879356123E+03  0.89879356123E+03  0.00000000000E+00 0. -1.
         36    2    1    2    0    0  0.00000000000E+00  0.14210854715E-13 -0.87731928107E+03  0.92026784140E+03  0.27785568013E+03 0.  0.
         25    2    3    3    0    0  0.16424840372E+02  0.40741687449E+02 -0.36683003286E+03  0.39081852449E+03  0.12745660279E+03 0.  0.
         25    2    3    3    0    0 -0.16424840372E+02 -0.40741687449E+02 -0.51048924820E+03  0.52944931691E+03  0.13337033467E+03 0.  0.
          5    1    4    4  502    0 -0.54959910998E+01 -0.64025847686E+01 -0.32160419533E+03  0.32174919963E+03  0.47000000000E+01 0.  1.
         -5    1    4    4    0  502  0.21920831472E+02  0.47144272218E+02 -0.45225837534E+02  0.69069324855E+02  0.47000000000E+01 0.  1.
          5    1    5    5  503    0 -0.60293060073E+02 -0.66036336255E+02 -0.32145413856E+03  0.33369282880E+03  0.47000000000E+01 0.  1.
         -5    1    5    5    0  503  0.43868219701E+02  0.25294648806E+02 -0.18903510965E+03  0.19575648811E+03  0.47000000000E+01 0.  1.
<mgrwt>
<rscale>  0 0.27785568E+03</rscale>
<asrwt>0</asrwt>
<pdfrwt beam="1">  1        2 0.13827594E+00 0.27785568E+03</pdfrwt>
<pdfrwt beam="2">  1       -2 0.33037353E-02 0.27785568E+03</pdfrwt>
<totfact> 0.11129826E+04</totfact>
</mgrwt>
</event>
<event>
 9    1  0.2031653E-002  0.2755840E+03  0.7818608E-02  0.1098126E+00
         -2   -1    0    0    0  501 -0.00000000000E+00  0.00000000000E+00  0.14540842220E+02  0.14540842220E+02  0.00000000000E+00 0. -1.
          2   -1    0    0  501    0  0.00000000000E+00 -0.00000000000E+00 -0.13057453887E+04  0.13057453887E+04  0.00000000000E+00 0. -1.
         36    2    1    2    0    0  0.00000000000E+00  0.71054273576E-14 -0.12912045465E+04  0.13202862309E+04  0.27558401751E+03 0.  0.
         25    2    3    3    0    0  0.40364965024E+02  0.57681533967E+01 -0.87841149065E+03  0.88803150759E+03  0.12381683886E+03 0.  0.
         25    2    3    3    0    0 -0.40364965024E+02 -0.57681533967E+01 -0.41279305584E+03  0.43225472333E+03  0.12158715762E+03 0.  0.
          5    1    4    4  502    0  0.44578340531E+02 -0.36883271333E+02 -0.75643311552E+03  0.75865720348E+03  0.47000000000E+01 0.  1.
         -5    1    4    4    0  502 -0.42133755075E+01  0.42651424730E+02 -0.12197837513E+03  0.12937430411E+03  0.47000000000E+01 0.  1.
          5    1    5    5  503    0 -0.14239159959E+02  0.46383285301E+02 -0.31135192735E+03  0.31514484844E+03  0.47000000000E+01 0. -1.
         -5    1    5    5    0  503 -0.26125805065E+02 -0.52151438698E+02 -0.10144112849E+03  0.11710987490E+03  0.47000000000E+01 0. -1.
<mgrwt>
<rscale>  0 0.27558402E+03</rscale>
<asrwt>0</asrwt>
<pdfrwt beam="1">  1        2 0.20088389E+00 0.27558402E+03</pdfrwt>
<pdfrwt beam="2">  1       -2 0.22370529E-02 0.27558402E+03</pdfrwt>
<totfact> 0.11404242E+04</totfact>
</mgrwt>
</event>
<event>
 9    1  0.2031653E-002  0.2748253E+03  0.7818608E-02  0.1098549E+00
          1   -1    0    0  501    0  0.00000000000E+00  0.00000000000E+00  0.44707580113E+03  0.44707580113E+03  0.00000000000E+00 0. -1.
         -1   -1    0    0    0  501 -0.00000000000E+00 -0.00000000000E+00 -0.42234990602E+02  0.42234990602E+02  0.00000000000E+00 0. -1.
         36    2    1    2    0    0 -0.71054273576E-14 -0.71054273576E-14  0.40484081052E+03  0.48931079173E+03  0.27482534278E+03 0.  0.
         25    2    3    3    0    0  0.14212246578E+02  0.25905910718E+02  0.27459804960E+03  0.30692159292E+03  0.13387931578E+03 0.  0.
         25    2    3    3    0    0 -0.14212246578E+02 -0.25905910718E+02  0.13024276092E+03  0.18238919880E+03  0.12421569508E+03 0.  0.
          5    1    4    4  502    0 -0.72979664427E+00 -0.52147285982E+02  0.70284962183E+02  0.87646665353E+02  0.47000000000E+01 0.  1.
         -5    1    4    4    0  502  0.14942043222E+02  0.78053196699E+02  0.20431308742E+03  0.21927492757E+03  0.47000000000E+01 0.  1.
          5    1    5    5  503    0 -0.68111864747E+02 -0.15603858565E+02  0.54512560772E+02  0.88749173536E+02  0.47000000000E+01 0.  1.
         -5    1    5    5    0  503  0.53899618169E+02 -0.10302052153E+02  0.75730200150E+02  0.93640025267E+02  0.47000000000E+01 0.  1.
<mgrwt>
<rscale>  0 0.27482534E+03</rscale>
<asrwt>0</asrwt>
<pdfrwt beam="1">  1        1 0.68780889E-01 0.27482534E+03</pdfrwt>
<pdfrwt beam="2">  1       -1 0.64976912E-02 0.27482534E+03</pdfrwt>
<totfact> 0.61688627E+03</totfact>
</mgrwt>
</event>
<event>
 9    1  0.2031653E-002  0.2746091E+03  0.7818608E-02  0.1098670E+00
         -1   -1    0    0    0  501 -0.00000000000E+00  0.00000000000E+00  0.46937416724E+02  0.46937416724E+02  0.00000000000E+00 0. -1.
          1   -1    0    0  501    0  0.00000000000E+00 -0.00000000000E+00 -0.40165257303E+03  0.40165257303E+03  0.00000000000E+00 0. -1.
         36    2    1    2    0    0  0.00000000000E+00 -0.17763568394E-14 -0.35471515631E+03  0.44858998976E+03  0.27460906175E+03 0.  0.
         25    2    3    3    0    0 -0.10700685567E+01 -0.75311503694E+01 -0.26548933892E+03  0.29346916231E+03  0.12482666731E+03 0.  0.
         25    2    3    3    0    0  0.10700685567E+01  0.75311503694E+01 -0.89225817387E+02  0.15512082745E+03  0.12666239121E+03 0.  0.
          5    1    4    4  502    0 -0.18115055137E+02 -0.95772854277E+00 -0.27264930512E+03  0.27329252834E+03  0.47000000000E+01 0. -1.
         -5    1    4    4    0  502  0.17044986580E+02 -0.65734218266E+01  0.71599661983E+01  0.20176633961E+02  0.47000000000E+01 0. -1.
          5    1    5    5  503    0 -0.35080916770E+02  0.52370108108E+02 -0.23089748103E+02  0.67294319315E+02  0.47000000000E+01 0. -1.
         -5    1    5    5    0  503  0.36150985327E+02 -0.44838957738E+02 -0.66136069284E+02  0.87826508137E+02  0.47000000000E+01 0. -1.
<mgrwt>
<rscale>  0 0.27460906E+03</rscale>
<asrwt>0</asrwt>
<pdfrwt beam="1">  1        1 0.61792704E-01 0.27460906E+03</pdfrwt>
<pdfrwt beam="2">  1       -1 0.72211409E-02 0.27460906E+03</pdfrwt>
<totfact> 0.60365863E+03</totfact>
</mgrwt>
</event>
<event>
 9    1  0.2031653E-002  0.2792789E+03  0.7818608E-02  0.1096083E+00
         -1   -1    0    0    0  501 -0.00000000000E+00  0.00000000000E+00  0.52729731801E+02  0.52729731801E+02  0.00000000000E+00 0.  1.
          1   -1    0    0  501    0  0.00000000000E+00 -0.00000000000E+00 -0.36979460220E+03  0.36979460220E+03  0.00000000000E+00 0.  1.
         36    2    1    2    0    0  0.71054273576E-14  0.71054273576E-14 -0.31706487040E+03  0.42252433400E+03  0.27927885846E+03 0.  0.
         25    2    3    3    0    0  0.38593321218E+01  0.62673645765E+02 -0.16709209395E+03  0.22024297073E+03  0.12901285974E+03 0.  0.
         25    2    3    3    0    0 -0.38593321218E+01 -0.62673645765E+02 -0.14997277645E+03  0.20228136327E+03  0.12034548572E+03 0.  0.
          5    1    4    4  502    0 -0.42046094841E+02  0.50383273586E+02 -0.25067055303E+02  0.70404514132E+02  0.47000000000E+01 0. -1.
         -5    1    4    4    0  502  0.45905426963E+02  0.12290372179E+02 -0.14202503865E+03  0.14983845660E+03  0.47000000000E+01 0. -1.
          5    1    5    5  503    0 -0.50627413298E+02 -0.68909596503E+02 -0.76460553152E+02  0.11480406637E+03  0.47000000000E+01 0. -1.
         -5    1    5    5    0  503  0.46768081176E+02  0.62359507381E+01 -0.73512223297E+02  0.87477296897E+02  0.47000000000E+01 0. -1.
<mgrwt>
<rscale>  0 0.27927886E+03</rscale>
<asrwt>0</asrwt>
<pdfrwt beam="1">  1        1 0.56891478E-01 0.27927886E+03</pdfrwt>
<pdfrwt beam="2">  1       -1 0.81122663E-02 0.27927886E+03</pdfrwt>
<totfact> 0.56214733E+03</totfact>
</mgrwt>
</event>
<event>
 9    1  0.2031653E-002  0.2749415E+03  0.7818608E-02  0.1098484E+00
         -2   -1    0    0    0  501 -0.00000000000E+00  0.00000000000E+00  0.13454029587E+03  0.13454029587E+03  0.00000000000E+00 0. -1.
          2   -1    0    0  501    0  0.00000000000E+00 -0.00000000000E+00 -0.14046498907E+03  0.14046498907E+03  0.00000000000E+00 0. -1.
         36    2    1    2    0    0 -0.71054273576E-14  0.00000000000E+00 -0.59246932016E+01  0.27500528493E+03  0.27494145695E+03 0.  0.
         25    2    3    3    0    0  0.24622304036E+02 -0.48122147228E+02  0.31940631259E+02  0.13937922207E+03  0.12443618730E+03 0.  0.
         25    2    3    3    0    0 -0.24622304036E+02  0.48122147228E+02 -0.37865324461E+02  0.13562606287E+03  0.11848479743E+03 0.  0.
          5    1    4    4  502    0  0.66552639857E+02  0.17388854211E+01  0.32105324397E+02  0.74061592266E+02  0.47000000000E+01 0. -1.
         -5    1    4    4    0  502 -0.41930335820E+02 -0.49861032649E+02 -0.16469313759E+00  0.65317629800E+02  0.47000000000E+01 0. -1.
          5    1    5    5  503    0 -0.13922535069E+02  0.18766025524E+02  0.42802283189E+02  0.48991082279E+02  0.47000000000E+01 0.  1.
         -5    1    5    5    0  503 -0.10699768968E+02  0.29356121705E+02 -0.80667607650E+02  0.86634980588E+02  0.47000000000E+01 0.  1.
<mgrwt>
<rscale>  0 0.27494146E+03</rscale>
<asrwt>0</asrwt>
<pdfrwt beam="1">  1        2 0.21609998E-01 0.27494146E+03</pdfrwt>
<pdfrwt beam="2">  1       -2 0.20698507E-01 0.27494146E+03</pdfrwt>
<totfact> 0.49960407E+03</totfact>
</mgrwt>
</event>
<event>
 9    1  0.2031653E-002  0.2748559E+03  0.7818608E-02  0.1098532E+00
         -2   -1    0    0    0  501 -0.00000000000E+00  0.00000000000E+00  0.10662624477E+03  0.10662624477E+03  0.00000000000E+00 0. -1.
          2   -1    0    0  501    0  0.00000000000E+00 -0.00000000000E+00 -0.17712754552E+03  0.17712754552E+03  0.00000000000E+00 0. -1.
         36    2    1    2    0    0  0.14210854715E-13  0.53290705182E-14 -0.70501300747E+02  0.28375379030E+03  0.27485592608E+03 0.  0.
         25    2    3    3    0    0 -0.48379418176E+02  0.10300646229E+02 -0.76928851451E+02  0.15220639221E+03  0.12166374246E+03 0.  0.
         25    2    3    3    0    0  0.48379418176E+02 -0.10300646229E+02  0.64275507036E+01  0.13154739808E+03  0.12172400387E+03 0.  0.
          5    1    4    4  502    0  0.12531298504E+02 -0.34913115684E+02 -0.65399665921E+02  0.75333693601E+02  0.47000000000E+01 0. -1.
         -5    1    4    4    0  502 -0.60910716680E+02  0.45213761913E+02 -0.11529185530E+02  0.76872698612E+02  0.47000000000E+01 0. -1.
          5    1    5    5  503    0  0.47071183786E+02 -0.38412836856E+01 -0.53245631333E+02  0.71327687888E+02  0.47000000000E+01 0. -1.
         -5    1    5    5    0  503  0.13082343900E+01 -0.64593625439E+01  0.59673182037E+02  0.60219710196E+02  0.47000000000E+01 0. -1.
<mgrwt>
<rscale>  0 0.27485593E+03</rscale>
<asrwt>0</asrwt>
<pdfrwt beam="1">  1        2 0.27250392E-01 0.27485593E+03</pdfrwt>
<pdfrwt beam="2">  1       -2 0.16404038E-01 0.27485593E+03</pdfrwt>
<totfact> 0.57101372E+03</totfact>
</mgrwt>
</event>
<event>
 9    1  0.2031653E-002  0.2751588E+03  0.7818608E-02  0.1098363E+00
          1   -1    0    0  501    0  0.00000000000E+00  0.00000000000E+00  0.38761207343E+02  0.38761207343E+02  0.00000000000E+00 0. -1.
         -1   -1    0    0    0  501 -0.00000000000E+00 -0.00000000000E+00 -0.48832579551E+03  0.48832579551E+03  0.00000000000E+00 0. -1.
         36    2    1    2    0    0  0.00000000000E+00  0.35527136788E-14 -0.44956458816E+03  0.52708700285E+03  0.27515884438E+03 0.  0.
         25    2    3    3    0    0 -0.39518491253E+02 -0.11806917400E+02 -0.30968223144E+03  0.33548306373E+03  0.12224846474E+03 0.  0.
         25    2    3    3    0    0  0.39518491253E+02  0.11806917400E+02 -0.13988235672E+03  0.19160393911E+03  0.12427341354E+03 0.  0.
          5    1    4    4  502    0  0.21356482472E+02  0.10405193106E+02 -0.23603216876E+03  0.23727124157E+03  0.47000000000E+01 0.  1.
         -5    1    4    4    0  502 -0.60874973725E+02 -0.22212110506E+02 -0.73650062683E+02  0.98211822162E+02  0.47000000000E+01 0.  1.
          5    1    5    5  503    0  0.40131781246E+01  0.36881620187E+02  0.72683695158E+01  0.38095652005E+02  0.47000000000E+01 0. -1.
         -5    1    5    5    0  503  0.35505313128E+02 -0.25074702787E+02 -0.14715072623E+03  0.15350828711E+03  0.47000000000E+01 0. -1.
<mgrwt>
<rscale>  0 0.27515884E+03</rscale>
<asrwt>0</asrwt>
<pdfrwt beam="1">  1        1 0.59632627E-02 0.27515884E+03</pdfrwt>
<pdfrwt beam="2">  1       -1 0.75127046E-01 0.27515884E+03</pdfrwt>
<totfact> 0.24156453E+03</totfact>
</mgrwt>
</event>
<event>
 9    1  0.2031653E-002  0.2729457E+03  0.7818608E-02  0.1099605E+00
         -1   -1    0    0    0  501 -0.00000000000E+00  0.00000000000E+00  0.40553516940E+02  0.40553516940E+02  0.00000000000E+00 0. -1.
          1   -1    0    0  501    0  0.00000000000E+00 -0.00000000000E+00 -0.45926581154E+03  0.45926581154E+03  0.00000000000E+00 0. -1.
         36    2    1    2    0    0  0.35527136788E-14  0.35527136788E-14 -0.41871229460E+03  0.49981932848E+03  0.27294573723E+03 0.  0.
         25    2    3    3    0    0  0.23955746653E+02  0.18901811433E+02 -0.12691957134E+03  0.18067309965E+03  0.12491210940E+03 0.  0.
         25    2    3    3    0    0 -0.23955746653E+02 -0.18901811433E+02 -0.29179272326E+03  0.31914622883E+03  0.12561912973E+03 0.  0.
          5    1    4    4  502    0 -0.15552352273E+01  0.70583199696E+02 -0.69272595807E+02  0.99021156152E+02  0.47000000000E+01 0. -1.
         -5    1    4    4    0  502  0.25510981880E+02 -0.51681388263E+02 -0.57646975532E+02  0.81651943499E+02  0.47000000000E+01 0. -1.
          5    1    5    5  503    0 -0.62232827615E+02  0.20402203378E+02 -0.10019315407E+03  0.11979120526E+03  0.47000000000E+01 0.  1.
         -5    1    5    5    0  503  0.38277080962E+02 -0.39304014811E+02 -0.19159956919E+03  0.19935502356E+03  0.47000000000E+01 0.  1.
<mgrwt>
<rscale>  0 0.27294574E+03</rscale>
<asrwt>0</asrwt>
<pdfrwt beam="1">  1        1 0.70656272E-01 0.27294574E+03</pdfrwt>
<pdfrwt beam="2">  1       -1 0.62390032E-02 0.27294574E+03</pdfrwt>
<totfact> 0.63320212E+03</totfact>
</mgrwt>
</event>
<event>
 9    1  0.2031653E-002  0.2750925E+03  0.7818608E-02  0.1098400E+00
          2   -1    0    0  501    0  0.00000000000E+00  0.00000000000E+00  0.24242695676E+04  0.24242695676E+04  0.00000000000E+00 0.  1.
         -2   -1    0    0    0  501 -0.00000000000E+00 -0.00000000000E+00 -0.78039887706E+01  0.78039887706E+01  0.00000000000E+00 0.  1.
         36    2    1    2    0    0  0.00000000000E+00  0.14210854715E-13  0.24164655788E+04  0.24320735564E+04  0.27509251159E+03 0.  0.
         25    2    3    3    0    0 -0.66704696668E+01  0.73592545115E+02  0.13075978346E+04  0.13156149139E+04  0.12478039383E+03 0.  0.
         25    2    3    3    0    0  0.66704696668E+01 -0.73592545115E+02  0.11088677443E+04  0.11164586425E+04  0.10691991564E+03 0.  0.
          5    1    4    4  502    0 -0.30339970691E+02  0.45479275210E+02  0.19980851051E+03  0.20720619964E+03  0.47000000000E+01 0. -1.
         -5    1    4    4    0  502  0.23669501024E+02  0.28113269905E+02  0.11077893241E+04  0.11084087142E+04  0.47000000000E+01 0. -1.
          5    1    5    5  503    0  0.50109808660E+02 -0.10484304956E+02  0.53867172537E+03  0.54111942423E+03  0.47000000000E+01 0.  1.
         -5    1    5    5    0  503 -0.43439338994E+02 -0.63108240160E+02  0.57019601888E+03  0.57533921829E+03  0.47000000000E+01 0.  1.
<mgrwt>
<rscale>  0 0.27509251E+03</rscale>
<asrwt>0</asrwt>
<pdfrwt beam="1">  1        2 0.37296395E+00 0.27509251E+03</pdfrwt>
<pdfrwt beam="2">  1       -2 0.12006156E-02 0.27509251E+03</pdfrwt>
<totfact> 0.72064755E+03</totfact>
</mgrwt>
</event>
<event>
 9    1  0.2031653E-002  0.2781396E+03  0.7818608E-02  0.1096709E+00
         -2   -1    0    0    0  501 -0.00000000000E+00  0.00000000000E+00  0.14628065221E+02  0.14628065221E+02  0.00000000000E+00 0. -1.
          2   -1    0    0  501    0  0.00000000000E+00 -0.00000000000E+00 -0.13221437060E+04  0.13221437060E+04  0.00000000000E+00 0. -1.
         36    2    1    2    0    0  0.00000000000E+00  0.00000000000E+00 -0.13075156408E+04  0.13367717712E+04  0.27813956470E+03 0.  0.
         25    2    3    3    0    0  0.41777980824E+02 -0.39666451194E+02 -0.57053444780E+03  0.58712156194E+03  0.12602914481E+03 0.  0.
         25    2    3    3    0    0 -0.41777980824E+02  0.39666451194E+02 -0.73698119298E+03  0.74965020928E+03  0.12456054927E+03 0.  0.
          5    1    4    4  502    0  0.29474613266E+02 -0.65158980995E+02 -0.54177878206E+03  0.54649865903E+03  0.47000000000E+01 0.  1.
         -5    1    4    4    0  502  0.12303367558E+02  0.25492529801E+02 -0.28755665738E+02  0.40622902911E+02  0.47000000000E+01 0.  1.
          5    1    5    5  503    0  0.21860242052E+02  0.53288206568E+02 -0.51632337890E+03  0.51954732676E+03  0.47000000000E+01 0. -1.
         -5    1    5    5    0  503 -0.63638222876E+02 -0.13621755374E+02 -0.22065781408E+03  0.23010288252E+03  0.47000000000E+01 0. -1.
<mgrwt>
<rscale>  0 0.27813956E+03</rscale>
<asrwt>0</asrwt>
<pdfrwt beam="1">  1        2 0.20340674E+00 0.27813956E+03</pdfrwt>
<pdfrwt beam="2">  1       -2 0.22504714E-02 0.27813956E+03</pdfrwt>
<totfact> 0.11073252E+04</totfact>
</mgrwt>
</event>
<event>
 9    1  0.2031653E-002  0.2744230E+03  0.7818608E-02  0.1098775E+00
          2   -1    0    0  501    0  0.00000000000E+00  0.00000000000E+00  0.69733366029E+03  0.69733366029E+03  0.00000000000E+00 0.  1.
         -2   -1    0    0    0  501 -0.00000000000E+00 -0.00000000000E+00 -0.26998548455E+02  0.26998548455E+02  0.00000000000E+00 0.  1.
         36    2    1    2    0    0  0.00000000000E+00 -0.35527136788E-14  0.67033511183E+03  0.72433220874E+03  0.27442300645E+03 0.  0.
         25    2    3    3    0    0  0.12171113428E+02 -0.26849776200E+02  0.20776438914E+03  0.24349888883E+03  0.12351769503E+03 0.  0.
         25    2    3    3    0    0 -0.12171113428E+02  0.26849776200E+02  0.46257072269E+03  0.48083331991E+03  0.12790606537E+03 0.  0.
          5    1    4    4  502    0 -0.51235473354E+02 -0.12927181656E+02  0.13917567204E+03  0.14894342363E+03  0.47000000000E+01 0. -1.
         -5    1    4    4    0  502  0.63406586782E+02 -0.13922594544E+02  0.68588717100E+02  0.94555465202E+02  0.47000000000E+01 0. -1.
          5    1    5    5  503    0  0.48427528546E+02 -0.21422070584E+02  0.20852812964E+03  0.21519805176E+03  0.47000000000E+01 0. -1.
         -5    1    5    5    0  503 -0.60598641974E+02  0.48271846784E+02  0.25404259305E+03  0.26563526815E+03  0.47000000000E+01 0. -1.
<mgrwt>
<rscale>  0 0.27442301E+03</rscale>
<asrwt>0</asrwt>
<pdfrwt beam="1">  1        2 0.10728209E+00 0.27442301E+03</pdfrwt>
<pdfrwt beam="2">  1       -2 0.41536234E-02 0.27442301E+03</pdfrwt>
<totfact> 0.10894215E+04</totfact>
</mgrwt>
</event>
<event>
 9    1  0.2031653E-002  0.2752589E+03  0.7818608E-02  0.1098307E+00
          1   -1    0    0  501    0  0.00000000000E+00  0.00000000000E+00  0.77995266305E+03  0.77995266305E+03  0.00000000000E+00 0. -1.
         -1   -1    0    0    0  501 -0.00000000000E+00 -0.00000000000E+00 -0.24285910809E+02  0.24285910809E+02  0.00000000000E+00 0. -1.
         36    2    1    2    0    0  0.35527136788E-14  0.00000000000E+00  0.75566675224E+03  0.80423857386E+03  0.27525886587E+03 0.  0.
         25    2    3    3    0    0 -0.25167509859E+02  0.37109941179E+02  0.27777169169E+03  0.30816466403E+03  0.12568928420E+03 0.  0.
         25    2    3    3    0    0  0.25167509859E+02 -0.37109941179E+02  0.47789506055E+03  0.49607390983E+03  0.12528002167E+03 0.  0.
          5    1    4    4  502    0  0.24663241681E+02 -0.50485042421E+01  0.30902915802E+01  0.25795402446E+02  0.47000000000E+01 0. -1.
         -5    1    4    4    0  502 -0.49830751539E+02  0.42158445421E+02  0.27468140011E+03  0.28236926158E+03  0.47000000000E+01 0. -1.
          5    1    5    5  503    0 -0.34456700667E+02 -0.27822964038E+02  0.36738390551E+03  0.37007351375E+03  0.47000000000E+01 0. -1.
         -5    1    5    5    0  503  0.59624210526E+02 -0.92869771405E+01  0.11051115503E+03  0.12600039608E+03  0.47000000000E+01 0. -1.
<mgrwt>
<rscale>  0 0.27525887E+03</rscale>
<asrwt>0</asrwt>
<pdfrwt beam="1">  1        1 0.11999270E+00 0.27525887E+03</pdfrwt>
<pdfrwt beam="2">  1       -1 0.37362946E-02 0.27525887E+03</pdfrwt>
<totfact> 0.65107895E+03</totfact>
</mgrwt>
</event>
<event>
 9    1  0.2031653E-002  0.2746740E+03  0.7818608E-02  0.1098634E+00
         -2   -1    0    0    0  501 -0.00000000000E+00  0.00000000000E+00  0.17398744661E+03  0.17398744661E+03  0.00000000000E+00 0. -1.
          2   -1    0    0  501    0  0.00000000000E+00 -0.00000000000E+00 -0.10840699072E+03  0.10840699072E+03  0.00000000000E+00 0. -1.
         36    2    1    2    0    0  0.00000000000E+00  0.71054273576E-14  0.65580455891E+02  0.28239443733E+03  0.27467402870E+03 0.  0.
         25    2    3    3    0    0  0.26917735384E+02  0.37432220290E+02  0.64026763493E+02  0.14772431658E+03  0.12488919758E+03 0.  0.
         25    2    3    3    0    0 -0.26917735384E+02 -0.37432220290E+02  0.15536923982E+01  0.13467012075E+03  0.12652229791E+03 0.  0.
          5    1    4    4  502    0  0.64612752338E+02  0.55791857549E+02  0.61764585181E+02  0.10547271266E+03  0.47000000000E+01 0.  1.
         -5    1    4    4    0  502 -0.37695016954E+02 -0.18359637259E+02  0.22621783125E+01  0.42251603924E+02  0.47000000000E+01 0.  1.
          5    1    5    5  503    0  0.42110070926E+02  0.17568350035E+02  0.54921057602E+01  0.46196950354E+02  0.47000000000E+01 0. -1.
         -5    1    5    5    0  503 -0.69027806310E+02 -0.55000570325E+02 -0.39384133620E+01  0.88473170395E+02  0.47000000000E+01 0. -1.
<mgrwt>
<rscale>  0 0.27467403E+03</rscale>
<asrwt>0</asrwt>
<pdfrwt beam="1">  1        2 0.16677999E-01 0.27467403E+03</pdfrwt>
<pdfrwt beam="2">  1       -2 0.26767299E-01 0.27467403E+03</pdfrwt>
<totfact> 0.42945303E+03</totfact>
</mgrwt>
</event>
<event>
 9    1  0.2031653E-002  0.2759315E+03  0.7818608E-02  0.1097932E+00
          2   -1    0    0  501    0  0.00000000000E+00  0.00000000000E+00  0.39749020447E+02  0.39749020447E+02  0.00000000000E+00 0. -1.
         -2   -1    0    0    0  501 -0.00000000000E+00 -0.00000000000E+00 -0.47886851339E+03  0.47886851339E+03  0.00000000000E+00 0. -1.
         36    2    1    2    0    0 -0.71054273576E-14  0.14210854715E-13 -0.43911949295E+03  0.51861753384E+03  0.27593154463E+03 0.  0.
         25    2    3    3    0    0 -0.31205666352E+02 -0.59537592181E+02 -0.16914150733E+03  0.21673389988E+03  0.11766994247E+03 0.  0.
         25    2    3    3    0    0  0.31205666352E+02  0.59537592181E+02 -0.26997798561E+03  0.30188363395E+03  0.11716269559E+03 0.  0.
          5    1    4    4  502    0 -0.63107668273E+02 -0.33420992069E+02 -0.41972096962E+02  0.82965579785E+02  0.47000000000E+01 0. -1.
         -5    1    4    4    0  502  0.31902001921E+02 -0.26116600113E+02 -0.12716941037E+03  0.13376832010E+03  0.47000000000E+01 0. -1.
          5    1    5    5  503    0  0.71035603457E+02  0.54523615193E+02 -0.14455730540E+03  0.17011109933E+03  0.47000000000E+01 0. -1.
         -5    1    5    5    0  503 -0.39829937105E+02  0.50139769878E+01 -0.12542068021E+03  0.13177253462E+03  0.47000000000E+01 0. -1.
<mgrwt>
<rscale>  0 0.27593154E+03</rscale>
<asrwt>0</asrwt>
<pdfrwt beam="1">  1        2 0.61152336E-02 0.27593154E+03</pdfrwt>
<pdfrwt beam="2">  1       -2 0.73672083E-01 0.27593154E+03</pdfrwt>
<totfact> 0.20531818E+03</totfact>
</mgrwt>
</event>
<event>
 9    1  0.2031653E-002  0.2747477E+03  0.7818608E-02  0.1098593E+00
          1   -1    0    0  501    0  0.00000000000E+00  0.00000000000E+00  0.92147447495E+03  0.92147447495E+03  0.00000000000E+00 0. -1.
         -1   -1    0    0    0  501 -0.00000000000E+00 -0.00000000000E+00 -0.20479763831E+02  0.20479763831E+02  0.00000000000E+00 0. -1.
         36    2    1    2    0    0  0.00000000000E+00  0.71054273576E-14  0.90099471112E+03  0.94195423878E+03  0.27474773610E+03 0.  0.
         25    2    3    3    0    0 -0.28479520456E+02 -0.29988845565E+02  0.30971161685E+03  0.33630913944E+03  0.12438704800E+03 0.  0.
         25    2    3    3    0    0  0.28479520456E+02  0.29988845565E+02  0.59128309427E+03  0.60564509935E+03  0.12441814518E+03 0.  0.
          5    1    4    4  502    0  0.13886800492E+02 -0.35621049523E+02  0.19959132900E+02  0.43383860860E+02  0.47000000000E+01 0. -1.
         -5    1    4    4    0  502 -0.42366320948E+02  0.56322039582E+01  0.28975248395E+03  0.29292527858E+03  0.47000000000E+01 0. -1.
          5    1    5    5  503    0  0.12662884622E+02  0.17573672511E+02  0.58296051903E+03  0.58338172697E+03  0.47000000000E+01 0.  1.
         -5    1    5    5    0  503  0.15816635833E+02  0.12415173054E+02  0.83225752377E+01  0.22263372377E+02  0.47000000000E+01 0.  1.
<mgrwt>
<rscale>  0 0.27474774E+03</rscale>
<asrwt>0</asrwt>
<pdfrwt beam="1">  1        1 0.14176527E+00 0.27474774E+03</pdfrwt>
<pdfrwt beam="2">  1       -1 0.31507336E-02 0.27474774E+03</pdfrwt>
<totfact> 0.64361688E+03</totfact>
</mgrwt>
</event>
<event>
 9    1  0.2031653E-002  0.2753173E+03  0.7818608E-02  0.1098274E+00
         -1   -1    0    0    0  501 -0.00000000000E+00  0.00000000000E+00  0.23568226223E+03  0.23568226223E+03  0.00000000000E+00 0.  1.
          1   -1    0    0  501    0  0.00000000000E+00 -0.00000000000E+00 -0.80404428603E+02  0.80404428603E+02  0.00000000000E+00 0.  1.
         36    2    1    2    0    0 -0.71054273576E-14  0.00000000000E+00  0.15527783362E+03  0.31608669083E+03  0.27531725428E+03 0.  0.
         25    2    3    3    0    0  0.48213751705E+02  0.21521623458E+02  0.29655604948E+02  0.13404072375E+03  0.11958141407E+03 0.  0.
         25    2    3    3    0    0 -0.48213751705E+02 -0.21521623458E+02  0.12562222868E+03  0.18204596708E+03  0.12071472015E+03 0.  0.
          5    1    4    4  502    0 -0.19801124149E+02 -0.35933671630E+02  0.13371817548E+02  0.43407473768E+02  0.47000000000E+01 0. -1.
         -5    1    4    4    0  502  0.68014875854E+02  0.57455295087E+02  0.16283787400E+02  0.90633249987E+02  0.47000000000E+01 0. -1.
          5    1    5    5  503    0 -0.56628404124E+02  0.27185972972E+02  0.21274098683E+02  0.66487070584E+02  0.47000000000E+01 0.  1.
         -5    1    5    5    0  503  0.84146524183E+01 -0.48707596430E+02  0.10434812999E+03  0.11555889649E+03  0.47000000000E+01 0.  1.
<mgrwt>
<rscale>  0 0.27531725E+03</rscale>
<asrwt>0</asrwt>
<pdfrwt beam="1">  1        1 0.12369912E-01 0.27531725E+03</pdfrwt>
<pdfrwt beam="2">  1       -1 0.36258809E-01 0.27531725E+03</pdfrwt>
<totfact> 0.35236945E+03</totfact>
</mgrwt>
</event>
<event>
 9    1  0.2031653E-002  0.2747983E+03  0.7818608E-02  0.1098564E+00
         -1   -1    0    0    0  501 -0.00000000000E+00  0.00000000000E+00  0.94319839439E+02  0.94319839439E+02  0.00000000000E+00 0. -1.
          1   -1    0    0  501    0  0.00000000000E+00 -0.00000000000E+00 -0.20015431218E+03  0.20015431218E+03  0.00000000000E+00 0. -1.
         36    2    1    2    0    0  0.35527136788E-14  0.00000000000E+00 -0.10583447274E+03  0.29447415162E+03  0.27479827210E+03 0.  0.
         25    2    3    3    0    0  0.20881743459E+02  0.68873619184E+02 -0.52838552608E+02  0.14600380948E+03  0.11552305879E+03 0.  0.
         25    2    3    3    0    0 -0.20881743459E+02 -0.68873619184E+02 -0.52995920131E+02  0.14847034213E+03  0.11855484939E+03 0.  0.
          5    1    4    4  502    0 -0.96986960814E+01 -0.29198264968E+02 -0.23696085281E+02  0.39117743295E+02  0.47000000000E+01 0. -1.
         -5    1    4    4    0  502  0.30580439540E+02  0.98071884152E+02 -0.29142467328E+02  0.10688606619E+03  0.47000000000E+01 0. -1.
          5    1    5    5  503    0  0.27967377356E+02 -0.51966012658E+02 -0.71983667046E+02  0.93200745647E+02  0.47000000000E+01 0. -1.
         -5    1    5    5    0  503 -0.48849120815E+02 -0.16907606526E+02  0.18987746915E+02  0.55269596486E+02  0.47000000000E+01 0. -1.
<mgrwt>
<rscale>  0 0.27479827E+03</rscale>
<asrwt>0</asrwt>
<pdfrwt beam="1">  1        1 0.30792971E-01 0.27479827E+03</pdfrwt>
<pdfrwt beam="2">  1       -1 0.14510745E-01 0.27479827E+03</pdfrwt>
<totfact> 0.49314729E+03</totfact>
</mgrwt>
</event>
<event>
 9    1  0.2031653E-002  0.2745425E+03  0.7818608E-02  0.1098708E+00
         -1   -1    0    0    0  501 -0.00000000000E+00  0.00000000000E+00  0.11139952736E+03  0.11139952736E+03  0.00000000000E+00 0. -1.
          1   -1    0    0  501    0  0.00000000000E+00 -0.00000000000E+00 -0.16915145367E+03  0.16915145367E+03  0.00000000000E+00 0. -1.
         36    2    1    2    0    0  0.14210854715E-13  0.00000000000E+00 -0.57751926305E+02  0.28055098103E+03  0.27454247023E+03 0.  0.
         25    2    3    3    0    0 -0.43658535666E+02 -0.29598494595E+02 -0.35212818194E+01  0.13460181999E+03  0.12378655783E+03 0.  0.
         25    2    3    3    0    0  0.43658535666E+02  0.29598494595E+02 -0.54230644486E+02  0.14594916103E+03  0.12481208350E+03 0.  0.
          5    1    4    4  502    0  0.36217377156E+02 -0.39609168229E+02 -0.30468606681E+01  0.53962560872E+02  0.47000000000E+01 0.  1.
         -5    1    4    4    0  502 -0.79875912822E+02  0.10010673635E+02 -0.47442115130E+00  0.80639259119E+02  0.47000000000E+01 0.  1.
          5    1    5    5  503    0  0.76269029499E+02  0.48614167481E+02 -0.15911967186E+02  0.91954243188E+02  0.47000000000E+01 0.  1.
         -5    1    5    5    0  503 -0.32610493833E+02 -0.19015672886E+02 -0.38318677300E+02  0.53994917847E+02  0.47000000000E+01 0.  1.
<mgrwt>
<rscale>  0 0.27454247E+03</rscale>
<asrwt>0</asrwt>
<pdfrwt beam="1">  1        1 0.26023301E-01 0.27454247E+03</pdfrwt>
<pdfrwt beam="2">  1       -1 0.17138389E-01 0.27454247E+03</pdfrwt>
<totfact> 0.46804620E+03</totfact>
</mgrwt>
</event>
<event>
 9    1  0.2031653E-002  0.2748965E+03  0.7818608E-02  0.1098509E+00
         -2   -1    0    0    0  501 -0.00000000000E+00  0.00000000000E+00  0.14612406451E+04  0.14612406451E+04  0.00000000000E+00 0.  1.
          2   -1    0    0  501    0  0.00000000000E+00 -0.00000000000E+00 -0.12928754457E+02  0.12928754457E+02  0.00000000000E+00 0.  1.
         36    2    1    2    0    0  0.00000000000E+00  0.00000000000E+00  0.14483118907E+04  0.14741693996E+04  0.27489650055E+03 0.  0.
         25    2    3    3    0    0  0.74119206673E+02 -0.35983932648E+02  0.71828140455E+03  0.72980800907E+03  0.99514088311E+02 0.  0.
         25    2    3    3    0    0 -0.74119206673E+02  0.35983932648E+02  0.73003048613E+03  0.74436139052E+03  0.11975336663E+03 0.  0.
          5    1    4    4  502    0  0.47062380984E+02  0.15800575194E+01  0.10997504081E+03  0.11972453335E+03  0.47000000000E+01 0. -1.
         -5    1    4    4    0  502  0.27056825689E+02 -0.37563990167E+02  0.60830636375E+03  0.61008347572E+03  0.47000000000E+01 0. -1.
          5    1    5    5  503    0  0.15643578955E+02  0.50080626833E+02  0.21523041618E+03  0.22158297046E+03  0.47000000000E+01 0. -1.
         -5    1    5    5    0  503 -0.89762785628E+02 -0.14096694185E+02  0.51480006995E+03  0.52277842007E+03  0.47000000000E+01 0. -1.
<mgrwt>
<rscale>  0 0.27489650E+03</rscale>
<asrwt>0</asrwt>
<pdfrwt beam="1">  1        2 0.19890403E-02 0.27489650E+03</pdfrwt>
<pdfrwt beam="2">  1       -2 0.22480612E+00 0.27489650E+03</pdfrwt>
<totfact> 0.55919688E+02</totfact>
</mgrwt>
</event>
<event>
 9    1  0.2031653E-002  0.2754976E+03  0.7818608E-02  0.1098174E+00
         -2   -1    0    0    0  501 -0.00000000000E+00  0.00000000000E+00  0.13351665682E+02  0.13351665682E+02  0.00000000000E+00 0.  1.
          2   -1    0    0  501    0  0.00000000000E+00 -0.00000000000E+00 -0.14211509481E+04  0.14211509481E+04  0.00000000000E+00 0.  1.
         36    2    1    2    0    0  0.00000000000E+00 -0.71054273576E-14 -0.14077992824E+04  0.14345026137E+04  0.27549760320E+03 0.  0.
         25    2    3    3    0    0  0.26362045520E+02  0.62175794144E+02 -0.34227715884E+03  0.35898739426E+03  0.84602062323E+02 0.  0.
         25    2    3    3    0    0 -0.26362045520E+02 -0.62175794144E+02 -0.10655221235E+04  0.10755152195E+04  0.12974900684E+03 0.  0.
          5    1    4    4  502    0  0.10875051964E+02 -0.14547783112E+02 -0.20479367067E+02  0.27774074677E+02  0.47000000000E+01 0. -1.
         -5    1    4    4    0  502  0.15486993557E+02  0.76723577256E+02 -0.32179779178E+03  0.33121331958E+03  0.47000000000E+01 0. -1.
          5    1    5    5  503    0  0.88342399482E+01 -0.94310589865E+02 -0.81101868418E+03  0.81654511648E+03  0.47000000000E+01 0.  1.
         -5    1    5    5    0  503 -0.35196285469E+02  0.32134795720E+02 -0.25450343935E+03  0.25897010300E+03  0.47000000000E+01 0.  1.
<mgrwt>
<rscale>  0 0.27549760E+03</rscale>
<asrwt>0</asrwt>
<pdfrwt beam="1">  1        2 0.21863844E+00 0.27549760E+03</pdfrwt>
<pdfrwt beam="2">  1       -2 0.20541040E-02 0.27549760E+03</pdfrwt>
<totfact> 0.11183335E+04</totfact>
</mgrwt>
</event>
<event>
 9    1  0.2031653E-002  0.2754594E+03  0.7818608E-02  0.1098195E+00
          1   -1    0    0  501    0  0.00000000000E+00  0.00000000000E+00  0.30684932875E+03  0.30684932875E+03  0.00000000000E+00 0.  1.
         -1   -1    0    0    0  501 -0.00000000000E+00 -0.00000000000E+00 -0.61820134212E+02  0.61820134212E+02  0.00000000000E+00 0.  1.
         36    2    1    2    0    0 -0.71054273576E-14  0.00000000000E+00  0.24502919454E+03  0.36866946296E+03  0.27545937404E+03 0.  0.
         25    2    3    3    0    0  0.30119643655E+02 -0.15597246923E+02  0.18148365937E+03  0.22283908419E+03  0.12478169650E+03 0.  0.
         25    2    3    3    0    0 -0.30119643655E+02  0.15597246923E+02  0.63545535169E+02  0.14583037877E+03  0.12679904292E+03 0.  0.
          5    1    4    4  502    0 -0.28637881593E+02 -0.52043821605E+02  0.75018603822E+02  0.95804846166E+02  0.47000000000E+01 0.  1.
         -5    1    4    4    0  502  0.58757525249E+02  0.36446574682E+02  0.10646505554E+03  0.12703423803E+03  0.47000000000E+01 0.  1.
          5    1    5    5  503    0 -0.57935628588E+02  0.56284317105E+02  0.31345992467E+02  0.86770517202E+02  0.47000000000E+01 0.  1.
         -5    1    5    5    0  503  0.27815984933E+02 -0.40687070181E+02  0.32199542703E+02  0.59059861564E+02  0.47000000000E+01 0.  1.
<mgrwt>
<rscale>  0 0.27545937E+03</rscale>
<asrwt>0</asrwt>
<pdfrwt beam="1">  1        1 0.47207588E-01 0.27545937E+03</pdfrwt>
<pdfrwt beam="2">  1       -1 0.95107901E-02 0.27545937E+03</pdfrwt>
<totfact> 0.55743411E+03</totfact>
</mgrwt>
</event>
<event>
 9    1  0.2031653E-002  0.2755708E+03  0.7818608E-02  0.1098133E+00
         -2   -1    0    0    0  501 -0.00000000000E+00  0.00000000000E+00  0.22511599654E+03  0.22511599654E+03  0.00000000000E+00 0. -1.
          2   -1    0    0  501    0  0.00000000000E+00 -0.00000000000E+00 -0.84333471702E+02  0.84333471702E+02  0.00000000000E+00 0. -1.
         36    2    1    2    0    0 -0.26645352591E-14  0.00000000000E+00  0.14078252484E+03  0.30944946825E+03  0.27557077874E+03 0.  0.
         25    2    3    3    0    0 -0.29166613031E+01  0.28905874972E+02  0.13071224845E+02  0.12981843468E+03  0.12584876854E+03 0.  0.
         25    2    3    3    0    0  0.29166613031E+01 -0.28905874972E+02  0.12771130000E+03  0.17963103356E+03  0.12293524942E+03 0.  0.
          5    1    4    4  502    0  0.35035722348E+02 -0.33853260273E+02 -0.14930611146E+02  0.51171849886E+02  0.47000000000E+01 0. -1.
         -5    1    4    4    0  502 -0.37952383651E+02  0.62759135245E+02  0.28001835992E+02  0.78646584798E+02  0.47000000000E+01 0. -1.
          5    1    5    5  503    0 -0.68223875644E+01  0.34017339447E+02  0.10688699704E+03  0.11247508387E+03  0.47000000000E+01 0. -1.
         -5    1    5    5    0  503  0.97390488674E+01 -0.62923214419E+02  0.20824302958E+02  0.67155949695E+02  0.47000000000E+01 0. -1.
<mgrwt>
<rscale>  0 0.27557078E+03</rscale>
<asrwt>0</asrwt>
<pdfrwt beam="1">  1        2 0.12974380E-01 0.27557078E+03</pdfrwt>
<pdfrwt beam="2">  1       -2 0.34633230E-01 0.27557078E+03</pdfrwt>
<totfact> 0.36206762E+03</totfact>
</mgrwt>
</event>
<event>
 9    1  0.2031653E-002  0.2747738E+03  0.7818608E-02  0.1098578E+00
         -1   -1    0    0    0  501 -0.00000000000E+00  0.00000000000E+00  0.10332413441E+03  0.10332413441E+03  0.00000000000E+00 0.  1.
          1   -1    0    0  501    0  0.00000000000E+00 -0.00000000000E+00 -0.18267914612E+03  0.18267914612E+03  0.00000000000E+00 0.  1.
         36    2    1    2    0    0  0.71054273576E-14  0.00000000000E+00 -0.79355011719E+02  0.28600328053E+03  0.27477383170E+03 0.  0.
         25    2    3    3    0    0 -0.61989746415E+02 -0.18108288033E+01 -0.25186076096E+02  0.13754966306E+03  0.12016473533E+03 0.  0.
         25    2    3    3    0    0  0.61989746415E+02  0.18108288033E+01 -0.54168935624E+02  0.14845361747E+03  0.12352406726E+03 0.  0.
          5    1    4    4  502    0 -0.82235471896E+02 -0.39106615036E+02 -0.26100837791E+02  0.94843786886E+02  0.47000000000E+01 0.  1.
         -5    1    4    4    0  502  0.20245725481E+02  0.37295786232E+02  0.91476169514E+00  0.42705876175E+02  0.47000000000E+01 0.  1.
          5    1    5    5  503    0  0.24195601334E+02  0.27416857252E+02  0.33297654161E+02  0.49678314767E+02  0.47000000000E+01 0.  1.
         -5    1    5    5    0  503  0.37794145081E+02 -0.25606028449E+02 -0.87466589785E+02  0.98775302702E+02  0.47000000000E+01 0.  1.
<mgrwt>
<rscale>  0 0.27477383E+03</rscale>
<asrwt>0</asrwt>
<pdfrwt beam="1">  1        1 0.28104484E-01 0.27477383E+03</pdfrwt>
<pdfrwt beam="2">  1       -1 0.15896021E-01 0.27477383E+03</pdfrwt>
<totfact> 0.47883360E+03</totfact>
</mgrwt>
</event>
<event>
 9    1  0.2031653E-002  0.2748730E+03  0.7818608E-02  0.1098523E+00
          2   -1    0    0  501    0  0.00000000000E+00  0.00000000000E+00  0.32892535715E+02  0.32892535715E+02  0.00000000000E+00 0. -1.
         -2   -1    0    0    0  501 -0.00000000000E+00 -0.00000000000E+00 -0.57425782421E+03  0.57425782421E+03  0.00000000000E+00 0. -1.
         36    2    1    2    0    0  0.71054273576E-14  0.00000000000E+00 -0.54136528850E+03  0.60715035993E+03  0.27487303245E+03 0.  0.
         25    2    3    3    0    0  0.82813462287E+00 -0.42340413597E+02 -0.31023601909E+03  0.34170838921E+03  0.13683873460E+03 0.  0.
         25    2    3    3    0    0 -0.82813462287E+00  0.42340413597E+02 -0.23112926941E+03  0.26544197071E+03  0.12347187619E+03 0.  0.
          5    1    4    4  502    0  0.55836066327E+02 -0.46136826716E+02 -0.95477469727E+02  0.11993460847E+03  0.47000000000E+01 0. -1.
         -5    1    4    4    0  502 -0.55007931704E+02  0.37964131185E+01 -0.21475854936E+03  0.22177378075E+03  0.47000000000E+01 0. -1.
          5    1    5    5  503    0 -0.53998713632E+02 -0.34102257765E+01 -0.14126969289E+03  0.15134961792E+03  0.47000000000E+01 0.  1.
         -5    1    5    5    0  503  0.53170579010E+02  0.45750639374E+02 -0.89859576517E+02  0.11409235280E+03  0.47000000000E+01 0.  1.
<mgrwt>
<rscale>  0 0.27487303E+03</rscale>
<asrwt>0</asrwt>
<pdfrwt beam="1">  1        2 0.50603904E-02 0.27487303E+03</pdfrwt>
<pdfrwt beam="2">  1       -2 0.88347353E-01 0.27487303E+03</pdfrwt>
<totfact> 0.17616428E+03</totfact>
</mgrwt>
</event>
<event>
 9    1  0.2031653E-002  0.2756257E+03  0.7818608E-02  0.1098102E+00
         -2   -1    0    0    0  501 -0.00000000000E+00  0.00000000000E+00  0.15697612650E+02  0.15697612650E+02  0.00000000000E+00 0. -1.
          2   -1    0    0  501    0  0.00000000000E+00 -0.00000000000E+00 -0.12098897368E+04  0.12098897368E+04  0.00000000000E+00 0. -1.
         36    2    1    2    0    0 -0.71054273576E-14  0.00000000000E+00 -0.11941921241E+04  0.12255873494E+04  0.27562569139E+03 0.  0.
         25    2    3    3    0    0 -0.18837323202E+02 -0.54340682041E+02 -0.70350562854E+03  0.71622710912E+03  0.12146336069E+03 0.  0.
         25    2    3    3    0    0  0.18837323202E+02  0.54340682041E+02 -0.49068649561E+03  0.50936024032E+03  0.12396315170E+03 0.  0.
          5    1    4    4  502    0  0.14546787265E+02  0.19637095010E+02 -0.35855500854E+02  0.43645520522E+02  0.47000000000E+01 0. -1.
         -5    1    4    4    0  502 -0.33384110466E+02 -0.73977777051E+02 -0.66765012768E+03  0.67258158860E+03  0.47000000000E+01 0. -1.
          5    1    5    5  503    0  0.68401957849E+02  0.47687585464E+02 -0.25313851647E+03  0.26655980973E+03  0.47000000000E+01 0. -1.
         -5    1    5    5    0  503 -0.49564634647E+02  0.66530965774E+01 -0.23754797914E+03  0.24280043059E+03  0.47000000000E+01 0. -1.
<mgrwt>
<rscale>  0 0.27562569E+03</rscale>
<asrwt>0</asrwt>
<pdfrwt beam="1">  1        2 0.18613689E+00 0.27562569E+03</pdfrwt>
<pdfrwt beam="2">  1       -2 0.24150172E-02 0.27562569E+03</pdfrwt>
<totfact> 0.11524117E+04</totfact>
</mgrwt>
</event>
<event>
 9    1  0.2031653E-002  0.2767465E+03  0.7818608E-02  0.1097479E+00
          1   -1    0    0  501    0  0.00000000000E+00  0.00000000000E+00  0.39362298321E+03  0.39362298321E+03  0.00000000000E+00 0.  1.
         -1   -1    0    0    0  501 -0.00000000000E+00 -0.00000000000E+00 -0.48643380677E+02  0.48643380677E+02  0.00000000000E+00 0.  1.
         36    2    1    2    0    0 -0.71054273576E-14  0.35527136788E-14  0.34497960253E+03  0.44226636389E+03  0.27674647326E+03 0.  0.
         25    2    3    3    0    0  0.40199802989E+02 -0.26203184487E+02  0.14328945547E+03  0.19970003464E+03  0.13055881720E+03 0.  0.
         25    2    3    3    0    0 -0.40199802989E+02  0.26203184487E+02  0.20169014707E+03  0.24256632925E+03  0.12592409470E+03 0.  0.
          5    1    4    4  502    0 -0.10279959788E+02 -0.39664423754E+02 -0.58024254930E+01  0.41649756621E+02  0.47000000000E+01 0. -1.
         -5    1    4    4    0  502  0.50479762777E+02  0.13461239267E+02  0.14909188096E+03  0.15805027801E+03  0.47000000000E+01 0. -1.
          5    1    5    5  503    0 -0.43191088572E+02 -0.26278511757E+02  0.17729852557E+03  0.18442583193E+03  0.47000000000E+01 0. -1.
         -5    1    5    5    0  503  0.29912855833E+01  0.52481696244E+02  0.24391621498E+02  0.58140497326E+02  0.47000000000E+01 0. -1.
<mgrwt>
<rscale>  0 0.27674647E+03</rscale>
<asrwt>0</asrwt>
<pdfrwt beam="1">  1        1 0.60557380E-01 0.27674647E+03</pdfrwt>
<pdfrwt beam="2">  1       -1 0.74835973E-02 0.27674647E+03</pdfrwt>
<totfact> 0.58688233E+03</totfact>
</mgrwt>
</event>
<event>
 9    1  0.2031653E-002  0.2748183E+03  0.7818608E-02  0.1098553E+00
         -1   -1    0    0    0  501 -0.00000000000E+00  0.00000000000E+00  0.10888985032E+03  0.10888985032E+03  0.00000000000E+00 0. -1.
          1   -1    0    0  501    0  0.00000000000E+00 -0.00000000000E+00 -0.17339791721E+03  0.17339791721E+03  0.00000000000E+00 0. -1.
         36    2    1    2    0    0  0.71054273576E-14  0.35527136788E-14 -0.64508066892E+02  0.28228776753E+03  0.27481829089E+03 0.  0.
         25    2    3    3    0    0  0.47399975724E+02 -0.23622237614E+02 -0.14346567137E+01  0.13015347269E+03  0.11888271702E+03 0.  0.
         25    2    3    3    0    0 -0.47399975724E+02  0.23622237614E+02 -0.63073410179E+02  0.15213429484E+03  0.12791333311E+03 0.  0.
          5    1    4    4  502    0  0.46494485127E+02  0.27784311843E+02 -0.38481633787E+02  0.66608042088E+02  0.47000000000E+01 0.  1.
         -5    1    4    4    0  502  0.90549059732E+00 -0.51406549457E+02  0.37046977073E+02  0.63545430603E+02  0.47000000000E+01 0.  1.
          5    1    5    5  503    0 -0.53723564740E+02  0.28904672779E+02  0.23128583048E+02  0.65411947461E+02  0.47000000000E+01 0.  1.
         -5    1    5    5    0  503  0.63235890160E+01 -0.52824351652E+01 -0.86201993227E+02  0.86722347383E+02  0.47000000000E+01 0.  1.
<mgrwt>
<rscale>  0 0.27481829E+03</rscale>
<asrwt>0</asrwt>
<pdfrwt beam="1">  1        1 0.26676602E-01 0.27481829E+03</pdfrwt>
<pdfrwt beam="2">  1       -1 0.16752285E-01 0.27481829E+03</pdfrwt>
<totfact> 0.47041760E+03</totfact>
</mgrwt>
</event>
<event>
 9    1  0.2031653E-002  0.2750752E+03  0.7818608E-02  0.1098410E+00
         -1   -1    0    0    0  501 -0.00000000000E+00  0.00000000000E+00  0.19113270907E+02  0.19113270907E+02  0.00000000000E+00 0.  1.
          1   -1    0    0  501    0  0.00000000000E+00 -0.00000000000E+00 -0.98970973348E+03  0.98970973348E+03  0.00000000000E+00 0.  1.
         36    2    1    2    0    0 -0.71054273576E-14  0.00000000000E+00 -0.97059646257E+03  0.10088230044E+04  0.27507519157E+03 0.  0.
         25    2    3    3    0    0  0.54600856989E+02 -0.20244142811E+02 -0.57040022317E+03  0.58621291697E+03  0.12205773437E+03 0.  0.
         25    2    3    3    0    0 -0.54600856989E+02  0.20244142811E+02 -0.40019623940E+03  0.42261008742E+03  0.12268323870E+03 0.  0.
          5    1    4    4  502    0  0.64742461985E+02 -0.49401230486E+02 -0.52382586086E+03  0.53013931231E+03  0.47000000000E+01 0. -1.
         -5    1    4    4    0  502 -0.10141604996E+02  0.29157087675E+02 -0.46574362314E+02  0.56073604651E+02  0.47000000000E+01 0. -1.
          5    1    5    5  503    0  0.23829965333E+02  0.19880827282E+02 -0.26007903575E+03  0.26196623710E+03  0.47000000000E+01 0. -1.
         -5    1    5    5    0  503 -0.78430822322E+02  0.36331552847E+00 -0.14011720365E+03  0.16064385032E+03  0.47000000000E+01 0. -1.
<mgrwt>
<rscale>  0 0.27507519E+03</rscale>
<asrwt>0</asrwt>
<pdfrwt beam="1">  1        1 0.15226310E+00 0.27507519E+03</pdfrwt>
<pdfrwt beam="2">  1       -1 0.29405020E-02 0.27507519E+03</pdfrwt>
<totfact> 0.63209217E+03</totfact>
</mgrwt>
</event>
<event>
 9    1  0.2031653E-002  0.2756763E+03  0.7818608E-02  0.1098074E+00
         -2   -1    0    0    0  501 -0.00000000000E+00  0.00000000000E+00  0.71359323858E+02  0.71359323858E+02  0.00000000000E+00 0. -1.
          2   -1    0    0  501    0  0.00000000000E+00 -0.00000000000E+00 -0.26624900573E+03  0.26624900573E+03  0.00000000000E+00 0. -1.
         36    2    1    2    0    0  0.00000000000E+00  0.00000000000E+00 -0.19488968187E+03  0.33760832958E+03  0.27567625234E+03 0.  0.
         25    2    3    3    0    0 -0.54589750846E+02 -0.18146908919E+02 -0.71986843588E+02  0.15591196224E+03  0.12576598555E+03 0.  0.
         25    2    3    3    0    0  0.54589750846E+02  0.18146908919E+02 -0.12290283828E+03  0.18169636734E+03  0.12082678116E+03 0.  0.
          5    1    4    4  502    0  0.32957959478E+01 -0.63963171342E+02 -0.30421307046E+02  0.71061209401E+02  0.47000000000E+01 0. -1.
         -5    1    4    4    0  502 -0.57885546794E+02  0.45816262423E+02 -0.41565536542E+02  0.84850752843E+02  0.47000000000E+01 0. -1.
          5    1    5    5  503    0 -0.25430257880E+02  0.31356060351E+02 -0.87316439598E+01  0.41572011532E+02  0.47000000000E+01 0.  1.
         -5    1    5    5    0  503  0.80020008726E+02 -0.13209151432E+02 -0.11417119432E+03  0.14012435581E+03  0.47000000000E+01 0.  1.
<mgrwt>
<rscale>  0 0.27567625E+03</rscale>
<asrwt>0</asrwt>
<pdfrwt beam="1">  1        2 0.40961386E-01 0.27567625E+03</pdfrwt>
<pdfrwt beam="2">  1       -2 0.10978357E-01 0.27567625E+03</pdfrwt>
<totfact> 0.70579683E+03</totfact>
</mgrwt>
</event>
<event>
 9    1  0.2031653E-002  0.2751909E+03  0.7818608E-02  0.1098345E+00
          2   -1    0    0  501    0  0.00000000000E+00  0.00000000000E+00  0.30514055229E+03  0.30514055229E+03  0.00000000000E+00 0. -1.
         -2   -1    0    0    0  501 -0.00000000000E+00 -0.00000000000E+00 -0.62045208625E+02  0.62045208625E+02  0.00000000000E+00 0. -1.
         36    2    1    2    0    0  0.71054273576E-14 -0.14210854715E-13  0.24309534367E+03  0.36718576092E+03  0.27519090993E+03 0.  0.
         25    2    3    3    0    0 -0.24352889714E+02  0.47656730294E+02  0.12355780666E+03  0.18470600548E+03  0.12643397365E+03 0.  0.
         25    2    3    3    0    0  0.24352889714E+02 -0.47656730294E+02  0.11953753701E+03  0.18247975544E+03  0.12706459464E+03 0.  0.
          5    1    4    4  502    0  0.45654893036E+02  0.33308908964E+02  0.22872704398E+02  0.61148207505E+02  0.47000000000E+01 0.  1.
         -5    1    4    4    0  502 -0.70007782750E+02  0.14347821330E+02  0.10068510226E+03  0.12355779797E+03  0.47000000000E+01 0.  1.
          5    1    5    5  503    0  0.30965437181E+01 -0.90021052068E+02  0.80508872972E+02  0.12090139381E+03  0.47000000000E+01 0. -1.
         -5    1    5    5    0  503  0.21256345995E+02  0.42364321774E+02  0.39028664038E+02  0.61578361630E+02  0.47000000000E+01 0. -1.
<mgrwt>
<rscale>  0 0.27519091E+03</rscale>
<asrwt>0</asrwt>
<pdfrwt beam="1">  1        2 0.46944700E-01 0.27519091E+03</pdfrwt>
<pdfrwt beam="2">  1       -2 0.95454169E-02 0.27519091E+03</pdfrwt>
<totfact> 0.76153447E+03</totfact>
</mgrwt>
</event>
<event>
 9    1  0.2031653E-002  0.2751581E+03  0.7818608E-02  0.1098363E+00
          4   -1    0    0  501    0  0.00000000000E+00  0.00000000000E+00  0.28404744224E+02  0.28404744224E+02  0.00000000000E+00 0. -1.
         -4   -1    0    0    0  501 -0.00000000000E+00 -0.00000000000E+00 -0.66636743527E+03  0.66636743527E+03  0.00000000000E+00 0. -1.
         36    2    1    2    0    0 -0.71054273576E-14  0.35527136788E-14 -0.63796269104E+03  0.69477217949E+03  0.27515811133E+03 0.  0.
         25    2    3    3    0    0  0.48423756865E+02  0.19123418999E+02 -0.26930401161E+03  0.30181639840E+03  0.12592824262E+03 0.  0.
         25    2    3    3    0    0 -0.48423756865E+02 -0.19123418999E+02 -0.36865867944E+03  0.39295578110E+03  0.12567600642E+03 0.  0.
          5    1    4    4  502    0 -0.27686938276E+02 -0.25134870906E+02 -0.14231169549E+03  0.14721765166E+03  0.47000000000E+01 0. -1.
         -5    1    4    4    0  502  0.76110695141E+02  0.44258289905E+02 -0.12699231612E+03  0.15459874674E+03  0.47000000000E+01 0. -1.
          5    1    5    5  503    0 -0.29927649302E+02  0.13368133977E+02 -0.34878746105E+03  0.35035575375E+03  0.47000000000E+01 0.  1.
         -5    1    5    5    0  503 -0.18496107563E+02 -0.32491552976E+02 -0.19871218386E+02  0.42600027347E+02  0.47000000000E+01 0.  1.
<mgrwt>
<rscale>  0 0.27515811E+03</rscale>
<asrwt>0</asrwt>
<pdfrwt beam="1">  1        4 0.43699611E-02 0.27515811E+03</pdfrwt>
<pdfrwt beam="2">  1       -4 0.10251806E+00 0.27515811E+03</pdfrwt>
<totfact> 0.44760556E+02</totfact>
</mgrwt>
</event>
<event>
 9    1  0.2031653E-002  0.2750204E+03  0.7818608E-02  0.1098440E+00
          4   -1    0    0  501    0  0.00000000000E+00  0.00000000000E+00  0.58118726170E+02  0.58118726170E+02  0.00000000000E+00 0.  1.
         -4   -1    0    0    0  501 -0.00000000000E+00 -0.00000000000E+00 -0.32535226834E+03  0.32535226834E+03  0.00000000000E+00 0.  1.
         36    2    1    2    0    0  0.00000000000E+00  0.71054273576E-14 -0.26723354217E+03  0.38347099451E+03  0.27502043119E+03 0.  0.
         25    2    3    3    0    0 -0.27337603872E+02 -0.44251928600E+02 -0.16628647010E+03  0.21362663212E+03  0.12361055798E+03 0.  0.
         25    2    3    3    0    0  0.27337603872E+02  0.44251928600E+02 -0.10094707207E+03  0.16984436238E+03  0.12629813263E+03 0.  0.
          5    1    4    4  502    0 -0.17019714816E+02 -0.77404420122E+02 -0.54041092474E+02  0.96039807489E+02  0.47000000000E+01 0. -1.
         -5    1    4    4    0  502 -0.10317889057E+02  0.33152491522E+02 -0.11224537763E+03  0.11758682463E+03  0.47000000000E+01 0. -1.
          5    1    5    5  503    0  0.19276385101E+02  0.37587110825E+02  0.20966595446E+02  0.47392594857E+02  0.47000000000E+01 0. -1.
         -5    1    5    5    0  503  0.80612187710E+01  0.66648177753E+01 -0.12191366751E+03  0.12245176753E+03  0.47000000000E+01 0. -1.
<mgrwt>
<rscale>  0 0.27502043E+03</rscale>
<asrwt>0</asrwt>
<pdfrwt beam="1">  1        4 0.89413425E-02 0.27502043E+03</pdfrwt>
<pdfrwt beam="2">  1       -4 0.50054195E-01 0.27502043E+03</pdfrwt>
<totfact> 0.66495075E+02</totfact>
</mgrwt>
</event>
<event>
 9    1  0.2031653E-002  0.2754520E+03  0.7818608E-02  0.1098199E+00
          4   -1    0    0  501    0  0.00000000000E+00  0.00000000000E+00  0.16512513518E+03  0.16512513518E+03  0.00000000000E+00 0.  1.
         -4   -1    0    0    0  501 -0.00000000000E+00 -0.00000000000E+00 -0.11487320326E+03  0.11487320326E+03  0.00000000000E+00 0.  1.
         36    2    1    2    0    0 -0.71054273576E-14  0.00000000000E+00  0.50251931923E+02  0.27999833843E+03  0.27545201554E+03 0.  0.
         25    2    3    3    0    0 -0.58977258624E+02  0.17152911061E+01  0.11982849875E+02  0.13741102202E+03  0.12351899053E+03 0.  0.
         25    2    3    3    0    0  0.58977258624E+02 -0.17152911061E+01  0.38269082048E+02  0.14258731642E+03  0.12403773984E+03 0.  0.
          5    1    4    4  502    0 -0.34621633969E+02  0.21088654290E+02 -0.52002302895E+02  0.66103845462E+02  0.47000000000E+01 0.  1.
         -5    1    4    4    0  502 -0.24355624655E+02 -0.19373363184E+02  0.63985152771E+02  0.71307176557E+02  0.47000000000E+01 0.  1.
          5    1    5    5  503    0 -0.37002223040E+01  0.26877683284E+02  0.63386923615E+02  0.69109287286E+02  0.47000000000E+01 0. -1.
         -5    1    5    5    0  503  0.62677480928E+02 -0.28592974390E+02 -0.25117841567E+02  0.73478029131E+02  0.47000000000E+01 0. -1.
<mgrwt>
<rscale>  0 0.27545202E+03</rscale>
<asrwt>0</asrwt>
<pdfrwt beam="1">  1        4 0.25403867E-01 0.27545202E+03</pdfrwt>
<pdfrwt beam="2">  1       -4 0.17672800E-01 0.27545202E+03</pdfrwt>
<totfact> 0.76885728E+02</totfact>
</mgrwt>
</event>
<event>
 9    1  0.2031653E-002  0.2674945E+03  0.7818608E-02  0.1102722E+00
         -1   -1    0    0    0  501 -0.00000000000E+00  0.00000000000E+00  0.11315339352E+03  0.11315339352E+03  0.00000000000E+00 0. -1.
          1   -1    0    0  501    0  0.00000000000E+00 -0.00000000000E+00 -0.15808912984E+03  0.15808912984E+03  0.00000000000E+00 0. -1.
         36    2    1    2    0    0  0.00000000000E+00 -0.71054273576E-14 -0.44935736320E+02  0.27124252336E+03  0.26749445990E+03 0.  0.
         25    2    3    3    0    0 -0.42505988535E+02 -0.44805996144E+01 -0.67598413196E+01  0.13405812218E+03  0.12688203117E+03 0.  0.
         25    2    3    3    0    0  0.42505988535E+02  0.44805996144E+01 -0.38175895001E+02  0.13718440118E+03  0.12464078840E+03 0.  0.
          5    1    4    4  502    0 -0.21266046230E+02  0.50137863942E+02  0.32281898109E+02  0.63484337190E+02  0.47000000000E+01 0.  1.
         -5    1    4    4    0  502 -0.21239942305E+02 -0.54618463556E+02 -0.39041739429E+02  0.70573784991E+02  0.47000000000E+01 0.  1.
          5    1    5    5  503    0  0.10468344466E+02  0.61392485842E+02 -0.22471000412E+01  0.62496103977E+02  0.47000000000E+01 0.  1.
         -5    1    5    5    0  503  0.32037644069E+02 -0.56911886228E+02 -0.35928794960E+02  0.74688297200E+02  0.47000000000E+01 0.  1.
<mgrwt>
<rscale>  0 0.26749446E+03</rscale>
<asrwt>0</asrwt>
<pdfrwt beam="1">  1        1 0.24321405E-01 0.26749446E+03</pdfrwt>
<pdfrwt beam="2">  1       -1 0.17408214E-01 0.26749446E+03</pdfrwt>
<totfact> 0.49705198E+03</totfact>
</mgrwt>
</event>
<event>
 9    1  0.2031653E-002  0.2748327E+03  0.7818608E-02  0.1098545E+00
         -4   -1    0    0    0  501 -0.00000000000E+00  0.00000000000E+00  0.78044450070E+03  0.78044450070E+03  0.00000000000E+00 0.  1.
          4   -1    0    0  501    0  0.00000000000E+00 -0.00000000000E+00 -0.24195517361E+02  0.24195517361E+02  0.00000000000E+00 0.  1.
         36    2    1    2    0    0  0.00000000000E+00 -0.88817841970E-15  0.75624898334E+03  0.80464001806E+03  0.27483273798E+03 0.  0.
         25    2    3    3    0    0  0.36796176132E+02 -0.45490846460E+01  0.55718075888E+03  0.56468257707E+03  0.83912823999E+02 0.  0.
         25    2    3    3    0    0 -0.36796176132E+02  0.45490846460E+01  0.19906822446E+03  0.23995744099E+03  0.12875077766E+03 0.  0.
          5    1    4    4  502    0 -0.24348475784E+02 -0.59419877359E+00  0.26207907473E+03  0.26325032337E+03  0.47000000000E+01 0.  1.
         -5    1    4    4    0  502  0.61144651916E+02 -0.39548858724E+01  0.29510168415E+03  0.30143225370E+03  0.47000000000E+01 0.  1.
          5    1    5    5  503    0 -0.76545170470E+02 -0.13122461125E+02  0.73681103233E+02  0.10715576084E+03  0.47000000000E+01 0. -1.
         -5    1    5    5    0  503  0.39748994338E+02  0.17671545771E+02  0.12538712123E+03  0.13280168015E+03  0.47000000000E+01 0. -1.
<mgrwt>
<rscale>  0 0.27483274E+03</rscale>
<asrwt>0</asrwt>
<pdfrwt beam="1">  1        4 0.37223879E-02 0.27483274E+03</pdfrwt>
<pdfrwt beam="2">  1       -4 0.12006837E+00 0.27483274E+03</pdfrwt>
<totfact> 0.39646034E+02</totfact>
</mgrwt>
</event>
<event>
 9    1  0.2031653E-002  0.2748994E+03  0.7818608E-02  0.1098508E+00
          2   -1    0    0  501    0  0.00000000000E+00  0.00000000000E+00  0.60979786419E+03  0.60979786419E+03  0.00000000000E+00 0.  1.
         -2   -1    0    0    0  501 -0.00000000000E+00 -0.00000000000E+00 -0.30981446803E+02  0.30981446803E+02  0.00000000000E+00 0.  1.
         36    2    1    2    0    0  0.00000000000E+00  0.00000000000E+00  0.57881641739E+03  0.64077931099E+03  0.27489940043E+03 0.  0.
         25    2    3    3    0    0  0.60957944291E+01 -0.30007831367E+02  0.17182472696E+03  0.21381131249E+03  0.12350672817E+03 0.  0.
         25    2    3    3    0    0 -0.60957944291E+01  0.30007831367E+02  0.40699169043E+03  0.42696799850E+03  0.12538663011E+03 0.  0.
          5    1    4    4  502    0  0.79616275083E+01  0.36992779911E+02  0.11265710483E+02  0.39760024029E+02  0.47000000000E+01 0.  1.
         -5    1    4    4    0  502 -0.18658330792E+01 -0.67000611278E+02  0.16055901647E+03  0.17405128846E+03  0.47000000000E+01 0.  1.
          5    1    5    5  503    0 -0.38598064582E+02 -0.25295896308E+02  0.28793890068E+03  0.29165149320E+03  0.47000000000E+01 0.  1.
         -5    1    5    5    0  503  0.32502270153E+02  0.55303727675E+02  0.11905278975E+03  0.13531650530E+03  0.47000000000E+01 0.  1.
<mgrwt>
<rscale>  0 0.27489940E+03</rscale>
<asrwt>0</asrwt>
<pdfrwt beam="1">  1        2 0.93815047E-01 0.27489940E+03</pdfrwt>
<pdfrwt beam="2">  1       -2 0.47663769E-02 0.27489940E+03</pdfrwt>
<totfact> 0.10378154E+04</totfact>
</mgrwt>
</event>
<event>
 9    1  0.2031653E-002  0.2731503E+03  0.7818608E-02  0.1099490E+00
          2   -1    0    0  501    0  0.00000000000E+00  0.00000000000E+00  0.40206376936E+03  0.40206376936E+03  0.00000000000E+00 0. -1.
         -2   -1    0    0    0  501 -0.00000000000E+00 -0.00000000000E+00 -0.46392566876E+02  0.46392566876E+02  0.00000000000E+00 0. -1.
         36    2    1    2    0    0  0.00000000000E+00  0.35527136788E-14  0.35567120249E+03  0.44845633624E+03  0.27315029056E+03 0.  0.
         25    2    3    3    0    0 -0.36814533322E+02 -0.25165446678E+01  0.94696504626E+02  0.15765318526E+03  0.12052159962E+03 0.  0.
         25    2    3    3    0    0  0.36814533322E+02  0.25165446678E+01  0.26097469786E+03  0.29080315098E+03  0.12286999973E+03 0.  0.
          5    1    4    4  502    0 -0.50353006552E+02 -0.47589944255E+02  0.84314511336E+02  0.10923028374E+03  0.47000000000E+01 0.  1.
         -5    1    4    4    0  502  0.13538473230E+02  0.45073399587E+02  0.10381993290E+02  0.48422901528E+02  0.47000000000E+01 0.  1.
          5    1    5    5  503    0  0.43245795694E+02 -0.25986174044E+02  0.32012881016E+02  0.59936588471E+02  0.47000000000E+01 0. -1.
         -5    1    5    5    0  503 -0.64312623713E+01  0.28502718712E+02  0.22896181684E+03  0.23086656250E+03  0.47000000000E+01 0. -1.
<mgrwt>
<rscale>  0 0.27315029E+03</rscale>
<asrwt>0</asrwt>
<pdfrwt beam="1">  1        2 0.61855962E-01 0.27315029E+03</pdfrwt>
<pdfrwt beam="2">  1       -2 0.71373183E-02 0.27315029E+03</pdfrwt>
<totfact> 0.89113374E+03</totfact>
</mgrwt>
</event>
<event>
 9    1  0.2031653E-002  0.2771158E+03  0.7818608E-02  0.1097275E+00
         -2   -1    0    0    0  501 -0.00000000000E+00  0.00000000000E+00  0.13718613492E+03  0.13718613492E+03  0.00000000000E+00 0. -1.
          2   -1    0    0  501    0  0.00000000000E+00 -0.00000000000E+00 -0.13994342322E+03  0.13994342322E+03  0.00000000000E+00 0. -1.
         36    2    1    2    0    0  0.71054273576E-14  0.00000000000E+00 -0.27572882979E+01  0.27712955814E+03  0.27711584104E+03 0.  0.
         25    2    3    3    0    0  0.25198653327E+02 -0.50256890200E+02 -0.48000593162E+01  0.13732951420E+03  0.12520234726E+03 0.  0.
         25    2    3    3    0    0 -0.25198653327E+02  0.50256890200E+02  0.20427710183E+01  0.13980004394E+03  0.12798106199E+03 0.  0.
          5    1    4    4  502    0 -0.50947361944E+02 -0.24426796636E+02 -0.25588560455E+01  0.56753324371E+02  0.47000000000E+01 0. -1.
         -5    1    4    4    0  502  0.76146015271E+02 -0.25830093564E+02 -0.22412032707E+01  0.80576189828E+02  0.47000000000E+01 0. -1.
          5    1    5    5  503    0  0.38061913396E+02  0.36847877675E+02  0.38276252379E+02  0.65525848615E+02  0.47000000000E+01 0.  1.
         -5    1    5    5    0  503 -0.63260566723E+02  0.13409012525E+02 -0.36233481361E+02  0.74274195321E+02  0.47000000000E+01 0.  1.
<mgrwt>
<rscale>  0 0.27711584E+03</rscale>
<asrwt>0</asrwt>
<pdfrwt beam="1">  1        2 0.21529757E-01 0.27711584E+03</pdfrwt>
<pdfrwt beam="2">  1       -2 0.21105559E-01 0.27711584E+03</pdfrwt>
<totfact> 0.48531607E+03</totfact>
</mgrwt>
</event>
<event>
 9    1  0.2031653E-002  0.2763395E+03  0.7818608E-02  0.1097705E+00
          2   -1    0    0  501    0  0.00000000000E+00  0.00000000000E+00  0.71970837279E+03  0.71970837279E+03  0.00000000000E+00 0.  1.
         -2   -1    0    0    0  501 -0.00000000000E+00 -0.00000000000E+00 -0.26525860206E+02  0.26525860206E+02  0.00000000000E+00 0.  1.
         36    2    1    2    0    0  0.00000000000E+00  0.00000000000E+00  0.69318251259E+03  0.74623423300E+03  0.27633952802E+03 0.  0.
         25    2    3    3    0    0  0.38138785946E+02 -0.59295303547E+02  0.27254015600E+03  0.30509062806E+03  0.11760805534E+03 0.  0.
         25    2    3    3    0    0 -0.38138785946E+02  0.59295303547E+02  0.42064235658E+03  0.44114360494E+03  0.11268179982E+03 0.  0.
          5    1    4    4  502    0  0.65370983264E+02  0.58371961054E+01  0.14524412436E+03  0.15945339123E+03  0.47000000000E+01 0. -1.
         -5    1    4    4    0  502 -0.27232197318E+02 -0.65132499653E+02  0.12729603164E+03  0.14563723683E+03  0.47000000000E+01 0. -1.
          5    1    5    5  503    0  0.33132946707E+02  0.35820116679E+02  0.24864816240E+03  0.25343415631E+03  0.47000000000E+01 0. -1.
         -5    1    5    5    0  503 -0.71271732653E+02  0.23475186868E+02  0.17199419418E+03  0.18770944863E+03  0.47000000000E+01 0. -1.
<mgrwt>
<rscale>  0 0.27633953E+03</rscale>
<asrwt>0</asrwt>
<pdfrwt beam="1">  1        2 0.11072435E+00 0.27633953E+03</pdfrwt>
<pdfrwt beam="2">  1       -2 0.40809021E-02 0.27633953E+03</pdfrwt>
<totfact> 0.10768319E+04</totfact>
</mgrwt>
</event>
<event>
 9    1  0.2031653E-002  0.2741552E+03  0.7818608E-02  0.1098925E+00
          2   -1    0    0  501    0  0.00000000000E+00  0.00000000000E+00  0.97561717067E+03  0.97561717067E+03  0.00000000000E+00 0.  1.
         -2   -1    0    0    0  501 -0.00000000000E+00 -0.00000000000E+00 -0.19259879758E+02  0.19259879758E+02  0.00000000000E+00 0.  1.
         36    2    1    2    0    0  0.14210854715E-13 -0.35527136788E-14  0.95635729091E+03  0.99487705043E+03  0.27415520711E+03 0.  0.
         25    2    3    3    0    0 -0.64615175500E+02  0.94464089772E+01  0.54638241230E+03  0.56109517654E+03  0.10967999417E+03 0.  0.
         25    2    3    3    0    0  0.64615175500E+02 -0.94464089772E+01  0.40997487861E+03  0.43378187389E+03  0.12578933767E+03 0.  0.
          5    1    4    4  502    0 -0.67852736239E+02  0.46113737467E+02  0.45677642345E+03  0.46410910529E+03  0.47000000000E+01 0. -1.
         -5    1    4    4    0  502  0.32375607386E+01 -0.36667328490E+02  0.89605988857E+02  0.96986071254E+02  0.47000000000E+01 0. -1.
          5    1    5    5  503    0  0.77039581672E+02  0.88889266087E+01  0.40251275254E+03  0.40994233267E+03  0.47000000000E+01 0.  1.
         -5    1    5    5    0  503 -0.12424406172E+02 -0.18335335586E+02  0.74621260749E+01  0.23839541215E+02  0.47000000000E+01 0.  1.
<mgrwt>
<rscale>  0 0.27415521E+03</rscale>
<asrwt>0</asrwt>
<pdfrwt beam="1">  1        2 0.15009491E+00 0.27415521E+03</pdfrwt>
<pdfrwt beam="2">  1       -2 0.29630592E-02 0.27415521E+03</pdfrwt>
<totfact> 0.11698805E+04</totfact>
</mgrwt>
</event>
<event>
 9    1  0.2031653E-002  0.2750297E+03  0.7818608E-02  0.1098435E+00
          3   -1    0    0  501    0  0.00000000000E+00  0.00000000000E+00  0.31565344589E+02  0.31565344589E+02  0.00000000000E+00 0.  1.
         -3   -1    0    0    0  501 -0.00000000000E+00 -0.00000000000E+00 -0.59908546676E+03  0.59908546676E+03  0.00000000000E+00 0.  1.
         36    2    1    2    0    0  0.00000000000E+00  0.00000000000E+00 -0.56752012217E+03  0.63065081135E+03  0.27502973800E+03 0.  0.
         25    2    3    3    0    0 -0.23678734421E+02  0.15359859448E+02 -0.15377960266E+03  0.19794228052E+03  0.12139346142E+03 0.  0.
         25    2    3    3    0    0  0.23678734421E+02 -0.15359859448E+02 -0.41374051950E+03  0.43270853083E+03  0.12352670734E+03 0.  0.
          5    1    4    4  502    0  0.44205442850E+02  0.27833106143E+02 -0.45420102815E+02  0.69382121003E+02  0.47000000000E+01 0.  1.
         -5    1    4    4    0  502 -0.67884177271E+02 -0.12473246695E+02 -0.10835949985E+03  0.12856015951E+03  0.47000000000E+01 0.  1.
          5    1    5    5  503    0 -0.15773675802E+02 -0.43818685967E+01 -0.37731785186E+03  0.37770207963E+03  0.47000000000E+01 0.  1.
         -5    1    5    5    0  503  0.39452410224E+02 -0.10977990852E+02 -0.36422667640E+02  0.55006451200E+02  0.47000000000E+01 0.  1.
<mgrwt>
<rscale>  0 0.27502974E+03</rscale>
<asrwt>0</asrwt>
<pdfrwt beam="1">  1        3 0.48562066E-02 0.27502974E+03</pdfrwt>
<pdfrwt beam="2">  1       -3 0.92166999E-01 0.27502974E+03</pdfrwt>
<totfact> 0.66019757E+02</totfact>
</mgrwt>
</event>
<event>
 9    1  0.2031653E-002  0.2753683E+03  0.7818608E-02  0.1098246E+00
         -2   -1    0    0    0  501 -0.00000000000E+00  0.00000000000E+00  0.19948019966E+03  0.19948019966E+03  0.00000000000E+00 0. -1.
          2   -1    0    0  501    0  0.00000000000E+00 -0.00000000000E+00 -0.95031614256E+02  0.95031614256E+02  0.00000000000E+00 0. -1.
         36    2    1    2    0    0  0.71054273576E-14  0.71054273576E-14  0.10444858541E+03  0.29451181392E+03  0.27536830163E+03 0.  0.
         25    2    3    3    0    0 -0.25789820573E+02 -0.25636944480E+02  0.10225800224E+03  0.16441832132E+03  0.12350837055E+03 0.  0.
         25    2    3    3    0    0  0.25789820573E+02  0.25636944480E+02  0.21905831682E+01  0.13009349260E+03  0.12488855190E+03 0.  0.
          5    1    4    4  502    0  0.10325967280E+02  0.50799863927E+01 -0.25334925609E+02  0.28220211155E+02  0.47000000000E+01 0.  1.
         -5    1    4    4    0  502 -0.36115787852E+02 -0.30716930873E+02  0.12759292785E+03  0.13619811016E+03  0.47000000000E+01 0.  1.
          5    1    5    5  503    0 -0.17238537852E+02 -0.40073536431E+02  0.21811178575E+02  0.48998704271E+02  0.47000000000E+01 0. -1.
         -5    1    5    5    0  503  0.43028358425E+02  0.65710480912E+02 -0.19620595407E+02  0.81094788331E+02  0.47000000000E+01 0. -1.
<mgrwt>
<rscale>  0 0.27536830E+03</rscale>
<asrwt>0</asrwt>
<pdfrwt beam="1">  1        2 0.14620248E-01 0.27536830E+03</pdfrwt>
<pdfrwt beam="2">  1       -2 0.30689262E-01 0.27536830E+03</pdfrwt>
<totfact> 0.39207132E+03</totfact>
</mgrwt>
</event>
<event>
 9    1  0.2031653E-002  0.2761004E+03  0.7818608E-02  0.1097838E+00
          2   -1    0    0  501    0  0.00000000000E+00  0.00000000000E+00  0.21591605096E+03  0.21591605096E+03  0.00000000000E+00 0. -1.
         -2   -1    0    0    0  501 -0.00000000000E+00 -0.00000000000E+00 -0.88265144221E+02  0.88265144221E+02  0.00000000000E+00 0. -1.
         36    2    1    2    0    0 -0.71054273576E-14 -0.53290705182E-14  0.12765090674E+03  0.30418119518E+03  0.27610042649E+03 0.  0.
         25    2    3    3    0    0  0.57634227892E+02  0.89350855174E+01  0.37039762009E+02  0.14219058123E+03  0.12427661663E+03 0.  0.
         25    2    3    3    0    0 -0.57634227892E+02 -0.89350855174E+01  0.90611144728E+02  0.16199061395E+03  0.12095056627E+03 0.  0.
          5    1    4    4  502    0  0.96821987550E+02  0.62597863320E+00  0.25383385521E+02  0.10020626419E+03  0.47000000000E+01 0.  1.
         -5    1    4    4    0  502 -0.39187759658E+02  0.83091068842E+01  0.11656376488E+02  0.41984317037E+02  0.47000000000E+01 0.  1.
          5    1    5    5  503    0  0.11572233461E+02  0.44602333552E+02  0.25953038719E+02  0.53093643351E+02  0.47000000000E+01 0.  1.
         -5    1    5    5    0  503 -0.69206461353E+02 -0.53537419070E+02  0.64658106008E+02  0.10889697060E+03  0.47000000000E+01 0.  1.
<mgrwt>
<rscale>  0 0.27610043E+03</rscale>
<asrwt>0</asrwt>
<pdfrwt beam="1">  1        2 0.33217854E-01 0.27610043E+03</pdfrwt>
<pdfrwt beam="2">  1       -2 0.13579253E-01 0.27610043E+03</pdfrwt>
<totfact> 0.62787142E+03</totfact>
</mgrwt>
</event>
<event>
 9    1  0.2031653E-002  0.2754780E+03  0.7818608E-02  0.1098185E+00
         -2   -1    0    0    0  501 -0.00000000000E+00  0.00000000000E+00  0.66979769190E+02  0.66979769190E+02  0.00000000000E+00 0. -1.
          2   -1    0    0  501    0  0.00000000000E+00 -0.00000000000E+00 -0.28325027107E+03  0.28325027107E+03  0.00000000000E+00 0. -1.
         36    2    1    2    0    0 -0.17763568394E-14 -0.71054273576E-14 -0.21627050188E+03  0.35023004026E+03  0.27547804108E+03 0.  0.
         25    2    3    3    0    0  0.82225876489E+01  0.48231277563E+02 -0.91428813747E+02  0.16278992462E+03  0.12548890186E+03 0.  0.
         25    2    3    3    0    0 -0.82225876489E+01 -0.48231277563E+02 -0.12484168813E+03  0.18744011564E+03  0.13097512272E+03 0.  0.
          5    1    4    4  502    0  0.32689408309E+02 -0.18448421200E+02 -0.82868923020E+02  0.91094950809E+02  0.47000000000E+01 0.  1.
         -5    1    4    4    0  502 -0.24466820660E+02  0.66679698763E+02 -0.85598907263E+01  0.71694973810E+02  0.47000000000E+01 0.  1.
          5    1    5    5  503    0 -0.18108357738E+02  0.43159075263E+02 -0.51504451468E+02  0.69752540589E+02  0.47000000000E+01 0. -1.
         -5    1    5    5    0  503  0.98857700887E+01 -0.91390352826E+02 -0.73337236662E+02  0.11768757505E+03  0.47000000000E+01 0. -1.
<mgrwt>
<rscale>  0 0.27547804E+03</rscale>
<asrwt>0</asrwt>
<pdfrwt beam="1">  1        2 0.43576965E-01 0.27547804E+03</pdfrwt>
<pdfrwt beam="2">  1       -2 0.10304580E-01 0.27547804E+03</pdfrwt>
<totfact> 0.73060795E+03</totfact>
</mgrwt>
</event>
<event>
 9    1  0.2031653E-002  0.2739484E+03  0.7818608E-02  0.1099041E+00
          2   -1    0    0  501    0  0.00000000000E+00  0.00000000000E+00  0.33593749331E+03  0.33593749331E+03  0.00000000000E+00 0. -1.
         -2   -1    0    0    0  501 -0.00000000000E+00 -0.00000000000E+00 -0.55849478093E+02  0.55849478093E+02  0.00000000000E+00 0. -1.
         36    2    1    2    0    0  0.00000000000E+00 -0.71054273576E-14  0.28008801522E+03  0.39178697141E+03  0.27394841612E+03 0.  0.
         25    2    3    3    0    0  0.39113789284E+02 -0.20617180471E+02  0.19823785157E+03  0.23496434032E+03  0.11813144706E+03 0.  0.
         25    2    3    3    0    0 -0.39113789284E+02  0.20617180471E+02  0.81850163651E+02  0.15682263109E+03  0.12624948193E+03 0.  0.
          5    1    4    4  502    0 -0.10982851062E+02  0.34050311056E+02  0.12701728358E+03  0.13204365577E+03  0.47000000000E+01 0. -1.
         -5    1    4    4    0  502  0.50096640346E+02 -0.54667491527E+02  0.71220567984E+02  0.10292068455E+03  0.47000000000E+01 0. -1.
          5    1    5    5  503    0 -0.45562883809E+02  0.40602730391E+02  0.10727725850E+03  0.12351136906E+03  0.47000000000E+01 0.  1.
         -5    1    5    5    0  503  0.64490945249E+01 -0.19985549920E+02 -0.25427094844E+02  0.33311262029E+02  0.47000000000E+01 0.  1.
<mgrwt>
<rscale>  0 0.27394842E+03</rscale>
<asrwt>0</asrwt>
<pdfrwt beam="1">  1        2 0.51682690E-01 0.27394842E+03</pdfrwt>
<pdfrwt beam="2">  1       -2 0.85922276E-02 0.27394842E+03</pdfrwt>
<totfact> 0.81042386E+03</totfact>
</mgrwt>
</event>
<event>
 9    1  0.2031653E-002  0.2759086E+03  0.7818608E-02  0.1097945E+00
         -3   -1    0    0    0  501 -0.00000000000E+00  0.00000000000E+00  0.61961913785E+02  0.61961913785E+02  0.00000000000E+00 0. -1.
          3   -1    0    0  501    0  0.00000000000E+00 -0.00000000000E+00 -0.30714652517E+03  0.30714652517E+03  0.00000000000E+00 0. -1.
         36    2    1    2    0    0  0.35527136788E-14 -0.14210854715E-13 -0.24518461139E+03  0.36910843896E+03  0.27590858277E+03 0.  0.
         25    2    3    3    0    0  0.45033201361E+01  0.86746974931E+02 -0.15898790406E+03  0.22433566299E+03  0.13230275319E+03 0.  0.
         25    2    3    3    0    0 -0.45033201361E+01 -0.86746974931E+02 -0.86196707324E+02  0.14477277596E+03  0.77356103538E+02 0.  0.
          5    1    4    4  502    0 -0.46109705880E+02  0.39644553177E+02 -0.12465546715E+02  0.62251710240E+02  0.47000000000E+01 0. -1.
         -5    1    4    4    0  502  0.50613026016E+02  0.47102421754E+02 -0.14652235735E+03  0.16208395275E+03  0.47000000000E+01 0. -1.
          5    1    5    5  503    0 -0.17737178372E+02 -0.69127883439E+02 -0.96403481153E+02  0.12003746475E+03  0.47000000000E+01 0. -1.
         -5    1    5    5    0  503  0.13233858236E+02 -0.17619091491E+02  0.10206773829E+02  0.24735311212E+02  0.47000000000E+01 0. -1.
<mgrwt>
<rscale>  0 0.27590858E+03</rscale>
<asrwt>0</asrwt>
<pdfrwt beam="1">  1        3 0.47253311E-01 0.27590858E+03</pdfrwt>
<pdfrwt beam="2">  1       -3 0.95326022E-02 0.27590858E+03</pdfrwt>
<totfact> 0.90943495E+02</totfact>
</mgrwt>
</event>
<event>
 9    1  0.2031653E-002  0.2751135E+03  0.7818608E-02  0.1098388E+00
          1   -1    0    0  501    0  0.00000000000E+00  0.00000000000E+00  0.15966517175E+03  0.15966517175E+03  0.00000000000E+00 0. -1.
         -1   -1    0    0    0  501 -0.00000000000E+00 -0.00000000000E+00 -0.11850959905E+03  0.11850959905E+03  0.00000000000E+00 0. -1.
         36    2    1    2    0    0 -0.71054273576E-14 -0.17763568394E-14  0.41155572699E+02  0.27817477081E+03  0.27511347104E+03 0.  0.
         25    2    3    3    0    0  0.38093458050E+02 -0.15527567002E+02  0.56088193245E+02  0.14563723860E+03  0.12795351875E+03 0.  0.
         25    2    3    3    0    0 -0.38093458050E+02  0.15527567002E+02 -0.14932620545E+02  0.13253753221E+03  0.12510394640E+03 0.  0.
          5    1    4    4  502    0  0.55439531781E+02 -0.18652937858E+02 -0.24072313712E+02  0.63427439348E+02  0.47000000000E+01 0.  1.
         -5    1    4    4    0  502 -0.17346073732E+02  0.31253708563E+01  0.80160506957E+02  0.82209799248E+02  0.47000000000E+01 0.  1.
          5    1    5    5  503    0  0.40877490837E+02 -0.15248968497E+02  0.80072355645E+01  0.44606121987E+02  0.47000000000E+01 0.  1.
         -5    1    5    5    0  503 -0.78970948886E+02  0.30776535498E+02 -0.22939856110E+02  0.87931410222E+02  0.47000000000E+01 0.  1.
<mgrwt>
<rscale>  0 0.27511347E+03</rscale>
<asrwt>0</asrwt>
<pdfrwt beam="1">  1        1 0.24563873E-01 0.27511347E+03</pdfrwt>
<pdfrwt beam="2">  1       -1 0.18232246E-01 0.27511347E+03</pdfrwt>
<totfact> 0.45604579E+03</totfact>
</mgrwt>
</event>
<event>
 9    1  0.2031653E-002  0.2736890E+03  0.7818608E-02  0.1099187E+00
         -1   -1    0    0    0  501 -0.00000000000E+00  0.00000000000E+00  0.35840716349E+03  0.35840716349E+03  0.00000000000E+00 0.  1.
          1   -1    0    0  501    0  0.00000000000E+00 -0.00000000000E+00 -0.52248996997E+02  0.52248996997E+02  0.00000000000E+00 0.  1.
         36    2    1    2    0    0  0.00000000000E+00  0.00000000000E+00  0.30615816649E+03  0.41065616049E+03  0.27368898267E+03 0.  0.
         25    2    3    3    0    0 -0.33803189005E+02  0.12363788452E+02  0.19449130871E+03  0.24053882301E+03  0.13688147193E+03 0.  0.
         25    2    3    3    0    0  0.33803189005E+02 -0.12363788452E+02  0.11166685778E+03  0.17011733748E+03  0.12318645434E+03 0.  0.
          5    1    4    4  502    0 -0.56608962456E+01  0.52601357895E+02  0.18208826114E+03  0.18967649682E+03  0.47000000000E+01 0.  1.
         -5    1    4    4    0  502 -0.28142292759E+02 -0.40237569443E+02  0.12403047565E+02  0.50862326189E+02  0.47000000000E+01 0.  1.
          5    1    5    5  503    0 -0.96495994412E+00  0.53159822164E+02  0.55107837199E+02  0.76719368878E+02  0.47000000000E+01 0. -1.
         -5    1    5    5    0  503  0.34768148949E+02 -0.65523610616E+02  0.56559020585E+02  0.93397968602E+02  0.47000000000E+01 0. -1.
<mgrwt>
<rscale>  0 0.27368898E+03</rscale>
<asrwt>0</asrwt>
<pdfrwt beam="1">  1        1 0.80383075E-02 0.27368898E+03</pdfrwt>
<pdfrwt beam="2">  1       -1 0.55139562E-01 0.27368898E+03</pdfrwt>
<totfact> 0.29416617E+03</totfact>
</mgrwt>
</event>
<event>
 9    1  0.2031653E-002  0.2756004E+03  0.7818608E-02  0.1098116E+00
          2   -1    0    0  501    0  0.00000000000E+00  0.00000000000E+00  0.96640029778E+03  0.96640029778E+03  0.00000000000E+00 0.  1.
         -2   -1    0    0    0  501 -0.00000000000E+00 -0.00000000000E+00 -0.19649095220E+02  0.19649095220E+02  0.00000000000E+00 0.  1.
         36    2    1    2    0    0  0.00000000000E+00  0.00000000000E+00  0.94675120256E+03  0.98604939300E+03  0.27560037352E+03 0.  0.
         25    2    3    3    0    0  0.30728095607E+02  0.32956842041E+02  0.35229090965E+03  0.37659823422E+03  0.12524765745E+03 0.  0.
         25    2    3    3    0    0 -0.30728095607E+02 -0.32956842041E+02  0.59446029291E+03  0.60945115878E+03  0.12655949508E+03 0.  0.
          5    1    4    4  502    0 -0.40805569013E+02 -0.16411814862E+02  0.14974537987E+03  0.15614163738E+03  0.47000000000E+01 0.  1.
         -5    1    4    4    0  502  0.71533664620E+02  0.49368656903E+02  0.20254552977E+03  0.22045659684E+03  0.47000000000E+01 0.  1.
          5    1    5    5  503    0 -0.55561184221E+02  0.14839100724E+02  0.13490892849E+03  0.14673020510E+03  0.47000000000E+01 0.  1.
         -5    1    5    5    0  503  0.24833088614E+02 -0.47795942765E+02  0.45955136442E+03  0.46272095368E+03  0.47000000000E+01 0.  1.
<mgrwt>
<rscale>  0 0.27560037E+03</rscale>
<asrwt>0</asrwt>
<pdfrwt beam="1">  1        2 0.14867693E+00 0.27560037E+03</pdfrwt>
<pdfrwt beam="2">  1       -2 0.30229385E-02 0.27560037E+03</pdfrwt>
<totfact> 0.11508269E+04</totfact>
</mgrwt>
</event>
<event>
 9    1  0.2031653E-002  0.2773300E+03  0.7818608E-02  0.1097156E+00
         -2   -1    0    0    0  501 -0.00000000000E+00  0.00000000000E+00  0.35562637798E+02  0.35562637798E+02  0.00000000000E+00 0.  1.
          2   -1    0    0  501    0  0.00000000000E+00 -0.00000000000E+00 -0.54067935987E+03  0.54067935987E+03  0.00000000000E+00 0.  1.
         36    2    1    2    0    0  0.00000000000E+00  0.35527136788E-14 -0.50511672207E+03  0.57624199766E+03  0.27733001453E+03 0.  0.
         25    2    3    3    0    0 -0.41351590278E+02  0.66294952424E+01 -0.16162592969E+03  0.20770492796E+03  0.12354955169E+03 0.  0.
         25    2    3    3    0    0  0.41351590278E+02 -0.66294952424E+01 -0.34349079238E+03  0.36853706970E+03  0.12680592681E+03 0.  0.
          5    1    4    4  502    0 -0.49380553925E+02  0.59097397919E+02 -0.94194175540E+02  0.12176031477E+03  0.47000000000E+01 0. -1.
         -5    1    4    4    0  502  0.80289636471E+01 -0.52467902677E+02 -0.67431754153E+02  0.85944613191E+02  0.47000000000E+01 0. -1.
          5    1    5    5  503    0  0.81861887995E+02 -0.28369337021E+02 -0.20758181644E+03  0.22498552954E+03  0.47000000000E+01 0. -1.
         -5    1    5    5    0  503 -0.40510297717E+02  0.21739841779E+02 -0.13590897594E+03  0.14355154016E+03  0.47000000000E+01 0. -1.
<mgrwt>
<rscale>  0 0.27733001E+03</rscale>
<asrwt>0</asrwt>
<pdfrwt beam="1">  1        2 0.83181432E-01 0.27733001E+03</pdfrwt>
<pdfrwt beam="2">  1       -2 0.54711756E-02 0.27733001E+03</pdfrwt>
<totfact> 0.96654344E+03</totfact>
</mgrwt>
</event>
<event>
 9    1  0.2031653E-002  0.2740936E+03  0.7818608E-02  0.1098959E+00
         -2   -1    0    0    0  501 -0.00000000000E+00  0.00000000000E+00  0.45316693773E+02  0.45316693773E+02  0.00000000000E+00 0. -1.
          2   -1    0    0  501    0  0.00000000000E+00 -0.00000000000E+00 -0.41445711384E+03  0.41445711384E+03  0.00000000000E+00 0. -1.
         36    2    1    2    0    0  0.00000000000E+00 -0.35527136788E-14 -0.36914042007E+03  0.45977380762E+03  0.27409360525E+03 0.  0.
         25    2    3    3    0    0  0.18059170013E+02  0.24835285436E+02 -0.93510063705E+02  0.15534127079E+03  0.12018258349E+03 0.  0.
         25    2    3    3    0    0 -0.18059170013E+02 -0.24835285436E+02 -0.27563035637E+03  0.30443253682E+03  0.12555537066E+03 0.  0.
          5    1    4    4  502    0 -0.41860641253E+02  0.83646503263E+01 -0.81141648546E+02  0.91805979054E+02  0.47000000000E+01 0.  1.
         -5    1    4    4    0  502  0.59919811266E+02  0.16470635109E+02 -0.12368415158E+02  0.63535291741E+02  0.47000000000E+01 0.  1.
          5    1    5    5  503    0 -0.44818713730E+01 -0.40243712000E+02 -0.15752498733E+02  0.43702113712E+02  0.47000000000E+01 0. -1.
         -5    1    5    5    0  503 -0.13577298640E+02  0.15408426564E+02 -0.25987785763E+03  0.26073042311E+03  0.47000000000E+01 0. -1.
<mgrwt>
<rscale>  0 0.27409361E+03</rscale>
<asrwt>0</asrwt>
<pdfrwt beam="1">  1        2 0.63762632E-01 0.27409361E+03</pdfrwt>
<pdfrwt beam="2">  1       -2 0.69717992E-02 0.27409361E+03</pdfrwt>
<totfact> 0.89419342E+03</totfact>
</mgrwt>
</event>
<event>
 9    1  0.2031653E-002  0.2748292E+03  0.7818608E-02  0.1098547E+00
         -1   -1    0    0    0  501 -0.00000000000E+00  0.00000000000E+00  0.12165579713E+04  0.12165579713E+04  0.00000000000E+00 0.  1.
          1   -1    0    0  501    0  0.00000000000E+00 -0.00000000000E+00 -0.15521469698E+02  0.15521469698E+02  0.00000000000E+00 0.  1.
         36    2    1    2    0    0  0.00000000000E+00  0.71054273576E-14  0.12010365016E+04  0.12320794410E+04  0.27482916648E+03 0.  0.
         25    2    3    3    0    0 -0.31457420155E+02 -0.36742440037E+02  0.42229795965E+03  0.44239763236E+03  0.12263980682E+03 0.  0.
         25    2    3    3    0    0  0.31457420155E+02  0.36742440037E+02  0.77873854194E+03  0.78968180862E+03  0.12175412098E+03 0.  0.
          5    1    4    4  502    0  0.46087839072E+02 -0.16314465891E+01  0.13662248953E+03  0.14427246853E+03  0.47000000000E+01 0.  1.
         -5    1    4    4    0  502 -0.77545259227E+02 -0.35110993448E+02  0.28567547011E+03  0.29812516384E+03  0.47000000000E+01 0.  1.
          5    1    5    5  503    0  0.16897702798E+02  0.16191897824E+02  0.21853216138E+02  0.32362987665E+02  0.47000000000E+01 0.  1.
         -5    1    5    5    0  503  0.14559717357E+02  0.20550542213E+02  0.75688532580E+03  0.75731882095E+03  0.47000000000E+01 0.  1.
<mgrwt>
<rscale>  0 0.27482917E+03</rscale>
<asrwt>0</asrwt>
<pdfrwt beam="1">  1        1 0.23879194E-02 0.27482917E+03</pdfrwt>
<pdfrwt beam="2">  1       -1 0.18716269E+00 0.27482917E+03</pdfrwt>
<totfact> 0.95992876E+02</totfact>
</mgrwt>
</event>
<event>
 9    1  0.2031653E-002  0.2743867E+03  0.7818608E-02  0.1098795E+00
          2   -1    0    0  501    0  0.00000000000E+00  0.00000000000E+00  0.65382502624E+03  0.65382502624E+03  0.00000000000E+00 0.  1.
         -2   -1    0    0    0  501 -0.00000000000E+00 -0.00000000000E+00 -0.28787536977E+02  0.28787536977E+02  0.00000000000E+00 0.  1.
         36    2    1    2    0    0  0.00000000000E+00 -0.71054273576E-14  0.62503748926E+03  0.68261256322E+03  0.27438667693E+03 0.  0.
         25    2    3    3    0    0 -0.29660723663E+02 -0.34492789749E+02  0.25495773212E+03  0.28696925453E+03  0.12360581217E+03 0.  0.
         25    2    3    3    0    0  0.29660723663E+02  0.34492789749E+02  0.37007975714E+03  0.39564330869E+03  0.13230680252E+03 0.  0.
          5    1    4    4  502    0  0.73111702450E+01  0.43178076295E+02  0.66617247113E+02  0.79860798242E+02  0.47000000000E+01 0. -1.
         -5    1    4    4    0  502 -0.36971893908E+02 -0.77670866043E+02  0.18834048501E+03  0.20710845629E+03  0.47000000000E+01 0. -1.
          5    1    5    5  503    0  0.40697793565E+02  0.67814064291E+02  0.12483311479E+03  0.14785281284E+03  0.47000000000E+01 0. -1.
         -5    1    5    5    0  503 -0.11037069902E+02 -0.33321274543E+02  0.24524664235E+03  0.24779049585E+03  0.47000000000E+01 0. -1.
<mgrwt>
<rscale>  0 0.27438668E+03</rscale>
<asrwt>0</asrwt>
<pdfrwt beam="1">  1        2 0.10058845E+00 0.27438668E+03</pdfrwt>
<pdfrwt beam="2">  1       -2 0.44288523E-02 0.27438668E+03</pdfrwt>
<totfact> 0.10683871E+04</totfact>
</mgrwt>
</event>
<event>
 9    1  0.2031653E-002  0.2755328E+03  0.7818608E-02  0.1098154E+00
         -1   -1    0    0    0  501 -0.00000000000E+00  0.00000000000E+00  0.20212806173E+02  0.20212806173E+02  0.00000000000E+00 0. -1.
          1   -1    0    0  501    0  0.00000000000E+00 -0.00000000000E+00 -0.93898819584E+03  0.93898819584E+03  0.00000000000E+00 0. -1.
         36    2    1    2    0    0  0.35527136788E-14  0.35527136788E-14 -0.91877538966E+03  0.95920100201E+03  0.27553283943E+03 0.  0.
         25    2    3    3    0    0 -0.26163287531E+02 -0.13682591626E+02 -0.54998102478E+03  0.56517110937E+03  0.12675773868E+03 0.  0.
         25    2    3    3    0    0  0.26163287531E+02  0.13682591626E+02 -0.36879436488E+03  0.39402989264E+03  0.13556748061E+03 0.  0.
          5    1    4    4  502    0 -0.23210538688E+02 -0.42369086710E+02 -0.52347727946E+03  0.52572276033E+03  0.47000000000E+01 0. -1.
         -5    1    4    4    0  502 -0.29527488423E+01  0.28686495084E+02 -0.26503745322E+02  0.39448349041E+02  0.47000000000E+01 0. -1.
          5    1    5    5  503    0  0.61215776800E+02  0.56323808988E+02 -0.21756460490E+03  0.23297250931E+03  0.47000000000E+01 0. -1.
         -5    1    5    5    0  503 -0.35052489269E+02 -0.42641217362E+02 -0.15122975998E+03  0.16105738333E+03  0.47000000000E+01 0. -1.
<mgrwt>
<rscale>  0 0.27553284E+03</rscale>
<asrwt>0</asrwt>
<pdfrwt beam="1">  1        1 0.14445969E+00 0.27553284E+03</pdfrwt>
<pdfrwt beam="2">  1       -1 0.31096632E-02 0.27553284E+03</pdfrwt>
<totfact> 0.63610373E+03</totfact>
</mgrwt>
</event>
<event>
 9    1  0.2031653E-002  0.2749079E+03  0.7818608E-02  0.1098503E+00
          1   -1    0    0  501    0  0.00000000000E+00  0.00000000000E+00  0.42461462547E+03  0.42461462547E+03  0.00000000000E+00 0. -1.
         -1   -1    0    0    0  501 -0.00000000000E+00 -0.00000000000E+00 -0.44495841189E+02  0.44495841189E+02  0.00000000000E+00 0. -1.
         36    2    1    2    0    0  0.00000000000E+00  0.00000000000E+00  0.38011878428E+03  0.46911046666E+03  0.27490787505E+03 0.  0.
         25    2    3    3    0    0 -0.33574545038E+02  0.26320933748E+02  0.25543201094E+03  0.29024807817E+03  0.13106636884E+03 0.  0.
         25    2    3    3    0    0  0.33574545038E+02 -0.26320933748E+02  0.12468677334E+03  0.17886238849E+03  0.12093353936E+03 0.  0.
          5    1    4    4  502    0 -0.19157848880E+02 -0.30970260967E+02  0.10417346171E+02  0.38167936011E+02  0.47000000000E+01 0.  1.
         -5    1    4    4    0  502 -0.14416696159E+02  0.57291194715E+02  0.24501466477E+03  0.25208014216E+03  0.47000000000E+01 0.  1.
          5    1    5    5  503    0  0.59653628188E+01  0.43585417078E+02  0.79657547358E+02  0.91119092327E+02  0.47000000000E+01 0.  1.
         -5    1    5    5    0  503  0.27609182219E+02 -0.69906350826E+02  0.45029225985E+02  0.87743296162E+02  0.47000000000E+01 0.  1.
<mgrwt>
<rscale>  0 0.27490788E+03</rscale>
<asrwt>0</asrwt>
<pdfrwt beam="1">  1        1 0.65325324E-01 0.27490788E+03</pdfrwt>
<pdfrwt beam="2">  1       -1 0.68455143E-02 0.27490788E+03</pdfrwt>
<totfact> 0.60945270E+03</totfact>
</mgrwt>
</event>
<event>
 9    1  0.2031653E-002  0.2748692E+03  0.7818608E-02  0.1098525E+00
          2   -1    0    0  501    0  0.00000000000E+00  0.00000000000E+00  0.37668206994E+03  0.37668206994E+03  0.00000000000E+00 0.  1.
         -2   -1    0    0    0  501 -0.00000000000E+00 -0.00000000000E+00 -0.50143781666E+02  0.50143781666E+02  0.00000000000E+00 0.  1.
         36    2    1    2    0    0  0.00000000000E+00  0.00000000000E+00  0.32653828827E+03  0.42682585160E+03  0.27486915776E+03 0.  0.
         25    2    3    3    0    0  0.48451877438E+02 -0.14088883555E+02  0.16809698711E+03  0.21638636588E+03  0.12657164451E+03 0.  0.
         25    2    3    3    0    0 -0.48451877438E+02  0.14088883555E+02  0.15844130116E+03  0.21043948572E+03  0.12897693659E+03 0.  0.
          5    1    4    4  502    0 -0.23572100913E+02 -0.25831954034E+02  0.25133961462E+01  0.35374297885E+02  0.47000000000E+01 0. -1.
         -5    1    4    4    0  502  0.72023978351E+02  0.11743070479E+02  0.16558359097E+03  0.18101206799E+03  0.47000000000E+01 0. -1.
          5    1    5    5  503    0  0.33731853873E+02  0.37227308952E+02  0.40161831691E+02  0.64488551094E+02  0.47000000000E+01 0. -1.
         -5    1    5    5    0  503 -0.82183731310E+02 -0.23138425397E+02  0.11827946947E+03  0.14595093463E+03  0.47000000000E+01 0. -1.
<mgrwt>
<rscale>  0 0.27486916E+03</rscale>
<asrwt>0</asrwt>
<pdfrwt beam="1">  1        2 0.57951086E-01 0.27486916E+03</pdfrwt>
<pdfrwt beam="2">  1       -2 0.77144282E-02 0.27486916E+03</pdfrwt>
<totfact> 0.84776293E+03</totfact>
</mgrwt>
</event>
<event>
 9    1  0.2031653E-002  0.2748681E+03  0.7818608E-02  0.1098525E+00
          1   -1    0    0  501    0  0.00000000000E+00  0.00000000000E+00  0.79434045402E+02  0.79434045402E+02  0.00000000000E+00 0.  1.
         -1   -1    0    0    0  501 -0.00000000000E+00 -0.00000000000E+00 -0.23778374185E+03  0.23778374185E+03  0.00000000000E+00 0.  1.
         36    2    1    2    0    0  0.35527136788E-14 -0.71054273576E-14 -0.15834969645E+03  0.31721778725E+03  0.27486814691E+03 0.  0.
         25    2    3    3    0    0  0.64637203960E+01 -0.49566113313E+02 -0.10987372703E+03  0.17416340899E+03  0.12554711413E+03 0.  0.
         25    2    3    3    0    0 -0.64637203960E+01  0.49566113313E+02 -0.48475969414E+02  0.14305437826E+03  0.12496421992E+03 0.  0.
          5    1    4    4  502    0  0.22687821186E+02 -0.84274559591E+02 -0.44093924566E+02  0.97894345128E+02  0.47000000000E+01 0. -1.
         -5    1    4    4    0  502 -0.16224100790E+02  0.34708446277E+02 -0.65779802466E+02  0.76269063859E+02  0.47000000000E+01 0. -1.
          5    1    5    5  503    0  0.26794434734E+02  0.39045767479E+02 -0.81767019184E+02  0.94606813269E+02  0.47000000000E+01 0. -1.
         -5    1    5    5    0  503 -0.33258155130E+02  0.10520345834E+02  0.33291049770E+02  0.48447564995E+02  0.47000000000E+01 0. -1.
<mgrwt>
<rscale>  0 0.27486815E+03</rscale>
<asrwt>0</asrwt>
<pdfrwt beam="1">  1        1 0.12220622E-01 0.27486815E+03</pdfrwt>
<pdfrwt beam="2">  1       -1 0.36582114E-01 0.27486815E+03</pdfrwt>
<totfact> 0.35256797E+03</totfact>
</mgrwt>
</event>
<event>
 9    1  0.2031653E-002  0.2742479E+03  0.7818608E-02  0.1098873E+00
         -1   -1    0    0    0  501 -0.00000000000E+00  0.00000000000E+00  0.10472504860E+02  0.10472504860E+02  0.00000000000E+00 0.  1.
          1   -1    0    0  501    0  0.00000000000E+00 -0.00000000000E+00 -0.17954613156E+04  0.17954613156E+04  0.00000000000E+00 0.  1.
         36    2    1    2    0    0  0.00000000000E+00 -0.35527136788E-14 -0.17849888108E+04  0.18059338205E+04  0.27424789774E+03 0.  0.
         25    2    3    3    0    0 -0.23504729435E+02 -0.29446701506E+02 -0.54077958315E+03  0.55471176277E+03  0.11765628613E+03 0.  0.
         25    2    3    3    0    0  0.23504729435E+02  0.29446701506E+02 -0.12442092276E+04  0.12512220577E+04  0.12680873430E+03 0.  0.
          5    1    4    4  502    0  0.43571756671E+02 -0.34947142311E+02 -0.25082563144E+03  0.25701242795E+03  0.47000000000E+01 0. -1.
         -5    1    4    4    0  502 -0.67076486106E+02  0.55004408056E+01 -0.28995395171E+03  0.29769933481E+03  0.47000000000E+01 0. -1.
          5    1    5    5  503    0 -0.12958148600E+02  0.69151357707E+02 -0.48653022875E+03  0.49161323963E+03  0.47000000000E+01 0.  1.
         -5    1    5    5    0  503  0.36462878035E+02 -0.39704656201E+02 -0.75767899885E+03  0.75960881808E+03  0.47000000000E+01 0.  1.
<mgrwt>
<rscale>  0 0.27424790E+03</rscale>
<asrwt>0</asrwt>
<pdfrwt beam="1">  1        1 0.27622468E+00 0.27424790E+03</pdfrwt>
<pdfrwt beam="2">  1       -1 0.16111554E-02 0.27424790E+03</pdfrwt>
<totfact> 0.43083913E+03</totfact>
</mgrwt>
</event>
<event>
 9    1  0.2031653E-002  0.2752692E+03  0.7818608E-02  0.1098301E+00
         -2   -1    0    0    0  501 -0.00000000000E+00  0.00000000000E+00  0.10438659384E+03  0.10438659384E+03  0.00000000000E+00 0.  1.
          2   -1    0    0  501    0  0.00000000000E+00 -0.00000000000E+00 -0.18147233920E+03  0.18147233920E+03  0.00000000000E+00 0.  1.
         36    2    1    2    0    0 -0.71054273576E-14  0.71054273576E-14 -0.77085745362E+02  0.28585893305E+03  0.27526917275E+03 0.  0.
         25    2    3    3    0    0  0.34601333225E+02 -0.34477152149E+02 -0.21844912743E+02  0.13934045406E+03  0.12865704662E+03 0.  0.
         25    2    3    3    0    0 -0.34601333225E+02  0.34477152149E+02 -0.55240832618E+02  0.14651847898E+03  0.12661038194E+03 0.  0.
          5    1    4    4  502    0 -0.12546588646E+02  0.40722597905E+02 -0.26391297978E+02  0.50342203724E+02  0.47000000000E+01 0.  1.
         -5    1    4    4    0  502  0.47147921871E+02 -0.75199750054E+02  0.45463852348E+01  0.88998250341E+02  0.47000000000E+01 0.  1.
          5    1    5    5  503    0 -0.40409219431E+02 -0.25827868019E+02 -0.69051030901E+02  0.84202842292E+02  0.47000000000E+01 0. -1.
         -5    1    5    5    0  503  0.58078862056E+01  0.60305020168E+02  0.13810198283E+02  0.62315636691E+02  0.47000000000E+01 0. -1.
<mgrwt>
<rscale>  0 0.27526917E+03</rscale>
<asrwt>0</asrwt>
<pdfrwt beam="1">  1        2 0.27918821E-01 0.27526917E+03</pdfrwt>
<pdfrwt beam="2">  1       -2 0.16059476E-01 0.27526917E+03</pdfrwt>
<totfact> 0.57596968E+03</totfact>
</mgrwt>
</event>
<event>
 9    1  0.2031653E-002  0.2748440E+03  0.7818608E-02  0.1098539E+00
         -2   -1    0    0    0  501 -0.00000000000E+00  0.00000000000E+00  0.79895985197E+02  0.79895985197E+02  0.00000000000E+00 0.  1.
          2   -1    0    0  501    0  0.00000000000E+00 -0.00000000000E+00 -0.23636737295E+03  0.23636737295E+03  0.00000000000E+00 0.  1.
         36    2    1    2    0    0  0.00000000000E+00  0.00000000000E+00 -0.15647138776E+03  0.31626335815E+03  0.27484398579E+03 0.  0.
         25    2    3    3    0    0 -0.22498589644E+02 -0.50415023663E+02 -0.86535400130E+02  0.16210974044E+03  0.12547243253E+03 0.  0.
         25    2    3    3    0    0  0.22498589644E+02  0.50415023663E+02 -0.69935987625E+02  0.15415361771E+03  0.12579520794E+03 0.  0.
          5    1    4    4  502    0 -0.45784210587E+02 -0.78621455050E+02 -0.85920539668E+02  0.12522761784E+03  0.47000000000E+01 0. -1.
         -5    1    4    4    0  502  0.23285620942E+02  0.28206431387E+02 -0.61486046200E+00  0.36882122603E+02  0.47000000000E+01 0. -1.
          5    1    5    5  503    0 -0.36148286406E+02 -0.12802203572E+02 -0.53901988360E+02  0.66318243158E+02  0.47000000000E+01 0. -1.
         -5    1    5    5    0  503  0.58646876050E+02  0.63217227235E+02 -0.16033999265E+02  0.87835374549E+02  0.47000000000E+01 0. -1.
<mgrwt>
<rscale>  0 0.27484399E+03</rscale>
<asrwt>0</asrwt>
<pdfrwt beam="1">  1        2 0.36364211E-01 0.27484399E+03</pdfrwt>
<pdfrwt beam="2">  1       -2 0.12291690E-01 0.27484399E+03</pdfrwt>
<totfact> 0.66907200E+03</totfact>
</mgrwt>
</event>
<event>
 9    1  0.2031653E-002  0.2798124E+03  0.7818608E-02  0.1095791E+00
          1   -1    0    0  501    0  0.00000000000E+00  0.00000000000E+00  0.16343054397E+02  0.16343054397E+02  0.00000000000E+00 0. -1.
         -1   -1    0    0    0  501 -0.00000000000E+00 -0.00000000000E+00 -0.11976797028E+04  0.11976797028E+04  0.00000000000E+00 0. -1.
         36    2    1    2    0    0  0.14210854715E-13  0.71054273576E-14 -0.11813366485E+04  0.12140227572E+04  0.27981239811E+03 0.  0.
         25    2    3    3    0    0  0.43923202879E+02  0.13454453330E+02 -0.40217957102E+03  0.42354468240E+03  0.12462512016E+03 0.  0.
         25    2    3    3    0    0 -0.43923202879E+02 -0.13454453330E+02 -0.77915707743E+03  0.79047807485E+03  0.12513818539E+03 0.  0.
          5    1    4    4  502    0  0.69456931463E+02  0.36062115112E+02 -0.36308329677E+03  0.37145162790E+03  0.47000000000E+01 0. -1.
         -5    1    4    4    0  502 -0.25533728584E+02 -0.22607661782E+02 -0.39096274251E+02  0.52093054498E+02  0.47000000000E+01 0. -1.
          5    1    5    5  503    0  0.16533656029E+02  0.23287527974E+01 -0.12784129964E+02  0.21547827042E+02  0.47000000000E+01 0. -1.
         -5    1    5    5    0  503 -0.60456858908E+02 -0.15783206128E+02 -0.76637294746E+03  0.76893024780E+03  0.47000000000E+01 0. -1.
<mgrwt>
<rscale>  0 0.27981240E+03</rscale>
<asrwt>0</asrwt>
<pdfrwt beam="1">  1        1 0.25143158E-02 0.27981240E+03</pdfrwt>
<pdfrwt beam="2">  1       -1 0.18425844E+00 0.27981240E+03</pdfrwt>
<totfact> 0.93469385E+02</totfact>
</mgrwt>
</event>
<event>
 9    1  0.2031653E-002  0.2733110E+03  0.7818608E-02  0.1099399E+00
          2   -1    0    0  501    0  0.00000000000E+00  0.00000000000E+00  0.23785911810E+04  0.23785911810E+04  0.00000000000E+00 0.  1.
         -2   -1    0    0    0  501 -0.00000000000E+00 -0.00000000000E+00 -0.78511714453E+01  0.78511714453E+01  0.00000000000E+00 0.  1.
         36    2    1    2    0    0  0.00000000000E+00  0.00000000000E+00  0.23707400096E+04  0.23864423524E+04  0.27331101083E+03 0.  0.
         25    2    3    3    0    0  0.17086749419E+02  0.22914027950E+02  0.82481441104E+03  0.83519050901E+03  0.12809123311E+03 0.  0.
         25    2    3    3    0    0 -0.17086749419E+02 -0.22914027950E+02  0.15459255985E+04  0.15512518434E+04  0.12521707525E+03 0.  0.
          5    1    4    4  502    0  0.75636282684E+01  0.34095921184E+02  0.81725808889E+03  0.81801749014E+03  0.47000000000E+01 0.  1.
         -5    1    4    4    0  502  0.95231211503E+01 -0.11181893235E+02  0.75563221472E+01  0.17173018871E+02  0.47000000000E+01 0.  1.
          5    1    5    5  503    0  0.43813318230E+02  0.19140969223E+02  0.85719480725E+03  0.85854004632E+03  0.47000000000E+01 0.  1.
         -5    1    5    5    0  503 -0.60900067649E+02 -0.42054997173E+02  0.68873079128E+03  0.69271179713E+03  0.47000000000E+01 0.  1.
<mgrwt>
<rscale>  0 0.27331101E+03</rscale>
<asrwt>0</asrwt>
<pdfrwt beam="1">  1        2 0.36593653E+00 0.27331101E+03</pdfrwt>
<pdfrwt beam="2">  1       -2 0.12078744E-02 0.27331101E+03</pdfrwt>
<totfact> 0.75624669E+03</totfact>
</mgrwt>
</event>
<event>
 9    1  0.2031653E-002  0.2740388E+03  0.7818608E-02  0.1098990E+00
          1   -1    0    0  501    0  0.00000000000E+00  0.00000000000E+00  0.71201236842E+03  0.71201236842E+03  0.00000000000E+00 0. -1.
         -1   -1    0    0    0  501 -0.00000000000E+00 -0.00000000000E+00 -0.26367971568E+02  0.26367971568E+02  0.00000000000E+00 0. -1.
         36    2    1    2    0    0 -0.17763568394E-14 -0.71054273576E-14  0.68564439685E+03  0.73838033998E+03  0.27403884313E+03 0.  0.
         25    2    3    3    0    0 -0.60627448738E+01 -0.19118650898E+02  0.49480900791E+03  0.50999873378E+03  0.12190354572E+03 0.  0.
         25    2    3    3    0    0  0.60627448738E+01  0.19118650898E+02  0.19083538894E+03  0.22838160620E+03  0.12384560022E+03 0.  0.
          5    1    4    4  502    0  0.65372394859E+01 -0.59450862016E+02  0.13555266499E+03  0.14823547308E+03  0.47000000000E+01 0. -1.
         -5    1    4    4    0  502 -0.12599984360E+02  0.40332211118E+02  0.35925634293E+03  0.36176326070E+03  0.47000000000E+01 0. -1.
          5    1    5    5  503    0  0.16938623510E+02  0.41919557845E+02  0.19681793824E+03  0.20199890373E+03  0.47000000000E+01 0.  1.
         -5    1    5    5    0  503 -0.10875878636E+02 -0.22800906946E+02 -0.59825493009E+01  0.26382702474E+02  0.47000000000E+01 0.  1.
<mgrwt>
<rscale>  0 0.27403884E+03</rscale>
<asrwt>0</asrwt>
<pdfrwt beam="1">  1        1 0.10954035E+00 0.27403884E+03</pdfrwt>
<pdfrwt beam="2">  1       -1 0.40566115E-02 0.27403884E+03</pdfrwt>
<totfact> 0.66017410E+03</totfact>
</mgrwt>
</event>
<event>
 9    1  0.2031653E-002  0.2731271E+03  0.7818608E-02  0.1099503E+00
         -1   -1    0    0    0  501 -0.00000000000E+00  0.00000000000E+00  0.19037666909E+02  0.19037666909E+02  0.00000000000E+00 0. -1.
          1   -1    0    0  501    0  0.00000000000E+00 -0.00000000000E+00 -0.97961569566E+03  0.97961569566E+03  0.00000000000E+00 0. -1.
         36    2    1    2    0    0  0.35527136788E-14  0.71054273576E-14 -0.96057802875E+03  0.99865336257E+03  0.27312705698E+03 0.  0.
         25    2    3    3    0    0 -0.79641611446E-01 -0.52309884175E+02 -0.57815363797E+03  0.59386360073E+03  0.12520390105E+03 0.  0.
         25    2    3    3    0    0  0.79641611446E-01  0.52309884175E+02 -0.38242439078E+03  0.40478976184E+03  0.12194263532E+03 0.  0.
          5    1    4    4  502    0  0.45225697449E+02 -0.48450670953E+02 -0.49075415544E+03  0.49523182684E+03  0.47000000000E+01 0. -1.
         -5    1    4    4    0  502 -0.45305339061E+02 -0.38592132221E+01 -0.87399482529E+02  0.98631773889E+02  0.47000000000E+01 0. -1.
          5    1    5    5  503    0 -0.35671204976E+01  0.57420010757E+01 -0.34406826159E+03  0.34416675254E+03  0.47000000000E+01 0. -1.
         -5    1    5    5    0  503  0.36467621090E+01  0.46567883099E+02 -0.38356129189E+02  0.60623009300E+02  0.47000000000E+01 0. -1.
<mgrwt>
<rscale>  0 0.27312706E+03</rscale>
<asrwt>0</asrwt>
<pdfrwt beam="1">  1        1 0.15071013E+00 0.27312706E+03</pdfrwt>
<pdfrwt beam="2">  1       -1 0.29288714E-02 0.27312706E+03</pdfrwt>
<totfact> 0.64693127E+03</totfact>
</mgrwt>
</event>
<event>
 9    1  0.2031653E-002  0.2753781E+03  0.7818608E-02  0.1098240E+00
          1   -1    0    0  501    0  0.00000000000E+00  0.00000000000E+00  0.17433680579E+03  0.17433680579E+03  0.00000000000E+00 0. -1.
         -1   -1    0    0    0  501 -0.00000000000E+00 -0.00000000000E+00 -0.10874508092E+03  0.10874508092E+03  0.00000000000E+00 0. -1.
         36    2    1    2    0    0  0.35527136788E-14  0.00000000000E+00  0.65591724863E+02  0.28308188671E+03  0.27537806778E+03 0.  0.
         25    2    3    3    0    0  0.23185859632E+02  0.26526546063E+02 -0.58983300355E+01  0.13000873724E+03  0.12500495882E+03 0.  0.
         25    2    3    3    0    0 -0.23185859632E+02 -0.26526546063E+02  0.71490054899E+02  0.15307314947E+03  0.13068787016E+03 0.  0.
          5    1    4    4  502    0  0.39116206010E+01  0.57425859075E+02  0.40721928539E+02  0.70663962033E+02  0.47000000000E+01 0. -1.
         -5    1    4    4    0  502  0.19274239031E+02 -0.30899313012E+02 -0.46620258574E+02  0.59344775207E+02  0.47000000000E+01 0. -1.
          5    1    5    5  503    0  0.12842146130E+02  0.41144669594E+02  0.62035093205E+02  0.75685185751E+02  0.47000000000E+01 0.  1.
         -5    1    5    5    0  503 -0.36028005762E+02 -0.67671215657E+02  0.94549616941E+01  0.77387963717E+02  0.47000000000E+01 0.  1.
<mgrwt>
<rscale>  0 0.27537807E+03</rscale>
<asrwt>0</asrwt>
<pdfrwt beam="1">  1        1 0.26821047E-01 0.27537807E+03</pdfrwt>
<pdfrwt beam="2">  1       -1 0.16730012E-01 0.27537807E+03</pdfrwt>
<totfact> 0.46823169E+03</totfact>
</mgrwt>
</event>
<event>
 9    1  0.2031653E-002  0.2754375E+03  0.7818608E-02  0.1098207E+00
          1   -1    0    0  501    0  0.00000000000E+00  0.00000000000E+00  0.85663708176E+02  0.85663708176E+02  0.00000000000E+00 0.  1.
         -1   -1    0    0    0  501 -0.00000000000E+00 -0.00000000000E+00 -0.22140587757E+03  0.22140587757E+03  0.00000000000E+00 0.  1.
         36    2    1    2    0    0  0.00000000000E+00  0.00000000000E+00 -0.13574216939E+03  0.30706958575E+03  0.27543745921E+03 0.  0.
         25    2    3    3    0    0 -0.27573342409E+02 -0.54017923231E+02 -0.10141708461E+03  0.17283268293E+03  0.12612488253E+03 0.  0.
         25    2    3    3    0    0  0.27573342409E+02  0.54017923231E+02 -0.34325084779E+02  0.13423690282E+03  0.11473059484E+03 0.  0.
          5    1    4    4  502    0  0.29461572071E+01 -0.89986140678E+02 -0.81067443469E+02  0.12124440501E+03  0.47000000000E+01 0.  1.
         -5    1    4    4    0  502 -0.30519499617E+02  0.35968217447E+02 -0.20349641146E+02  0.51588277912E+02  0.47000000000E+01 0.  1.
          5    1    5    5  503    0  0.41700811515E+01 -0.35952245467E+02 -0.12992268365E+02  0.38740709444E+02  0.47000000000E+01 0. -1.
         -5    1    5    5    0  503  0.23403261258E+02  0.89970168699E+02 -0.21332816414E+02  0.95496193376E+02  0.47000000000E+01 0. -1.
<mgrwt>
<rscale>  0 0.27543746E+03</rscale>
<asrwt>0</asrwt>
<pdfrwt beam="1">  1        1 0.13179032E-01 0.27543746E+03</pdfrwt>
<pdfrwt beam="2">  1       -1 0.34062442E-01 0.27543746E+03</pdfrwt>
<totfact> 0.36118337E+03</totfact>
</mgrwt>
</event>
<event>
 9    1  0.2031653E-002  0.2758225E+03  0.7818608E-02  0.1097993E+00
          4   -1    0    0  501    0  0.00000000000E+00  0.00000000000E+00  0.69439445806E+02  0.69439445806E+02  0.00000000000E+00 0. -1.
         -4   -1    0    0    0  501 -0.00000000000E+00 -0.00000000000E+00 -0.27390061159E+03  0.27390061159E+03  0.00000000000E+00 0. -1.
         36    2    1    2    0    0  0.00000000000E+00  0.00000000000E+00 -0.20446116578E+03  0.34334005740E+03  0.27582245503E+03 0.  0.
         25    2    3    3    0    0  0.22672289900E+02  0.37374420589E+02 -0.14966418012E+03  0.20041454636E+03  0.12591959155E+03 0.  0.
         25    2    3    3    0    0 -0.22672289900E+02 -0.37374420589E+02 -0.54796985663E+02  0.14292551104E+03  0.12455565834E+03 0.  0.
          5    1    4    4  502    0 -0.17665568162E+02  0.39459459411E+02  0.18609118636E+01  0.43527855776E+02  0.47000000000E+01 0.  1.
         -5    1    4    4    0  502  0.40337858062E+02 -0.20850388220E+01 -0.15152509199E+03  0.15688669058E+03  0.47000000000E+01 0.  1.
          5    1    5    5  503    0  0.38487614792E+02 -0.39795618881E+02  0.67829120199E+01  0.55973973149E+02  0.47000000000E+01 0.  1.
         -5    1    5    5    0  503 -0.61159904692E+02  0.24211982928E+01 -0.61579897683E+02  0.86951537892E+02  0.47000000000E+01 0.  1.
<mgrwt>
<rscale>  0 0.27582246E+03</rscale>
<asrwt>0</asrwt>
<pdfrwt beam="1">  1        4 0.10682992E-01 0.27582246E+03</pdfrwt>
<pdfrwt beam="2">  1       -4 0.42138556E-01 0.27582246E+03</pdfrwt>
<totfact> 0.69749730E+02</totfact>
</mgrwt>
</event>
<event>
 9    1  0.2031653E-002  0.2744225E+03  0.7818608E-02  0.1098775E+00
         -2   -1    0    0    0  501 -0.00000000000E+00  0.00000000000E+00  0.11833064127E+03  0.11833064127E+03  0.00000000000E+00 0. -1.
          2   -1    0    0  501    0  0.00000000000E+00 -0.00000000000E+00 -0.15910442439E+03  0.15910442439E+03  0.00000000000E+00 0. -1.
         36    2    1    2    0    0  0.35527136788E-14 -0.14210854715E-13 -0.40773783118E+02  0.27743506565E+03  0.27442251049E+03 0.  0.
         25    2    3    3    0    0 -0.17441478955E+02  0.61709143789E+02 -0.24147009684E+02  0.14150396344E+03  0.12380658294E+03 0.  0.
         25    2    3    3    0    0  0.17441478955E+02 -0.61709143789E+02 -0.16626773435E+02  0.13593110221E+03  0.11869537201E+03 0.  0.
          5    1    4    4  502    0  0.52598997602E+01 -0.29260923836E+02 -0.35950735338E+02  0.46887243260E+02  0.47000000000E+01 0.  1.
         -5    1    4    4    0  502 -0.22701378715E+02  0.90970067625E+02  0.11803725655E+02  0.94616720185E+02  0.47000000000E+01 0.  1.
          5    1    5    5  503    0 -0.23139175957E+02 -0.25000735676E+02  0.42871571273E+02  0.54959256470E+02  0.47000000000E+01 0. -1.
         -5    1    5    5    0  503  0.40580654912E+02 -0.36708408113E+02 -0.59498344707E+02  0.80971845738E+02  0.47000000000E+01 0. -1.
<mgrwt>
<rscale>  0 0.27442251E+03</rscale>
<asrwt>0</asrwt>
<pdfrwt beam="1">  1        2 0.24477604E-01 0.27442251E+03</pdfrwt>
<pdfrwt beam="2">  1       -2 0.18204714E-01 0.27442251E+03</pdfrwt>
<totfact> 0.54024696E+03</totfact>
</mgrwt>
</event>
<event>
 9    1  0.2031653E-002  0.2748554E+03  0.7818608E-02  0.1098532E+00
         -1   -1    0    0    0  501 -0.00000000000E+00  0.00000000000E+00  0.40974631064E+02  0.40974631064E+02  0.00000000000E+00 0. -1.
          1   -1    0    0  501    0  0.00000000000E+00 -0.00000000000E+00 -0.46092844882E+03  0.46092844882E+03  0.00000000000E+00 0. -1.
         36    2    1    2    0    0 -0.71054273576E-14 -0.71054273576E-14 -0.41995381776E+03  0.50190307989E+03  0.27485540298E+03 0.  0.
         25    2    3    3    0    0  0.30274952847E+02  0.32771605028E+02 -0.14754734508E+03  0.19810026494E+03  0.12443048285E+03 0.  0.
         25    2    3    3    0    0 -0.30274952847E+02 -0.32771605028E+02 -0.27240647268E+03  0.30380281495E+03  0.12688700937E+03 0.  0.
          5    1    4    4  502    0  0.55341729016E+01 -0.15466497127E+02 -0.14242213579E+03  0.14344334898E+03  0.47000000000E+01 0. -1.
         -5    1    4    4    0  502  0.24740779946E+02  0.48238102155E+02 -0.51252092859E+01  0.54656915958E+02  0.47000000000E+01 0. -1.
          5    1    5    5  503    0 -0.93773479672E+01 -0.80717525404E+02 -0.15140571809E+03  0.17189832761E+03  0.47000000000E+01 0. -1.
         -5    1    5    5    0  503 -0.20897604880E+02  0.47945920377E+02 -0.12100075459E+03  0.13190448734E+03  0.47000000000E+01 0. -1.
<mgrwt>
<rscale>  0 0.27485540E+03</rscale>
<asrwt>0</asrwt>
<pdfrwt beam="1">  1        1 0.70912073E-01 0.27485540E+03</pdfrwt>
<pdfrwt beam="2">  1       -1 0.63037891E-02 0.27485540E+03</pdfrwt>
<totfact> 0.62059048E+03</totfact>
</mgrwt>
</event>
<event>
 9    1  0.2031653E-002  0.2749534E+03  0.7818608E-02  0.1098478E+00
         -2   -1    0    0    0  501 -0.00000000000E+00  0.00000000000E+00  0.44555319538E+02  0.44555319538E+02  0.00000000000E+00 0.  1.
          2   -1    0    0  501    0  0.00000000000E+00 -0.00000000000E+00 -0.42418835885E+03  0.42418835885E+03  0.00000000000E+00 0.  1.
         36    2    1    2    0    0  0.35527136788E-14  0.00000000000E+00 -0.37963303931E+03  0.46874367839E+03  0.27495343513E+03 0.  0.
         25    2    3    3    0    0 -0.25964577731E+02 -0.50865274078E+02 -0.22958358247E+03  0.26658049455E+03  0.12286213141E+03 0.  0.
         25    2    3    3    0    0  0.25964577731E+02  0.50865274078E+02 -0.15004945684E+03  0.20216318384E+03  0.12285633071E+03 0.  0.
          5    1    4    4  502    0 -0.30859923915E+02 -0.90242617849E+02 -0.16476015930E+03  0.19043126076E+03  0.47000000000E+01 0. -1.
         -5    1    4    4    0  502  0.48953461838E+01  0.39377343772E+02 -0.64823423161E+02  0.76149233792E+02  0.47000000000E+01 0. -1.
          5    1    5    5  503    0  0.44765147187E+02  0.47837723366E+01 -0.14502027480E+03  0.15192028497E+03  0.47000000000E+01 0.  1.
         -5    1    5    5    0  503 -0.18800569456E+02  0.46081501741E+02 -0.50291820393E+01  0.50242898867E+02  0.47000000000E+01 0.  1.
<mgrwt>
<rscale>  0 0.27495344E+03</rscale>
<asrwt>0</asrwt>
<pdfrwt beam="1">  1        2 0.65259750E-01 0.27495344E+03</pdfrwt>
<pdfrwt beam="2">  1       -2 0.68546642E-02 0.27495344E+03</pdfrwt>
<totfact> 0.89508663E+03</totfact>
</mgrwt>
</event>
<event>
 9    1  0.2031653E-002  0.2745454E+03  0.7818608E-02  0.1098706E+00
         -2   -1    0    0    0  501 -0.00000000000E+00  0.00000000000E+00  0.67257654097E+03  0.67257654097E+03  0.00000000000E+00 0. -1.
          2   -1    0    0  501    0  0.00000000000E+00 -0.00000000000E+00 -0.28017323768E+02  0.28017323768E+02  0.00000000000E+00 0. -1.
         36    2    1    2    0    0  0.00000000000E+00  0.00000000000E+00  0.64455921720E+03  0.70059386474E+03  0.27454540395E+03 0.  0.
         25    2    3    3    0    0  0.35565357359E+02 -0.17766344118E+02  0.23628595516E+03  0.26962036448E+03  0.12362665858E+03 0.  0.
         25    2    3    3    0    0 -0.35565357359E+02  0.17766344118E+02  0.40827326205E+03  0.43097350026E+03  0.13217626033E+03 0.  0.
          5    1    4    4  502    0  0.75874528674E+02 -0.32515200034E+01  0.19745350182E+03  0.21160692773E+03  0.47000000000E+01 0.  1.
         -5    1    4    4    0  502 -0.40309171315E+02 -0.14514824115E+02  0.38832453338E+02  0.58013436749E+02  0.47000000000E+01 0.  1.
          5    1    5    5  503    0 -0.37344086557E+02 -0.42762758024E+02  0.31188384245E+03  0.31704393301E+03  0.47000000000E+01 0.  1.
         -5    1    5    5    0  503  0.17787291984E+01  0.60529102143E+02  0.96389419596E+02  0.11392956725E+03  0.47000000000E+01 0.  1.
<mgrwt>
<rscale>  0 0.27454540E+03</rscale>
<asrwt>0</asrwt>
<pdfrwt beam="1">  1        2 0.43103580E-02 0.27454540E+03</pdfrwt>
<pdfrwt beam="2">  1       -2 0.10347330E+00 0.27454540E+03</pdfrwt>
<totfact> 0.15161478E+03</totfact>
</mgrwt>
</event>
<event>
 9    1  0.2031653E-002  0.2750713E+03  0.7818608E-02  0.1098412E+00
         -2   -1    0    0    0  501 -0.00000000000E+00  0.00000000000E+00  0.64145842250E+01  0.64145842250E+01  0.00000000000E+00 0.  1.
          2   -1    0    0  501    0  0.00000000000E+00 -0.00000000000E+00 -0.29489138600E+04  0.29489138600E+04  0.00000000000E+00 0.  1.
         36    2    1    2    0    0  0.35527136788E-14  0.14210854715E-13 -0.29424992758E+04  0.29553284442E+04  0.27507130950E+03 0.  0.
         25    2    3    3    0    0 -0.22513840481E+02 -0.42938855164E+02 -0.14045055535E+04  0.14116048632E+04  0.13282251990E+03 0.  0.
         25    2    3    3    0    0  0.22513840481E+02  0.42938855164E+02 -0.15379937223E+04  0.15437235810E+04  0.12372221490E+03 0.  0.
          5    1    4    4  502    0 -0.42284890550E+01 -0.72960081031E+02 -0.12814490568E+04  0.12835399599E+04  0.47000000000E+01 0.  1.
         -5    1    4    4    0  502 -0.18285351426E+02  0.30021225867E+02 -0.12305649665E+03  0.12806490326E+03  0.47000000000E+01 0.  1.
          5    1    5    5  503    0  0.58584264227E+02  0.51769745923E+02 -0.61444998926E+03  0.61942158657E+03  0.47000000000E+01 0. -1.
         -5    1    5    5    0  503 -0.36070423746E+02 -0.88308907590E+01 -0.92354373303E+03  0.92430199444E+03  0.47000000000E+01 0. -1.
<mgrwt>
<rscale>  0 0.27507131E+03</rscale>
<asrwt>0</asrwt>
<pdfrwt beam="1">  1        2 0.45367898E+00 0.27507131E+03</pdfrwt>
<pdfrwt beam="2">  1       -2 0.98685929E-03 0.27507131E+03</pdfrwt>
<totfact> 0.48541916E+03</totfact>
</mgrwt>
</event>
<event>
 9    1  0.2031653E-002  0.2752913E+03  0.7818608E-02  0.1098289E+00
          1   -1    0    0  501    0  0.00000000000E+00  0.00000000000E+00  0.36589873611E+03  0.36589873611E+03  0.00000000000E+00 0.  1.
         -1   -1    0    0    0  501 -0.00000000000E+00 -0.00000000000E+00 -0.51780249587E+02  0.51780249587E+02  0.00000000000E+00 0.  1.
         36    2    1    2    0    0 -0.35527136788E-14  0.00000000000E+00  0.31411848652E+03  0.41767898569E+03  0.27529132118E+03 0.  0.
         25    2    3    3    0    0  0.18905944000E+02  0.63420269246E+02  0.16184239079E+03  0.21413805888E+03  0.12362274684E+03 0.  0.
         25    2    3    3    0    0 -0.18905944000E+02 -0.63420269246E+02  0.15227609573E+03  0.20354092681E+03  0.11773416788E+03 0.  0.
          5    1    4    4  502    0 -0.11329399847E+02  0.49322637776E+02  0.17167677665E+03  0.17904212783E+03  0.47000000000E+01 0. -1.
         -5    1    4    4    0  502  0.30235343847E+02  0.14097631470E+02 -0.98343858643E+01  0.35095931046E+02  0.47000000000E+01 0. -1.
          5    1    5    5  503    0 -0.29414182861E+02 -0.64482821747E+02  0.16893699349E+03  0.18326217893E+03  0.47000000000E+01 0.  1.
         -5    1    5    5    0  503  0.10508238861E+02  0.10625525005E+01 -0.16660897760E+02  0.20278747889E+02  0.47000000000E+01 0.  1.
<mgrwt>
<rscale>  0 0.27529132E+03</rscale>
<asrwt>0</asrwt>
<pdfrwt beam="1">  1        1 0.56292112E-01 0.27529132E+03</pdfrwt>
<pdfrwt beam="2">  1       -1 0.79661925E-02 0.27529132E+03</pdfrwt>
<totfact> 0.58555734E+03</totfact>
</mgrwt>
</event>
<event>
 9    1  0.2031653E-002  0.2710874E+03  0.7818608E-02  0.1100659E+00
          2   -1    0    0  501    0  0.00000000000E+00  0.00000000000E+00  0.56268497197E+03  0.56268497197E+03  0.00000000000E+00 0.  1.
         -2   -1    0    0    0  501 -0.00000000000E+00 -0.00000000000E+00 -0.32650759789E+02  0.32650759789E+02  0.00000000000E+00 0.  1.
         36    2    1    2    0    0  0.35527136788E-14 -0.35527136788E-14  0.53003421218E+03  0.59533573176E+03  0.27108737969E+03 0.  0.
         25    2    3    3    0    0 -0.31129620890E+02 -0.25054178429E+02  0.19549242092E+03  0.23624875526E+03  0.12648882389E+03 0.  0.
         25    2    3    3    0    0  0.31129620890E+02  0.25054178429E+02  0.33454179126E+03  0.35908697651E+03  0.12421143845E+03 0.  0.
          5    1    4    4  502    0 -0.45717201291E+02  0.10386565886E+02  0.19175133774E+03  0.19745533361E+03  0.47000000000E+01 0. -1.
         -5    1    4    4    0  502  0.14587580401E+02 -0.35440744315E+02  0.37410831761E+01  0.38793421644E+02  0.47000000000E+01 0. -1.
          5    1    5    5  503    0  0.58184896742E+02  0.29975431930E+02  0.82072028890E+02  0.10508052462E+03  0.47000000000E+01 0.  1.
         -5    1    5    5    0  503 -0.27055275851E+02 -0.49212535006E+01  0.25246976237E+03  0.25400645189E+03  0.47000000000E+01 0.  1.
<mgrwt>
<rscale>  0 0.27108738E+03</rscale>
<asrwt>0</asrwt>
<pdfrwt beam="1">  1        2 0.86566912E-01 0.27108738E+03</pdfrwt>
<pdfrwt beam="2">  1       -2 0.50231942E-02 0.27108738E+03</pdfrwt>
<totfact> 0.10510259E+04</totfact>
</mgrwt>
</event>
<event>
 9    1  0.2031653E-002  0.2744546E+03  0.7818608E-02  0.1098757E+00
         -1   -1    0    0    0  501 -0.00000000000E+00  0.00000000000E+00  0.23536399214E+02  0.23536399214E+02  0.00000000000E+00 0. -1.
          1   -1    0    0  501    0  0.00000000000E+00 -0.00000000000E+00 -0.80009384161E+03  0.80009384161E+03  0.00000000000E+00 0. -1.
         36    2    1    2    0    0  0.00000000000E+00  0.00000000000E+00 -0.77655744240E+03  0.82363024083E+03  0.27445457231E+03 0.  0.
         25    2    3    3    0    0 -0.69680187867E+02 -0.40434391454E+02 -0.33413889765E+03  0.36608751756E+03  0.12601983573E+03 0.  0.
         25    2    3    3    0    0  0.69680187867E+02  0.40434391454E+02 -0.44241854475E+03  0.45754272327E+03  0.84385462513E+02 0.  0.
          5    1    4    4  502    0 -0.27282383410E+02 -0.56970659745E+02 -0.30575587807E+03  0.31224786868E+03  0.47000000000E+01 0.  1.
         -5    1    4    4    0  502 -0.42397804456E+02  0.16536268291E+02 -0.28383019576E+02  0.53839648884E+02  0.47000000000E+01 0.  1.
          5    1    5    5  503    0  0.52007175502E+02  0.65547518887E+02 -0.35533331351E+03  0.36508228829E+03  0.47000000000E+01 0.  1.
         -5    1    5    5    0  503  0.17673012365E+02 -0.25113127433E+02 -0.87085231243E+02  0.92460434977E+02  0.47000000000E+01 0.  1.
<mgrwt>
<rscale>  0 0.27445457E+03</rscale>
<asrwt>0</asrwt>
<pdfrwt beam="1">  1        1 0.12309136E+00 0.27445457E+03</pdfrwt>
<pdfrwt beam="2">  1       -1 0.36209846E-02 0.27445457E+03</pdfrwt>
<totfact> 0.65590122E+03</totfact>
</mgrwt>
</event>
<event>
 9    1  0.2031653E-002  0.2749765E+03  0.7818608E-02  0.1098465E+00
         -2   -1    0    0    0  501 -0.00000000000E+00  0.00000000000E+00  0.12163767053E+02  0.12163767053E+02  0.00000000000E+00 0. -1.
          2   -1    0    0  501    0  0.00000000000E+00 -0.00000000000E+00 -0.15540428317E+04  0.15540428317E+04  0.00000000000E+00 0. -1.
         36    2    1    2    0    0  0.00000000000E+00  0.00000000000E+00 -0.15418790647E+04  0.15662065988E+04  0.27497647169E+03 0.  0.
         25    2    3    3    0    0  0.38831384905E+02 -0.90940869019E+01 -0.10299116097E+04  0.10382126633E+04  0.12480797857E+03 0.  0.
         25    2    3    3    0    0 -0.38831384905E+02  0.90940869019E+01 -0.51196745495E+03  0.52799393548E+03  0.12278575694E+03 0.  0.
          5    1    4    4  502    0 -0.42600516208E+02 -0.48484290643E+01 -0.21966057881E+03  0.22385524593E+03  0.47000000000E+01 0.  1.
         -5    1    4    4    0  502  0.81431901113E+02 -0.42456578375E+01 -0.81025103091E+03  0.81435741737E+03  0.47000000000E+01 0.  1.
          5    1    5    5  503    0 -0.35739849045E+02 -0.37724994093E+02 -0.95152868442E+02  0.10852036842E+03  0.47000000000E+01 0.  1.
         -5    1    5    5    0  503 -0.30915358602E+01  0.46819080995E+02 -0.41681458650E+03  0.41947356706E+03  0.47000000000E+01 0.  1.
<mgrwt>
<rscale>  0 0.27497647E+03</rscale>
<asrwt>0</asrwt>
<pdfrwt beam="1">  1        2 0.23908337E+00 0.27497647E+03</pdfrwt>
<pdfrwt beam="2">  1       -2 0.18713499E-02 0.27497647E+03</pdfrwt>
<totfact> 0.10884135E+04</totfact>
</mgrwt>
</event>
<event>
 9    1  0.2031653E-002  0.2753705E+03  0.7818608E-02  0.1098245E+00
         -2   -1    0    0    0  501 -0.00000000000E+00  0.00000000000E+00  0.60432865730E+01  0.60432865730E+01  0.00000000000E+00 0. -1.
          2   -1    0    0  501    0  0.00000000000E+00 -0.00000000000E+00 -0.31369075909E+04  0.31369075909E+04  0.00000000000E+00 0. -1.
         36    2    1    2    0    0  0.00000000000E+00  0.35527136788E-14 -0.31308643043E+04  0.31429508775E+04  0.27537052511E+03 0.  0.
         25    2    3    3    0    0  0.32201332305E+02 -0.20269437092E+02 -0.98955670519E+03  0.99763104101E+03  0.12081988794E+03 0.  0.
         25    2    3    3    0    0 -0.32201332305E+02  0.20269437092E+02 -0.21413075992E+04  0.21453198365E+04  0.12550374778E+03 0.  0.
          5    1    4    4  502    0 -0.34117826009E+02  0.27825934498E+02 -0.31296240948E+03  0.31607889589E+03  0.47000000000E+01 0.  1.
         -5    1    4    4    0  502  0.66319158314E+02 -0.48095371590E+02 -0.67659429571E+03  0.68155214512E+03  0.47000000000E+01 0.  1.
          5    1    5    5  503    0 -0.84985090308E+01 -0.52926609156E+02 -0.81549648670E+03  0.81726988225E+03  0.47000000000E+01 0.  1.
         -5    1    5    5    0  503 -0.23702823275E+02  0.73196046248E+02 -0.13258111125E+04  0.13280499542E+04  0.47000000000E+01 0.  1.
<mgrwt>
<rscale>  0 0.27537053E+03</rscale>
<asrwt>0</asrwt>
<pdfrwt beam="1">  1        2 0.48260045E+00 0.27537053E+03</pdfrwt>
<pdfrwt beam="2">  1       -2 0.92973778E-03 0.27537053E+03</pdfrwt>
<totfact> 0.40859628E+03</totfact>
</mgrwt>
</event>
<event>
 9    1  0.2031653E-002  0.2751459E+03  0.7818608E-02  0.1098370E+00
         -2   -1    0    0    0  501 -0.00000000000E+00  0.00000000000E+00  0.12021362859E+03  0.12021362859E+03  0.00000000000E+00 0.  1.
          2   -1    0    0  501    0  0.00000000000E+00 -0.00000000000E+00 -0.15743899247E+03  0.15743899247E+03  0.00000000000E+00 0.  1.
         36    2    1    2    0    0  0.00000000000E+00  0.35527136788E-14 -0.37225363879E+02  0.27765262105E+03  0.27514587088E+03 0.  0.
         25    2    3    3    0    0  0.22439661470E+02 -0.30626859917E+02 -0.14554842678E+02  0.14042534824E+03  0.13440941941E+03 0.  0.
         25    2    3    3    0    0 -0.22439661470E+02  0.30626859917E+02 -0.22670521201E+02  0.13722727282E+03  0.12990700103E+03 0.  0.
          5    1    4    4  502    0  0.47300850764E+02 -0.10687333669E+02  0.49045850958E+02  0.69131578024E+02  0.47000000000E+01 0.  1.
         -5    1    4    4    0  502 -0.24861189294E+02 -0.19939526248E+02 -0.63600693636E+02  0.71293770213E+02  0.47000000000E+01 0.  1.
          5    1    5    5  503    0 -0.61780099894E+02 -0.10180033638E+02  0.20249209957E+02  0.65973739713E+02  0.47000000000E+01 0. -1.
         -5    1    5    5    0  503  0.39340438424E+02  0.40806893554E+02 -0.42919731158E+02  0.71253533103E+02  0.47000000000E+01 0. -1.
<mgrwt>
<rscale>  0 0.27514587E+03</rscale>
<asrwt>0</asrwt>
<pdfrwt beam="1">  1        2 0.24221383E-01 0.27514587E+03</pdfrwt>
<pdfrwt beam="2">  1       -2 0.18494405E-01 0.27514587E+03</pdfrwt>
<totfact> 0.53230321E+03</totfact>
</mgrwt>
</event>
<event>
 9    1  0.2031653E-002  0.2749234E+03  0.7818608E-02  0.1098494E+00
         -2   -1    0    0    0  501 -0.00000000000E+00  0.00000000000E+00  0.10211129523E+02  0.10211129523E+02  0.00000000000E+00 0.  1.
          2   -1    0    0  501    0  0.00000000000E+00 -0.00000000000E+00 -0.18505016907E+04  0.18505016907E+04  0.00000000000E+00 0.  1.
         36    2    1    2    0    0 -0.35527136788E-14  0.00000000000E+00 -0.18402905612E+04  0.18607128203E+04  0.27492335256E+03 0.  0.
         25    2    3    3    0    0  0.14190827355E+02 -0.33391115171E+02 -0.13209416145E+04  0.13276521652E+04  0.12828552860E+03 0.  0.
         25    2    3    3    0    0 -0.14190827355E+02  0.33391115171E+02 -0.51934894676E+03  0.53306065504E+03  0.11451631894E+03 0.  0.
          5    1    4    4  502    0  0.56124425318E+02 -0.38949969189E+01 -0.29106544256E+03  0.29648997280E+03  0.47000000000E+01 0. -1.
         -5    1    4    4    0  502 -0.41933597963E+02 -0.29496118252E+02 -0.10298761719E+04  0.10311621924E+04  0.47000000000E+01 0. -1.
          5    1    5    5  503    0  0.19618868945E+02  0.35535329917E+02 -0.47643684191E+03  0.47818596176E+03  0.47000000000E+01 0.  1.
         -5    1    5    5    0  503 -0.33809696301E+02 -0.21442147461E+01 -0.42912104844E+02  0.54874693283E+02  0.47000000000E+01 0.  1.
<mgrwt>
<rscale>  0 0.27492335E+03</rscale>
<asrwt>0</asrwt>
<pdfrwt beam="1">  1        2 0.28469232E+00 0.27492335E+03</pdfrwt>
<pdfrwt beam="2">  1       -2 0.15709444E-02 0.27492335E+03</pdfrwt>
<totfact> 0.98160522E+03</totfact>
</mgrwt>
</event>
<event>
 9    1  0.2031653E-002  0.2752965E+03  0.7818608E-02  0.1098286E+00
          2   -1    0    0  501    0  0.00000000000E+00  0.00000000000E+00  0.94403842866E+03  0.94403842866E+03  0.00000000000E+00 0. -1.
         -2   -1    0    0    0  501 -0.00000000000E+00 -0.00000000000E+00 -0.20070206822E+02  0.20070206822E+02  0.00000000000E+00 0. -1.
         36    2    1    2    0    0  0.71054273576E-14  0.00000000000E+00  0.92396822184E+03  0.96410863549E+03  0.27529654201E+03 0.  0.
         25    2    3    3    0    0 -0.42432515350E+01 -0.54830858478E+02  0.40286443453E+03  0.42500412974E+03  0.12371066834E+03 0.  0.
         25    2    3    3    0    0  0.42432515350E+01  0.54830858478E+02  0.52110378731E+03  0.53910450575E+03  0.12672838175E+03 0.  0.
          5    1    4    4  502    0  0.29970440038E+02  0.29944590912E+02  0.15582597020E+03  0.16155100986E+03  0.47000000000E+01 0. -1.
         -5    1    4    4    0  502 -0.34213691573E+02 -0.84775449391E+02  0.24703846433E+03  0.26345311987E+03  0.47000000000E+01 0. -1.
          5    1    5    5  503    0  0.53639108535E+02  0.30335054385E-01  0.32692208125E+03  0.33132656412E+03  0.47000000000E+01 0. -1.
         -5    1    5    5    0  503 -0.49395857000E+02  0.54800523424E+02  0.19418170606E+03  0.20777794162E+03  0.47000000000E+01 0. -1.
<mgrwt>
<rscale>  0 0.27529654E+03</rscale>
<asrwt>0</asrwt>
<pdfrwt beam="1">  1        2 0.14523665E+00 0.27529654E+03</pdfrwt>
<pdfrwt beam="2">  1       -2 0.30877249E-02 0.27529654E+03</pdfrwt>
<totfact> 0.11515610E+04</totfact>
</mgrwt>
</event>
<event>
 9    1  0.2031653E-002  0.2752498E+03  0.7818608E-02  0.1098312E+00
          4   -1    0    0  501    0  0.00000000000E+00  0.00000000000E+00  0.23143827868E+03  0.23143827868E+03  0.00000000000E+00 0.  1.
         -4   -1    0    0    0  501 -0.00000000000E+00 -0.00000000000E+00 -0.81838711310E+02  0.81838711310E+02  0.00000000000E+00 0.  1.
         36    2    1    2    0    0 -0.35527136788E-14  0.71054273576E-14  0.14959956737E+03  0.31327698999E+03  0.27524978092E+03 0.  0.
         25    2    3    3    0    0 -0.10981102788E+02 -0.59012969251E+02  0.65279832862E+02  0.15097083652E+03  0.12217864684E+03 0.  0.
         25    2    3    3    0    0  0.10981102788E+02  0.59012969251E+02  0.84319734506E+02  0.16230615347E+03  0.12502141683E+03 0.  0.
          5    1    4    4  502    0  0.11800769055E+02 -0.58225338528E+00 -0.32394417736E+02  0.34800653295E+02  0.47000000000E+01 0. -1.
         -5    1    4    4    0  502 -0.22781871843E+02 -0.58430715866E+02  0.97674250597E+02  0.11617018323E+03  0.47000000000E+01 0. -1.
          5    1    5    5  503    0 -0.39375800943E+02 -0.12255411297E+00  0.73807315215E+02  0.83785908712E+02  0.47000000000E+01 0. -1.
         -5    1    5    5    0  503  0.50356903730E+02  0.59135523364E+02  0.10512419291E+02  0.78520244754E+02  0.47000000000E+01 0. -1.
<mgrwt>
<rscale>  0 0.27524978E+03</rscale>
<asrwt>0</asrwt>
<pdfrwt beam="1">  1        4 0.35605889E-01 0.27524978E+03</pdfrwt>
<pdfrwt beam="2">  1       -4 0.12590571E-01 0.27524978E+03</pdfrwt>
<totfact> 0.73332148E+02</totfact>
</mgrwt>
</event>
<event>
 9    1  0.2031653E-002  0.2750202E+03  0.7818608E-02  0.1098440E+00
          1   -1    0    0  501    0  0.00000000000E+00  0.00000000000E+00  0.59467290855E+03  0.59467290855E+03  0.00000000000E+00 0.  1.
         -1   -1    0    0    0  501 -0.00000000000E+00 -0.00000000000E+00 -0.31797359289E+02  0.31797359289E+02  0.00000000000E+00 0.  1.
         36    2    1    2    0    0  0.71054273576E-14 -0.17763568394E-14  0.56287554926E+03  0.62647026784E+03  0.27502020386E+03 0.  0.
         25    2    3    3    0    0 -0.39466872909E+02 -0.55903870516E+01  0.29025498827E+03  0.32009882057E+03  0.12894343810E+03 0.  0.
         25    2    3    3    0    0  0.39466872909E+02  0.55903870516E+01  0.27262056099E+03  0.30637144727E+03  0.13398733875E+03 0.  0.
          5    1    4    4  502    0 -0.43791999244E+02 -0.77333410275E+01  0.30267969980E+03  0.30596508695E+03  0.47000000000E+01 0. -1.
         -5    1    4    4    0  502  0.43251263352E+01  0.21429539759E+01 -0.12424711526E+02  0.14133733621E+02  0.47000000000E+01 0. -1.
          5    1    5    5  503    0  0.80285336861E+02 -0.17804422238E+02  0.22348595410E+03  0.23818227148E+03  0.47000000000E+01 0.  1.
         -5    1    5    5    0  503 -0.40818463952E+02  0.23394809290E+02  0.49134606884E+02  0.68189175789E+02  0.47000000000E+01 0.  1.
<mgrwt>
<rscale>  0 0.27502020E+03</rscale>
<asrwt>0</asrwt>
<pdfrwt beam="1">  1        1 0.91488131E-01 0.27502020E+03</pdfrwt>
<pdfrwt beam="2">  1       -1 0.48919019E-02 0.27502020E+03</pdfrwt>
<totfact> 0.64532171E+03</totfact>
</mgrwt>
</event>
<event>
 9    1  0.2031653E-002  0.2756137E+03  0.7818608E-02  0.1098109E+00
         -2   -1    0    0    0  501 -0.00000000000E+00  0.00000000000E+00  0.12600189758E+02  0.12600189758E+02  0.00000000000E+00 0.  1.
          2   -1    0    0  501    0  0.00000000000E+00 -0.00000000000E+00 -0.15071777377E+04  0.15071777377E+04  0.00000000000E+00 0.  1.
         36    2    1    2    0    0  0.00000000000E+00 -0.71054273576E-14 -0.14945775479E+04  0.15197779274E+04  0.27561368249E+03 0.  0.
         25    2    3    3    0    0 -0.11277565557E+02 -0.27740976613E+02 -0.54517501627E+03  0.56147101658E+03  0.13090897150E+03 0.  0.
         25    2    3    3    0    0  0.11277565557E+02  0.27740976613E+02 -0.94940253162E+03  0.95830691083E+03  0.12684724291E+03 0.  0.
          5    1    4    4  502    0  0.47702873671E+02  0.15443218633E+02 -0.33792547822E+03  0.34165739563E+03  0.47000000000E+01 0.  1.
         -5    1    4    4    0  502 -0.58980439228E+02 -0.43184195246E+02 -0.20724953805E+03  0.21981362095E+03  0.47000000000E+01 0.  1.
          5    1    5    5  503    0 -0.35038613624E+02  0.62314816404E+02 -0.57354256650E+03  0.57800000551E+03  0.47000000000E+01 0. -1.
         -5    1    5    5    0  503  0.46316179182E+02 -0.34573839792E+02 -0.37585996513E+03  0.38030690532E+03  0.47000000000E+01 0. -1.
<mgrwt>
<rscale>  0 0.27561368E+03</rscale>
<asrwt>0</asrwt>
<pdfrwt beam="1">  1        2 0.23187344E+00 0.27561368E+03</pdfrwt>
<pdfrwt beam="2">  1       -2 0.19384912E-02 0.27561368E+03</pdfrwt>
<totfact> 0.10947536E+04</totfact>
</mgrwt>
</event>
<event>
 9    1  0.2031653E-002  0.2760324E+03  0.7818608E-02  0.1097876E+00
          2   -1    0    0  501    0  0.00000000000E+00  0.00000000000E+00  0.48539902362E+03  0.48539902362E+03  0.00000000000E+00 0.  1.
         -2   -1    0    0    0  501 -0.00000000000E+00 -0.00000000000E+00 -0.39242903599E+02  0.39242903599E+02  0.00000000000E+00 0.  1.
         36    2    1    2    0    0  0.71054273576E-14  0.71054273576E-14  0.44615612002E+03  0.52464192722E+03  0.27603236833E+03 0.  0.
         25    2    3    3    0    0 -0.34763314120E+02 -0.34749086893E+02  0.16376194016E+03  0.21141548488E+03  0.12434849076E+03 0.  0.
         25    2    3    3    0    0  0.34763314120E+02  0.34749086893E+02  0.28239417986E+03  0.31322644233E+03  0.12628675429E+03 0.  0.
          5    1    4    4  502    0 -0.11201138309E+02 -0.64451284566E+02  0.29665171385E+02  0.71982956142E+02  0.47000000000E+01 0.  1.
         -5    1    4    4    0  502 -0.23562175810E+02  0.29702197673E+02  0.13409676877E+03  0.13943252874E+03  0.47000000000E+01 0.  1.
          5    1    5    5  503    0 -0.31260651921E+02 -0.29101250097E+02  0.10385040477E+03  0.11238820084E+03  0.47000000000E+01 0.  1.
         -5    1    5    5    0  503  0.66023966041E+02  0.63850336990E+02  0.17854377509E+03  0.20083824150E+03  0.47000000000E+01 0.  1.
<mgrwt>
<rscale>  0 0.27603237E+03</rscale>
<asrwt>0</asrwt>
<pdfrwt beam="1">  1        2 0.74676769E-01 0.27603237E+03</pdfrwt>
<pdfrwt beam="2">  1       -2 0.60373701E-02 0.27603237E+03</pdfrwt>
<totfact> 0.93827208E+03</totfact>
</mgrwt>
</event>
<event>
 9    1  0.2031653E-002  0.2750068E+03  0.7818608E-02  0.1098448E+00
         -2   -1    0    0    0  501 -0.00000000000E+00  0.00000000000E+00  0.43868670010E+02  0.43868670010E+02  0.00000000000E+00 0.  1.
          2   -1    0    0  501    0  0.00000000000E+00 -0.00000000000E+00 -0.43099506099E+03  0.43099506099E+03  0.00000000000E+00 0.  1.
         36    2    1    2    0    0  0.35527136788E-14  0.00000000000E+00 -0.38712639098E+03  0.47486373100E+03  0.27500676433E+03 0.  0.
         25    2    3    3    0    0 -0.14193462302E+02 -0.85023175761E+00 -0.29049656837E+03  0.31551378239E+03  0.12230500143E+03 0.  0.
         25    2    3    3    0    0  0.14193462302E+02  0.85023175761E+00 -0.96629822604E+02  0.15934994861E+03  0.12590832474E+03 0.  0.
          5    1    4    4  502    0 -0.71572620815E+01 -0.60232760069E+02 -0.17664048933E+03  0.18682388567E+03  0.47000000000E+01 0. -1.
         -5    1    4    4    0  502 -0.70362002203E+01  0.59382528312E+02 -0.11385607905E+03  0.12868989672E+03  0.47000000000E+01 0. -1.
          5    1    5    5  503    0  0.32849578638E+02  0.39936582350E+02 -0.10297510065E+03  0.11532556863E+03  0.47000000000E+01 0. -1.
         -5    1    5    5    0  503 -0.18656116336E+02 -0.39086350593E+02  0.63452780410E+01  0.44024379982E+02  0.47000000000E+01 0. -1.
<mgrwt>
<rscale>  0 0.27500676E+03</rscale>
<asrwt>0</asrwt>
<pdfrwt beam="1">  1        2 0.66306932E-01 0.27500676E+03</pdfrwt>
<pdfrwt beam="2">  1       -2 0.67490262E-02 0.27500676E+03</pdfrwt>
<totfact> 0.90101019E+03</totfact>
</mgrwt>
</event>
<event>
 9    1  0.2031653E-002  0.2742260E+03  0.7818608E-02  0.1098885E+00
          2   -1    0    0  501    0  0.00000000000E+00  0.00000000000E+00  0.13078257797E+04  0.13078257797E+04  0.00000000000E+00 0. -1.
         -2   -1    0    0    0  501 -0.00000000000E+00 -0.00000000000E+00 -0.14374983480E+02  0.14374983480E+02  0.00000000000E+00 0. -1.
         36    2    1    2    0    0  0.00000000000E+00  0.00000000000E+00  0.12934507962E+04  0.13222007632E+04  0.27422599423E+03 0.  0.
         25    2    3    3    0    0  0.28304371745E+02  0.34375181918E+02  0.44964414388E+03  0.46826784136E+03  0.12293138140E+03 0.  0.
         25    2    3    3    0    0 -0.28304371745E+02 -0.34375181918E+02  0.84380665235E+03  0.85393292184E+03  0.12332468466E+03 0.  0.
          5    1    4    4  502    0  0.63664894966E+02  0.79343243142E+01  0.12480957040E+03  0.14041257499E+03  0.47000000000E+01 0.  1.
         -5    1    4    4    0  502 -0.35360523221E+02  0.26440857604E+02  0.32483457348E+03  0.32785526636E+03  0.47000000000E+01 0.  1.
          5    1    5    5  503    0 -0.66672669678E+02 -0.54141935216E+02  0.62176177712E+03  0.62768335291E+03  0.47000000000E+01 0.  1.
         -5    1    5    5    0  503  0.38368297932E+02  0.19766753297E+02  0.22204487523E+03  0.22624956893E+03  0.47000000000E+01 0.  1.
<mgrwt>
<rscale>  0 0.27422599E+03</rscale>
<asrwt>0</asrwt>
<pdfrwt beam="1">  1        2 0.20120387E+00 0.27422599E+03</pdfrwt>
<pdfrwt beam="2">  1       -2 0.22115369E-02 0.27422599E+03</pdfrwt>
<totfact> 0.11566761E+04</totfact>
</mgrwt>
</event>
<event>
 9    1  0.2031653E-002  0.2750868E+03  0.7818608E-02  0.1098403E+00
          4   -1    0    0  501    0  0.00000000000E+00  0.00000000000E+00  0.30826838811E+02  0.30826838811E+02  0.00000000000E+00 0.  1.
         -4   -1    0    0    0  501 -0.00000000000E+00 -0.00000000000E+00 -0.61369210713E+03  0.61369210713E+03  0.00000000000E+00 0.  1.
         36    2    1    2    0    0  0.00000000000E+00  0.71054273576E-14 -0.58286526832E+03  0.64451894594E+03  0.27508680569E+03 0.  0.
         25    2    3    3    0    0  0.22726393868E+01 -0.60051600946E+02 -0.34796376317E+03  0.37117520458E+03  0.11437172878E+03 0.  0.
         25    2    3    3    0    0 -0.22726393868E+01  0.60051600946E+02 -0.23490150514E+03  0.27334374136E+03  0.12620112582E+03 0.  0.
          5    1    4    4  502    0  0.41242612718E+02 -0.54690618130E+02 -0.30541906691E+03  0.31304139222E+03  0.47000000000E+01 0.  1.
         -5    1    4    4    0  502 -0.38969973331E+02 -0.53609828165E+01 -0.42544696268E+02  0.58133812353E+02  0.47000000000E+01 0.  1.
          5    1    5    5  503    0  0.42068882179E+02  0.78910915945E+02 -0.17255528680E+03  0.19440715138E+03  0.47000000000E+01 0. -1.
         -5    1    5    5    0  503 -0.44341521566E+02 -0.18859314998E+02 -0.62346218340E+02  0.78936589984E+02  0.47000000000E+01 0. -1.
<mgrwt>
<rscale>  0 0.27508681E+03</rscale>
<asrwt>0</asrwt>
<pdfrwt beam="1">  1        4 0.47425907E-02 0.27508681E+03</pdfrwt>
<pdfrwt beam="2">  1       -4 0.94414169E-01 0.27508681E+03</pdfrwt>
<totfact> 0.47532586E+02</totfact>
</mgrwt>
</event>
<event>
 9    1  0.2031653E-002  0.2750368E+03  0.7818608E-02  0.1098431E+00
          1   -1    0    0  501    0  0.00000000000E+00  0.00000000000E+00  0.16175524323E+03  0.16175524323E+03  0.00000000000E+00 0. -1.
         -1   -1    0    0    0  501 -0.00000000000E+00 -0.00000000000E+00 -0.11691310379E+03  0.11691310379E+03  0.00000000000E+00 0. -1.
         36    2    1    2    0    0  0.35527136788E-14 -0.17763568394E-14  0.44842139435E+02  0.27866834702E+03  0.27503677965E+03 0.  0.
         25    2    3    3    0    0  0.29830287529E+02  0.15552234777E+02  0.71554284706E+02  0.14795592969E+03  0.12505688070E+03 0.  0.
         25    2    3    3    0    0 -0.29830287529E+02 -0.15552234777E+02 -0.26712145271E+02  0.13071241733E+03  0.12345233606E+03 0.  0.
          5    1    4    4  502    0  0.25757755554E+02  0.29858707371E+02 -0.27098583066E+02  0.48077308381E+02  0.47000000000E+01 0.  1.
         -5    1    4    4    0  502  0.40725319749E+01 -0.14306472594E+02  0.98652867772E+02  0.99878621308E+02  0.47000000000E+01 0.  1.
          5    1    5    5  503    0  0.12908641342E+02  0.45852141232E+02 -0.28540409198E+02  0.55728779226E+02  0.47000000000E+01 0. -1.
         -5    1    5    5    0  503 -0.42738928870E+02 -0.61404376009E+02  0.18282639270E+01  0.74983638102E+02  0.47000000000E+01 0. -1.
<mgrwt>
<rscale>  0 0.27503678E+03</rscale>
<asrwt>0</asrwt>
<pdfrwt beam="1">  1        1 0.24885422E-01 0.27503678E+03</pdfrwt>
<pdfrwt beam="2">  1       -1 0.17986631E-01 0.27503678E+03</pdfrwt>
<totfact> 0.45845850E+03</totfact>
</mgrwt>
</event>
<event>
 9    1  0.2031653E-002  0.2709673E+03  0.7818608E-02  0.1100727E+00
          2   -1    0    0  501    0  0.00000000000E+00  0.00000000000E+00  0.63106190267E+03  0.63106190267E+03  0.00000000000E+00 0.  1.
         -2   -1    0    0    0  501 -0.00000000000E+00 -0.00000000000E+00 -0.29087186010E+02  0.29087186010E+02  0.00000000000E+00 0.  1.
         36    2    1    2    0    0  0.14210854715E-13  0.71054273576E-14  0.60197471666E+03  0.66014908868E+03  0.27096726700E+03 0.  0.
         25    2    3    3    0    0  0.38347399772E+02  0.12435173191E+02  0.36890378743E+03  0.39219099011E+03  0.12688030475E+03 0.  0.
         25    2    3    3    0    0 -0.38347399772E+02 -0.12435173191E+02  0.23307092922E+03  0.26795809857E+03  0.12591397039E+03 0.  0.
          5    1    4    4  502    0 -0.11583881384E+02 -0.42904652661E+02  0.23177133698E+03  0.23604033166E+03  0.47000000000E+01 0. -1.
         -5    1    4    4    0  502  0.49931281156E+02  0.55339825852E+02  0.13713245046E+03  0.15615065844E+03  0.47000000000E+01 0. -1.
          5    1    5    5  503    0  0.33153481144E+02  0.31355214934E+02  0.59418220932E+02  0.75066089509E+02  0.47000000000E+01 0.  1.
         -5    1    5    5    0  503 -0.71500880916E+02 -0.43790388124E+02  0.17365270829E+03  0.19289200906E+03  0.47000000000E+01 0.  1.
<mgrwt>
<rscale>  0 0.27096727E+03</rscale>
<asrwt>0</asrwt>
<pdfrwt beam="1">  1        2 0.97086436E-01 0.27096727E+03</pdfrwt>
<pdfrwt beam="2">  1       -2 0.44749522E-02 0.27096727E+03</pdfrwt>
<totfact> 0.10962813E+04</totfact>
</mgrwt>
</event>
<event>
 9    1  0.2031653E-002  0.2751537E+03  0.7818608E-02  0.1098366E+00
         -2   -1    0    0    0  501 -0.00000000000E+00  0.00000000000E+00  0.17824466698E+02  0.17824466698E+02  0.00000000000E+00 0. -1.
          2   -1    0    0  501    0  0.00000000000E+00 -0.00000000000E+00 -0.10618767967E+04  0.10618767967E+04  0.00000000000E+00 0. -1.
         36    2    1    2    0    0  0.00000000000E+00  0.00000000000E+00 -0.10440523300E+04  0.10797012634E+04  0.27515368506E+03 0.  0.
         25    2    3    3    0    0  0.32227354581E+02  0.46200552585E+02 -0.56778426430E+03  0.58431007797E+03  0.12596111696E+03 0.  0.
         25    2    3    3    0    0 -0.32227354581E+02 -0.46200552585E+02 -0.47626806570E+03  0.49539118543E+03  0.12412921796E+03 0.  0.
          5    1    4    4  502    0 -0.47846844457E+02  0.28308358121E+02 -0.23256694758E+03  0.23916554679E+03  0.47000000000E+01 0. -1.
         -5    1    4    4    0  502  0.80074199038E+02  0.17892194464E+02 -0.33521731672E+03  0.34514453118E+03  0.47000000000E+01 0. -1.
          5    1    5    5  503    0  0.41208580476E+02 -0.30681651340E+02 -0.28931567692E+03  0.29387950208E+03  0.47000000000E+01 0.  1.
         -5    1    5    5    0  503 -0.73435935057E+02 -0.15518901244E+02 -0.18695238878E+03  0.20151168334E+03  0.47000000000E+01 0.  1.
<mgrwt>
<rscale>  0 0.27515369E+03</rscale>
<asrwt>0</asrwt>
<pdfrwt beam="1">  1        2 0.16336571E+00 0.27515369E+03</pdfrwt>
<pdfrwt beam="2">  1       -2 0.27422249E-02 0.27515369E+03</pdfrwt>
<totfact> 0.11634876E+04</totfact>
</mgrwt>
</event>
<event>
 9    1  0.2031653E-002  0.2752750E+03  0.7818608E-02  0.1098298E+00
         -2   -1    0    0    0  501 -0.00000000000E+00  0.00000000000E+00  0.47967641224E+02  0.47967641224E+02  0.00000000000E+00 0.  1.
          2   -1    0    0  501    0  0.00000000000E+00 -0.00000000000E+00 -0.39493463164E+03  0.39493463164E+03  0.00000000000E+00 0.  1.
         36    2    1    2    0    0 -0.71054273576E-14  0.00000000000E+00 -0.34696699042E+03  0.44290227287E+03  0.27527500953E+03 0.  0.
         25    2    3    3    0    0  0.52940790685E+02 -0.78445816515E+01 -0.21497493543E+03  0.25403997941E+03  0.12432949568E+03 0.  0.
         25    2    3    3    0    0 -0.52940790685E+02  0.78445816515E+01 -0.13199205499E+03  0.18886229346E+03  0.12402741040E+03 0.  0.
          5    1    4    4  502    0 -0.28016908568E+02 -0.22335090823E+02 -0.13300867213E+03  0.13783033160E+03  0.47000000000E+01 0.  1.
         -5    1    4    4    0  502  0.80957699253E+02  0.14490509172E+02 -0.81966263298E+02  0.11620964781E+03  0.47000000000E+01 0.  1.
          5    1    5    5  503    0 -0.65469359318E+02 -0.42051549034E+02 -0.52231833200E+02  0.93834024666E+02  0.47000000000E+01 0. -1.
         -5    1    5    5    0  503  0.12528568633E+02  0.49896130685E+02 -0.79760221791E+02  0.95028268791E+02  0.47000000000E+01 0. -1.
<mgrwt>
<rscale>  0 0.27527501E+03</rscale>
<asrwt>0</asrwt>
<pdfrwt beam="1">  1        2 0.60759172E-01 0.27527501E+03</pdfrwt>
<pdfrwt beam="2">  1       -2 0.73796373E-02 0.27527501E+03</pdfrwt>
<totfact> 0.86300057E+03</totfact>
</mgrwt>
</event>
<event>
 9    1  0.2031653E-002  0.2753753E+03  0.7818608E-02  0.1098242E+00
          1   -1    0    0  501    0  0.00000000000E+00  0.00000000000E+00  0.12550038368E+04  0.12550038368E+04  0.00000000000E+00 0. -1.
         -1   -1    0    0    0  501 -0.00000000000E+00 -0.00000000000E+00 -0.15105837186E+02  0.15105837186E+02  0.00000000000E+00 0. -1.
         36    2    1    2    0    0  0.14210854715E-13  0.00000000000E+00  0.12398979996E+04  0.12701096740E+04  0.27537526125E+03 0.  0.
         25    2    3    3    0    0  0.53719063214E+02 -0.41537173201E+02  0.62007267478E+03  0.63583019989E+03  0.12320246171E+03 0.  0.
         25    2    3    3    0    0 -0.53719063214E+02  0.41537173201E+02  0.61982532487E+03  0.63427947413E+03  0.11625808981E+03 0.  0.
          5    1    4    4  502    0  0.12913162173E+02  0.41898577884E+02  0.27185507657E+03  0.27540790338E+03  0.47000000000E+01 0. -1.
         -5    1    4    4    0  502  0.40805901040E+02 -0.83435751085E+02  0.34821759821E+03  0.36042229651E+03  0.47000000000E+01 0. -1.
          5    1    5    5  503    0  0.29354177071E+02  0.22926452170E+02  0.88153764866E+02  0.95814749285E+02  0.47000000000E+01 0.  1.
         -5    1    5    5    0  503 -0.83073240284E+02  0.18610721031E+02  0.53167156000E+03  0.53846472485E+03  0.47000000000E+01 0.  1.
<mgrwt>
<rscale>  0 0.27537526E+03</rscale>
<asrwt>0</asrwt>
<pdfrwt beam="1">  1        1 0.19307743E+00 0.27537526E+03</pdfrwt>
<pdfrwt beam="2">  1       -1 0.23239759E-02 0.27537526E+03</pdfrwt>
<totfact> 0.57642019E+03</totfact>
</mgrwt>
</event>
<event>
 9    1  0.2031653E-002  0.2747446E+03  0.7818608E-02  0.1098594E+00
         -2   -1    0    0    0  501 -0.00000000000E+00  0.00000000000E+00  0.29339886247E+02  0.29339886247E+02  0.00000000000E+00 0. -1.
          2   -1    0    0  501    0  0.00000000000E+00 -0.00000000000E+00 -0.64319073016E+03  0.64319073016E+03  0.00000000000E+00 0. -1.
         36    2    1    2    0    0  0.00000000000E+00  0.71054273576E-14 -0.61385084392E+03  0.67253061641E+03  0.27474455669E+03 0.  0.
         25    2    3    3    0    0  0.10178151617E+02 -0.25055751320E+02 -0.40189044286E+03  0.42287633988E+03  0.12875203034E+03 0.  0.
         25    2    3    3    0    0 -0.10178151617E+02  0.25055751320E+02 -0.21196040105E+03  0.24965427653E+03  0.12910716763E+03 0.  0.
          5    1    4    4  502    0 -0.87571481869E+00 -0.72472686906E+02 -0.31400709693E+03  0.32229738465E+03  0.47000000000E+01 0.  1.
         -5    1    4    4    0  502  0.11053866435E+02  0.47416935586E+02 -0.87883345929E+02  0.10057895523E+03  0.47000000000E+01 0.  1.
          5    1    5    5  503    0 -0.14033434893E+02  0.36432999255E+02 -0.20813763466E+01  0.39379218595E+02  0.47000000000E+01 0. -1.
         -5    1    5    5    0  503  0.38552832762E+01 -0.11377247936E+02 -0.20987902471E+03  0.21027505794E+03  0.47000000000E+01 0. -1.
<mgrwt>
<rscale>  0 0.27474456E+03</rscale>
<asrwt>0</asrwt>
<pdfrwt beam="1">  1        2 0.98952424E-01 0.27474456E+03</pdfrwt>
<pdfrwt beam="2">  1       -2 0.45138285E-02 0.27474456E+03</pdfrwt>
<totfact> 0.10585652E+04</totfact>
</mgrwt>
</event>
<event>
 9    1  0.2031653E-002  0.2774107E+03  0.7818608E-02  0.1097112E+00
         -2   -1    0    0    0  501 -0.00000000000E+00  0.00000000000E+00  0.97896587156E+01  0.97896587156E+01  0.00000000000E+00 0.  1.
          2   -1    0    0  501    0  0.00000000000E+00 -0.00000000000E+00 -0.19652543202E+04  0.19652543202E+04  0.00000000000E+00 0.  1.
         36    2    1    2    0    0 -0.35527136788E-14  0.00000000000E+00 -0.19554646615E+04  0.19750439789E+04  0.27741066370E+03 0.  0.
         25    2    3    3    0    0 -0.20209310024E+02  0.32127967786E+02 -0.62444059965E+03  0.63771338262E+03  0.12374034652E+03 0.  0.
         25    2    3    3    0    0  0.20209310024E+02 -0.32127967786E+02 -0.13310240618E+04  0.13373305963E+04  0.12404615300E+03 0.  0.
          5    1    4    4  502    0  0.18436261315E+02 -0.12329508395E+01 -0.52925699524E+03  0.52960029542E+03  0.47000000000E+01 0. -1.
         -5    1    4    4    0  502 -0.38645571339E+02  0.33360918625E+02 -0.95183604406E+02  0.10811308720E+03  0.47000000000E+01 0. -1.
          5    1    5    5  503    0  0.44930393673E+02 -0.66976310836E+02 -0.10420749458E+04  0.10452018222E+04  0.47000000000E+01 0. -1.
         -5    1    5    5    0  503 -0.24721083649E+02  0.34848343050E+02 -0.28894911606E+03  0.29212877411E+03  0.47000000000E+01 0. -1.
<mgrwt>
<rscale>  0 0.27741066E+03</rscale>
<asrwt>0</asrwt>
<pdfrwt beam="1">  1        2 0.30234639E+00 0.27741066E+03</pdfrwt>
<pdfrwt beam="2">  1       -2 0.15061035E-02 0.27741066E+03</pdfrwt>
<totfact> 0.90889394E+03</totfact>
</mgrwt>
</event>
<event>
 9    1  0.2031653E-002  0.2748349E+03  0.7818608E-02  0.1098544E+00
         -1   -1    0    0    0  501 -0.00000000000E+00  0.00000000000E+00  0.33623893778E+02  0.33623893778E+02  0.00000000000E+00 0.  1.
          1   -1    0    0  501    0  0.00000000000E+00 -0.00000000000E+00 -0.56161100274E+03  0.56161100274E+03  0.00000000000E+00 0.  1.
         36    2    1    2    0    0  0.35527136788E-14 -0.71054273576E-14 -0.52798710897E+03  0.59523489652E+03  0.27483485005E+03 0.  0.
         25    2    3    3    0    0  0.13045706531E+02  0.19696605688E+02 -0.32112097171E+03  0.34464265295E+03  0.12288910864E+03 0.  0.
         25    2    3    3    0    0 -0.13045706531E+02 -0.19696605688E+02 -0.20686613725E+03  0.25059224357E+03  0.13944435113E+03 0.  0.
          5    1    4    4  502    0 -0.26721326010E+01 -0.46714031292E+02 -0.69690873285E+02  0.84072878097E+02  0.47000000000E+01 0.  1.
         -5    1    4    4    0  502  0.15717839132E+02  0.66410636980E+02 -0.25143009843E+03  0.26056977485E+03  0.47000000000E+01 0.  1.
          5    1    5    5  503    0  0.24044936506E+02  0.43362430027E+02 -0.27658026961E+02  0.56969428335E+02  0.47000000000E+01 0. -1.
         -5    1    5    5    0  503 -0.37090643037E+02 -0.63059035715E+02 -0.17920811029E+03  0.19362281524E+03  0.47000000000E+01 0. -1.
<mgrwt>
<rscale>  0 0.27483485E+03</rscale>
<asrwt>0</asrwt>
<pdfrwt beam="1">  1        1 0.86401688E-01 0.27483485E+03</pdfrwt>
<pdfrwt beam="2">  1       -1 0.51729070E-02 0.27483485E+03</pdfrwt>
<totfact> 0.64205368E+03</totfact>
</mgrwt>
</event>
<event>
 9    1  0.2031653E-002  0.2756540E+03  0.7818608E-02  0.1098087E+00
          2   -1    0    0  501    0  0.00000000000E+00  0.00000000000E+00  0.64746635306E+03  0.64746635306E+03  0.00000000000E+00 0.  1.
         -2   -1    0    0    0  501 -0.00000000000E+00 -0.00000000000E+00 -0.29339403496E+02  0.29339403496E+02  0.00000000000E+00 0.  1.
         36    2    1    2    0    0  0.35527136788E-14 -0.71054273576E-14  0.61812694956E+03  0.67680575655E+03  0.27565396121E+03 0.  0.
         25    2    3    3    0    0 -0.29895946721E+02  0.39393112733E+02  0.22901769165E+03  0.26546724509E+03  0.12481254009E+03 0.  0.
         25    2    3    3    0    0  0.29895946721E+02 -0.39393112733E+02  0.38910925791E+03  0.41133851146E+03  0.12388612295E+03 0.  0.
          5    1    4    4  502    0 -0.72514119826E+02  0.66376551206E+01  0.17265485535E+03  0.18744104438E+03  0.47000000000E+01 0.  1.
         -5    1    4    4    0  502  0.42618173105E+02  0.32755457612E+02  0.56362836298E+02  0.78026200713E+02  0.47000000000E+01 0.  1.
          5    1    5    5  503    0  0.42932650419E+02  0.33799384564E+02  0.21655055636E+03  0.22338720717E+03  0.47000000000E+01 0.  1.
         -5    1    5    5    0  503 -0.13036703698E+02 -0.73192497296E+02  0.17255870155E+03  0.18795130429E+03  0.47000000000E+01 0.  1.
<mgrwt>
<rscale>  0 0.27565396E+03</rscale>
<asrwt>0</asrwt>
<pdfrwt beam="1">  1        2 0.99610197E-01 0.27565396E+03</pdfrwt>
<pdfrwt beam="2">  1       -2 0.45137549E-02 0.27565396E+03</pdfrwt>
<totfact> 0.10504472E+04</totfact>
</mgrwt>
</event>
<event>
 9    1  0.2031653E-002  0.2766295E+03  0.7818608E-02  0.1097544E+00
          1   -1    0    0  501    0  0.00000000000E+00  0.00000000000E+00  0.84166376662E+03  0.84166376662E+03  0.00000000000E+00 0. -1.
         -1   -1    0    0    0  501 -0.00000000000E+00 -0.00000000000E+00 -0.22729948653E+02  0.22729948653E+02  0.00000000000E+00 0. -1.
         36    2    1    2    0    0 -0.71054273576E-14  0.00000000000E+00  0.81893381796E+03  0.86439371527E+03  0.27662952986E+03 0.  0.
         25    2    3    3    0    0  0.47690961778E+02  0.15210341519E+02  0.51333868926E+03  0.53040450766E+03  0.12371964084E+03 0.  0.
         25    2    3    3    0    0 -0.47690961778E+02 -0.15210341519E+02  0.30559512870E+03  0.33398920761E+03  0.12511844703E+03 0.  0.
          5    1    4    4  502    0  0.83851601686E+02  0.28633386737E+02  0.27617541049E+03  0.29007914317E+03  0.47000000000E+01 0.  1.
         -5    1    4    4    0  502 -0.36160639908E+02 -0.13423045218E+02  0.23716327877E+03  0.24032536450E+03  0.47000000000E+01 0.  1.
          5    1    5    5  503    0 -0.48055555213E+02 -0.59058631089E+02  0.11252028909E+03  0.13594176602E+03  0.47000000000E+01 0. -1.
         -5    1    5    5    0  503  0.36459343466E+00  0.43848289570E+02  0.19307483961E+03  0.19804744159E+03  0.47000000000E+01 0. -1.
<mgrwt>
<rscale>  0 0.27662953E+03</rscale>
<asrwt>0</asrwt>
<pdfrwt beam="1">  1        1 0.12948671E+00 0.27662953E+03</pdfrwt>
<pdfrwt beam="2">  1       -1 0.34969158E-02 0.27662953E+03</pdfrwt>
<totfact> 0.63841052E+03</totfact>
</mgrwt>
</event>
<event>
 9    1  0.2031653E-002  0.2741537E+03  0.7818608E-02  0.1098926E+00
          2   -1    0    0  501    0  0.00000000000E+00  0.00000000000E+00  0.56147822720E+03  0.56147822720E+03  0.00000000000E+00 0. -1.
         -2   -1    0    0    0  501 -0.00000000000E+00 -0.00000000000E+00 -0.33465341052E+02  0.33465341052E+02  0.00000000000E+00 0. -1.
         36    2    1    2    0    0 -0.71054273576E-14 -0.35527136788E-14  0.52801288614E+03  0.59494356825E+03  0.27415368220E+03 0.  0.
         25    2    3    3    0    0  0.45896662110E+02  0.31895596493E+02  0.27213444362E+03  0.30553027855E+03  0.12715251881E+03 0.  0.
         25    2    3    3    0    0 -0.45896662110E+02 -0.31895596493E+02  0.25587844252E+03  0.28941328970E+03  0.12313586901E+03 0.  0.
          5    1    4    4  502    0  0.33587550115E+02  0.62630188506E+02  0.67319346768E+02  0.98003308538E+02  0.47000000000E+01 0. -1.
         -5    1    4    4    0  502  0.12309111994E+02 -0.30734592013E+02  0.20481509685E+03  0.20752697002E+03  0.47000000000E+01 0. -1.
          5    1    5    5  503    0  0.34290807445E+02 -0.10421061095E+02  0.15261155992E+03  0.15683378530E+03  0.47000000000E+01 0.  1.
         -5    1    5    5    0  503 -0.80187469555E+02 -0.21474535398E+02  0.10326688260E+03  0.13257950440E+03  0.47000000000E+01 0.  1.
<mgrwt>
<rscale>  0 0.27415368E+03</rscale>
<asrwt>0</asrwt>
<pdfrwt beam="1">  1        2 0.86381259E-01 0.27415368E+03</pdfrwt>
<pdfrwt beam="2">  1       -2 0.51485144E-02 0.27415368E+03</pdfrwt>
<totfact> 0.10153033E+04</totfact>
</mgrwt>
</event>
<event>
 9    1  0.2031653E-002  0.2754939E+03  0.7818608E-02  0.1098176E+00
         -2   -1    0    0    0  501 -0.00000000000E+00  0.00000000000E+00  0.10663983651E+03  0.10663983651E+03  0.00000000000E+00 0. -1.
          2   -1    0    0  501    0  0.00000000000E+00 -0.00000000000E+00 -0.17792811711E+03  0.17792811711E+03  0.00000000000E+00 0. -1.
         36    2    1    2    0    0 -0.71054273576E-14  0.00000000000E+00 -0.71288280598E+02  0.28456795362E+03  0.27549392240E+03 0.  0.
         25    2    3    3    0    0  0.31921682710E+02  0.31815888138E+02  0.54199795784E+01  0.13065535994E+03  0.12251613093E+03 0.  0.
         25    2    3    3    0    0 -0.31921682710E+02 -0.31815888138E+02 -0.76708260177E+02  0.15391259368E+03  0.12559333083E+03 0.  0.
          5    1    4    4  502    0  0.58243208406E+02 -0.17463446788E+02 -0.26100258381E+02  0.66336692612E+02  0.47000000000E+01 0.  1.
         -5    1    4    4    0  502 -0.26321525696E+02  0.49279334926E+02  0.31520237960E+02  0.64318667327E+02  0.47000000000E+01 0.  1.
          5    1    5    5  503    0  0.21137362533E+02  0.16916245621E+02  0.19452632328E+02  0.33666635788E+02  0.47000000000E+01 0. -1.
         -5    1    5    5    0  503 -0.53059045243E+02 -0.48732133759E+02 -0.96160892505E+02  0.12024595790E+03  0.47000000000E+01 0. -1.
<mgrwt>
<rscale>  0 0.27549392E+03</rscale>
<asrwt>0</asrwt>
<pdfrwt beam="1">  1        2 0.27373556E-01 0.27549392E+03</pdfrwt>
<pdfrwt beam="2">  1       -2 0.16406129E-01 0.27549392E+03</pdfrwt>
<totfact> 0.56809768E+03</totfact>
</mgrwt>
</event>
<event>
 9    1  0.2031653E-002  0.2747868E+03  0.7818608E-02  0.1098571E+00
          3   -1    0    0  501    0  0.00000000000E+00  0.00000000000E+00  0.29660236063E+03  0.29660236063E+03  0.00000000000E+00 0. -1.
         -3   -1    0    0    0  501 -0.00000000000E+00 -0.00000000000E+00 -0.63643938349E+02  0.63643938349E+02  0.00000000000E+00 0. -1.
         36    2    1    2    0    0  0.00000000000E+00 -0.71054273576E-14  0.23295842228E+03  0.36024629897E+03  0.27478677082E+03 0.  0.
         25    2    3    3    0    0  0.10188446391E+02 -0.32103653752E+02  0.15083324739E+03  0.20009600061E+03  0.12709560149E+03 0.  0.
         25    2    3    3    0    0 -0.10188446391E+02  0.32103653752E+02  0.82125174886E+02  0.16015029836E+03  0.13330088031E+03 0.  0.
          5    1    4    4  502    0 -0.67502992742E+00  0.77452936250E+01 -0.21224851366E+02  0.23087432820E+02  0.47000000000E+01 0.  1.
         -5    1    4    4    0  502  0.10863476319E+02 -0.39848947377E+02  0.17205809876E+03  0.17700856779E+03  0.47000000000E+01 0.  1.
          5    1    5    5  503    0 -0.36175765993E+02 -0.37536268218E+02  0.65487672936E+02  0.83835450637E+02  0.47000000000E+01 0.  1.
         -5    1    5    5    0  503  0.25987319602E+02  0.69639921970E+02  0.16637501950E+02  0.76314847724E+02  0.47000000000E+01 0.  1.
<mgrwt>
<rscale>  0 0.27478677E+03</rscale>
<asrwt>0</asrwt>
<pdfrwt beam="1">  1        3 0.45631132E-01 0.27478677E+03</pdfrwt>
<pdfrwt beam="2">  1       -3 0.97913753E-02 0.27478677E+03</pdfrwt>
<totfact> 0.93202900E+02</totfact>
</mgrwt>
</event>
<event>
 9    1  0.2031653E-002  0.2744528E+03  0.7818608E-02  0.1098758E+00
         -2   -1    0    0    0  501 -0.00000000000E+00  0.00000000000E+00  0.29421332551E+02  0.29421332551E+02  0.00000000000E+00 0.  1.
          2   -1    0    0  501    0  0.00000000000E+00 -0.00000000000E+00 -0.64004870791E+03  0.64004870791E+03  0.00000000000E+00 0.  1.
         36    2    1    2    0    0  0.71054273576E-14 -0.71054273576E-14 -0.61062737535E+03  0.66947004046E+03  0.27445280749E+03 0.  0.
         25    2    3    3    0    0 -0.24182672616E+02  0.55322106139E+02 -0.30687100010E+03  0.33555133044E+03  0.12157116260E+03 0.  0.
         25    2    3    3    0    0  0.24182672616E+02 -0.55322106139E+02 -0.30375637526E+03  0.33391871002E+03  0.12485364355E+03 0.  0.
          5    1    4    4  502    0 -0.19764440418E+02  0.38722643317E+02 -0.31351028237E+03  0.31654519956E+03  0.47000000000E+01 0.  1.
         -5    1    4    4    0  502 -0.44182321976E+01  0.16599462823E+02  0.66392822782E+01  0.19006130877E+02  0.47000000000E+01 0.  1.
          5    1    5    5  503    0  0.68242109692E+01 -0.87081559132E+02 -0.27138234626E+03  0.28513196183E+03  0.47000000000E+01 0. -1.
         -5    1    5    5    0  503  0.17358461646E+02  0.31759452993E+02 -0.32374028997E+02  0.48786748186E+02  0.47000000000E+01 0. -1.
<mgrwt>
<rscale>  0 0.27445281E+03</rscale>
<asrwt>0</asrwt>
<pdfrwt beam="1">  1        2 0.98469036E-01 0.27445281E+03</pdfrwt>
<pdfrwt beam="2">  1       -2 0.45263587E-02 0.27445281E+03</pdfrwt>
<totfact> 0.10602148E+04</totfact>
</mgrwt>
</event>
<event>
 9    1  0.2031653E-002  0.2744312E+03  0.7818608E-02  0.1098770E+00
          4   -1    0    0  501    0  0.00000000000E+00  0.00000000000E+00  0.33810120381E+03  0.33810120381E+03  0.00000000000E+00 0.  1.
         -4   -1    0    0    0  501 -0.00000000000E+00 -0.00000000000E+00 -0.55687835271E+02  0.55687835271E+02  0.00000000000E+00 0.  1.
         36    2    1    2    0    0  0.00000000000E+00 -0.71054273576E-14  0.28241336854E+03  0.39378903908E+03  0.27443122375E+03 0.  0.
         25    2    3    3    0    0  0.18424289282E+01  0.21114251593E+02  0.21945314392E+03  0.25293254236E+03  0.12395960005E+03 0.  0.
         25    2    3    3    0    0 -0.18424289282E+01 -0.21114251593E+02  0.62960224615E+02  0.14085649671E+03  0.12420691051E+03 0.  0.
          5    1    4    4  502    0 -0.28722671676E+02  0.57667390411E+02  0.66702653820E+02  0.92853938051E+02  0.47000000000E+01 0.  1.
         -5    1    4    4    0  502  0.30565100604E+02 -0.36553138818E+02  0.15275049010E+03  0.16007860431E+03  0.47000000000E+01 0.  1.
          5    1    5    5  503    0 -0.15066398930E+02 -0.68892663159E+02  0.56814482855E+02  0.90681700888E+02  0.47000000000E+01 0.  1.
         -5    1    5    5    0  503  0.13223970002E+02  0.47778411567E+02  0.61457417600E+01  0.50174795826E+02  0.47000000000E+01 0.  1.
<mgrwt>
<rscale>  0 0.27443122E+03</rscale>
<asrwt>0</asrwt>
<pdfrwt beam="1">  1        4 0.52015569E-01 0.27443122E+03</pdfrwt>
<pdfrwt beam="2">  1       -4 0.85673595E-02 0.27443122E+03</pdfrwt>
<totfact> 0.65981157E+02</totfact>
</mgrwt>
</event>
<event>
 9    1  0.2031653E-002  0.2732187E+03  0.7818608E-02  0.1099451E+00
         -1   -1    0    0    0  501 -0.00000000000E+00  0.00000000000E+00  0.64341024887E+02  0.64341024887E+02  0.00000000000E+00 0. -1.
          1   -1    0    0  501    0  0.00000000000E+00 -0.00000000000E+00 -0.29004997534E+03  0.29004997534E+03  0.00000000000E+00 0. -1.
         36    2    1    2    0    0  0.00000000000E+00  0.35527136788E-14 -0.22570895045E+03  0.35439100023E+03  0.27321868664E+03 0.  0.
         25    2    3    3    0    0 -0.53409881977E+01  0.20423717821E+02 -0.18244730098E+03  0.22325517299E+03  0.12692596356E+03 0.  0.
         25    2    3    3    0    0  0.53409881977E+01 -0.20423717821E+02 -0.43261649474E+02  0.13113582724E+03  0.12198106601E+03 0.  0.
          5    1    4    4  502    0 -0.35274617516E+02 -0.11541180303E+02 -0.19499489841E+01  0.37461844385E+02  0.47000000000E+01 0.  1.
         -5    1    4    4    0  502  0.29933629319E+02  0.31964898123E+02 -0.18049735199E+03  0.18579332860E+03  0.47000000000E+01 0.  1.
          5    1    5    5  503    0 -0.57226646234E+02 -0.14999706393E+02 -0.10932940019E+02  0.60344837463E+02  0.47000000000E+01 0. -1.
         -5    1    5    5    0  503  0.62567634431E+02 -0.54240114277E+01 -0.32328709455E+02  0.70790989775E+02  0.47000000000E+01 0. -1.
<mgrwt>
<rscale>  0 0.27321869E+03</rscale>
<asrwt>0</asrwt>
<pdfrwt beam="1">  1        1 0.44623073E-01 0.27321869E+03</pdfrwt>
<pdfrwt beam="2">  1       -1 0.98986193E-02 0.27321869E+03</pdfrwt>
<totfact> 0.56239670E+03</totfact>
</mgrwt>
</event>
<event>
 9    1  0.2031653E-002  0.2730405E+03  0.7818608E-02  0.1099552E+00
          1   -1    0    0  501    0  0.00000000000E+00  0.00000000000E+00  0.36686394681E+03  0.36686394681E+03  0.00000000000E+00 0. -1.
         -1   -1    0    0    0  501 -0.00000000000E+00 -0.00000000000E+00 -0.50802958548E+02  0.50802958548E+02  0.00000000000E+00 0. -1.
         36    2    1    2    0    0  0.00000000000E+00  0.00000000000E+00  0.31606098826E+03  0.41766690536E+03  0.27304046500E+03 0.  0.
         25    2    3    3    0    0 -0.19200538398E+02  0.29917214864E+01  0.76734702507E+02  0.14665092567E+03  0.12345310186E+03 0.  0.
         25    2    3    3    0    0  0.19200538398E+02 -0.29917214864E+01  0.23932628575E+03  0.27101597968E+03  0.12567807732E+03 0.  0.
          5    1    4    4  502    0 -0.29757713497E+02  0.57302964597E+02  0.60967903052E+02  0.88928771872E+02  0.47000000000E+01 0. -1.
         -5    1    4    4    0  502  0.10557175099E+02 -0.54311243110E+02  0.15766799455E+02  0.57722153800E+02  0.47000000000E+01 0. -1.
          5    1    5    5  503    0  0.29287143849E+02  0.26626734005E+02  0.12183730423E+02  0.41680367628E+02  0.47000000000E+01 0. -1.
         -5    1    5    5    0  503 -0.10086605452E+02 -0.29618455491E+02  0.22714255533E+03  0.22933561206E+03  0.47000000000E+01 0. -1.
<mgrwt>
<rscale>  0 0.27304047E+03</rscale>
<asrwt>0</asrwt>
<pdfrwt beam="1">  1        1 0.56440606E-01 0.27304047E+03</pdfrwt>
<pdfrwt beam="2">  1       -1 0.78158400E-02 0.27304047E+03</pdfrwt>
<totfact> 0.60065931E+03</totfact>
</mgrwt>
</event>
<event>
 9    1  0.2031653E-002  0.2747088E+03  0.7818608E-02  0.1098614E+00
         -1   -1    0    0    0  501 -0.00000000000E+00  0.00000000000E+00  0.12684320563E+03  0.12684320563E+03  0.00000000000E+00 0. -1.
          1   -1    0    0  501    0  0.00000000000E+00 -0.00000000000E+00 -0.14873668466E+03  0.14873668466E+03  0.00000000000E+00 0. -1.
         36    2    1    2    0    0 -0.35527136788E-14  0.71054273576E-14 -0.21893479027E+02  0.27557989029E+03  0.27470884862E+03 0.  0.
         25    2    3    3    0    0  0.24774669381E+02  0.42331385154E+02  0.22922599371E+02  0.13685304884E+03  0.12568842827E+03 0.  0.
         25    2    3    3    0    0 -0.24774669381E+02 -0.42331385154E+02 -0.44816078398E+02  0.13872684145E+03  0.12178228625E+03 0.  0.
          5    1    4    4  502    0  0.60185610865E+02  0.56415055014E+02  0.43406114434E+02  0.93333525368E+02  0.47000000000E+01 0. -1.
         -5    1    4    4    0  502 -0.35410941483E+02 -0.14083669860E+02 -0.20483515063E+02  0.43519523467E+02  0.47000000000E+01 0. -1.
          5    1    5    5  503    0 -0.34837850795E+02  0.30621968599E+02 -0.45196022629E+02  0.64931897172E+02  0.47000000000E+01 0.  1.
         -5    1    5    5    0  503  0.10063181413E+02 -0.72953353753E+02  0.37994423108E+00  0.73794944282E+02  0.47000000000E+01 0.  1.
<mgrwt>
<rscale>  0 0.27470885E+03</rscale>
<asrwt>0</asrwt>
<pdfrwt beam="1">  1        1 0.22882567E-01 0.27470885E+03</pdfrwt>
<pdfrwt beam="2">  1       -1 0.19514339E-01 0.27470885E+03</pdfrwt>
<totfact> 0.44726650E+03</totfact>
</mgrwt>
</event>
<event>
 9    1  0.2031653E-002  0.2752709E+03  0.7818608E-02  0.1098300E+00
          2   -1    0    0  501    0  0.00000000000E+00  0.00000000000E+00  0.25453009092E+04  0.25453009092E+04  0.00000000000E+00 0. -1.
         -2   -1    0    0    0  501 -0.00000000000E+00 -0.00000000000E+00 -0.74425434594E+01  0.74425434594E+01  0.00000000000E+00 0. -1.
         36    2    1    2    0    0  0.00000000000E+00  0.71054273576E-14  0.25378583658E+04  0.25527434527E+04  0.27527086758E+03 0.  0.
         25    2    3    3    0    0  0.38601003827E+02 -0.32317524657E+02  0.95438165546E+03  0.96342151564E+03  0.12166434408E+03 0.  0.
         25    2    3    3    0    0 -0.38601003827E+02  0.32317524657E+02  0.15834767103E+04  0.15893219370E+04  0.12653563766E+03 0.  0.
          5    1    4    4  502    0  0.65642934347E+02 -0.39435710493E+02  0.88706464183E+03  0.89037629061E+03  0.47000000000E+01 0. -1.
         -5    1    4    4    0  502 -0.27041930519E+02  0.71181858357E+01  0.67317013634E+02  0.73045225035E+02  0.47000000000E+01 0. -1.
          5    1    5    5  503    0 -0.25193771857E+02 -0.35301606559E+02  0.11072293010E+04  0.11080883288E+04  0.47000000000E+01 0.  1.
         -5    1    5    5    0  503 -0.13407231971E+02  0.67619131217E+02  0.47624740932E+03  0.48123360820E+03  0.47000000000E+01 0.  1.
<mgrwt>
<rscale>  0 0.27527087E+03</rscale>
<asrwt>0</asrwt>
<pdfrwt beam="1">  1        2 0.39158406E+00 0.27527087E+03</pdfrwt>
<pdfrwt beam="2">  1       -2 0.11450087E-02 0.27527087E+03</pdfrwt>
<totfact> 0.66297852E+03</totfact>
</mgrwt>
</event>
<event>
 9    1  0.2031653E-002  0.2751711E+03  0.7818608E-02  0.1098356E+00
          2   -1    0    0  501    0  0.00000000000E+00  0.00000000000E+00  0.78773177938E+03  0.78773177938E+03  0.00000000000E+00 0.  1.
         -2   -1    0    0    0  501 -0.00000000000E+00 -0.00000000000E+00 -0.24030746465E+02  0.24030746465E+02  0.00000000000E+00 0.  1.
         36    2    1    2    0    0  0.35527136788E-14  0.14210854715E-13  0.76370103291E+03  0.81176252584E+03  0.27517109349E+03 0.  0.
         25    2    3    3    0    0 -0.83540155130E+01 -0.67093597686E+02  0.45672690343E+03  0.47406828973E+03  0.10756364899E+03 0.  0.
         25    2    3    3    0    0  0.83540155130E+01  0.67093597686E+02  0.30697412948E+03  0.33769423611E+03  0.12342179916E+03 0.  0.
          5    1    4    4  502    0  0.10743109567E+02  0.21417062124E+02  0.20616572154E+03  0.20760659838E+03  0.47000000000E+01 0. -1.
         -5    1    4    4    0  502 -0.19097125080E+02 -0.88510659809E+02  0.25056118189E+03  0.26646169135E+03  0.47000000000E+01 0. -1.
          5    1    5    5  503    0  0.73751196044E+01 -0.35854534296E+02  0.66238088497E+02  0.75825552333E+02  0.47000000000E+01 0.  1.
         -5    1    5    5    0  503  0.97889590859E+00  0.10294813198E+03  0.24073604098E+03  0.26186868378E+03  0.47000000000E+01 0.  1.
<mgrwt>
<rscale>  0 0.27517109E+03</rscale>
<asrwt>0</asrwt>
<pdfrwt beam="1">  1        2 0.12118948E+00 0.27517109E+03</pdfrwt>
<pdfrwt beam="2">  1       -2 0.36970385E-02 0.27517109E+03</pdfrwt>
<totfact> 0.11161796E+04</totfact>
</mgrwt>
</event>
<event>
 9    1  0.2031653E-002  0.2752617E+03  0.7818608E-02  0.1098305E+00
         -2   -1    0    0    0  501 -0.00000000000E+00  0.00000000000E+00  0.16368140707E+02  0.16368140707E+02  0.00000000000E+00 0.  1.
          2   -1    0    0  501    0  0.00000000000E+00 -0.00000000000E+00 -0.11572637978E+04  0.11572637978E+04  0.00000000000E+00 0.  1.
         36    2    1    2    0    0  0.00000000000E+00  0.71054273576E-14 -0.11408956571E+04  0.11736319385E+04  0.27526174219E+03 0.  0.
         25    2    3    3    0    0  0.23668749451E+02 -0.53496762480E+02 -0.60730807383E+03  0.62238636482E+03  0.12296169027E+03 0.  0.
         25    2    3    3    0    0 -0.23668749451E+02  0.53496762480E+02 -0.53358758326E+03  0.55124557369E+03  0.12543468502E+03 0.  0.
          5    1    4    4  502    0 -0.47884256820E+01 -0.31101600860E+02 -0.29384365608E+02  0.43310155146E+02  0.47000000000E+01 0. -1.
         -5    1    4    4    0  502  0.28457175133E+02 -0.22395161620E+02 -0.57792370823E+03  0.57907620967E+03  0.47000000000E+01 0. -1.
          5    1    5    5  503    0 -0.76700053358E+01  0.61997861569E+02 -0.52801271918E+03  0.53171617000E+03  0.47000000000E+01 0. -1.
         -5    1    5    5    0  503 -0.15998744115E+02 -0.85010990888E+01 -0.55748640775E+01  0.19529403689E+02  0.47000000000E+01 0. -1.
<mgrwt>
<rscale>  0 0.27526174E+03</rscale>
<asrwt>0</asrwt>
<pdfrwt beam="1">  1        2 0.17804056E+00 0.27526174E+03</pdfrwt>
<pdfrwt beam="2">  1       -2 0.25181759E-02 0.27526174E+03</pdfrwt>
<totfact> 0.11608451E+04</totfact>
</mgrwt>
</event>
<event>
 8    1  0.2031653E-002  0.3564825E+03  0.7818608E-02  0.1059985E+00
         -3   -1    0    0    0  501 -0.00000000000E+00  0.00000000000E+00  0.60030738617E+02  0.60030738617E+02  0.00000000000E+00 0. -1.
          3   -1    0    0  501    0  0.00000000000E+00 -0.00000000000E+00 -0.52922791364E+03  0.52922791364E+03  0.00000000000E+00 0. -1.
         25    2    1    2    0    0 -0.15402516194E+02  0.71377233479E+02 -0.40489598555E+03  0.43055469661E+03  0.12690406096E+03 0.  0.
         25    2    1    2    0    0  0.15402516194E+02 -0.71377233479E+02 -0.64301189467E+02  0.15870395565E+03  0.12538084227E+03 0.  0.
          5    1    3    3  502    0 -0.12568328551E+02  0.60623846453E+00  0.51682603142E+01  0.14392057613E+02  0.47000000000E+01 0.  1.
         -5    1    3    3    0  502 -0.28341876427E+01  0.70770995014E+02 -0.41006424587E+03  0.41616263899E+03  0.47000000000E+01 0.  1.
          5    1    4    4  503    0  0.16160405458E+02  0.17804923945E+02 -0.64923617328E+02  0.69392651687E+02  0.47000000000E+01 0.  1.
         -5    1    4    4    0  503 -0.75788926391E+00 -0.89182157423E+02  0.62242786031E+00  0.89311303961E+02  0.47000000000E+01 0.  1.
<mgrwt>
<rscale>  0 0.35648250E+03</rscale>
<asrwt>0</asrwt>
<pdfrwt beam="1">  1        3 0.81419679E-01 0.35648250E+03</pdfrwt>
<pdfrwt beam="2">  1       -3 0.92354983E-02 0.35648250E+03</pdfrwt>
<totfact> 0.31287925E+02</totfact>
</mgrwt>
</event>
<event>
 9    1  0.2031653E-002  0.2773384E+03  0.7818608E-02  0.1097152E+00
         -1   -1    0    0    0  501 -0.00000000000E+00  0.00000000000E+00  0.81253454138E+01  0.81253454138E+01  0.00000000000E+00 0. -1.
          1   -1    0    0  501    0  0.00000000000E+00 -0.00000000000E+00 -0.23665642683E+04  0.23665642683E+04  0.00000000000E+00 0. -1.
         36    2    1    2    0    0  0.71054273576E-14  0.00000000000E+00 -0.23584389229E+04  0.23746896138E+04  0.27733843675E+03 0.  0.
         25    2    3    3    0    0 -0.12098254367E+02 -0.57919256478E+02 -0.12768071384E+04  0.12841699813E+04  0.12391555265E+03 0.  0.
         25    2    3    3    0    0  0.12098254367E+02  0.57919256478E+02 -0.10816317846E+04  0.10905196325E+04  0.12571691783E+03 0.  0.
          5    1    4    4  502    0  0.55348028566E+02 -0.25263813261E+02 -0.48894659051E+03  0.49273981258E+03  0.47000000000E+01 0. -1.
         -5    1    4    4    0  502 -0.67446282934E+02 -0.32655443218E+02 -0.78786054785E+03  0.79143016869E+03  0.47000000000E+01 0. -1.
          5    1    5    5  503    0  0.20530105557E+02  0.52346404945E+02 -0.10769545503E+04  0.10784316505E+04  0.47000000000E+01 0.  1.
         -5    1    5    5    0  503 -0.84318511898E+01  0.55728515337E+01 -0.46772342701E+01  0.12087982012E+02  0.47000000000E+01 0.  1.
<mgrwt>
<rscale>  0 0.27733844E+03</rscale>
<asrwt>0</asrwt>
<pdfrwt beam="1">  1        1 0.36408735E+00 0.27733844E+03</pdfrwt>
<pdfrwt beam="2">  1       -1 0.12500513E-02 0.27733844E+03</pdfrwt>
<totfact> 0.26443730E+03</totfact>
</mgrwt>
</event>
<event>
 9    1  0.2031653E-002  0.2741616E+03  0.7818608E-02  0.1098921E+00
          4   -1    0    0  501    0  0.00000000000E+00  0.00000000000E+00  0.13204703520E+03  0.13204703520E+03  0.00000000000E+00 0.  1.
         -4   -1    0    0    0  501 -0.00000000000E+00 -0.00000000000E+00 -0.14230650374E+03  0.14230650374E+03  0.00000000000E+00 0.  1.
         36    2    1    2    0    0  0.00000000000E+00 -0.35527136788E-14 -0.10259468549E+02  0.27435353894E+03  0.27416164508E+03 0.  0.
         25    2    3    3    0    0 -0.71111363800E+02  0.12572343946E+02  0.30321332311E+02  0.14409974783E+03  0.12095645596E+03 0.  0.
         25    2    3    3    0    0  0.71111363800E+02 -0.12572343946E+02 -0.40580800859E+02  0.13025379111E+03  0.10052043974E+03 0.  0.
          5    1    4    4  502    0 -0.38273108751E+02  0.52354725965E+02 -0.23747166851E+02  0.69223306175E+02  0.47000000000E+01 0. -1.
         -5    1    4    4    0  502 -0.32838255049E+02 -0.39782382019E+02  0.54068499162E+02  0.74876441658E+02  0.47000000000E+01 0. -1.
          5    1    5    5  503    0  0.71973455372E+02 -0.37083908632E+02  0.17330163958E+01  0.81120206505E+02  0.47000000000E+01 0.  1.
         -5    1    5    5    0  503 -0.86209157148E+00  0.24511564686E+02 -0.42313817255E+02  0.49133584603E+02  0.47000000000E+01 0.  1.
<mgrwt>
<rscale>  0 0.27416165E+03</rscale>
<asrwt>0</asrwt>
<pdfrwt beam="1">  1        4 0.20314928E-01 0.27416165E+03</pdfrwt>
<pdfrwt beam="2">  1       -4 0.21893308E-01 0.27416165E+03</pdfrwt>
<totfact> 0.78679985E+02</totfact>
</mgrwt>
</event>
<event>
 9    1  0.2031653E-002  0.2749513E+03  0.7818608E-02  0.1098479E+00
          2   -1    0    0  501    0  0.00000000000E+00  0.00000000000E+00  0.25231526073E+04  0.25231526073E+04  0.00000000000E+00 0.  1.
         -2   -1    0    0    0  501 -0.00000000000E+00 -0.00000000000E+00 -0.74904534479E+01  0.74904534479E+01  0.00000000000E+00 0.  1.
         36    2    1    2    0    0  0.00000000000E+00  0.00000000000E+00  0.25156621539E+04  0.25306430608E+04  0.27495132040E+03 0.  0.
         25    2    3    3    0    0  0.58260111391E+01  0.55316166150E+02  0.10771143633E+04  0.10852845257E+04  0.12072004633E+03 0.  0.
         25    2    3    3    0    0 -0.58260111391E+01 -0.55316166150E+02  0.14385477906E+04  0.14453585351E+04  0.12863797384E+03 0.  0.
          5    1    4    4  502    0  0.42144864505E+02  0.74551957782E+02  0.56141611659E+03  0.56792986361E+03  0.47000000000E+01 0.  1.
         -5    1    4    4    0  502 -0.36318853366E+02 -0.19235791632E+02  0.51569824668E+03  0.51735466212E+03  0.47000000000E+01 0.  1.
          5    1    5    5  503    0  0.72371499333E+01  0.38081571034E+02  0.24613290242E+03  0.24921091077E+03  0.47000000000E+01 0. -1.
         -5    1    5    5    0  503 -0.13063161072E+02 -0.93397737184E+02  0.11924148882E+04  0.11961476243E+04  0.47000000000E+01 0. -1.
<mgrwt>
<rscale>  0 0.27495132E+03</rscale>
<asrwt>0</asrwt>
<pdfrwt beam="1">  1        2 0.38817665E+00 0.27495132E+03</pdfrwt>
<pdfrwt beam="2">  1       -2 0.11523795E-02 0.27495132E+03</pdfrwt>
<totfact> 0.67551763E+03</totfact>
</mgrwt>
</event>
<event>
 9    1  0.2031653E-002  0.2750190E+03  0.7818608E-02  0.1098441E+00
         -1   -1    0    0    0  501 -0.00000000000E+00  0.00000000000E+00  0.24058706754E+03  0.24058706754E+03  0.00000000000E+00 0.  1.
          1   -1    0    0  501    0  0.00000000000E+00 -0.00000000000E+00 -0.78594676062E+02  0.78594676062E+02  0.00000000000E+00 0.  1.
         36    2    1    2    0    0  0.00000000000E+00 -0.14210854715E-13  0.16199239147E+03  0.31918174360E+03  0.27501900034E+03 0.  0.
         25    2    3    3    0    0 -0.70718960418E+01  0.49296296965E+02  0.71255653100E+02  0.15171362661E+03  0.12433631727E+03 0.  0.
         25    2    3    3    0    0  0.70718960418E+01 -0.49296296965E+02  0.90736738373E+02  0.16746811699E+03  0.13165210940E+03 0.  0.
          5    1    4    4  502    0 -0.24344913257E+02  0.27838104764E+02  0.10293081197E+03  0.10947363578E+03  0.47000000000E+01 0. -1.
         -5    1    4    4    0  502  0.17273017216E+02  0.21458192201E+02 -0.31675158865E+02  0.42239990831E+02  0.47000000000E+01 0. -1.
          5    1    5    5  503    0  0.88241134548E+01  0.30056783278E+02  0.81478862949E+02  0.87419507587E+02  0.47000000000E+01 0.  1.
         -5    1    5    5    0  503 -0.17522174130E+01 -0.79353080243E+02  0.92578754247E+01  0.80048609403E+02  0.47000000000E+01 0.  1.
<mgrwt>
<rscale>  0 0.27501900E+03</rscale>
<asrwt>0</asrwt>
<pdfrwt beam="1">  1        1 0.12091489E-01 0.27501900E+03</pdfrwt>
<pdfrwt beam="2">  1       -1 0.37013395E-01 0.27501900E+03</pdfrwt>
<totfact> 0.35032344E+03</totfact>
</mgrwt>
</event>
<event>
 9    1  0.2031653E-002  0.2751336E+03  0.7818608E-02  0.1098377E+00
         -2   -1    0    0    0  501 -0.00000000000E+00  0.00000000000E+00  0.19636839568E+02  0.19636839568E+02  0.00000000000E+00 0. -1.
          2   -1    0    0  501    0  0.00000000000E+00 -0.00000000000E+00 -0.96373068782E+03  0.96373068782E+03  0.00000000000E+00 0. -1.
         36    2    1    2    0    0 -0.71054273576E-14 -0.71054273576E-14 -0.94409384826E+03  0.98336752739E+03  0.27513360321E+03 0.  0.
         25    2    3    3    0    0  0.19311979751E+02 -0.40412610659E+02 -0.30193264446E+03  0.32786414493E+03  0.11968894718E+03 0.  0.
         25    2    3    3    0    0 -0.19311979751E+02  0.40412610659E+02 -0.64216120379E+03  0.65550338246E+03  0.12372364810E+03 0.  0.
          5    1    4    4  502    0  0.59227317791E+02 -0.56308012483E+02 -0.22769321768E+03  0.24196024223E+03  0.47000000000E+01 0.  1.
         -5    1    4    4    0  502 -0.39915338041E+02  0.15895401824E+02 -0.74239426785E+02  0.85903902702E+02  0.47000000000E+01 0.  1.
          5    1    5    5  503    0  0.49312448365E+02  0.16075660035E+02 -0.37339193947E+03  0.37700633267E+03  0.47000000000E+01 0.  1.
         -5    1    5    5    0  503 -0.68624428116E+02  0.24336950624E+02 -0.26876926432E+03  0.27849704979E+03  0.47000000000E+01 0.  1.
<mgrwt>
<rscale>  0 0.27513360E+03</rscale>
<asrwt>0</asrwt>
<pdfrwt beam="1">  1        2 0.14826625E+00 0.27513360E+03</pdfrwt>
<pdfrwt beam="2">  1       -2 0.30210525E-02 0.27513360E+03</pdfrwt>
<totfact> 0.11562547E+04</totfact>
</mgrwt>
</event>
<event>
 9    1  0.2031653E-002  0.2750105E+03  0.7818608E-02  0.1098446E+00
          1   -1    0    0  501    0  0.00000000000E+00  0.00000000000E+00  0.13339638759E+04  0.13339638759E+04  0.00000000000E+00 0. -1.
         -1   -1    0    0    0  501 -0.00000000000E+00 -0.00000000000E+00 -0.14174065207E+02  0.14174065207E+02  0.00000000000E+00 0. -1.
         36    2    1    2    0    0  0.71054273576E-14  0.00000000000E+00  0.13197898107E+04  0.13481379411E+04  0.27501047952E+03 0.  0.
         25    2    3    3    0    0  0.50352894071E+02 -0.35926084933E+02  0.67667540636E+03  0.69046302695E+03  0.12257034101E+03 0.  0.
         25    2    3    3    0    0 -0.50352894071E+02  0.35926084933E+02  0.64311440434E+03  0.65767491416E+03  0.12293924569E+03 0.  0.
          5    1    4    4  502    0  0.66979404553E+02 -0.25653959434E+02  0.66119900884E+03  0.66509441853E+03  0.47000000000E+01 0.  1.
         -5    1    4    4    0  502 -0.16626510482E+02 -0.10272125499E+02  0.15476397522E+02  0.25368608423E+02  0.47000000000E+01 0.  1.
          5    1    5    5  503    0 -0.89126228154E+00  0.69242848666E+02  0.45540460237E+03  0.46066344364E+03  0.47000000000E+01 0.  1.
         -5    1    5    5    0  503 -0.49461631790E+02 -0.33316763733E+02  0.18770980196E+03  0.19701147053E+03  0.47000000000E+01 0.  1.
<mgrwt>
<rscale>  0 0.27501048E+03</rscale>
<asrwt>0</asrwt>
<pdfrwt beam="1">  1        1 0.20522511E+00 0.27501048E+03</pdfrwt>
<pdfrwt beam="2">  1       -1 0.21806265E-02 0.27501048E+03</pdfrwt>
<totfact> 0.55873304E+03</totfact>
</mgrwt>
</event>
<event>
 9    1  0.2031653E-002  0.2752515E+03  0.7818608E-02  0.1098311E+00
         -2   -1    0    0    0  501 -0.00000000000E+00  0.00000000000E+00  0.13257501090E+02  0.13257501090E+02  0.00000000000E+00 0.  1.
          2   -1    0    0  501    0  0.00000000000E+00 -0.00000000000E+00 -0.14286895874E+04  0.14286895874E+04  0.00000000000E+00 0.  1.
         36    2    1    2    0    0  0.00000000000E+00 -0.71054273576E-14 -0.14154320863E+04  0.14419470885E+04  0.27525154867E+03 0.  0.
         25    2    3    3    0    0  0.28413583938E+02  0.44607918419E+02 -0.51031758459E+03  0.52743254754E+03  0.12232684464E+03 0.  0.
         25    2    3    3    0    0 -0.28413583938E+02 -0.44607918419E+02 -0.90511450172E+03  0.91451454095E+03  0.11961348693E+03 0.  0.
          5    1    4    4  502    0 -0.46948296962E+02  0.29815063853E+02 -0.19203052461E+03  0.19997723120E+03  0.47000000000E+01 0.  1.
         -5    1    4    4    0  502  0.75361880900E+02  0.14792854566E+02 -0.31828705999E+03  0.32745531633E+03  0.47000000000E+01 0.  1.
          5    1    5    5  503    0 -0.48544903154E+02  0.22673145493E+02 -0.25560104765E+03  0.26119851590E+03  0.47000000000E+01 0. -1.
         -5    1    5    5    0  503  0.20131319217E+02 -0.67281063912E+02 -0.64951345407E+03  0.65331602505E+03  0.47000000000E+01 0. -1.
<mgrwt>
<rscale>  0 0.27525155E+03</rscale>
<asrwt>0</asrwt>
<pdfrwt beam="1">  1        2 0.21979850E+00 0.27525155E+03</pdfrwt>
<pdfrwt beam="2">  1       -2 0.20396146E-02 0.27525155E+03</pdfrwt>
<totfact> 0.11194642E+04</totfact>
</mgrwt>
</event>
<event>
 9    1  0.2031653E-002  0.2761117E+03  0.7818608E-02  0.1097832E+00
          2   -1    0    0  501    0  0.00000000000E+00  0.00000000000E+00  0.63627228690E+02  0.63627228690E+02  0.00000000000E+00 0. -1.
         -2   -1    0    0    0  501 -0.00000000000E+00 -0.00000000000E+00 -0.29954811134E+03  0.29954811134E+03  0.00000000000E+00 0. -1.
         36    2    1    2    0    0  0.35527136788E-14  0.00000000000E+00 -0.23592088265E+03  0.36317534003E+03  0.27611168888E+03 0.  0.
         25    2    3    3    0    0  0.19183353001E+02  0.22319896858E+02 -0.93858435077E+02  0.17138484231E+03  0.14034664053E+03 0.  0.
         25    2    3    3    0    0 -0.19183353001E+02 -0.22319896858E+02 -0.14206244757E+03  0.19179049773E+03  0.12544192752E+03 0.  0.
          5    1    4    4  502    0 -0.33237975022E+02  0.12995356386E+02  0.23114108550E+02  0.42778432477E+02  0.47000000000E+01 0.  1.
         -5    1    4    4    0  502  0.52421328023E+02  0.93245404725E+01 -0.11697254363E+03  0.12860640983E+03  0.47000000000E+01 0.  1.
          5    1    5    5  503    0 -0.50662480422E+00 -0.67170768516E+02 -0.39153814022E+02  0.77892746545E+02  0.47000000000E+01 0.  1.
         -5    1    5    5    0  503 -0.18676728197E+02  0.44850871659E+02 -0.10290863355E+03  0.11389775118E+03  0.47000000000E+01 0.  1.
<mgrwt>
<rscale>  0 0.27611169E+03</rscale>
<asrwt>0</asrwt>
<pdfrwt beam="1">  1        2 0.97888045E-02 0.27611169E+03</pdfrwt>
<pdfrwt beam="2">  1       -2 0.46084324E-01 0.27611169E+03</pdfrwt>
<totfact> 0.29636507E+03</totfact>
</mgrwt>
</event>
<event>
 9    1  0.2031653E-002  0.2751530E+03  0.7818608E-02  0.1098366E+00
          3   -1    0    0  501    0  0.00000000000E+00  0.00000000000E+00  0.10393888589E+03  0.10393888589E+03  0.00000000000E+00 0.  1.
         -3   -1    0    0    0  501 -0.00000000000E+00 -0.00000000000E+00 -0.18210026525E+03  0.18210026525E+03  0.00000000000E+00 0.  1.
         36    2    1    2    0    0  0.00000000000E+00 -0.35527136788E-14 -0.78161379362E+02  0.28603915114E+03  0.27515303880E+03 0.  0.
         25    2    3    3    0    0 -0.16651449771E+02 -0.30963123448E+02  0.12907295665E+02  0.12923183330E+03  0.12368622665E+03 0.  0.
         25    2    3    3    0    0  0.16651449771E+02  0.30963123448E+02 -0.91068675028E+02  0.15680731784E+03  0.12271530289E+03 0.  0.
          5    1    4    4  502    0 -0.44712672710E+02 -0.65354433960E+02  0.24669839259E+02  0.83072956540E+02  0.47000000000E+01 0.  1.
         -5    1    4    4    0  502  0.28061222940E+02  0.34391310512E+02 -0.11762543594E+02  0.46158876757E+02  0.47000000000E+01 0.  1.
          5    1    5    5  503    0  0.74617769558E+01  0.12768829914E+02 -0.12005916682E+03  0.12105789801E+03  0.47000000000E+01 0. -1.
         -5    1    5    5    0  503  0.91896728147E+01  0.18194293534E+02  0.28990491794E+02  0.35749419829E+02  0.47000000000E+01 0. -1.
<mgrwt>
<rscale>  0 0.27515304E+03</rscale>
<asrwt>0</asrwt>
<pdfrwt beam="1">  1        3 0.15990598E-01 0.27515304E+03</pdfrwt>
<pdfrwt beam="2">  1       -3 0.28015426E-01 0.27515304E+03</pdfrwt>
<totfact> 0.10303702E+03</totfact>
</mgrwt>
</event>
<event>
 9    1  0.2031653E-002  0.2749509E+03  0.7818608E-02  0.1098479E+00
         -2   -1    0    0    0  501 -0.00000000000E+00  0.00000000000E+00  0.17569619315E+02  0.17569619315E+02  0.00000000000E+00 0. -1.
          2   -1    0    0  501    0  0.00000000000E+00 -0.00000000000E+00 -0.10756920044E+04  0.10756920044E+04  0.00000000000E+00 0. -1.
         36    2    1    2    0    0  0.00000000000E+00  0.71054273576E-14 -0.10581223851E+04  0.10932616238E+04  0.27495089757E+03 0.  0.
         25    2    3    3    0    0  0.51072644973E+02 -0.31123577456E+02 -0.42069290807E+03  0.44289923425E+03  0.12490042700E+03 0.  0.
         25    2    3    3    0    0 -0.51072644973E+02  0.31123577456E+02 -0.63742947706E+03  0.65036238951E+03  0.11435824115E+03 0.  0.
          5    1    4    4  502    0  0.75230281050E+02  0.15050915420E+02 -0.32361576525E+03  0.33261896933E+03  0.47000000000E+01 0.  1.
         -5    1    4    4    0  502 -0.24157636077E+02 -0.46174492875E+02 -0.97077142819E+02  0.11028026492E+03  0.47000000000E+01 0.  1.
          5    1    5    5  503    0 -0.97655824960E+01  0.20944900826E+02 -0.18548744573E+02  0.30003356434E+02  0.47000000000E+01 0.  1.
         -5    1    5    5    0  503 -0.41307062477E+02  0.10178676630E+02 -0.61888073249E+03  0.62035903307E+03  0.47000000000E+01 0.  1.
<mgrwt>
<rscale>  0 0.27495090E+03</rscale>
<asrwt>0</asrwt>
<pdfrwt beam="1">  1        2 0.16549108E+00 0.27495090E+03</pdfrwt>
<pdfrwt beam="2">  1       -2 0.27030183E-02 0.27495090E+03</pdfrwt>
<totfact> 0.11663189E+04</totfact>
</mgrwt>
</event>
<event>
 9    1  0.2031653E-002  0.2759499E+03  0.7818608E-02  0.1097922E+00
          2   -1    0    0  501    0  0.00000000000E+00  0.00000000000E+00  0.15652797521E+04  0.15652797521E+04  0.00000000000E+00 0.  1.
         -2   -1    0    0    0  501 -0.00000000000E+00 -0.00000000000E+00 -0.12162101499E+02  0.12162101499E+02  0.00000000000E+00 0.  1.
         36    2    1    2    0    0  0.17763568394E-14 -0.14210854715E-13  0.15531176506E+04  0.15774418536E+04  0.27594993183E+03 0.  0.
         25    2    3    3    0    0 -0.12698625650E+02  0.32973962277E+02  0.50768939350E+03  0.52400031947E+03  0.12481697503E+03 0.  0.
         25    2    3    3    0    0  0.12698625650E+02 -0.32973962277E+02  0.10454282571E+04  0.10534415341E+04  0.12478095924E+03 0.  0.
          5    1    4    4  502    0  0.38048111524E+02 -0.91122778234E-01  0.53792356785E+02  0.66055845633E+02  0.47000000000E+01 0. -1.
         -5    1    4    4    0  502 -0.50746737174E+02  0.33065085055E+02  0.45389703671E+03  0.45794447384E+03  0.47000000000E+01 0. -1.
          5    1    5    5  503    0  0.12258592119E+02 -0.42941914287E+02  0.10403167555E+04  0.10412854185E+04  0.47000000000E+01 0. -1.
         -5    1    5    5    0  503  0.44003353116E+00  0.99679520105E+01  0.51115015474E+01  0.12156115533E+02  0.47000000000E+01 0. -1.
<mgrwt>
<rscale>  0 0.27594993E+03</rscale>
<asrwt>0</asrwt>
<pdfrwt beam="1">  1        2 0.24081211E+00 0.27594993E+03</pdfrwt>
<pdfrwt beam="2">  1       -2 0.18710938E-02 0.27594993E+03</pdfrwt>
<totfact> 0.10738273E+04</totfact>
</mgrwt>
</event>
<event>
 9    1  0.2031653E-002  0.2747296E+03  0.7818608E-02  0.1098603E+00
         -1   -1    0    0    0  501 -0.00000000000E+00  0.00000000000E+00  0.15225160276E+02  0.15225160276E+02  0.00000000000E+00 0.  1.
          1   -1    0    0  501    0  0.00000000000E+00 -0.00000000000E+00 -0.12393357776E+04  0.12393357776E+04  0.00000000000E+00 0.  1.
         36    2    1    2    0    0 -0.71054273576E-14  0.00000000000E+00 -0.12241106174E+04  0.12545609379E+04  0.27472958232E+03 0.  0.
         25    2    3    3    0    0 -0.40744591261E+02  0.62903480542E+01 -0.82375397111E+03  0.83427040648E+03  0.12544646669E+03 0.  0.
         25    2    3    3    0    0  0.40744591261E+02 -0.62903480542E+01 -0.40035664625E+03  0.42029053144E+03  0.12107434255E+03 0.  0.
          5    1    4    4  502    0 -0.41746137163E+02 -0.42211219518E+02 -0.67742983197E+03  0.68004249445E+03  0.47000000000E+01 0. -1.
         -5    1    4    4    0  502  0.10015459017E+01  0.48501567572E+02 -0.14632413914E+03  0.15422791202E+03  0.47000000000E+01 0. -1.
          5    1    5    5  503    0  0.18411222136E+02 -0.57498213688E+02 -0.12035043287E+03  0.13472688807E+03  0.47000000000E+01 0.  1.
         -5    1    5    5    0  503  0.22333369125E+02  0.51207865634E+02 -0.28000621338E+03  0.28556364337E+03  0.47000000000E+01 0.  1.
<mgrwt>
<rscale>  0 0.27472958E+03</rscale>
<asrwt>0</asrwt>
<pdfrwt beam="1">  1        1 0.19066702E+00 0.27472958E+03</pdfrwt>
<pdfrwt beam="2">  1       -1 0.23423326E-02 0.27472958E+03</pdfrwt>
<totfact> 0.58418185E+03</totfact>
</mgrwt>
</event>
