<event>
 9    1  0.2114844E-002  0.2750034E+03  0.7818608E-02  0.1098450E+00
         -2   -1    0    0    0  501 -0.00000000000E+00  0.00000000000E+00  0.23748805105E+03  0.23748805105E+03  0.00000000000E+00 0. -1.
          2   -1    0    0  501    0  0.00000000000E+00 -0.00000000000E+00 -0.79611253778E+02  0.79611253778E+02  0.00000000000E+00 0. -1.
         36    2    1    2    0    0  0.00000000000E+00  0.00000000000E+00  0.15787679728E+03  0.31709930483E+03  0.27500342908E+03 0.  0.
         25    2    3    3    0    0 -0.15290297889E+02  0.21257052422E+01  0.14031835166E+03  0.18994132065E+03  0.12708325478E+03 0.  0.
         25    2    3    3    0    0  0.15290297889E+02 -0.21257052422E+01  0.17558445620E+02  0.12715798419E+03  0.12499016800E+03 0.  0.
          5    1    4    4  502    0  0.46720847465E+00  0.63907944690E+02  0.70792188388E+02  0.95488573217E+02  0.47000000000E+01 0. -1.
         -5    1    4    4    0  502 -0.15757506364E+02 -0.61782239448E+02  0.69526163269E+02  0.94452747429E+02  0.47000000000E+01 0. -1.
          5    1    5    5  503    0  0.31462577142E+02  0.56424307165E+02  0.51114868351E+01  0.64975483816E+02  0.47000000000E+01 0. -1.
         -5    1    5    5    0  503 -0.16172279253E+02 -0.58550012407E+02  0.12446958785E+02  0.62182500369E+02  0.47000000000E+01 0. -1.
<mgrwt>
<rscale>  0 0.27500343E+03</rscale>
<asrwt>0</asrwt>
<pdfrwt beam="1">  1        2 0.12247885E-01 0.27500343E+03</pdfrwt>
<pdfrwt beam="2">  1       -2 0.36536623E-01 0.27500343E+03</pdfrwt>
<totfact> 0.35124595E+03</totfact>
</mgrwt>
</event>
<event>
 9    1  0.2114844E-002  0.2719731E+03  0.7818608E-02  0.1100156E+00
         -1   -1    0    0    0  501 -0.00000000000E+00  0.00000000000E+00  0.89335605924E+03  0.89335605924E+03  0.00000000000E+00 0. -1.
          1   -1    0    0  501    0  0.00000000000E+00 -0.00000000000E+00 -0.20699862773E+02  0.20699862773E+02  0.00000000000E+00 0. -1.
         36    2    1    2    0    0  0.35527136788E-14  0.71054273576E-14  0.87265619647E+03  0.91405592202E+03  0.27197314451E+03 0.  0.
         25    2    3    3    0    0 -0.21621956260E+02  0.44722056028E+02  0.35154478989E+03  0.37579314074E+03  0.12316320084E+03 0.  0.
         25    2    3    3    0    0  0.21621956260E+02 -0.44722056028E+02  0.52111140658E+03  0.53826278127E+03  0.12530822938E+03 0.  0.
          5    1    4    4  502    0 -0.43009108548E+01 -0.14081183435E+02 -0.31805899987E+01  0.15779217783E+02  0.47000000000E+01 0. -1.
         -5    1    4    4    0  502 -0.17321045405E+02  0.58803239463E+02  0.35472537989E+03  0.36001392296E+03  0.47000000000E+01 0. -1.
          5    1    5    5  503    0  0.24558768383E+02  0.20559430363E+02  0.34686035003E+02  0.47445066188E+02  0.47000000000E+01 0.  1.
         -5    1    5    5    0  503 -0.29368121224E+01 -0.65281486390E+02  0.48642537157E+03  0.49081771509E+03  0.47000000000E+01 0.  1.
<mgrwt>
<rscale>  0 0.27197314E+03</rscale>
<asrwt>0</asrwt>
<pdfrwt beam="1">  1        1 0.31845950E-02 0.27197314E+03</pdfrwt>
<pdfrwt beam="2">  1       -1 0.13743936E+00 0.27197314E+03</pdfrwt>
<totfact> 0.14833921E+03</totfact>
</mgrwt>
</event>
<event>
 9    1  0.2114844E-002  0.2724806E+03  0.7818608E-02  0.1099868E+00
          1   -1    0    0  501    0  0.00000000000E+00  0.00000000000E+00  0.12514609534E+02  0.12514609534E+02  0.00000000000E+00 0.  1.
         -1   -1    0    0    0  501 -0.00000000000E+00 -0.00000000000E+00 -0.14831799326E+04  0.14831799326E+04  0.00000000000E+00 0.  1.
         36    2    1    2    0    0 -0.71054273576E-14 -0.17763568394E-14 -0.14706653230E+04  0.14956945421E+04  0.27248058811E+03 0.  0.
         25    2    3    3    0    0 -0.31021030190E+02 -0.55123158891E+01 -0.50210100765E+03  0.51884310596E+03  0.12688599914E+03 0.  0.
         25    2    3    3    0    0  0.31021030190E+02  0.55123158891E+01 -0.96856431537E+03  0.97685143613E+03  0.12300083462E+03 0.  0.
          5    1    4    4  502    0 -0.69663718113E+02 -0.12589822371E+02 -0.16743464770E+03  0.18184605715E+03  0.47000000000E+01 0. -1.
         -5    1    4    4    0  502  0.38642687923E+02  0.70775064816E+01 -0.33466635995E+03  0.33699704881E+03  0.47000000000E+01 0. -1.
          5    1    5    5  503    0 -0.45845664253E+02  0.90295457403E+01 -0.27085312993E+03  0.27489428080E+03  0.47000000000E+01 0. -1.
         -5    1    5    5    0  503  0.76866694443E+02 -0.35172298512E+01 -0.69771118544E+03  0.70195715533E+03  0.47000000000E+01 0. -1.
<mgrwt>
<rscale>  0 0.27248059E+03</rscale>
<asrwt>0</asrwt>
<pdfrwt beam="1">  1        1 0.19253247E-02 0.27248059E+03</pdfrwt>
<pdfrwt beam="2">  1       -1 0.22818151E+00 0.27248059E+03</pdfrwt>
<totfact> 0.69718161E+02</totfact>
</mgrwt>
</event>
<event>
 9    1  0.2114844E-002  0.2886300E+03  0.7818608E-02  0.1091067E+00
          1   -1    0    0  501    0  0.00000000000E+00  0.00000000000E+00  0.10738627877E+03  0.10738627877E+03  0.00000000000E+00 0.  1.
         -1   -1    0    0    0  501 -0.00000000000E+00 -0.00000000000E+00 -0.19394302259E+03  0.19394302259E+03  0.00000000000E+00 0.  1.
         36    2    1    2    0    0 -0.35527136788E-14  0.00000000000E+00 -0.86556743823E+02  0.30132930136E+03  0.28863000183E+03 0.  0.
         25    2    3    3    0    0 -0.11146848979E+02 -0.14933944823E+02  0.35743871213E+02  0.12630752356E+03  0.11970251137E+03 0.  0.
         25    2    3    3    0    0  0.11146848979E+02  0.14933944823E+02 -0.12230061504E+03  0.17502177780E+03  0.12380592601E+03 0.  0.
          5    1    4    4  502    0  0.28079901002E+02 -0.37995833006E+02 -0.22257502140E+02  0.52437110596E+02  0.47000000000E+01 0. -1.
         -5    1    4    4    0  502 -0.39226749982E+02  0.23061888183E+02  0.58001373352E+02  0.73870412964E+02  0.47000000000E+01 0. -1.
          5    1    5    5  503    0  0.48679595907E+02 -0.33663365443E+02 -0.37514734941E+02  0.70230837731E+02  0.47000000000E+01 0. -1.
         -5    1    5    5    0  503 -0.37532746928E+02  0.48597310265E+02 -0.84785880094E+02  0.10479094007E+03  0.47000000000E+01 0. -1.
<mgrwt>
<rscale>  0 0.28863000E+03</rscale>
<asrwt>0</asrwt>
<pdfrwt beam="1">  1        1 0.16520966E-01 0.28863000E+03</pdfrwt>
<pdfrwt beam="2">  1       -1 0.29837388E-01 0.28863000E+03</pdfrwt>
<totfact> 0.33724796E+03</totfact>
</mgrwt>
</event>
<event>
 9    1  0.2114844E-002  0.2733791E+03  0.7818608E-02  0.1099361E+00
         -2   -1    0    0    0  501 -0.00000000000E+00  0.00000000000E+00  0.70741239236E+02  0.70741239236E+02  0.00000000000E+00 0. -1.
          2   -1    0    0  501    0  0.00000000000E+00 -0.00000000000E+00 -0.26411804233E+03  0.26411804233E+03  0.00000000000E+00 0. -1.
         36    2    1    2    0    0  0.00000000000E+00 -0.26645352591E-14 -0.19337680310E+03  0.33485928157E+03  0.27337913321E+03 0.  0.
         25    2    3    3    0    0 -0.19504578617E+02  0.45059541897E+01 -0.15471453923E+03  0.20180046147E+03  0.12800822392E+03 0.  0.
         25    2    3    3    0    0  0.19504578617E+02 -0.45059541897E+01 -0.38662263871E+02  0.13305882010E+03  0.12573442945E+03 0.  0.
          5    1    4    4  502    0 -0.47466026649E+02  0.54254141041E+02 -0.89422374079E+02  0.11495645476E+03  0.47000000000E+01 0.  1.
         -5    1    4    4    0  502  0.27961448032E+02 -0.49748186852E+02 -0.65292165147E+02  0.86844006705E+02  0.47000000000E+01 0.  1.
          5    1    5    5  503    0  0.16267420096E+02 -0.10665045155E+02  0.44857096754E+02  0.49118441282E+02  0.47000000000E+01 0.  1.
         -5    1    5    5    0  503  0.32371585212E+01  0.61590909656E+01 -0.83519360625E+02  0.83940378818E+02  0.47000000000E+01 0.  1.
<mgrwt>
<rscale>  0 0.27337913E+03</rscale>
<asrwt>0</asrwt>
<pdfrwt beam="1">  1        2 0.40633544E-01 0.27337913E+03</pdfrwt>
<pdfrwt beam="2">  1       -2 0.10883268E-01 0.27337913E+03</pdfrwt>
<totfact> 0.72168836E+03</totfact>
</mgrwt>
</event>
<event>
 9    1  0.2114844E-002  0.2753413E+03  0.7818608E-02  0.1098261E+00
          2   -1    0    0  501    0  0.00000000000E+00  0.00000000000E+00  0.73496669346E+03  0.73496669346E+03  0.00000000000E+00 0.  1.
         -2   -1    0    0    0  501 -0.00000000000E+00 -0.00000000000E+00 -0.25787853647E+02  0.25787853647E+02  0.00000000000E+00 0.  1.
         36    2    1    2    0    0  0.00000000000E+00  0.00000000000E+00  0.70917883981E+03  0.76075454711E+03  0.27534134108E+03 0.  0.
         25    2    3    3    0    0 -0.15352576924E+02 -0.50466087657E+02  0.41685797096E+03  0.43830699420E+03  0.12473943077E+03 0.  0.
         25    2    3    3    0    0  0.15352576924E+02  0.50466087657E+02  0.29232086885E+03  0.32244755291E+03  0.12545280542E+03 0.  0.
          5    1    4    4  502    0 -0.67010667064E+02 -0.19077203025E+02  0.16336325346E+03  0.17766263466E+03  0.47000000000E+01 0.  1.
         -5    1    4    4    0  502  0.51658090141E+02 -0.31388884632E+02  0.25349471750E+03  0.26064435954E+03  0.47000000000E+01 0.  1.
          5    1    5    5  503    0 -0.21169634872E+02  0.56667737365E+02  0.54018384835E+02  0.81237071580E+02  0.47000000000E+01 0.  1.
         -5    1    5    5    0  503  0.36522211796E+02 -0.62016497085E+01  0.23830248402E+03  0.24121048133E+03  0.47000000000E+01 0.  1.
<mgrwt>
<rscale>  0 0.27534134E+03</rscale>
<asrwt>0</asrwt>
<pdfrwt beam="1">  1        2 0.11307178E+00 0.27534134E+03</pdfrwt>
<pdfrwt beam="2">  1       -2 0.39673627E-02 0.27534134E+03</pdfrwt>
<totfact> 0.10947914E+04</totfact>
</mgrwt>
</event>
<event>
 9    1  0.2114844E-002  0.2736992E+03  0.7818608E-02  0.1099181E+00
         -2   -1    0    0    0  501 -0.00000000000E+00  0.00000000000E+00  0.35916399391E+02  0.35916399391E+02  0.00000000000E+00 0.  1.
          2   -1    0    0  501    0  0.00000000000E+00 -0.00000000000E+00 -0.52142782045E+03  0.52142782045E+03  0.00000000000E+00 0.  1.
         36    2    1    2    0    0  0.35527136788E-14  0.00000000000E+00 -0.48551142106E+03  0.55734421984E+03  0.27369917686E+03 0.  0.
         25    2    3    3    0    0  0.25783898883E+02 -0.50337950581E+02 -0.22615032977E+03  0.26404913606E+03  0.12401312788E+03 0.  0.
         25    2    3    3    0    0 -0.25783898883E+02  0.50337950581E+02 -0.25936109129E+03  0.29329508378E+03  0.12472013385E+03 0.  0.
          5    1    4    4  502    0  0.33665470396E+02  0.34256198178E+02 -0.10949124304E+03  0.11965480898E+03  0.47000000000E+01 0.  1.
         -5    1    4    4    0  502 -0.78815715128E+01 -0.84594148759E+02 -0.11665908674E+03  0.14439432708E+03  0.47000000000E+01 0.  1.
          5    1    5    5  503    0 -0.44250436934E+02  0.41113555939E+02 -0.39293339708E+02  0.72211371654E+02  0.47000000000E+01 0. -1.
         -5    1    5    5    0  503  0.18466538051E+02  0.92243946427E+01 -0.22006775158E+03  0.22108371213E+03  0.47000000000E+01 0. -1.
<mgrwt>
<rscale>  0 0.27369918E+03</rscale>
<asrwt>0</asrwt>
<pdfrwt beam="1">  1        2 0.80219662E-01 0.27369918E+03</pdfrwt>
<pdfrwt beam="2">  1       -2 0.55256001E-02 0.27369918E+03</pdfrwt>
<totfact> 0.99140094E+03</totfact>
</mgrwt>
</event>
<event>
 9    1  0.2114844E-002  0.2711127E+03  0.7818608E-02  0.1100644E+00
         -1   -1    0    0    0  501 -0.00000000000E+00  0.00000000000E+00  0.56118656243E+01  0.56118656243E+01  0.00000000000E+00 0. -1.
          1   -1    0    0  501    0  0.00000000000E+00 -0.00000000000E+00 -0.32744064602E+04  0.32744064602E+04  0.00000000000E+00 0. -1.
         36    2    1    2    0    0 -0.14210854715E-13  0.00000000000E+00 -0.32687945946E+04  0.32800183258E+04  0.27111273710E+03 0.  0.
         25    2    3    3    0    0  0.26587730715E+02 -0.48344264787E+02 -0.16006243806E+04  0.16063100147E+04  0.12324520298E+03 0.  0.
         25    2    3    3    0    0 -0.26587730715E+02  0.48344264787E+02 -0.16681702139E+04  0.16737083111E+04  0.12435261440E+03 0.  0.
          5    1    4    4  502    0 -0.43062749516E+02  0.70238517777E+01 -0.66764227802E+03  0.66908298161E+03  0.47000000000E+01 0. -1.
         -5    1    4    4    0  502  0.69650480231E+02 -0.55368116565E+02 -0.93298210262E+03  0.93722703308E+03  0.47000000000E+01 0. -1.
          5    1    5    5  503    0  0.24341519919E+02 -0.25102033533E+02 -0.22340748641E+03  0.22617607447E+03  0.47000000000E+01 0. -1.
         -5    1    5    5    0  503 -0.50929250634E+02  0.73446298319E+02 -0.14447627275E+04  0.14475322366E+04  0.47000000000E+01 0. -1.
<mgrwt>
<rscale>  0 0.27111274E+03</rscale>
<asrwt>0</asrwt>
<pdfrwt beam="1">  1        1 0.50375576E+00 0.27111274E+03</pdfrwt>
<pdfrwt beam="2">  1       -1 0.86336237E-03 0.27111274E+03</pdfrwt>
<totfact> 0.10733456E+03</totfact>
</mgrwt>
</event>
<event>
 9    1  0.2114844E-002  0.2705118E+03  0.7818608E-02  0.1100987E+00
         -2   -1    0    0    0  501 -0.00000000000E+00  0.00000000000E+00  0.19552467163E+03  0.19552467163E+03  0.00000000000E+00 0.  1.
          2   -1    0    0  501    0  0.00000000000E+00 -0.00000000000E+00 -0.93564435320E+02  0.93564435320E+02  0.00000000000E+00 0.  1.
         36    2    1    2    0    0  0.00000000000E+00  0.00000000000E+00  0.10196023631E+03  0.28908910695E+03  0.27051177787E+03 0.  0.
         25    2    3    3    0    0 -0.51846154181E+01 -0.18618603086E+02  0.68864019907E+02  0.15804621253E+03  0.14093551518E+03 0.  0.
         25    2    3    3    0    0  0.51846154181E+01  0.18618603086E+02  0.33096216400E+02  0.13104289442E+03  0.12531300020E+03 0.  0.
          5    1    4    4  502    0  0.49094151417E+02 -0.55311284457E+02  0.21819233126E+02  0.77251167149E+02  0.47000000000E+01 0.  1.
         -5    1    4    4    0  502 -0.54278766835E+02  0.36692681371E+02  0.47044786781E+02  0.80795045383E+02  0.47000000000E+01 0.  1.
          5    1    5    5  503    0 -0.32441300913E+02 -0.42578637118E+02  0.57910836900E+01  0.54046322669E+02  0.47000000000E+01 0. -1.
         -5    1    5    5    0  503  0.37625916331E+02  0.61197240204E+02  0.27305132710E+02  0.76996571746E+02  0.47000000000E+01 0. -1.
<mgrwt>
<rscale>  0 0.27051178E+03</rscale>
<asrwt>0</asrwt>
<pdfrwt beam="1">  1        2 0.14394529E-01 0.27051178E+03</pdfrwt>
<pdfrwt beam="2">  1       -2 0.30080719E-01 0.27051178E+03</pdfrwt>
<totfact> 0.41398122E+03</totfact>
</mgrwt>
</event>
<event>
 9    1  0.2114844E-002  0.2775106E+03  0.7818608E-02  0.1097056E+00
          2   -1    0    0  501    0  0.00000000000E+00  0.00000000000E+00  0.45383972469E+03  0.45383972469E+03  0.00000000000E+00 0.  1.
         -2   -1    0    0    0  501 -0.00000000000E+00 -0.00000000000E+00 -0.42422540252E+02  0.42422540252E+02  0.00000000000E+00 0.  1.
         36    2    1    2    0    0  0.00000000000E+00  0.17763568394E-14  0.41141718443E+03  0.49626226494E+03  0.27751060512E+03 0.  0.
         25    2    3    3    0    0  0.49029776403E+02  0.10362715691E+02  0.20092399352E+03  0.24286114792E+03  0.12688491299E+03 0.  0.
         25    2    3    3    0    0 -0.49029776403E+02 -0.10362715691E+02  0.21049319091E+03  0.25340111702E+03  0.13188418342E+03 0.  0.
          5    1    4    4  502    0 -0.37118942324E+02  0.63275382285E+01  0.21216243454E+02  0.43474965274E+02  0.47000000000E+01 0. -1.
         -5    1    4    4    0  502  0.86148718726E+02  0.40351774622E+01  0.17970775007E+03  0.19938618264E+03  0.47000000000E+01 0. -1.
          5    1    5    5  503    0 -0.31266822353E+02 -0.43116227305E+02  0.20909183506E+03  0.21581962080E+03  0.47000000000E+01 0.  1.
         -5    1    5    5    0  503 -0.17762954050E+02  0.32753511615E+02  0.14013558589E+01  0.37581496217E+02  0.47000000000E+01 0.  1.
<mgrwt>
<rscale>  0 0.27751061E+03</rscale>
<asrwt>0</asrwt>
<pdfrwt beam="1">  1        2 0.69821493E-01 0.27751061E+03</pdfrwt>
<pdfrwt beam="2">  1       -2 0.65265450E-02 0.27751061E+03</pdfrwt>
<totfact> 0.89681914E+03</totfact>
</mgrwt>
</event>
<event>
 9    1  0.2114844E-002  0.2744610E+03  0.7818608E-02  0.1098753E+00
         -1   -1    0    0    0  501 -0.00000000000E+00  0.00000000000E+00  0.67673682706E+01  0.67673682706E+01  0.00000000000E+00 0.  1.
          1   -1    0    0  501    0  0.00000000000E+00 -0.00000000000E+00 -0.27827957198E+04  0.27827957198E+04  0.00000000000E+00 0.  1.
         36    2    1    2    0    0  0.00000000000E+00  0.13322676296E-14 -0.27760283516E+04  0.27895630881E+04  0.27446095138E+03 0.  0.
         25    2    3    3    0    0  0.48697830809E+02  0.24567575878E+01 -0.14414105894E+04  0.14481743500E+04  0.13102269417E+03 0.  0.
         25    2    3    3    0    0 -0.48697830809E+02 -0.24567575878E+01 -0.13346177622E+04  0.13413887381E+04  0.12546577717E+03 0.  0.
          5    1    4    4  502    0 -0.70615334384E+01 -0.33453341699E+01 -0.12096232230E+04  0.12096575913E+04  0.47000000000E+01 0. -1.
         -5    1    4    4    0  502  0.55759364247E+02  0.58020917577E+01 -0.23178736640E+03  0.23851675873E+03  0.47000000000E+01 0. -1.
          5    1    5    5  503    0  0.26014984279E+02  0.15031962952E+02 -0.86386740567E+03  0.86440252423E+03  0.47000000000E+01 0. -1.
         -5    1    5    5    0  503 -0.74712815088E+02 -0.17488720540E+02 -0.47075035650E+03  0.47698621388E+03  0.47000000000E+01 0. -1.
<mgrwt>
<rscale>  0 0.27446095E+03</rscale>
<asrwt>0</asrwt>
<pdfrwt beam="1">  1        1 0.42812200E+00 0.27446095E+03</pdfrwt>
<pdfrwt beam="2">  1       -1 0.10411346E-02 0.27446095E+03</pdfrwt>
<totfact> 0.18146305E+03</totfact>
</mgrwt>
</event>
<event>
 9    1  0.2114844E-002  0.2750181E+03  0.7818608E-02  0.1098441E+00
         -1   -1    0    0    0  501 -0.00000000000E+00  0.00000000000E+00  0.33687821662E+02  0.33687821662E+02  0.00000000000E+00 0.  1.
          1   -1    0    0  501    0  0.00000000000E+00 -0.00000000000E+00 -0.56129315412E+03  0.56129315412E+03  0.00000000000E+00 0.  1.
         36    2    1    2    0    0  0.00000000000E+00 -0.71054273576E-14 -0.52760533246E+03  0.59498097578E+03  0.27501813523E+03 0.  0.
         25    2    3    3    0    0 -0.50475605817E+02 -0.24063719850E+02 -0.23487080322E+03  0.27267707319E+03  0.12673453610E+03 0.  0.
         25    2    3    3    0    0  0.50475605817E+02  0.24063719850E+02 -0.29273452923E+03  0.32230390259E+03  0.12271695736E+03 0.  0.
          5    1    4    4  502    0  0.11545006805E+02 -0.46214969933E+02 -0.18171453706E+03  0.18791320764E+03  0.47000000000E+01 0. -1.
         -5    1    4    4    0  502 -0.62020612622E+02  0.22151250083E+02 -0.53156266166E+02  0.84763865550E+02  0.47000000000E+01 0. -1.
          5    1    5    5  503    0 -0.21876518116E+02 -0.18284649839E+01 -0.20227616076E+03  0.20351820690E+03  0.47000000000E+01 0. -1.
         -5    1    5    5    0  503  0.72352123933E+02  0.25892184834E+02 -0.90458368472E+02  0.11878569569E+03  0.47000000000E+01 0. -1.
<mgrwt>
<rscale>  0 0.27501814E+03</rscale>
<asrwt>0</asrwt>
<pdfrwt beam="1">  1        1 0.86352790E-01 0.27501814E+03</pdfrwt>
<pdfrwt beam="2">  1       -1 0.51827420E-02 0.27501814E+03</pdfrwt>
<totfact> 0.64073439E+03</totfact>
</mgrwt>
</event>
<event>
 9    1  0.2114844E-002  0.2744633E+03  0.7818608E-02  0.1098752E+00
         -4   -1    0    0    0  501 -0.00000000000E+00  0.00000000000E+00  0.38862698074E+02  0.38862698074E+02  0.00000000000E+00 0. -1.
          4   -1    0    0  501    0  0.00000000000E+00 -0.00000000000E+00 -0.48459135469E+03  0.48459135469E+03  0.00000000000E+00 0. -1.
         36    2    1    2    0    0  0.00000000000E+00  0.00000000000E+00 -0.44572865662E+03  0.52345405277E+03  0.27446331272E+03 0.  0.
         25    2    3    3    0    0  0.33944697563E+02 -0.39106802492E+02 -0.27200188424E+03  0.30543058742E+03  0.12892336563E+03 0.  0.
         25    2    3    3    0    0 -0.33944697563E+02  0.39106802492E+02 -0.17372677238E+03  0.21802346535E+03  0.12112660941E+03 0.  0.
          5    1    4    4  502    0  0.27934115044E+02 -0.42959316579E+02 -0.28514591743E+03  0.28975179360E+03  0.47000000000E+01 0.  1.
         -5    1    4    4    0  502  0.60105825191E+01  0.38525140866E+01  0.13144033194E+02  0.15678793819E+02  0.47000000000E+01 0.  1.
          5    1    5    5  503    0 -0.24495134464E+02  0.48498496321E+02 -0.18929867214E+03  0.19699795185E+03  0.47000000000E+01 0.  1.
         -5    1    5    5    0  503 -0.94495630986E+01 -0.93916938289E+01  0.15571899764E+02  0.21025513501E+02  0.47000000000E+01 0.  1.
<mgrwt>
<rscale>  0 0.27446331E+03</rscale>
<asrwt>0</asrwt>
<pdfrwt beam="1">  1        4 0.74552517E-01 0.27446331E+03</pdfrwt>
<pdfrwt beam="2">  1       -4 0.59788765E-02 0.27446331E+03</pdfrwt>
<totfact> 0.55537565E+02</totfact>
</mgrwt>
</event>
<event>
 9    1  0.2114844E-002  0.2746369E+03  0.7818608E-02  0.1098655E+00
         -1   -1    0    0    0  501 -0.00000000000E+00  0.00000000000E+00  0.10375950387E+04  0.10375950387E+04  0.00000000000E+00 0.  1.
          1   -1    0    0  501    0  0.00000000000E+00 -0.00000000000E+00 -0.18173137826E+02  0.18173137826E+02  0.00000000000E+00 0.  1.
         36    2    1    2    0    0  0.00000000000E+00  0.00000000000E+00  0.10194219009E+04  0.10557681766E+04  0.27463690682E+03 0.  0.
         25    2    3    3    0    0  0.42055748851E+00  0.25764294073E+02  0.70108616168E+03  0.71296219082E+03  0.12700119578E+03 0.  0.
         25    2    3    3    0    0 -0.42055748851E+00 -0.25764294073E+02  0.31833573922E+03  0.34280598573E+03  0.12455651436E+03 0.  0.
          5    1    4    4  502    0 -0.54404650422E+02  0.40312382298E+02  0.28334144666E+03  0.29135788912E+03  0.47000000000E+01 0. -1.
         -5    1    4    4    0  502  0.54825207910E+02 -0.14548088226E+02  0.41774471501E+03  0.42160430170E+03  0.47000000000E+01 0. -1.
          5    1    5    5  503    0 -0.26523035831E+02  0.37588796783E+02  0.61502865022E+02  0.76948563854E+02  0.47000000000E+01 0. -1.
         -5    1    5    5    0  503  0.26102478342E+02 -0.63353090856E+02  0.25683287420E+03  0.26585742188E+03  0.47000000000E+01 0. -1.
<mgrwt>
<rscale>  0 0.27463691E+03</rscale>
<asrwt>0</asrwt>
<pdfrwt beam="1">  1        1 0.27958682E-02 0.27463691E+03</pdfrwt>
<pdfrwt beam="2">  1       -1 0.15962996E+00 0.27463691E+03</pdfrwt>
<totfact> 0.12050558E+03</totfact>
</mgrwt>
</event>
<event>
 9    1  0.2114844E-002  0.2744156E+03  0.7818608E-02  0.1098779E+00
         -1   -1    0    0    0  501 -0.00000000000E+00  0.00000000000E+00  0.38622393336E+02  0.38622393336E+02  0.00000000000E+00 0. -1.
          1   -1    0    0  501    0  0.00000000000E+00 -0.00000000000E+00 -0.48743695243E+03  0.48743695243E+03  0.00000000000E+00 0. -1.
         36    2    1    2    0    0 -0.71054273576E-14  0.35527136788E-14 -0.44881455910E+03  0.52605934577E+03  0.27441560964E+03 0.  0.
         25    2    3    3    0    0 -0.56686830302E+02  0.16281371898E+01 -0.21453027398E+03  0.25441298333E+03  0.12444549037E+03 0.  0.
         25    2    3    3    0    0  0.56686830302E+02 -0.16281371898E+01 -0.23428428511E+03  0.27164636244E+03  0.12524604749E+03 0.  0.
          5    1    4    4  502    0 -0.29791175680E+02  0.55018036529E+02 -0.53070372577E+02  0.82176961111E+02  0.47000000000E+01 0. -1.
         -5    1    4    4    0  502 -0.26895654622E+02 -0.53389899339E+02 -0.16145990141E+03  0.17223602222E+03  0.47000000000E+01 0. -1.
          5    1    5    5  503    0  0.83572658761E+02 -0.29649900966E+02 -0.11010752719E+03  0.14145410374E+03  0.47000000000E+01 0.  1.
         -5    1    5    5    0  503 -0.26885828459E+02  0.28021763776E+02 -0.12417675792E+03  0.13019225870E+03  0.47000000000E+01 0.  1.
<mgrwt>
<rscale>  0 0.27441561E+03</rscale>
<asrwt>0</asrwt>
<pdfrwt beam="1">  1        1 0.74990306E-01 0.27441561E+03</pdfrwt>
<pdfrwt beam="2">  1       -1 0.59419062E-02 0.27441561E+03</pdfrwt>
<totfact> 0.63037934E+03</totfact>
</mgrwt>
</event>
<event>
 9    1  0.2114844E-002  0.2775390E+03  0.7818608E-02  0.1097041E+00
          2   -1    0    0  501    0  0.00000000000E+00  0.00000000000E+00  0.62450103724E+03  0.62450103724E+03  0.00000000000E+00 0.  1.
         -2   -1    0    0    0  501 -0.00000000000E+00 -0.00000000000E+00 -0.30835774306E+02  0.30835774306E+02  0.00000000000E+00 0.  1.
         36    2    1    2    0    0  0.53290705182E-14  0.00000000000E+00  0.59366526294E+03  0.65533681155E+03  0.27753899213E+03 0.  0.
         25    2    3    3    0    0 -0.15395077623E+02  0.58709996223E+01  0.44281422201E+03  0.46122130751E+03  0.12794210504E+03 0.  0.
         25    2    3    3    0    0  0.15395077623E+02 -0.58709996223E+01  0.15085104093E+03  0.19411550404E+03  0.12105087900E+03 0.  0.
          5    1    4    4  502    0 -0.11187123883E+02  0.57945153692E+02  0.34676119057E+03  0.35177863190E+03  0.47000000000E+01 0. -1.
         -5    1    4    4    0  502 -0.42079537393E+01 -0.52074154070E+02  0.96053031439E+02  0.10944267561E+03  0.47000000000E+01 0. -1.
          5    1    5    5  503    0  0.56430690119E+02  0.31783657765E+02  0.66656440945E+02  0.93058018503E+02  0.47000000000E+01 0.  1.
         -5    1    5    5    0  503 -0.41035612496E+02 -0.37654657387E+02  0.84194599987E+02  0.10105748554E+03  0.47000000000E+01 0.  1.
<mgrwt>
<rscale>  0 0.27753899E+03</rscale>
<asrwt>0</asrwt>
<pdfrwt beam="1">  1        2 0.96077073E-01 0.27753899E+03</pdfrwt>
<pdfrwt beam="2">  1       -2 0.47439658E-02 0.27753899E+03</pdfrwt>
<totfact> 0.10168824E+04</totfact>
</mgrwt>
</event>
<event>
 9    1  0.2114844E-002  0.2749048E+03  0.7818608E-02  0.1098505E+00
         -1   -1    0    0    0  501 -0.00000000000E+00  0.00000000000E+00  0.26228646213E+03  0.26228646213E+03  0.00000000000E+00 0. -1.
          1   -1    0    0  501    0  0.00000000000E+00 -0.00000000000E+00 -0.72032531086E+02  0.72032531086E+02  0.00000000000E+00 0. -1.
         36    2    1    2    0    0  0.71054273576E-14  0.00000000000E+00  0.19025393104E+03  0.33431899321E+03  0.27490476705E+03 0.  0.
         25    2    3    3    0    0 -0.53430496775E+02 -0.63847629281E+01  0.49903442314E+02  0.14232409991E+03  0.12194348149E+03 0.  0.
         25    2    3    3    0    0  0.53430496775E+02  0.63847629281E+01  0.14035048873E+03  0.19199489330E+03  0.11944955498E+03 0.  0.
          5    1    4    4  502    0 -0.29209041549E+02 -0.31515455779E+02 -0.31594914771E+02  0.53541765945E+02  0.47000000000E+01 0. -1.
         -5    1    4    4    0  502 -0.24221455226E+02  0.25130692850E+02  0.81498357085E+02  0.88782333963E+02  0.47000000000E+01 0. -1.
          5    1    5    5  503    0  0.79842882567E+02  0.29918136540E+02  0.12870326992E+03  0.15445582695E+03  0.47000000000E+01 0. -1.
         -5    1    5    5    0  503 -0.26412385793E+02 -0.23533373612E+02  0.11647218807E+02  0.37539066354E+02  0.47000000000E+01 0. -1.
<mgrwt>
<rscale>  0 0.27490477E+03</rscale>
<asrwt>0</asrwt>
<pdfrwt beam="1">  1        1 0.11081928E-01 0.27490477E+03</pdfrwt>
<pdfrwt beam="2">  1       -1 0.40351763E-01 0.27490477E+03</pdfrwt>
<totfact> 0.33786759E+03</totfact>
</mgrwt>
</event>
<event>
 9    1  0.2114844E-002  0.2748032E+03  0.7818608E-02  0.1098562E+00
          1   -1    0    0  501    0  0.00000000000E+00  0.00000000000E+00  0.21518435669E+03  0.21518435669E+03  0.00000000000E+00 0. -1.
         -1   -1    0    0    0  501 -0.00000000000E+00 -0.00000000000E+00 -0.87734997083E+02  0.87734997083E+02  0.00000000000E+00 0. -1.
         36    2    1    2    0    0  0.14210854715E-13 -0.71054273576E-14  0.12744935961E+03  0.30291935377E+03  0.27480319435E+03 0.  0.
         25    2    3    3    0    0 -0.40521857414E+02  0.32410556402E+02  0.56813392530E+02  0.14858991984E+03  0.12711702330E+03 0.  0.
         25    2    3    3    0    0  0.40521857414E+02 -0.32410556402E+02  0.70635967077E+02  0.15432943394E+03  0.12702625413E+03 0.  0.
          5    1    4    4  502    0  0.64755279658E+01 -0.43163764238E+02  0.19620814517E+01  0.43942949027E+02  0.47000000000E+01 0. -1.
         -5    1    4    4    0  502 -0.46997385380E+02  0.75574320640E+02  0.54851311079E+02  0.10464697081E+03  0.47000000000E+01 0. -1.
          5    1    5    5  503    0  0.66653269241E+02  0.93008321076E+01  0.79318486512E+02  0.10412817141E+03  0.47000000000E+01 0. -1.
         -5    1    5    5    0  503 -0.26131411827E+02 -0.41711388510E+02 -0.86825194355E+01  0.50201262526E+02  0.47000000000E+01 0. -1.
<mgrwt>
<rscale>  0 0.27480319E+03</rscale>
<asrwt>0</asrwt>
<pdfrwt beam="1">  1        1 0.33105285E-01 0.27480319E+03</pdfrwt>
<pdfrwt beam="2">  1       -1 0.13497692E-01 0.27480319E+03</pdfrwt>
<totfact> 0.50465676E+03</totfact>
</mgrwt>
</event>
<event>
 9    1  0.2114844E-002  0.2759238E+03  0.7818608E-02  0.1097936E+00
         -2   -1    0    0    0  501 -0.00000000000E+00  0.00000000000E+00  0.95243558624E+02  0.95243558624E+02  0.00000000000E+00 0.  1.
          2   -1    0    0  501    0  0.00000000000E+00 -0.00000000000E+00 -0.19984006570E+03  0.19984006570E+03  0.00000000000E+00 0.  1.
         36    2    1    2    0    0  0.00000000000E+00  0.00000000000E+00 -0.10459650708E+03  0.29508362432E+03  0.27592375043E+03 0.  0.
         25    2    3    3    0    0 -0.65735024099E+02 -0.19738715516E+02 -0.44426792581E+02  0.14016983621E+03  0.11385575435E+03 0.  0.
         25    2    3    3    0    0  0.65735024099E+02  0.19738715516E+02 -0.60169714495E+02  0.15491378812E+03  0.12516859400E+03 0.  0.
          5    1    4    4  502    0 -0.87427304955E+01  0.30780335255E+02 -0.54327895017E+02  0.63225584631E+02  0.47000000000E+01 0. -1.
         -5    1    4    4    0  502 -0.56992293604E+02 -0.50519050771E+02  0.99011024361E+01  0.76944251575E+02  0.47000000000E+01 0. -1.
          5    1    5    5  503    0  0.20024550800E+02  0.52553604050E+01  0.39144010520E+02  0.44530270686E+02  0.47000000000E+01 0.  1.
         -5    1    5    5    0  503  0.45710473299E+02  0.14483355111E+02 -0.99313725015E+02  0.11038351743E+03  0.47000000000E+01 0.  1.
<mgrwt>
<rscale>  0 0.27592375E+03</rscale>
<asrwt>0</asrwt>
<pdfrwt beam="1">  1        2 0.30744625E-01 0.27592375E+03</pdfrwt>
<pdfrwt beam="2">  1       -2 0.14652855E-01 0.27592375E+03</pdfrwt>
<totfact> 0.60300434E+03</totfact>
</mgrwt>
</event>
<event>
 9    1  0.2114844E-002  0.2747087E+03  0.7818608E-02  0.1098615E+00
          2   -1    0    0  501    0  0.00000000000E+00  0.00000000000E+00  0.28699700734E+03  0.28699700734E+03  0.00000000000E+00 0. -1.
         -2   -1    0    0    0  501 -0.00000000000E+00 -0.00000000000E+00 -0.65736653194E+02  0.65736653194E+02  0.00000000000E+00 0. -1.
         36    2    1    2    0    0  0.71054273576E-14 -0.17763568394E-14  0.22126035415E+03  0.35273366053E+03  0.27470873841E+03 0.  0.
         25    2    3    3    0    0  0.54816927499E+02  0.45918515323E+01  0.14297688159E+03  0.19570205143E+03  0.12178227961E+03 0.  0.
         25    2    3    3    0    0 -0.54816927499E+02 -0.45918515323E+01  0.78283472561E+02  0.15703160910E+03  0.12451764349E+03 0.  0.
          5    1    4    4  502    0  0.52563835025E+02  0.58748943278E+02  0.90497191876E+02  0.12010922873E+03  0.47000000000E+01 0. -1.
         -5    1    4    4    0  502  0.22530924732E+01 -0.54157091746E+02  0.52479689709E+02  0.75592822702E+02  0.47000000000E+01 0. -1.
          5    1    5    5  503    0 -0.69722682991E+01 -0.42073783165E+01 -0.33794147817E+02  0.35077756260E+02  0.47000000000E+01 0.  1.
         -5    1    5    5    0  503 -0.47844659199E+02 -0.38447321581E+00  0.11207762038E+03  0.12195385284E+03  0.47000000000E+01 0.  1.
<mgrwt>
<rscale>  0 0.27470874E+03</rscale>
<asrwt>0</asrwt>
<pdfrwt beam="1">  1        2 0.44153385E-01 0.27470874E+03</pdfrwt>
<pdfrwt beam="2">  1       -2 0.10113331E-01 0.27470874E+03</pdfrwt>
<totfact> 0.74208475E+03</totfact>
</mgrwt>
</event>
<event>
 9    1  0.2114844E-002  0.2748279E+03  0.7818608E-02  0.1098548E+00
          2   -1    0    0  501    0  0.00000000000E+00  0.00000000000E+00  0.16320749475E+04  0.16320749475E+04  0.00000000000E+00 0.  1.
         -2   -1    0    0    0  501 -0.00000000000E+00 -0.00000000000E+00 -0.11569683765E+02  0.11569683765E+02  0.00000000000E+00 0.  1.
         36    2    1    2    0    0  0.71054273576E-14  0.71054273576E-14  0.16205052637E+04  0.16436446312E+04  0.27482788085E+03 0.  0.
         25    2    3    3    0    0 -0.44831436105E+02 -0.41960473750E+02  0.83825170782E+03  0.84952885646E+03  0.12354275890E+03 0.  0.
         25    2    3    3    0    0  0.44831436105E+02  0.41960473750E+02  0.78225355587E+03  0.79411577476E+03  0.12218305542E+03 0.  0.
          5    1    4    4  502    0  0.12636466001E+02 -0.17005965407E+02  0.22140519600E+02  0.31002834396E+02  0.47000000000E+01 0. -1.
         -5    1    4    4    0  502 -0.57467902106E+02 -0.24954508343E+02  0.81611118822E+03  0.81852602206E+03  0.47000000000E+01 0. -1.
          5    1    5    5  503    0 -0.18381213552E+02 -0.27985872476E+02  0.10484228052E+03  0.11015930217E+03  0.47000000000E+01 0.  1.
         -5    1    5    5    0  503  0.63212649657E+02  0.69946346226E+02  0.67741127534E+03  0.68395647258E+03  0.47000000000E+01 0.  1.
<mgrwt>
<rscale>  0 0.27482788E+03</rscale>
<asrwt>0</asrwt>
<pdfrwt beam="1">  1        2 0.25108827E+00 0.27482788E+03</pdfrwt>
<pdfrwt beam="2">  1       -2 0.17799526E-02 0.27482788E+03</pdfrwt>
<totfact> 0.10649712E+04</totfact>
</mgrwt>
</event>
<event>
 9    1  0.2114844E-002  0.2752414E+03  0.7818608E-02  0.1098317E+00
          2   -1    0    0  501    0  0.00000000000E+00  0.00000000000E+00  0.61723258674E+03  0.61723258674E+03  0.00000000000E+00 0. -1.
         -2   -1    0    0    0  501 -0.00000000000E+00 -0.00000000000E+00 -0.30684479368E+02  0.30684479368E+02  0.00000000000E+00 0. -1.
         36    2    1    2    0    0  0.35527136788E-14  0.00000000000E+00  0.58654810737E+03  0.64791706611E+03  0.27524142547E+03 0.  0.
         25    2    3    3    0    0  0.14065351034E+02  0.39948661894E+02  0.40674972251E+03  0.42557746428E+03  0.11780115301E+03 0.  0.
         25    2    3    3    0    0 -0.14065351034E+02 -0.39948661894E+02  0.17979838486E+03  0.22233960183E+03  0.12374857437E+03 0.  0.
          5    1    4    4  502    0 -0.22075864066E+02  0.59081157214E+02  0.11774287728E+03  0.13365403870E+03  0.47000000000E+01 0. -1.
         -5    1    4    4    0  502  0.36141215100E+02 -0.19132495320E+02  0.28900684524E+03  0.29192342558E+03  0.47000000000E+01 0. -1.
          5    1    5    5  503    0 -0.43451646043E+02  0.31171940045E+02  0.75563301792E+02  0.92691088933E+02  0.47000000000E+01 0. -1.
         -5    1    5    5    0  503  0.29386295009E+02 -0.71120601940E+02  0.10423508307E+03  0.12964851290E+03  0.47000000000E+01 0. -1.
<mgrwt>
<rscale>  0 0.27524143E+03</rscale>
<asrwt>0</asrwt>
<pdfrwt beam="1">  1        2 0.94958850E-01 0.27524143E+03</pdfrwt>
<pdfrwt beam="2">  1       -2 0.47206896E-02 0.27524143E+03</pdfrwt>
<totfact> 0.10383248E+04</totfact>
</mgrwt>
</event>
<event>
 9    1  0.2114844E-002  0.2752929E+03  0.7818608E-02  0.1098288E+00
         -2   -1    0    0    0  501 -0.00000000000E+00  0.00000000000E+00  0.28567026899E+02  0.28567026899E+02  0.00000000000E+00 0.  1.
          2   -1    0    0  501    0  0.00000000000E+00 -0.00000000000E+00 -0.66323129006E+03  0.66323129006E+03  0.00000000000E+00 0.  1.
         36    2    1    2    0    0  0.35527136788E-14  0.00000000000E+00 -0.63466426316E+03  0.69179831696E+03  0.27529290658E+03 0.  0.
         25    2    3    3    0    0  0.58245789291E+01  0.57593526946E+02 -0.28018670496E+03  0.31140606335E+03  0.12295611653E+03 0.  0.
         25    2    3    3    0    0 -0.58245789291E+01 -0.57593526946E+02 -0.35447755821E+03  0.38039225361E+03  0.12527165389E+03 0.  0.
          5    1    4    4  502    0  0.40403993552E+02 -0.69323586425E+01 -0.30901571457E+02  0.51551308517E+02  0.47000000000E+01 0. -1.
         -5    1    4    4    0  502 -0.34579414623E+02  0.64525885589E+02 -0.24928513350E+03  0.25985475483E+03  0.47000000000E+01 0. -1.
          5    1    5    5  503    0 -0.27210459701E+02 -0.84036303722E+02 -0.15924068587E+03  0.18215980758E+03  0.47000000000E+01 0. -1.
         -5    1    5    5    0  503  0.21385880772E+02  0.26442776775E+02 -0.19523687233E+03  0.19823244603E+03  0.47000000000E+01 0. -1.
<mgrwt>
<rscale>  0 0.27529291E+03</rscale>
<asrwt>0</asrwt>
<pdfrwt beam="1">  1        2 0.10203557E+00 0.27529291E+03</pdfrwt>
<pdfrwt beam="2">  1       -2 0.43949278E-02 0.27529291E+03</pdfrwt>
<totfact> 0.10627670E+04</totfact>
</mgrwt>
</event>
<event>
 9    1  0.2114844E-002  0.2747800E+03  0.7818608E-02  0.1098575E+00
         -2   -1    0    0    0  501 -0.00000000000E+00  0.00000000000E+00  0.14798458289E+03  0.14798458289E+03  0.00000000000E+00 0. -1.
          2   -1    0    0  501    0  0.00000000000E+00 -0.00000000000E+00 -0.12755389054E+03  0.12755389054E+03  0.00000000000E+00 0. -1.
         36    2    1    2    0    0  0.00000000000E+00  0.00000000000E+00  0.20430692344E+02  0.27553847343E+03  0.27477997953E+03 0.  0.
         25    2    3    3    0    0 -0.42634181654E+02 -0.37175474482E+02  0.21836145525E+02  0.13914943018E+03  0.12524399115E+03 0.  0.
         25    2    3    3    0    0  0.42634181654E+02  0.37175474482E+02 -0.14054531806E+01  0.13638904325E+03  0.12409797126E+03 0.  0.
          5    1    4    4  502    0 -0.22567898609E+01 -0.76923143294E+02  0.27857778001E+02  0.81978099940E+02  0.47000000000E+01 0. -1.
         -5    1    4    4    0  502 -0.40377391794E+02  0.39747668811E+02 -0.60216324758E+01  0.57171330242E+02  0.47000000000E+01 0. -1.
          5    1    5    5  503    0  0.11581632890E+02 -0.59781190770E+00 -0.59217217643E+02  0.60524874762E+02  0.47000000000E+01 0.  1.
         -5    1    5    5    0  503  0.31052548765E+02  0.37773286390E+02  0.57811764463E+02  0.75864168484E+02  0.47000000000E+01 0.  1.
<mgrwt>
<rscale>  0 0.27477998E+03</rscale>
<asrwt>0</asrwt>
<pdfrwt beam="1">  1        2 0.19623675E-01 0.27477998E+03</pdfrwt>
<pdfrwt beam="2">  1       -2 0.22766859E-01 0.27477998E+03</pdfrwt>
<totfact> 0.47300676E+03</totfact>
</mgrwt>
</event>
<event>
 9    1  0.2114844E-002  0.2741980E+03  0.7818608E-02  0.1098901E+00
          1   -1    0    0  501    0  0.00000000000E+00  0.00000000000E+00  0.19543895195E+03  0.19543895195E+03  0.00000000000E+00 0.  1.
         -1   -1    0    0    0  501 -0.00000000000E+00 -0.00000000000E+00 -0.96173947983E+02  0.96173947983E+02  0.00000000000E+00 0.  1.
         36    2    1    2    0    0 -0.14210854715E-13 -0.71054273576E-14  0.99265003967E+02  0.29161289993E+03  0.27419799852E+03 0.  0.
         25    2    3    3    0    0  0.67873818828E+02  0.32243674966E+01  0.10143709572E+03  0.17799565737E+03  0.12952110958E+03 0.  0.
         25    2    3    3    0    0 -0.67873818828E+02 -0.32243674966E+01 -0.21720917485E+01  0.11361724257E+03  0.91032455739E+02 0.  0.
          5    1    4    4  502    0  0.69228140876E+02 -0.49877354241E+02  0.33873628902E+02  0.91922786567E+02  0.47000000000E+01 0. -1.
         -5    1    4    4    0  502 -0.13543220473E+01  0.53101721738E+02  0.67563466813E+02  0.86072870799E+02  0.47000000000E+01 0. -1.
          5    1    5    5  503    0 -0.62321141945E+01 -0.40528159994E+02 -0.33009638759E+01  0.41404798784E+02  0.47000000000E+01 0. -1.
         -5    1    5    5    0  503 -0.61641704634E+02  0.37303792497E+02  0.11288721274E+01  0.72212443783E+02  0.47000000000E+01 0. -1.
<mgrwt>
<rscale>  0 0.27419800E+03</rscale>
<asrwt>0</asrwt>
<pdfrwt beam="1">  1        1 0.30067531E-01 0.27419800E+03</pdfrwt>
<pdfrwt beam="2">  1       -1 0.14795992E-01 0.27419800E+03</pdfrwt>
<totfact> 0.49273408E+03</totfact>
</mgrwt>
</event>
<event>
 9    1  0.2114844E-002  0.2769547E+03  0.7818608E-02  0.1097364E+00
         -2   -1    0    0    0  501 -0.00000000000E+00  0.00000000000E+00  0.68032845764E+01  0.68032845764E+01  0.00000000000E+00 0. -1.
          2   -1    0    0  501    0  0.00000000000E+00 -0.00000000000E+00 -0.28186356264E+04  0.28186356264E+04  0.00000000000E+00 0. -1.
         36    2    1    2    0    0  0.00000000000E+00  0.35527136788E-14 -0.28118323418E+04  0.28254389110E+04  0.27695472759E+03 0.  0.
         25    2    3    3    0    0  0.11580404976E+02 -0.73471378222E+01 -0.83500280422E+03  0.84460660328E+03  0.12626379149E+03 0.  0.
         25    2    3    3    0    0 -0.11580404976E+02  0.73471378222E+01 -0.19768295376E+04  0.19808323077E+04  0.12511404494E+03 0.  0.
          5    1    4    4  502    0 -0.42491913202E+02 -0.18937250006E+02 -0.14449355473E+03  0.15187053527E+03  0.47000000000E+01 0. -1.
         -5    1    4    4    0  502  0.54072318177E+02  0.11590112183E+02 -0.69050924949E+03  0.69273606802E+03  0.47000000000E+01 0. -1.
          5    1    5    5  503    0 -0.57604741025E+02 -0.30706160947E+02 -0.11210745054E+04  0.11229832194E+04  0.47000000000E+01 0. -1.
         -5    1    5    5    0  503  0.46024336050E+02  0.38053298769E+02 -0.85575503225E+03  0.85784908829E+03  0.47000000000E+01 0. -1.
<mgrwt>
<rscale>  0 0.27695473E+03</rscale>
<asrwt>0</asrwt>
<pdfrwt beam="1">  1        2 0.43363581E+00 0.27695473E+03</pdfrwt>
<pdfrwt beam="2">  1       -2 0.10466602E-02 0.27695473E+03</pdfrwt>
<totfact> 0.53035541E+03</totfact>
</mgrwt>
</event>
<event>
 9    1  0.2114844E-002  0.2748378E+03  0.7818608E-02  0.1098542E+00
          2   -1    0    0  501    0  0.00000000000E+00  0.00000000000E+00  0.25769228293E+03  0.25769228293E+03  0.00000000000E+00 0. -1.
         -2   -1    0    0    0  501 -0.00000000000E+00 -0.00000000000E+00 -0.73281011912E+02  0.73281011912E+02  0.00000000000E+00 0. -1.
         36    2    1    2    0    0  0.00000000000E+00  0.35527136788E-14  0.18441127102E+03  0.33097329485E+03  0.27483777946E+03 0.  0.
         25    2    3    3    0    0  0.16860577420E+02 -0.14020500771E+02  0.24029886868E+02  0.12818901259E+03  0.12399247547E+03 0.  0.
         25    2    3    3    0    0 -0.16860577420E+02  0.14020500771E+02  0.16038138415E+03  0.20278428226E+03  0.12214099736E+03 0.  0.
          5    1    4    4  502    0  0.28043512614E+02 -0.64028023991E+01 -0.47232301043E+02  0.55501484126E+02  0.47000000000E+01 0.  1.
         -5    1    4    4    0  502 -0.11182935195E+02 -0.76176983714E+01  0.71262187911E+02  0.72687528462E+02  0.47000000000E+01 0.  1.
          5    1    5    5  503    0  0.39247325639E+02  0.33732470952E+02  0.11993990269E+03  0.13071305376E+03  0.47000000000E+01 0.  1.
         -5    1    5    5    0  503 -0.56107903059E+02 -0.19711970182E+02  0.40441481465E+02  0.72071228498E+02  0.47000000000E+01 0.  1.
<mgrwt>
<rscale>  0 0.27483778E+03</rscale>
<asrwt>0</asrwt>
<pdfrwt beam="1">  1        2 0.39644966E-01 0.27483778E+03</pdfrwt>
<pdfrwt beam="2">  1       -2 0.11274002E-01 0.27483778E+03</pdfrwt>
<totfact> 0.70049508E+03</totfact>
</mgrwt>
</event>
<event>
 9    1  0.2114844E-002  0.2751331E+03  0.7818608E-02  0.1098377E+00
         -1   -1    0    0    0  501 -0.00000000000E+00  0.00000000000E+00  0.73574349859E+01  0.73574349859E+01  0.00000000000E+00 0. -1.
          1   -1    0    0  501    0  0.00000000000E+00 -0.00000000000E+00 -0.25721681282E+04  0.25721681282E+04  0.00000000000E+00 0. -1.
         36    2    1    2    0    0  0.00000000000E+00  0.53290705182E-14 -0.25648106932E+04  0.25795255632E+04  0.27513312979E+03 0.  0.
         25    2    3    3    0    0 -0.56197177400E+02  0.77259950809E+01 -0.11045523548E+04  0.11129168017E+04  0.12381473775E+03 0.  0.
         25    2    3    3    0    0  0.56197177400E+02 -0.77259950809E+01 -0.14602583385E+04  0.14666087615E+04  0.12397189434E+03 0.  0.
          5    1    4    4  502    0  0.28490269216E+02  0.23678027114E+02 -0.15434285786E+03  0.15879594510E+03  0.47000000000E+01 0. -1.
         -5    1    4    4    0  502 -0.84687446616E+02 -0.15952032033E+02 -0.95020949694E+03  0.95412085661E+03  0.47000000000E+01 0. -1.
          5    1    5    5  503    0  0.35267861691E+02 -0.57189159618E+02 -0.46069960222E+03  0.46559707423E+03  0.47000000000E+01 0.  1.
         -5    1    5    5    0  503  0.20929315709E+02  0.49463164537E+02 -0.99955873624E+03  0.10010116873E+04  0.47000000000E+01 0.  1.
<mgrwt>
<rscale>  0 0.27513313E+03</rscale>
<asrwt>0</asrwt>
<pdfrwt beam="1">  1        1 0.39571800E+00 0.27513313E+03</pdfrwt>
<pdfrwt beam="2">  1       -1 0.11319136E-02 0.27513313E+03</pdfrwt>
<totfact> 0.22307716E+03</totfact>
</mgrwt>
</event>
<event>
 9    1  0.2114844E-002  0.2747913E+03  0.7818608E-02  0.1098568E+00
         -2   -1    0    0    0  501 -0.00000000000E+00  0.00000000000E+00  0.12313971838E+03  0.12313971838E+03  0.00000000000E+00 0.  1.
          2   -1    0    0  501    0  0.00000000000E+00 -0.00000000000E+00 -0.15330197980E+03  0.15330197980E+03  0.00000000000E+00 0.  1.
         36    2    1    2    0    0 -0.71054273576E-14  0.00000000000E+00 -0.30162261427E+02  0.27644169818E+03  0.27479128530E+03 0.  0.
         25    2    3    3    0    0  0.31899081992E+02 -0.22735660367E+02  0.88909615870E+01  0.12989604405E+03  0.12352923289E+03 0.  0.
         25    2    3    3    0    0 -0.31899081992E+02  0.22735660367E+02 -0.39053223014E+02  0.14654565413E+03  0.13570561091E+03 0.  0.
          5    1    4    4  502    0 -0.28751982648E+02 -0.45060568156E+02 -0.22143314395E+02  0.58047805136E+02  0.47000000000E+01 0. -1.
         -5    1    4    4    0  502  0.60651064639E+02  0.22324907789E+02  0.31034275982E+02  0.71848238916E+02  0.47000000000E+01 0. -1.
          5    1    5    5  503    0 -0.83907848602E+02  0.33651680864E+01 -0.13184467806E+02  0.85133845235E+02  0.47000000000E+01 0. -1.
         -5    1    5    5    0  503  0.52008766610E+02  0.19370492280E+02 -0.25868755208E+02  0.61411808893E+02  0.47000000000E+01 0. -1.
<mgrwt>
<rscale>  0 0.27479129E+03</rscale>
<asrwt>0</asrwt>
<pdfrwt beam="1">  1        2 0.23584920E-01 0.27479129E+03</pdfrwt>
<pdfrwt beam="2">  1       -2 0.18944572E-01 0.27479129E+03</pdfrwt>
<totfact> 0.52651735E+03</totfact>
</mgrwt>
</event>
<event>
 9    1  0.2114844E-002  0.2745675E+03  0.7818608E-02  0.1098694E+00
         -1   -1    0    0    0  501 -0.00000000000E+00  0.00000000000E+00  0.20305802092E+03  0.20305802092E+03  0.00000000000E+00 0.  1.
          1   -1    0    0  501    0  0.00000000000E+00 -0.00000000000E+00 -0.92814987401E+02  0.92814987401E+02  0.00000000000E+00 0.  1.
         36    2    1    2    0    0  0.00000000000E+00  0.71054273576E-14  0.11024303352E+03  0.29587300832E+03  0.27456749737E+03 0.  0.
         25    2    3    3    0    0  0.12217370117E+01 -0.38964924768E+02  0.98987658068E+02  0.16455066779E+03  0.12553329365E+03 0.  0.
         25    2    3    3    0    0 -0.12217370117E+01  0.38964924768E+02  0.11255375455E+02  0.13132234054E+03  0.12489641966E+03 0.  0.
          5    1    4    4  502    0  0.36119225790E+02  0.32706369833E+02  0.22145513777E+02  0.53729125060E+02  0.47000000000E+01 0. -1.
         -5    1    4    4    0  502 -0.34897488778E+02 -0.71671294601E+02  0.76842144291E+02  0.11082154273E+03  0.47000000000E+01 0. -1.
          5    1    5    5  503    0  0.37464530981E+02  0.18924695271E+02 -0.43873035251E+02  0.60898837385E+02  0.47000000000E+01 0.  1.
         -5    1    5    5    0  503 -0.38686267993E+02  0.20040229497E+02  0.55128410705E+02  0.70423503154E+02  0.47000000000E+01 0.  1.
<mgrwt>
<rscale>  0 0.27456750E+03</rscale>
<asrwt>0</asrwt>
<pdfrwt beam="1">  1        1 0.14279229E-01 0.27456750E+03</pdfrwt>
<pdfrwt beam="2">  1       -1 0.31239695E-01 0.27456750E+03</pdfrwt>
<totfact> 0.37703628E+03</totfact>
</mgrwt>
</event>
<event>
 9    1  0.2114844E-002  0.2771634E+03  0.7818608E-02  0.1097248E+00
          2   -1    0    0  501    0  0.00000000000E+00  0.00000000000E+00  0.56981506618E+03  0.56981506618E+03  0.00000000000E+00 0. -1.
         -2   -1    0    0    0  501 -0.00000000000E+00 -0.00000000000E+00 -0.33703724363E+02  0.33703724363E+02  0.00000000000E+00 0. -1.
         36    2    1    2    0    0  0.71054273576E-14  0.00000000000E+00  0.53611134181E+03  0.60351879054E+03  0.27716341698E+03 0.  0.
         25    2    3    3    0    0 -0.32706294743E+02  0.54359615448E+02  0.28080710501E+03  0.31303079119E+03  0.12292671191E+03 0.  0.
         25    2    3    3    0    0  0.32706294743E+02 -0.54359615448E+02  0.25530423681E+03  0.29048799935E+03  0.12320046643E+03 0.  0.
          5    1    4    4  502    0  0.20457971495E+02  0.76216078704E+02  0.18533475861E+03  0.20149064991E+03  0.47000000000E+01 0.  1.
         -5    1    4    4    0  502 -0.53164266238E+02 -0.21856463256E+02  0.95472346398E+02  0.11154014128E+03  0.47000000000E+01 0.  1.
          5    1    5    5  503    0  0.12694674782E+02 -0.42147902171E+02  0.26195596937E+03  0.26567013440E+03  0.47000000000E+01 0.  1.
         -5    1    5    5    0  503  0.20011619961E+02 -0.12211713278E+02 -0.66517325617E+01  0.24817864950E+02  0.47000000000E+01 0.  1.
<mgrwt>
<rscale>  0 0.27716342E+03</rscale>
<asrwt>0</asrwt>
<pdfrwt beam="1">  1        2 0.87663849E-01 0.27716342E+03</pdfrwt>
<pdfrwt beam="2">  1       -2 0.51851888E-02 0.27716342E+03</pdfrwt>
<totfact> 0.98798536E+03</totfact>
</mgrwt>
</event>
<event>
 9    1  0.2114844E-002  0.2754031E+03  0.7818608E-02  0.1098226E+00
         -2   -1    0    0    0  501 -0.00000000000E+00  0.00000000000E+00  0.17286681224E+03  0.17286681224E+03  0.00000000000E+00 0.  1.
          2   -1    0    0  501    0  0.00000000000E+00 -0.00000000000E+00 -0.10968976697E+03  0.10968976697E+03  0.00000000000E+00 0.  1.
         36    2    1    2    0    0  0.00000000000E+00  0.35527136788E-14  0.63177045269E+02  0.28255657922E+03  0.27540312527E+03 0.  0.
         25    2    3    3    0    0  0.58396345657E+02  0.91890205507E+01  0.46556058460E+02  0.14272581357E+03  0.12127909958E+03 0.  0.
         25    2    3    3    0    0 -0.58396345657E+02 -0.91890205507E+01  0.16620986809E+02  0.13983076565E+03  0.12562569218E+03 0.  0.
          5    1    4    4  502    0 -0.19515048757E+00  0.35172685063E+02  0.66550854224E+02  0.75420567859E+02  0.47000000000E+01 0. -1.
         -5    1    4    4    0  502  0.58591496144E+02 -0.25983664512E+02 -0.19994795764E+02  0.67305245706E+02  0.47000000000E+01 0. -1.
          5    1    5    5  503    0 -0.49381156035E+02  0.20178288629E+02  0.63825082631E+02  0.83315023112E+02  0.47000000000E+01 0.  1.
         -5    1    5    5    0  503 -0.90151896215E+01 -0.29367309179E+02 -0.47204095822E+02  0.56515742539E+02  0.47000000000E+01 0.  1.
<mgrwt>
<rscale>  0 0.27540313E+03</rscale>
<asrwt>0</asrwt>
<pdfrwt beam="1">  1        2 0.16875349E-01 0.27540313E+03</pdfrwt>
<pdfrwt beam="2">  1       -2 0.26594894E-01 0.27540313E+03</pdfrwt>
<totfact> 0.42852678E+03</totfact>
</mgrwt>
</event>
<event>
 9    1  0.2114844E-002  0.2742907E+03  0.7818608E-02  0.1098849E+00
          2   -1    0    0  501    0  0.00000000000E+00  0.00000000000E+00  0.34148216801E+03  0.34148216801E+03  0.00000000000E+00 0. -1.
         -2   -1    0    0    0  501 -0.00000000000E+00 -0.00000000000E+00 -0.55080014985E+02  0.55080014985E+02  0.00000000000E+00 0. -1.
         36    2    1    2    0    0  0.35527136788E-14 -0.14210854715E-13  0.28640215303E+03  0.39656218300E+03  0.27429067014E+03 0.  0.
         25    2    3    3    0    0  0.67588797701E+01 -0.53485383455E+02  0.16924492465E+03  0.21605813511E+03  0.12300774175E+03 0.  0.
         25    2    3    3    0    0 -0.67588797701E+01  0.53485383455E+02  0.11715722838E+03  0.18050404788E+03  0.12629143455E+03 0.  0.
          5    1    4    4  502    0 -0.28471459106E+02 -0.78076300207E+02  0.14309167911E+03  0.16554108634E+03  0.47000000000E+01 0. -1.
         -5    1    4    4    0  502  0.35230338876E+02  0.24590916752E+02  0.26153245536E+02  0.50517048767E+02  0.47000000000E+01 0. -1.
          5    1    5    5  503    0  0.44139554761E+01  0.24693432374E+02  0.13967977870E+03  0.14199218001E+03  0.47000000000E+01 0. -1.
         -5    1    5    5    0  503 -0.11172835246E+02  0.28791951081E+02 -0.22522550320E+02  0.38511867877E+02  0.47000000000E+01 0. -1.
<mgrwt>
<rscale>  0 0.27429067E+03</rscale>
<asrwt>0</asrwt>
<pdfrwt beam="1">  1        2 0.52535717E-01 0.27429067E+03</pdfrwt>
<pdfrwt beam="2">  1       -2 0.84738487E-02 0.27429067E+03</pdfrwt>
<totfact> 0.81381473E+03</totfact>
</mgrwt>
</event>
<event>
 9    1  0.2114844E-002  0.2747683E+03  0.7818608E-02  0.1098581E+00
         -2   -1    0    0    0  501 -0.00000000000E+00  0.00000000000E+00  0.28273336667E+02  0.28273336667E+02  0.00000000000E+00 0.  1.
          2   -1    0    0  501    0  0.00000000000E+00 -0.00000000000E+00 -0.66756890796E+03  0.66756890796E+03  0.00000000000E+00 0.  1.
         36    2    1    2    0    0  0.00000000000E+00  0.35527136788E-14 -0.63929557129E+03  0.69584224463E+03  0.27476826952E+03 0.  0.
         25    2    3    3    0    0  0.89567139497E+02  0.17350995965E+02 -0.27012379053E+03  0.29541658708E+03  0.77335426374E+02 0.  0.
         25    2    3    3    0    0 -0.89567139497E+02 -0.17350995965E+02 -0.36917178076E+03  0.40042565755E+03  0.12541759834E+03 0.  0.
          5    1    4    4  502    0  0.36942521692E+02  0.25667765433E+02 -0.44170645822E+02  0.63219617554E+02  0.47000000000E+01 0. -1.
         -5    1    4    4    0  502  0.52624617805E+02 -0.83167694671E+01 -0.22595314471E+03  0.23219696953E+03  0.47000000000E+01 0. -1.
          5    1    5    5  503    0 -0.45588508804E+02  0.14972562442E+01 -0.23686157100E+02  0.51610831707E+02  0.47000000000E+01 0. -1.
         -5    1    5    5    0  503 -0.43978630693E+02 -0.18848252210E+02 -0.34548562366E+03  0.34881482584E+03  0.47000000000E+01 0. -1.
<mgrwt>
<rscale>  0 0.27476827E+03</rscale>
<asrwt>0</asrwt>
<pdfrwt beam="1">  1        2 0.10270290E+00 0.27476827E+03</pdfrwt>
<pdfrwt beam="2">  1       -2 0.43497443E-02 0.27476827E+03</pdfrwt>
<totfact> 0.10710328E+04</totfact>
</mgrwt>
</event>
<event>
 9    1  0.2114844E-002  0.2823293E+03  0.7818608E-02  0.1094423E+00
         -2   -1    0    0    0  501 -0.00000000000E+00  0.00000000000E+00  0.53976205422E+02  0.53976205422E+02  0.00000000000E+00 0. -1.
          2   -1    0    0  501    0  0.00000000000E+00 -0.00000000000E+00 -0.36918967701E+03  0.36918967701E+03  0.00000000000E+00 0. -1.
         36    2    1    2    0    0  0.88817841970E-15  0.00000000000E+00 -0.31521347159E+03  0.42316588243E+03  0.28232929601E+03 0.  0.
         25    2    3    3    0    0  0.57841435679E+01  0.45434645463E+01 -0.24247000688E+03  0.27442045238E+03  0.12829957547E+03 0.  0.
         25    2    3    3    0    0 -0.57841435679E+01 -0.45434645463E+01 -0.72743464713E+02  0.14874543005E+03  0.12953567816E+03 0.  0.
          5    1    4    4  502    0  0.33045459645E+02  0.36131162285E+02 -0.29513077307E+02  0.57363533916E+02  0.47000000000E+01 0. -1.
         -5    1    4    4    0  502 -0.27261316077E+02 -0.31587697739E+02 -0.21295692957E+03  0.21705691847E+03  0.47000000000E+01 0. -1.
          5    1    5    5  503    0 -0.10506413831E+02  0.10834630660E+02 -0.10829452546E+03  0.10944207690E+03  0.47000000000E+01 0. -1.
         -5    1    5    5    0  503  0.47222702630E+01 -0.15378095206E+02  0.35551060744E+02  0.39303353147E+02  0.47000000000E+01 0. -1.
<mgrwt>
<rscale>  0 0.28232930E+03</rscale>
<asrwt>0</asrwt>
<pdfrwt beam="1">  1        2 0.56798411E-01 0.28232930E+03</pdfrwt>
<pdfrwt beam="2">  1       -2 0.83040317E-02 0.28232930E+03</pdfrwt>
<totfact> 0.77297614E+03</totfact>
</mgrwt>
</event>
<event>
 9    1  0.2114844E-002  0.2740627E+03  0.7818608E-02  0.1098977E+00
         -1   -1    0    0    0  501 -0.00000000000E+00  0.00000000000E+00  0.16235879918E+02  0.16235879918E+02  0.00000000000E+00 0.  1.
          1   -1    0    0  501    0  0.00000000000E+00 -0.00000000000E+00 -0.11565488234E+04  0.11565488234E+04  0.00000000000E+00 0.  1.
         36    2    1    2    0    0  0.00000000000E+00  0.35527136788E-14 -0.11403129435E+04  0.11727847033E+04  0.27406267762E+03 0.  0.
         25    2    3    3    0    0  0.53346885151E+02  0.15525667830E+02 -0.65689803823E+03  0.67062746160E+03  0.12304155035E+03 0.  0.
         25    2    3    3    0    0 -0.53346885151E+02 -0.15525667830E+02 -0.48341490523E+03  0.50215724170E+03  0.12403623772E+03 0.  0.
          5    1    4    4  502    0  0.73646144078E+02 -0.18690032708E+02 -0.56851603653E+03  0.57359013734E+03  0.47000000000E+01 0. -1.
         -5    1    4    4    0  502 -0.20299258927E+02  0.34215700538E+02 -0.88382001698E+02  0.97037324265E+02  0.47000000000E+01 0. -1.
          5    1    5    5  503    0 -0.26689998213E+02  0.36974810429E+02 -0.38241623648E+03  0.38515420357E+03  0.47000000000E+01 0. -1.
         -5    1    5    5    0  503 -0.26656886938E+02 -0.52500478259E+02 -0.10099866876E+03  0.11700303812E+03  0.47000000000E+01 0. -1.
<mgrwt>
<rscale>  0 0.27406268E+03</rscale>
<asrwt>0</asrwt>
<pdfrwt beam="1">  1        1 0.17793053E+00 0.27406268E+03</pdfrwt>
<pdfrwt beam="2">  1       -1 0.24978285E-02 0.27406268E+03</pdfrwt>
<totfact> 0.60746538E+03</totfact>
</mgrwt>
</event>
<event>
 9    1  0.2114844E-002  0.2750135E+03  0.7818608E-02  0.1098444E+00
          1   -1    0    0  501    0  0.00000000000E+00  0.00000000000E+00  0.24745644383E+02  0.24745644383E+02  0.00000000000E+00 0.  1.
         -1   -1    0    0    0  501 -0.00000000000E+00 -0.00000000000E+00 -0.76409827948E+03  0.76409827948E+03  0.00000000000E+00 0.  1.
         36    2    1    2    0    0 -0.71054273576E-14  0.35527136788E-14 -0.73935263509E+03  0.78884392386E+03  0.27501348547E+03 0.  0.
         25    2    3    3    0    0  0.50399789928E+02  0.85016949009E+01 -0.27790376731E+03  0.30764256080E+03  0.12165945786E+03 0.  0.
         25    2    3    3    0    0 -0.50399789928E+02 -0.85016949009E+01 -0.46144886778E+03  0.48120136306E+03  0.12651986640E+03 0.  0.
          5    1    4    4  502    0 -0.26235014772E+02 -0.34746846528E+02 -0.96144695992E+02  0.10564805683E+03  0.47000000000E+01 0. -1.
         -5    1    4    4    0  502  0.76634804701E+02  0.43248541428E+02 -0.18175907132E+03  0.20199450397E+03  0.47000000000E+01 0. -1.
          5    1    5    5  503    0 -0.30706429659E+02  0.18349123628E+02 -0.43964476930E+03  0.44112264546E+03  0.47000000000E+01 0.  1.
         -5    1    5    5    0  503 -0.19693360269E+02 -0.26850818529E+02 -0.21804098479E+02  0.40078717605E+02  0.47000000000E+01 0.  1.
<mgrwt>
<rscale>  0 0.27501349E+03</rscale>
<asrwt>0</asrwt>
<pdfrwt beam="1">  1        1 0.38070223E-02 0.27501349E+03</pdfrwt>
<pdfrwt beam="2">  1       -1 0.11755358E+00 0.27501349E+03</pdfrwt>
<totfact> 0.16917829E+03</totfact>
</mgrwt>
</event>
<event>
 9    1  0.2114844E-002  0.2750598E+03  0.7818608E-02  0.1098418E+00
         -2   -1    0    0    0  501 -0.00000000000E+00  0.00000000000E+00  0.12005962438E+02  0.12005962438E+02  0.00000000000E+00 0.  1.
          2   -1    0    0  501    0  0.00000000000E+00 -0.00000000000E+00 -0.15754234288E+04  0.15754234288E+04  0.00000000000E+00 0.  1.
         36    2    1    2    0    0  0.00000000000E+00 -0.71054273576E-14 -0.15634174664E+04  0.15874293912E+04  0.27505980811E+03 0.  0.
         25    2    3    3    0    0 -0.12103375536E+02  0.25220136027E+02 -0.46270700121E+03  0.47919168267E+03  0.12142632666E+03 0.  0.
         25    2    3    3    0    0  0.12103375536E+02 -0.25220136027E+02 -0.11007104651E+04  0.11082377086E+04  0.12587590575E+03 0.  0.
          5    1    4    4  502    0 -0.49411516309E+02 -0.69722781995E+01 -0.88358594970E+02  0.10158465392E+03  0.47000000000E+01 0.  1.
         -5    1    4    4    0  502  0.37308140773E+02  0.32192414227E+02 -0.37434840624E+03  0.37760702875E+03  0.47000000000E+01 0.  1.
          5    1    5    5  503    0 -0.48919307016E+02  0.19759627674E+02 -0.44164763047E+03  0.44481261334E+03  0.47000000000E+01 0.  1.
         -5    1    5    5    0  503  0.61022682552E+02 -0.44979763701E+02 -0.65906283467E+03  0.66342509522E+03  0.47000000000E+01 0.  1.
<mgrwt>
<rscale>  0 0.27505981E+03</rscale>
<asrwt>0</asrwt>
<pdfrwt beam="1">  1        2 0.24237272E+00 0.27505981E+03</pdfrwt>
<pdfrwt beam="2">  1       -2 0.18470720E-02 0.27505981E+03</pdfrwt>
<totfact> 0.10808373E+04</totfact>
</mgrwt>
</event>
<event>
 9    1  0.2114844E-002  0.2747079E+03  0.7818608E-02  0.1098615E+00
         -1   -1    0    0    0  501 -0.00000000000E+00  0.00000000000E+00  0.13752508886E+02  0.13752508886E+02  0.00000000000E+00 0. -1.
          1   -1    0    0  501    0  0.00000000000E+00 -0.00000000000E+00 -0.13718302756E+04  0.13718302756E+04  0.00000000000E+00 0. -1.
         36    2    1    2    0    0  0.00000000000E+00 -0.71054273576E-14 -0.13580777668E+04  0.13855827845E+04  0.27470790346E+03 0.  0.
         25    2    3    3    0    0 -0.55517333730E+02  0.17530586571E+02 -0.62376505939E+03  0.63872726980E+03  0.12449971912E+03 0.  0.
         25    2    3    3    0    0  0.55517333730E+02 -0.17530586571E+02 -0.73431270737E+03  0.74685551473E+03  0.12324168073E+03 0.  0.
          5    1    4    4  502    0 -0.38270996180E+02 -0.51922545452E+02 -0.33535917312E+03  0.34153840907E+03  0.47000000000E+01 0.  1.
         -5    1    4    4    0  502 -0.17246337550E+02  0.69453132024E+02 -0.28840588627E+03  0.29718886073E+03  0.47000000000E+01 0.  1.
          5    1    5    5  503    0  0.80438391612E+01 -0.29089554182E+01 -0.64071057421E+03  0.64078490562E+03  0.47000000000E+01 0. -1.
         -5    1    5    5    0  503  0.47473494569E+02 -0.14621631153E+02 -0.93602133158E+02  0.10607060910E+03  0.47000000000E+01 0. -1.
<mgrwt>
<rscale>  0 0.27470790E+03</rscale>
<asrwt>0</asrwt>
<pdfrwt beam="1">  1        1 0.21105088E+00 0.27470790E+03</pdfrwt>
<pdfrwt beam="2">  1       -1 0.21157699E-02 0.27470790E+03</pdfrwt>
<totfact> 0.55051058E+03</totfact>
</mgrwt>
</event>
<event>
 9    1  0.2114844E-002  0.2749857E+03  0.7818608E-02  0.1098460E+00
         -2   -1    0    0    0  501 -0.00000000000E+00  0.00000000000E+00  0.39195019747E+02  0.39195019747E+02  0.00000000000E+00 0. -1.
          2   -1    0    0  501    0  0.00000000000E+00 -0.00000000000E+00 -0.48231339493E+03  0.48231339493E+03  0.00000000000E+00 0. -1.
         36    2    1    2    0    0 -0.71054273576E-14  0.35527136788E-14 -0.44311837518E+03  0.52150841467E+03  0.27498569445E+03 0.  0.
         25    2    3    3    0    0 -0.54722678773E+02 -0.85355860900E+00 -0.25772796960E+03  0.29223311198E+03  0.12641671286E+03 0.  0.
         25    2    3    3    0    0  0.54722678773E+02  0.85355860900E+00 -0.18539040558E+03  0.22927530269E+03  0.12329745257E+03 0.  0.
          5    1    4    4  502    0 -0.56242551014E+00  0.55940072692E+02 -0.78390390354E+02  0.96419662700E+02  0.47000000000E+01 0.  1.
         -5    1    4    4    0  502 -0.54160253263E+02 -0.56793631301E+02 -0.17933757924E+03  0.19581344928E+03  0.47000000000E+01 0.  1.
          5    1    5    5  503    0 -0.35271280790E+02  0.18887205799E+02 -0.36815149418E+02  0.54573207878E+02  0.47000000000E+01 0. -1.
         -5    1    5    5    0  503  0.89993959563E+02 -0.18033647190E+02 -0.14857525616E+03  0.17470209482E+03  0.47000000000E+01 0. -1.
<mgrwt>
<rscale>  0 0.27498569E+03</rscale>
<asrwt>0</asrwt>
<pdfrwt beam="1">  1        2 0.74202060E-01 0.27498569E+03</pdfrwt>
<pdfrwt beam="2">  1       -2 0.60300031E-02 0.27498569E+03</pdfrwt>
<totfact> 0.94658844E+03</totfact>
</mgrwt>
</event>
<event>
 9    1  0.2114844E-002  0.2869501E+03  0.7818608E-02  0.1091952E+00
          2   -1    0    0  501    0  0.00000000000E+00  0.00000000000E+00  0.18386288297E+04  0.18386288297E+04  0.00000000000E+00 0.  1.
         -2   -1    0    0    0  501 -0.00000000000E+00 -0.00000000000E+00 -0.11195888397E+02  0.11195888397E+02  0.00000000000E+00 0.  1.
         36    2    1    2    0    0  0.00000000000E+00  0.14210854715E-13  0.18274329413E+04  0.18498247181E+04  0.28695005266E+03 0.  0.
         25    2    3    3    0    0  0.33227194175E+02 -0.55790998807E+02  0.11193198324E+04  0.11277150813E+04  0.12102782903E+03 0.  0.
         25    2    3    3    0    0 -0.33227194175E+02  0.55790998807E+02  0.70811310890E+03  0.72210963679E+03  0.12570390041E+03 0.  0.
          5    1    4    4  502    0  0.38166345445E+02 -0.91215159769E+02  0.90278444612E+03  0.90819531019E+03  0.47000000000E+01 0. -1.
         -5    1    4    4    0  502 -0.49391512708E+01  0.35424160962E+02  0.21653538632E+03  0.21951977114E+03  0.47000000000E+01 0. -1.
          5    1    5    5  503    0 -0.58337720456E+02  0.64022197356E+02  0.66943372977E+03  0.67503017705E+03  0.47000000000E+01 0.  1.
         -5    1    5    5    0  503  0.25110526281E+02 -0.82311985492E+01  0.38679379131E+02  0.47079459743E+02  0.47000000000E+01 0.  1.
<mgrwt>
<rscale>  0 0.28695005E+03</rscale>
<asrwt>0</asrwt>
<pdfrwt beam="1">  1        2 0.28286573E+00 0.28695005E+03</pdfrwt>
<pdfrwt beam="2">  1       -2 0.17224458E-02 0.28695005E+03</pdfrwt>
<totfact> 0.87048925E+03</totfact>
</mgrwt>
</event>
<event>
 9    1  0.2114844E-002  0.2766700E+03  0.7818608E-02  0.1097522E+00
         -2   -1    0    0    0  501 -0.00000000000E+00  0.00000000000E+00  0.76557936348E+01  0.76557936348E+01  0.00000000000E+00 0.  1.
          2   -1    0    0  501    0  0.00000000000E+00 -0.00000000000E+00 -0.24996191333E+04  0.24996191333E+04  0.00000000000E+00 0.  1.
         36    2    1    2    0    0  0.00000000000E+00  0.00000000000E+00 -0.24919633397E+04  0.25072749269E+04  0.27666997127E+03 0.  0.
         25    2    3    3    0    0 -0.40668223058E+02  0.26472623327E+02 -0.11693900908E+04  0.11779671404E+04  0.13333677340E+03 0.  0.
         25    2    3    3    0    0  0.40668223058E+02 -0.26472623327E+02 -0.13225732489E+04  0.13293077866E+04  0.12451702172E+03 0.  0.
          5    1    4    4  502    0 -0.30026205118E+02  0.64313417824E+02 -0.10452444259E+04  0.10476620583E+04  0.47000000000E+01 0. -1.
         -5    1    4    4    0  502 -0.10642017940E+02 -0.37840794497E+02 -0.12414566495E+03  0.13030508202E+03  0.47000000000E+01 0. -1.
          5    1    5    5  503    0  0.53105467872E+02 -0.68468805495E+02 -0.99674534616E+03  0.10005156386E+04  0.47000000000E+01 0. -1.
         -5    1    5    5    0  503 -0.12437244814E+02  0.41996182167E+02 -0.32582790271E+03  0.32879214796E+03  0.47000000000E+01 0. -1.
<mgrwt>
<rscale>  0 0.27666997E+03</rscale>
<asrwt>0</asrwt>
<pdfrwt beam="1">  1        2 0.38455680E+00 0.27666997E+03</pdfrwt>
<pdfrwt beam="2">  1       -2 0.11778144E-02 0.27666997E+03</pdfrwt>
<totfact> 0.67410515E+03</totfact>
</mgrwt>
</event>
<event>
 9    1  0.2114844E-002  0.2756374E+03  0.7818608E-02  0.1098096E+00
          1   -1    0    0  501    0  0.00000000000E+00  0.00000000000E+00  0.68240555192E+03  0.68240555192E+03  0.00000000000E+00 0. -1.
         -1   -1    0    0    0  501 -0.00000000000E+00 -0.00000000000E+00 -0.27833884646E+02  0.27833884646E+02  0.00000000000E+00 0. -1.
         36    2    1    2    0    0 -0.71054273576E-14 -0.71054273576E-14  0.65457166727E+03  0.71023943656E+03  0.27563742427E+03 0.  0.
         25    2    3    3    0    0 -0.40851290116E+02  0.27786930711E+02  0.21532973222E+03  0.25511283187E+03  0.12757241860E+03 0.  0.
         25    2    3    3    0    0  0.40851290116E+02 -0.27786930711E+02  0.43924193505E+03  0.45512660469E+03  0.10847030637E+03 0.  0.
          5    1    4    4  502    0  0.69033196269E+01  0.39501114733E+02  0.19905198416E+03  0.20310533298E+03  0.47000000000E+01 0. -1.
         -5    1    4    4    0  502 -0.47754609743E+02 -0.11714184022E+02  0.16277748051E+02  0.52007498888E+02  0.47000000000E+01 0. -1.
          5    1    5    5  503    0 -0.13972814360E+02  0.28835162272E+02  0.64692089064E+02  0.72345438777E+02  0.47000000000E+01 0. -1.
         -5    1    5    5    0  503  0.54824104476E+02 -0.56622092984E+02  0.37454984599E+03  0.38278116591E+03  0.47000000000E+01 0. -1.
<mgrwt>
<rscale>  0 0.27563742E+03</rscale>
<asrwt>0</asrwt>
<pdfrwt beam="1">  1        1 0.10498546E+00 0.27563742E+03</pdfrwt>
<pdfrwt beam="2">  1       -1 0.42821366E-02 0.27563742E+03</pdfrwt>
<totfact> 0.64806998E+03</totfact>
</mgrwt>
</event>
<event>
 9    1  0.2114844E-002  0.2743519E+03  0.7818608E-02  0.1098814E+00
         -1   -1    0    0    0  501 -0.00000000000E+00  0.00000000000E+00  0.24743453917E+02  0.24743453917E+02  0.00000000000E+00 0.  1.
          1   -1    0    0  501    0  0.00000000000E+00 -0.00000000000E+00 -0.76049375641E+03  0.76049375641E+03  0.00000000000E+00 0.  1.
         36    2    1    2    0    0  0.35527136788E-14  0.00000000000E+00 -0.73575030249E+03  0.78523721032E+03  0.27435190698E+03 0.  0.
         25    2    3    3    0    0  0.37177055939E+01  0.40945827808E+02 -0.45509604739E+03  0.47567941269E+03  0.13216697453E+03 0.  0.
         25    2    3    3    0    0 -0.37177055939E+01 -0.40945827808E+02 -0.28065425510E+03  0.30955779764E+03  0.12397111366E+03 0.  0.
          5    1    4    4  502    0  0.47853824764E+02  0.25698063698E+02 -0.39824446089E+03  0.40195910196E+03  0.47000000000E+01 0.  1.
         -5    1    4    4    0  502 -0.44136119170E+02  0.15247764111E+02 -0.56851586496E+02  0.73720310722E+02  0.47000000000E+01 0.  1.
          5    1    5    5  503    0  0.18676110039E+02 -0.22581010545E+02 -0.24153390016E+01  0.29776215104E+02  0.47000000000E+01 0.  1.
         -5    1    5    5    0  503 -0.22393815633E+02 -0.18364817263E+02 -0.27823891610E+03  0.27978158253E+03  0.47000000000E+01 0.  1.
<mgrwt>
<rscale>  0 0.27435191E+03</rscale>
<asrwt>0</asrwt>
<pdfrwt beam="1">  1        1 0.11699903E+00 0.27435191E+03</pdfrwt>
<pdfrwt beam="2">  1       -1 0.38066854E-02 0.27435191E+03</pdfrwt>
<totfact> 0.65793525E+03</totfact>
</mgrwt>
</event>
<event>
 9    1  0.2114844E-002  0.2724748E+03  0.7818608E-02  0.1099871E+00
         -2   -1    0    0    0  501 -0.00000000000E+00  0.00000000000E+00  0.19621596070E+02  0.19621596070E+02  0.00000000000E+00 0.  1.
          2   -1    0    0  501    0  0.00000000000E+00 -0.00000000000E+00 -0.94592894895E+03  0.94592894895E+03  0.00000000000E+00 0.  1.
         36    2    1    2    0    0 -0.71054273576E-14 -0.17763568394E-14 -0.92630735288E+03  0.96555054502E+03  0.27247484836E+03 0.  0.
         25    2    3    3    0    0 -0.61190104783E+02 -0.11273821008E+02 -0.39389837604E+03  0.41619121883E+03  0.11911285414E+03 0.  0.
         25    2    3    3    0    0  0.61190104783E+02  0.11273821008E+02 -0.53240897684E+03  0.54935932619E+03  0.12027062272E+03 0.  0.
          5    1    4    4  502    0 -0.95419598022E+02 -0.43207044020E+01 -0.24094357108E+03  0.25922859144E+03  0.47000000000E+01 0.  1.
         -5    1    4    4    0  502  0.34229493239E+02 -0.69531166056E+01 -0.15295480496E+03  0.15696262739E+03  0.47000000000E+01 0.  1.
          5    1    5    5  503    0  0.35639925412E+02  0.58269049154E+02 -0.17460850871E+03  0.18755187999E+03  0.47000000000E+01 0.  1.
         -5    1    5    5    0  503  0.25550179371E+02 -0.46995228146E+02 -0.35780046813E+03  0.36180744620E+03  0.47000000000E+01 0.  1.
<mgrwt>
<rscale>  0 0.27247485E+03</rscale>
<asrwt>0</asrwt>
<pdfrwt beam="1">  1        2 0.14552752E+00 0.27247485E+03</pdfrwt>
<pdfrwt beam="2">  1       -2 0.30187072E-02 0.27247485E+03</pdfrwt>
<totfact> 0.11873218E+04</totfact>
</mgrwt>
</event>
<event>
 9    1  0.2114844E-002  0.2747668E+03  0.7818608E-02  0.1098582E+00
         -1   -1    0    0    0  501 -0.00000000000E+00  0.00000000000E+00  0.57047644748E+02  0.57047644748E+02  0.00000000000E+00 0.  1.
          1   -1    0    0  501    0  0.00000000000E+00 -0.00000000000E+00 -0.33084973554E+03  0.33084973554E+03  0.00000000000E+00 0.  1.
         36    2    1    2    0    0  0.00000000000E+00  0.00000000000E+00 -0.27380209079E+03  0.38789738029E+03  0.27476679696E+03 0.  0.
         25    2    3    3    0    0  0.50082381817E+02  0.33706580763E+02 -0.14137042653E+03  0.19829964512E+03  0.12527079947E+03 0.  0.
         25    2    3    3    0    0 -0.50082381817E+02 -0.33706580763E+02 -0.13243166427E+03  0.18959773518E+03  0.12151039844E+03 0.  0.
          5    1    4    4  502    0 -0.23204579790E+02  0.39865604286E+02 -0.96419537017E+01  0.47357958144E+02  0.47000000000E+01 0. -1.
         -5    1    4    4    0  502  0.73286961608E+02 -0.61590235231E+01 -0.13172847283E+03  0.15094168697E+03  0.47000000000E+01 0. -1.
          5    1    5    5  503    0 -0.31310333205E+02 -0.18153447819E+02  0.15460720178E+02  0.39635949610E+02  0.47000000000E+01 0.  1.
         -5    1    5    5    0  503 -0.18772048612E+02 -0.15553132945E+02 -0.14789238444E+03  0.14996178556E+03  0.47000000000E+01 0.  1.
<mgrwt>
<rscale>  0 0.27476680E+03</rscale>
<asrwt>0</asrwt>
<pdfrwt beam="1">  1        1 0.50899959E-01 0.27476680E+03</pdfrwt>
<pdfrwt beam="2">  1       -1 0.87765608E-02 0.27476680E+03</pdfrwt>
<totfact> 0.57355972E+03</totfact>
</mgrwt>
</event>
<event>
 9    1  0.2114844E-002  0.2741924E+03  0.7818608E-02  0.1098904E+00
         -3   -1    0    0    0  501 -0.00000000000E+00  0.00000000000E+00  0.75063183069E+02  0.75063183069E+02  0.00000000000E+00 0. -1.
          3   -1    0    0  501    0  0.00000000000E+00 -0.00000000000E+00 -0.25039397533E+03  0.25039397533E+03  0.00000000000E+00 0. -1.
         36    2    1    2    0    0  0.35527136788E-14  0.00000000000E+00 -0.17533079226E+03  0.32545715839E+03  0.27419240551E+03 0.  0.
         25    2    3    3    0    0  0.23837217328E+02  0.35258633672E+02 -0.36311499674E+02  0.13356830504E+03  0.12128719192E+03 0.  0.
         25    2    3    3    0    0 -0.23837217328E+02 -0.35258633672E+02 -0.13901929258E+03  0.19188885335E+03  0.12523411737E+03 0.  0.
          5    1    4    4  502    0  0.12215976115E+02  0.12780572033E+02 -0.80433908614E+02  0.82488040035E+02  0.47000000000E+01 0. -1.
         -5    1    4    4    0  502  0.11621241213E+02  0.22478061639E+02  0.44122408940E+02  0.51080265005E+02  0.47000000000E+01 0. -1.
          5    1    5    5  503    0 -0.38509901953E+02 -0.77245383194E+02 -0.79511504532E+02  0.11744799328E+03  0.47000000000E+01 0.  1.
         -5    1    5    5    0  503  0.14672684625E+02  0.41986749522E+02 -0.59507788051E+02  0.74440860072E+02  0.47000000000E+01 0.  1.
<mgrwt>
<rscale>  0 0.27419241E+03</rscale>
<asrwt>0</asrwt>
<pdfrwt beam="1">  1        3 0.38522150E-01 0.27419241E+03</pdfrwt>
<pdfrwt beam="2">  1       -3 0.11548182E-01 0.27419241E+03</pdfrwt>
<totfact> 0.98464533E+02</totfact>
</mgrwt>
</event>
<event>
 9    1  0.2114844E-002  0.2748804E+03  0.7818608E-02  0.1098518E+00
          2   -1    0    0  501    0  0.00000000000E+00  0.00000000000E+00  0.12556058732E+04  0.12556058732E+04  0.00000000000E+00 0. -1.
         -2   -1    0    0    0  501 -0.00000000000E+00 -0.00000000000E+00 -0.15044372478E+02  0.15044372478E+02  0.00000000000E+00 0. -1.
         36    2    1    2    0    0  0.26645352591E-14  0.00000000000E+00  0.12405615007E+04  0.12706502457E+04  0.27488035537E+03 0.  0.
         25    2    3    3    0    0 -0.22417214364E+01  0.77337682695E+02  0.63951267294E+03  0.65278583143E+03  0.10567279872E+03 0.  0.
         25    2    3    3    0    0  0.22417214364E+01 -0.77337682695E+02  0.60104882778E+03  0.61786441424E+03  0.12045994576E+03 0.  0.
          5    1    4    4  502    0 -0.52542333844E+01  0.54544243766E+02  0.61952181419E+03  0.62195823795E+03  0.47000000000E+01 0. -1.
         -5    1    4    4    0  502  0.30125119480E+01  0.22793438929E+02  0.19990858753E+02  0.30827593486E+02  0.47000000000E+01 0. -1.
          5    1    5    5  503    0  0.18425903391E+02 -0.70676392611E+02  0.15461572169E+03  0.17106366587E+03  0.47000000000E+01 0. -1.
         -5    1    5    5    0  503 -0.16184181954E+02 -0.66612900835E+01  0.44643310609E+03  0.44680074837E+03  0.47000000000E+01 0. -1.
<mgrwt>
<rscale>  0 0.27488036E+03</rscale>
<asrwt>0</asrwt>
<pdfrwt beam="1">  1        2 0.19317005E+00 0.27488036E+03</pdfrwt>
<pdfrwt beam="2">  1       -2 0.23145198E-02 0.27488036E+03</pdfrwt>
<totfact> 0.11564007E+04</totfact>
</mgrwt>
</event>
<event>
 9    1  0.2114844E-002  0.2734727E+03  0.7818608E-02  0.1099308E+00
          1   -1    0    0  501    0  0.00000000000E+00  0.00000000000E+00  0.31566237386E+03  0.31566237386E+03  0.00000000000E+00 0. -1.
         -1   -1    0    0    0  501 -0.00000000000E+00 -0.00000000000E+00 -0.59230448684E+02  0.59230448684E+02  0.00000000000E+00 0. -1.
         36    2    1    2    0    0  0.00000000000E+00  0.35527136788E-14  0.25643192517E+03  0.37489282254E+03  0.27347266069E+03 0.  0.
         25    2    3    3    0    0  0.13618389322E+02  0.23090262775E+02  0.62557632064E+02  0.14280112567E+03  0.12553917078E+03 0.  0.
         25    2    3    3    0    0 -0.13618389322E+02 -0.23090262775E+02  0.19387429311E+03  0.23209169687E+03  0.12474250865E+03 0.  0.
          5    1    4    4  502    0 -0.55652736461E+02  0.18303970266E+02  0.28840153853E+02  0.65468365470E+02  0.47000000000E+01 0. -1.
         -5    1    4    4    0  502  0.69271125783E+02  0.47862925083E+01  0.33717478211E+02  0.77332760200E+02  0.47000000000E+01 0. -1.
          5    1    5    5  503    0  0.51105731645E+02 -0.90395215255E+01  0.44129532066E+02  0.68286267702E+02  0.47000000000E+01 0.  1.
         -5    1    5    5    0  503 -0.64724120967E+02 -0.14050741249E+02  0.14974476104E+03  0.16380542917E+03  0.47000000000E+01 0.  1.
<mgrwt>
<rscale>  0 0.27347266E+03</rscale>
<asrwt>0</asrwt>
<pdfrwt beam="1">  1        1 0.48563441E-01 0.27347266E+03</pdfrwt>
<pdfrwt beam="2">  1       -1 0.91123769E-02 0.27347266E+03</pdfrwt>
<totfact> 0.57439677E+03</totfact>
</mgrwt>
</event>
<event>
 9    1  0.2114844E-002  0.2742717E+03  0.7818608E-02  0.1098859E+00
         -1   -1    0    0    0  501 -0.00000000000E+00  0.00000000000E+00  0.93580843187E+02  0.93580843187E+02  0.00000000000E+00 0.  1.
          1   -1    0    0  501    0  0.00000000000E+00 -0.00000000000E+00 -0.20096256707E+03  0.20096256707E+03  0.00000000000E+00 0.  1.
         36    2    1    2    0    0  0.00000000000E+00 -0.71054273576E-14 -0.10738172389E+03  0.29454341026E+03  0.27427173734E+03 0.  0.
         25    2    3    3    0    0  0.95235135660E+01  0.34807944027E+02 -0.97768151351E+02  0.16360673330E+03  0.12612002809E+03 0.  0.
         25    2    3    3    0    0 -0.95235135660E+01 -0.34807944027E+02 -0.96135725377E+01  0.13093667696E+03  0.12549781798E+03 0.  0.
          5    1    4    4  502    0 -0.28986954209E+02 -0.19458186960E+01  0.19110132795E+02  0.35090125394E+02  0.47000000000E+01 0. -1.
         -5    1    4    4    0  502  0.38510467775E+02  0.36753762723E+02 -0.11687828415E+03  0.12851660791E+03  0.47000000000E+01 0. -1.
          5    1    5    5  503    0 -0.57872876936E+02 -0.42843642803E+02  0.18155974568E+02  0.74408178489E+02  0.47000000000E+01 0. -1.
         -5    1    5    5    0  503  0.48349363370E+02  0.80356987764E+01 -0.27769547105E+02  0.56528498473E+02  0.47000000000E+01 0. -1.
<mgrwt>
<rscale>  0 0.27427174E+03</rscale>
<asrwt>0</asrwt>
<pdfrwt beam="1">  1        1 0.30917318E-01 0.27427174E+03</pdfrwt>
<pdfrwt beam="2">  1       -1 0.14397053E-01 0.27427174E+03</pdfrwt>
<totfact> 0.49676262E+03</totfact>
</mgrwt>
</event>
<event>
 9    1  0.2114844E-002  0.2751969E+03  0.7818608E-02  0.1098342E+00
         -2   -1    0    0    0  501 -0.00000000000E+00  0.00000000000E+00  0.90529420838E+01  0.90529420838E+01  0.00000000000E+00 0. -1.
          2   -1    0    0  501    0  0.00000000000E+00 -0.00000000000E+00 -0.20914005410E+04  0.20914005410E+04  0.00000000000E+00 0. -1.
         36    2    1    2    0    0  0.00000000000E+00  0.71054273576E-14 -0.20823475989E+04  0.21004534831E+04  0.27519686024E+03 0.  0.
         25    2    3    3    0    0 -0.10810133606E+02  0.33070827457E+02 -0.26211516521E+03  0.27555535237E+03  0.77561935060E+02 0.  0.
         25    2    3    3    0    0  0.10810133606E+02 -0.33070827457E+02 -0.18202324337E+04  0.18248981307E+04  0.12568427167E+03 0.  0.
          5    1    4    4  502    0  0.21568543869E+01  0.58443831060E+00 -0.22225522644E+03  0.22231614712E+03  0.47000000000E+01 0.  1.
         -5    1    4    4    0  502 -0.12966987993E+02  0.32486389146E+02 -0.39859938770E+02  0.53239205254E+02  0.47000000000E+01 0.  1.
          5    1    5    5  503    0  0.41389948627E+02 -0.66659245826E+02 -0.13968834176E+04  0.13990932619E+04  0.47000000000E+01 0. -1.
         -5    1    5    5    0  503 -0.30579815022E+02  0.33588418369E+02 -0.42334901605E+03  0.42580486884E+03  0.47000000000E+01 0. -1.
<mgrwt>
<rscale>  0 0.27519686E+03</rscale>
<asrwt>0</asrwt>
<pdfrwt beam="1">  1        2 0.32175435E+00 0.27519686E+03</pdfrwt>
<pdfrwt beam="2">  1       -2 0.13927585E-02 0.27519686E+03</pdfrwt>
<totfact> 0.87438343E+03</totfact>
</mgrwt>
</event>
<event>
 9    1  0.2114844E-002  0.2812378E+03  0.7818608E-02  0.1095015E+00
         -2   -1    0    0    0  501 -0.00000000000E+00  0.00000000000E+00  0.49216102708E+01  0.49216102708E+01  0.00000000000E+00 0.  1.
          2   -1    0    0  501    0  0.00000000000E+00 -0.00000000000E+00 -0.40177235709E+04  0.40177235709E+04  0.00000000000E+00 0.  1.
         36    2    1    2    0    0  0.71054273576E-14  0.35527136788E-14 -0.40128019606E+04  0.40226451811E+04  0.28123776127E+03 0.  0.
         25    2    3    3    0    0  0.23234069205E+02  0.30275894319E+02 -0.28257836978E+04  0.28284821167E+04  0.11747819159E+03 0.  0.
         25    2    3    3    0    0 -0.23234069205E+02 -0.30275894319E+02 -0.11870182627E+04  0.11941630645E+04  0.12472616692E+03 0.  0.
          5    1    4    4  502    0  0.61133561872E+01  0.61164246826E+02 -0.79526724291E+03  0.79765313004E+03  0.47000000000E+01 0. -1.
         -5    1    4    4    0  502  0.17120713017E+02 -0.30888352507E+02 -0.20305164549E+04  0.20308289866E+04  0.47000000000E+01 0. -1.
          5    1    5    5  503    0 -0.25867083173E+02  0.26790444876E+02 -0.12294997209E+03  0.12855201113E+03  0.47000000000E+01 0. -1.
         -5    1    5    5    0  503  0.26330139680E+01 -0.57066339195E+02 -0.10640682907E+04  0.10656110533E+04  0.47000000000E+01 0. -1.
<mgrwt>
<rscale>  0 0.28123776E+03</rscale>
<asrwt>0</asrwt>
<pdfrwt beam="1">  1        2 0.61811449E+00 0.28123776E+03</pdfrwt>
<pdfrwt beam="2">  1       -2 0.75716692E-03 0.28123776E+03</pdfrwt>
<totfact> 0.13813870E+03</totfact>
</mgrwt>
</event>
<event>
 9    1  0.2114844E-002  0.2747120E+03  0.7818608E-02  0.1098613E+00
         -2   -1    0    0    0  501 -0.00000000000E+00  0.00000000000E+00  0.14315152939E+02  0.14315152939E+02  0.00000000000E+00 0. -1.
          2   -1    0    0  501    0  0.00000000000E+00 -0.00000000000E+00 -0.13179514834E+04  0.13179514834E+04  0.00000000000E+00 0. -1.
         36    2    1    2    0    0  0.35527136788E-14  0.71054273576E-14 -0.13036363304E+04  0.13322666363E+04  0.27471204598E+03 0.  0.
         25    2    3    3    0    0 -0.10753275807E+02 -0.47622733862E+02 -0.79070186912E+03  0.80195708187E+03  0.12466819009E+03 0.  0.
         25    2    3    3    0    0  0.10753275807E+02  0.47622733862E+02 -0.51293446133E+03  0.53030955445E+03  0.12547073046E+03 0.  0.
          5    1    4    4  502    0  0.36871853914E+02 -0.65755507565E+02 -0.33606820783E+03  0.34445210219E+03  0.47000000000E+01 0. -1.
         -5    1    4    4    0  502 -0.47625129721E+02  0.18132773703E+02 -0.45463366129E+03  0.45750497969E+03  0.47000000000E+01 0. -1.
          5    1    5    5  503    0  0.20254435815E+02  0.56002240476E+02 -0.51332744868E+03  0.51679169176E+03  0.47000000000E+01 0.  1.
         -5    1    5    5    0  503 -0.95011600084E+01 -0.83795066137E+01  0.39298735023E+00  0.13517862688E+02  0.47000000000E+01 0.  1.
<mgrwt>
<rscale>  0 0.27471205E+03</rscale>
<asrwt>0</asrwt>
<pdfrwt beam="1">  1        2 0.20276186E+00 0.27471205E+03</pdfrwt>
<pdfrwt beam="2">  1       -2 0.22023302E-02 0.27471205E+03</pdfrwt>
<totfact> 0.11489766E+04</totfact>
</mgrwt>
</event>
<event>
 9    1  0.2114844E-002  0.2751884E+03  0.7818608E-02  0.1098346E+00
         -1   -1    0    0    0  501 -0.00000000000E+00  0.00000000000E+00  0.18267344517E+03  0.18267344517E+03  0.00000000000E+00 0. -1.
          1   -1    0    0  501    0  0.00000000000E+00 -0.00000000000E+00 -0.10363939765E+03  0.10363939765E+03  0.00000000000E+00 0. -1.
         36    2    1    2    0    0  0.71054273576E-14  0.00000000000E+00  0.79034047515E+02  0.28631284282E+03  0.27518841418E+03 0.  0.
         25    2    3    3    0    0  0.51576605095E+02  0.20778037477E+02  0.11612205329E+02  0.13633485036E+03  0.12393738368E+03 0.  0.
         25    2    3    3    0    0 -0.51576605095E+02 -0.20778037477E+02  0.67421842185E+02  0.14997799246E+03  0.12188445506E+03 0.  0.
          5    1    4    4  502    0  0.73171301534E+02 -0.24111753301E+02  0.30306311365E+02  0.82921520270E+02  0.47000000000E+01 0.  1.
         -5    1    4    4    0  502 -0.21594696439E+02  0.44889790778E+02 -0.18694106036E+02  0.53413330086E+02  0.47000000000E+01 0.  1.
          5    1    5    5  503    0 -0.13427168342E+02 -0.47842543446E+02 -0.17517345305E+02  0.52897497102E+02  0.47000000000E+01 0. -1.
         -5    1    5    5    0  503 -0.38149436753E+02  0.27064505969E+02  0.84939187491E+02  0.97080495361E+02  0.47000000000E+01 0. -1.
<mgrwt>
<rscale>  0 0.27518841E+03</rscale>
<asrwt>0</asrwt>
<pdfrwt beam="1">  1        1 0.15944523E-01 0.27518841E+03</pdfrwt>
<pdfrwt beam="2">  1       -1 0.28103607E-01 0.27518841E+03</pdfrwt>
<totfact> 0.39049284E+03</totfact>
</mgrwt>
</event>
<event>
 9    1  0.2114844E-002  0.2748933E+03  0.7818608E-02  0.1098511E+00
          2   -1    0    0  501    0  0.00000000000E+00  0.00000000000E+00  0.19991540708E+03  0.19991540708E+03  0.00000000000E+00 0.  1.
         -2   -1    0    0    0  501 -0.00000000000E+00 -0.00000000000E+00 -0.94497876706E+02  0.94497876706E+02  0.00000000000E+00 0.  1.
         36    2    1    2    0    0 -0.71054273576E-14 -0.35527136788E-14  0.10541753037E+03  0.29441328378E+03  0.27489329922E+03 0.  0.
         25    2    3    3    0    0  0.75990654766E+01  0.16340041133E+01  0.70784961702E+02  0.14389235620E+03  0.12503632914E+03 0.  0.
         25    2    3    3    0    0 -0.75990654766E+01 -0.16340041133E+01  0.34632568668E+02  0.15052092758E+03  0.14627617394E+03 0.  0.
          5    1    4    4  502    0 -0.57129182400E+02 -0.37180231170E+01  0.48142974348E+02  0.74949337266E+02  0.47000000000E+01 0. -1.
         -5    1    4    4    0  502  0.64728247877E+02  0.53520272303E+01  0.22641987354E+02  0.68943018936E+02  0.47000000000E+01 0. -1.
          5    1    5    5  503    0 -0.62118736399E+02  0.40110034510E+02  0.14332507141E+01  0.74105981458E+02  0.47000000000E+01 0.  1.
         -5    1    5    5    0  503  0.54519670923E+02 -0.41744038623E+02  0.33199317954E+02  0.76414946121E+02  0.47000000000E+01 0.  1.
<mgrwt>
<rscale>  0 0.27489330E+03</rscale>
<asrwt>0</asrwt>
<pdfrwt beam="1">  1        2 0.30756216E-01 0.27489330E+03</pdfrwt>
<pdfrwt beam="2">  1       -2 0.14538135E-01 0.27489330E+03</pdfrwt>
<totfact> 0.61052745E+03</totfact>
</mgrwt>
</event>
<event>
 9    1  0.2114844E-002  0.2731970E+03  0.7818608E-02  0.1099464E+00
          3   -1    0    0  501    0  0.00000000000E+00  0.00000000000E+00  0.45678701501E+03  0.45678701501E+03  0.00000000000E+00 0.  1.
         -3   -1    0    0    0  501 -0.00000000000E+00 -0.00000000000E+00 -0.40848676699E+02  0.40848676699E+02  0.00000000000E+00 0.  1.
         36    2    1    2    0    0 -0.71054273576E-14  0.00000000000E+00  0.41593833831E+03  0.49763569171E+03  0.27319696262E+03 0.  0.
         25    2    3    3    0    0 -0.24957702006E+02 -0.40924349795E+02  0.16518194467E+03  0.21309380304E+03  0.12580224462E+03 0.  0.
         25    2    3    3    0    0  0.24957702006E+02  0.40924349795E+02  0.25075639364E+03  0.28454188867E+03  0.12564882873E+03 0.  0.
          5    1    4    4  502    0  0.16893028940E+02  0.28515432834E+02  0.10981442159E+03  0.11480331670E+03  0.47000000000E+01 0. -1.
         -5    1    4    4    0  502 -0.41850730947E+02 -0.69439782630E+02  0.55367523084E+02  0.98290486340E+02  0.47000000000E+01 0. -1.
          5    1    5    5  503    0  0.52421765588E+02 -0.26903647428E+02  0.13689625587E+03  0.14911244959E+03  0.47000000000E+01 0.  1.
         -5    1    5    5    0  503 -0.27464063582E+02  0.67827997223E+02  0.11386013777E+03  0.13542943908E+03  0.47000000000E+01 0.  1.
<mgrwt>
<rscale>  0 0.27319696E+03</rscale>
<asrwt>0</asrwt>
<pdfrwt beam="1">  1        3 0.70274922E-01 0.27319696E+03</pdfrwt>
<pdfrwt beam="2">  1       -3 0.62844121E-02 0.27319696E+03</pdfrwt>
<totfact> 0.79231517E+02</totfact>
</mgrwt>
</event>
<event>
 9    1  0.2114844E-002  0.2751761E+03  0.7818608E-02  0.1098353E+00
          2   -1    0    0  501    0  0.00000000000E+00  0.00000000000E+00  0.80733028117E+03  0.80733028117E+03  0.00000000000E+00 0.  1.
         -2   -1    0    0    0  501 -0.00000000000E+00 -0.00000000000E+00 -0.23448242286E+02  0.23448242286E+02  0.00000000000E+00 0.  1.
         36    2    1    2    0    0 -0.71054273576E-14  0.17763568394E-14  0.78388203889E+03  0.83077852346E+03  0.27517613296E+03 0.  0.
         25    2    3    3    0    0 -0.33016372052E+02  0.11643729244E+02  0.22879481329E+03  0.26038242391E+03  0.11927398225E+03 0.  0.
         25    2    3    3    0    0  0.33016372052E+02 -0.11643729244E+02  0.55508722560E+03  0.57039609955E+03  0.12650780648E+03 0.  0.
          5    1    4    4  502    0 -0.62565832216E+02  0.44300482969E+02  0.11518047234E+03  0.13844004970E+03  0.47000000000E+01 0. -1.
         -5    1    4    4    0  502  0.29549460164E+02 -0.32656753725E+02  0.11361434095E+03  0.12194237422E+03  0.47000000000E+01 0. -1.
          5    1    5    5  503    0 -0.47926754070E+02  0.15412678259E+01  0.17338960371E+03  0.17995942303E+03  0.47000000000E+01 0.  1.
         -5    1    5    5    0  503  0.80943126122E+02 -0.13184997070E+02  0.38169762189E+03  0.39043667651E+03  0.47000000000E+01 0.  1.
<mgrwt>
<rscale>  0 0.27517613E+03</rscale>
<asrwt>0</asrwt>
<pdfrwt beam="1">  1        2 0.12420464E+00 0.27517613E+03</pdfrwt>
<pdfrwt beam="2">  1       -2 0.36074225E-02 0.27517613E+03</pdfrwt>
<totfact> 0.11223727E+04</totfact>
</mgrwt>
</event>
<event>
 9    1  0.2114844E-002  0.2745570E+03  0.7818608E-02  0.1098699E+00
          1   -1    0    0  501    0  0.00000000000E+00  0.00000000000E+00  0.53693520179E+03  0.53693520179E+03  0.00000000000E+00 0. -1.
         -1   -1    0    0    0  501 -0.00000000000E+00 -0.00000000000E+00 -0.35098070423E+02  0.35098070423E+02  0.00000000000E+00 0. -1.
         36    2    1    2    0    0  0.71054273576E-14  0.00000000000E+00  0.50183713137E+03  0.57203327221E+03  0.27455702158E+03 0.  0.
         25    2    3    3    0    0  0.44654863662E+02  0.30514176700E+02  0.24068299703E+03  0.27705264176E+03  0.12611379552E+03 0.  0.
         25    2    3    3    0    0 -0.44654863662E+02 -0.30514176700E+02  0.26115413434E+03  0.29498063045E+03  0.12604332046E+03 0.  0.
          5    1    4    4  502    0  0.17843449758E+02  0.46277508961E+02  0.24049068069E+03  0.24559693409E+03  0.47000000000E+01 0.  1.
         -5    1    4    4    0  502  0.26811413904E+02 -0.15763332261E+02  0.19231633794E+00  0.31455707671E+02  0.47000000000E+01 0.  1.
          5    1    5    5  503    0  0.34488474963E+02  0.22654889842E+02  0.72624803711E+02  0.83660929072E+02  0.47000000000E+01 0.  1.
         -5    1    5    5    0  503 -0.79143338625E+02 -0.53169066542E+02  0.18852933062E+03  0.21131970138E+03  0.47000000000E+01 0.  1.
<mgrwt>
<rscale>  0 0.27455702E+03</rscale>
<asrwt>0</asrwt>
<pdfrwt beam="1">  1        1 0.82605409E-01 0.27455702E+03</pdfrwt>
<pdfrwt beam="2">  1       -1 0.53997035E-02 0.27455702E+03</pdfrwt>
<totfact> 0.63983121E+03</totfact>
</mgrwt>
</event>
<event>
 9    1  0.2114844E-002  0.2765085E+03  0.7818608E-02  0.1097611E+00
         -2   -1    0    0    0  501 -0.00000000000E+00  0.00000000000E+00  0.17167442109E+03  0.17167442109E+03  0.00000000000E+00 0.  1.
          2   -1    0    0  501    0  0.00000000000E+00 -0.00000000000E+00 -0.11134005031E+03  0.11134005031E+03  0.00000000000E+00 0.  1.
         36    2    1    2    0    0 -0.71054273576E-14 -0.17763568394E-14  0.60334370777E+02  0.28301447139E+03  0.27650850750E+03 0.  0.
         25    2    3    3    0    0 -0.48819895944E+02  0.57820443208E+01  0.25018373668E+02  0.12977330412E+03  0.11746649380E+03 0.  0.
         25    2    3    3    0    0  0.48819895944E+02 -0.57820443208E+01  0.35315997109E+02  0.15324116727E+03  0.14077933591E+03 0.  0.
          5    1    4    4  502    0 -0.19414221145E+02 -0.43479926060E+02 -0.24576968810E+02  0.53791573213E+02  0.47000000000E+01 0.  1.
         -5    1    4    4    0  502 -0.29405674798E+02  0.49261970381E+02  0.49595342477E+02  0.75981730907E+02  0.47000000000E+01 0.  1.
          5    1    5    5  503    0  0.93674825219E+02 -0.20512599644E+02  0.34184006629E+01  0.96070365291E+02  0.47000000000E+01 0.  1.
         -5    1    5    5    0  503 -0.44854929275E+02  0.14730555323E+02  0.31897596446E+02  0.57170801984E+02  0.47000000000E+01 0.  1.
<mgrwt>
<rscale>  0 0.27650851E+03</rscale>
<asrwt>0</asrwt>
<pdfrwt beam="1">  1        2 0.17129239E-01 0.27650851E+03</pdfrwt>
<pdfrwt beam="2">  1       -2 0.26411449E-01 0.27650851E+03</pdfrwt>
<totfact> 0.42639446E+03</totfact>
</mgrwt>
</event>
<event>
 9    1  0.2114844E-002  0.2744376E+03  0.7818608E-02  0.1098766E+00
         -2   -1    0    0    0  501 -0.00000000000E+00  0.00000000000E+00  0.34192518591E+02  0.34192518591E+02  0.00000000000E+00 0. -1.
          2   -1    0    0  501    0  0.00000000000E+00 -0.00000000000E+00 -0.55067598878E+03  0.55067598878E+03  0.00000000000E+00 0. -1.
         36    2    1    2    0    0  0.71054273576E-14  0.00000000000E+00 -0.51648347019E+03  0.58486850737E+03  0.27443759935E+03 0.  0.
         25    2    3    3    0    0  0.42036023223E+02  0.84383623120E+01 -0.16524066103E+03  0.20993268105E+03  0.12218437423E+03 0.  0.
         25    2    3    3    0    0 -0.42036023223E+02 -0.84383623120E+01 -0.35124280916E+03  0.37493582633E+03  0.12396422739E+03 0.  0.
          5    1    4    4  502    0  0.33736617502E+01  0.53050607074E+02 -0.27572590953E+02  0.60067347839E+02  0.47000000000E+01 0. -1.
         -5    1    4    4    0  502  0.38662361473E+02 -0.44612244762E+02 -0.13766807008E+03  0.14986533321E+03  0.47000000000E+01 0. -1.
          5    1    5    5  503    0 -0.15091601097E+02  0.37723450557E+02 -0.29262066059E+03  0.29546532140E+03  0.47000000000E+01 0. -1.
         -5    1    5    5    0  503 -0.26944422126E+02 -0.46161812869E+02 -0.58622148570E+02  0.79470504931E+02  0.47000000000E+01 0. -1.
<mgrwt>
<rscale>  0 0.27443760E+03</rscale>
<asrwt>0</asrwt>
<pdfrwt beam="1">  1        2 0.84719376E-01 0.27443760E+03</pdfrwt>
<pdfrwt beam="2">  1       -2 0.52603879E-02 0.27443760E+03</pdfrwt>
<totfact> 0.10046760E+04</totfact>
</mgrwt>
</event>
<event>
 9    1  0.2114844E-002  0.2768935E+03  0.7818608E-02  0.1097398E+00
          1   -1    0    0  501    0  0.00000000000E+00  0.00000000000E+00  0.68206001163E+03  0.68206001163E+03  0.00000000000E+00 0. -1.
         -1   -1    0    0    0  501 -0.00000000000E+00 -0.00000000000E+00 -0.28102361623E+02  0.28102361623E+02  0.00000000000E+00 0. -1.
         36    2    1    2    0    0  0.00000000000E+00  0.88817841970E-15  0.65395765001E+03  0.71016237325E+03  0.27689346034E+03 0.  0.
         25    2    3    3    0    0 -0.53050368251E+02 -0.18237400712E+01  0.37104690675E+03  0.39533645995E+03  0.12568787516E+03 0.  0.
         25    2    3    3    0    0  0.53050368251E+02  0.18237400712E+01  0.28291074326E+03  0.31482591330E+03  0.12751156588E+03 0.  0.
          5    1    4    4  502    0 -0.84329989724E+02  0.24622376571E+02  0.30537193595E+03  0.31779225582E+03  0.47000000000E+01 0. -1.
         -5    1    4    4    0  502  0.31279621473E+02 -0.26446116642E+02  0.65674970800E+02  0.77544204133E+02  0.47000000000E+01 0. -1.
          5    1    5    5  503    0  0.88858912062E+02  0.12481924602E+01  0.25211263777E+03  0.26735806769E+03  0.47000000000E+01 0.  1.
         -5    1    5    5    0  503 -0.35808543811E+02  0.57554761100E+00  0.30798105493E+02  0.47467845610E+02  0.47000000000E+01 0.  1.
<mgrwt>
<rscale>  0 0.27689346E+03</rscale>
<asrwt>0</asrwt>
<pdfrwt beam="1">  1        1 0.10493230E+00 0.27689346E+03</pdfrwt>
<pdfrwt beam="2">  1       -1 0.43234408E-02 0.27689346E+03</pdfrwt>
<totfact> 0.63940824E+03</totfact>
</mgrwt>
</event>
<event>
 9    1  0.2114844E-002  0.2750536E+03  0.7818608E-02  0.1098422E+00
         -2   -1    0    0    0  501 -0.00000000000E+00  0.00000000000E+00  0.10694787106E+02  0.10694787106E+02  0.00000000000E+00 0. -1.
          2   -1    0    0  501    0  0.00000000000E+00 -0.00000000000E+00 -0.17684893459E+04  0.17684893459E+04  0.00000000000E+00 0. -1.
         36    2    1    2    0    0  0.35527136788E-14 -0.14210854715E-13 -0.17577945588E+04  0.17791841330E+04  0.27505357335E+03 0.  0.
         25    2    3    3    0    0  0.16197599887E+02 -0.45500678514E+02 -0.74014225545E+03  0.75293322529E+03  0.12948053698E+03 0.  0.
         25    2    3    3    0    0 -0.16197599887E+02  0.45500678514E+02 -0.10176523033E+04  0.10262509077E+04  0.12345866149E+03 0.  0.
          5    1    4    4  502    0  0.43887642756E+02 -0.38848425019E+02 -0.70504237220E+03  0.70749004368E+03  0.47000000000E+01 0. -1.
         -5    1    4    4    0  502 -0.27690042869E+02 -0.66522534944E+01 -0.35099883257E+02  0.45443181615E+02  0.47000000000E+01 0. -1.
          5    1    5    5  503    0  0.56042088021E+01  0.35359424640E+02 -0.74586920564E+02  0.82867332444E+02  0.47000000000E+01 0.  1.
         -5    1    5    5    0  503 -0.21801808689E+02  0.10141253874E+02 -0.94306538276E+03  0.94338357525E+03  0.47000000000E+01 0.  1.
<mgrwt>
<rscale>  0 0.27505357E+03</rscale>
<asrwt>0</asrwt>
<pdfrwt beam="1">  1        2 0.27207509E+00 0.27505357E+03</pdfrwt>
<pdfrwt beam="2">  1       -2 0.16453531E-02 0.27505357E+03</pdfrwt>
<totfact> 0.10128870E+04</totfact>
</mgrwt>
</event>
<event>
 9    1  0.2114844E-002  0.2732486E+03  0.7818608E-02  0.1099435E+00
         -1   -1    0    0    0  501 -0.00000000000E+00  0.00000000000E+00  0.11642094546E+04  0.11642094546E+04  0.00000000000E+00 0. -1.
          1   -1    0    0  501    0  0.00000000000E+00 -0.00000000000E+00 -0.16033366337E+02  0.16033366337E+02  0.00000000000E+00 0. -1.
         36    2    1    2    0    0  0.71054273576E-14  0.53290705182E-14  0.11481760883E+04  0.11802428210E+04  0.27324858045E+03 0.  0.
         25    2    3    3    0    0  0.51559192543E+02  0.12297820268E+01  0.65530550158E+03  0.67061099734E+03  0.13279287125E+03 0.  0.
         25    2    3    3    0    0 -0.51559192543E+02 -0.12297820268E+01  0.49287058672E+03  0.50963182364E+03  0.11892568144E+03 0.  0.
          5    1    4    4  502    0  0.60068489960E+02 -0.14668442597E+02  0.12085711877E+03  0.13583784396E+03  0.47000000000E+01 0.  1.
         -5    1    4    4    0  502 -0.85092974176E+01  0.15898224624E+02  0.53444838281E+03  0.53477315338E+03  0.47000000000E+01 0.  1.
          5    1    5    5  503    0 -0.32100144309E+02 -0.53709674085E+02  0.35920540265E+03  0.36464470330E+03  0.47000000000E+01 0. -1.
         -5    1    5    5    0  503 -0.19459048233E+02  0.52479892058E+02  0.13366518407E+03  0.14498712033E+03  0.47000000000E+01 0. -1.
<mgrwt>
<rscale>  0 0.27324858E+03</rscale>
<asrwt>0</asrwt>
<pdfrwt beam="1">  1        1 0.24666727E-02 0.27324858E+03</pdfrwt>
<pdfrwt beam="2">  1       -1 0.17910908E+00 0.27324858E+03</pdfrwt>
<totfact> 0.10424366E+03</totfact>
</mgrwt>
</event>
<event>
 9    1  0.2114844E-002  0.2744810E+03  0.7818608E-02  0.1098742E+00
         -2   -1    0    0    0  501 -0.00000000000E+00  0.00000000000E+00  0.21490870741E+02  0.21490870741E+02  0.00000000000E+00 0. -1.
          2   -1    0    0  501    0  0.00000000000E+00 -0.00000000000E+00 -0.87641660056E+03  0.87641660056E+03  0.00000000000E+00 0. -1.
         36    2    1    2    0    0  0.00000000000E+00  0.00000000000E+00 -0.85492572982E+03  0.89790747130E+03  0.27448100756E+03 0.  0.
         25    2    3    3    0    0  0.15518387934E+02  0.52393551210E+02 -0.25808915147E+03  0.28441566429E+03  0.10628431406E+03 0.  0.
         25    2    3    3    0    0 -0.15518387934E+02 -0.52393551210E+02 -0.59683657835E+03  0.61349180701E+03  0.13104347156E+03 0.  0.
          5    1    4    4  502    0  0.28535985708E+02  0.24102897810E+01 -0.21510722571E+03  0.21705603086E+03  0.47000000000E+01 0.  1.
         -5    1    4    4    0  502 -0.13017597774E+02  0.49983261429E+02 -0.42981925756E+02  0.67359633435E+02  0.47000000000E+01 0.  1.
          5    1    5    5  503    0 -0.28586148259E+02 -0.57820099167E+02 -0.11912600591E+03  0.13554861498E+03  0.47000000000E+01 0. -1.
         -5    1    5    5    0  503  0.13067760325E+02  0.54265479570E+01 -0.47771057244E+03  0.47794319202E+03  0.47000000000E+01 0. -1.
<mgrwt>
<rscale>  0 0.27448101E+03</rscale>
<asrwt>0</asrwt>
<pdfrwt beam="1">  1        2 0.13483332E+00 0.27448101E+03</pdfrwt>
<pdfrwt beam="2">  1       -2 0.33062878E-02 0.27448101E+03</pdfrwt>
<totfact> 0.11491548E+04</totfact>
</mgrwt>
</event>
<event>
 9    1  0.2114844E-002  0.2728079E+03  0.7818608E-02  0.1099683E+00
          1   -1    0    0  501    0  0.00000000000E+00  0.00000000000E+00  0.42906011389E+02  0.42906011389E+02  0.00000000000E+00 0. -1.
         -1   -1    0    0    0  501 -0.00000000000E+00 -0.00000000000E+00 -0.43364632815E+03  0.43364632815E+03  0.00000000000E+00 0. -1.
         36    2    1    2    0    0  0.35527136788E-14  0.00000000000E+00 -0.39074031676E+03  0.47655233954E+03  0.27280787594E+03 0.  0.
         25    2    3    3    0    0 -0.57082644138E+01 -0.74771037605E+01 -0.28056226357E+03  0.30657601775E+03  0.12322816055E+03 0.  0.
         25    2    3    3    0    0  0.57082644138E+01  0.74771037605E+01 -0.11017805318E+03  0.16997632179E+03  0.12909010498E+03 0.  0.
          5    1    4    4  502    0  0.47802874656E+02 -0.25112448278E+02 -0.69864376111E+02  0.88424379745E+02  0.47000000000E+01 0. -1.
         -5    1    4    4    0  502 -0.53511139070E+02  0.17635344518E+02 -0.21069788746E+03  0.21815163800E+03  0.47000000000E+01 0. -1.
          5    1    5    5  503    0 -0.16629392032E+02 -0.54461087773E+02 -0.25395817727E+02  0.62526668860E+02  0.47000000000E+01 0.  1.
         -5    1    5    5    0  503  0.22337656446E+02  0.61938191533E+02 -0.84782235457E+02  0.10744965293E+03  0.47000000000E+01 0.  1.
<mgrwt>
<rscale>  0 0.27280788E+03</rscale>
<asrwt>0</asrwt>
<pdfrwt beam="1">  1        1 0.66009245E-02 0.27280788E+03</pdfrwt>
<pdfrwt beam="2">  1       -1 0.66714824E-01 0.27280788E+03</pdfrwt>
<totfact> 0.26650397E+03</totfact>
</mgrwt>
</event>
<event>
 9    1  0.2114844E-002  0.2750350E+03  0.7818608E-02  0.1098432E+00
          2   -1    0    0  501    0  0.00000000000E+00  0.00000000000E+00  0.33446766317E+03  0.33446766317E+03  0.00000000000E+00 0.  1.
         -2   -1    0    0    0  501 -0.00000000000E+00 -0.00000000000E+00 -0.56540789531E+02  0.56540789531E+02  0.00000000000E+00 0.  1.
         36    2    1    2    0    0  0.10658141036E-13 -0.71054273576E-14  0.27792687364E+03  0.39100845270E+03  0.27503502139E+03 0.  0.
         25    2    3    3    0    0 -0.24420362300E+02  0.59720419837E+02  0.79971154023E+02  0.16666870584E+03  0.13122571924E+03 0.  0.
         25    2    3    3    0    0  0.24420362300E+02 -0.59720419837E+02  0.19795571961E+03  0.22433974686E+03  0.83540244510E+02 0.  0.
          5    1    4    4  502    0  0.33386554473E+02  0.40585154241E+02  0.90439370418E+02  0.10470523619E+03  0.47000000000E+01 0. -1.
         -5    1    4    4    0  502 -0.57806916773E+02  0.19135265596E+02 -0.10468216395E+02  0.61963469647E+02  0.47000000000E+01 0. -1.
          5    1    5    5  503    0  0.35699428700E+02 -0.23752254122E+02  0.17436975695E+03  0.17962605859E+03  0.47000000000E+01 0. -1.
         -5    1    5    5    0  503 -0.11279066400E+02 -0.35968165715E+02  0.23585962659E+02  0.44713688265E+02  0.47000000000E+01 0. -1.
<mgrwt>
<rscale>  0 0.27503502E+03</rscale>
<asrwt>0</asrwt>
<pdfrwt beam="1">  1        2 0.51456562E-01 0.27503502E+03</pdfrwt>
<pdfrwt beam="2">  1       -2 0.86985832E-02 0.27503502E+03</pdfrwt>
<totfact> 0.79879939E+03</totfact>
</mgrwt>
</event>
<event>
 9    1  0.2114844E-002  0.2750129E+03  0.7818608E-02  0.1098444E+00
          1   -1    0    0  501    0  0.00000000000E+00  0.00000000000E+00  0.22452829877E+03  0.22452829877E+03  0.00000000000E+00 0. -1.
         -1   -1    0    0    0  501 -0.00000000000E+00 -0.00000000000E+00 -0.84212216226E+02  0.84212216226E+02  0.00000000000E+00 0. -1.
         36    2    1    2    0    0  0.17763568394E-14  0.00000000000E+00  0.14031608255E+03  0.30874051500E+03  0.27501291348E+03 0.  0.
         25    2    3    3    0    0 -0.52385124971E+00  0.54459552138E+02 -0.12351639806E+01  0.11319692618E+03  0.99226514739E+02 0.  0.
         25    2    3    3    0    0  0.52385124971E+00 -0.54459552138E+02  0.14155124653E+03  0.19554358882E+03  0.12342780276E+03 0.  0.
          5    1    4    4  502    0  0.33401367015E+01  0.20724335491E+02  0.48348096879E+02  0.52917700881E+02  0.47000000000E+01 0. -1.
         -5    1    4    4    0  502 -0.38639879512E+01  0.33735216647E+02 -0.49583260859E+02  0.60279225298E+02  0.47000000000E+01 0. -1.
          5    1    5    5  503    0 -0.31867269466E+02 -0.55957832019E+02  0.14860727195E+03  0.16202781583E+03  0.47000000000E+01 0.  1.
         -5    1    5    5    0  503  0.32391120715E+02  0.14982798806E+01 -0.70560254254E+01  0.33515772982E+02  0.47000000000E+01 0.  1.
<mgrwt>
<rscale>  0 0.27501291E+03</rscale>
<asrwt>0</asrwt>
<pdfrwt beam="1">  1        1 0.34542815E-01 0.27501291E+03</pdfrwt>
<pdfrwt beam="2">  1       -1 0.12955726E-01 0.27501291E+03</pdfrwt>
<totfact> 0.51024553E+03</totfact>
</mgrwt>
</event>
<event>
 9    1  0.2114844E-002  0.2750647E+03  0.7818608E-02  0.1098415E+00
          2   -1    0    0  501    0  0.00000000000E+00  0.00000000000E+00  0.13450554949E+03  0.13450554949E+03  0.00000000000E+00 0. -1.
         -2   -1    0    0    0  501 -0.00000000000E+00 -0.00000000000E+00 -0.14062725232E+03  0.14062725232E+03  0.00000000000E+00 0. -1.
         36    2    1    2    0    0  0.35527136788E-14  0.14210854715E-13 -0.61217028278E+01  0.27513280181E+03  0.27506468946E+03 0.  0.
         25    2    3    3    0    0  0.74720467922E+01  0.45170060541E+02 -0.38388798512E+02  0.13549061827E+03  0.12160527100E+03 0.  0.
         25    2    3    3    0    0 -0.74720467922E+01 -0.45170060541E+02  0.32267095684E+02  0.13964218354E+03  0.12791641063E+03 0.  0.
          5    1    4    4  502    0 -0.22811256705E+02 -0.36128962489E+02 -0.10623424881E+02  0.44278691480E+02  0.47000000000E+01 0.  1.
         -5    1    4    4    0  502  0.30283303497E+02  0.81299023030E+02 -0.27765373631E+02  0.91211926792E+02  0.47000000000E+01 0.  1.
          5    1    5    5  503    0  0.27443411528E+02  0.10578498359E+02  0.60864167372E+02  0.67761215556E+02  0.47000000000E+01 0. -1.
         -5    1    5    5    0  503 -0.34915458320E+02 -0.55748558900E+02 -0.28597071687E+02  0.71880967984E+02  0.47000000000E+01 0. -1.
<mgrwt>
<rscale>  0 0.27506469E+03</rscale>
<asrwt>0</asrwt>
<pdfrwt beam="1">  1        2 0.20693162E-01 0.27506469E+03</pdfrwt>
<pdfrwt beam="2">  1       -2 0.21634962E-01 0.27506469E+03</pdfrwt>
<totfact> 0.48633411E+03</totfact>
</mgrwt>
</event>
<event>
 9    1  0.2114844E-002  0.2749838E+03  0.7818608E-02  0.1098461E+00
         -1   -1    0    0    0  501 -0.00000000000E+00  0.00000000000E+00  0.61876406998E+02  0.61876406998E+02  0.00000000000E+00 0. -1.
          1   -1    0    0  501    0  0.00000000000E+00 -0.00000000000E+00 -0.30551263923E+03  0.30551263923E+03  0.00000000000E+00 0. -1.
         36    2    1    2    0    0 -0.14210854715E-13  0.00000000000E+00 -0.24363623224E+03  0.36738904623E+03  0.27498381340E+03 0.  0.
         25    2    3    3    0    0  0.51549864917E+02  0.13583763917E+02 -0.11562183109E+03  0.17995580536E+03  0.12717616461E+03 0.  0.
         25    2    3    3    0    0 -0.51549864917E+02 -0.13583763917E+02 -0.12801440115E+03  0.18743324087E+03  0.12610164815E+03 0.  0.
          5    1    4    4  502    0 -0.14972509652E+02  0.14109954936E+02  0.19841389340E+02  0.28966145835E+02  0.47000000000E+01 0. -1.
         -5    1    4    4    0  502  0.66522374569E+02 -0.52619101903E+00 -0.13546322043E+03  0.15098965953E+03  0.47000000000E+01 0. -1.
          5    1    5    5  503    0  0.44404129254E+01 -0.62099018300E+02 -0.52997274288E+02  0.81895094008E+02  0.47000000000E+01 0. -1.
         -5    1    5    5    0  503 -0.55990277842E+02  0.48515254383E+02 -0.75017126860E+02  0.10553814686E+03  0.47000000000E+01 0. -1.
<mgrwt>
<rscale>  0 0.27498381E+03</rscale>
<asrwt>0</asrwt>
<pdfrwt beam="1">  1        1 0.47001943E-01 0.27498381E+03</pdfrwt>
<pdfrwt beam="2">  1       -1 0.95194475E-02 0.27498381E+03</pdfrwt>
<totfact> 0.55968857E+03</totfact>
</mgrwt>
</event>
<event>
 9    1  0.2114844E-002  0.2748472E+03  0.7818608E-02  0.1098537E+00
          2   -1    0    0  501    0  0.00000000000E+00  0.00000000000E+00  0.57686360361E+03  0.57686360361E+03  0.00000000000E+00 0.  1.
         -2   -1    0    0    0  501 -0.00000000000E+00 -0.00000000000E+00 -0.32737790775E+02  0.32737790775E+02  0.00000000000E+00 0.  1.
         36    2    1    2    0    0  0.00000000000E+00  0.00000000000E+00  0.54412581284E+03  0.60960139439E+03  0.27484715724E+03 0.  0.
         25    2    3    3    0    0  0.23838661213E+02  0.39984882303E+02  0.20302425779E+03  0.24276718449E+03  0.12469957510E+03 0.  0.
         25    2    3    3    0    0 -0.23838661213E+02 -0.39984882303E+02  0.34110155504E+03  0.36683420990E+03  0.12668857137E+03 0.  0.
          5    1    4    4  502    0  0.12019668758E+02  0.31716928365E+02 -0.46350905792E+01  0.34554450461E+02  0.47000000000E+01 0.  1.
         -5    1    4    4    0  502  0.11818992455E+02  0.82679539378E+01  0.20765934837E+03  0.20821273403E+03  0.47000000000E+01 0.  1.
          5    1    5    5  503    0 -0.42233284666E+02 -0.76305072262E+02  0.17284630330E+03  0.19365962138E+03  0.47000000000E+01 0. -1.
         -5    1    5    5    0  503  0.18394623454E+02  0.36320189960E+02  0.16825525174E+03  0.17317458852E+03  0.47000000000E+01 0. -1.
<mgrwt>
<rscale>  0 0.27484716E+03</rscale>
<asrwt>0</asrwt>
<pdfrwt beam="1">  1        2 0.88748240E-01 0.27484716E+03</pdfrwt>
<pdfrwt beam="2">  1       -2 0.50365836E-02 0.27484716E+03</pdfrwt>
<totfact> 0.10178654E+04</totfact>
</mgrwt>
</event>
<event>
 9    1  0.2114844E-002  0.2749685E+03  0.7818608E-02  0.1098469E+00
         -2   -1    0    0    0  501 -0.00000000000E+00  0.00000000000E+00  0.14768640029E+02  0.14768640029E+02  0.00000000000E+00 0. -1.
          2   -1    0    0  501    0  0.00000000000E+00 -0.00000000000E+00 -0.12798682691E+04  0.12798682691E+04  0.00000000000E+00 0. -1.
         36    2    1    2    0    0  0.14210854715E-13  0.88817841970E-15 -0.12650996291E+04  0.12946369092E+04  0.27496846184E+03 0.  0.
         25    2    3    3    0    0  0.62338070720E+02  0.72704411717E+01 -0.71394811641E+03  0.72604151700E+03  0.11608392263E+03 0.  0.
         25    2    3    3    0    0 -0.62338070720E+02 -0.72704411717E+01 -0.55115151270E+03  0.56859539218E+03  0.12487528049E+03 0.  0.
          5    1    4    4  502    0  0.58293803425E+02  0.10172947414E+02 -0.14015621724E+03  0.15220877638E+03  0.47000000000E+01 0.  1.
         -5    1    4    4    0  502  0.40442672947E+01 -0.29025062422E+01 -0.57379189918E+03  0.57383274061E+03  0.47000000000E+01 0.  1.
          5    1    5    5  503    0 -0.52314040403E+02 -0.11584613905E+02 -0.74987417144E+02  0.92283069046E+02  0.47000000000E+01 0.  1.
         -5    1    5    5    0  503 -0.10024030317E+02  0.43141727328E+01 -0.47616409556E+03  0.47631232313E+03  0.47000000000E+01 0.  1.
<mgrwt>
<rscale>  0 0.27496846E+03</rscale>
<asrwt>0</asrwt>
<pdfrwt beam="1">  1        2 0.19690289E+00 0.27496846E+03</pdfrwt>
<pdfrwt beam="2">  1       -2 0.22720976E-02 0.27496846E+03</pdfrwt>
<totfact> 0.11519507E+04</totfact>
</mgrwt>
</event>
<event>
 9    1  0.2114844E-002  0.2754014E+03  0.7818608E-02  0.1098227E+00
          2   -1    0    0  501    0  0.00000000000E+00  0.00000000000E+00  0.11050248654E+03  0.11050248654E+03  0.00000000000E+00 0.  1.
         -2   -1    0    0    0  501 -0.00000000000E+00 -0.00000000000E+00 -0.17159323163E+03  0.17159323163E+03  0.00000000000E+00 0.  1.
         36    2    1    2    0    0  0.00000000000E+00 -0.35527136788E-14 -0.61090745100E+02  0.28209571817E+03  0.27540137086E+03 0.  0.
         25    2    3    3    0    0 -0.62789896819E+02  0.18996229177E+02 -0.34447260185E+02  0.13776984784E+03  0.11614856596E+03 0.  0.
         25    2    3    3    0    0  0.62789896819E+02 -0.18996229177E+02 -0.26643484915E+02  0.14432587033E+03  0.12576427828E+03 0.  0.
          5    1    4    4  502    0  0.18948278607E+02 -0.25962252948E+02 -0.30066219838E+02  0.44262212051E+02  0.47000000000E+01 0. -1.
         -5    1    4    4    0  502 -0.81738175426E+02  0.44958482125E+02 -0.43810403466E+01  0.93507635792E+02  0.47000000000E+01 0. -1.
          5    1    5    5  503    0  0.62825892984E+02  0.22248927726E+02  0.30702876783E+02  0.73531382803E+02  0.47000000000E+01 0. -1.
         -5    1    5    5    0  503 -0.35996164867E-01 -0.41245156903E+02 -0.57346361698E+02  0.70794487523E+02  0.47000000000E+01 0. -1.
<mgrwt>
<rscale>  0 0.27540137E+03</rscale>
<asrwt>0</asrwt>
<pdfrwt beam="1">  1        2 0.17000383E-01 0.27540137E+03</pdfrwt>
<pdfrwt beam="2">  1       -2 0.26398959E-01 0.27540137E+03</pdfrwt>
<totfact> 0.43047514E+03</totfact>
</mgrwt>
</event>
<event>
 9    1  0.2114844E-002  0.2747545E+03  0.7818608E-02  0.1098589E+00
          2   -1    0    0  501    0  0.00000000000E+00  0.00000000000E+00  0.46979763932E+03  0.46979763932E+03  0.00000000000E+00 0. -1.
         -2   -1    0    0    0  501 -0.00000000000E+00 -0.00000000000E+00 -0.40171562409E+02  0.40171562409E+02  0.00000000000E+00 0. -1.
         36    2    1    2    0    0  0.00000000000E+00  0.00000000000E+00  0.42962607691E+03  0.50996920173E+03  0.27475447358E+03 0.  0.
         25    2    3    3    0    0  0.10623994368E+02 -0.32492780302E+02  0.12255428708E+03  0.17402033088E+03  0.11872182718E+03 0.  0.
         25    2    3    3    0    0 -0.10623994368E+02  0.32492780302E+02  0.30707178984E+03  0.33594887085E+03  0.13190871725E+03 0.  0.
          5    1    4    4  502    0  0.55622896524E+02 -0.46936409004E+02  0.54558965971E+02  0.91080754695E+02  0.47000000000E+01 0.  1.
         -5    1    4    4    0  502 -0.44998902155E+02  0.14443628702E+02  0.67995321107E+02  0.82939576185E+02  0.47000000000E+01 0.  1.
          5    1    5    5  503    0 -0.29007261114E+02  0.36157636290E+02  0.24358545526E+02  0.52575893712E+02  0.47000000000E+01 0.  1.
         -5    1    5    5    0  503  0.18383266746E+02 -0.36648559872E+01  0.28271324431E+03  0.28337297714E+03  0.47000000000E+01 0.  1.
<mgrwt>
<rscale>  0 0.27475447E+03</rscale>
<asrwt>0</asrwt>
<pdfrwt beam="1">  1        2 0.72276556E-01 0.27475447E+03</pdfrwt>
<pdfrwt beam="2">  1       -2 0.61802407E-02 0.27475447E+03</pdfrwt>
<totfact> 0.93844256E+03</totfact>
</mgrwt>
</event>
<event>
 9    1  0.2114844E-002  0.2759327E+03  0.7818608E-02  0.1097931E+00
         -3   -1    0    0    0  501 -0.00000000000E+00  0.00000000000E+00  0.12133555371E+04  0.12133555371E+04  0.00000000000E+00 0.  1.
          3   -1    0    0  501    0  0.00000000000E+00 -0.00000000000E+00 -0.15687665186E+02  0.15687665186E+02  0.00000000000E+00 0.  1.
         36    2    1    2    0    0  0.35527136788E-14 -0.14210854715E-13  0.11976678719E+04  0.12290432023E+04  0.27593271222E+03 0.  0.
         25    2    3    3    0    0  0.29478289382E+02  0.44254656202E+02  0.66312781386E+03  0.67751080490E+03  0.12827684551E+03 0.  0.
         25    2    3    3    0    0 -0.29478289382E+02 -0.44254656202E+02  0.53454005805E+03  0.55153239739E+03  0.12500986988E+03 0.  0.
          5    1    4    4  502    0  0.67736738866E+02  0.57185233269E+02  0.32353223988E+03  0.33549011451E+03  0.47000000000E+01 0.  1.
         -5    1    4    4    0  502 -0.38258449485E+02 -0.12930577067E+02  0.33959557399E+03  0.34202069039E+03  0.47000000000E+01 0.  1.
          5    1    5    5  503    0 -0.56749957702E+02 -0.64003046528E+02  0.47754055432E+03  0.48516390909E+03  0.47000000000E+01 0.  1.
         -5    1    5    5    0  503  0.27271668320E+02  0.19748390326E+02  0.56999503732E+02  0.66368488300E+02  0.47000000000E+01 0.  1.
<mgrwt>
<rscale>  0 0.27593271E+03</rscale>
<asrwt>0</asrwt>
<pdfrwt beam="1">  1        3 0.24134879E-02 0.27593271E+03</pdfrwt>
<pdfrwt beam="2">  1       -3 0.18667001E+00 0.27593271E+03</pdfrwt>
<totfact> 0.34882370E+02</totfact>
</mgrwt>
</event>
<event>
 9    1  0.2114844E-002  0.2754306E+03  0.7818608E-02  0.1098211E+00
         -2   -1    0    0    0  501 -0.00000000000E+00  0.00000000000E+00  0.10857148399E+03  0.10857148399E+03  0.00000000000E+00 0. -1.
          2   -1    0    0  501    0  0.00000000000E+00 -0.00000000000E+00 -0.17468221336E+03  0.17468221336E+03  0.00000000000E+00 0. -1.
         36    2    1    2    0    0  0.00000000000E+00 -0.71054273576E-14 -0.66110729377E+02  0.28325369735E+03  0.27543062380E+03 0.  0.
         25    2    3    3    0    0  0.50073584226E+02  0.24106966096E+02 -0.20676744412E+02  0.13770414130E+03  0.12428351911E+03 0.  0.
         25    2    3    3    0    0 -0.50073584226E+02 -0.24106966096E+02 -0.45433984965E+02  0.14554955605E+03  0.12661720509E+03 0.  0.
          5    1    4    4  502    0  0.48234772709E+02  0.61770860845E+02 -0.46973291352E+02  0.91492145282E+02  0.47000000000E+01 0. -1.
         -5    1    4    4    0  502  0.18388115171E+01 -0.37663894749E+02  0.26296546940E+02  0.46211996023E+02  0.47000000000E+01 0. -1.
          5    1    5    5  503    0 -0.30932441126E+02  0.51186767126E+02 -0.13950630432E+02  0.61592297670E+02  0.47000000000E+01 0. -1.
         -5    1    5    5    0  503 -0.19141143100E+02 -0.75293733223E+02 -0.31483354533E+02  0.83957258378E+02  0.47000000000E+01 0. -1.
<mgrwt>
<rscale>  0 0.27543062E+03</rscale>
<asrwt>0</asrwt>
<pdfrwt beam="1">  1        2 0.26874186E-01 0.27543062E+03</pdfrwt>
<pdfrwt beam="2">  1       -2 0.16703305E-01 0.27543062E+03</pdfrwt>
<totfact> 0.56267405E+03</totfact>
</mgrwt>
</event>
<event>
 9    1  0.2114844E-002  0.2749799E+03  0.7818608E-02  0.1098463E+00
         -1   -1    0    0    0  501 -0.00000000000E+00  0.00000000000E+00  0.24059952135E+02  0.24059952135E+02  0.00000000000E+00 0. -1.
          1   -1    0    0  501    0  0.00000000000E+00 -0.00000000000E+00 -0.78568256389E+03  0.78568256389E+03  0.00000000000E+00 0. -1.
         36    2    1    2    0    0 -0.35527136788E-14 -0.71054273576E-14 -0.76162261176E+03  0.80974251603E+03  0.27497988931E+03 0.  0.
         25    2    3    3    0    0 -0.11173099776E+02 -0.52675619732E+02 -0.40385067275E+03  0.42596058550E+03  0.12428795373E+03 0.  0.
         25    2    3    3    0    0  0.11173099776E+02  0.52675619732E+02 -0.35777193900E+03  0.38378193053E+03  0.12801660356E+03 0.  0.
          5    1    4    4  502    0  0.10383892577E+02  0.27511920486E+02 -0.24360369441E+03  0.24541715695E+03  0.47000000000E+01 0.  1.
         -5    1    4    4    0  502 -0.21556992353E+02 -0.80187540218E+02 -0.16024697834E+03  0.18054342855E+03  0.47000000000E+01 0.  1.
          5    1    5    5  503    0  0.62487656698E+02  0.33778644831E+02 -0.11801912196E+03  0.13782709180E+03  0.47000000000E+01 0.  1.
         -5    1    5    5    0  503 -0.51314556921E+02  0.18896974901E+02 -0.23975281704E+03  0.24595483872E+03  0.47000000000E+01 0.  1.
<mgrwt>
<rscale>  0 0.27497989E+03</rscale>
<asrwt>0</asrwt>
<pdfrwt beam="1">  1        1 0.12087423E+00 0.27497989E+03</pdfrwt>
<pdfrwt beam="2">  1       -1 0.37015313E-02 0.27497989E+03</pdfrwt>
<totfact> 0.65282476E+03</totfact>
</mgrwt>
</event>
<event>
 9    1  0.2114844E-002  0.2738020E+03  0.7818608E-02  0.1099123E+00
         -2   -1    0    0    0  501 -0.00000000000E+00  0.00000000000E+00  0.57720266963E+01  0.57720266963E+01  0.00000000000E+00 0. -1.
          2   -1    0    0  501    0  0.00000000000E+00 -0.00000000000E+00 -0.32470186873E+04  0.32470186873E+04  0.00000000000E+00 0. -1.
         36    2    1    2    0    0 -0.17763568394E-14  0.00000000000E+00 -0.32412466606E+04  0.32527907140E+04  0.27380196162E+03 0.  0.
         25    2    3    3    0    0 -0.15369742153E+02  0.32368308779E+02 -0.15132350813E+04  0.15197171025E+04  0.13555708742E+03 0.  0.
         25    2    3    3    0    0  0.15369742153E+02 -0.32368308779E+02 -0.17280115793E+04  0.17330736115E+04  0.12742130234E+03 0.  0.
          5    1    4    4  502    0 -0.57423749146E+02  0.63852200743E+02 -0.82777316297E+03  0.83222898882E+03  0.47000000000E+01 0. -1.
         -5    1    4    4    0  502  0.42054006993E+02 -0.31483891965E+02 -0.68546191834E+03  0.68748811368E+03  0.47000000000E+01 0. -1.
          5    1    5    5  503    0  0.21129923061E+02 -0.79275770861E+02 -0.91798533143E+03  0.92165627010E+03  0.47000000000E+01 0. -1.
         -5    1    5    5    0  503 -0.57601809087E+01  0.46907462082E+02 -0.81002624784E+03  0.81141734137E+03  0.47000000000E+01 0. -1.
<mgrwt>
<rscale>  0 0.27380196E+03</rscale>
<asrwt>0</asrwt>
<pdfrwt beam="1">  1        2 0.49954123E+00 0.27380196E+03</pdfrwt>
<pdfrwt beam="2">  1       -2 0.88800430E-03 0.27380196E+03</pdfrwt>
<totfact> 0.37361880E+03</totfact>
</mgrwt>
</event>
<event>
 9    1  0.2114844E-002  0.2739199E+03  0.7818608E-02  0.1099057E+00
          2   -1    0    0  501    0  0.00000000000E+00  0.00000000000E+00  0.14966743010E+04  0.14966743010E+04  0.00000000000E+00 0. -1.
         -2   -1    0    0    0  501 -0.00000000000E+00 -0.00000000000E+00 -0.12533138322E+02  0.12533138322E+02  0.00000000000E+00 0. -1.
         36    2    1    2    0    0  0.71054273576E-14  0.00000000000E+00  0.14841411627E+04  0.15092074393E+04  0.27391988637E+03 0.  0.
         25    2    3    3    0    0 -0.53547955637E+02  0.11971313117E+02  0.49280410563E+03  0.51246347616E+03  0.12943041370E+03 0.  0.
         25    2    3    3    0    0  0.53547955637E+02 -0.11971313117E+02  0.99133705706E+03  0.99674396316E+03  0.87969719299E+02 0.  0.
          5    1    4    4  502    0  0.27920226497E+02  0.44468610611E+02  0.17997263644E+03  0.18753462679E+03  0.47000000000E+01 0. -1.
         -5    1    4    4    0  502 -0.81468182134E+02 -0.32497297494E+02  0.31283146918E+03  0.32492884937E+03  0.47000000000E+01 0. -1.
          5    1    5    5  503    0  0.35312939874E+02  0.36348761236E+02  0.42470831286E+03  0.42774697799E+03  0.47000000000E+01 0.  1.
         -5    1    5    5    0  503  0.18235015762E+02 -0.48320074354E+02  0.56662874419E+03  0.56899698517E+03  0.47000000000E+01 0.  1.
<mgrwt>
<rscale>  0 0.27391989E+03</rscale>
<asrwt>0</asrwt>
<pdfrwt beam="1">  1        2 0.23025744E+00 0.27391989E+03</pdfrwt>
<pdfrwt beam="2">  1       -2 0.19281763E-02 0.27391989E+03</pdfrwt>
<totfact> 0.11176026E+04</totfact>
</mgrwt>
</event>
<event>
 9    1  0.2114844E-002  0.2763986E+03  0.7818608E-02  0.1097672E+00
          2   -1    0    0  501    0  0.00000000000E+00  0.00000000000E+00  0.50302791949E+02  0.50302791949E+02  0.00000000000E+00 0. -1.
         -2   -1    0    0    0  501 -0.00000000000E+00 -0.00000000000E+00 -0.37968155614E+03  0.37968155614E+03  0.00000000000E+00 0. -1.
         36    2    1    2    0    0  0.17763568394E-14  0.00000000000E+00 -0.32937876419E+03  0.42998434808E+03  0.27639856964E+03 0.  0.
         25    2    3    3    0    0  0.12882545263E+02  0.40616619900E+02 -0.56781439804E+02  0.12629972188E+03  0.10445964798E+03 0.  0.
         25    2    3    3    0    0 -0.12882545263E+02 -0.40616619900E+02 -0.27259732438E+03  0.30368462621E+03  0.12688333677E+03 0.  0.
          5    1    4    4  502    0  0.43236443068E+01  0.25777114030E+02 -0.87156001835E+02  0.91112085717E+02  0.47000000000E+01 0. -1.
         -5    1    4    4    0  502  0.85589009562E+01  0.14839505870E+02  0.30374562031E+02  0.35187636161E+02  0.47000000000E+01 0. -1.
          5    1    5    5  503    0  0.65911155191E+01 -0.84620724663E+02 -0.18598240711E+03  0.20448876644E+03  0.47000000000E+01 0. -1.
         -5    1    5    5    0  503 -0.19473660782E+02  0.44004104764E+02 -0.86614917273E+02  0.99195859765E+02  0.47000000000E+01 0. -1.
<mgrwt>
<rscale>  0 0.27639857E+03</rscale>
<asrwt>0</asrwt>
<pdfrwt beam="1">  1        2 0.77388907E-02 0.27639857E+03</pdfrwt>
<pdfrwt beam="2">  1       -2 0.58412550E-01 0.27639857E+03</pdfrwt>
<totfact> 0.24744701E+03</totfact>
</mgrwt>
</event>
<event>
 9    1  0.2114844E-002  0.2873907E+03  0.7818608E-02  0.1091719E+00
         -2   -1    0    0    0  501 -0.00000000000E+00  0.00000000000E+00  0.15317893566E+02  0.15317893566E+02  0.00000000000E+00 0. -1.
          2   -1    0    0  501    0  0.00000000000E+00 -0.00000000000E+00 -0.13479887392E+04  0.13479887392E+04  0.00000000000E+00 0. -1.
         36    2    1    2    0    0  0.71054273576E-14 -0.35527136788E-14 -0.13326708456E+04  0.13633066328E+04  0.28739066119E+03 0.  0.
         25    2    3    3    0    0 -0.45810846924E+01  0.17568883283E+02 -0.98579191471E+03  0.99356390622E+03  0.12269427305E+03 0.  0.
         25    2    3    3    0    0  0.45810846924E+01 -0.17568883283E+02 -0.34687893093E+03  0.36974272655E+03  0.12670848084E+03 0.  0.
          5    1    4    4  502    0 -0.37791252276E+02 -0.39654765813E+02 -0.34571990007E+03  0.35006430624E+03  0.47000000000E+01 0. -1.
         -5    1    4    4    0  502  0.33210167584E+02  0.57223649096E+02 -0.64007201464E+03  0.64349959998E+03  0.47000000000E+01 0. -1.
          5    1    5    5  503    0 -0.54302777719E+02  0.68858616346E+01 -0.23052348651E+03  0.23697969236E+03  0.47000000000E+01 0. -1.
         -5    1    5    5    0  503  0.58883862411E+02 -0.24454744917E+02 -0.11635544442E+03  0.13276303419E+03  0.47000000000E+01 0. -1.
<mgrwt>
<rscale>  0 0.28739066E+03</rscale>
<asrwt>0</asrwt>
<pdfrwt beam="1">  1        2 0.20738286E+00 0.28739066E+03</pdfrwt>
<pdfrwt beam="2">  1       -2 0.23565992E-02 0.28739066E+03</pdfrwt>
<totfact> 0.10018288E+04</totfact>
</mgrwt>
</event>
<event>
 9    1  0.2114844E-002  0.2748649E+03  0.7818608E-02  0.1098527E+00
          2   -1    0    0  501    0  0.00000000000E+00  0.00000000000E+00  0.11762122895E+03  0.11762122895E+03  0.00000000000E+00 0.  1.
         -2   -1    0    0    0  501 -0.00000000000E+00 -0.00000000000E+00 -0.16058050488E+03  0.16058050488E+03  0.00000000000E+00 0.  1.
         36    2    1    2    0    0  0.00000000000E+00  0.14210854715E-13 -0.42959275930E+02  0.27820173383E+03  0.27486488557E+03 0.  0.
         25    2    3    3    0    0 -0.89508914854E+01 -0.44674333900E+02  0.15228973201E+02  0.13472820485E+03  0.12587236786E+03 0.  0.
         25    2    3    3    0    0  0.89508914854E+01  0.44674333900E+02 -0.58188249131E+02  0.14347352897E+03  0.12297506500E+03 0.  0.
          5    1    4    4  502    0 -0.18300645181E+02  0.58571628075E+01 -0.48703793007E+02  0.52567760305E+02  0.47000000000E+01 0.  1.
         -5    1    4    4    0  502  0.93497536953E+01 -0.50531496708E+02  0.63932766208E+02  0.82160444550E+02  0.47000000000E+01 0.  1.
          5    1    5    5  503    0 -0.22217734878E+02  0.64065123645E+02 -0.76372928831E+02  0.10223933719E+03  0.47000000000E+01 0. -1.
         -5    1    5    5    0  503  0.31168626363E+02 -0.19390789745E+02  0.18184679700E+02  0.41234191784E+02  0.47000000000E+01 0. -1.
<mgrwt>
<rscale>  0 0.27486489E+03</rscale>
<asrwt>0</asrwt>
<pdfrwt beam="1">  1        2 0.18095574E-01 0.27486489E+03</pdfrwt>
<pdfrwt beam="2">  1       -2 0.24704693E-01 0.27486489E+03</pdfrwt>
<totfact> 0.45015347E+03</totfact>
</mgrwt>
</event>
<event>
 8    1  0.2114844E-002  0.2905231E+03  0.7818608E-02  0.1090076E+00
         -1   -1    0    0    0  501 -0.00000000000E+00  0.00000000000E+00  0.16578819923E+03  0.16578819923E+03  0.00000000000E+00 0. -1.
          1   -1    0    0  501    0  0.00000000000E+00 -0.00000000000E+00 -0.12727635451E+03  0.12727635451E+03  0.00000000000E+00 0. -1.
         25    2    1    2    0    0 -0.61447188779E+02 -0.33357084859E+02 -0.63334371295E+01  0.14151144390E+03  0.12286954142E+03 0.  0.
         25    2    1    2    0    0  0.61447188779E+02  0.33357084859E+02  0.44845281857E+02  0.15155310984E+03  0.12676274562E+03 0.  0.
          5    1    3    3  502    0  0.14692166952E+02  0.22346036275E+02  0.29858008807E+02  0.40358342346E+02  0.47000000000E+01 0. -1.
         -5    1    3    3    0  502 -0.76139355731E+02 -0.55703121134E+02 -0.36191445937E+02  0.10115310155E+03  0.47000000000E+01 0. -1.
          5    1    4    4  503    0  0.62677666295E+02  0.41374152001E+02  0.83134692515E+02  0.11213285605E+03  0.47000000000E+01 0. -1.
         -5    1    4    4    0  503 -0.12304775160E+01 -0.80170671424E+01 -0.38289410658E+02  0.39420253792E+02  0.47000000000E+01 0. -1.
<mgrwt>
<rscale>  0 0.29052310E+03</rscale>
<asrwt>0</asrwt>
<pdfrwt beam="1">  1        1 0.19580978E-01 0.29052310E+03</pdfrwt>
<pdfrwt beam="2">  1       -1 0.25505877E-01 0.29052310E+03</pdfrwt>
<totfact> 0.35232143E+03</totfact>
</mgrwt>
</event>
<event>
 9    1  0.2114844E-002  0.2756846E+03  0.7818608E-02  0.1098070E+00
         -1   -1    0    0    0  501 -0.00000000000E+00  0.00000000000E+00  0.42896553431E+02  0.42896553431E+02  0.00000000000E+00 0.  1.
          1   -1    0    0  501    0  0.00000000000E+00 -0.00000000000E+00 -0.44293758120E+03  0.44293758120E+03  0.00000000000E+00 0.  1.
         36    2    1    2    0    0  0.00000000000E+00  0.00000000000E+00 -0.40004102776E+03  0.48583413463E+03  0.27568457061E+03 0.  0.
         25    2    3    3    0    0  0.42675501459E+02  0.35968156887E+02 -0.18171589086E+03  0.22692903478E+03  0.12394036913E+03 0.  0.
         25    2    3    3    0    0 -0.42675501459E+02 -0.35968156887E+02 -0.21832513690E+03  0.25890509984E+03  0.12747971833E+03 0.  0.
          5    1    4    4  502    0  0.29957400466E+02  0.34132355275E+02 -0.97124253317E+00  0.45667240243E+02  0.47000000000E+01 0.  1.
         -5    1    4    4    0  502  0.12718100993E+02  0.18358016125E+01 -0.18074464833E+03  0.18126179454E+03  0.47000000000E+01 0.  1.
          5    1    5    5  503    0 -0.21640098082E+02 -0.83035835342E+02 -0.15378863301E+03  0.17617115950E+03  0.47000000000E+01 0.  1.
         -5    1    5    5    0  503 -0.21035403377E+02  0.47067678454E+02 -0.64536503892E+02  0.82733940344E+02  0.47000000000E+01 0.  1.
<mgrwt>
<rscale>  0 0.27568457E+03</rscale>
<asrwt>0</asrwt>
<pdfrwt beam="1">  1        1 0.68144243E-01 0.27568457E+03</pdfrwt>
<pdfrwt beam="2">  1       -1 0.65994698E-02 0.27568457E+03</pdfrwt>
<totfact> 0.60993651E+03</totfact>
</mgrwt>
</event>
<event>
 9    1  0.2114844E-002  0.2746999E+03  0.7818608E-02  0.1098619E+00
          3   -1    0    0  501    0  0.00000000000E+00  0.00000000000E+00  0.20856993525E+03  0.20856993525E+03  0.00000000000E+00 0.  1.
         -3   -1    0    0    0  501 -0.00000000000E+00 -0.00000000000E+00 -0.90449310061E+02  0.90449310061E+02  0.00000000000E+00 0.  1.
         36    2    1    2    0    0 -0.35527136788E-14  0.00000000000E+00  0.11812062519E+03  0.29901924531E+03  0.27469988528E+03 0.  0.
         25    2    3    3    0    0 -0.23656999176E+02 -0.52517057278E+02  0.69424365648E+02  0.15341721339E+03  0.12409433470E+03 0.  0.
         25    2    3    3    0    0  0.23656999176E+02  0.52517057278E+02  0.48696259539E+02  0.14560203192E+03  0.12454288856E+03 0.  0.
          5    1    4    4  502    0 -0.29162266906E+02  0.34382935902E+02  0.42545186877E+02  0.62167572084E+02  0.47000000000E+01 0. -1.
         -5    1    4    4    0  502  0.55052677303E+01 -0.86899993180E+02  0.26879178771E+02  0.91249641308E+02  0.47000000000E+01 0. -1.
          5    1    5    5  503    0  0.20998522635E+02  0.93339948809E+02  0.38056663509E+02  0.10307125513E+03  0.47000000000E+01 0. -1.
         -5    1    5    5    0  503  0.26584765406E+01 -0.40822891532E+02  0.10639596030E+02  0.42530776788E+02  0.47000000000E+01 0. -1.
<mgrwt>
<rscale>  0 0.27469989E+03</rscale>
<asrwt>0</asrwt>
<pdfrwt beam="1">  1        3 0.32087682E-01 0.27469989E+03</pdfrwt>
<pdfrwt beam="2">  1       -3 0.13915279E-01 0.27469989E+03</pdfrwt>
<totfact> 0.10165178E+03</totfact>
</mgrwt>
</event>
<event>
 9    1  0.2114844E-002  0.2744685E+03  0.7818608E-02  0.1098749E+00
         -1   -1    0    0    0  501 -0.00000000000E+00  0.00000000000E+00  0.92877915620E+03  0.92877915620E+03  0.00000000000E+00 0.  1.
          1   -1    0    0  501    0  0.00000000000E+00 -0.00000000000E+00 -0.20277416558E+02  0.20277416558E+02  0.00000000000E+00 0.  1.
         36    2    1    2    0    0  0.00000000000E+00  0.00000000000E+00  0.90850173964E+03  0.94905657275E+03  0.27446851798E+03 0.  0.
         25    2    3    3    0    0 -0.49421998033E+02  0.28057560339E+02  0.45091490422E+03  0.47114111852E+03  0.12417705961E+03 0.  0.
         25    2    3    3    0    0  0.49421998033E+02 -0.28057560339E+02  0.45758683542E+03  0.47791545423E+03  0.12564914987E+03 0.  0.
          5    1    4    4  502    0  0.36790491800E+02 -0.12489160419E+02  0.97005660912E+02  0.10460261786E+03  0.47000000000E+01 0.  1.
         -5    1    4    4    0  502 -0.86212489833E+02  0.40546720758E+02  0.35390924331E+03  0.36653850066E+03  0.47000000000E+01 0.  1.
          5    1    5    5  503    0  0.80801758035E+02  0.68401057342E+01  0.19690248820E+03  0.21299857043E+03  0.47000000000E+01 0. -1.
         -5    1    5    5    0  503 -0.31379760002E+02 -0.34897666073E+02  0.26068434722E+03  0.26491688380E+03  0.47000000000E+01 0. -1.
<mgrwt>
<rscale>  0 0.27446852E+03</rscale>
<asrwt>0</asrwt>
<pdfrwt beam="1">  1        1 0.31196033E-02 0.27446852E+03</pdfrwt>
<pdfrwt beam="2">  1       -1 0.14288907E+00 0.27446852E+03</pdfrwt>
<totfact> 0.13832068E+03</totfact>
</mgrwt>
</event>
<event>
 9    1  0.2114844E-002  0.2743198E+03  0.7818608E-02  0.1098832E+00
         -1   -1    0    0    0  501 -0.00000000000E+00  0.00000000000E+00  0.30230934800E+03  0.30230934800E+03  0.00000000000E+00 0.  1.
          1   -1    0    0  501    0  0.00000000000E+00 -0.00000000000E+00 -0.62230433429E+02  0.62230433429E+02  0.00000000000E+00 0.  1.
         36    2    1    2    0    0  0.00000000000E+00  0.00000000000E+00  0.24007891457E+03  0.36453978143E+03  0.27431982616E+03 0.  0.
         25    2    3    3    0    0  0.51047396565E+02 -0.20655510434E+02  0.10250817705E+03  0.17089158367E+03  0.12515398595E+03 0.  0.
         25    2    3    3    0    0 -0.51047396565E+02  0.20655510434E+02  0.13757073752E+03  0.19364819776E+03  0.12466527129E+03 0.  0.
          5    1    4    4  502    0  0.61859695664E+02 -0.19852997242E+02  0.12753999229E+03  0.14321069471E+03  0.47000000000E+01 0. -1.
         -5    1    4    4    0  502 -0.10812299099E+02 -0.80251319244E+00 -0.25031815240E+02  0.27680888957E+02  0.47000000000E+01 0. -1.
          5    1    5    5  503    0 -0.68591075178E+02  0.60367142450E+02  0.81098581227E+02  0.12226200292E+03  0.47000000000E+01 0.  1.
         -5    1    5    5    0  503  0.17543678613E+02 -0.39711632016E+02  0.56472156295E+02  0.71386194837E+02  0.47000000000E+01 0.  1.
<mgrwt>
<rscale>  0 0.27431983E+03</rscale>
<asrwt>0</asrwt>
<pdfrwt beam="1">  1        1 0.95739130E-02 0.27431983E+03</pdfrwt>
<pdfrwt beam="2">  1       -1 0.46509130E-01 0.27431983E+03</pdfrwt>
<totfact> 0.31836703E+03</totfact>
</mgrwt>
</event>
<event>
 9    1  0.2114844E-002  0.2744839E+03  0.7818608E-02  0.1098740E+00
          1   -1    0    0  501    0  0.00000000000E+00  0.00000000000E+00  0.50450407938E+03  0.50450407938E+03  0.00000000000E+00 0.  1.
         -1   -1    0    0    0  501 -0.00000000000E+00 -0.00000000000E+00 -0.37334402271E+02  0.37334402271E+02  0.00000000000E+00 0.  1.
         36    2    1    2    0    0  0.71054273576E-14  0.17763568394E-14  0.46716967710E+03  0.54183848165E+03  0.27448393940E+03 0.  0.
         25    2    3    3    0    0 -0.48845748889E+02  0.12826904176E+02  0.22248066369E+03  0.26230086473E+03  0.12943593498E+03 0.  0.
         25    2    3    3    0    0  0.48845748889E+02 -0.12826904176E+02  0.24468901341E+03  0.27953761692E+03  0.12537196391E+03 0.  0.
          5    1    4    4  502    0  0.36189187776E+01  0.55096904792E+02  0.16349475854E+03  0.17263079552E+03  0.47000000000E+01 0. -1.
         -5    1    4    4    0  502 -0.52464667666E+02 -0.42270000616E+02  0.58985905153E+02  0.89670069210E+02  0.47000000000E+01 0. -1.
          5    1    5    5  503    0 -0.35503705340E+02  0.51468788058E+00  0.24700983822E+02  0.43508695662E+02  0.47000000000E+01 0. -1.
         -5    1    5    5    0  503  0.84349454228E+02 -0.13341592056E+02  0.21998802959E+03  0.23602892126E+03  0.47000000000E+01 0. -1.
<mgrwt>
<rscale>  0 0.27448394E+03</rscale>
<asrwt>0</asrwt>
<pdfrwt beam="1">  1        1 0.77616007E-01 0.27448394E+03</pdfrwt>
<pdfrwt beam="2">  1       -1 0.57437546E-02 0.27448394E+03</pdfrwt>
<totfact> 0.63383039E+03</totfact>
</mgrwt>
</event>
<event>
 9    1  0.2114844E-002  0.2743108E+03  0.7818608E-02  0.1098837E+00
         -1   -1    0    0    0  501 -0.00000000000E+00  0.00000000000E+00  0.34089786387E+02  0.34089786387E+02  0.00000000000E+00 0.  1.
          1   -1    0    0  501    0  0.00000000000E+00 -0.00000000000E+00 -0.55182520750E+03  0.55182520750E+03  0.00000000000E+00 0.  1.
         36    2    1    2    0    0  0.00000000000E+00  0.14210854715E-13 -0.51773542111E+03  0.58591499389E+03  0.27431079780E+03 0.  0.
         25    2    3    3    0    0  0.33868916952E+02  0.54103422029E+02 -0.27159424435E+03  0.30398238382E+03  0.12069619835E+03 0.  0.
         25    2    3    3    0    0 -0.33868916952E+02 -0.54103422029E+02 -0.24614117676E+03  0.28193261007E+03  0.12176302359E+03 0.  0.
          5    1    4    4  502    0  0.54937416364E+02  0.47708721829E+02 -0.27185923857E+03  0.28146718717E+03  0.47000000000E+01 0. -1.
         -5    1    4    4    0  502 -0.21068499412E+02  0.63947002002E+01  0.26499422304E+00  0.22515196647E+02  0.47000000000E+01 0. -1.
          5    1    5    5  503    0  0.78075655967E+01  0.65146706412E+01  0.10232645884E+02  0.15172213283E+02  0.47000000000E+01 0.  1.
         -5    1    5    5    0  503 -0.41676482548E+02 -0.60618092670E+02 -0.25637382265E+03  0.26676039679E+03  0.47000000000E+01 0.  1.
<mgrwt>
<rscale>  0 0.27431080E+03</rscale>
<asrwt>0</asrwt>
<pdfrwt beam="1">  1        1 0.84896184E-01 0.27431080E+03</pdfrwt>
<pdfrwt beam="2">  1       -1 0.52445826E-02 0.27431080E+03</pdfrwt>
<totfact> 0.64413140E+03</totfact>
</mgrwt>
</event>
<event>
 9    1  0.2114844E-002  0.2754462E+03  0.7818608E-02  0.1098202E+00
          1   -1    0    0  501    0  0.00000000000E+00  0.00000000000E+00  0.42151737065E+02  0.42151737065E+02  0.00000000000E+00 0. -1.
         -1   -1    0    0    0  501 -0.00000000000E+00 -0.00000000000E+00 -0.44998513517E+03  0.44998513517E+03  0.00000000000E+00 0. -1.
         36    2    1    2    0    0  0.00000000000E+00  0.17763568394E-14 -0.40783339811E+03  0.49213687224E+03  0.27544622053E+03 0.  0.
         25    2    3    3    0    0  0.50643543766E+02 -0.89682274984E+01 -0.22327142516E+03  0.26293120991E+03  0.12898641100E+03 0.  0.
         25    2    3    3    0    0 -0.50643543766E+02  0.89682274984E+01 -0.18456197295E+03  0.22920566232E+03  0.12580507205E+03 0.  0.
          5    1    4    4  502    0  0.41137040358E+02 -0.30388303233E+02 -0.23190046324E+03  0.23751972531E+03  0.47000000000E+01 0.  1.
         -5    1    4    4    0  502  0.95065034073E+01  0.21420075734E+02  0.86290380763E+01  0.25411484601E+02  0.47000000000E+01 0.  1.
          5    1    5    5  503    0 -0.89561929623E+02  0.24468716442E+02 -0.11510026578E+03  0.14795343357E+03  0.47000000000E+01 0.  1.
         -5    1    5    5    0  503  0.38918385857E+02 -0.15500488944E+02 -0.69461707168E+02  0.81252228757E+02  0.47000000000E+01 0.  1.
<mgrwt>
<rscale>  0 0.27544622E+03</rscale>
<asrwt>0</asrwt>
<pdfrwt beam="1">  1        1 0.64848829E-02 0.27544622E+03</pdfrwt>
<pdfrwt beam="2">  1       -1 0.69228479E-01 0.27544622E+03</pdfrwt>
<totfact> 0.25381344E+03</totfact>
</mgrwt>
</event>
<event>
 9    1  0.2114844E-002  0.2750943E+03  0.7818608E-02  0.1098399E+00
         -2   -1    0    0    0  501 -0.00000000000E+00  0.00000000000E+00  0.94535207013E+03  0.94535207013E+03  0.00000000000E+00 0. -1.
          2   -1    0    0  501    0  0.00000000000E+00 -0.00000000000E+00 -0.20012874767E+02  0.20012874767E+02  0.00000000000E+00 0. -1.
         36    2    1    2    0    0  0.00000000000E+00  0.00000000000E+00  0.92533919536E+03  0.96536494490E+03  0.27509425723E+03 0.  0.
         25    2    3    3    0    0 -0.32902292071E+02 -0.28526266044E+02  0.63590060764E+03  0.64804317597E+03  0.11702164946E+03 0.  0.
         25    2    3    3    0    0  0.32902292071E+02  0.28526266044E+02  0.28943858772E+03  0.31732176893E+03  0.12256467801E+03 0.  0.
          5    1    4    4  502    0 -0.40757553911E+02 -0.70636137353E+02  0.42727915385E+03  0.43501747944E+03  0.47000000000E+01 0.  1.
         -5    1    4    4    0  502  0.78552618398E+01  0.42109871309E+02  0.20862145379E+03  0.21302569653E+03  0.47000000000E+01 0.  1.
          5    1    5    5  503    0  0.31859657655E+02  0.40001798315E+02  0.29788651637E+03  0.30228074416E+03  0.47000000000E+01 0. -1.
         -5    1    5    5    0  503  0.10426344165E+01 -0.11475532271E+02 -0.84479286540E+01  0.15041024765E+02  0.47000000000E+01 0. -1.
<mgrwt>
<rscale>  0 0.27509426E+03</rscale>
<asrwt>0</asrwt>
<pdfrwt beam="1">  1        2 0.30789045E-02 0.27509426E+03</pdfrwt>
<pdfrwt beam="2">  1       -2 0.14543875E+00 0.27509426E+03</pdfrwt>
<totfact> 0.10385392E+03</totfact>
</mgrwt>
</event>
<event>
 9    1  0.2114844E-002  0.2748089E+03  0.7818608E-02  0.1098558E+00
          1   -1    0    0  501    0  0.00000000000E+00  0.00000000000E+00  0.88693213066E+02  0.88693213066E+02  0.00000000000E+00 0. -1.
         -1   -1    0    0    0  501 -0.00000000000E+00 -0.00000000000E+00 -0.21286842839E+03  0.21286842839E+03  0.00000000000E+00 0. -1.
         36    2    1    2    0    0  0.14210854715E-13  0.71054273576E-14 -0.12417521533E+03  0.30156164146E+03  0.27480891452E+03 0.  0.
         25    2    3    3    0    0 -0.45458981271E+02 -0.21747486529E+02 -0.48591762964E+02  0.14503623565E+03  0.12702313992E+03 0.  0.
         25    2    3    3    0    0  0.45458981271E+02  0.21747486529E+02 -0.75583452363E+02  0.15652540581E+03  0.12746714182E+03 0.  0.
          5    1    4    4  502    0 -0.68318000329E+02  0.33781093342E+02 -0.24984269130E+02  0.80341864183E+02  0.47000000000E+01 0. -1.
         -5    1    4    4    0  502  0.22859019058E+02 -0.55528579871E+02 -0.23607493833E+02  0.64694371470E+02  0.47000000000E+01 0. -1.
          5    1    5    5  503    0  0.49029114017E+02 -0.14867951822E+01 -0.10653323031E+03  0.11737752656E+03  0.47000000000E+01 0.  1.
         -5    1    5    5    0  503 -0.35701327456E+01  0.23234281711E+02  0.30949777947E+02  0.39147879246E+02  0.47000000000E+01 0.  1.
<mgrwt>
<rscale>  0 0.27480891E+03</rscale>
<asrwt>0</asrwt>
<pdfrwt beam="1">  1        1 0.13645110E-01 0.27480891E+03</pdfrwt>
<pdfrwt beam="2">  1       -1 0.32748989E-01 0.27480891E+03</pdfrwt>
<totfact> 0.36917862E+03</totfact>
</mgrwt>
</event>
<event>
 9    1  0.2114844E-002  0.2737947E+03  0.7818608E-02  0.1099127E+00
          2   -1    0    0  501    0  0.00000000000E+00  0.00000000000E+00  0.25122098289E+03  0.25122098289E+03  0.00000000000E+00 0.  1.
         -2   -1    0    0    0  501 -0.00000000000E+00 -0.00000000000E+00 -0.74599200342E+02  0.74599200342E+02  0.00000000000E+00 0.  1.
         36    2    1    2    0    0  0.71054273576E-14  0.00000000000E+00  0.17662178255E+03  0.32582018324E+03  0.27379469997E+03 0.  0.
         25    2    3    3    0    0 -0.98396608789E+01 -0.13824290737E+01  0.15396388304E+03  0.19964029167E+03  0.12669900844E+03 0.  0.
         25    2    3    3    0    0  0.98396608789E+01  0.13824290737E+01  0.22657899511E+02  0.12617989157E+03  0.12373057258E+03 0.  0.
          5    1    4    4  502    0 -0.24412951970E+02 -0.37972472009E+02  0.52055830956E+01  0.45684668651E+02  0.47000000000E+01 0. -1.
         -5    1    4    4    0  502  0.14573291092E+02  0.36590042936E+02  0.14875829995E+03  0.15395562302E+03  0.47000000000E+01 0. -1.
          5    1    5    5  503    0 -0.39566530882E+02 -0.35729422412E+02  0.33683946055E+02  0.63236067350E+02  0.47000000000E+01 0. -1.
         -5    1    5    5    0  503  0.49406191761E+02  0.37111851486E+02 -0.11026046544E+02  0.62943824220E+02  0.47000000000E+01 0. -1.
<mgrwt>
<rscale>  0 0.27379470E+03</rscale>
<asrwt>0</asrwt>
<pdfrwt beam="1">  1        2 0.38649382E-01 0.27379470E+03</pdfrwt>
<pdfrwt beam="2">  1       -2 0.11476800E-01 0.27379470E+03</pdfrwt>
<totfact> 0.69956431E+03</totfact>
</mgrwt>
</event>
<event>
 9    1  0.2114844E-002  0.2746156E+03  0.7818608E-02  0.1098667E+00
         -1   -1    0    0    0  501 -0.00000000000E+00  0.00000000000E+00  0.35698768237E+02  0.35698768237E+02  0.00000000000E+00 0. -1.
          1   -1    0    0  501    0  0.00000000000E+00 -0.00000000000E+00 -0.52812574449E+03  0.52812574449E+03  0.00000000000E+00 0. -1.
         36    2    1    2    0    0  0.71054273576E-14  0.00000000000E+00 -0.49242697625E+03  0.56382451273E+03  0.27461564815E+03 0.  0.
         25    2    3    3    0    0 -0.23806305408E+02  0.59940042728E+01 -0.34433960525E+03  0.36779450024E+03  0.12688720346E+03 0.  0.
         25    2    3    3    0    0  0.23806305408E+02 -0.59940042728E+01 -0.14808737101E+03  0.19603001249E+03  0.12607627881E+03 0.  0.
          5    1    4    4  502    0 -0.38924675027E+02  0.60699492750E+02 -0.18870344229E+03  0.20206592458E+03  0.47000000000E+01 0.  1.
         -5    1    4    4    0  502  0.15118369618E+02 -0.54705488477E+02 -0.15563616296E+03  0.16572857566E+03  0.47000000000E+01 0.  1.
          5    1    5    5  503    0 -0.13409712092E+02  0.46396979867E+02 -0.19681368350E+02  0.52363597845E+02  0.47000000000E+01 0.  1.
         -5    1    5    5    0  503  0.37216017501E+02 -0.52390984140E+02 -0.12840600266E+03  0.14366641464E+03  0.47000000000E+01 0.  1.
<mgrwt>
<rscale>  0 0.27461565E+03</rscale>
<asrwt>0</asrwt>
<pdfrwt beam="1">  1        1 0.81250115E-01 0.27461565E+03</pdfrwt>
<pdfrwt beam="2">  1       -1 0.54921182E-02 0.27461565E+03</pdfrwt>
<totfact> 0.63777765E+03</totfact>
</mgrwt>
</event>
<event>
 9    1  0.2114844E-002  0.2748168E+03  0.7818608E-02  0.1098554E+00
          1   -1    0    0  501    0  0.00000000000E+00  0.00000000000E+00  0.31152099768E+02  0.31152099768E+02  0.00000000000E+00 0.  1.
         -1   -1    0    0    0  501 -0.00000000000E+00 -0.00000000000E+00 -0.60609296521E+03  0.60609296521E+03  0.00000000000E+00 0.  1.
         36    2    1    2    0    0  0.00000000000E+00  0.00000000000E+00 -0.57494086544E+03  0.63724506497E+03  0.27481680095E+03 0.  0.
         25    2    3    3    0    0 -0.21901463311E+02 -0.44550413652E+02 -0.32252830750E+03  0.34955825576E+03  0.12530782728E+03 0.  0.
         25    2    3    3    0    0  0.21901463311E+02  0.44550413652E+02 -0.25241255794E+03  0.28768680922E+03  0.12879125491E+03 0.  0.
          5    1    4    4  502    0 -0.74444862624E+00 -0.27399040715E+02 -0.32065268430E+03  0.32185632755E+03  0.47000000000E+01 0.  1.
         -5    1    4    4    0  502 -0.21157014685E+02 -0.17151372937E+02 -0.18756231999E+01  0.27701928207E+02  0.47000000000E+01 0.  1.
          5    1    5    5  503    0  0.56634559964E+02  0.22108942112E+02 -0.44091417993E+02  0.75249065405E+02  0.47000000000E+01 0. -1.
         -5    1    5    5    0  503 -0.34733096652E+02  0.22441471540E+02 -0.20832113995E+03  0.21243774381E+03  0.47000000000E+01 0. -1.
<mgrwt>
<rscale>  0 0.27481680E+03</rscale>
<asrwt>0</asrwt>
<pdfrwt beam="1">  1        1 0.47926311E-02 0.27481680E+03</pdfrwt>
<pdfrwt beam="2">  1       -1 0.93245065E-01 0.27481680E+03</pdfrwt>
<totfact> 0.20746564E+03</totfact>
</mgrwt>
</event>
<event>
 9    1  0.2114844E-002  0.2748574E+03  0.7818608E-02  0.1098531E+00
          2   -1    0    0  501    0  0.00000000000E+00  0.00000000000E+00  0.47201536821E+03  0.47201536821E+03  0.00000000000E+00 0. -1.
         -2   -1    0    0    0  501 -0.00000000000E+00 -0.00000000000E+00 -0.40012776944E+02  0.40012776944E+02  0.00000000000E+00 0. -1.
         36    2    1    2    0    0  0.71054273576E-14 -0.14210854715E-13  0.43200259126E+03  0.51202814515E+03  0.27485738587E+03 0.  0.
         25    2    3    3    0    0 -0.26026421148E+02  0.39253191500E+02  0.24529642106E+03  0.28211786137E+03  0.13115626510E+03 0.  0.
         25    2    3    3    0    0  0.26026421148E+02 -0.39253191500E+02  0.18670617020E+03  0.22991028379E+03  0.12562387097E+03 0.  0.
          5    1    4    4  502    0 -0.54630086861E+02 -0.29796421244E+02  0.13591584221E+03  0.14955761188E+03  0.47000000000E+01 0. -1.
         -5    1    4    4    0  502  0.28603665713E+02  0.69049612744E+02  0.10938057886E+03  0.13256024948E+03  0.47000000000E+01 0. -1.
          5    1    5    5  503    0 -0.41640485962E+02 -0.29448320068E+02  0.13399301691E+03  0.14344808192E+03  0.47000000000E+01 0. -1.
         -5    1    5    5    0  503  0.67666907110E+02 -0.98048714319E+01  0.52713153295E+02  0.86462201869E+02  0.47000000000E+01 0. -1.
<mgrwt>
<rscale>  0 0.27485739E+03</rscale>
<asrwt>0</asrwt>
<pdfrwt beam="1">  1        2 0.72617745E-01 0.27485739E+03</pdfrwt>
<pdfrwt beam="2">  1       -2 0.61558122E-02 0.27485739E+03</pdfrwt>
<totfact> 0.93927118E+03</totfact>
</mgrwt>
</event>
<event>
 9    1  0.2114844E-002  0.2717454E+03  0.7818608E-02  0.1100285E+00
          2   -1    0    0  501    0  0.00000000000E+00  0.00000000000E+00  0.19511358532E+03  0.19511358532E+03  0.00000000000E+00 0.  1.
         -2   -1    0    0    0  501 -0.00000000000E+00 -0.00000000000E+00 -0.94618697287E+02  0.94618697287E+02  0.00000000000E+00 0.  1.
         36    2    1    2    0    0  0.00000000000E+00  0.14210854715E-13  0.10049488804E+03  0.28973228261E+03  0.27174541959E+03 0.  0.
         25    2    3    3    0    0  0.18046005277E+02 -0.34777924697E+02 -0.96988222552E+01  0.11664848145E+03  0.10944239909E+03 0.  0.
         25    2    3    3    0    0 -0.18046005277E+02  0.34777924697E+02  0.11019371029E+03  0.17308380116E+03  0.12759383247E+03 0.  0.
          5    1    4    4  502    0 -0.36619005186E+02 -0.41553058075E+02 -0.22393351522E+02  0.59926291130E+02  0.47000000000E+01 0. -1.
         -5    1    4    4    0  502  0.54665010463E+02  0.67751333780E+01  0.12694529267E+02  0.56722190319E+02  0.47000000000E+01 0. -1.
          5    1    5    5  503    0 -0.62026623698E+02 -0.10367017724E+02  0.26983817538E+02  0.68592955271E+02  0.47000000000E+01 0. -1.
         -5    1    5    5    0  503  0.43980618421E+02  0.45144942421E+02  0.83209892755E+02  0.10449084589E+03  0.47000000000E+01 0. -1.
<mgrwt>
<rscale>  0 0.27174542E+03</rscale>
<asrwt>0</asrwt>
<pdfrwt beam="1">  1        2 0.30017474E-01 0.27174542E+03</pdfrwt>
<pdfrwt beam="2">  1       -2 0.14556723E-01 0.27174542E+03</pdfrwt>
<totfact> 0.62543420E+03</totfact>
</mgrwt>
</event>
<event>
 9    1  0.2114844E-002  0.2744966E+03  0.7818608E-02  0.1098733E+00
          2   -1    0    0  501    0  0.00000000000E+00  0.00000000000E+00  0.92247977196E+03  0.92247977196E+03  0.00000000000E+00 0. -1.
         -2   -1    0    0    0  501 -0.00000000000E+00 -0.00000000000E+00 -0.20420060599E+02  0.20420060599E+02  0.00000000000E+00 0. -1.
         36    2    1    2    0    0  0.17763568394E-14  0.14210854715E-13  0.90205971136E+03  0.94289983256E+03  0.27449657809E+03 0.  0.
         25    2    3    3    0    0  0.14528392896E+02 -0.55547403517E+02  0.47687432841E+03  0.49586830089E+03  0.12320575675E+03 0.  0.
         25    2    3    3    0    0 -0.14528392896E+02  0.55547403517E+02  0.42518538295E+03  0.44703153167E+03  0.12553084160E+03 0.  0.
          5    1    4    4  502    0 -0.14354606299E+02 -0.71601635449E+02  0.44035517999E+03  0.44639402266E+03  0.47000000000E+01 0. -1.
         -5    1    4    4    0  502  0.28882999195E+02  0.16054231932E+02  0.36519148417E+02  0.49474278232E+02  0.47000000000E+01 0. -1.
          5    1    5    5  503    0 -0.36649468798E+02  0.44942217441E+02  0.41656402561E+03  0.42060749388E+03  0.47000000000E+01 0. -1.
         -5    1    5    5    0  503  0.22121075902E+02  0.10605186077E+02  0.86213573400E+01  0.26424037791E+02  0.47000000000E+01 0. -1.
<mgrwt>
<rscale>  0 0.27449658E+03</rscale>
<asrwt>0</asrwt>
<pdfrwt beam="1">  1        2 0.14191993E+00 0.27449658E+03</pdfrwt>
<pdfrwt beam="2">  1       -2 0.31415485E-02 0.27449658E+03</pdfrwt>
<totfact> 0.11580448E+04</totfact>
</mgrwt>
</event>
<event>
 9    1  0.2114844E-002  0.2753178E+03  0.7818608E-02  0.1098274E+00
         -2   -1    0    0    0  501 -0.00000000000E+00  0.00000000000E+00  0.31627227974E+02  0.31627227974E+02  0.00000000000E+00 0.  1.
          2   -1    0    0  501    0  0.00000000000E+00 -0.00000000000E+00 -0.59916652597E+03  0.59916652597E+03  0.00000000000E+00 0.  1.
         36    2    1    2    0    0  0.00000000000E+00  0.00000000000E+00 -0.56753929799E+03  0.63079375394E+03  0.27531782587E+03 0.  0.
         25    2    3    3    0    0  0.15634911024E+02 -0.60695071950E+02 -0.18357175281E+03  0.22707139626E+03  0.11804443388E+03 0.  0.
         25    2    3    3    0    0 -0.15634911024E+02  0.60695071950E+02 -0.38396754519E+03  0.40372235768E+03  0.10785325276E+03 0.  0.
          5    1    4    4  502    0  0.46740462213E+02  0.57951674013E+01 -0.28018784143E+02  0.55003609317E+02  0.47000000000E+01 0.  1.
         -5    1    4    4    0  502 -0.31105551189E+02 -0.66490239351E+02 -0.15555296866E+03  0.17206778694E+03  0.47000000000E+01 0.  1.
          5    1    5    5  503    0 -0.98819258090E+01 -0.19210645573E+02 -0.16481356910E+02  0.27575831567E+02  0.47000000000E+01 0.  1.
         -5    1    5    5    0  503 -0.57529852151E+01  0.79905717523E+02 -0.36748618828E+03  0.37614652611E+03  0.47000000000E+01 0.  1.
<mgrwt>
<rscale>  0 0.27531783E+03</rscale>
<asrwt>0</asrwt>
<pdfrwt beam="1">  1        2 0.92179460E-01 0.27531783E+03</pdfrwt>
<pdfrwt beam="2">  1       -2 0.48657277E-02 0.27531783E+03</pdfrwt>
<totfact> 0.10266989E+04</totfact>
</mgrwt>
</event>
<event>
 9    1  0.2114844E-002  0.2731407E+03  0.7818608E-02  0.1099495E+00
          1   -1    0    0  501    0  0.00000000000E+00  0.00000000000E+00  0.12051786128E+04  0.12051786128E+04  0.00000000000E+00 0.  1.
         -1   -1    0    0    0  501 -0.00000000000E+00 -0.00000000000E+00 -0.15476096501E+02  0.15476096501E+02  0.00000000000E+00 0.  1.
         36    2    1    2    0    0  0.00000000000E+00  0.00000000000E+00  0.11897025163E+04  0.12206547093E+04  0.27314070010E+03 0.  0.
         25    2    3    3    0    0  0.10387077191E+02 -0.51146327120E+02  0.57540194325E+03  0.58290019705E+03  0.77210137103E+02 0.  0.
         25    2    3    3    0    0 -0.10387077191E+02  0.51146327120E+02  0.61430057306E+03  0.63775451227E+03  0.16322311632E+03 0.  0.
          5    1    4    4  502    0 -0.45043689213E+01 -0.46745242810E+02  0.15135132627E+03  0.15853933590E+03  0.47000000000E+01 0.  1.
         -5    1    4    4    0  502  0.14891446113E+02 -0.44010843103E+01  0.42405061698E+03  0.42436086115E+03  0.47000000000E+01 0.  1.
          5    1    5    5  503    0 -0.25885021326E+02  0.67605832328E+02  0.60996042899E+03  0.61425922690E+03  0.47000000000E+01 0.  1.
         -5    1    5    5    0  503  0.15497944134E+02 -0.16459505208E+02  0.43401440727E+01  0.23495285371E+02  0.47000000000E+01 0.  1.
<mgrwt>
<rscale>  0 0.27314070E+03</rscale>
<asrwt>0</asrwt>
<pdfrwt beam="1">  1        1 0.18541202E+00 0.27314070E+03</pdfrwt>
<pdfrwt beam="2">  1       -1 0.23809389E-02 0.27314070E+03</pdfrwt>
<totfact> 0.60235955E+03</totfact>
</mgrwt>
</event>
<event>
 9    1  0.2114844E-002  0.2753702E+03  0.7818608E-02  0.1098245E+00
         -3   -1    0    0    0  501 -0.00000000000E+00  0.00000000000E+00  0.26462065095E+03  0.26462065095E+03  0.00000000000E+00 0. -1.
          3   -1    0    0  501    0  0.00000000000E+00 -0.00000000000E+00 -0.71639110786E+02  0.71639110786E+02  0.00000000000E+00 0. -1.
         36    2    1    2    0    0  0.71054273576E-14  0.71054273576E-14  0.19298154016E+03  0.33625976173E+03  0.27537020993E+03 0.  0.
         25    2    3    3    0    0  0.16181318992E+02  0.41239402334E+02  0.13254407510E+03  0.18719409348E+03  0.12454386136E+03 0.  0.
         25    2    3    3    0    0 -0.16181318992E+02 -0.41239402334E+02  0.60437465063E+02  0.14906566825E+03  0.12886179759E+03 0.  0.
          5    1    4    4  502    0 -0.14908502845E+02 -0.29154437128E+02  0.96642992387E+02  0.10214794486E+03  0.47000000000E+01 0. -1.
         -5    1    4    4    0  502  0.31089821838E+02  0.70393839462E+02  0.35901082711E+02  0.85046148625E+02  0.47000000000E+01 0. -1.
          5    1    5    5  503    0  0.56040679600E+02 -0.18215416501E+02  0.36318134979E+02  0.69379075351E+02  0.47000000000E+01 0. -1.
         -5    1    5    5    0  503 -0.72221998592E+02 -0.23023985833E+02  0.24119330085E+02  0.79686592900E+02  0.47000000000E+01 0. -1.
<mgrwt>
<rscale>  0 0.27537021E+03</rscale>
<asrwt>0</asrwt>
<pdfrwt beam="1">  1        3 0.11021402E-01 0.27537021E+03</pdfrwt>
<pdfrwt beam="2">  1       -3 0.40710869E-01 0.27537021E+03</pdfrwt>
<totfact> 0.95690514E+02</totfact>
</mgrwt>
</event>
<event>
 9    1  0.2114844E-002  0.2751192E+03  0.7818608E-02  0.1098385E+00
          2   -1    0    0  501    0  0.00000000000E+00  0.00000000000E+00  0.47386926028E+03  0.47386926028E+03  0.00000000000E+00 0. -1.
         -2   -1    0    0    0  501 -0.00000000000E+00 -0.00000000000E+00 -0.39932188851E+02  0.39932188851E+02  0.00000000000E+00 0. -1.
         36    2    1    2    0    0  0.00000000000E+00  0.00000000000E+00  0.43393707143E+03  0.51380144913E+03  0.27511915086E+03 0.  0.
         25    2    3    3    0    0  0.52931339770E+02 -0.21845589038E+02  0.17504419594E+03  0.22090282282E+03  0.12197799026E+03 0.  0.
         25    2    3    3    0    0 -0.52931339770E+02  0.21845589038E+02  0.25889287549E+03  0.29289862631E+03  0.12443925355E+03 0.  0.
          5    1    4    4  502    0  0.11769275980E+02  0.36268426521E+02  0.13218037806E+03  0.13765048842E+03  0.47000000000E+01 0.  1.
         -5    1    4    4    0  502  0.41162063789E+02 -0.58114015559E+02  0.42863817881E+02  0.83252334400E+02  0.47000000000E+01 0.  1.
          5    1    5    5  503    0 -0.61216617410E+02 -0.32792039333E+02  0.20106980794E+03  0.21277676038E+03  0.47000000000E+01 0.  1.
         -5    1    5    5    0  503  0.82852776402E+01  0.54637628371E+02  0.57823067547E+02  0.80121865930E+02  0.47000000000E+01 0.  1.
<mgrwt>
<rscale>  0 0.27511915E+03</rscale>
<asrwt>0</asrwt>
<pdfrwt beam="1">  1        2 0.72902959E-01 0.27511915E+03</pdfrwt>
<pdfrwt beam="2">  1       -2 0.61434140E-02 0.27511915E+03</pdfrwt>
<totfact> 0.93813358E+03</totfact>
</mgrwt>
</event>
<event>
 9    1  0.2114844E-002  0.2759859E+03  0.7818608E-02  0.1097902E+00
         -2   -1    0    0    0  501 -0.00000000000E+00  0.00000000000E+00  0.23666960821E+03  0.23666960821E+03  0.00000000000E+00 0. -1.
          2   -1    0    0  501    0  0.00000000000E+00 -0.00000000000E+00 -0.80458376890E+02  0.80458376890E+02  0.00000000000E+00 0. -1.
         36    2    1    2    0    0  0.71054273576E-14  0.00000000000E+00  0.15621123132E+03  0.31712798510E+03  0.27598588758E+03 0.  0.
         25    2    3    3    0    0 -0.27390056164E+02 -0.52457208488E+02  0.61819929881E+02  0.14861319638E+03  0.12149981279E+03 0.  0.
         25    2    3    3    0    0  0.27390056164E+02  0.52457208488E+02  0.94391301443E+02  0.16851478872E+03  0.12643394454E+03 0.  0.
          5    1    4    4  502    0 -0.64263276015E+02 -0.32340903838E+02 -0.19340177412E+01  0.72121655069E+02  0.47000000000E+01 0.  1.
         -5    1    4    4    0  502  0.36873219851E+02 -0.20116304650E+02  0.63753947622E+02  0.76491541312E+02  0.47000000000E+01 0.  1.
          5    1    5    5  503    0  0.18694957343E+02  0.65012270053E+02 -0.48615074211E+01  0.67983975626E+02  0.47000000000E+01 0. -1.
         -5    1    5    5    0  503  0.86950988208E+01 -0.12555061564E+02  0.99252808864E+02  0.10053081310E+03  0.47000000000E+01 0. -1.
<mgrwt>
<rscale>  0 0.27598589E+03</rscale>
<asrwt>0</asrwt>
<pdfrwt beam="1">  1        2 0.12378212E-01 0.27598589E+03</pdfrwt>
<pdfrwt beam="2">  1       -2 0.36410709E-01 0.27598589E+03</pdfrwt>
<totfact> 0.34905646E+03</totfact>
</mgrwt>
</event>
<event>
 9    1  0.2114844E-002  0.2747367E+03  0.7818608E-02  0.1098599E+00
          1   -1    0    0  501    0  0.00000000000E+00  0.00000000000E+00  0.42266401149E+02  0.42266401149E+02  0.00000000000E+00 0. -1.
         -1   -1    0    0    0  501 -0.00000000000E+00 -0.00000000000E+00 -0.44645548723E+03  0.44645548723E+03  0.00000000000E+00 0. -1.
         36    2    1    2    0    0  0.71054273576E-14  0.71054273576E-14 -0.40418908608E+03  0.48872188838E+03  0.27473672283E+03 0.  0.
         25    2    3    3    0    0 -0.52104482887E+02  0.25662797331E+02 -0.21818412473E+03  0.25933446058E+03  0.12757975489E+03 0.  0.
         25    2    3    3    0    0  0.52104482887E+02 -0.25662797331E+02 -0.18600496135E+03  0.22938742780E+03  0.12102598928E+03 0.  0.
          5    1    4    4  502    0  0.37994053012E+02 -0.14011517216E+02 -0.77398084274E+02  0.87478135144E+02  0.47000000000E+01 0. -1.
         -5    1    4    4    0  502 -0.90098535899E+02  0.39674314547E+02 -0.14078604046E+03  0.17185632544E+03  0.47000000000E+01 0. -1.
          5    1    5    5  503    0  0.41373379098E+01  0.39306130327E+02 -0.11520289027E+03  0.12188472166E+03  0.47000000000E+01 0. -1.
         -5    1    5    5    0  503  0.47967144977E+02 -0.64968927658E+02 -0.70802071079E+02  0.10750270614E+03  0.47000000000E+01 0. -1.
<mgrwt>
<rscale>  0 0.27473672E+03</rscale>
<asrwt>0</asrwt>
<pdfrwt beam="1">  1        1 0.65025233E-02 0.27473672E+03</pdfrwt>
<pdfrwt beam="2">  1       -1 0.68685459E-01 0.27473672E+03</pdfrwt>
<totfact> 0.25684877E+03</totfact>
</mgrwt>
</event>
<event>
 9    1  0.2114844E-002  0.2730857E+03  0.7818608E-02  0.1099526E+00
         -1   -1    0    0    0  501 -0.00000000000E+00  0.00000000000E+00  0.35473278920E+03  0.35473278920E+03  0.00000000000E+00 0. -1.
          1   -1    0    0  501    0  0.00000000000E+00 -0.00000000000E+00 -0.52557741601E+02  0.52557741601E+02  0.00000000000E+00 0. -1.
         36    2    1    2    0    0 -0.71054273576E-14  0.00000000000E+00  0.30217504760E+03  0.40729053080E+03  0.27308573212E+03 0.  0.
         25    2    3    3    0    0  0.28910903433E+02  0.35999842737E+02  0.15923086605E+03  0.20731603732E+03  0.12447345747E+03 0.  0.
         25    2    3    3    0    0 -0.28910903433E+02 -0.35999842737E+02  0.14294418155E+03  0.19997449347E+03  0.13200352263E+03 0.  0.
          5    1    4    4  502    0  0.66022381788E+02 -0.15596392660E+02  0.95030022534E+02  0.11685460001E+03  0.47000000000E+01 0. -1.
         -5    1    4    4    0  502 -0.37111478355E+02  0.51596235397E+02  0.64200843514E+02  0.90461437313E+02  0.47000000000E+01 0. -1.
          5    1    5    5  503    0  0.39923128329E+02 -0.29404357971E+02  0.11106529391E+02  0.51028594321E+02  0.47000000000E+01 0. -1.
         -5    1    5    5    0  503 -0.68834031762E+02 -0.65954847657E+01  0.13183765216E+03  0.14894589915E+03  0.47000000000E+01 0. -1.
<mgrwt>
<rscale>  0 0.27308573E+03</rscale>
<asrwt>0</asrwt>
<pdfrwt beam="1">  1        1 0.80858066E-02 0.27308573E+03</pdfrwt>
<pdfrwt beam="2">  1       -1 0.54574274E-01 0.27308573E+03</pdfrwt>
<totfact> 0.29752500E+03</totfact>
</mgrwt>
</event>
<event>
 9    1  0.2114844E-002  0.2747926E+03  0.7818608E-02  0.1098568E+00
          1   -1    0    0  501    0  0.00000000000E+00  0.00000000000E+00  0.15957459526E+03  0.15957459526E+03  0.00000000000E+00 0.  1.
         -1   -1    0    0    0  501 -0.00000000000E+00 -0.00000000000E+00 -0.11830040166E+03  0.11830040166E+03  0.00000000000E+00 0.  1.
         36    2    1    2    0    0  0.00000000000E+00 -0.71054273576E-14  0.41274193606E+02  0.27787499692E+03  0.27479256696E+03 0.  0.
         25    2    3    3    0    0 -0.56401220661E+02  0.26078579757E+01  0.58321289641E+01  0.13407693581E+03  0.12146897699E+03 0.  0.
         25    2    3    3    0    0  0.56401220661E+02 -0.26078579757E+01  0.35442064641E+02  0.14379806112E+03  0.12741210233E+03 0.  0.
          5    1    4    4  502    0 -0.57550688175E+02  0.52755531508E+02  0.21855803167E+02  0.81209568071E+02  0.47000000000E+01 0.  1.
         -5    1    4    4    0  502  0.11494675143E+01 -0.50147673532E+02 -0.16023674203E+02  0.52867367735E+02  0.47000000000E+01 0.  1.
          5    1    5    5  503    0 -0.17229808173E+02 -0.41221893753E+02  0.40341945823E+02  0.60379412113E+02  0.47000000000E+01 0. -1.
         -5    1    5    5    0  503  0.73631028834E+02  0.38614035777E+02 -0.48998811820E+01  0.83418649004E+02  0.47000000000E+01 0. -1.
<mgrwt>
<rscale>  0 0.27479257E+03</rscale>
<asrwt>0</asrwt>
<pdfrwt beam="1">  1        1 0.24549938E-01 0.27479257E+03</pdfrwt>
<pdfrwt beam="2">  1       -1 0.18200062E-01 0.27479257E+03</pdfrwt>
<totfact> 0.45766020E+03</totfact>
</mgrwt>
</event>
<event>
 9    1  0.2114844E-002  0.2755412E+03  0.7818608E-02  0.1098149E+00
          1   -1    0    0  501    0  0.00000000000E+00  0.00000000000E+00  0.18053293857E+03  0.18053293857E+03  0.00000000000E+00 0. -1.
         -1   -1    0    0    0  501 -0.00000000000E+00 -0.00000000000E+00 -0.10513727041E+03  0.10513727041E+03  0.00000000000E+00 0. -1.
         36    2    1    2    0    0 -0.14210854715E-13  0.00000000000E+00  0.75395668164E+02  0.28567020898E+03  0.27554121564E+03 0.  0.
         25    2    3    3    0    0  0.26505110275E+02  0.49727327570E+02  0.86239204300E+01  0.13570937501E+03  0.12315573265E+03 0.  0.
         25    2    3    3    0    0 -0.26505110275E+02 -0.49727327570E+02  0.66771747734E+02  0.14996083396E+03  0.12187886383E+03 0.  0.
          5    1    4    4  502    0 -0.41526261336E+02  0.47366207905E+02 -0.12269933632E+02  0.64347721818E+02  0.47000000000E+01 0.  1.
         -5    1    4    4    0  502  0.68031371611E+02  0.23611196644E+01  0.20893854062E+02  0.71361653196E+02  0.47000000000E+01 0.  1.
          5    1    5    5  503    0 -0.49245659555E+02 -0.25662236007E+02  0.92347401415E+02  0.10786017750E+03  0.47000000000E+01 0.  1.
         -5    1    5    5    0  503  0.22740549280E+02 -0.24065091563E+02 -0.25575653680E+02  0.42100656463E+02  0.47000000000E+01 0.  1.
<mgrwt>
<rscale>  0 0.27554122E+03</rscale>
<asrwt>0</asrwt>
<pdfrwt beam="1">  1        1 0.27774298E-01 0.27554122E+03</pdfrwt>
<pdfrwt beam="2">  1       -1 0.16174965E-01 0.27554122E+03</pdfrwt>
<totfact> 0.47279031E+03</totfact>
</mgrwt>
</event>
<event>
 9    1  0.2114844E-002  0.2749985E+03  0.7818608E-02  0.1098452E+00
         -1   -1    0    0    0  501 -0.00000000000E+00  0.00000000000E+00  0.39334522291E+02  0.39334522291E+02  0.00000000000E+00 0. -1.
          1   -1    0    0  501    0  0.00000000000E+00 -0.00000000000E+00 -0.48064759772E+03  0.48064759772E+03  0.00000000000E+00 0. -1.
         36    2    1    2    0    0  0.35527136788E-14  0.00000000000E+00 -0.44131307542E+03  0.51998212001E+03  0.27499849924E+03 0.  0.
         25    2    3    3    0    0  0.29304482174E+02  0.47276911045E+01 -0.12904481408E+03  0.18208297274E+03  0.12498216346E+03 0.  0.
         25    2    3    3    0    0 -0.29304482174E+02 -0.47276911045E+01 -0.31226826134E+03  0.33789914726E+03  0.12563145682E+03 0.  0.
          5    1    4    4  502    0 -0.36233243133E+01 -0.32297059996E+02  0.10058468150E+02  0.34343723517E+02  0.47000000000E+01 0.  1.
         -5    1    4    4    0  502  0.32927806487E+02  0.37024751101E+02 -0.13910328223E+03  0.14773924923E+03  0.47000000000E+01 0.  1.
          5    1    5    5  503    0  0.10768974000E+02 -0.53974324267E+02 -0.21238940110E+03  0.21945511200E+03  0.47000000000E+01 0. -1.
         -5    1    5    5    0  503 -0.40073456174E+02  0.49246633163E+02 -0.99878860241E+02  0.11844403527E+03  0.47000000000E+01 0. -1.
<mgrwt>
<rscale>  0 0.27499850E+03</rscale>
<asrwt>0</asrwt>
<pdfrwt beam="1">  1        1 0.73945784E-01 0.27499850E+03</pdfrwt>
<pdfrwt beam="2">  1       -1 0.60514650E-02 0.27499850E+03</pdfrwt>
<totfact> 0.62474950E+03</totfact>
</mgrwt>
</event>
<event>
 9    1  0.2114844E-002  0.2745699E+03  0.7818608E-02  0.1098692E+00
         -1   -1    0    0    0  501 -0.00000000000E+00  0.00000000000E+00  0.42551870063E+02  0.42551870063E+02  0.00000000000E+00 0. -1.
          1   -1    0    0  501    0  0.00000000000E+00 -0.00000000000E+00 -0.44292194059E+03  0.44292194059E+03  0.00000000000E+00 0. -1.
         36    2    1    2    0    0  0.00000000000E+00 -0.35527136788E-14 -0.40037007053E+03  0.48547381066E+03  0.27456989539E+03 0.  0.
         25    2    3    3    0    0  0.33671252280E+02  0.16256444720E+02 -0.11752965023E+03  0.17419162262E+03  0.12301007066E+03 0.  0.
         25    2    3    3    0    0 -0.33671252280E+02 -0.16256444720E+02 -0.28284042030E+03  0.31128218804E+03  0.12449848194E+03 0.  0.
          5    1    4    4  502    0 -0.43761146566E+02  0.25253573475E+01 -0.18912808070E+02  0.47970821211E+02  0.47000000000E+01 0.  1.
         -5    1    4    4    0  502  0.77432398846E+02  0.13731087373E+02 -0.98616842158E+02  0.12622080141E+03  0.47000000000E+01 0.  1.
          5    1    5    5  503    0 -0.23412577344E+02 -0.53103658126E+02 -0.54631987639E+02  0.79842916766E+02  0.47000000000E+01 0.  1.
         -5    1    5    5    0  503 -0.10258674936E+02  0.36847213406E+02 -0.22820843266E+03  0.23143927127E+03  0.47000000000E+01 0.  1.
<mgrwt>
<rscale>  0 0.27456990E+03</rscale>
<asrwt>0</asrwt>
<pdfrwt beam="1">  1        1 0.68141834E-01 0.27456990E+03</pdfrwt>
<pdfrwt beam="2">  1       -1 0.65464418E-02 0.27456990E+03</pdfrwt>
<totfact> 0.61738286E+03</totfact>
</mgrwt>
</event>
<event>
 9    1  0.2114844E-002  0.2752569E+03  0.7818608E-02  0.1098308E+00
          2   -1    0    0  501    0  0.00000000000E+00  0.00000000000E+00  0.27362147848E+04  0.27362147848E+04  0.00000000000E+00 0. -1.
         -2   -1    0    0    0  501 -0.00000000000E+00 -0.00000000000E+00 -0.69225517804E+01  0.69225517804E+01  0.00000000000E+00 0. -1.
         36    2    1    2    0    0  0.00000000000E+00  0.00000000000E+00  0.27292922331E+04  0.27431373366E+04  0.27525688751E+03 0.  0.
         25    2    3    3    0    0 -0.47326528759E+02  0.17108241766E+02  0.12163344003E+04  0.12241861719E+04  0.12895703906E+03 0.  0.
         25    2    3    3    0    0  0.47326528759E+02 -0.17108241766E+02  0.15129578328E+04  0.15189511647E+04  0.12505496694E+03 0.  0.
          5    1    4    4  502    0 -0.49758419194E+02 -0.37653334627E+02  0.95884638160E+03  0.96088612613E+03  0.47000000000E+01 0.  1.
         -5    1    4    4    0  502  0.24318904351E+01  0.54761576393E+02  0.25748801868E+03  0.26330004577E+03  0.47000000000E+01 0.  1.
          5    1    5    5  503    0  0.37345531618E+02  0.25185597381E+02  0.13327151917E+04  0.13334844863E+04  0.47000000000E+01 0.  1.
         -5    1    5    5    0  503  0.99809971409E+01 -0.42293839146E+02  0.18024264105E+03  0.18546667837E+03  0.47000000000E+01 0.  1.
<mgrwt>
<rscale>  0 0.27525689E+03</rscale>
<asrwt>0</asrwt>
<pdfrwt beam="1">  1        2 0.42095526E+00 0.27525689E+03</pdfrwt>
<pdfrwt beam="2">  1       -2 0.10650102E-02 0.27525689E+03</pdfrwt>
<totfact> 0.57627712E+03</totfact>
</mgrwt>
</event>
<event>
 9    1  0.2114844E-002  0.2750378E+03  0.7818608E-02  0.1098430E+00
         -2   -1    0    0    0  501 -0.00000000000E+00  0.00000000000E+00  0.12662271792E+02  0.12662271792E+02  0.00000000000E+00 0.  1.
          2   -1    0    0  501    0  0.00000000000E+00 -0.00000000000E+00 -0.14935270381E+04  0.14935270381E+04  0.00000000000E+00 0.  1.
         36    2    1    2    0    0 -0.35527136788E-14  0.71054273576E-14 -0.14808647664E+04  0.15061893099E+04  0.27503778130E+03 0.  0.
         25    2    3    3    0    0  0.27617926922E+02 -0.42856730026E+02 -0.54393892136E+03  0.55931683713E+03  0.11985960507E+03 0.  0.
         25    2    3    3    0    0 -0.27617926922E+02  0.42856730026E+02 -0.93692584499E+03  0.94687247281E+03  0.12703539489E+03 0.  0.
          5    1    4    4  502    0 -0.17400160702E+02 -0.17450986006E+01 -0.42675577301E+03  0.42713977895E+03  0.47000000000E+01 0. -1.
         -5    1    4    4    0  502  0.45018087624E+02 -0.41111631425E+02 -0.11718314835E+03  0.13217705818E+03  0.47000000000E+01 0. -1.
          5    1    5    5  503    0 -0.15085972602E+02 -0.45152974734E+02 -0.33621274009E+03  0.33959899042E+03  0.47000000000E+01 0. -1.
         -5    1    5    5    0  503 -0.12531954320E+02  0.88009704760E+02 -0.60071310490E+03  0.60727348239E+03  0.47000000000E+01 0. -1.
<mgrwt>
<rscale>  0 0.27503778E+03</rscale>
<asrwt>0</asrwt>
<pdfrwt beam="1">  1        2 0.22977350E+00 0.27503778E+03</pdfrwt>
<pdfrwt beam="2">  1       -2 0.19480409E-02 0.27503778E+03</pdfrwt>
<totfact> 0.11052637E+04</totfact>
</mgrwt>
</event>
<event>
 9    1  0.2114844E-002  0.2746883E+03  0.7818608E-02  0.1098626E+00
         -2   -1    0    0    0  501 -0.00000000000E+00  0.00000000000E+00  0.35126803543E+02  0.35126803543E+02  0.00000000000E+00 0.  1.
          2   -1    0    0  501    0  0.00000000000E+00 -0.00000000000E+00 -0.53700929996E+03  0.53700929996E+03  0.00000000000E+00 0.  1.
         36    2    1    2    0    0  0.00000000000E+00  0.00000000000E+00 -0.50188249641E+03  0.57213610350E+03  0.27468833379E+03 0.  0.
         25    2    3    3    0    0  0.15643403206E+02 -0.14570996925E+02 -0.99879986433E+02  0.15014220001E+03  0.11004380272E+03 0.  0.
         25    2    3    3    0    0 -0.15643403206E+02  0.14570996925E+02 -0.40200250998E+03  0.42199390349E+03  0.12655357182E+03 0.  0.
          5    1    4    4  502    0 -0.18850080564E+02 -0.25258323019E+02 -0.10819440189E+03  0.11278930365E+03  0.47000000000E+01 0.  1.
         -5    1    4    4    0  502  0.34493483769E+02  0.10687326093E+02  0.83144154536E+01  0.37352896352E+02  0.47000000000E+01 0.  1.
          5    1    5    5  503    0  0.54251878220E+02  0.91701225602E+01 -0.13395645633E+03  0.14489230356E+03  0.47000000000E+01 0.  1.
         -5    1    5    5    0  503 -0.69895281425E+02  0.54008743651E+01 -0.26804605365E+03  0.27710159993E+03  0.47000000000E+01 0.  1.
<mgrwt>
<rscale>  0 0.27468833E+03</rscale>
<asrwt>0</asrwt>
<pdfrwt beam="1">  1        2 0.82616806E-01 0.27468833E+03</pdfrwt>
<pdfrwt beam="2">  1       -2 0.54041242E-02 0.27468833E+03</pdfrwt>
<totfact> 0.99218271E+03</totfact>
</mgrwt>
</event>
<event>
 9    1  0.2114844E-002  0.2748024E+03  0.7818608E-02  0.1098562E+00
         -1   -1    0    0    0  501 -0.00000000000E+00  0.00000000000E+00  0.35525567484E+02  0.35525567484E+02  0.00000000000E+00 0.  1.
          1   -1    0    0  501    0  0.00000000000E+00 -0.00000000000E+00 -0.53142260214E+03  0.53142260214E+03  0.00000000000E+00 0.  1.
         36    2    1    2    0    0  0.14210854715E-13  0.00000000000E+00 -0.49589703465E+03  0.56694816962E+03  0.27480239821E+03 0.  0.
         25    2    3    3    0    0  0.51074801784E+02  0.20483502877E+02 -0.23206357214E+03  0.27043989291E+03  0.12749911724E+03 0.  0.
         25    2    3    3    0    0 -0.51074801784E+02 -0.20483502877E+02 -0.26383346252E+03  0.29650827671E+03  0.12361574717E+03 0.  0.
          5    1    4    4  502    0  0.20049511946E+02 -0.33853574483E+02 -0.19188023782E+03  0.19592897464E+03  0.47000000000E+01 0. -1.
         -5    1    4    4    0  502  0.31025289838E+02  0.54337077359E+02 -0.40183334313E+02  0.74510918273E+02  0.47000000000E+01 0. -1.
          5    1    5    5  503    0 -0.57618551152E+02  0.15410990096E+02 -0.45677467524E+02  0.75272286347E+02  0.47000000000E+01 0. -1.
         -5    1    5    5    0  503  0.65437493683E+01 -0.35894492973E+02 -0.21815599499E+03  0.22123599036E+03  0.47000000000E+01 0. -1.
<mgrwt>
<rscale>  0 0.27480240E+03</rscale>
<asrwt>0</asrwt>
<pdfrwt beam="1">  1        1 0.81757323E-01 0.27480240E+03</pdfrwt>
<pdfrwt beam="2">  1       -1 0.54654719E-02 0.27480240E+03</pdfrwt>
<totfact> 0.63711430E+03</totfact>
</mgrwt>
</event>
<event>
 9    1  0.2114844E-002  0.2752348E+03  0.7818608E-02  0.1098320E+00
         -2   -1    0    0    0  501 -0.00000000000E+00  0.00000000000E+00  0.54638614289E+01  0.54638614289E+01  0.00000000000E+00 0. -1.
          2   -1    0    0  501    0  0.00000000000E+00 -0.00000000000E+00 -0.34661481229E+04  0.34661481229E+04  0.00000000000E+00 0. -1.
         36    2    1    2    0    0  0.00000000000E+00 -0.71054273576E-14 -0.34606842615E+04  0.34716119843E+04  0.27523483090E+03 0.  0.
         25    2    3    3    0    0 -0.44698562816E+02 -0.51360218566E+02 -0.17515808202E+04  0.17565398957E+04  0.11296549039E+03 0.  0.
         25    2    3    3    0    0  0.44698562816E+02  0.51360218566E+02 -0.17091034413E+04  0.17150720887E+04  0.12570545958E+03 0.  0.
          5    1    4    4  502    0  0.20792987300E+02  0.18590943448E+02 -0.70610079561E+03  0.70666710342E+03  0.47000000000E+01 0. -1.
         -5    1    4    4    0  502 -0.65491550116E+02 -0.69951162014E+02 -0.10454800245E+04  0.10498727923E+04  0.47000000000E+01 0. -1.
          5    1    5    5  503    0  0.21188960259E+02  0.28449725661E+02 -0.16132070791E+04  0.16136038947E+04  0.47000000000E+01 0. -1.
         -5    1    5    5    0  503  0.23509602557E+02  0.22910492904E+02 -0.95896362274E+02  0.10146819401E+03  0.47000000000E+01 0. -1.
<mgrwt>
<rscale>  0 0.27523483E+03</rscale>
<asrwt>0</asrwt>
<pdfrwt beam="1">  1        2 0.53325247E+00 0.27523483E+03</pdfrwt>
<pdfrwt beam="2">  1       -2 0.84059577E-03 0.27523483E+03</pdfrwt>
<totfact> 0.29288830E+03</totfact>
</mgrwt>
</event>
<event>
 9    1  0.2114844E-002  0.2759830E+03  0.7818608E-02  0.1097903E+00
          1   -1    0    0  501    0  0.00000000000E+00  0.00000000000E+00  0.20170495045E+03  0.20170495045E+03  0.00000000000E+00 0. -1.
         -1   -1    0    0    0  501 -0.00000000000E+00 -0.00000000000E+00 -0.94403531368E+02  0.94403531368E+02  0.00000000000E+00 0. -1.
         36    2    1    2    0    0  0.71054273576E-14  0.00000000000E+00  0.10730141908E+03  0.29610848182E+03  0.27598304018E+03 0.  0.
         25    2    3    3    0    0 -0.28386786249E+02 -0.53915658223E+02  0.42044417315E+02  0.14488063943E+03  0.12453898514E+03 0.  0.
         25    2    3    3    0    0  0.28386786249E+02  0.53915658223E+02  0.65257001766E+02  0.15122784238E+03  0.12206013353E+03 0.  0.
          5    1    4    4  502    0  0.21855011622E+00 -0.59593283421E+00  0.75453298388E+02  0.75602203260E+02  0.47000000000E+01 0. -1.
         -5    1    4    4    0  502 -0.28605336365E+02 -0.53319725389E+02 -0.33408881073E+02  0.69278436174E+02  0.47000000000E+01 0. -1.
          5    1    5    5  503    0 -0.35836885988E+01  0.96138884188E+01 -0.35098625138E+02  0.36868321919E+02  0.47000000000E+01 0. -1.
         -5    1    5    5    0  503  0.31970474848E+02  0.44301769804E+02  0.10035562690E+03  0.11435952047E+03  0.47000000000E+01 0. -1.
<mgrwt>
<rscale>  0 0.27598304E+03</rscale>
<asrwt>0</asrwt>
<pdfrwt beam="1">  1        1 0.31031531E-01 0.27598304E+03</pdfrwt>
<pdfrwt beam="2">  1       -1 0.14523620E-01 0.27598304E+03</pdfrwt>
<totfact> 0.48775511E+03</totfact>
</mgrwt>
</event>
<event>
 9    1  0.2114844E-002  0.2784338E+03  0.7818608E-02  0.1096547E+00
         -1   -1    0    0    0  501 -0.00000000000E+00  0.00000000000E+00  0.29620404078E+02  0.29620404078E+02  0.00000000000E+00 0.  1.
          1   -1    0    0  501    0  0.00000000000E+00 -0.00000000000E+00 -0.65432430119E+03  0.65432430119E+03  0.00000000000E+00 0.  1.
         36    2    1    2    0    0  0.00000000000E+00  0.00000000000E+00 -0.62470389711E+03  0.68394470527E+03  0.27843383558E+03 0.  0.
         25    2    3    3    0    0  0.24450116390E+02  0.53027482608E+02 -0.27274840798E+03  0.30657789945E+03  0.12723439892E+03 0.  0.
         25    2    3    3    0    0 -0.24450116390E+02 -0.53027482608E+02 -0.35195548913E+03  0.37736680582E+03  0.12297689906E+03 0.  0.
          5    1    4    4  502    0 -0.23229232324E+02  0.71051354484E+02 -0.91535714546E+02  0.11827412754E+03  0.47000000000E+01 0.  1.
         -5    1    4    4    0  502  0.47679348714E+02 -0.18023871877E+02 -0.18121269344E+03  0.18830377191E+03  0.47000000000E+01 0.  1.
          5    1    5    5  503    0 -0.63817150130E+02 -0.53113889462E+02 -0.30387188759E+03  0.31504591407E+03  0.47000000000E+01 0. -1.
         -5    1    5    5    0  503  0.39367033740E+02  0.86406854854E-01 -0.48083601542E+02  0.62320891753E+02  0.47000000000E+01 0. -1.
<mgrwt>
<rscale>  0 0.27843384E+03</rscale>
<asrwt>0</asrwt>
<pdfrwt beam="1">  1        1 0.10066527E+00 0.27843384E+03</pdfrwt>
<pdfrwt beam="2">  1       -1 0.45569855E-02 0.27843384E+03</pdfrwt>
<totfact> 0.62754783E+03</totfact>
</mgrwt>
</event>
<event>
 9    1  0.2114844E-002  0.2751530E+03  0.7818608E-02  0.1098366E+00
         -2   -1    0    0    0  501 -0.00000000000E+00  0.00000000000E+00  0.20095306596E+02  0.20095306596E+02  0.00000000000E+00 0. -1.
          2   -1    0    0  501    0  0.00000000000E+00 -0.00000000000E+00 -0.94187611232E+03  0.94187611232E+03  0.00000000000E+00 0. -1.
         36    2    1    2    0    0  0.00000000000E+00 -0.44408920985E-15 -0.92178080573E+03  0.96197141892E+03  0.27515297020E+03 0.  0.
         25    2    3    3    0    0  0.57316080648E+02  0.20571274083E+01 -0.48089621761E+03  0.50029110265E+03  0.12546174877E+03 0.  0.
         25    2    3    3    0    0 -0.57316080648E+02 -0.20571274083E+01 -0.44088458811E+03  0.46168031626E+03  0.12441916861E+03 0.  0.
          5    1    4    4  502    0  0.55167125228E+02  0.44849593145E+01 -0.48801450642E+03  0.49116573073E+03  0.47000000000E+01 0.  1.
         -5    1    4    4    0  502  0.21489554206E+01 -0.24278319062E+01  0.71182888084E+01  0.91253719225E+01  0.47000000000E+01 0.  1.
          5    1    5    5  503    0 -0.70881692478E+02  0.25852532631E+01 -0.44089808151E+03  0.44659165480E+03  0.47000000000E+01 0. -1.
         -5    1    5    5    0  503  0.13565611830E+02 -0.46423806714E+01  0.13493394584E-01  0.15088661461E+02  0.47000000000E+01 0. -1.
<mgrwt>
<rscale>  0 0.27515297E+03</rscale>
<asrwt>0</asrwt>
<pdfrwt beam="1">  1        2 0.14490400E+00 0.27515297E+03</pdfrwt>
<pdfrwt beam="2">  1       -2 0.30915860E-02 0.27515297E+03</pdfrwt>
<totfact> 0.11530130E+04</totfact>
</mgrwt>
</event>
<event>
 9    1  0.2114844E-002  0.2760129E+03  0.7818608E-02  0.1097887E+00
         -2   -1    0    0    0  501 -0.00000000000E+00  0.00000000000E+00  0.90422920246E+01  0.90422920246E+01  0.00000000000E+00 0. -1.
          2   -1    0    0  501    0  0.00000000000E+00 -0.00000000000E+00 -0.21063006820E+04  0.21063006820E+04  0.00000000000E+00 0. -1.
         36    2    1    2    0    0  0.00000000000E+00 -0.17763568394E-14 -0.20972583899E+04  0.21153429740E+04  0.27601294070E+03 0.  0.
         25    2    3    3    0    0  0.18653217707E+02  0.56668754315E+01 -0.13529534949E+04  0.13598357749E+04  0.13524096740E+03 0.  0.
         25    2    3    3    0    0 -0.18653217707E+02 -0.56668754315E+01 -0.74430489503E+03  0.75550719910E+03  0.12814560126E+03 0.  0.
          5    1    4    4  502    0  0.75028675912E+01 -0.46692432020E+02 -0.19765634939E+03  0.20328944558E+03  0.47000000000E+01 0. -1.
         -5    1    4    4    0  502  0.11150350116E+02  0.52359307451E+02 -0.11552971455E+04  0.11565463293E+04  0.47000000000E+01 0. -1.
          5    1    5    5  503    0  0.49506608801E+02  0.27647091863E+01 -0.47259884263E+03  0.47521606032E+03  0.47000000000E+01 0.  1.
         -5    1    5    5    0  503 -0.68159826508E+02 -0.84315846178E+01 -0.27170605239E+03  0.28029113877E+03  0.47000000000E+01 0.  1.
<mgrwt>
<rscale>  0 0.27601294E+03</rscale>
<asrwt>0</asrwt>
<pdfrwt beam="1">  1        2 0.32404623E+00 0.27601294E+03</pdfrwt>
<pdfrwt beam="2">  1       -2 0.13911220E-02 0.27601294E+03</pdfrwt>
<totfact> 0.86016745E+03</totfact>
</mgrwt>
</event>
<event>
 9    1  0.2114844E-002  0.2759937E+03  0.7818608E-02  0.1097897E+00
          2   -1    0    0  501    0  0.00000000000E+00  0.00000000000E+00  0.12289886271E+03  0.12289886271E+03  0.00000000000E+00 0.  1.
         -2   -1    0    0    0  501 -0.00000000000E+00 -0.00000000000E+00 -0.15494965672E+03  0.15494965672E+03  0.00000000000E+00 0.  1.
         36    2    1    2    0    0  0.71054273576E-14  0.00000000000E+00 -0.32050794006E+02  0.27784851942E+03  0.27599374332E+03 0.  0.
         25    2    3    3    0    0  0.14184362983E+02  0.54604274239E+02  0.17501242950E+02  0.13137188298E+03  0.11734332199E+03 0.  0.
         25    2    3    3    0    0 -0.14184362983E+02 -0.54604274239E+02 -0.49552036956E+02  0.14647663644E+03  0.12576636171E+03 0.  0.
          5    1    4    4  502    0 -0.38628474116E+02  0.26522425568E+02  0.45212246251E+02  0.65282733411E+02  0.47000000000E+01 0. -1.
         -5    1    4    4    0  502  0.52812837099E+02  0.28081848671E+02 -0.27711003301E+02  0.66089149572E+02  0.47000000000E+01 0. -1.
          5    1    5    5  503    0  0.28451544163E+01 -0.44451520094E+02 -0.90367210961E+02  0.10085809516E+03  0.47000000000E+01 0. -1.
         -5    1    5    5    0  503 -0.17029517399E+02 -0.10152754145E+02  0.40815174006E+02  0.45618541282E+02  0.47000000000E+01 0. -1.
<mgrwt>
<rscale>  0 0.27599374E+03</rscale>
<asrwt>0</asrwt>
<pdfrwt beam="1">  1        2 0.18907517E-01 0.27599374E+03</pdfrwt>
<pdfrwt beam="2">  1       -2 0.23838409E-01 0.27599374E+03</pdfrwt>
<totfact> 0.45563363E+03</totfact>
</mgrwt>
</event>
<event>
 8    1  0.2114844E-002  0.3111527E+03  0.7818608E-02  0.1079795E+00
         -2   -1    0    0    0  501 -0.00000000000E+00  0.00000000000E+00  0.12590419816E+03  0.12590419816E+03  0.00000000000E+00 0.  1.
          2   -1    0    0  501    0  0.00000000000E+00 -0.00000000000E+00 -0.19224137435E+03  0.19224137435E+03  0.00000000000E+00 0.  1.
         25    2    1    2    0    0  0.82820960991E+02  0.27746370280E+02 -0.49773845666E+02  0.16453991095E+03  0.13025656967E+03 0.  0.
         25    2    1    2    0    0 -0.82820960991E+02 -0.27746370280E+02 -0.16563330528E+02  0.15360566156E+03  0.12526445107E+03 0.  0.
          5    1    3    3  502    0  0.83994142172E+02 -0.29563407837E+02 -0.58098826472E+02  0.10642638131E+03  0.47000000000E+01 0.  1.
         -5    1    3    3    0  502 -0.11731811814E+01  0.57309778117E+02  0.83249808056E+01  0.58113529641E+02  0.47000000000E+01 0.  1.
          5    1    4    4  503    0 -0.81721145465E+01  0.13977917759E+00 -0.61352620323E+02  0.62072836368E+02  0.47000000000E+01 0.  1.
         -5    1    4    4    0  503 -0.74648846444E+02 -0.27886149458E+02  0.44789289795E+02  0.91532825190E+02  0.47000000000E+01 0.  1.
<mgrwt>
<rscale>  0 0.31115267E+03</rscale>
<asrwt>0</asrwt>
<pdfrwt beam="1">  1        2 0.29575596E-01 0.31115267E+03</pdfrwt>
<pdfrwt beam="2">  1       -2 0.19369877E-01 0.31115267E+03</pdfrwt>
<totfact> 0.39550572E+03</totfact>
</mgrwt>
</event>
<event>
 9    1  0.2114844E-002  0.2749311E+03  0.7818608E-02  0.1098490E+00
         -1   -1    0    0    0  501 -0.00000000000E+00  0.00000000000E+00  0.51236969115E+02  0.51236969115E+02  0.00000000000E+00 0.  1.
          1   -1    0    0  501    0  0.00000000000E+00 -0.00000000000E+00 -0.36881149652E+03  0.36881149652E+03  0.00000000000E+00 0.  1.
         36    2    1    2    0    0  0.00000000000E+00 -0.71054273576E-14 -0.31757452741E+03  0.42004846564E+03  0.27493114234E+03 0.  0.
         25    2    3    3    0    0  0.14657506231E+02 -0.50363292660E+02 -0.16052804926E+03  0.20901385123E+03  0.12315125525E+03 0.  0.
         25    2    3    3    0    0 -0.14657506231E+02  0.50363292660E+02 -0.15704647815E+03  0.21103461441E+03  0.13084612506E+03 0.  0.
          5    1    4    4  502    0 -0.29543953730E+02  0.16078742659E+02 -0.10835959804E+03  0.11355731440E+03  0.47000000000E+01 0.  1.
         -5    1    4    4    0  502  0.44201459961E+02 -0.66442035320E+02 -0.52168451221E+02  0.95456536826E+02  0.47000000000E+01 0.  1.
          5    1    5    5  503    0  0.25264385009E+02  0.76828035483E+02 -0.13644671205E+03  0.15868406163E+03  0.47000000000E+01 0. -1.
         -5    1    5    5    0  503 -0.39921891240E+02 -0.26464742823E+02 -0.20599766100E+02  0.52350552778E+02  0.47000000000E+01 0. -1.
<mgrwt>
<rscale>  0 0.27493114E+03</rscale>
<asrwt>0</asrwt>
<pdfrwt beam="1">  1        1 0.56740232E-01 0.27493114E+03</pdfrwt>
<pdfrwt beam="2">  1       -1 0.78826104E-02 0.27493114E+03</pdfrwt>
<totfact> 0.58906154E+03</totfact>
</mgrwt>
</event>
<event>
 9    1  0.2114844E-002  0.2757966E+03  0.7818608E-02  0.1098007E+00
          1   -1    0    0  501    0  0.00000000000E+00  0.00000000000E+00  0.64526215100E+02  0.64526215100E+02  0.00000000000E+00 0. -1.
         -1   -1    0    0    0  501 -0.00000000000E+00 -0.00000000000E+00 -0.29470091906E+03  0.29470091906E+03  0.00000000000E+00 0. -1.
         36    2    1    2    0    0  0.00000000000E+00 -0.35527136788E-14 -0.23017470396E+03  0.35922713416E+03  0.27579655468E+03 0.  0.
         25    2    3    3    0    0 -0.64951652298E+02 -0.10688239303E+02 -0.68043796112E+02  0.14960072259E+03  0.11583377062E+03 0.  0.
         25    2    3    3    0    0  0.64951652298E+02  0.10688239303E+02 -0.16213090785E+03  0.20962641157E+03  0.11542896323E+03 0.  0.
          5    1    4    4  502    0 -0.96708975417E+02  0.71697246569E+00 -0.37465034203E+02  0.10382128281E+03  0.47000000000E+01 0. -1.
         -5    1    4    4    0  502  0.31757323119E+02 -0.11405211769E+02 -0.30578761909E+02  0.45779439785E+02  0.47000000000E+01 0. -1.
          5    1    5    5  503    0  0.54735731982E+02 -0.20248345436E+02 -0.16643124928E+03  0.17642972138E+03  0.47000000000E+01 0. -1.
         -5    1    5    5    0  503  0.10215920316E+02  0.30936584739E+02  0.43003414312E+01  0.33196690191E+02  0.47000000000E+01 0. -1.
<mgrwt>
<rscale>  0 0.27579655E+03</rscale>
<asrwt>0</asrwt>
<pdfrwt beam="1">  1        1 0.99271100E-02 0.27579655E+03</pdfrwt>
<pdfrwt beam="2">  1       -1 0.45338603E-01 0.27579655E+03</pdfrwt>
<totfact> 0.31765267E+03</totfact>
</mgrwt>
</event>
<event>
 9    1  0.2114844E-002  0.2763236E+03  0.7818608E-02  0.1097714E+00
          4   -1    0    0  501    0  0.00000000000E+00  0.00000000000E+00  0.51217006768E+02  0.51217006768E+02  0.00000000000E+00 0.  1.
         -4   -1    0    0    0  501 -0.00000000000E+00 -0.00000000000E+00 -0.37270217543E+03  0.37270217543E+03  0.00000000000E+00 0.  1.
         36    2    1    2    0    0  0.00000000000E+00 -0.35527136788E-14 -0.32148516866E+03  0.42391918219E+03  0.27632364967E+03 0.  0.
         25    2    3    3    0    0  0.49000382199E+02  0.38056414485E+01 -0.10808930039E+03  0.17233923364E+03  0.12490794302E+03 0.  0.
         25    2    3    3    0    0 -0.49000382199E+02 -0.38056414485E+01 -0.21339586827E+03  0.25157994856E+03  0.12385133652E+03 0.  0.
          5    1    4    4  502    0 -0.79739225987E+00 -0.25528599729E+02 -0.11127521747E+03  0.11426552087E+03  0.47000000000E+01 0. -1.
         -5    1    4    4    0  502  0.49797774459E+02  0.29334241178E+02  0.31859170780E+01  0.58073712764E+02  0.47000000000E+01 0. -1.
          5    1    5    5  503    0 -0.67306020501E+02  0.42359633347E+02 -0.15856658637E+03  0.17745391302E+03  0.47000000000E+01 0.  1.
         -5    1    5    5    0  503  0.18305638301E+02 -0.46165274796E+02 -0.54829281898E+02  0.74126035534E+02  0.47000000000E+01 0.  1.
<mgrwt>
<rscale>  0 0.27632365E+03</rscale>
<asrwt>0</asrwt>
<pdfrwt beam="1">  1        4 0.78795400E-02 0.27632365E+03</pdfrwt>
<pdfrwt beam="2">  1       -4 0.57338793E-01 0.27632365E+03</pdfrwt>
<totfact> 0.61994356E+02</totfact>
</mgrwt>
</event>
<event>
 9    1  0.2114844E-002  0.2743252E+03  0.7818608E-02  0.1098829E+00
          1   -1    0    0  501    0  0.00000000000E+00  0.00000000000E+00  0.52413181496E+02  0.52413181496E+02  0.00000000000E+00 0.  1.
         -1   -1    0    0    0  501 -0.00000000000E+00 -0.00000000000E+00 -0.35894743073E+03  0.35894743073E+03  0.00000000000E+00 0.  1.
         36    2    1    2    0    0 -0.35527136788E-14  0.71054273576E-14 -0.30653424923E+03  0.41136061222E+03  0.27432518538E+03 0.  0.
         25    2    3    3    0    0  0.10554422790E+02 -0.53540328290E+02 -0.17597152146E+03  0.22212404411E+03  0.12407720183E+03 0.  0.
         25    2    3    3    0    0 -0.10554422790E+02  0.53540328290E+02 -0.13056272777E+03  0.18923656811E+03  0.12564191272E+03 0.  0.
          5    1    4    4  502    0  0.39774412434E+02 -0.61748655137E+02 -0.42132825638E+02  0.84806634716E+02  0.47000000000E+01 0.  1.
         -5    1    4    4    0  502 -0.29219989644E+02  0.82083268469E+01 -0.13383869582E+03  0.13731740940E+03  0.47000000000E+01 0.  1.
          5    1    5    5  503    0 -0.41467508651E+02  0.49849615425E+02 -0.14164938664E+03  0.15585627087E+03  0.47000000000E+01 0.  1.
         -5    1    5    5    0  503  0.30913085861E+02  0.36907128648E+01  0.11086658874E+02  0.33380297241E+02  0.47000000000E+01 0.  1.
<mgrwt>
<rscale>  0 0.27432519E+03</rscale>
<asrwt>0</asrwt>
<pdfrwt beam="1">  1        1 0.80635669E-02 0.27432519E+03</pdfrwt>
<pdfrwt beam="2">  1       -1 0.55222678E-01 0.27432519E+03</pdfrwt>
<totfact> 0.29210086E+03</totfact>
</mgrwt>
</event>
<event>
 9    1  0.2114844E-002  0.2753130E+03  0.7818608E-02  0.1098277E+00
         -1   -1    0    0    0  501 -0.00000000000E+00  0.00000000000E+00  0.90819951402E+02  0.90819951402E+02  0.00000000000E+00 0.  1.
          1   -1    0    0  501    0  0.00000000000E+00 -0.00000000000E+00 -0.20864702296E+03  0.20864702296E+03  0.00000000000E+00 0.  1.
         36    2    1    2    0    0  0.00000000000E+00  0.00000000000E+00 -0.11782707155E+03  0.29946697436E+03  0.27531300358E+03 0.  0.
         25    2    3    3    0    0  0.50564118133E+01 -0.53484480384E+02 -0.82716842266E+02  0.15823671648E+03  0.12373611237E+03 0.  0.
         25    2    3    3    0    0 -0.50564118133E+01  0.53484480384E+02 -0.35110229288E+02  0.14123025788E+03  0.12580580510E+03 0.  0.
          5    1    4    4  502    0  0.52234618729E+02 -0.67216568090E+02 -0.57243303016E+02  0.10269083776E+03  0.47000000000E+01 0. -1.
         -5    1    4    4    0  502 -0.47178206916E+02  0.13732087706E+02 -0.25473539249E+02  0.55545878717E+02  0.47000000000E+01 0. -1.
          5    1    5    5  503    0 -0.31559420652E+02  0.35013510478E+00 -0.66604246899E+02  0.73853472034E+02  0.47000000000E+01 0. -1.
         -5    1    5    5    0  503  0.26503008839E+02  0.53134345279E+02  0.31494017611E+02  0.67376785847E+02  0.47000000000E+01 0. -1.
<mgrwt>
<rscale>  0 0.27531300E+03</rscale>
<asrwt>0</asrwt>
<pdfrwt beam="1">  1        1 0.32099542E-01 0.27531300E+03</pdfrwt>
<pdfrwt beam="2">  1       -1 0.13972300E-01 0.27531300E+03</pdfrwt>
<totfact> 0.49684734E+03</totfact>
</mgrwt>
</event>
<event>
 9    1  0.2114844E-002  0.2786202E+03  0.7818608E-02  0.1096445E+00
         -4   -1    0    0    0  501 -0.00000000000E+00  0.00000000000E+00  0.26150440792E+03  0.26150440792E+03  0.00000000000E+00 0. -1.
          4   -1    0    0  501    0  0.00000000000E+00 -0.00000000000E+00 -0.74214064256E+02  0.74214064256E+02  0.00000000000E+00 0. -1.
         36    2    1    2    0    0 -0.35527136788E-14  0.00000000000E+00  0.18729034366E+03  0.33571847218E+03  0.27862020697E+03 0.  0.
         25    2    3    3    0    0 -0.90962859838E+01 -0.45345313102E+02  0.14359613838E+03  0.19556367507E+03  0.12444420521E+03 0.  0.
         25    2    3    3    0    0  0.90962859838E+01  0.45345313102E+02  0.43694205285E+02  0.14015479710E+03  0.12488091823E+03 0.  0.
          5    1    4    4  502    0  0.39545106864E+02  0.50129590428E+01  0.53033981734E+01  0.40486556626E+02  0.47000000000E+01 0. -1.
         -5    1    4    4    0  502 -0.48641392848E+02 -0.50358272145E+02  0.13829274021E+03  0.15507711845E+03  0.47000000000E+01 0. -1.
          5    1    5    5  503    0  0.10895085745E+02  0.36413681202E+02  0.87315292344E+02  0.95345211464E+02  0.47000000000E+01 0.  1.
         -5    1    5    5    0  503 -0.17987997609E+01  0.89316318998E+01 -0.43621087059E+02  0.44809585640E+02  0.47000000000E+01 0.  1.
<mgrwt>
<rscale>  0 0.27862021E+03</rscale>
<asrwt>0</asrwt>
<pdfrwt beam="1">  1        4 0.11417548E-01 0.27862021E+03</pdfrwt>
<pdfrwt beam="2">  1       -4 0.40231447E-01 0.27862021E+03</pdfrwt>
<totfact> 0.68359021E+02</totfact>
</mgrwt>
</event>
<event>
 9    1  0.2114844E-002  0.2748061E+03  0.7818608E-02  0.1098560E+00
         -2   -1    0    0    0  501 -0.00000000000E+00  0.00000000000E+00  0.59503030237E+01  0.59503030237E+01  0.00000000000E+00 0.  1.
          2   -1    0    0  501    0  0.00000000000E+00 -0.00000000000E+00 -0.31728793456E+04  0.31728793456E+04  0.00000000000E+00 0.  1.
         36    2    1    2    0    0  0.00000000000E+00 -0.71054273576E-14 -0.31669290426E+04  0.31788296486E+04  0.27480606663E+03 0.  0.
         25    2    3    3    0    0 -0.25555233751E+02  0.22980690790E+02 -0.10833898418E+04  0.10912634875E+04  0.12625873344E+03 0.  0.
         25    2    3    3    0    0  0.25555233751E+02 -0.22980690790E+02 -0.20835392008E+04  0.20875661611E+04  0.12496276912E+03 0.  0.
          5    1    4    4  502    0 -0.34862840991E+02 -0.22746637456E+02 -0.92811533470E+03  0.92906027345E+03  0.47000000000E+01 0.  1.
         -5    1    4    4    0  502  0.93076072402E+01  0.45727328246E+02 -0.15527450706E+03  0.16220321404E+03  0.47000000000E+01 0.  1.
          5    1    5    5  503    0 -0.28677589989E+02 -0.44692008646E+02 -0.15309490441E+04  0.15318769029E+04  0.47000000000E+01 0.  1.
         -5    1    5    5    0  503  0.54232823740E+02  0.21711317856E+02 -0.55259015664E+03  0.55568925823E+03  0.47000000000E+01 0.  1.
<mgrwt>
<rscale>  0 0.27480607E+03</rscale>
<asrwt>0</asrwt>
<pdfrwt beam="1">  1        2 0.48813645E+00 0.27480607E+03</pdfrwt>
<pdfrwt beam="2">  1       -2 0.91542905E-03 0.27480607E+03</pdfrwt>
<totfact> 0.39727139E+03</totfact>
</mgrwt>
</event>
<event>
 9    1  0.2114844E-002  0.2724820E+03  0.7818608E-02  0.1099867E+00
          2   -1    0    0  501    0  0.00000000000E+00  0.00000000000E+00  0.67153574478E+02  0.67153574478E+02  0.00000000000E+00 0.  1.
         -2   -1    0    0    0  501 -0.00000000000E+00 -0.00000000000E+00 -0.27640536291E+03  0.27640536291E+03  0.00000000000E+00 0.  1.
         36    2    1    2    0    0  0.10658141036E-13 -0.35527136788E-14 -0.20925178843E+03  0.34355893739E+03  0.27248198564E+03 0.  0.
         25    2    3    3    0    0 -0.28277637317E+02 -0.31034746983E+02 -0.67163637871E+02  0.14805996292E+03  0.12509203842E+03 0.  0.
         25    2    3    3    0    0  0.28277637317E+02  0.31034746983E+02 -0.14208815056E+03  0.19549897447E+03  0.12754617280E+03 0.  0.
          5    1    4    4  502    0 -0.68814256110E+02 -0.47913174473E+02 -0.26595489626E+02  0.88093610441E+02  0.47000000000E+01 0.  1.
         -5    1    4    4    0  502  0.40536618793E+02  0.16878427490E+02 -0.40568148246E+02  0.59966352480E+02  0.47000000000E+01 0.  1.
          5    1    5    5  503    0 -0.18425584186E+02 -0.41834822491E+02 -0.64301271436E+02  0.79034157386E+02  0.47000000000E+01 0. -1.
         -5    1    5    5    0  503  0.46703221504E+02  0.72869569474E+02 -0.77786879127E+02  0.11646481708E+03  0.47000000000E+01 0. -1.
<mgrwt>
<rscale>  0 0.27248199E+03</rscale>
<asrwt>0</asrwt>
<pdfrwt beam="1">  1        2 0.10331319E-01 0.27248199E+03</pdfrwt>
<pdfrwt beam="2">  1       -2 0.42523902E-01 0.27248199E+03</pdfrwt>
<totfact> 0.32401793E+03</totfact>
</mgrwt>
</event>
<event>
 9    1  0.2114844E-002  0.2821860E+03  0.7818608E-02  0.1094501E+00
          2   -1    0    0  501    0  0.00000000000E+00  0.00000000000E+00  0.29422356922E+03  0.29422356922E+03  0.00000000000E+00 0.  1.
         -2   -1    0    0    0  501 -0.00000000000E+00 -0.00000000000E+00 -0.67660215161E+02  0.67660215161E+02  0.00000000000E+00 0.  1.
         36    2    1    2    0    0  0.71054273576E-14  0.00000000000E+00  0.22656335406E+03  0.36188378438E+03  0.28218596704E+03 0.  0.
         25    2    3    3    0    0 -0.17592450728E+02 -0.58098854419E+02  0.81883461852E+02  0.16008638297E+03  0.12344139289E+03 0.  0.
         25    2    3    3    0    0  0.17592450728E+02  0.58098854419E+02  0.14467989221E+03  0.20179740141E+03  0.12690527491E+03 0.  0.
          5    1    4    4  502    0 -0.61936263671E+02  0.11741597142E+01  0.26618142847E+02  0.67587683325E+02  0.47000000000E+01 0.  1.
         -5    1    4    4    0  502  0.44343812944E+02 -0.59273014133E+02  0.55265319005E+02  0.92498699642E+02  0.47000000000E+01 0.  1.
          5    1    5    5  503    0  0.63032278812E+01 -0.35653142174E+02  0.77943001204E+02  0.86070196150E+02  0.47000000000E+01 0. -1.
         -5    1    5    5    0  503  0.11289222847E+02  0.93751996593E+02  0.66736891003E+02  0.11572720526E+03  0.47000000000E+01 0. -1.
<mgrwt>
<rscale>  0 0.28218597E+03</rscale>
<asrwt>0</asrwt>
<pdfrwt beam="1">  1        2 0.45265164E-01 0.28218597E+03</pdfrwt>
<pdfrwt beam="2">  1       -2 0.10409264E-01 0.28218597E+03</pdfrwt>
<totfact> 0.69073232E+03</totfact>
</mgrwt>
</event>
<event>
 9    1  0.2114844E-002  0.2749865E+03  0.7818608E-02  0.1098459E+00
         -2   -1    0    0    0  501 -0.00000000000E+00  0.00000000000E+00  0.37871185915E+02  0.37871185915E+02  0.00000000000E+00 0. -1.
          2   -1    0    0  501    0  0.00000000000E+00 -0.00000000000E+00 -0.49917628500E+03  0.49917628500E+03  0.00000000000E+00 0. -1.
         36    2    1    2    0    0 -0.14210854715E-13  0.00000000000E+00 -0.46130509908E+03  0.53704747091E+03  0.27498652980E+03 0.  0.
         25    2    3    3    0    0  0.38572666501E+02  0.16829534663E+02 -0.19373104645E+03  0.23569959994E+03  0.12748136811E+03 0.  0.
         25    2    3    3    0    0 -0.38572666501E+02 -0.16829534663E+02 -0.26757405263E+03  0.30134787097E+03  0.13207415288E+03 0.  0.
          5    1    4    4  502    0 -0.17353110197E+02  0.53477051830E+02 -0.13599511680E+03  0.14723344491E+03  0.47000000000E+01 0.  1.
         -5    1    4    4    0  502  0.55925776698E+02 -0.36647517167E+02 -0.57735929647E+02  0.88466155031E+02  0.47000000000E+01 0.  1.
          5    1    5    5  503    0  0.38678835663E+02 -0.35759859729E+02 -0.65843320934E+02  0.84452666078E+02  0.47000000000E+01 0.  1.
         -5    1    5    5    0  503 -0.77251502164E+02  0.18930325067E+02 -0.20173073170E+03  0.21689520489E+03  0.47000000000E+01 0.  1.
<mgrwt>
<rscale>  0 0.27498653E+03</rscale>
<asrwt>0</asrwt>
<pdfrwt beam="1">  1        2 0.76796352E-01 0.27498653E+03</pdfrwt>
<pdfrwt beam="2">  1       -2 0.58263362E-02 0.27498653E+03</pdfrwt>
<totfact> 0.96026740E+03</totfact>
</mgrwt>
</event>
<event>
 9    1  0.2114844E-002  0.2754493E+03  0.7818608E-02  0.1098201E+00
          2   -1    0    0  501    0  0.00000000000E+00  0.00000000000E+00  0.86222050326E+03  0.86222050326E+03  0.00000000000E+00 0.  1.
         -2   -1    0    0    0  501 -0.00000000000E+00 -0.00000000000E+00 -0.21999099972E+02  0.21999099972E+02  0.00000000000E+00 0.  1.
         36    2    1    2    0    0 -0.71054273576E-14  0.71054273576E-14  0.84022140329E+03  0.88421960323E+03  0.27544926973E+03 0.  0.
         25    2    3    3    0    0 -0.39221775656E+02  0.18665210009E+02  0.56383353312E+03  0.57929214811E+03  0.12563599023E+03 0.  0.
         25    2    3    3    0    0  0.39221775656E+02 -0.18665210009E+02  0.27638787017E+03  0.30492745512E+03  0.12125906300E+03 0.  0.
          5    1    4    4  502    0 -0.22262780581E+02  0.55409531909E+02  0.49993390495E+03  0.50350953014E+03  0.47000000000E+01 0. -1.
         -5    1    4    4    0  502 -0.16958995075E+02 -0.36744321900E+02  0.63899628169E+02  0.75782617967E+02  0.47000000000E+01 0. -1.
          5    1    5    5  503    0  0.18264331774E+01  0.48827193234E+02  0.13715663130E+03  0.14567588053E+03  0.47000000000E+01 0. -1.
         -5    1    5    5    0  503  0.37395342479E+02 -0.67492403243E+02  0.13923123887E+03  0.15925157460E+03  0.47000000000E+01 0. -1.
<mgrwt>
<rscale>  0 0.27544927E+03</rscale>
<asrwt>0</asrwt>
<pdfrwt beam="1">  1        2 0.13264928E+00 0.27544927E+03</pdfrwt>
<pdfrwt beam="2">  1       -2 0.33844776E-02 0.27544927E+03</pdfrwt>
<totfact> 0.11339982E+04</totfact>
</mgrwt>
</event>
<event>
 9    1  0.2114844E-002  0.2747874E+03  0.7818608E-02  0.1098571E+00
         -2   -1    0    0    0  501 -0.00000000000E+00  0.00000000000E+00  0.64903206512E+02  0.64903206512E+02  0.00000000000E+00 0. -1.
          2   -1    0    0  501    0  0.00000000000E+00 -0.00000000000E+00 -0.29084885165E+03  0.29084885165E+03  0.00000000000E+00 0. -1.
         36    2    1    2    0    0  0.00000000000E+00 -0.88817841970E-15 -0.22594564513E+03  0.35575205816E+03  0.27478735839E+03 0.  0.
         25    2    3    3    0    0 -0.40923178298E+02  0.54194589988E+01 -0.13994353543E+03  0.19795862226E+03  0.13378843733E+03 0.  0.
         25    2    3    3    0    0  0.40923178298E+02 -0.54194589988E+01 -0.86002109710E+02  0.15779343589E+03  0.12569140177E+03 0.  0.
          5    1    4    4  502    0 -0.61899500594E+02 -0.12871404558E+00 -0.15773332476E+03  0.16950945838E+03  0.47000000000E+01 0. -1.
         -5    1    4    4    0  502  0.20976322295E+02  0.55481730444E+01  0.17789789334E+02  0.28449163884E+02  0.47000000000E+01 0. -1.
          5    1    5    5  503    0  0.60846205695E+02 -0.11298489977E+02  0.69317843736E+01  0.62450430406E+02  0.47000000000E+01 0. -1.
         -5    1    5    5    0  503 -0.19923027397E+02  0.58790309778E+01 -0.92933894083E+02  0.95343005487E+02  0.47000000000E+01 0. -1.
<mgrwt>
<rscale>  0 0.27478736E+03</rscale>
<asrwt>0</asrwt>
<pdfrwt beam="1">  1        2 0.44745975E-01 0.27478736E+03</pdfrwt>
<pdfrwt beam="2">  1       -2 0.99851091E-02 0.27478736E+03</pdfrwt>
<totfact> 0.74652219E+03</totfact>
</mgrwt>
</event>
<event>
 9    1  0.2114844E-002  0.2750275E+03  0.7818608E-02  0.1098436E+00
          2   -1    0    0  501    0  0.00000000000E+00  0.00000000000E+00  0.13446766933E+04  0.13446766933E+04  0.00000000000E+00 0.  1.
         -2   -1    0    0    0  501 -0.00000000000E+00 -0.00000000000E+00 -0.14062886408E+02  0.14062886408E+02  0.00000000000E+00 0.  1.
         36    2    1    2    0    0  0.00000000000E+00  0.00000000000E+00  0.13306138069E+04  0.13587395797E+04  0.27502753021E+03 0.  0.
         25    2    3    3    0    0  0.20380951771E+00 -0.45006800533E+02  0.55726744880E+03  0.57383836840E+03  0.12929737014E+03 0.  0.
         25    2    3    3    0    0 -0.20380951771E+00  0.45006800533E+02  0.77334635813E+03  0.78490121135E+03  0.12641071278E+03 0.  0.
          5    1    4    4  502    0 -0.61542075618E+02 -0.15991133659E+02  0.19457208313E+03  0.20475236008E+03  0.47000000000E+01 0. -1.
         -5    1    4    4    0  502  0.61745885136E+02 -0.29015666874E+02  0.36269536567E+03  0.36908600831E+03  0.47000000000E+01 0. -1.
          5    1    5    5  503    0 -0.56552843505E+02  0.34571527240E+01  0.47622540894E+03  0.47960703304E+03  0.47000000000E+01 0.  1.
         -5    1    5    5    0  503  0.56349033987E+02  0.41549647809E+02  0.29712094919E+03  0.30529417831E+03  0.47000000000E+01 0.  1.
<mgrwt>
<rscale>  0 0.27502753E+03</rscale>
<asrwt>0</asrwt>
<pdfrwt beam="1">  1        2 0.20687324E+00 0.27502753E+03</pdfrwt>
<pdfrwt beam="2">  1       -2 0.21635221E-02 0.27502753E+03</pdfrwt>
<totfact> 0.11402696E+04</totfact>
</mgrwt>
</event>
<event>
 9    1  0.2114844E-002  0.2748695E+03  0.7818608E-02  0.1098525E+00
         -2   -1    0    0    0  501 -0.00000000000E+00  0.00000000000E+00  0.18245746540E+02  0.18245746540E+02  0.00000000000E+00 0. -1.
          2   -1    0    0  501    0  0.00000000000E+00 -0.00000000000E+00 -0.10352169161E+04  0.10352169161E+04  0.00000000000E+00 0. -1.
         36    2    1    2    0    0  0.35527136788E-14  0.00000000000E+00 -0.10169711696E+04  0.10534626627E+04  0.27486946331E+03 0.  0.
         25    2    3    3    0    0  0.27661629971E+02  0.10492989840E+02 -0.72997909711E+03  0.73846869007E+03  0.10766269265E+03 0.  0.
         25    2    3    3    0    0 -0.27661629971E+02 -0.10492989840E+02 -0.28699207246E+03  0.31499397258E+03  0.12641789627E+03 0.  0.
          5    1    4    4  502    0 -0.83526803927E+01 -0.97077525508E+01 -0.63062710997E+03  0.63077464245E+03  0.47000000000E+01 0.  1.
         -5    1    4    4    0  502  0.36014310364E+02  0.20200742391E+02 -0.99351987139E+02  0.10769404762E+03  0.47000000000E+01 0.  1.
          5    1    5    5  503    0 -0.45685432598E+02 -0.54637922677E+02 -0.10617385861E+03  0.12793529457E+03  0.47000000000E+01 0. -1.
         -5    1    5    5    0  503  0.18023802627E+02  0.44144932837E+02 -0.18081821385E+03  0.18705867801E+03  0.47000000000E+01 0. -1.
<mgrwt>
<rscale>  0 0.27486946E+03</rscale>
<asrwt>0</asrwt>
<pdfrwt beam="1">  1        2 0.15926422E+00 0.27486946E+03</pdfrwt>
<pdfrwt beam="2">  1       -2 0.28070366E-02 0.27486946E+03</pdfrwt>
<totfact> 0.11659249E+04</totfact>
</mgrwt>
</event>
<event>
 9    1  0.2114844E-002  0.2724735E+03  0.7818608E-02  0.1099872E+00
          1   -1    0    0  501    0  0.00000000000E+00  0.00000000000E+00  0.17956731684E+03  0.17956731684E+03  0.00000000000E+00 0.  1.
         -1   -1    0    0    0  501 -0.00000000000E+00 -0.00000000000E+00 -0.10336209186E+03  0.10336209186E+03  0.00000000000E+00 0.  1.
         36    2    1    2    0    0  0.71054273576E-14  0.00000000000E+00  0.76205224978E+02  0.28292940870E+03  0.27247351062E+03 0.  0.
         25    2    3    3    0    0  0.17121303962E+02 -0.52109996450E+01 -0.15145067394E+02  0.12793188927E+03  0.12576526412E+03 0.  0.
         25    2    3    3    0    0 -0.17121303962E+02  0.52109996450E+01  0.91350292373E+02  0.15499751943E+03  0.12393168096E+03 0.  0.
          5    1    4    4  502    0 -0.49876175800E+02  0.18702806874E+02 -0.18436499693E+02  0.56563437115E+02  0.47000000000E+01 0. -1.
         -5    1    4    4    0  502  0.66997479762E+02 -0.23913806519E+02  0.32914322988E+01  0.71368452157E+02  0.47000000000E+01 0. -1.
          5    1    5    5  503    0 -0.20427277631E+01  0.34977039876E+02  0.11065378365E+03  0.11616331560E+03  0.47000000000E+01 0. -1.
         -5    1    5    5    0  503 -0.15078576199E+02 -0.29766040231E+02 -0.19303491277E+02  0.38834203825E+02  0.47000000000E+01 0. -1.
<mgrwt>
<rscale>  0 0.27247351E+03</rscale>
<asrwt>0</asrwt>
<pdfrwt beam="1">  1        1 0.27625741E-01 0.27247351E+03</pdfrwt>
<pdfrwt beam="2">  1       -1 0.15901860E-01 0.27247351E+03</pdfrwt>
<totfact> 0.48893822E+03</totfact>
</mgrwt>
</event>
<event>
 9    1  0.2114844E-002  0.2746845E+03  0.7818608E-02  0.1098628E+00
         -2   -1    0    0    0  501 -0.00000000000E+00  0.00000000000E+00  0.18212027098E+02  0.18212027098E+02  0.00000000000E+00 0. -1.
          2   -1    0    0  501    0  0.00000000000E+00 -0.00000000000E+00 -0.10357383026E+04  0.10357383026E+04  0.00000000000E+00 0. -1.
         36    2    1    2    0    0  0.71054273576E-14 -0.71054273576E-14 -0.10175262755E+04  0.10539503297E+04  0.27468450290E+03 0.  0.
         25    2    3    3    0    0  0.53499205848E+02 -0.23630427394E+02 -0.42303896346E+03  0.44399457319E+03  0.12144403770E+03 0.  0.
         25    2    3    3    0    0 -0.53499205848E+02  0.23630427394E+02 -0.59448731204E+03  0.60995575650E+03  0.12333003928E+03 0.  0.
          5    1    4    4  502    0  0.21474489049E+02  0.49535533784E+02 -0.15077446799E+03  0.16021845394E+03  0.47000000000E+01 0. -1.
         -5    1    4    4    0  502  0.32024716799E+02 -0.73165961178E+02 -0.27226449547E+03  0.28377611925E+03  0.47000000000E+01 0. -1.
          5    1    5    5  503    0 -0.85264834009E+02 -0.20720739904E+01 -0.27856942866E+03  0.29137158749E+03  0.47000000000E+01 0.  1.
         -5    1    5    5    0  503  0.31765628161E+02  0.25702501385E+02 -0.31591788338E+03  0.31858416902E+03  0.47000000000E+01 0.  1.
<mgrwt>
<rscale>  0 0.27468450E+03</rscale>
<asrwt>0</asrwt>
<pdfrwt beam="1">  1        2 0.15934439E+00 0.27468450E+03</pdfrwt>
<pdfrwt beam="2">  1       -2 0.28018497E-02 0.27468450E+03</pdfrwt>
<totfact> 0.11682616E+04</totfact>
</mgrwt>
</event>
<event>
 9    1  0.2114844E-002  0.2748648E+03  0.7818608E-02  0.1098527E+00
          2   -1    0    0  501    0  0.00000000000E+00  0.00000000000E+00  0.10360332189E+04  0.10360332189E+04  0.00000000000E+00 0. -1.
         -2   -1    0    0    0  501 -0.00000000000E+00 -0.00000000000E+00 -0.18230755373E+02  0.18230755373E+02  0.00000000000E+00 0. -1.
         36    2    1    2    0    0 -0.35527136788E-14  0.00000000000E+00  0.10178024635E+04  0.10542639743E+04  0.27486482621E+03 0.  0.
         25    2    3    3    0    0  0.10757704351E+02 -0.33714973315E+02  0.34983350482E+03  0.37395306623E+03  0.12729880997E+03 0.  0.
         25    2    3    3    0    0 -0.10757704351E+02  0.33714973315E+02  0.66796895871E+03  0.68031090804E+03  0.12404827358E+03 0.  0.
          5    1    4    4  502    0  0.34103121126E+02 -0.66307997290E+01  0.33177099140E+03  0.33361815165E+03  0.47000000000E+01 0. -1.
         -5    1    4    4    0  502 -0.23345416775E+02 -0.27084173586E+02  0.18062513422E+02  0.40334914582E+02  0.47000000000E+01 0. -1.
          5    1    5    5  503    0  0.31015974876E+02  0.40151378739E+02  0.11589253803E+03  0.12659895056E+03  0.47000000000E+01 0.  1.
         -5    1    5    5    0  503 -0.41773679227E+02 -0.64364054233E+01  0.55207642068E+03  0.55371195748E+03  0.47000000000E+01 0.  1.
<mgrwt>
<rscale>  0 0.27486483E+03</rscale>
<asrwt>0</asrwt>
<pdfrwt beam="1">  1        2 0.15938968E+00 0.27486483E+03</pdfrwt>
<pdfrwt beam="2">  1       -2 0.28047324E-02 0.27486483E+03</pdfrwt>
<totfact> 0.11660264E+04</totfact>
</mgrwt>
</event>
<event>
 9    1  0.2114844E-002  0.2753131E+03  0.7818608E-02  0.1098277E+00
         -2   -1    0    0    0  501 -0.00000000000E+00  0.00000000000E+00  0.10775647383E+02  0.10775647383E+02  0.00000000000E+00 0. -1.
          2   -1    0    0  501    0  0.00000000000E+00 -0.00000000000E+00 -0.17585318933E+04  0.17585318933E+04  0.00000000000E+00 0. -1.
         36    2    1    2    0    0  0.00000000000E+00 -0.71054273576E-14 -0.17477562459E+04  0.17693075406E+04  0.27531305522E+03 0.  0.
         25    2    3    3    0    0  0.44476192923E+02 -0.31259123009E+02 -0.97840955182E+03  0.98772666181E+03  0.12394935601E+03 0.  0.
         25    2    3    3    0    0 -0.44476192923E+02  0.31259123009E+02 -0.76934669405E+03  0.78158087882E+03  0.12656646470E+03 0.  0.
          5    1    4    4  502    0  0.35117137019E+02 -0.78418595557E+02 -0.68180785614E+03  0.68721665589E+03  0.47000000000E+01 0.  1.
         -5    1    4    4    0  502  0.93590559042E+01  0.47159472548E+02 -0.29660169567E+03  0.30051000592E+03  0.47000000000E+01 0.  1.
          5    1    5    5  503    0 -0.90049369005E+00  0.65992460604E+02 -0.59048962195E+03  0.59418507165E+03  0.47000000000E+01 0.  1.
         -5    1    5    5    0  503 -0.43575699233E+02 -0.34733337595E+02 -0.17885707210E+03  0.18739580717E+03  0.47000000000E+01 0.  1.
<mgrwt>
<rscale>  0 0.27531306E+03</rscale>
<asrwt>0</asrwt>
<pdfrwt beam="1">  1        2 0.27054294E+00 0.27531306E+03</pdfrwt>
<pdfrwt beam="2">  1       -2 0.16577945E-02 0.27531306E+03</pdfrwt>
<totfact> 0.10139250E+04</totfact>
</mgrwt>
</event>
<event>
 9    1  0.2114844E-002  0.2749889E+03  0.7818608E-02  0.1098458E+00
          2   -1    0    0  501    0  0.00000000000E+00  0.00000000000E+00  0.19131548036E+03  0.19131548036E+03  0.00000000000E+00 0.  1.
         -2   -1    0    0    0  501 -0.00000000000E+00 -0.00000000000E+00 -0.98814422675E+02  0.98814422675E+02  0.00000000000E+00 0.  1.
         36    2    1    2    0    0  0.71054273576E-14  0.00000000000E+00  0.92501057688E+02  0.29012990304E+03  0.27498893607E+03 0.  0.
         25    2    3    3    0    0 -0.57680611585E+02 -0.85347739126E+01  0.30598032667E+02  0.14134006651E+03  0.12506350179E+03 0.  0.
         25    2    3    3    0    0  0.57680611585E+02  0.85347739126E+01  0.61903025021E+02  0.14878983653E+03  0.12209232420E+03 0.  0.
          5    1    4    4  502    0  0.12607368379E+02 -0.15339913571E+02 -0.37775480297E+02  0.42934084332E+02  0.47000000000E+01 0. -1.
         -5    1    4    4    0  502 -0.70287979965E+02  0.68051396589E+01  0.68373512963E+02  0.98405982177E+02  0.47000000000E+01 0. -1.
          5    1    5    5  503    0 -0.32043725240E+02  0.18614452184E+02  0.42010541277E+02  0.56216312007E+02  0.47000000000E+01 0.  1.
         -5    1    5    5    0  503  0.89724336825E+02 -0.10079678272E+02  0.19892483744E+02  0.92573524521E+02  0.47000000000E+01 0.  1.
<mgrwt>
<rscale>  0 0.27498894E+03</rscale>
<asrwt>0</asrwt>
<pdfrwt beam="1">  1        2 0.29433151E-01 0.27498894E+03</pdfrwt>
<pdfrwt beam="2">  1       -2 0.15202219E-01 0.27498894E+03</pdfrwt>
<totfact> 0.59517808E+03</totfact>
</mgrwt>
</event>
<event>
 9    1  0.2114844E-002  0.2746788E+03  0.7818608E-02  0.1098631E+00
          2   -1    0    0  501    0  0.00000000000E+00  0.00000000000E+00  0.49948844216E+03  0.49948844216E+03  0.00000000000E+00 0. -1.
         -2   -1    0    0    0  501 -0.00000000000E+00 -0.00000000000E+00 -0.37762859895E+02  0.37762859895E+02  0.00000000000E+00 0. -1.
         36    2    1    2    0    0  0.00000000000E+00  0.71054273576E-14  0.46172558226E+03  0.53725130205E+03  0.27467880923E+03 0.  0.
         25    2    3    3    0    0  0.33187494795E+02 -0.16403793965E+02  0.20200228643E+03  0.24216692736E+03  0.12833317074E+03 0.  0.
         25    2    3    3    0    0 -0.33187494795E+02  0.16403793965E+02  0.25972329583E+03  0.29508437470E+03  0.13508554152E+03 0.  0.
          5    1    4    4  502    0  0.45747716302E+02 -0.17178063146E+01  0.21403208172E+03  0.21892379133E+03  0.47000000000E+01 0. -1.
         -5    1    4    4    0  502 -0.12560221507E+02 -0.14685987650E+02 -0.12029795286E+02  0.23243136024E+02  0.47000000000E+01 0. -1.
          5    1    5    5  503    0 -0.67411375302E+02  0.51165272699E+02  0.11921985633E+03  0.14627933140E+03  0.47000000000E+01 0.  1.
         -5    1    5    5    0  503  0.34223880508E+02 -0.34761478734E+02  0.14050343950E+03  0.14880504330E+03  0.47000000000E+01 0.  1.
<mgrwt>
<rscale>  0 0.27467881E+03</rscale>
<asrwt>0</asrwt>
<pdfrwt beam="1">  1        2 0.76844371E-01 0.27467881E+03</pdfrwt>
<pdfrwt beam="2">  1       -2 0.58096711E-02 0.27467881E+03</pdfrwt>
<totfact> 0.96377341E+03</totfact>
</mgrwt>
</event>
<event>
 9    1  0.2114844E-002  0.2747692E+03  0.7818608E-02  0.1098581E+00
          1   -1    0    0  501    0  0.00000000000E+00  0.00000000000E+00  0.11295063377E+04  0.11295063377E+04  0.00000000000E+00 0. -1.
         -1   -1    0    0    0  501 -0.00000000000E+00 -0.00000000000E+00 -0.16710421024E+02  0.16710421024E+02  0.00000000000E+00 0. -1.
         36    2    1    2    0    0  0.35527136788E-14  0.00000000000E+00  0.11127959166E+04  0.11462167587E+04  0.27476918642E+03 0.  0.
         25    2    3    3    0    0 -0.27706125924E+02  0.50896651284E+02  0.59499134768E+03  0.61043428080E+03  0.12352007460E+03 0.  0.
         25    2    3    3    0    0  0.27706125924E+02 -0.50896651284E+02  0.51780456895E+03  0.53578247789E+03  0.12483266182E+03 0.  0.
          5    1    4    4  502    0 -0.39309683166E+02 -0.26329697991E+02  0.12057802872E+03  0.12961348386E+03  0.47000000000E+01 0. -1.
         -5    1    4    4    0  502  0.11603557242E+02  0.77226349276E+02  0.47441331896E+03  0.48082079694E+03  0.47000000000E+01 0. -1.
          5    1    5    5  503    0 -0.80668528722E+01  0.39183998391E+02  0.13603350308E+03  0.14187199796E+03  0.47000000000E+01 0.  1.
         -5    1    5    5    0  503  0.35772978797E+02 -0.90080649675E+02  0.38177106588E+03  0.39391047993E+03  0.47000000000E+01 0.  1.
<mgrwt>
<rscale>  0 0.27476919E+03</rscale>
<asrwt>0</asrwt>
<pdfrwt beam="1">  1        1 0.17377015E+00 0.27476919E+03</pdfrwt>
<pdfrwt beam="2">  1       -1 0.25708349E-02 0.27476919E+03</pdfrwt>
<totfact> 0.60867141E+03</totfact>
</mgrwt>
</event>
<event>
 9    1  0.2114844E-002  0.2751532E+03  0.7818608E-02  0.1098366E+00
          2   -1    0    0  501    0  0.00000000000E+00  0.00000000000E+00  0.41445597343E+03  0.41445597343E+03  0.00000000000E+00 0.  1.
         -2   -1    0    0    0  501 -0.00000000000E+00 -0.00000000000E+00 -0.45667857701E+02  0.45667857701E+02  0.00000000000E+00 0.  1.
         36    2    1    2    0    0 -0.71054273576E-14  0.71054273576E-14  0.36878811573E+03  0.46012383114E+03  0.27515316766E+03 0.  0.
         25    2    3    3    0    0 -0.25778116092E+02  0.52031399725E+02  0.22361389449E+03  0.26465259580E+03  0.12909703648E+03 0.  0.
         25    2    3    3    0    0  0.25778116092E+02 -0.52031399725E+02  0.14517422125E+03  0.19547123534E+03  0.11731015090E+03 0.  0.
          5    1    4    4  502    0  0.47769808652E+02  0.44054180265E+02  0.81253408450E+02  0.10414860442E+03  0.47000000000E+01 0. -1.
         -5    1    4    4    0  502 -0.73547924743E+02  0.79772194603E+01  0.14236048603E+03  0.16050399138E+03  0.47000000000E+01 0. -1.
          5    1    5    5  503    0  0.69913995087E+02 -0.46722736680E+02  0.78056446379E+02  0.11482978557E+03  0.47000000000E+01 0.  1.
         -5    1    5    5    0  503 -0.44135878996E+02 -0.53086630452E+01  0.67117774870E+02  0.80641449773E+02  0.47000000000E+01 0.  1.
<mgrwt>
<rscale>  0 0.27515317E+03</rscale>
<asrwt>0</asrwt>
<pdfrwt beam="1">  1        2 0.63762455E-01 0.27515317E+03</pdfrwt>
<pdfrwt beam="2">  1       -2 0.70258246E-02 0.27515317E+03</pdfrwt>
<totfact> 0.88370324E+03</totfact>
</mgrwt>
</event>
<event>
 9    1  0.2114844E-002  0.2740878E+03  0.7818608E-02  0.1098963E+00
         -4   -1    0    0    0  501 -0.00000000000E+00  0.00000000000E+00  0.88041387096E+03  0.88041387096E+03  0.00000000000E+00 0. -1.
          4   -1    0    0  501    0  0.00000000000E+00 -0.00000000000E+00 -0.21332041279E+02  0.21332041279E+02  0.00000000000E+00 0. -1.
         36    2    1    2    0    0  0.00000000000E+00  0.35527136788E-14  0.85908182968E+03  0.90174591224E+03  0.27408775995E+03 0.  0.
         25    2    3    3    0    0 -0.13786107545E+02  0.16144051356E+02  0.54694561483E+03  0.56288419476E+03  0.13129517881E+03 0.  0.
         25    2    3    3    0    0  0.13786107545E+02 -0.16144051356E+02  0.31213621485E+03  0.33886171748E+03  0.13018279377E+03 0.  0.
          5    1    4    4  502    0  0.23286702149E+02  0.21643895147E+02  0.28172127930E+02  0.42737424889E+02  0.47000000000E+01 0.  1.
         -5    1    4    4    0  502 -0.37072809694E+02 -0.54998437910E+01  0.51877348690E+03  0.52014676987E+03  0.47000000000E+01 0.  1.
          5    1    5    5  503    0 -0.30994854722E+02  0.41205400155E+02  0.18697457457E+03  0.19401068928E+03  0.47000000000E+01 0.  1.
         -5    1    5    5    0  503  0.44780962268E+02 -0.57349451511E+02  0.12516164028E+03  0.14485102819E+03  0.47000000000E+01 0.  1.
<mgrwt>
<rscale>  0 0.27408776E+03</rscale>
<asrwt>0</asrwt>
<pdfrwt beam="1">  1        4 0.32818532E-02 0.27408776E+03</pdfrwt>
<pdfrwt beam="2">  1       -4 0.13544826E+00 0.27408776E+03</pdfrwt>
<totfact> 0.35933746E+02</totfact>
</mgrwt>
</event>
<event>
 9    1  0.2114844E-002  0.2759588E+03  0.7818608E-02  0.1097917E+00
          2   -1    0    0  501    0  0.00000000000E+00  0.00000000000E+00  0.16303434248E+04  0.16303434248E+04  0.00000000000E+00 0.  1.
         -2   -1    0    0    0  501 -0.00000000000E+00 -0.00000000000E+00 -0.11677489019E+02  0.11677489019E+02  0.00000000000E+00 0.  1.
         36    2    1    2    0    0 -0.35527136788E-14  0.00000000000E+00  0.16186659358E+04  0.16420209138E+04  0.27595881896E+03 0.  0.
         25    2    3    3    0    0  0.14885291460E+02 -0.54048811010E+02  0.95610627758E+03  0.96569066767E+03  0.12359775775E+03 0.  0.
         25    2    3    3    0    0 -0.14885291460E+02  0.54048811010E+02  0.66255965819E+03  0.67633024614E+03  0.12367075366E+03 0.  0.
          5    1    4    4  502    0  0.50257712991E+02 -0.73122987224E+02  0.77739272800E+03  0.78245405777E+03  0.47000000000E+01 0. -1.
         -5    1    4    4    0  502 -0.35372421531E+02  0.19074176214E+02  0.17871354959E+03  0.18323660990E+03  0.47000000000E+01 0. -1.
          5    1    5    5  503    0 -0.22481380025E+02  0.92651408804E+02  0.49817838458E+03  0.50724105597E+03  0.47000000000E+01 0. -1.
         -5    1    5    5    0  503  0.75960885650E+01 -0.38602597794E+02  0.16438127362E+03  0.16908919017E+03  0.47000000000E+01 0. -1.
<mgrwt>
<rscale>  0 0.27595882E+03</rscale>
<asrwt>0</asrwt>
<pdfrwt beam="1">  1        2 0.25082189E+00 0.27595882E+03</pdfrwt>
<pdfrwt beam="2">  1       -2 0.17965381E-02 0.27595882E+03</pdfrwt>
<totfact> 0.10528668E+04</totfact>
</mgrwt>
</event>
<event>
 9    1  0.2114844E-002  0.2755234E+03  0.7818608E-02  0.1098159E+00
          2   -1    0    0  501    0  0.00000000000E+00  0.00000000000E+00  0.83100523259E+03  0.83100523259E+03  0.00000000000E+00 0.  1.
         -2   -1    0    0    0  501 -0.00000000000E+00 -0.00000000000E+00 -0.22837746829E+02  0.22837746829E+02  0.00000000000E+00 0.  1.
         36    2    1    2    0    0  0.00000000000E+00  0.00000000000E+00  0.80816748576E+03  0.85384297942E+03  0.27552340819E+03 0.  0.
         25    2    3    3    0    0 -0.84786424470E+01 -0.64056657454E+01  0.22134023024E+03  0.25422678920E+03  0.12460675299E+03 0.  0.
         25    2    3    3    0    0  0.84786424470E+01  0.64056657454E+01  0.58682725552E+03  0.59961619022E+03  0.12272093473E+03 0.  0.
          5    1    4    4  502    0  0.73886385000E+01  0.89918811369E+00  0.23269997713E+03  0.23286642067E+03  0.47000000000E+01 0.  1.
         -5    1    4    4    0  502 -0.15867280947E+02 -0.73048538590E+01 -0.11359746886E+02  0.21360368533E+02  0.47000000000E+01 0.  1.
          5    1    5    5  503    0 -0.15470489292E+02  0.10659724102E+02  0.91695116698E+01  0.21427452044E+02  0.47000000000E+01 0.  1.
         -5    1    5    5    0  503  0.23949131739E+02 -0.42540583569E+01  0.57765774385E+03  0.57818873817E+03  0.47000000000E+01 0.  1.
<mgrwt>
<rscale>  0 0.27552341E+03</rscale>
<asrwt>0</asrwt>
<pdfrwt beam="1">  1        2 0.12784694E+00 0.27552341E+03</pdfrwt>
<pdfrwt beam="2">  1       -2 0.35135001E-02 0.27552341E+03</pdfrwt>
<totfact> 0.11250713E+04</totfact>
</mgrwt>
</event>
<event>
 9    1  0.2114844E-002  0.2747475E+03  0.7818608E-02  0.1098593E+00
          2   -1    0    0  501    0  0.00000000000E+00  0.00000000000E+00  0.64126575186E+03  0.64126575186E+03  0.00000000000E+00 0.  1.
         -2   -1    0    0    0  501 -0.00000000000E+00 -0.00000000000E+00 -0.29428582545E+02  0.29428582545E+02  0.00000000000E+00 0.  1.
         36    2    1    2    0    0  0.00000000000E+00  0.00000000000E+00  0.61183716932E+03  0.67069433441E+03  0.27474746304E+03 0.  0.
         25    2    3    3    0    0  0.49652164571E+02  0.33838483586E+02  0.31412818592E+03  0.34310498004E+03  0.12423417292E+03 0.  0.
         25    2    3    3    0    0 -0.49652164571E+02 -0.33838483586E+02  0.29770898340E+03  0.32758935437E+03  0.12277526576E+03 0.  0.
          5    1    4    4  502    0 -0.24515231590E+01  0.33215524692E+02  0.10843288877E+02  0.35340457836E+02  0.47000000000E+01 0. -1.
         -5    1    4    4    0  502  0.52103687730E+02  0.62295889429E+00  0.30328489704E+03  0.30776452220E+03  0.47000000000E+01 0. -1.
          5    1    5    5  503    0 -0.20000419666E+02 -0.43247231115E+02  0.26819749385E+02  0.54879219592E+02  0.47000000000E+01 0. -1.
         -5    1    5    5    0  503 -0.29651744905E+02  0.94087475288E+01  0.27088923402E+03  0.27271013478E+03  0.47000000000E+01 0. -1.
<mgrwt>
<rscale>  0 0.27474746E+03</rscale>
<asrwt>0</asrwt>
<pdfrwt beam="1">  1        2 0.98656259E-01 0.27474746E+03</pdfrwt>
<pdfrwt beam="2">  1       -2 0.45274747E-02 0.27474746E+03</pdfrwt>
<totfact> 0.10574856E+04</totfact>
</mgrwt>
</event>
<event>
 9    1  0.2114844E-002  0.2749188E+03  0.7818608E-02  0.1098497E+00
          1   -1    0    0  501    0  0.00000000000E+00  0.00000000000E+00  0.19940806780E+02  0.19940806780E+02  0.00000000000E+00 0. -1.
         -1   -1    0    0    0  501 -0.00000000000E+00 -0.00000000000E+00 -0.94755888410E+03  0.94755888410E+03  0.00000000000E+00 0. -1.
         36    2    1    2    0    0  0.00000000000E+00  0.00000000000E+00 -0.92761807732E+03  0.96749969088E+03  0.27491881435E+03 0.  0.
         25    2    3    3    0    0 -0.10721477788E+02 -0.63989110392E+02 -0.50513931346E+03  0.52016325423E+03  0.10580419990E+03 0.  0.
         25    2    3    3    0    0  0.10721477788E+02  0.63989110392E+02 -0.42247876386E+03  0.44733643664E+03  0.13195463351E+03 0.  0.
          5    1    4    4  502    0 -0.31352592792E+02 -0.27046927099E+02 -0.60342466390E+02  0.73333652509E+02  0.47000000000E+01 0.  1.
         -5    1    4    4    0  502  0.20631115004E+02 -0.36942183293E+02 -0.44479684707E+03  0.44682960173E+03  0.47000000000E+01 0.  1.
          5    1    5    5  503    0  0.55334195229E+02  0.53977029117E+02 -0.36799018592E+03  0.37605087391E+03  0.47000000000E+01 0. -1.
         -5    1    5    5    0  503 -0.44612717442E+02  0.10012081275E+02 -0.54488577932E+02  0.71285562732E+02  0.47000000000E+01 0. -1.
<mgrwt>
<rscale>  0 0.27491881E+03</rscale>
<asrwt>0</asrwt>
<pdfrwt beam="1">  1        1 0.30678156E-02 0.27491881E+03</pdfrwt>
<pdfrwt beam="2">  1       -1 0.14577833E+00 0.27491881E+03</pdfrwt>
<totfact> 0.13448817E+03</totfact>
</mgrwt>
</event>
<event>
 9    1  0.2114844E-002  0.2750120E+03  0.7818608E-02  0.1098445E+00
         -1   -1    0    0    0  501 -0.00000000000E+00  0.00000000000E+00  0.95851070119E+03  0.95851070119E+03  0.00000000000E+00 0. -1.
          1   -1    0    0  501    0  0.00000000000E+00 -0.00000000000E+00 -0.19726326448E+02  0.19726326448E+02  0.00000000000E+00 0. -1.
         36    2    1    2    0    0  0.71054273576E-14  0.17763568394E-14  0.93878437474E+03  0.97823702764E+03  0.27501196334E+03 0.  0.
         25    2    3    3    0    0  0.53790618125E+02  0.15402248892E+02  0.42528196440E+03  0.44680458625E+03  0.12505570431E+03 0.  0.
         25    2    3    3    0    0 -0.53790618125E+02 -0.15402248892E+02  0.51350241034E+03  0.53143244139E+03  0.12492019237E+03 0.  0.
          5    1    4    4  502    0  0.60383016778E+02 -0.27483093267E+01  0.77225260313E+02  0.98180918460E+02  0.47000000000E+01 0. -1.
         -5    1    4    4    0  502 -0.65923986525E+01  0.18150558218E+02  0.34805670408E+03  0.34862366779E+03  0.47000000000E+01 0. -1.
          5    1    5    5  503    0 -0.50263994784E+02 -0.69406978881E+01  0.63986768442E+02  0.81798771351E+02  0.47000000000E+01 0.  1.
         -5    1    5    5    0  503 -0.35266233412E+01 -0.84615510037E+01  0.44951564190E+03  0.44963367004E+03  0.47000000000E+01 0.  1.
<mgrwt>
<rscale>  0 0.27501196E+03</rscale>
<asrwt>0</asrwt>
<pdfrwt beam="1">  1        1 0.30348202E-02 0.27501196E+03</pdfrwt>
<pdfrwt beam="2">  1       -1 0.14746315E+00 0.27501196E+03</pdfrwt>
<totfact> 0.13253268E+03</totfact>
</mgrwt>
</event>
<event>
 9    1  0.2114844E-002  0.2754561E+03  0.7818608E-02  0.1098197E+00
         -1   -1    0    0    0  501 -0.00000000000E+00  0.00000000000E+00  0.12723973230E+03  0.12723973230E+03  0.00000000000E+00 0. -1.
          1   -1    0    0  501    0  0.00000000000E+00 -0.00000000000E+00 -0.14908089541E+03  0.14908089541E+03  0.00000000000E+00 0. -1.
         36    2    1    2    0    0  0.00000000000E+00  0.00000000000E+00 -0.21841163105E+02  0.27632062771E+03  0.27545608160E+03 0.  0.
         25    2    3    3    0    0  0.40870067942E+02  0.23563747075E+01  0.38209437734E+02  0.14060441242E+03  0.12897179809E+03 0.  0.
         25    2    3    3    0    0 -0.40870067942E+02 -0.23563747075E+01 -0.60050600839E+02  0.13571621529E+03  0.11461632290E+03 0.  0.
          5    1    4    4  502    0  0.33328238555E+02 -0.29208981338E+02 -0.37407133532E+02  0.58183500368E+02  0.47000000000E+01 0.  1.
         -5    1    4    4    0  502  0.75418293864E+01  0.31565356046E+02  0.75616571266E+02  0.82420912048E+02  0.47000000000E+01 0.  1.
          5    1    5    5  503    0  0.27938242286E+02 -0.32540049371E+02 -0.72210916159E+01  0.43745106689E+02  0.47000000000E+01 0. -1.
         -5    1    5    5    0  503 -0.68808310228E+02  0.30183674663E+02 -0.52829509223E+02  0.91971108601E+02  0.47000000000E+01 0. -1.
<mgrwt>
<rscale>  0 0.27545608E+03</rscale>
<asrwt>0</asrwt>
<pdfrwt beam="1">  1        1 0.22935522E-01 0.27545608E+03</pdfrwt>
<pdfrwt beam="2">  1       -1 0.19575344E-01 0.27545608E+03</pdfrwt>
<totfact> 0.44373148E+03</totfact>
</mgrwt>
</event>
<event>
 9    1  0.2114844E-002  0.2756593E+03  0.7818608E-02  0.1098084E+00
          1   -1    0    0  501    0  0.00000000000E+00  0.00000000000E+00  0.25034361115E+03  0.25034361115E+03  0.00000000000E+00 0. -1.
         -1   -1    0    0    0  501 -0.00000000000E+00 -0.00000000000E+00 -0.75883749638E+02  0.75883749638E+02  0.00000000000E+00 0. -1.
         36    2    1    2    0    0  0.00000000000E+00  0.14210854715E-13  0.17445986152E+03  0.32622736079E+03  0.27565929632E+03 0.  0.
         25    2    3    3    0    0 -0.13948995719E+02 -0.50489159670E+02  0.10554489530E+03  0.17180805765E+03  0.12503821027E+03 0.  0.
         25    2    3    3    0    0  0.13948995719E+02  0.50489159670E+02  0.68914966220E+02  0.15441930314E+03  0.12787618577E+03 0.  0.
          5    1    4    4  502    0  0.39029833467E+02 -0.57533445942E+02  0.23037743576E+02  0.73391095723E+02  0.47000000000E+01 0.  1.
         -5    1    4    4    0  502 -0.52978829186E+02  0.70442862711E+01  0.82507151720E+02  0.98416961932E+02  0.47000000000E+01 0.  1.
          5    1    5    5  503    0 -0.45819225031E+02  0.52006552348E+02  0.97085893610E+01  0.70145773764E+02  0.47000000000E+01 0. -1.
         -5    1    5    5    0  503  0.59768220750E+02 -0.15173926779E+01  0.59206376859E+02  0.84273529373E+02  0.47000000000E+01 0. -1.
<mgrwt>
<rscale>  0 0.27565930E+03</rscale>
<asrwt>0</asrwt>
<pdfrwt beam="1">  1        1 0.38514401E-01 0.27565930E+03</pdfrwt>
<pdfrwt beam="2">  1       -1 0.11674423E-01 0.27565930E+03</pdfrwt>
<totfact> 0.52384692E+03</totfact>
</mgrwt>
</event>
<event>
 9    1  0.2114844E-002  0.2760017E+03  0.7818608E-02  0.1097893E+00
         -4   -1    0    0    0  501 -0.00000000000E+00  0.00000000000E+00  0.77720448484E+03  0.77720448484E+03  0.00000000000E+00 0. -1.
          4   -1    0    0  501    0  0.00000000000E+00 -0.00000000000E+00 -0.24503505873E+02  0.24503505873E+02  0.00000000000E+00 0. -1.
         36    2    1    2    0    0  0.71054273576E-14 -0.71054273576E-14  0.75270097897E+03  0.80170799071E+03  0.27600170042E+03 0.  0.
         25    2    3    3    0    0  0.55021668855E+02 -0.12785143740E+02  0.29973634469E+03  0.32845734705E+03  0.12186676559E+03 0.  0.
         25    2    3    3    0    0 -0.55021668855E+02  0.12785143740E+02  0.45296463428E+03  0.47325064366E+03  0.12489342609E+03 0.  0.
          5    1    4    4  502    0 -0.27082670612E+02 -0.32227923930E+02  0.54216546672E+02  0.68801410315E+02  0.47000000000E+01 0.  1.
         -5    1    4    4    0  502  0.82104339466E+02  0.19442780191E+02  0.24551979802E+03  0.25965593673E+03  0.47000000000E+01 0.  1.
          5    1    5    5  503    0  0.39555770456E+02  0.49455792523E+01  0.17320177492E+03  0.17779218927E+03  0.47000000000E+01 0.  1.
         -5    1    5    5    0  503 -0.94577439311E+02  0.78395644873E+01  0.27976285935E+03  0.29545845439E+03  0.47000000000E+01 0.  1.
<mgrwt>
<rscale>  0 0.27600170E+03</rscale>
<asrwt>0</asrwt>
<pdfrwt beam="1">  1        4 0.37697707E-02 0.27600170E+03</pdfrwt>
<pdfrwt beam="2">  1       -4 0.11956990E+00 0.27600170E+03</pdfrwt>
<totfact> 0.39271263E+02</totfact>
</mgrwt>
</event>
<event>
 9    1  0.2114844E-002  0.2769259E+03  0.7818608E-02  0.1097380E+00
          2   -1    0    0  501    0  0.00000000000E+00  0.00000000000E+00  0.18335877993E+04  0.18335877993E+04  0.00000000000E+00 0. -1.
         -2   -1    0    0    0  501 -0.00000000000E+00 -0.00000000000E+00 -0.10455997931E+02  0.10455997931E+02  0.00000000000E+00 0. -1.
         36    2    1    2    0    0  0.71054273576E-14  0.00000000000E+00  0.18231318014E+04  0.18440437973E+04  0.27692591237E+03 0.  0.
         25    2    3    3    0    0 -0.46834978719E+02  0.34457534511E+02  0.87012685771E+03  0.88099643062E+03  0.12511245076E+03 0.  0.
         25    2    3    3    0    0  0.46834978719E+02 -0.34457534511E+02  0.95300494368E+03  0.96304736664E+03  0.12594034615E+03 0.  0.
          5    1    4    4  502    0 -0.69234372833E+02 -0.50880780103E+01  0.25962396624E+03  0.26878612457E+03  0.47000000000E+01 0. -1.
         -5    1    4    4    0  502  0.22399394114E+02  0.39545612522E+02  0.61050289148E+03  0.61221030604E+03  0.47000000000E+01 0. -1.
          5    1    5    5  503    0  0.23340768659E+01  0.46187898611E+02  0.32129072474E+03  0.32463608810E+03  0.47000000000E+01 0.  1.
         -5    1    5    5    0  503  0.44500901853E+02 -0.80645433123E+02  0.63171421895E+03  0.63841127854E+03  0.47000000000E+01 0.  1.
<mgrwt>
<rscale>  0 0.27692591E+03</rscale>
<asrwt>0</asrwt>
<pdfrwt beam="1">  1        2 0.28209017E+00 0.27692591E+03</pdfrwt>
<pdfrwt beam="2">  1       -2 0.16086165E-02 0.27692591E+03</pdfrwt>
<totfact> 0.96779525E+03</totfact>
</mgrwt>
</event>
<event>
 9    1  0.2114844E-002  0.2754946E+03  0.7818608E-02  0.1098175E+00
         -2   -1    0    0    0  501 -0.00000000000E+00  0.00000000000E+00  0.32275362019E+02  0.32275362019E+02  0.00000000000E+00 0.  1.
          2   -1    0    0  501    0  0.00000000000E+00 -0.00000000000E+00 -0.58788845179E+03  0.58788845179E+03  0.00000000000E+00 0.  1.
         36    2    1    2    0    0  0.00000000000E+00  0.71054273576E-14 -0.55561308977E+03  0.62016381381E+03  0.27549455609E+03 0.  0.
         25    2    3    3    0    0  0.40045961348E+02 -0.10486141437E+02 -0.16255734463E+03  0.19889432348E+03  0.10686638124E+03 0.  0.
         25    2    3    3    0    0 -0.40045961348E+02  0.10486141437E+02 -0.39305574514E+03  0.42126949033E+03  0.14581332760E+03 0.  0.
          5    1    4    4  502    0  0.29780316591E+02  0.42977712011E+02 -0.11515026811E+03  0.12655285549E+03  0.47000000000E+01 0.  1.
         -5    1    4    4    0  502  0.10265644757E+02 -0.53463853448E+02 -0.47407076516E+02  0.72341467994E+02  0.47000000000E+01 0.  1.
          5    1    5    5  503    0 -0.11714929090E+02  0.73894285344E+02 -0.26639483855E+03  0.27674158520E+03  0.47000000000E+01 0.  1.
         -5    1    5    5    0  503 -0.28331032258E+02 -0.63408143907E+02 -0.12666090659E+03  0.14452790513E+03  0.47000000000E+01 0.  1.
<mgrwt>
<rscale>  0 0.27549456E+03</rscale>
<asrwt>0</asrwt>
<pdfrwt beam="1">  1        2 0.90444372E-01 0.27549456E+03</pdfrwt>
<pdfrwt beam="2">  1       -2 0.49654406E-02 0.27549456E+03</pdfrwt>
<totfact> 0.10177397E+04</totfact>
</mgrwt>
</event>
<event>
 9    1  0.2114844E-002  0.2743891E+03  0.7818608E-02  0.1098794E+00
          1   -1    0    0  501    0  0.00000000000E+00  0.00000000000E+00  0.12485437571E+03  0.12485437571E+03  0.00000000000E+00 0.  1.
         -1   -1    0    0    0  501 -0.00000000000E+00 -0.00000000000E+00 -0.15075439421E+03  0.15075439421E+03  0.00000000000E+00 0.  1.
         36    2    1    2    0    0 -0.71054273576E-14 -0.35527136788E-14 -0.25900018502E+02  0.27560876991E+03  0.27438910892E+03 0.  0.
         25    2    3    3    0    0  0.24016156573E+02  0.26687114958E+02  0.14788998359E+01  0.13090023396E+03  0.12587178486E+03 0.  0.
         25    2    3    3    0    0 -0.24016156573E+02 -0.26687114958E+02 -0.27378918338E+02  0.14470853595E+03  0.13748446213E+03 0.  0.
          5    1    4    4  502    0  0.60659845086E+02 -0.87384547764E+01 -0.32436204509E+02  0.69499458708E+02  0.47000000000E+01 0.  1.
         -5    1    4    4    0  502 -0.36643688513E+02  0.35425569734E+02  0.33915104345E+02  0.61400775252E+02  0.47000000000E+01 0.  1.
          5    1    5    5  503    0  0.56473088041E+02 -0.84652655657E+01 -0.23585969148E+02  0.61961748963E+02  0.47000000000E+01 0. -1.
         -5    1    5    5    0  503 -0.80489244614E+02 -0.18221849392E+02 -0.37929491900E+01  0.82746786991E+02  0.47000000000E+01 0. -1.
<mgrwt>
<rscale>  0 0.27438911E+03</rscale>
<asrwt>0</asrwt>
<pdfrwt beam="1">  1        1 0.19208365E-01 0.27438911E+03</pdfrwt>
<pdfrwt beam="2">  1       -1 0.23192984E-01 0.27438911E+03</pdfrwt>
<totfact> 0.42223987E+03</totfact>
</mgrwt>
</event>
<event>
 9    1  0.2114844E-002  0.2749234E+03  0.7818608E-02  0.1098494E+00
         -1   -1    0    0    0  501 -0.00000000000E+00  0.00000000000E+00  0.32125352480E+03  0.32125352480E+03  0.00000000000E+00 0. -1.
          1   -1    0    0  501    0  0.00000000000E+00 -0.00000000000E+00 -0.58818717504E+02  0.58818717504E+02  0.00000000000E+00 0. -1.
         36    2    1    2    0    0  0.00000000000E+00 -0.35527136788E-14  0.26243480729E+03  0.38007224230E+03  0.27492340986E+03 0.  0.
         25    2    3    3    0    0 -0.39502425241E+02 -0.26443606651E+02  0.13454912371E+03  0.18776448027E+03  0.12203412403E+03 0.  0.
         25    2    3    3    0    0  0.39502425241E+02  0.26443606651E+02  0.12788568359E+03  0.19230776203E+03  0.13552793564E+03 0.  0.
          5    1    4    4  502    0 -0.28546019758E+02  0.19326130828E+01 -0.16669646119E+02  0.33445139244E+02  0.47000000000E+01 0.  1.
         -5    1    4    4    0  502 -0.10956405484E+02 -0.28376219734E+02  0.15121876982E+03  0.15431934103E+03  0.47000000000E+01 0.  1.
          5    1    5    5  503    0  0.85967669378E+02  0.40076551343E+02  0.85303495474E+02  0.12765322748E+03  0.47000000000E+01 0. -1.
         -5    1    5    5    0  503 -0.46465244137E+02 -0.13632944692E+02  0.42582188115E+02  0.64654534553E+02  0.47000000000E+01 0. -1.
<mgrwt>
<rscale>  0 0.27492341E+03</rscale>
<asrwt>0</asrwt>
<pdfrwt beam="1">  1        1 0.90490337E-02 0.27492341E+03</pdfrwt>
<pdfrwt beam="2">  1       -1 0.49423618E-01 0.27492341E+03</pdfrwt>
<totfact> 0.30731510E+03</totfact>
</mgrwt>
</event>
<event>
 9    1  0.2114844E-002  0.2725819E+03  0.7818608E-02  0.1099811E+00
          2   -1    0    0  501    0  0.00000000000E+00  0.00000000000E+00  0.20802016567E+03  0.20802016567E+03  0.00000000000E+00 0.  1.
         -2   -1    0    0    0  501 -0.00000000000E+00 -0.00000000000E+00 -0.89295274544E+02  0.89295274544E+02  0.00000000000E+00 0.  1.
         36    2    1    2    0    0  0.00000000000E+00  0.00000000000E+00  0.11872489113E+03  0.29731544021E+03  0.27258186150E+03 0.  0.
         25    2    3    3    0    0  0.45215234455E+02 -0.16003050042E+02  0.70818815228E+02  0.15470089247E+03  0.12890518417E+03 0.  0.
         25    2    3    3    0    0 -0.45215234455E+02  0.16003050042E+02  0.47906075897E+02  0.14261454774E+03  0.12547271449E+03 0.  0.
          5    1    4    4  502    0 -0.70971778647E+01  0.90301212133E+01 -0.33239559834E+02  0.35480577233E+02  0.47000000000E+01 0.  1.
         -5    1    4    4    0  502  0.52312412319E+02 -0.25033171255E+02  0.10405837506E+03  0.11922031524E+03  0.47000000000E+01 0.  1.
          5    1    5    5  503    0 -0.52699752926E+01  0.21625974058E+02  0.84768280903E+02  0.87767914643E+02  0.47000000000E+01 0. -1.
         -5    1    5    5    0  503 -0.39945259162E+02 -0.56229240161E+01 -0.36862205006E+02  0.54846633095E+02  0.47000000000E+01 0. -1.
<mgrwt>
<rscale>  0 0.27258186E+03</rscale>
<asrwt>0</asrwt>
<pdfrwt beam="1">  1        2 0.32003102E-01 0.27258186E+03</pdfrwt>
<pdfrwt beam="2">  1       -2 0.13737735E-01 0.27258186E+03</pdfrwt>
<totfact> 0.64130889E+03</totfact>
</mgrwt>
</event>
<event>
 9    1  0.2114844E-002  0.2743530E+03  0.7818608E-02  0.1098814E+00
          1   -1    0    0  501    0  0.00000000000E+00  0.00000000000E+00  0.65441659339E+03  0.65441659339E+03  0.00000000000E+00 0.  1.
         -1   -1    0    0    0  501 -0.00000000000E+00 -0.00000000000E+00 -0.28754446625E+02  0.28754446625E+02  0.00000000000E+00 0.  1.
         36    2    1    2    0    0  0.00000000000E+00  0.71054273576E-14  0.62566214676E+03  0.68317104001E+03  0.27435296248E+03 0.  0.
         25    2    3    3    0    0 -0.39363426755E+01 -0.35581134409E+02  0.44213083283E+03  0.46088699344E+03  0.12512248185E+03 0.  0.
         25    2    3    3    0    0  0.39363426755E+01  0.35581134409E+02  0.18353131394E+03  0.22228404658E+03  0.12018711348E+03 0.  0.
          5    1    4    4  502    0 -0.52661867659E+02 -0.32840728595E+02  0.12134675099E+03  0.13637781981E+03  0.47000000000E+01 0. -1.
         -5    1    4    4    0  502  0.48725524983E+02 -0.27404058138E+01  0.32078408184E+03  0.32450917363E+03  0.47000000000E+01 0. -1.
          5    1    5    5  503    0  0.55442082693E+02  0.42001828810E+02  0.13036060488E+03  0.14783083393E+03  0.47000000000E+01 0.  1.
         -5    1    5    5    0  503 -0.51505740017E+02 -0.64206944011E+01  0.53170709057E+02  0.74453212643E+02  0.47000000000E+01 0.  1.
<mgrwt>
<rscale>  0 0.27435296E+03</rscale>
<asrwt>0</asrwt>
<pdfrwt beam="1">  1        1 0.10067946E+00 0.27435296E+03</pdfrwt>
<pdfrwt beam="2">  1       -1 0.44237615E-02 0.27435296E+03</pdfrwt>
<totfact> 0.65557163E+03</totfact>
</mgrwt>
</event>
<event>
 9    1  0.2114844E-002  0.2758746E+03  0.7818608E-02  0.1097964E+00
         -2   -1    0    0    0  501 -0.00000000000E+00  0.00000000000E+00  0.16063075662E+03  0.16063075662E+03  0.00000000000E+00 0.  1.
          2   -1    0    0  501    0  0.00000000000E+00 -0.00000000000E+00 -0.11844988581E+03  0.11844988581E+03  0.00000000000E+00 0.  1.
         36    2    1    2    0    0  0.00000000000E+00  0.71054273576E-14  0.42180870809E+02  0.27908064243E+03  0.27587457135E+03 0.  0.
         25    2    3    3    0    0 -0.86464564545E+01 -0.36266771577E+02 -0.10384423594E+02  0.13873561077E+03  0.13322797571E+03 0.  0.
         25    2    3    3    0    0  0.86464564545E+01  0.36266771577E+02  0.52565294402E+02  0.14034503166E+03  0.12467388582E+03 0.  0.
          5    1    4    4  502    0  0.35474193121E+02 -0.72256859422E+02  0.19682241225E+00  0.80632504923E+02  0.47000000000E+01 0. -1.
         -5    1    4    4    0  502 -0.44120649575E+02  0.35990087845E+02 -0.10581246006E+02  0.58103105847E+02  0.47000000000E+01 0. -1.
          5    1    5    5  503    0 -0.22846091141E+02  0.75065437949E+02  0.41735140939E+02  0.88998178881E+02  0.47000000000E+01 0. -1.
         -5    1    5    5    0  503  0.31492547596E+02 -0.38798666372E+02  0.10830153463E+02  0.51346852779E+02  0.47000000000E+01 0. -1.
<mgrwt>
<rscale>  0 0.27587457E+03</rscale>
<asrwt>0</asrwt>
<pdfrwt beam="1">  1        2 0.18223059E-01 0.27587457E+03</pdfrwt>
<pdfrwt beam="2">  1       -2 0.24712424E-01 0.27587457E+03</pdfrwt>
<totfact> 0.44631505E+03</totfact>
</mgrwt>
</event>
<event>
 9    1  0.2114844E-002  0.2749931E+03  0.7818608E-02  0.1098455E+00
         -2   -1    0    0    0  501 -0.00000000000E+00  0.00000000000E+00  0.32976671128E+03  0.32976671128E+03  0.00000000000E+00 0. -1.
          2   -1    0    0  501    0  0.00000000000E+00 -0.00000000000E+00 -0.57329314286E+02  0.57329314286E+02  0.00000000000E+00 0. -1.
         36    2    1    2    0    0  0.00000000000E+00  0.35527136788E-14  0.27243739699E+03  0.38709602556E+03  0.27499308669E+03 0.  0.
         25    2    3    3    0    0  0.12226939762E+02  0.22824602190E+02  0.16564216507E+02  0.10166592889E+03  0.96907828923E+02 0.  0.
         25    2    3    3    0    0 -0.12226939762E+02 -0.22824602190E+02  0.25587318049E+03  0.28543009668E+03  0.12380951126E+03 0.  0.
          5    1    4    4  502    0  0.25508203374E+02  0.10436376756E+01 -0.35217196436E+02  0.43750411927E+02  0.47000000000E+01 0. -1.
         -5    1    4    4    0  502 -0.13281263611E+02  0.21780964514E+02  0.51781412943E+02  0.57915516959E+02  0.47000000000E+01 0. -1.
          5    1    5    5  503    0 -0.20974131905E+02  0.11160954918E+02 -0.27678145319E+01  0.24376872669E+02  0.47000000000E+01 0.  1.
         -5    1    5    5    0  503  0.87471921429E+01 -0.33985557107E+02  0.25864099502E+03  0.26105322401E+03  0.47000000000E+01 0.  1.
<mgrwt>
<rscale>  0 0.27499309E+03</rscale>
<asrwt>0</asrwt>
<pdfrwt beam="1">  1        2 0.88198947E-02 0.27499309E+03</pdfrwt>
<pdfrwt beam="2">  1       -2 0.50733339E-01 0.27499309E+03</pdfrwt>
<totfact> 0.27908405E+03</totfact>
</mgrwt>
</event>
<event>
 9    1  0.2114844E-002  0.2747751E+03  0.7818608E-02  0.1098577E+00
          2   -1    0    0  501    0  0.00000000000E+00  0.00000000000E+00  0.22364305628E+03  0.22364305628E+03  0.00000000000E+00 0. -1.
         -2   -1    0    0    0  501 -0.00000000000E+00 -0.00000000000E+00 -0.84399403799E+02  0.84399403799E+02  0.00000000000E+00 0. -1.
         36    2    1    2    0    0 -0.88817841970E-15  0.71054273576E-14  0.13924365248E+03  0.30804246008E+03  0.27477511251E+03 0.  0.
         25    2    3    3    0    0  0.10503142932E+01  0.89361069026E+00 -0.33445743850E+00  0.12155248090E+03  0.12154419793E+03 0.  0.
         25    2    3    3    0    0 -0.10503142932E+01 -0.89361069026E+00  0.13957810992E+03  0.18648997918E+03  0.12367118446E+03 0.  0.
          5    1    4    4  502    0  0.99173525759E+01 -0.37023534891E+02  0.46512771824E+02  0.60453485927E+02  0.47000000000E+01 0.  1.
         -5    1    4    4    0  502 -0.88670382827E+01  0.37917145582E+02 -0.46847229262E+02  0.61098994971E+02  0.47000000000E+01 0.  1.
          5    1    5    5  503    0  0.43599518490E+01 -0.61650690918E+02  0.78761840014E+02  0.10022641525E+03  0.47000000000E+01 0.  1.
         -5    1    5    5    0  503 -0.54102661422E+01  0.60757080228E+02  0.60816269908E+02  0.86263563937E+02  0.47000000000E+01 0.  1.
<mgrwt>
<rscale>  0 0.27477511E+03</rscale>
<asrwt>0</asrwt>
<pdfrwt beam="1">  1        2 0.34406624E-01 0.27477511E+03</pdfrwt>
<pdfrwt beam="2">  1       -2 0.12984524E-01 0.27477511E+03</pdfrwt>
<totfact> 0.64998926E+03</totfact>
</mgrwt>
</event>
<event>
 9    1  0.2114844E-002  0.2756067E+03  0.7818608E-02  0.1098113E+00
          2   -1    0    0  501    0  0.00000000000E+00  0.00000000000E+00  0.36821613116E+03  0.36821613116E+03  0.00000000000E+00 0.  1.
         -2   -1    0    0    0  501 -0.00000000000E+00 -0.00000000000E+00 -0.51572313650E+02  0.51572313650E+02  0.00000000000E+00 0.  1.
         36    2    1    2    0    0  0.00000000000E+00  0.00000000000E+00  0.31664381751E+03  0.41978844481E+03  0.27560666035E+03 0.  0.
         25    2    3    3    0    0  0.58771397377E+02 -0.38597042657E+01  0.14156190576E+03  0.19769662739E+03  0.12480067650E+03 0.  0.
         25    2    3    3    0    0 -0.58771397377E+02  0.38597042657E+01  0.17508191175E+03  0.22209181741E+03  0.12329689807E+03 0.  0.
          5    1    4    4  502    0  0.13382382579E+02  0.33530774442E+02  0.13323266325E+03  0.13811746289E+03  0.47000000000E+01 0. -1.
         -5    1    4    4    0  502  0.45389014798E+02 -0.37390478707E+02  0.83292425058E+01  0.59579164504E+02  0.47000000000E+01 0. -1.
          5    1    5    5  503    0  0.31675011564E+01 -0.39290832741E+02  0.10653252258E+02  0.41102121414E+02  0.47000000000E+01 0. -1.
         -5    1    5    5    0  503 -0.61938898533E+02  0.43150537007E+02  0.16442865949E+03  0.18098969600E+03  0.47000000000E+01 0. -1.
<mgrwt>
<rscale>  0 0.27560666E+03</rscale>
<asrwt>0</asrwt>
<pdfrwt beam="1">  1        2 0.56648634E-01 0.27560666E+03</pdfrwt>
<pdfrwt beam="2">  1       -2 0.79342023E-02 0.27560666E+03</pdfrwt>
<totfact> 0.83170807E+03</totfact>
</mgrwt>
</event>
<event>
 9    1  0.2114844E-002  0.2752379E+03  0.7818608E-02  0.1098319E+00
          2   -1    0    0  501    0  0.00000000000E+00  0.00000000000E+00  0.19199901422E+03  0.19199901422E+03  0.00000000000E+00 0. -1.
         -2   -1    0    0    0  501 -0.00000000000E+00 -0.00000000000E+00 -0.98641005549E+02  0.98641005549E+02  0.00000000000E+00 0. -1.
         36    2    1    2    0    0 -0.71054273576E-14  0.00000000000E+00  0.93358008666E+02  0.29064001976E+03  0.27523790311E+03 0.  0.
         25    2    3    3    0    0  0.46866167167E+02  0.30434700195E+02  0.40137599298E+02  0.14329628711E+03  0.12569841058E+03 0.  0.
         25    2    3    3    0    0 -0.46866167167E+02 -0.30434700195E+02  0.53220409368E+02  0.14734373265E+03  0.12551914188E+03 0.  0.
          5    1    4    4  502    0 -0.15352060662E+02  0.27936555366E+02  0.67747228026E+02  0.75019422801E+02  0.47000000000E+01 0.  1.
         -5    1    4    4    0  502  0.62218227829E+02  0.24981448286E+01 -0.27609628727E+02  0.68276864312E+02  0.47000000000E+01 0.  1.
          5    1    5    5  503    0 -0.60118299865E+02  0.35286800209E+02  0.22098685466E+02  0.73278988441E+02  0.47000000000E+01 0.  1.
         -5    1    5    5    0  503  0.13252132698E+02 -0.65721500404E+02  0.31121723902E+02  0.74064744210E+02  0.47000000000E+01 0.  1.
<mgrwt>
<rscale>  0 0.27523790E+03</rscale>
<asrwt>0</asrwt>
<pdfrwt beam="1">  1        2 0.29538310E-01 0.27523790E+03</pdfrwt>
<pdfrwt beam="2">  1       -2 0.15175539E-01 0.27523790E+03</pdfrwt>
<totfact> 0.59459445E+03</totfact>
</mgrwt>
</event>
<event>
 9    1  0.2114844E-002  0.2724085E+03  0.7818608E-02  0.1099909E+00
          1   -1    0    0  501    0  0.00000000000E+00  0.00000000000E+00  0.26322390220E+02  0.26322390220E+02  0.00000000000E+00 0.  1.
         -1   -1    0    0    0  501 -0.00000000000E+00 -0.00000000000E+00 -0.70478407955E+03  0.70478407955E+03  0.00000000000E+00 0.  1.
         36    2    1    2    0    0  0.35527136788E-14  0.00000000000E+00 -0.67846168933E+03  0.73110646977E+03  0.27240852823E+03 0.  0.
         25    2    3    3    0    0 -0.25891704658E+02  0.41421643178E+02 -0.40169662834E+03  0.42280658912E+03  0.12255242835E+03 0.  0.
         25    2    3    3    0    0  0.25891704658E+02 -0.41421643178E+02 -0.27676506099E+03  0.30829988064E+03  0.12674298611E+03 0.  0.
          5    1    4    4  502    0  0.30864480300E+00  0.10696462139E+02  0.59658962477E+01  0.13122175199E+02  0.47000000000E+01 0.  1.
         -5    1    4    4    0  502 -0.26200349461E+02  0.30725181039E+02 -0.40766252458E+03  0.40968441392E+03  0.47000000000E+01 0.  1.
          5    1    5    5  503    0 -0.45062648531E+02 -0.97207184124E+01 -0.48301748328E+02  0.66934920263E+02  0.47000000000E+01 0.  1.
         -5    1    5    5    0  503  0.70954353188E+02 -0.31700924766E+02 -0.22846331266E+03  0.24136496038E+03  0.47000000000E+01 0.  1.
<mgrwt>
<rscale>  0 0.27240853E+03</rscale>
<asrwt>0</asrwt>
<pdfrwt beam="1">  1        1 0.40495983E-02 0.27240853E+03</pdfrwt>
<pdfrwt beam="2">  1       -1 0.10842832E+00 0.27240853E+03</pdfrwt>
<totfact> 0.18722472E+03</totfact>
</mgrwt>
</event>
<event>
 9    1  0.2114844E-002  0.2754770E+03  0.7818608E-02  0.1098185E+00
          2   -1    0    0  501    0  0.00000000000E+00  0.00000000000E+00  0.44246411967E+03  0.44246411967E+03  0.00000000000E+00 0. -1.
         -2   -1    0    0    0  501 -0.00000000000E+00 -0.00000000000E+00 -0.42877817662E+02  0.42877817662E+02  0.00000000000E+00 0. -1.
         36    2    1    2    0    0  0.71054273576E-14  0.00000000000E+00  0.39958630201E+03  0.48534193734E+03  0.27547701062E+03 0.  0.
         25    2    3    3    0    0  0.51089948240E+02  0.13221548817E+02  0.15728752568E+03  0.20780278828E+03  0.12513049556E+03 0.  0.
         25    2    3    3    0    0 -0.51089948240E+02 -0.13221548817E+02  0.24229877633E+03  0.27753914905E+03  0.12463663218E+03 0.  0.
          5    1    4    4  502    0  0.26469017557E+02 -0.46857144797E+02  0.12274784533E+03  0.13410937492E+03  0.47000000000E+01 0. -1.
         -5    1    4    4    0  502  0.24620930683E+02  0.60078693615E+02  0.34539680349E+02  0.73693413361E+02  0.47000000000E+01 0. -1.
          5    1    5    5  503    0  0.12793933923E+02 -0.15409299861E+02 -0.57359974787E+01  0.21357034778E+02  0.47000000000E+01 0. -1.
         -5    1    5    5    0  503 -0.63883882162E+02  0.21877510443E+01  0.24803477381E+03  0.25618211427E+03  0.47000000000E+01 0. -1.
<mgrwt>
<rscale>  0 0.27547701E+03</rscale>
<asrwt>0</asrwt>
<pdfrwt beam="1">  1        2 0.68071400E-01 0.27547701E+03</pdfrwt>
<pdfrwt beam="2">  1       -2 0.65965876E-02 0.27547701E+03</pdfrwt>
<totfact> 0.90691343E+03</totfact>
</mgrwt>
</event>
<event>
 9    1  0.2114844E-002  0.2869620E+03  0.7818608E-02  0.1091946E+00
          2   -1    0    0  501    0  0.00000000000E+00  0.00000000000E+00  0.10510553255E+03  0.10510553255E+03  0.00000000000E+00 0. -1.
         -2   -1    0    0    0  501 -0.00000000000E+00 -0.00000000000E+00 -0.19586786575E+03  0.19586786575E+03  0.00000000000E+00 0. -1.
         36    2    1    2    0    0 -0.14210854715E-13  0.00000000000E+00 -0.90762333202E+02  0.30097339831E+03  0.28696199288E+03 0.  0.
         25    2    3    3    0    0 -0.58015420572E+02  0.11009805258E+02 -0.88275560258E+02  0.16196246108E+03  0.12227943173E+03 0.  0.
         25    2    3    3    0    0  0.58015420572E+02 -0.11009805258E+02 -0.24867729441E+01  0.13901093722E+03  0.12582071289E+03 0.  0.
          5    1    4    4  502    0 -0.35234046357E+02  0.26915410940E+01  0.26588721662E+02  0.44471704889E+02  0.47000000000E+01 0. -1.
         -5    1    4    4    0  502 -0.22781374215E+02  0.83182641638E+01 -0.11486428192E+03  0.11749075619E+03  0.47000000000E+01 0. -1.
          5    1    5    5  503    0  0.20462024615E+02 -0.63087667195E+02 -0.24670220926E+02  0.70918671758E+02  0.47000000000E+01 0. -1.
         -5    1    5    5    0  503  0.37553395956E+02  0.52077861937E+02  0.22183447981E+02  0.68092265465E+02  0.47000000000E+01 0. -1.
<mgrwt>
<rscale>  0 0.28696199E+03</rscale>
<asrwt>0</asrwt>
<pdfrwt beam="1">  1        2 0.16170082E-01 0.28696199E+03</pdfrwt>
<pdfrwt beam="2">  1       -2 0.30133517E-01 0.28696199E+03</pdfrwt>
<totfact> 0.36024541E+03</totfact>
</mgrwt>
</event>
<event>
 9    1  0.2114844E-002  0.2750814E+03  0.7818608E-02  0.1098406E+00
         -2   -1    0    0    0  501 -0.00000000000E+00  0.00000000000E+00  0.15201015606E+03  0.15201015606E+03  0.00000000000E+00 0. -1.
          2   -1    0    0  501    0  0.00000000000E+00 -0.00000000000E+00 -0.12444851245E+03  0.12444851245E+03  0.00000000000E+00 0. -1.
         36    2    1    2    0    0  0.00000000000E+00  0.00000000000E+00  0.27561643604E+02  0.27645866851E+03  0.27508135377E+03 0.  0.
         25    2    3    3    0    0  0.57433967674E+02 -0.33029519567E+02  0.10377738938E+02  0.14263701083E+03  0.12588887793E+03 0.  0.
         25    2    3    3    0    0 -0.57433967674E+02  0.33029519567E+02  0.17183904666E+02  0.13382165768E+03  0.11499278098E+03 0.  0.
          5    1    4    4  502    0  0.80570588970E+01  0.35945418915E+02  0.38165291005E+02  0.53250997893E+02  0.47000000000E+01 0. -1.
         -5    1    4    4    0  502  0.49376908777E+02 -0.68974938482E+02 -0.27787552067E+02  0.89386012938E+02  0.47000000000E+01 0. -1.
          5    1    5    5  503    0  0.30908704737E+02  0.21716281915E+02 -0.12109908865E+02  0.39946023850E+02  0.47000000000E+01 0. -1.
         -5    1    5    5    0  503 -0.88342672411E+02  0.11313237652E+02  0.29293813532E+02  0.93875633826E+02  0.47000000000E+01 0. -1.
<mgrwt>
<rscale>  0 0.27508135E+03</rscale>
<asrwt>0</asrwt>
<pdfrwt beam="1">  1        2 0.19145925E-01 0.27508135E+03</pdfrwt>
<pdfrwt beam="2">  1       -2 0.23386178E-01 0.27508135E+03</pdfrwt>
<totfact> 0.46436018E+03</totfact>
</mgrwt>
</event>
<event>
 9    1  0.2114844E-002  0.2745344E+03  0.7818608E-02  0.1098712E+00
          1   -1    0    0  501    0  0.00000000000E+00  0.00000000000E+00  0.11270293588E+04  0.11270293588E+04  0.00000000000E+00 0.  1.
         -1   -1    0    0    0  501 -0.00000000000E+00 -0.00000000000E+00 -0.16718541249E+02  0.16718541249E+02  0.00000000000E+00 0.  1.
         36    2    1    2    0    0  0.71054273576E-14  0.71054273576E-14  0.11103108175E+04  0.11437479000E+04  0.27453441914E+03 0.  0.
         25    2    3    3    0    0 -0.34820480112E+02 -0.39703547279E+02  0.47415693689E+03  0.49305416545E+03  0.12445389413E+03 0.  0.
         25    2    3    3    0    0  0.34820480112E+02  0.39703547279E+02  0.63615388063E+03  0.65069373457E+03  0.12618137288E+03 0.  0.
          5    1    4    4  502    0  0.61949829436E+01 -0.26988371928E+02  0.43126731343E+03  0.43218090618E+03  0.47000000000E+01 0.  1.
         -5    1    4    4    0  502 -0.41015463056E+02 -0.12715175351E+02  0.42889623466E+02  0.60873259277E+02  0.47000000000E+01 0.  1.
          5    1    5    5  503    0 -0.40139007938E+02  0.42293560299E+02  0.21147059404E+03  0.21941236826E+03  0.47000000000E+01 0.  1.
         -5    1    5    5    0  503  0.74959488051E+02 -0.25900130204E+01  0.42468328659E+03  0.43128136631E+03  0.47000000000E+01 0.  1.
<mgrwt>
<rscale>  0 0.27453442E+03</rscale>
<asrwt>0</asrwt>
<pdfrwt beam="1">  1        1 0.17338907E+00 0.27453442E+03</pdfrwt>
<pdfrwt beam="2">  1       -1 0.25720842E-02 0.27453442E+03</pdfrwt>
<totfact> 0.61071024E+03</totfact>
</mgrwt>
</event>
<event>
 9    1  0.2114844E-002  0.2748144E+03  0.7818608E-02  0.1098555E+00
          1   -1    0    0  501    0  0.00000000000E+00  0.00000000000E+00  0.86196426607E+02  0.86196426607E+02  0.00000000000E+00 0. -1.
         -1   -1    0    0    0  501 -0.00000000000E+00 -0.00000000000E+00 -0.21904309949E+03  0.21904309949E+03  0.00000000000E+00 0. -1.
         36    2    1    2    0    0  0.14210854715E-13  0.00000000000E+00 -0.13284667288E+03  0.30523952609E+03  0.27481435515E+03 0.  0.
         25    2    3    3    0    0 -0.36753146194E+02 -0.33544666511E+02 -0.85518179484E+02  0.15580842520E+03  0.12036140550E+03 0.  0.
         25    2    3    3    0    0  0.36753146194E+02  0.33544666511E+02 -0.47328493398E+02  0.14943110090E+03  0.13271634873E+03 0.  0.
          5    1    4    4  502    0 -0.75884515350E+02 -0.44815659525E+02 -0.67108478199E+02  0.11087173154E+03  0.47000000000E+01 0.  1.
         -5    1    4    4    0  502  0.39131369156E+02  0.11270993013E+02 -0.18409701285E+02  0.44936693658E+02  0.47000000000E+01 0.  1.
          5    1    5    5  503    0  0.81537467605E+02  0.29595097797E+02 -0.56066226176E+02  0.10339119960E+03  0.47000000000E+01 0. -1.
         -5    1    5    5    0  503 -0.44784321411E+02  0.39495687138E+01  0.87377327778E+01  0.46039901296E+02  0.47000000000E+01 0. -1.
<mgrwt>
<rscale>  0 0.27481436E+03</rscale>
<asrwt>0</asrwt>
<pdfrwt beam="1">  1        1 0.13260989E-01 0.27481436E+03</pdfrwt>
<pdfrwt beam="2">  1       -1 0.33698938E-01 0.27481436E+03</pdfrwt>
<totfact> 0.36492089E+03</totfact>
</mgrwt>
</event>
<event>
 9    1  0.2114844E-002  0.2740975E+03  0.7818608E-02  0.1098957E+00
         -4   -1    0    0    0  501 -0.00000000000E+00  0.00000000000E+00  0.23910571116E+03  0.23910571116E+03  0.00000000000E+00 0.  1.
          4   -1    0    0  501    0  0.00000000000E+00 -0.00000000000E+00 -0.78552523207E+02  0.78552523207E+02  0.00000000000E+00 0.  1.
         36    2    1    2    0    0  0.71054273576E-14  0.00000000000E+00  0.16055318796E+03  0.31765823437E+03  0.27409747846E+03 0.  0.
         25    2    3    3    0    0  0.34721665302E+02  0.17583016160E+02  0.12468062957E+03  0.18025957898E+03  0.12423163818E+03 0.  0.
         25    2    3    3    0    0 -0.34721665302E+02 -0.17583016160E+02  0.35872558388E+02  0.13739865539E+03  0.12679429624E+03 0.  0.
          5    1    4    4  502    0 -0.46410478250E+02  0.98452992325E+01  0.36120554310E+02  0.59813433709E+02  0.47000000000E+01 0.  1.
         -5    1    4    4    0  502  0.81132143552E+02  0.77377169273E+01  0.88560075260E+02  0.12044614527E+03  0.47000000000E+01 0.  1.
          5    1    5    5  503    0 -0.76052785719E+02 -0.22048429227E+02  0.49377401166E+02  0.93436487482E+02  0.47000000000E+01 0. -1.
         -5    1    5    5    0  503  0.41331120418E+02  0.44654130672E+01 -0.13504842779E+02  0.43962167910E+02  0.47000000000E+01 0. -1.
<mgrwt>
<rscale>  0 0.27409748E+03</rscale>
<asrwt>0</asrwt>
<pdfrwt beam="1">  1        4 0.12085004E-01 0.27409748E+03</pdfrwt>
<pdfrwt beam="2">  1       -4 0.36785494E-01 0.27409748E+03</pdfrwt>
<totfact> 0.73810627E+02</totfact>
</mgrwt>
</event>
<event>
 9    1  0.2114844E-002  0.2748546E+03  0.7818608E-02  0.1098533E+00
          2   -1    0    0  501    0  0.00000000000E+00  0.00000000000E+00  0.24837603172E+03  0.24837603172E+03  0.00000000000E+00 0. -1.
         -2   -1    0    0    0  501 -0.00000000000E+00 -0.00000000000E+00 -0.76038984059E+02  0.76038984059E+02  0.00000000000E+00 0. -1.
         36    2    1    2    0    0  0.17763568394E-14  0.71054273576E-14  0.17233704766E+03  0.32441501578E+03  0.27485458786E+03 0.  0.
         25    2    3    3    0    0 -0.49402633259E+01 -0.48899693388E+02  0.88096631062E+02  0.16185934755E+03  0.12657742994E+03 0.  0.
         25    2    3    3    0    0  0.49402633259E+01  0.48899693388E+02  0.84240416601E+02  0.16255566823E+03  0.13004734242E+03 0.  0.
          5    1    4    4  502    0  0.89382020892E+01 -0.63018658172E+02 -0.73713470588E+01  0.64246941498E+02  0.47000000000E+01 0. -1.
         -5    1    4    4    0  502 -0.13878465415E+02  0.14118964783E+02  0.95467978121E+02  0.97612406052E+02  0.47000000000E+01 0. -1.
          5    1    5    5  503    0 -0.56082595638E+02  0.46652746967E+02  0.66423219350E+02  0.98771809753E+02  0.47000000000E+01 0.  1.
         -5    1    5    5    0  503  0.61022858964E+02  0.22469464216E+01  0.17817197251E+02  0.63783858478E+02  0.47000000000E+01 0.  1.
<mgrwt>
<rscale>  0 0.27485459E+03</rscale>
<asrwt>0</asrwt>
<pdfrwt beam="1">  1        2 0.38211697E-01 0.27485459E+03</pdfrwt>
<pdfrwt beam="2">  1       -2 0.11698305E-01 0.27485459E+03</pdfrwt>
<totfact> 0.68687055E+03</totfact>
</mgrwt>
</event>
<event>
 9    1  0.2114844E-002  0.2751814E+03  0.7818608E-02  0.1098350E+00
          2   -1    0    0  501    0  0.00000000000E+00  0.00000000000E+00  0.35626946421E+03  0.35626946421E+03  0.00000000000E+00 0.  1.
         -2   -1    0    0    0  501 -0.00000000000E+00 -0.00000000000E+00 -0.53137303323E+02  0.53137303323E+02  0.00000000000E+00 0.  1.
         36    2    1    2    0    0 -0.71054273576E-14 -0.71054273576E-14  0.30313216088E+03  0.40940676753E+03  0.27518138443E+03 0.  0.
         25    2    3    3    0    0 -0.35976488322E+02  0.37086259871E+02  0.11204485800E+03  0.17524264557E+03  0.12444370711E+03 0.  0.
         25    2    3    3    0    0  0.35976488322E+02 -0.37086259871E+02  0.19108730289E+03  0.23416412196E+03  0.12509508506E+03 0.  0.
          5    1    4    4  502    0 -0.18183016532E+02 -0.29548027884E+02 -0.87296972885E+01  0.36083315490E+02  0.47000000000E+01 0. -1.
         -5    1    4    4    0  502 -0.17793471791E+02  0.66634287756E+02  0.12077455529E+03  0.13915933008E+03  0.47000000000E+01 0. -1.
          5    1    5    5  503    0 -0.39003068502E+02  0.59412040414E+01  0.25216370323E+02  0.47058395534E+02  0.47000000000E+01 0.  1.
         -5    1    5    5    0  503  0.74979556824E+02 -0.43027463913E+02  0.16587093256E+03  0.18710572643E+03  0.47000000000E+01 0.  1.
<mgrwt>
<rscale>  0 0.27518138E+03</rscale>
<asrwt>0</asrwt>
<pdfrwt beam="1">  1        2 0.54810685E-01 0.27518138E+03</pdfrwt>
<pdfrwt beam="2">  1       -2 0.81749700E-02 0.27518138E+03</pdfrwt>
<totfact> 0.82251005E+03</totfact>
</mgrwt>
</event>
<event>
 9    1  0.2114844E-002  0.2679101E+03  0.7818608E-02  0.1102482E+00
          2   -1    0    0  501    0  0.00000000000E+00  0.00000000000E+00  0.14246318873E+04  0.14246318873E+04  0.00000000000E+00 0.  1.
         -2   -1    0    0    0  501 -0.00000000000E+00 -0.00000000000E+00 -0.12595505958E+02  0.12595505958E+02  0.00000000000E+00 0.  1.
         36    2    1    2    0    0  0.10658141036E-13  0.14210854715E-13  0.14120363813E+04  0.14372273932E+04  0.26791012989E+03 0.  0.
         25    2    3    3    0    0 -0.29340853963E+02 -0.34250282528E+02  0.68845197807E+03  0.70093436408E+03  0.12372909548E+03 0.  0.
         25    2    3    3    0    0  0.29340853963E+02  0.34250282528E+02  0.72358440322E+03  0.73629302913E+03  0.12852652878E+03 0.  0.
          5    1    4    4  502    0  0.24094412101E+02  0.35714893311E+02  0.20943416100E+03  0.21387111094E+03  0.47000000000E+01 0. -1.
         -5    1    4    4    0  502 -0.53435266064E+02 -0.69965175839E+02  0.47901781707E+03  0.48706325314E+03  0.47000000000E+01 0. -1.
          5    1    5    5  503    0  0.45537526079E+02  0.55617773224E+02  0.21045121781E+03  0.22243832417E+03  0.47000000000E+01 0.  1.
         -5    1    5    5    0  503 -0.16196672116E+02 -0.21367490696E+02  0.51313318541E+03  0.51385470497E+03  0.47000000000E+01 0.  1.
<mgrwt>
<rscale>  0 0.26791013E+03</rscale>
<asrwt>0</asrwt>
<pdfrwt beam="1">  1        2 0.21917401E+00 0.26791013E+03</pdfrwt>
<pdfrwt beam="2">  1       -2 0.19377713E-02 0.26791013E+03</pdfrwt>
<totfact> 0.12123827E+04</totfact>
</mgrwt>
</event>
<event>
 9    1  0.2114844E-002  0.2757962E+03  0.7818608E-02  0.1098007E+00
         -2   -1    0    0    0  501 -0.00000000000E+00  0.00000000000E+00  0.63855719311E+02  0.63855719311E+02  0.00000000000E+00 0.  1.
          2   -1    0    0  501    0  0.00000000000E+00 -0.00000000000E+00 -0.29779458721E+03  0.29779458721E+03  0.00000000000E+00 0.  1.
         36    2    1    2    0    0  0.71054273576E-14  0.00000000000E+00 -0.23393886789E+03  0.36165030652E+03  0.27579621153E+03 0.  0.
         25    2    3    3    0    0 -0.51618958659E+02  0.27317139199E+02 -0.10785319758E+03  0.17288137318E+03  0.12183970608E+03 0.  0.
         25    2    3    3    0    0  0.51618958659E+02 -0.27317139199E+02 -0.12608567032E+03  0.18876893334E+03  0.12777077501E+03 0.  0.
          5    1    4    4  502    0 -0.45412168514E+02  0.73372143992E+02 -0.83664657172E+02  0.12028134279E+03  0.47000000000E+01 0.  1.
         -5    1    4    4    0  502 -0.62067901442E+01 -0.46055004794E+02 -0.24188540403E+02  0.52600030392E+02  0.47000000000E+01 0.  1.
          5    1    5    5  503    0  0.36657271293E+02  0.12214817870E+02  0.14770832912E+02  0.41632016756E+02  0.47000000000E+01 0.  1.
         -5    1    5    5    0  503  0.14961687366E+02 -0.39531957068E+02 -0.14085650323E+03  0.14713691658E+03  0.47000000000E+01 0.  1.
<mgrwt>
<rscale>  0 0.27579621E+03</rscale>
<asrwt>0</asrwt>
<pdfrwt beam="1">  1        2 0.45814552E-01 0.27579621E+03</pdfrwt>
<pdfrwt beam="2">  1       -2 0.98239568E-02 0.27579621E+03</pdfrwt>
<totfact> 0.74697179E+03</totfact>
</mgrwt>
</event>
<event>
 9    1  0.2114844E-002  0.2743952E+03  0.7818608E-02  0.1098790E+00
         -2   -1    0    0    0  501 -0.00000000000E+00  0.00000000000E+00  0.37192079320E+02  0.37192079320E+02  0.00000000000E+00 0.  1.
          2   -1    0    0  501    0  0.00000000000E+00 -0.00000000000E+00 -0.50610725297E+03  0.50610725297E+03  0.00000000000E+00 0.  1.
         36    2    1    2    0    0  0.00000000000E+00 -0.71054273576E-14 -0.46891517365E+03  0.54329933229E+03  0.27439519746E+03 0.  0.
         25    2    3    3    0    0 -0.32150673425E+02 -0.43248630457E+02 -0.24215594858E+03  0.27808511508E+03  0.12564918607E+03 0.  0.
         25    2    3    3    0    0  0.32150673425E+02  0.43248630457E+02 -0.22675922507E+03  0.26521421721E+03  0.12654929876E+03 0.  0.
          5    1    4    4  502    0  0.41702131221E+02 -0.22500003336E+02 -0.15368717365E+03  0.16089485773E+03  0.47000000000E+01 0.  1.
         -5    1    4    4    0  502 -0.73852804646E+02 -0.20748627121E+02 -0.88468774927E+02  0.11719025735E+03  0.47000000000E+01 0.  1.
          5    1    5    5  503    0  0.66454105404E+02  0.67829435965E+02 -0.15529641737E+03  0.18208802200E+03  0.47000000000E+01 0. -1.
         -5    1    5    5    0  503 -0.34303431979E+02 -0.24580805509E+02 -0.71462807698E+02  0.83126195204E+02  0.47000000000E+01 0. -1.
<mgrwt>
<rscale>  0 0.27439520E+03</rscale>
<asrwt>0</asrwt>
<pdfrwt beam="1">  1        2 0.77862658E-01 0.27439520E+03</pdfrwt>
<pdfrwt beam="2">  1       -2 0.57218581E-02 0.27439520E+03</pdfrwt>
<totfact> 0.97203116E+03</totfact>
</mgrwt>
</event>
<event>
 9    1  0.2114844E-002  0.2754092E+03  0.7818608E-02  0.1098223E+00
          2   -1    0    0  501    0  0.00000000000E+00  0.00000000000E+00  0.14259335601E+04  0.14259335601E+04  0.00000000000E+00 0. -1.
         -2   -1    0    0    0  501 -0.00000000000E+00 -0.00000000000E+00 -0.13298346999E+02  0.13298346999E+02  0.00000000000E+00 0. -1.
         36    2    1    2    0    0  0.00000000000E+00  0.00000000000E+00  0.14126352131E+04  0.14392319071E+04  0.27540921756E+03 0.  0.
         25    2    3    3    0    0  0.16977329947E+02  0.65534119854E+02  0.67898399828E+03  0.69311900605E+03  0.12170347586E+03 0.  0.
         25    2    3    3    0    0 -0.16977329947E+02 -0.65534119854E+02  0.73365121480E+03  0.74611290102E+03  0.11771748170E+03 0.  0.
          5    1    4    4  502    0 -0.46702376523E+02  0.19429572455E+02  0.15156307854E+03  0.15985017059E+03  0.47000000000E+01 0.  1.
         -5    1    4    4    0  502  0.63679706471E+02  0.46104547399E+02  0.52742091973E+03  0.53326883547E+03  0.47000000000E+01 0.  1.
          5    1    5    5  503    0  0.44413386827E+02 -0.99529649228E+01  0.15718026867E+03  0.16370503138E+03  0.47000000000E+01 0.  1.
         -5    1    5    5    0  503 -0.61390716774E+02 -0.55581154931E+02  0.57647094613E+03  0.58240786964E+03  0.47000000000E+01 0.  1.
<mgrwt>
<rscale>  0 0.27540922E+03</rscale>
<asrwt>0</asrwt>
<pdfrwt beam="1">  1        2 0.21937427E+00 0.27540922E+03</pdfrwt>
<pdfrwt beam="2">  1       -2 0.20459007E-02 0.27540922E+03</pdfrwt>
<totfact> 0.11182510E+04</totfact>
</mgrwt>
</event>
<event>
 9    1  0.2114844E-002  0.2746889E+03  0.7818608E-02  0.1098626E+00
          1   -1    0    0  501    0  0.00000000000E+00  0.00000000000E+00  0.11192436097E+04  0.11192436097E+04  0.00000000000E+00 0.  1.
         -1   -1    0    0    0  501 -0.00000000000E+00 -0.00000000000E+00 -0.16853790330E+02  0.16853790330E+02  0.00000000000E+00 0.  1.
         36    2    1    2    0    0  0.00000000000E+00  0.71054273576E-14  0.11023898194E+04  0.11360974000E+04  0.27468889404E+03 0.  0.
         25    2    3    3    0    0 -0.18393244566E+02 -0.45760084950E+02  0.69143783113E+03  0.70246818845E+03  0.11376723891E+03 0.  0.
         25    2    3    3    0    0  0.18393244566E+02  0.45760084950E+02  0.41095198825E+03  0.43362921159E+03  0.12930761647E+03 0.  0.
          5    1    4    4  502    0 -0.22512568924E+02  0.34911315386E+02  0.28554481364E+03  0.28858888803E+03  0.47000000000E+01 0.  1.
         -5    1    4    4    0  502  0.41193243573E+01 -0.80671400336E+02  0.40589301749E+03  0.41387930042E+03  0.47000000000E+01 0.  1.
          5    1    5    5  503    0  0.20872313151E+02  0.26802207048E+02  0.41245980099E+03  0.41388306222E+03  0.47000000000E+01 0.  1.
         -5    1    5    5    0  503 -0.24790685850E+01  0.18957877902E+02 -0.15078127416E+01  0.19746149368E+02  0.47000000000E+01 0.  1.
<mgrwt>
<rscale>  0 0.27468889E+03</rscale>
<asrwt>0</asrwt>
<pdfrwt beam="1">  1        1 0.17219127E+00 0.27468889E+03</pdfrwt>
<pdfrwt beam="2">  1       -1 0.25928917E-02 0.27468889E+03</pdfrwt>
<totfact> 0.61131483E+03</totfact>
</mgrwt>
</event>
<event>
 9    1  0.2114844E-002  0.2751329E+03  0.7818608E-02  0.1098377E+00
         -1   -1    0    0    0  501 -0.00000000000E+00  0.00000000000E+00  0.26290707599E+02  0.26290707599E+02  0.00000000000E+00 0. -1.
          1   -1    0    0  501    0  0.00000000000E+00 -0.00000000000E+00 -0.71981811135E+03  0.71981811135E+03  0.00000000000E+00 0. -1.
         36    2    1    2    0    0  0.71054273576E-14  0.00000000000E+00 -0.69352740376E+03  0.74610881895E+03  0.27513289509E+03 0.  0.
         25    2    3    3    0    0 -0.23168026116E+02  0.53756470233E+02 -0.41357635650E+03  0.43589670591E+03  0.12463554886E+03 0.  0.
         25    2    3    3    0    0  0.23168026116E+02 -0.53756470233E+02 -0.27995104726E+03  0.31021211305E+03  0.12013513514E+03 0.  0.
          5    1    4    4  502    0 -0.21120463863E+02  0.31769866877E+01 -0.28709173481E+01  0.22056731504E+02  0.47000000000E+01 0. -1.
         -5    1    4    4    0  502 -0.20475622534E+01  0.50579483545E+02 -0.41070543915E+03  0.41383997440E+03  0.47000000000E+01 0. -1.
          5    1    5    5  503    0  0.43041323587E+01 -0.59901703800E+02 -0.28322657072E+03  0.28956194508E+03  0.47000000000E+01 0.  1.
         -5    1    5    5    0  503  0.18863893758E+02  0.61452335666E+01  0.32755234639E+01  0.20650167972E+02  0.47000000000E+01 0.  1.
<mgrwt>
<rscale>  0 0.27513290E+03</rscale>
<asrwt>0</asrwt>
<pdfrwt beam="1">  1        1 0.11074123E+00 0.27513290E+03</pdfrwt>
<pdfrwt beam="2">  1       -1 0.40447250E-02 0.27513290E+03</pdfrwt>
<totfact> 0.65258017E+03</totfact>
</mgrwt>
</event>
<event>
 9    1  0.2114844E-002  0.2750605E+03  0.7818608E-02  0.1098418E+00
          2   -1    0    0  501    0  0.00000000000E+00  0.00000000000E+00  0.15457437521E+04  0.15457437521E+04  0.00000000000E+00 0.  1.
         -2   -1    0    0    0  501 -0.00000000000E+00 -0.00000000000E+00 -0.12236548507E+02  0.12236548507E+02  0.00000000000E+00 0.  1.
         36    2    1    2    0    0 -0.35527136788E-14  0.14210854715E-13  0.15335072035E+04  0.15579803006E+04  0.27506049081E+03 0.  0.
         25    2    3    3    0    0 -0.23321436818E+01  0.46442317477E+02  0.79665746482E+03  0.80768037367E+03  0.12458788869E+03 0.  0.
         25    2    3    3    0    0  0.23321436818E+01 -0.46442317477E+02  0.73684973872E+03  0.75029992689E+03  0.13356689367E+03 0.  0.
          5    1    4    4  502    0 -0.29089097247E+02  0.69660898162E+02  0.70892621275E+03  0.71294970470E+03  0.47000000000E+01 0. -1.
         -5    1    4    4    0  502  0.26756953565E+02 -0.23218580684E+02  0.87731252075E+02  0.94730668971E+02  0.47000000000E+01 0. -1.
          5    1    5    5  503    0 -0.61831605964E+02 -0.24639547807E+02  0.25072791890E+03  0.25945487879E+03  0.47000000000E+01 0.  1.
         -5    1    5    5    0  503  0.64163749646E+02 -0.21802769670E+02  0.48612181982E+03  0.49084504809E+03  0.47000000000E+01 0.  1.
<mgrwt>
<rscale>  0 0.27506049E+03</rscale>
<asrwt>0</asrwt>
<pdfrwt beam="1">  1        2 0.23780658E+00 0.27506049E+03</pdfrwt>
<pdfrwt beam="2">  1       -2 0.18825472E-02 0.27506049E+03</pdfrwt>
<totfact> 0.10899547E+04</totfact>
</mgrwt>
</event>
<event>
 9    1  0.2114844E-002  0.2744923E+03  0.7818608E-02  0.1098736E+00
          1   -1    0    0  501    0  0.00000000000E+00  0.00000000000E+00  0.10105704486E+03  0.10105704486E+03  0.00000000000E+00 0. -1.
         -1   -1    0    0    0  501 -0.00000000000E+00 -0.00000000000E+00 -0.18639484351E+03  0.18639484351E+03  0.00000000000E+00 0. -1.
         36    2    1    2    0    0  0.00000000000E+00  0.71054273576E-14 -0.85337798652E+02  0.28745188838E+03  0.27449234644E+03 0.  0.
         25    2    3    3    0    0  0.27633546173E+02 -0.36103954017E+02 -0.77555563820E+02  0.15413726244E+03  0.12520511900E+03 0.  0.
         25    2    3    3    0    0 -0.27633546173E+02  0.36103954017E+02 -0.77822348317E+01  0.13331462593E+03  0.12508044587E+03 0.  0.
          5    1    4    4  502    0 -0.37474764145E+01 -0.41434449180E+02  0.23548909656E+02  0.48036426848E+02  0.47000000000E+01 0.  1.
         -5    1    4    4    0  502  0.31381022588E+02  0.53304951631E+01 -0.10110447348E+03  0.10610083560E+03  0.47000000000E+01 0.  1.
          5    1    5    5  503    0  0.14026089550E+02  0.29423722076E+02  0.51058400912E+02  0.60758019327E+02  0.47000000000E+01 0. -1.
         -5    1    5    5    0  503 -0.41659635723E+02  0.66802319405E+01 -0.58840635743E+02  0.72556606605E+02  0.47000000000E+01 0. -1.
<mgrwt>
<rscale>  0 0.27449235E+03</rscale>
<asrwt>0</asrwt>
<pdfrwt beam="1">  1        1 0.15547238E-01 0.27449235E+03</pdfrwt>
<pdfrwt beam="2">  1       -1 0.28676130E-01 0.27449235E+03</pdfrwt>
<totfact> 0.39005059E+03</totfact>
</mgrwt>
</event>
<event>
 9    1  0.2114844E-002  0.2777099E+03  0.7818608E-02  0.1096946E+00
         -1   -1    0    0    0  501 -0.00000000000E+00  0.00000000000E+00  0.77355250593E+03  0.77355250593E+03  0.00000000000E+00 0.  1.
          1   -1    0    0  501    0  0.00000000000E+00 -0.00000000000E+00 -0.24924879348E+02  0.24924879348E+02  0.00000000000E+00 0.  1.
         36    2    1    2    0    0 -0.14210854715E-13  0.00000000000E+00  0.74862762658E+03  0.79847738528E+03  0.27770994134E+03 0.  0.
         25    2    3    3    0    0 -0.64528658512E+02  0.86262430879E+01  0.42430645376E+03  0.44676859932E+03  0.12380571391E+03 0.  0.
         25    2    3    3    0    0  0.64528658512E+02 -0.86262430879E+01  0.32432117282E+03  0.35170878596E+03  0.11948425479E+03 0.  0.
          5    1    4    4  502    0  0.62328050599E+01  0.36724233939E+02  0.39586217703E+02  0.54558920896E+02  0.47000000000E+01 0. -1.
         -5    1    4    4    0  502 -0.70761463572E+02 -0.28097990851E+02  0.38472023606E+03  0.39220967842E+03  0.47000000000E+01 0. -1.
          5    1    5    5  503    0  0.87800677515E+02 -0.35173875540E+02  0.18402348088E+03  0.20696108815E+03  0.47000000000E+01 0. -1.
         -5    1    5    5    0  503 -0.23272019003E+02  0.26547632452E+02  0.14029769195E+03  0.14474769782E+03  0.47000000000E+01 0. -1.
<mgrwt>
<rscale>  0 0.27770994E+03</rscale>
<asrwt>0</asrwt>
<pdfrwt beam="1">  1        1 0.38345974E-02 0.27770994E+03</pdfrwt>
<pdfrwt beam="2">  1       -1 0.11900806E+00 0.27770994E+03</pdfrwt>
<totfact> 0.16270387E+03</totfact>
</mgrwt>
</event>
<event>
 9    1  0.2114844E-002  0.2751425E+03  0.7818608E-02  0.1098372E+00
         -3   -1    0    0    0  501 -0.00000000000E+00  0.00000000000E+00  0.76083062129E+03  0.76083062129E+03  0.00000000000E+00 0.  1.
          3   -1    0    0  501    0  0.00000000000E+00 -0.00000000000E+00 -0.24875249934E+02  0.24875249934E+02  0.00000000000E+00 0.  1.
         36    2    1    2    0    0  0.35527136788E-14  0.14210854715E-13  0.73595537136E+03  0.78570587123E+03  0.27514252206E+03 0.  0.
         25    2    3    3    0    0  0.57400583183E+01 -0.53634352816E+02  0.38646384826E+03  0.41004611573E+03  0.12599174156E+03 0.  0.
         25    2    3    3    0    0 -0.57400583183E+01  0.53634352816E+02  0.34949152311E+03  0.37565975550E+03  0.12675304774E+03 0.  0.
          5    1    4    4  502    0  0.33985709717E+02 -0.27131183982E+02  0.33924449877E+02  0.55354204074E+02  0.47000000000E+01 0. -1.
         -5    1    4    4    0  502 -0.28245651399E+02 -0.26503168834E+02  0.35253939838E+03  0.35469191165E+03  0.47000000000E+01 0. -1.
          5    1    5    5  503    0  0.53672757072E+02  0.39999734758E+02  0.11326912936E+03  0.13165382372E+03  0.47000000000E+01 0.  1.
         -5    1    5    5    0  503 -0.59412815390E+02  0.13634618058E+02  0.23622239374E+03  0.24400593179E+03  0.47000000000E+01 0.  1.
<mgrwt>
<rscale>  0 0.27514252E+03</rscale>
<asrwt>0</asrwt>
<pdfrwt beam="1">  1        3 0.38269621E-02 0.27514252E+03</pdfrwt>
<pdfrwt beam="2">  1       -3 0.11705085E+00 0.27514252E+03</pdfrwt>
<totfact> 0.55373647E+02</totfact>
</mgrwt>
</event>
<event>
 9    1  0.2114844E-002  0.2751936E+03  0.7818608E-02  0.1098343E+00
          1   -1    0    0  501    0  0.00000000000E+00  0.00000000000E+00  0.24034391324E+03  0.24034391324E+03  0.00000000000E+00 0.  1.
         -1   -1    0    0    0  501 -0.00000000000E+00 -0.00000000000E+00 -0.78774102924E+02  0.78774102924E+02  0.00000000000E+00 0.  1.
         36    2    1    2    0    0  0.00000000000E+00  0.00000000000E+00  0.16156981032E+03  0.31911801617E+03  0.27519357666E+03 0.  0.
         25    2    3    3    0    0  0.48572825517E+02 -0.17261632705E+02  0.10263849538E+03  0.17169569934E+03  0.12762236910E+03 0.  0.
         25    2    3    3    0    0 -0.48572825517E+02  0.17261632705E+02  0.58931314940E+02  0.14742231683E+03  0.12491259455E+03 0.  0.
          5    1    4    4  502    0  0.86250501482E+02  0.98162104564E+01  0.85713495217E+02  0.12208357898E+03  0.47000000000E+01 0.  1.
         -5    1    4    4    0  502 -0.37677675964E+02 -0.27077843161E+02  0.16925000164E+02  0.49612120363E+02  0.47000000000E+01 0.  1.
          5    1    5    5  503    0 -0.72389424207E+02  0.40658798964E+02  0.43570529564E+01  0.83273288518E+02  0.47000000000E+01 0. -1.
         -5    1    5    5    0  503  0.23816598690E+02 -0.23397166259E+02  0.54574261984E+02  0.64149028310E+02  0.47000000000E+01 0. -1.
<mgrwt>
<rscale>  0 0.27519358E+03</rscale>
<asrwt>0</asrwt>
<pdfrwt beam="1">  1        1 0.36975986E-01 0.27519358E+03</pdfrwt>
<pdfrwt beam="2">  1       -1 0.12119093E-01 0.27519358E+03</pdfrwt>
<totfact> 0.52007237E+03</totfact>
</mgrwt>
</event>
<event>
 9    1  0.2114844E-002  0.2750409E+03  0.7818608E-02  0.1098429E+00
         -1   -1    0    0    0  501 -0.00000000000E+00  0.00000000000E+00  0.20493720525E+03  0.20493720525E+03  0.00000000000E+00 0.  1.
          1   -1    0    0  501    0  0.00000000000E+00 -0.00000000000E+00 -0.92281328453E+02  0.92281328453E+02  0.00000000000E+00 0.  1.
         36    2    1    2    0    0  0.14210854715E-13 -0.14210854715E-13  0.11265587679E+03  0.29721853370E+03  0.27504092459E+03 0.  0.
         25    2    3    3    0    0 -0.44529728803E+02  0.44793775756E+02  0.68070199222E+02  0.15066586168E+03  0.11864767490E+03 0.  0.
         25    2    3    3    0    0  0.44529728803E+02 -0.44793775756E+02  0.44585677572E+02  0.14655267202E+03  0.12450069855E+03 0.  0.
          5    1    4    4  502    0 -0.58632444040E+02  0.43143773215E+02 -0.77750193353E+01  0.73359999912E+02  0.47000000000E+01 0. -1.
         -5    1    4    4    0  502  0.14102715237E+02  0.16500025409E+01  0.75845218557E+02  0.77305861766E+02  0.47000000000E+01 0. -1.
          5    1    5    5  503    0  0.77722894083E+02 -0.47380086712E+02  0.55140673732E+00  0.91148861380E+02  0.47000000000E+01 0. -1.
         -5    1    5    5    0  503 -0.33193165280E+02  0.25863109562E+01  0.44034270835E+02  0.55403810642E+02  0.47000000000E+01 0. -1.
<mgrwt>
<rscale>  0 0.27504092E+03</rscale>
<asrwt>0</asrwt>
<pdfrwt beam="1">  1        1 0.14197128E-01 0.27504092E+03</pdfrwt>
<pdfrwt beam="2">  1       -1 0.31528801E-01 0.27504092E+03</pdfrwt>
<totfact> 0.37398567E+03</totfact>
</mgrwt>
</event>
<event>
 9    1  0.2114844E-002  0.2750883E+03  0.7818608E-02  0.1098402E+00
          2   -1    0    0  501    0  0.00000000000E+00  0.00000000000E+00  0.62801358825E+03  0.62801358825E+03  0.00000000000E+00 0.  1.
         -2   -1    0    0    0  501 -0.00000000000E+00 -0.00000000000E+00 -0.30124169872E+02  0.30124169872E+02  0.00000000000E+00 0.  1.
         36    2    1    2    0    0  0.71054273576E-14  0.71054273576E-14  0.59788941838E+03  0.65813775812E+03  0.27508826230E+03 0.  0.
         25    2    3    3    0    0 -0.12138111975E+02  0.39425604793E+02  0.38467659806E+03  0.40649061362E+03  0.12472698901E+03 0.  0.
         25    2    3    3    0    0  0.12138111975E+02 -0.39425604793E+02  0.21321282032E+03  0.25164714451E+03  0.12714112833E+03 0.  0.
          5    1    4    4  502    0  0.29442325454E+02  0.65765551396E+02  0.14764287222E+03  0.16435469569E+03  0.47000000000E+01 0.  1.
         -5    1    4    4    0  502 -0.41580437429E+02 -0.26339946603E+02  0.23703372584E+03  0.24213591792E+03  0.47000000000E+01 0.  1.
          5    1    5    5  503    0 -0.55281132766E+02 -0.27056243359E+02  0.12864801645E+03  0.14269003497E+03  0.47000000000E+01 0. -1.
         -5    1    5    5    0  503  0.67419244742E+02 -0.12369361434E+02  0.84564803871E+02  0.10895710953E+03  0.47000000000E+01 0. -1.
<mgrwt>
<rscale>  0 0.27508826E+03</rscale>
<asrwt>0</asrwt>
<pdfrwt beam="1">  1        2 0.96617465E-01 0.27508826E+03</pdfrwt>
<pdfrwt beam="2">  1       -2 0.46344881E-02 0.27508826E+03</pdfrwt>
<totfact> 0.10462366E+04</totfact>
</mgrwt>
</event>
<event>
 9    1  0.2114844E-002  0.2737129E+03  0.7818608E-02  0.1099173E+00
         -1   -1    0    0    0  501 -0.00000000000E+00  0.00000000000E+00  0.32152928429E+02  0.32152928429E+02  0.00000000000E+00 0. -1.
          1   -1    0    0  501    0  0.00000000000E+00 -0.00000000000E+00 -0.58251905382E+03  0.58251905382E+03  0.00000000000E+00 0. -1.
         36    2    1    2    0    0  0.00000000000E+00 -0.53290705182E-14 -0.55036612540E+03  0.61467198225E+03  0.27371294048E+03 0.  0.
         25    2    3    3    0    0  0.32908723672E+02  0.61638389271E+01 -0.31584864566E+03  0.34677133863E+03  0.13917261701E+03 0.  0.
         25    2    3    3    0    0 -0.32908723672E+02 -0.61638389271E+01 -0.23451747974E+03  0.26790064362E+03  0.12510527386E+03 0.  0.
          5    1    4    4  502    0  0.66090368720E+02  0.46766568501E+02 -0.12670175565E+03  0.15043428350E+03  0.47000000000E+01 0.  1.
         -5    1    4    4    0  502 -0.33181645048E+02 -0.40602729574E+02 -0.18914689001E+03  0.19633705513E+03  0.47000000000E+01 0.  1.
          5    1    5    5  503    0 -0.80347799762E+02  0.25769271230E+01 -0.13460303353E+03  0.15685176478E+03  0.47000000000E+01 0.  1.
         -5    1    5    5    0  503  0.47439076090E+02 -0.87407660501E+01 -0.99914446203E+02  0.11104887884E+03  0.47000000000E+01 0.  1.
<mgrwt>
<rscale>  0 0.27371294E+03</rscale>
<asrwt>0</asrwt>
<pdfrwt beam="1">  1        1 0.89618316E-01 0.27371294E+03</pdfrwt>
<pdfrwt beam="2">  1       -1 0.49466044E-02 0.27371294E+03</pdfrwt>
<totfact> 0.65293851E+03</totfact>
</mgrwt>
</event>
<event>
 9    1  0.2114844E-002  0.2751353E+03  0.7818608E-02  0.1098376E+00
         -1   -1    0    0    0  501 -0.00000000000E+00  0.00000000000E+00  0.20487277661E+02  0.20487277661E+02  0.00000000000E+00 0. -1.
          1   -1    0    0  501    0  0.00000000000E+00 -0.00000000000E+00 -0.92373699848E+03  0.92373699848E+03  0.00000000000E+00 0. -1.
         36    2    1    2    0    0 -0.35527136788E-14 -0.71054273576E-14 -0.90324972082E+03  0.94422427614E+03  0.27513528580E+03 0.  0.
         25    2    3    3    0    0  0.32059043534E+01  0.52528068477E+02 -0.59218896161E+03  0.60664864175E+03  0.12068691925E+03 0.  0.
         25    2    3    3    0    0 -0.32059043534E+01 -0.52528068477E+02 -0.31106075921E+03  0.33757563440E+03  0.12012092747E+03 0.  0.
          5    1    4    4  502    0  0.28149757538E+02 -0.28110501280E+02 -0.10917342637E+03  0.11629073977E+03  0.47000000000E+01 0.  1.
         -5    1    4    4    0  502 -0.24943853184E+02  0.80638569757E+02 -0.48301553524E+03  0.49035790197E+03  0.47000000000E+01 0.  1.
          5    1    5    5  503    0 -0.40559645970E+02  0.22912559188E+02 -0.10911204831E+03  0.11873331182E+03  0.47000000000E+01 0. -1.
         -5    1    5    5    0  503  0.37353741617E+02 -0.75440627666E+02 -0.20194871090E+03  0.21884232257E+03  0.47000000000E+01 0. -1.
<mgrwt>
<rscale>  0 0.27513529E+03</rscale>
<asrwt>0</asrwt>
<pdfrwt beam="1">  1        1 0.14211337E+00 0.27513529E+03</pdfrwt>
<pdfrwt beam="2">  1       -1 0.31518893E-02 0.27513529E+03</pdfrwt>
<totfact> 0.64069203E+03</totfact>
</mgrwt>
</event>
<event>
 9    1  0.2114844E-002  0.2752869E+03  0.7818608E-02  0.1098291E+00
         -2   -1    0    0    0  501 -0.00000000000E+00  0.00000000000E+00  0.12240001810E+02  0.12240001810E+02  0.00000000000E+00 0. -1.
          2   -1    0    0  501    0  0.00000000000E+00 -0.00000000000E+00 -0.15478527753E+04  0.15478527753E+04  0.00000000000E+00 0. -1.
         36    2    1    2    0    0  0.00000000000E+00  0.00000000000E+00 -0.15356127735E+04  0.15600927771E+04  0.27528691049E+03 0.  0.
         25    2    3    3    0    0  0.32196362933E+02  0.54560767017E+01 -0.52766981148E+03  0.54418779957E+03  0.12899052946E+03 0.  0.
         25    2    3    3    0    0 -0.32196362933E+02 -0.54560767017E+01 -0.10079429620E+04  0.10159049775E+04  0.12266839110E+03 0.  0.
          5    1    4    4  502    0  0.55313189715E+02  0.40735437165E+02 -0.45380629306E+03  0.45900018128E+03  0.47000000000E+01 0.  1.
         -5    1    4    4    0  502 -0.23116826782E+02 -0.35279360464E+02 -0.73863518422E+02  0.85187618284E+02  0.47000000000E+01 0.  1.
          5    1    5    5  503    0 -0.36974815556E+02 -0.60594384308E+01 -0.85854967749E+02  0.93792426489E+02  0.47000000000E+01 0.  1.
         -5    1    5    5    0  503  0.47784526230E+01  0.60336172911E+00 -0.92208799426E+03  0.92211255106E+03  0.47000000000E+01 0.  1.
<mgrwt>
<rscale>  0 0.27528691E+03</rscale>
<asrwt>0</asrwt>
<pdfrwt beam="1">  1        2 0.23813125E+00 0.27528691E+03</pdfrwt>
<pdfrwt beam="2">  1       -2 0.18830768E-02 0.27528691E+03</pdfrwt>
<totfact> 0.10867063E+04</totfact>
</mgrwt>
</event>
<event>
 9    1  0.2114844E-002  0.2741855E+03  0.7818608E-02  0.1098908E+00
         -1   -1    0    0    0  501 -0.00000000000E+00  0.00000000000E+00  0.87914332731E+02  0.87914332731E+02  0.00000000000E+00 0.  1.
          1   -1    0    0  501    0  0.00000000000E+00 -0.00000000000E+00 -0.21378108994E+03  0.21378108994E+03  0.00000000000E+00 0.  1.
         36    2    1    2    0    0  0.35527136788E-14 -0.17763568394E-14 -0.12586675721E+03  0.30169542267E+03  0.27418549832E+03 0.  0.
         25    2    3    3    0    0  0.67459142242E+01  0.54011703469E+01  0.56153176197E+01  0.12317158252E+03  0.12273967145E+03 0.  0.
         25    2    3    3    0    0 -0.67459142242E+01 -0.54011703469E+01 -0.13148207483E+03  0.17852384015E+03  0.12045142383E+03 0.  0.
          5    1    4    4  502    0  0.33682357112E+02  0.20705199037E+02 -0.47206035231E+02  0.61755212007E+02  0.47000000000E+01 0.  1.
         -5    1    4    4    0  502 -0.26936442888E+02 -0.15304028690E+02  0.52821352850E+02  0.61416370510E+02  0.47000000000E+01 0.  1.
          5    1    5    5  503    0 -0.59226052237E+02 -0.29732554671E+01 -0.10204910914E+03  0.11812144678E+03  0.47000000000E+01 0.  1.
         -5    1    5    5    0  503  0.52480138013E+02 -0.24279148799E+01 -0.29432965685E+02  0.60402393376E+02  0.47000000000E+01 0.  1.
<mgrwt>
<rscale>  0 0.27418550E+03</rscale>
<asrwt>0</asrwt>
<pdfrwt beam="1">  1        1 0.32889398E-01 0.27418550E+03</pdfrwt>
<pdfrwt beam="2">  1       -1 0.13525282E-01 0.27418550E+03</pdfrwt>
<totfact> 0.50715747E+03</totfact>
</mgrwt>
</event>
<event>
 9    1  0.2114844E-002  0.2738112E+03  0.7818608E-02  0.1099118E+00
         -2   -1    0    0    0  501 -0.00000000000E+00  0.00000000000E+00  0.90603767514E+03  0.90603767514E+03  0.00000000000E+00 0. -1.
          2   -1    0    0  501    0  0.00000000000E+00 -0.00000000000E+00 -0.20686929269E+02  0.20686929269E+02  0.00000000000E+00 0. -1.
         36    2    1    2    0    0  0.00000000000E+00  0.00000000000E+00  0.88535074587E+03  0.92672460441E+03  0.27381115610E+03 0.  0.
         25    2    3    3    0    0 -0.48341679703E+02 -0.11355124534E+02  0.35553431807E+03  0.37865091146E+03  0.12044087584E+03 0.  0.
         25    2    3    3    0    0  0.48341679703E+02  0.11355124534E+02  0.52981642780E+03  0.54807369295E+03  0.13120011008E+03 0.  0.
          5    1    4    4  502    0  0.23446378188E+02 -0.25516126548E+01  0.10769179124E+02  0.26349736171E+02  0.47000000000E+01 0.  1.
         -5    1    4    4    0  502 -0.71788057891E+02 -0.88035118794E+01  0.34476513895E+03  0.35230117529E+03  0.47000000000E+01 0.  1.
          5    1    5    5  503    0 -0.18015544418E+02  0.55796761701E+02  0.18635500822E+03  0.19541780253E+03  0.47000000000E+01 0.  1.
         -5    1    5    5    0  503  0.66357224121E+02 -0.44441637167E+02  0.34346141958E+03  0.35265589042E+03  0.47000000000E+01 0.  1.
<mgrwt>
<rscale>  0 0.27381116E+03</rscale>
<asrwt>0</asrwt>
<pdfrwt beam="1">  1        2 0.31826052E-02 0.27381116E+03</pdfrwt>
<pdfrwt beam="2">  1       -2 0.13939038E+00 0.27381116E+03</pdfrwt>
<totfact> 0.11061714E+03</totfact>
</mgrwt>
</event>
<event>
 9    1  0.2114844E-002  0.2754651E+03  0.7818608E-02  0.1098192E+00
          2   -1    0    0  501    0  0.00000000000E+00  0.00000000000E+00  0.32651747236E+03  0.32651747236E+03  0.00000000000E+00 0.  1.
         -2   -1    0    0    0  501 -0.00000000000E+00 -0.00000000000E+00 -0.58098760249E+02  0.58098760249E+02  0.00000000000E+00 0.  1.
         36    2    1    2    0    0 -0.71054273576E-14  0.00000000000E+00  0.26841871211E+03  0.38461623261E+03  0.27546513641E+03 0.  0.
         25    2    3    3    0    0 -0.31588989311E+02 -0.52308570254E+02  0.99513941056E+02  0.16789012687E+03  0.12062346152E+03 0.  0.
         25    2    3    3    0    0  0.31588989311E+02  0.52308570254E+02  0.16890477106E+03  0.21672610574E+03  0.12127379130E+03 0.  0.
          5    1    4    4  502    0 -0.42130409682E+02 -0.30933375854E+02  0.12323126749E+03  0.13393983892E+03  0.47000000000E+01 0. -1.
         -5    1    4    4    0  502  0.10541420371E+02 -0.21375194400E+02 -0.23717326434E+02  0.33950287955E+02  0.47000000000E+01 0. -1.
          5    1    5    5  503    0 -0.12068193252E+02 -0.86227405172E+01 -0.12776916029E+02  0.20132871767E+02  0.47000000000E+01 0.  1.
         -5    1    5    5    0  503  0.43657182562E+02  0.60931310771E+02  0.18168168709E+03  0.19659323397E+03  0.47000000000E+01 0.  1.
<mgrwt>
<rscale>  0 0.27546514E+03</rscale>
<asrwt>0</asrwt>
<pdfrwt beam="1">  1        2 0.50233456E-01 0.27546514E+03</pdfrwt>
<pdfrwt beam="2">  1       -2 0.89382710E-02 0.27546514E+03</pdfrwt>
<totfact> 0.78549526E+03</totfact>
</mgrwt>
</event>
<event>
 9    1  0.2114844E-002  0.2749966E+03  0.7818608E-02  0.1098454E+00
          2   -1    0    0  501    0  0.00000000000E+00  0.00000000000E+00  0.31462459112E+04  0.31462459112E+04  0.00000000000E+00 0. -1.
         -2   -1    0    0    0  501 -0.00000000000E+00 -0.00000000000E+00 -0.60089957208E+01  0.60089957208E+01  0.00000000000E+00 0. -1.
         36    2    1    2    0    0  0.71054273576E-14  0.00000000000E+00  0.31402369155E+04  0.31522549069E+04  0.27499656883E+03 0.  0.
         25    2    3    3    0    0 -0.39109215463E+01 -0.58777511895E+02  0.15755257603E+04  0.15815647201E+04  0.12488174834E+03 0.  0.
         25    2    3    3    0    0  0.39109215463E+01  0.58777511895E+02  0.15647111552E+04  0.15706901869E+04  0.12359843379E+03 0.  0.
          5    1    4    4  502    0 -0.50018690029E+02 -0.73513325126E+02  0.95975639293E+03  0.96387784604E+03  0.47000000000E+01 0. -1.
         -5    1    4    4    0  502  0.46107768483E+02  0.14735813231E+02  0.61576936741E+03  0.61768687403E+03  0.47000000000E+01 0. -1.
          5    1    5    5  503    0  0.56976993867E+02  0.14987265237E+01  0.54876322522E+03  0.55173525478E+03  0.47000000000E+01 0. -1.
         -5    1    5    5    0  503 -0.53066072321E+02  0.57278785371E+02  0.10159479299E+04  0.10189549321E+04  0.47000000000E+01 0. -1.
<mgrwt>
<rscale>  0 0.27499657E+03</rscale>
<asrwt>0</asrwt>
<pdfrwt beam="1">  1        2 0.48403652E+00 0.27499657E+03</pdfrwt>
<pdfrwt beam="2">  1       -2 0.92446339E-03 0.27499657E+03</pdfrwt>
<totfact> 0.40663319E+03</totfact>
</mgrwt>
</event>
<event>
 9    1  0.2114844E-002  0.2743608E+03  0.7818608E-02  0.1098809E+00
         -3   -1    0    0    0  501 -0.00000000000E+00  0.00000000000E+00  0.13372719096E+03  0.13372719096E+03  0.00000000000E+00 0.  1.
          3   -1    0    0  501    0  0.00000000000E+00 -0.00000000000E+00 -0.14072274242E+03  0.14072274242E+03  0.00000000000E+00 0.  1.
         36    2    1    2    0    0  0.35527136788E-14  0.00000000000E+00 -0.69955514602E+01  0.27444993338E+03  0.27436076285E+03 0.  0.
         25    2    3    3    0    0  0.18280283138E+02 -0.36595494194E+02  0.11318891483E+02  0.13916817285E+03  0.13253778360E+03 0.  0.
         25    2    3    3    0    0 -0.18280283138E+02  0.36595494194E+02 -0.18314442943E+02  0.13528176053E+03  0.12764143906E+03 0.  0.
          5    1    4    4  502    0  0.89443234058E+01  0.49727436231E+02 -0.38989975374E+01  0.50893133300E+02  0.47000000000E+01 0. -1.
         -5    1    4    4    0  502  0.93359597318E+01 -0.86322930425E+02  0.15217889020E+02  0.88275039550E+02  0.47000000000E+01 0. -1.
          5    1    5    5  503    0 -0.71920454157E+02  0.73839568538E+01 -0.14619339474E+02  0.73911363346E+02  0.47000000000E+01 0.  1.
         -5    1    5    5    0  503  0.53640171019E+02  0.29211537341E+02 -0.36951034693E+01  0.61370397183E+02  0.47000000000E+01 0.  1.
<mgrwt>
<rscale>  0 0.27436076E+03</rscale>
<asrwt>0</asrwt>
<pdfrwt beam="1">  1        3 0.21649653E-01 0.27436076E+03</pdfrwt>
<pdfrwt beam="2">  1       -3 0.20573414E-01 0.27436076E+03</pdfrwt>
<totfact> 0.10572713E+03</totfact>
</mgrwt>
</event>
<event>
 9    1  0.2114844E-002  0.2752539E+03  0.7818608E-02  0.1098310E+00
          2   -1    0    0  501    0  0.00000000000E+00  0.00000000000E+00  0.22814114019E+04  0.22814114019E+04  0.00000000000E+00 0.  1.
         -2   -1    0    0    0  501 -0.00000000000E+00 -0.00000000000E+00 -0.83023936843E+01  0.83023936843E+01  0.00000000000E+00 0.  1.
         36    2    1    2    0    0 -0.14210854715E-13  0.17763568394E-14  0.22731090082E+04  0.22897137955E+04  0.27525388727E+03 0.  0.
         25    2    3    3    0    0  0.34982183346E+02  0.22212365057E+01  0.14857038435E+04  0.14915548967E+04  0.12724547975E+03 0.  0.
         25    2    3    3    0    0 -0.34982183346E+02 -0.22212365057E+01  0.78740516466E+03  0.79815889887E+03  0.12578572044E+03 0.  0.
          5    1    4    4  502    0  0.83163099844E+02  0.34648029369E+01  0.97798870550E+03  0.98153558475E+03  0.47000000000E+01 0. -1.
         -5    1    4    4    0  502 -0.48180916499E+02 -0.12435664313E+01  0.50771513801E+03  0.51001931193E+03  0.47000000000E+01 0. -1.
          5    1    5    5  503    0 -0.55601287114E+02 -0.34406854563E+02  0.22285633613E+03  0.23229802264E+03  0.47000000000E+01 0. -1.
         -5    1    5    5    0  503  0.20619103769E+02  0.32185618057E+02  0.56454882853E+03  0.56586087623E+03  0.47000000000E+01 0. -1.
<mgrwt>
<rscale>  0 0.27525389E+03</rscale>
<asrwt>0</asrwt>
<pdfrwt beam="1">  1        2 0.35098587E+00 0.27525389E+03</pdfrwt>
<pdfrwt beam="2">  1       -2 0.12772932E-02 0.27525389E+03</pdfrwt>
<totfact> 0.78624730E+03</totfact>
</mgrwt>
</event>
<event>
 9    1  0.2114844E-002  0.2746830E+03  0.7818608E-02  0.1098629E+00
          2   -1    0    0  501    0  0.00000000000E+00  0.00000000000E+00  0.14624358747E+03  0.14624358747E+03  0.00000000000E+00 0. -1.
         -2   -1    0    0    0  501 -0.00000000000E+00 -0.00000000000E+00 -0.12898134004E+03  0.12898134004E+03  0.00000000000E+00 0. -1.
         36    2    1    2    0    0  0.00000000000E+00 -0.35527136788E-14  0.17262247428E+02  0.27522492751E+03  0.27468304560E+03 0.  0.
         25    2    3    3    0    0 -0.55992638117E+02  0.67797296769E+01  0.31409308522E+01  0.13621751783E+03  0.12395243627E+03 0.  0.
         25    2    3    3    0    0  0.55992638117E+02 -0.67797296769E+01  0.14121316576E+02  0.13900740969E+03  0.12626364523E+03 0.  0.
          5    1    4    4  502    0 -0.63767427308E+02  0.33420086797E+02 -0.41657617567E+02  0.83310468060E+02  0.47000000000E+01 0. -1.
         -5    1    4    4    0  502  0.77747891910E+01 -0.26640357120E+02  0.44798548420E+02  0.52907049766E+02  0.47000000000E+01 0. -1.
          5    1    5    5  503    0  0.18975577798E+02 -0.57957294935E+02  0.37209107013E+02  0.71594191340E+02  0.47000000000E+01 0.  1.
         -5    1    5    5    0  503  0.37017060319E+02  0.51177565259E+02 -0.23087790437E+02  0.67413218346E+02  0.47000000000E+01 0.  1.
<mgrwt>
<rscale>  0 0.27468305E+03</rscale>
<asrwt>0</asrwt>
<pdfrwt beam="1">  1        2 0.22499014E-01 0.27468305E+03</pdfrwt>
<pdfrwt beam="2">  1       -2 0.19843283E-01 0.27468305E+03</pdfrwt>
<totfact> 0.51308038E+03</totfact>
</mgrwt>
</event>
<event>
 9    1  0.2114844E-002  0.2733450E+03  0.7818608E-02  0.1099380E+00
         -1   -1    0    0    0  501 -0.00000000000E+00  0.00000000000E+00  0.15620870481E+04  0.15620870481E+04  0.00000000000E+00 0.  1.
          1   -1    0    0  501    0  0.00000000000E+00 -0.00000000000E+00 -0.11957954456E+02  0.11957954456E+02  0.00000000000E+00 0.  1.
         36    2    1    2    0    0  0.71054273576E-14 -0.14210854715E-13  0.15501290937E+04  0.15740450026E+04  0.27334495261E+03 0.  0.
         25    2    3    3    0    0  0.25815866449E+02 -0.32391384012E+02  0.91277782764E+03  0.92302500686E+03  0.13075220818E+03 0.  0.
         25    2    3    3    0    0 -0.25815866449E+02  0.32391384012E+02  0.63735126605E+03  0.65101999574E+03  0.12607433442E+03 0.  0.
          5    1    4    4  502    0 -0.22916836561E+02 -0.16498172672E+02  0.78138699827E+03  0.78191118560E+03  0.47000000000E+01 0. -1.
         -5    1    4    4    0  502  0.48732703010E+02 -0.15893211341E+02  0.13139082937E+03  0.14111382127E+03  0.47000000000E+01 0. -1.
          5    1    5    5  503    0 -0.72349617406E+02  0.56212344698E+01  0.45834358960E+03  0.46407650397E+03  0.47000000000E+01 0.  1.
         -5    1    5    5    0  503  0.46533750957E+02  0.26770149542E+02  0.17900767646E+03  0.18694349177E+03  0.47000000000E+01 0.  1.
<mgrwt>
<rscale>  0 0.27334495E+03</rscale>
<asrwt>0</asrwt>
<pdfrwt beam="1">  1        1 0.18396865E-02 0.27334495E+03</pdfrwt>
<pdfrwt beam="2">  1       -1 0.24032092E+00 0.27334495E+03</pdfrwt>
<totfact> 0.62214229E+02</totfact>
</mgrwt>
</event>
<event>
 9    1  0.2114844E-002  0.2749753E+03  0.7818608E-02  0.1098465E+00
         -1   -1    0    0    0  501 -0.00000000000E+00  0.00000000000E+00  0.21843967347E+04  0.21843967347E+04  0.00000000000E+00 0. -1.
          1   -1    0    0  501    0  0.00000000000E+00 -0.00000000000E+00 -0.86535811423E+01  0.86535811423E+01  0.00000000000E+00 0. -1.
         36    2    1    2    0    0  0.00000000000E+00  0.00000000000E+00  0.21757431535E+04  0.21930503158E+04  0.27497530355E+03 0.  0.
         25    2    3    3    0    0 -0.32847711361E+02  0.43360662951E+02  0.12471614392E+04  0.12546567150E+04  0.12566900082E+03 0.  0.
         25    2    3    3    0    0  0.32847711361E+02 -0.43360662951E+02  0.92858171429E+03  0.93839360080E+03  0.12393317021E+03 0.  0.
          5    1    4    4  502    0 -0.22079128920E+02 -0.85841684298E+01  0.10543145943E+04  0.10545911671E+04  0.47000000000E+01 0.  1.
         -5    1    4    4    0  502 -0.10768582441E+02  0.51944831381E+02  0.19284684490E+03  0.20006554792E+03  0.47000000000E+01 0.  1.
          5    1    5    5  503    0  0.35009855720E+02  0.20772930260E+02  0.69218843241E+03  0.69340040423E+03  0.47000000000E+01 0.  1.
         -5    1    5    5    0  503 -0.21621443586E+01 -0.64133593212E+02  0.23639328188E+03  0.24499319657E+03  0.47000000000E+01 0.  1.
<mgrwt>
<rscale>  0 0.27497530E+03</rscale>
<asrwt>0</asrwt>
<pdfrwt beam="1">  1        1 0.13313219E-02 0.27497530E+03</pdfrwt>
<pdfrwt beam="2">  1       -1 0.33606060E+00 0.27497530E+03</pdfrwt>
<totfact> 0.24688878E+02</totfact>
</mgrwt>
</event>
<event>
 9    1  0.2114844E-002  0.2755064E+03  0.7818608E-02  0.1098169E+00
         -2   -1    0    0    0  501 -0.00000000000E+00  0.00000000000E+00  0.93267817310E+01  0.93267817310E+01  0.00000000000E+00 0.  1.
          2   -1    0    0  501    0  0.00000000000E+00 -0.00000000000E+00 -0.20345646289E+04  0.20345646289E+04  0.00000000000E+00 0.  1.
         36    2    1    2    0    0  0.00000000000E+00 -0.35527136788E-14 -0.20252378472E+04  0.20438914107E+04  0.27550637170E+03 0.  0.
         25    2    3    3    0    0  0.31238076851E+02  0.12868690060E+02 -0.14156743815E+04  0.14215950054E+04  0.12512787209E+03 0.  0.
         25    2    3    3    0    0 -0.31238076851E+02 -0.12868690060E+02 -0.60956346575E+03  0.62229640529E+03  0.12059758136E+03 0.  0.
          5    1    4    4  502    0  0.26315167418E+02  0.53756616383E+02 -0.34977642398E+03  0.35489138988E+03  0.47000000000E+01 0.  1.
         -5    1    4    4    0  502  0.49229094337E+01 -0.40887926323E+02 -0.10658979575E+04  0.10667036155E+04  0.47000000000E+01 0.  1.
          5    1    5    5  503    0 -0.19620580892E+02  0.67838680945E+01 -0.12311213979E+02  0.24589510985E+02  0.47000000000E+01 0. -1.
         -5    1    5    5    0  503 -0.11617495959E+02 -0.19652558155E+02 -0.59725225177E+03  0.59770689431E+03  0.47000000000E+01 0. -1.
<mgrwt>
<rscale>  0 0.27550637E+03</rscale>
<asrwt>0</asrwt>
<pdfrwt beam="1">  1        2 0.31301003E+00 0.27550637E+03</pdfrwt>
<pdfrwt beam="2">  1       -2 0.14348891E-02 0.27550637E+03</pdfrwt>
<totfact> 0.89696799E+03</totfact>
</mgrwt>
</event>
<event>
 9    1  0.2114844E-002  0.2749330E+03  0.7818608E-02  0.1098489E+00
         -2   -1    0    0    0  501 -0.00000000000E+00  0.00000000000E+00  0.89687187899E+01  0.89687187899E+01  0.00000000000E+00 0.  1.
          2   -1    0    0  501    0  0.00000000000E+00 -0.00000000000E+00 -0.21069945740E+04  0.21069945740E+04  0.00000000000E+00 0.  1.
         36    2    1    2    0    0  0.00000000000E+00  0.00000000000E+00 -0.20980258553E+04  0.21159632928E+04  0.27493302331E+03 0.  0.
         25    2    3    3    0    0 -0.31120362066E+02 -0.33908691210E+01 -0.64569360902E+03  0.65790906416E+03  0.12224616579E+03 0.  0.
         25    2    3    3    0    0  0.31120362066E+02  0.33908691210E+01 -0.14523322462E+04  0.14580542287E+04  0.12519267297E+03 0.  0.
          5    1    4    4  502    0 -0.50447349868E+01  0.52877284254E+02 -0.43414080706E+03  0.43740346009E+03  0.47000000000E+01 0. -1.
         -5    1    4    4    0  502 -0.26075627079E+02 -0.56268153375E+02 -0.21155280196E+03  0.22050560407E+03  0.47000000000E+01 0. -1.
          5    1    5    5  503    0  0.49682325935E+02  0.54584976658E+02 -0.89323455157E+03  0.89629119560E+03  0.47000000000E+01 0.  1.
         -5    1    5    5    0  503 -0.18561963869E+02 -0.51194107537E+02 -0.55909769467E+03  0.56176303308E+03  0.47000000000E+01 0.  1.
<mgrwt>
<rscale>  0 0.27493302E+03</rscale>
<asrwt>0</asrwt>
<pdfrwt beam="1">  1        2 0.32415278E+00 0.27493302E+03</pdfrwt>
<pdfrwt beam="2">  1       -2 0.13798039E-02 0.27493302E+03</pdfrwt>
<totfact> 0.86973858E+03</totfact>
</mgrwt>
</event>
<event>
 9    1  0.2114844E-002  0.2755090E+03  0.7818608E-02  0.1098167E+00
          2   -1    0    0  501    0  0.00000000000E+00  0.00000000000E+00  0.13898967497E+03  0.13898967497E+03  0.00000000000E+00 0.  1.
         -2   -1    0    0    0  501 -0.00000000000E+00 -0.00000000000E+00 -0.13653026559E+03  0.13653026559E+03  0.00000000000E+00 0.  1.
         36    2    1    2    0    0  0.00000000000E+00  0.88817841970E-14  0.24594093796E+01  0.27551994056E+03  0.27550896347E+03 0.  0.
         25    2    3    3    0    0 -0.40828765782E+02  0.14660387025E+02  0.37360648967E+02  0.13921867503E+03  0.12690195556E+03 0.  0.
         25    2    3    3    0    0  0.40828765782E+02 -0.14660387025E+02 -0.34901239587E+02  0.13630126553E+03  0.12441070451E+03 0.  0.
          5    1    4    4  502    0  0.38289977928E+02  0.29648045481E+02 -0.35327214537E+01  0.48782159971E+02  0.47000000000E+01 0.  1.
         -5    1    4    4    0  502 -0.79118743710E+02 -0.14987658456E+02  0.40893370420E+02  0.90436515062E+02  0.47000000000E+01 0.  1.
          5    1    5    5  503    0 -0.23130226760E+02 -0.46184361742E+02 -0.38741104734E+02  0.64737669525E+02  0.47000000000E+01 0.  1.
         -5    1    5    5    0  503  0.63958992542E+02  0.31523974717E+02  0.38398651472E+01  0.71563596006E+02  0.47000000000E+01 0.  1.
<mgrwt>
<rscale>  0 0.27550896E+03</rscale>
<asrwt>0</asrwt>
<pdfrwt beam="1">  1        2 0.21383027E-01 0.27550896E+03</pdfrwt>
<pdfrwt beam="2">  1       -2 0.21004656E-01 0.27550896E+03</pdfrwt>
<totfact> 0.49305658E+03</totfact>
</mgrwt>
</event>
<event>
 9    1  0.2114844E-002  0.2744941E+03  0.7818608E-02  0.1098735E+00
         -1   -1    0    0    0  501 -0.00000000000E+00  0.00000000000E+00  0.78426440369E+01  0.78426440369E+01  0.00000000000E+00 0.  1.
          1   -1    0    0  501    0  0.00000000000E+00 -0.00000000000E+00 -0.24018372297E+04  0.24018372297E+04  0.00000000000E+00 0.  1.
         36    2    1    2    0    0 -0.71054273576E-14  0.00000000000E+00 -0.23939945857E+04  0.24096798738E+04  0.27449411234E+03 0.  0.
         25    2    3    3    0    0 -0.50060272122E+02 -0.91766612594E+01 -0.11934590331E+04  0.12011103426E+04  0.12542467639E+03 0.  0.
         25    2    3    3    0    0  0.50060272122E+02  0.91766612594E+01 -0.12005355525E+04  0.12085695311E+04  0.12947763002E+03 0.  0.
          5    1    4    4  502    0  0.27417529122E+02 -0.30188158081E+01 -0.76774154729E+02  0.81714105186E+02  0.47000000000E+01 0.  1.
         -5    1    4    4    0  502 -0.77477801243E+02 -0.61578454513E+01 -0.11166848784E+04  0.11193962375E+04  0.47000000000E+01 0.  1.
          5    1    5    5  503    0  0.34327342317E+02  0.31825337663E+02 -0.14054705992E+03  0.14821195836E+03  0.47000000000E+01 0. -1.
         -5    1    5    5    0  503  0.15732929805E+02 -0.22648676404E+02 -0.10599884926E+04  0.10603575728E+04  0.47000000000E+01 0. -1.
<mgrwt>
<rscale>  0 0.27449411E+03</rscale>
<asrwt>0</asrwt>
<pdfrwt beam="1">  1        1 0.36951346E+00 0.27449411E+03</pdfrwt>
<pdfrwt beam="2">  1       -1 0.12065605E-02 0.27449411E+03</pdfrwt>
<totfact> 0.26390075E+03</totfact>
</mgrwt>
</event>
<event>
 9    1  0.2114844E-002  0.2749418E+03  0.7818608E-02  0.1098484E+00
          2   -1    0    0  501    0  0.00000000000E+00  0.00000000000E+00  0.90988122292E+03  0.90988122292E+03  0.00000000000E+00 0.  1.
         -2   -1    0    0    0  501 -0.00000000000E+00 -0.00000000000E+00 -0.20770010581E+02  0.20770010581E+02  0.00000000000E+00 0.  1.
         36    2    1    2    0    0 -0.71054273576E-14  0.00000000000E+00  0.88911121234E+03  0.93065123351E+03  0.27494175840E+03 0.  0.
         25    2    3    3    0    0  0.56151110075E-01  0.58864837433E+02  0.36623008913E+03  0.39020439316E+03  0.12111943699E+03 0.  0.
         25    2    3    3    0    0 -0.56151110075E-01 -0.58864837433E+02  0.52288112321E+03  0.54044684034E+03  0.12334117719E+03 0.  0.
          5    1    4    4  502    0 -0.55452626906E+02  0.77172769187E+01  0.11769165233E+03  0.13041458976E+03  0.47000000000E+01 0. -1.
         -5    1    4    4    0  502  0.55508778016E+02  0.51147560515E+02  0.24853843680E+03  0.25978980340E+03  0.47000000000E+01 0. -1.
          5    1    5    5  503    0  0.52337718180E+02 -0.90608848338E+01  0.33251514178E+03  0.33676363505E+03  0.47000000000E+01 0.  1.
         -5    1    5    5    0  503 -0.52393869291E+02 -0.49803952599E+02  0.19036598143E+03  0.20368320530E+03  0.47000000000E+01 0.  1.
<mgrwt>
<rscale>  0 0.27494176E+03</rscale>
<asrwt>0</asrwt>
<pdfrwt beam="1">  1        2 0.13998170E+00 0.27494176E+03</pdfrwt>
<pdfrwt beam="2">  1       -2 0.31953870E-02 0.27494176E+03</pdfrwt>
<totfact> 0.11502894E+04</totfact>
</mgrwt>
</event>
<event>
 9    1  0.2114844E-002  0.2752346E+03  0.7818608E-02  0.1098321E+00
          2   -1    0    0  501    0  0.00000000000E+00  0.00000000000E+00  0.15900743229E+04  0.15900743229E+04  0.00000000000E+00 0.  1.
         -2   -1    0    0    0  501 -0.00000000000E+00 -0.00000000000E+00 -0.11910461055E+02  0.11910461055E+02  0.00000000000E+00 0.  1.
         36    2    1    2    0    0  0.17763568394E-14  0.71054273576E-14  0.15781638619E+04  0.16019847840E+04  0.27523457848E+03 0.  0.
         25    2    3    3    0    0 -0.27130953782E+01 -0.46829224104E+02  0.10381402188E+04  0.10457608046E+04  0.11696242751E+03 0.  0.
         25    2    3    3    0    0  0.27130953782E+01  0.46829224104E+02  0.54002364307E+03  0.55622397937E+03  0.12473669483E+03 0.  0.
          5    1    4    4  502    0 -0.31029194208E+02 -0.42646154107E+02  0.19324266348E+03  0.20036547193E+03  0.47000000000E+01 0. -1.
         -5    1    4    4    0  502  0.28316098830E+02 -0.41830699970E+01  0.84489755533E+03  0.84539533269E+03  0.47000000000E+01 0. -1.
          5    1    5    5  503    0 -0.82840713956E+01  0.37985664855E+02  0.39998755180E+02  0.55977915192E+02  0.47000000000E+01 0. -1.
         -5    1    5    5    0  503  0.10997166774E+02  0.88435592498E+01  0.50002488789E+03  0.50024606418E+03  0.47000000000E+01 0. -1.
<mgrwt>
<rscale>  0 0.27523458E+03</rscale>
<asrwt>0</asrwt>
<pdfrwt beam="1">  1        2 0.24462665E+00 0.27523458E+03</pdfrwt>
<pdfrwt beam="2">  1       -2 0.18323799E-02 0.27523458E+03</pdfrwt>
<totfact> 0.10741947E+04</totfact>
</mgrwt>
</event>
<event>
 9    1  0.2114844E-002  0.2697829E+03  0.7818608E-02  0.1101404E+00
         -1   -1    0    0    0  501 -0.00000000000E+00  0.00000000000E+00  0.20392376635E+03  0.20392376635E+03  0.00000000000E+00 0.  1.
          1   -1    0    0  501    0  0.00000000000E+00 -0.00000000000E+00 -0.89227965214E+02  0.89227965214E+02  0.00000000000E+00 0.  1.
         36    2    1    2    0    0  0.00000000000E+00  0.00000000000E+00  0.11469580114E+03  0.29315173157E+03  0.26978289590E+03 0.  0.
         25    2    3    3    0    0 -0.21907140640E+02  0.33618332994E+02  0.73389106730E+02  0.15625883878E+03  0.13198768347E+03 0.  0.
         25    2    3    3    0    0  0.21907140640E+02 -0.33618332994E+02  0.41306694407E+02  0.13689289278E+03  0.12419060338E+03 0.  0.
          5    1    4    4  502    0 -0.14489623715E+02  0.66638903184E+02  0.94096666818E+02  0.11630548276E+03  0.47000000000E+01 0.  1.
         -5    1    4    4    0  502 -0.74175169246E+01 -0.33020570190E+02 -0.20707560088E+02  0.39953356027E+02  0.47000000000E+01 0.  1.
          5    1    5    5  503    0  0.75838620826E-01  0.35162895198E+02  0.52859304064E+02  0.63660277853E+02  0.47000000000E+01 0. -1.
         -5    1    5    5    0  503  0.21831302019E+02 -0.68781228191E+02 -0.11552609657E+02  0.73232614928E+02  0.47000000000E+01 0. -1.
<mgrwt>
<rscale>  0 0.26978290E+03</rscale>
<asrwt>0</asrwt>
<pdfrwt beam="1">  1        1 0.13727379E-01 0.26978290E+03</pdfrwt>
<pdfrwt beam="2">  1       -1 0.31372887E-01 0.26978290E+03</pdfrwt>
<totfact> 0.39404448E+03</totfact>
</mgrwt>
</event>
<event>
 8    1  0.2114844E-002  0.2588908E+03  0.7818608E-02  0.1107811E+00
         -2   -1    0    0    0  501 -0.00000000000E+00  0.00000000000E+00  0.98406344792E+03  0.98406344792E+03  0.00000000000E+00 0. -1.
          2   -1    0    0  501    0  0.00000000000E+00 -0.00000000000E+00 -0.17027476835E+02  0.17027476835E+02  0.00000000000E+00 0. -1.
         25    2    1    2    0    0  0.23482561586E+02  0.19601081124E+02  0.44511946543E+03  0.46386454826E+03  0.12689896592E+03 0.  0.
         25    2    1    2    0    0 -0.23482561586E+02 -0.19601081124E+02  0.52191650565E+03  0.53722637649E+03  0.12361111456E+03 0.  0.
          5    1    3    3  502    0 -0.17610020996E+01 -0.27504784982E+02  0.17698933772E+02  0.33090128164E+02  0.47000000000E+01 0. -1.
         -5    1    3    3    0  502  0.25243563685E+02  0.47105866106E+02  0.42742053166E+03  0.43077442010E+03  0.47000000000E+01 0. -1.
          5    1    4    4  503    0 -0.45260386604E+02 -0.50834873501E+02  0.45504250405E+03  0.46012874009E+03  0.47000000000E+01 0.  1.
         -5    1    4    4    0  503  0.21777825018E+02  0.31233792376E+02  0.66874001598E+02  0.77097636400E+02  0.47000000000E+01 0.  1.
<mgrwt>
<rscale>  0 0.25889085E+03</rscale>
<asrwt>0</asrwt>
<pdfrwt beam="1">  1        2 0.26196126E-02 0.25889085E+03</pdfrwt>
<pdfrwt beam="2">  1       -2 0.15139433E+00 0.25889085E+03</pdfrwt>
<totfact> 0.11656453E+03</totfact>
</mgrwt>
</event>
<event>
 9    1  0.2114844E-002  0.2751427E+03  0.7818608E-02  0.1098372E+00
          1   -1    0    0  501    0  0.00000000000E+00  0.00000000000E+00  0.30032587611E+03  0.30032587611E+03  0.00000000000E+00 0. -1.
         -1   -1    0    0    0  501 -0.00000000000E+00 -0.00000000000E+00 -0.63017823629E+02  0.63017823629E+02  0.00000000000E+00 0. -1.
         36    2    1    2    0    0 -0.35527136788E-14  0.00000000000E+00  0.23730805248E+03  0.36334369974E+03  0.27514274907E+03 0.  0.
         25    2    3    3    0    0 -0.18241671815E+00 -0.35269776419E+02  0.18974819158E+03  0.22747389148E+03  0.12039935503E+03 0.  0.
         25    2    3    3    0    0  0.18241671815E+00  0.35269776419E+02  0.47559860898E+02  0.13586980826E+03  0.12228930461E+03 0.  0.
          5    1    4    4  502    0 -0.85725484978E+01 -0.20505810593E+02 -0.11495698080E+02  0.25460124316E+02  0.47000000000E+01 0.  1.
         -5    1    4    4    0  502  0.83901317797E+01 -0.14763965826E+02  0.20124388966E+03  0.20201376717E+03  0.47000000000E+01 0.  1.
          5    1    5    5  503    0  0.60157544875E+02  0.23838011544E+02  0.15308868219E+02  0.66660576399E+02  0.47000000000E+01 0.  1.
         -5    1    5    5    0  503 -0.59975128157E+02  0.11431764875E+02  0.32250992679E+02  0.69209231858E+02  0.47000000000E+01 0.  1.
<mgrwt>
<rscale>  0 0.27514275E+03</rscale>
<asrwt>0</asrwt>
<pdfrwt beam="1">  1        1 0.46203980E-01 0.27514275E+03</pdfrwt>
<pdfrwt beam="2">  1       -1 0.96950500E-02 0.27514275E+03</pdfrwt>
<totfact> 0.55599279E+03</totfact>
</mgrwt>
</event>
<event>
 9    1  0.2114844E-002  0.2736402E+03  0.7818608E-02  0.1099214E+00
         -2   -1    0    0    0  501 -0.00000000000E+00  0.00000000000E+00  0.10207888868E+02  0.10207888868E+02  0.00000000000E+00 0. -1.
          2   -1    0    0  501    0  0.00000000000E+00 -0.00000000000E+00 -0.18338500335E+04  0.18338500335E+04  0.00000000000E+00 0. -1.
         36    2    1    2    0    0  0.71054273576E-14 -0.71054273576E-14 -0.18236421446E+04  0.18440579223E+04  0.27364018230E+03 0.  0.
         25    2    3    3    0    0 -0.52357847450E+02 -0.15092498082E+02 -0.95799852579E+03  0.96744354018E+03  0.12335599024E+03 0.  0.
         25    2    3    3    0    0  0.52357847450E+02  0.15092498082E+02 -0.86564361881E+03  0.87661438215E+03  0.12706208141E+03 0.  0.
          5    1    4    4  502    0 -0.69134893239E+02 -0.26234267152E+01 -0.25916798145E+03  0.26828464071E+03  0.47000000000E+01 0.  1.
         -5    1    4    4    0  502  0.16777045789E+02 -0.12469071366E+02 -0.69883054434E+03  0.69915889947E+03  0.47000000000E+01 0.  1.
          5    1    5    5  503    0  0.49937003669E+02 -0.50352830649E+02 -0.51440555044E+03  0.51929208757E+03  0.47000000000E+01 0. -1.
         -5    1    5    5    0  503  0.24208437811E+01  0.65445328730E+02 -0.35123806837E+03  0.35732229458E+03  0.47000000000E+01 0. -1.
<mgrwt>
<rscale>  0 0.27364018E+03</rscale>
<asrwt>0</asrwt>
<pdfrwt beam="1">  1        2 0.28213047E+00 0.27364018E+03</pdfrwt>
<pdfrwt beam="2">  1       -2 0.15704462E-02 0.27364018E+03</pdfrwt>
<totfact> 0.10019593E+04</totfact>
</mgrwt>
</event>
<event>
 9    1  0.2114844E-002  0.2758665E+03  0.7818608E-02  0.1097968E+00
         -1   -1    0    0    0  501 -0.00000000000E+00  0.00000000000E+00  0.83582372274E+03  0.83582372274E+03  0.00000000000E+00 0. -1.
          1   -1    0    0  501    0  0.00000000000E+00 -0.00000000000E+00 -0.22762665821E+02  0.22762665821E+02  0.00000000000E+00 0. -1.
         36    2    1    2    0    0 -0.35527136788E-14 -0.35527136788E-14  0.81306105692E+03  0.85858638857E+03  0.27586646107E+03 0.  0.
         25    2    3    3    0    0 -0.54023259763E-01  0.13245800447E+02  0.57882723579E+03  0.59225692493E+03  0.12470702504E+03 0.  0.
         25    2    3    3    0    0  0.54023259763E-01 -0.13245800447E+02  0.23423382114E+03  0.26632946363E+03  0.12605731271E+03 0.  0.
          5    1    4    4  502    0 -0.28682600298E+02  0.60696242318E+02  0.25730857338E+03  0.26596337591E+03  0.47000000000E+01 0.  1.
         -5    1    4    4    0  502  0.28628577038E+02 -0.47450441871E+02  0.32151866241E+03  0.32629354902E+03  0.47000000000E+01 0.  1.
          5    1    5    5  503    0 -0.60074400052E+02  0.10448823983E+02  0.98889345135E+02  0.11627254210E+03  0.47000000000E+01 0. -1.
         -5    1    5    5    0  503  0.60128423312E+02 -0.23694624430E+02  0.13534447600E+03  0.15005692154E+03  0.47000000000E+01 0. -1.
<mgrwt>
<rscale>  0 0.27586646E+03</rscale>
<asrwt>0</asrwt>
<pdfrwt beam="1">  1        1 0.35019492E-02 0.27586646E+03</pdfrwt>
<pdfrwt beam="2">  1       -1 0.12858824E+00 0.27586646E+03</pdfrwt>
<totfact> 0.15321344E+03</totfact>
</mgrwt>
</event>
<event>
 9    1  0.2114844E-002  0.2752498E+03  0.7818608E-02  0.1098312E+00
          2   -1    0    0  501    0  0.00000000000E+00  0.00000000000E+00  0.42738314327E+03  0.42738314327E+03  0.00000000000E+00 0.  1.
         -2   -1    0    0    0  501 -0.00000000000E+00 -0.00000000000E+00 -0.44317654853E+02  0.44317654853E+02  0.00000000000E+00 0.  1.
         36    2    1    2    0    0 -0.71054273576E-14  0.00000000000E+00  0.38306548842E+03  0.47170079812E+03  0.27524984021E+03 0.  0.
         25    2    3    3    0    0 -0.58901087465E+02  0.14198239320E+02  0.19569988091E+03  0.23803439155E+03  0.12120643575E+03 0.  0.
         25    2    3    3    0    0  0.58901087465E+02 -0.14198239320E+02  0.18736560751E+03  0.23366640658E+03  0.12579026425E+03 0.  0.
          5    1    4    4  502    0  0.28951616567E+02  0.24244438237E+01  0.81467140198E+01  0.30537402951E+02  0.47000000000E+01 0. -1.
         -5    1    4    4    0  502 -0.87852704032E+02  0.11773795496E+02  0.18755316689E+03  0.20749698860E+03  0.47000000000E+01 0. -1.
          5    1    5    5  503    0 -0.27430944823E+02 -0.32799324553E+02  0.10221992520E+03  0.11090200870E+03  0.47000000000E+01 0. -1.
         -5    1    5    5    0  503  0.86332032288E+02  0.18601085233E+02  0.85145682308E+02  0.12276439788E+03  0.47000000000E+01 0. -1.
<mgrwt>
<rscale>  0 0.27524984E+03</rscale>
<asrwt>0</asrwt>
<pdfrwt beam="1">  1        2 0.65751250E-01 0.27524984E+03</pdfrwt>
<pdfrwt beam="2">  1       -2 0.68181011E-02 0.27524984E+03</pdfrwt>
<totfact> 0.89518067E+03</totfact>
</mgrwt>
</event>
<event>
 9    1  0.2114844E-002  0.2752689E+03  0.7818608E-02  0.1098301E+00
         -4   -1    0    0    0  501 -0.00000000000E+00  0.00000000000E+00  0.18352651147E+02  0.18352651147E+02  0.00000000000E+00 0.  1.
          4   -1    0    0  501    0  0.00000000000E+00 -0.00000000000E+00 -0.10321804246E+04  0.10321804246E+04  0.00000000000E+00 0.  1.
         36    2    1    2    0    0  0.17763568394E-14  0.00000000000E+00 -0.10138277735E+04  0.10505330758E+04  0.27526893943E+03 0.  0.
         25    2    3    3    0    0  0.56299764864E+01  0.17818883391E+02 -0.70933749561E+03  0.72025502009E+03  0.12352490460E+03 0.  0.
         25    2    3    3    0    0 -0.56299764864E+01 -0.17818883391E+02 -0.30449027788E+03  0.33027805568E+03  0.12657035792E+03 0.  0.
          5    1    4    4  502    0 -0.54643642657E+02  0.28460873630E+02 -0.41593515230E+03  0.42049980966E+03  0.47000000000E+01 0. -1.
         -5    1    4    4    0  502  0.60273619143E+02 -0.10641990239E+02 -0.29340234331E+03  0.29975521043E+03  0.47000000000E+01 0. -1.
          5    1    5    5  503    0 -0.20655085684E+01 -0.54288169846E+02 -0.28157122294E+03  0.28680292066E+03  0.47000000000E+01 0. -1.
         -5    1    5    5    0  503 -0.35644679180E+01  0.36469286455E+02 -0.22919054937E+02  0.43475135023E+02  0.47000000000E+01 0. -1.
<mgrwt>
<rscale>  0 0.27526894E+03</rscale>
<asrwt>0</asrwt>
<pdfrwt beam="1">  1        4 0.15879702E+00 0.27526894E+03</pdfrwt>
<pdfrwt beam="2">  1       -4 0.28234843E-02 0.27526894E+03</pdfrwt>
<totfact> 0.30269003E+02</totfact>
</mgrwt>
</event>
<event>
 9    1  0.2114844E-002  0.2748634E+03  0.7818608E-02  0.1098528E+00
          1   -1    0    0  501    0  0.00000000000E+00  0.00000000000E+00  0.56087782260E+03  0.56087782260E+03  0.00000000000E+00 0.  1.
         -1   -1    0    0    0  501 -0.00000000000E+00 -0.00000000000E+00 -0.33674832799E+02  0.33674832799E+02  0.00000000000E+00 0.  1.
         36    2    1    2    0    0  0.35527136788E-14 -0.71054273576E-14  0.52720298980E+03  0.59455265540E+03  0.27486336167E+03 0.  0.
         25    2    3    3    0    0 -0.28070523152E+02  0.13917025250E+02  0.39209134707E+03  0.40951857974E+03  0.11396580561E+03 0.  0.
         25    2    3    3    0    0  0.28070523152E+02 -0.13917025250E+02  0.13511164273E+03  0.18503407565E+03  0.12247781550E+03 0.  0.
          5    1    4    4  502    0 -0.48519934265E+02  0.51701935674E+02  0.18989708470E+03  0.20275666932E+03  0.47000000000E+01 0.  1.
         -5    1    4    4    0  502  0.20449411113E+02 -0.37784910424E+02  0.20219426237E+03  0.20676191043E+03  0.47000000000E+01 0.  1.
          5    1    5    5  503    0  0.50194181725E+02  0.32719836765E+02  0.11438201303E+03  0.12921059749E+03  0.47000000000E+01 0. -1.
         -5    1    5    5    0  503 -0.22123658573E+02 -0.46636862016E+02  0.20729629699E+02  0.55823478168E+02  0.47000000000E+01 0. -1.
<mgrwt>
<rscale>  0 0.27486336E+03</rscale>
<asrwt>0</asrwt>
<pdfrwt beam="1">  1        1 0.86288889E-01 0.27486336E+03</pdfrwt>
<pdfrwt beam="2">  1       -1 0.51807439E-02 0.27486336E+03</pdfrwt>
<totfact> 0.64174215E+03</totfact>
</mgrwt>
</event>
<event>
 9    1  0.2114844E-002  0.2748159E+03  0.7818608E-02  0.1098555E+00
          1   -1    0    0  501    0  0.00000000000E+00  0.00000000000E+00  0.20062006195E+04  0.20062006195E+04  0.00000000000E+00 0.  1.
         -1   -1    0    0    0  501 -0.00000000000E+00 -0.00000000000E+00 -0.94112971433E+01  0.94112971433E+01  0.00000000000E+00 0.  1.
         36    2    1    2    0    0  0.00000000000E+00 -0.71054273576E-14  0.19967893224E+04  0.20156119167E+04  0.27481593956E+03 0.  0.
         25    2    3    3    0    0  0.25941038255E+02 -0.47255342678E+02  0.12016078223E+04  0.12094525289E+04  0.12652294718E+03 0.  0.
         25    2    3    3    0    0 -0.25941038255E+02  0.47255342678E+02  0.79518150007E+03  0.80615938776E+03  0.12113354425E+03 0.  0.
          5    1    4    4  502    0 -0.31779054282E+02 -0.13222029498E+02  0.10120122653E+03  0.10699770374E+03  0.47000000000E+01 0. -1.
         -5    1    4    4    0  502  0.57720092537E+02 -0.34033313181E+02  0.11004065958E+04  0.11024548252E+04  0.47000000000E+01 0. -1.
          5    1    5    5  503    0 -0.47398778690E+02 -0.11011172983E+02  0.14535018500E+03  0.15335141483E+03  0.47000000000E+01 0. -1.
         -5    1    5    5    0  503  0.21457740435E+02  0.58266515662E+02  0.64983131507E+03  0.65280797293E+03  0.47000000000E+01 0. -1.
<mgrwt>
<rscale>  0 0.27481594E+03</rscale>
<asrwt>0</asrwt>
<pdfrwt beam="1">  1        1 0.30864591E+00 0.27481594E+03</pdfrwt>
<pdfrwt beam="2">  1       -1 0.14478935E-02 0.27481594E+03</pdfrwt>
<totfact> 0.36731489E+03</totfact>
</mgrwt>
</event>
<event>
 9    1  0.2114844E-002  0.2749213E+03  0.7818608E-02  0.1098496E+00
          2   -1    0    0  501    0  0.00000000000E+00  0.00000000000E+00  0.78228243041E+02  0.78228243041E+02  0.00000000000E+00 0. -1.
         -2   -1    0    0    0  501 -0.00000000000E+00 -0.00000000000E+00 -0.24154229248E+03  0.24154229248E+03  0.00000000000E+00 0. -1.
         36    2    1    2    0    0  0.71054273576E-14  0.00000000000E+00 -0.16331404944E+03  0.31977053552E+03  0.27492129172E+03 0.  0.
         25    2    3    3    0    0  0.45303355944E+02  0.48475204300E+02 -0.55425930855E+02  0.14962275885E+03  0.12211755264E+03 0.  0.
         25    2    3    3    0    0 -0.45303355944E+02 -0.48475204300E+02 -0.10788811858E+03  0.17014777667E+03  0.11361417290E+03 0.  0.
          5    1    4    4  502    0 -0.87096433438E+01 -0.27465140055E+02  0.14903674112E+02  0.32778061374E+02  0.47000000000E+01 0.  1.
         -5    1    4    4    0  502  0.54012999288E+02  0.75940344354E+02 -0.70329604966E+02  0.11684469747E+03  0.47000000000E+01 0.  1.
          5    1    5    5  503    0 -0.11213910054E+02 -0.42478238932E+02 -0.12403206673E+03  0.13166698956E+03  0.47000000000E+01 0. -1.
         -5    1    5    5    0  503 -0.34089445890E+02 -0.59969653672E+01  0.16143948154E+02  0.38480787111E+02  0.47000000000E+01 0. -1.
<mgrwt>
<rscale>  0 0.27492129E+03</rscale>
<asrwt>0</asrwt>
<pdfrwt beam="1">  1        2 0.12035114E-01 0.27492129E+03</pdfrwt>
<pdfrwt beam="2">  1       -2 0.37160353E-01 0.27492129E+03</pdfrwt>
<totfact> 0.34755959E+03</totfact>
</mgrwt>
</event>
<event>
 9    1  0.2114844E-002  0.2728641E+03  0.7818608E-02  0.1099652E+00
         -1   -1    0    0    0  501 -0.00000000000E+00  0.00000000000E+00  0.19391591099E+02  0.19391591099E+02  0.00000000000E+00 0.  1.
          1   -1    0    0  501    0  0.00000000000E+00 -0.00000000000E+00 -0.95988511345E+03  0.95988511345E+03  0.00000000000E+00 0.  1.
         36    2    1    2    0    0  0.00000000000E+00 -0.71054273576E-14 -0.94049352235E+03  0.97927670455E+03  0.27286406595E+03 0.  0.
         25    2    3    3    0    0  0.18286323377E+02 -0.57904453290E+02 -0.39249079959E+03  0.41642046473E+03  0.12517851391E+03 0.  0.
         25    2    3    3    0    0 -0.18286323377E+02  0.57904453290E+02 -0.54800272276E+03  0.56285623982E+03  0.11319384799E+03 0.  0.
          5    1    4    4  502    0  0.55593806896E+02 -0.47268333972E+02 -0.35434469421E+03  0.36181102674E+03  0.47000000000E+01 0. -1.
         -5    1    4    4    0  502 -0.37307483519E+02 -0.10636119318E+02 -0.38146105387E+02  0.54609437984E+02  0.47000000000E+01 0. -1.
          5    1    5    5  503    0 -0.53973931498E+02  0.17969236219E+02 -0.42227892523E+03  0.42611930187E+03  0.47000000000E+01 0.  1.
         -5    1    5    5    0  503  0.35687608121E+02  0.39935217072E+02 -0.12572379753E+03  0.13673693795E+03  0.47000000000E+01 0.  1.
<mgrwt>
<rscale>  0 0.27286407E+03</rscale>
<asrwt>0</asrwt>
<pdfrwt beam="1">  1        1 0.14767463E+00 0.27286407E+03</pdfrwt>
<pdfrwt beam="2">  1       -1 0.29833218E-02 0.27286407E+03</pdfrwt>
<totfact> 0.65165305E+03</totfact>
</mgrwt>
</event>
<event>
 9    1  0.2114844E-002  0.2757689E+03  0.7818608E-02  0.1098023E+00
          3   -1    0    0  501    0  0.00000000000E+00  0.00000000000E+00  0.14135612383E+04  0.14135612383E+04  0.00000000000E+00 0. -1.
         -3   -1    0    0    0  501 -0.00000000000E+00 -0.00000000000E+00 -0.13449803132E+02  0.13449803132E+02  0.00000000000E+00 0. -1.
         36    2    1    2    0    0 -0.35527136788E-14  0.35527136788E-14  0.14001114352E+04  0.14270110414E+04  0.27576889143E+03 0.  0.
         25    2    3    3    0    0 -0.38560036957E+01 -0.11842179482E+02  0.10026448561E+04  0.10098297463E+04  0.11960059861E+03 0.  0.
         25    2    3    3    0    0  0.38560036957E+01  0.11842179482E+02  0.39746657907E+03  0.41718129508E+03  0.12611679311E+03 0.  0.
          5    1    4    4  502    0  0.23161107363E+02 -0.15558976970E+02  0.94941043331E+03  0.94983197437E+03  0.47000000000E+01 0. -1.
         -5    1    4    4    0  502 -0.27017111059E+02  0.37167974877E+01  0.53234422777E+02  0.59997771975E+02  0.47000000000E+01 0. -1.
          5    1    5    5  503    0  0.54853640761E+02 -0.25027000201E+02  0.24091846441E+03  0.24839297320E+03  0.47000000000E+01 0.  1.
         -5    1    5    5    0  503 -0.50997637065E+02  0.36869179683E+02  0.15654811466E+03  0.16878832188E+03  0.47000000000E+01 0.  1.
<mgrwt>
<rscale>  0 0.27576889E+03</rscale>
<asrwt>0</asrwt>
<pdfrwt beam="1">  1        3 0.21747084E+00 0.27576889E+03</pdfrwt>
<pdfrwt beam="2">  1       -3 0.20692016E-02 0.27576889E+03</pdfrwt>
<totfact> 0.28941565E+02</totfact>
</mgrwt>
</event>
<event>
 9    1  0.2114844E-002  0.2768370E+03  0.7818608E-02  0.1097429E+00
         -3   -1    0    0    0  501 -0.00000000000E+00  0.00000000000E+00  0.26190279281E+02  0.26190279281E+02  0.00000000000E+00 0.  1.
          3   -1    0    0  501    0  0.00000000000E+00 -0.00000000000E+00 -0.73155701068E+03  0.73155701068E+03  0.00000000000E+00 0.  1.
         36    2    1    2    0    0  0.00000000000E+00 -0.14210854715E-13 -0.70536673140E+03  0.75774728996E+03  0.27683700923E+03 0.  0.
         25    2    3    3    0    0  0.25670031669E+02 -0.52827950430E+02 -0.37291951325E+03  0.39770608370E+03  0.12510564648E+03 0.  0.
         25    2    3    3    0    0 -0.25670031669E+02  0.52827950430E+02 -0.33244721816E+03  0.36004120626E+03  0.12513502497E+03 0.  0.
          5    1    4    4  502    0  0.17744863269E+02 -0.69621563245E+01 -0.33984839194E+03  0.34041499864E+03  0.47000000000E+01 0. -1.
         -5    1    4    4    0  502  0.79251683998E+01 -0.45865794106E+02 -0.33071121304E+02  0.57291085061E+02  0.47000000000E+01 0. -1.
          5    1    5    5  503    0  0.46921024492E+02 -0.94698126472E+00 -0.98389691076E+02  0.10911049731E+03  0.47000000000E+01 0. -1.
         -5    1    5    5    0  503 -0.72591056161E+02  0.53774931695E+02 -0.23405752708E+03  0.25093070895E+03  0.47000000000E+01 0. -1.
<mgrwt>
<rscale>  0 0.27683701E+03</rscale>
<asrwt>0</asrwt>
<pdfrwt beam="1">  1        3 0.11254723E+00 0.27683701E+03</pdfrwt>
<pdfrwt beam="2">  1       -3 0.40292737E-02 0.27683701E+03</pdfrwt>
<totfact> 0.56173904E+02</totfact>
</mgrwt>
</event>
<event>
 9    1  0.2114844E-002  0.2758528E+03  0.7818608E-02  0.1097976E+00
          2   -1    0    0  501    0  0.00000000000E+00  0.00000000000E+00  0.63829865838E+03  0.63829865838E+03  0.00000000000E+00 0.  1.
         -2   -1    0    0    0  501 -0.00000000000E+00 -0.00000000000E+00 -0.29803754135E+02  0.29803754135E+02  0.00000000000E+00 0.  1.
         36    2    1    2    0    0  0.00000000000E+00  0.00000000000E+00  0.60849490425E+03  0.66810241252E+03  0.27585283235E+03 0.  0.
         25    2    3    3    0    0  0.32457209354E+02  0.16527942400E+02  0.41638727976E+03  0.43705224888E+03  0.12770927211E+03 0.  0.
         25    2    3    3    0    0 -0.32457209354E+02 -0.16527942400E+02  0.19210762448E+03  0.23105016363E+03  0.12309425418E+03 0.  0.
          5    1    4    4  502    0 -0.48569319246E+02 -0.78795817436E+00  0.18099784008E+03  0.18746175014E+03  0.47000000000E+01 0.  1.
         -5    1    4    4    0  502  0.81026528600E+02  0.17315900574E+02  0.23538943968E+03  0.24959049875E+03  0.47000000000E+01 0.  1.
          5    1    5    5  503    0  0.21251812567E+01  0.14169309208E+02 -0.13509254687E+02  0.20245386660E+02  0.47000000000E+01 0. -1.
         -5    1    5    5    0  503 -0.34582390610E+02 -0.30697251608E+02  0.20561687917E+03  0.21080477697E+03  0.47000000000E+01 0. -1.
<mgrwt>
<rscale>  0 0.27585283E+03</rscale>
<asrwt>0</asrwt>
<pdfrwt beam="1">  1        2 0.98199783E-01 0.27585283E+03</pdfrwt>
<pdfrwt beam="2">  1       -2 0.45851934E-02 0.27585283E+03</pdfrwt>
<totfact> 0.10432649E+04</totfact>
</mgrwt>
</event>
<event>
 9    1  0.2114844E-002  0.2755405E+03  0.7818608E-02  0.1098150E+00
         -2   -1    0    0    0  501 -0.00000000000E+00  0.00000000000E+00  0.22561202843E+02  0.22561202843E+02  0.00000000000E+00 0. -1.
          2   -1    0    0  501    0  0.00000000000E+00 -0.00000000000E+00 -0.84129583115E+03  0.84129583115E+03  0.00000000000E+00 0. -1.
         36    2    1    2    0    0  0.00000000000E+00  0.71054273576E-14 -0.81873462830E+03  0.86385703399E+03  0.27554052985E+03 0.  0.
         25    2    3    3    0    0 -0.46305699135E+01  0.55875091872E+02 -0.41305946935E+03  0.43521173899E+03  0.12509062504E+03 0.  0.
         25    2    3    3    0    0  0.46305699135E+01 -0.55875091872E+02 -0.40567515896E+03  0.42864529500E+03  0.12657403469E+03 0.  0.
          5    1    4    4  502    0 -0.64303130460E+02  0.32451761504E+02 -0.19770304239E+03  0.21046755661E+03  0.47000000000E+01 0. -1.
         -5    1    4    4    0  502  0.59672560547E+02  0.23423330368E+02 -0.21535642695E+03  0.22474418239E+03  0.47000000000E+01 0. -1.
          5    1    5    5  503    0 -0.25728227542E+02  0.33843086227E+02 -0.14876245356E+03  0.15478906216E+03  0.47000000000E+01 0. -1.
         -5    1    5    5    0  503  0.30358797455E+02 -0.89718178099E+02 -0.25691270540E+03  0.27385623283E+03  0.47000000000E+01 0. -1.
<mgrwt>
<rscale>  0 0.27554053E+03</rscale>
<asrwt>0</asrwt>
<pdfrwt beam="1">  1        2 0.12943013E+00 0.27554053E+03</pdfrwt>
<pdfrwt beam="2">  1       -2 0.34709542E-02 0.27554053E+03</pdfrwt>
<totfact> 0.11276399E+04</totfact>
</mgrwt>
</event>
<event>
 8    1  0.2114844E-002  0.2973050E+03  0.7818608E-02  0.1086596E+00
         -2   -1    0    0    0  501 -0.00000000000E+00  0.00000000000E+00  0.15166779315E+02  0.15166779315E+02  0.00000000000E+00 0. -1.
          2   -1    0    0  501    0  0.00000000000E+00 -0.00000000000E+00 -0.14569714493E+04  0.14569714493E+04  0.00000000000E+00 0. -1.
         25    2    1    2    0    0 -0.42112749123E+02 -0.19009067229E+02 -0.39406620542E+03  0.41595103161E+03  0.12486896396E+03 0.  0.
         25    2    1    2    0    0  0.42112749123E+02  0.19009067229E+02 -0.10477384646E+04  0.10561871970E+04  0.12506269120E+03 0.  0.
          5    1    3    3  502    0 -0.69869116969E+02  0.37504874900E+00 -0.36322443332E+03  0.36991338598E+03  0.47000000000E+01 0.  1.
         -5    1    3    3    0  502  0.27756367845E+02 -0.19384115978E+02 -0.30841772106E+02  0.46037645626E+02  0.47000000000E+01 0.  1.
          5    1    4    4  503    0  0.64112125418E+02 -0.29723646193E+02 -0.77418063117E+03  0.77741340318E+03  0.47000000000E+01 0.  1.
         -5    1    4    4    0  503 -0.21999376295E+02  0.48732713423E+02 -0.27355783340E+03  0.27877379383E+03  0.47000000000E+01 0.  1.
<mgrwt>
<rscale>  0 0.29730499E+03</rscale>
<asrwt>0</asrwt>
<pdfrwt beam="1">  1        2 0.22414953E+00 0.29730499E+03</pdfrwt>
<pdfrwt beam="2">  1       -2 0.23333499E-02 0.29730499E+03</pdfrwt>
<totfact> 0.88737356E+03</totfact>
</mgrwt>
</event>
<event>
 9    1  0.2114844E-002  0.2750980E+03  0.7818608E-02  0.1098397E+00
         -1   -1    0    0    0  501 -0.00000000000E+00  0.00000000000E+00  0.41025025868E+03  0.41025025868E+03  0.00000000000E+00 0.  1.
          1   -1    0    0  501    0  0.00000000000E+00 -0.00000000000E+00 -0.46117525024E+02  0.46117525024E+02  0.00000000000E+00 0.  1.
         36    2    1    2    0    0  0.00000000000E+00 -0.71054273576E-14  0.36413273365E+03  0.45636778370E+03  0.27509799396E+03 0.  0.
         25    2    3    3    0    0  0.24503833304E+02 -0.46425954857E+02  0.14595761814E+03  0.19938757411E+03  0.12528356351E+03 0.  0.
         25    2    3    3    0    0 -0.24503833304E+02  0.46425954857E+02  0.21817511551E+03  0.25698020959E+03  0.12523034760E+03 0.  0.
          5    1    4    4  502    0 -0.25898245856E+02 -0.33151599407E+02 -0.20710242637E+01  0.42380736463E+02  0.47000000000E+01 0.  1.
         -5    1    4    4    0  502  0.50402079160E+02 -0.13274355450E+02  0.14802864240E+03  0.15700683765E+03  0.47000000000E+01 0.  1.
          5    1    5    5  503    0 -0.26953694334E+02 -0.71073487968E+01 -0.38513821946E+01  0.28529619520E+02  0.47000000000E+01 0.  1.
         -5    1    5    5    0  503  0.24498610296E+01  0.53533303654E+02  0.22202649771E+03  0.22845059007E+03  0.47000000000E+01 0.  1.
<mgrwt>
<rscale>  0 0.27509799E+03</rscale>
<asrwt>0</asrwt>
<pdfrwt beam="1">  1        1 0.70950041E-02 0.27509799E+03</pdfrwt>
<pdfrwt beam="2">  1       -1 0.63115422E-01 0.27509799E+03</pdfrwt>
<totfact> 0.26921269E+03</totfact>
</mgrwt>
</event>
<event>
 9    1  0.2114844E-002  0.2752589E+03  0.7818608E-02  0.1098307E+00
          2   -1    0    0  501    0  0.00000000000E+00  0.00000000000E+00  0.12591563764E+04  0.12591563764E+04  0.00000000000E+00 0.  1.
         -2   -1    0    0    0  501 -0.00000000000E+00 -0.00000000000E+00 -0.15043300675E+02  0.15043300675E+02  0.00000000000E+00 0.  1.
         36    2    1    2    0    0  0.00000000000E+00  0.35527136788E-14  0.12441130757E+04  0.12741996771E+04  0.27525891787E+03 0.  0.
         25    2    3    3    0    0 -0.18681167026E+02  0.28872904019E+02  0.86045430026E+03  0.86978935098E+03  0.12234901577E+03 0.  0.
         25    2    3    3    0    0  0.18681167026E+02 -0.28872904019E+02  0.38365877548E+03  0.40441032611E+03  0.12317071596E+03 0.  0.
          5    1    4    4  502    0 -0.55307269127E+02 -0.97182828635E+01  0.65797911951E+03  0.66038772759E+03  0.47000000000E+01 0. -1.
         -5    1    4    4    0  502  0.36626102102E+02  0.38591186882E+02  0.20247518074E+03  0.20940162339E+03  0.47000000000E+01 0. -1.
          5    1    5    5  503    0  0.62973355407E+02 -0.43060024316E+02  0.18187267074E+03  0.19728042870E+03  0.47000000000E+01 0.  1.
         -5    1    5    5    0  503 -0.44292188382E+02  0.14187120298E+02  0.20178610474E+03  0.20712989741E+03  0.47000000000E+01 0.  1.
<mgrwt>
<rscale>  0 0.27525892E+03</rscale>
<asrwt>0</asrwt>
<pdfrwt beam="1">  1        2 0.19371628E+00 0.27525892E+03</pdfrwt>
<pdfrwt beam="2">  1       -2 0.23143549E-02 0.27525892E+03</pdfrwt>
<totfact> 0.11512865E+04</totfact>
</mgrwt>
</event>
<event>
 9    1  0.2114844E-002  0.2752474E+03  0.7818608E-02  0.1098313E+00
          2   -1    0    0  501    0  0.00000000000E+00  0.00000000000E+00  0.23815626214E+04  0.23815626214E+04  0.00000000000E+00 0. -1.
         -2   -1    0    0    0  501 -0.00000000000E+00 -0.00000000000E+00 -0.79528813655E+01  0.79528813655E+01  0.00000000000E+00 0. -1.
         36    2    1    2    0    0  0.00000000000E+00  0.00000000000E+00  0.23736097400E+04  0.23895155028E+04  0.27524741592E+03 0.  0.
         25    2    3    3    0    0  0.44966958812E+02  0.43828452433E+02  0.12695893509E+04  0.12773541740E+04  0.12583165471E+03 0.  0.
         25    2    3    3    0    0 -0.44966958812E+02 -0.43828452433E+02  0.11040203892E+04  0.11121613288E+04  0.11873854014E+03 0.  0.
          5    1    4    4  502    0  0.53247461131E+02 -0.37760862418E+01  0.10900677201E+04  0.10913841099E+04  0.47000000000E+01 0.  1.
         -5    1    4    4    0  502 -0.82805023184E+01  0.47604538675E+02  0.17952163082E+03  0.18597006413E+03  0.47000000000E+01 0.  1.
          5    1    5    5  503    0 -0.79350457164E+02 -0.15332695876E+01  0.63218610565E+03  0.63716576191E+03  0.47000000000E+01 0. -1.
         -5    1    5    5    0  503  0.34383498351E+02 -0.42295182846E+02  0.47183428350E+03  0.47499556686E+03  0.47000000000E+01 0. -1.
<mgrwt>
<rscale>  0 0.27524742E+03</rscale>
<asrwt>0</asrwt>
<pdfrwt beam="1">  1        2 0.36639368E+00 0.27524742E+03</pdfrwt>
<pdfrwt beam="2">  1       -2 0.12235221E-02 0.27524742E+03</pdfrwt>
<totfact> 0.73944784E+03</totfact>
</mgrwt>
</event>
<event>
 9    1  0.2114844E-002  0.2758958E+03  0.7818608E-02  0.1097952E+00
          1   -1    0    0  501    0  0.00000000000E+00  0.00000000000E+00  0.15088268198E+04  0.15088268198E+04  0.00000000000E+00 0. -1.
         -1   -1    0    0    0  501 -0.00000000000E+00 -0.00000000000E+00 -0.12612198882E+02  0.12612198882E+02  0.00000000000E+00 0. -1.
         36    2    1    2    0    0 -0.14210854715E-13 -0.71054273576E-14  0.14962146209E+04  0.15214390186E+04  0.27589580591E+03 0.  0.
         25    2    3    3    0    0  0.57215614689E+02  0.34073173484E+02  0.97736824140E+03  0.98771877796E+03  0.12611541267E+03 0.  0.
         25    2    3    3    0    0 -0.57215614689E+02 -0.34073173484E+02  0.51884637948E+03  0.53372024069E+03  0.10592979801E+03 0.  0.
          5    1    4    4  502    0 -0.89149093212E+01 -0.36139985552E+02  0.14530774810E+03  0.15007333481E+03  0.47000000000E+01 0. -1.
         -5    1    4    4    0  502  0.66130524010E+02  0.70213159035E+02  0.83206049330E+03  0.83764544314E+03  0.47000000000E+01 0. -1.
          5    1    5    5  503    0 -0.67428481296E+02 -0.27357926499E+02  0.17447068520E+03  0.18909565364E+03  0.47000000000E+01 0. -1.
         -5    1    5    5    0  503  0.10212866607E+02 -0.67152469850E+01  0.34437569427E+03  0.34462458704E+03  0.47000000000E+01 0. -1.
<mgrwt>
<rscale>  0 0.27589581E+03</rscale>
<asrwt>0</asrwt>
<pdfrwt beam="1">  1        1 0.23212706E+00 0.27589581E+03</pdfrwt>
<pdfrwt beam="2">  1       -1 0.19403395E-02 0.27589581E+03</pdfrwt>
<totfact> 0.50610655E+03</totfact>
</mgrwt>
</event>
<event>
 9    1  0.2114844E-002  0.2780105E+03  0.7818608E-02  0.1096781E+00
         -2   -1    0    0    0  501 -0.00000000000E+00  0.00000000000E+00  0.12431172669E+03  0.12431172669E+03  0.00000000000E+00 0. -1.
          2   -1    0    0  501    0  0.00000000000E+00 -0.00000000000E+00 -0.15543548781E+03  0.15543548781E+03  0.00000000000E+00 0. -1.
         36    2    1    2    0    0  0.00000000000E+00  0.35527136788E-14 -0.31123761118E+02  0.27974721450E+03  0.27801045936E+03 0.  0.
         25    2    3    3    0    0  0.48817794958E+02 -0.40904310113E+01 -0.39421013160E+02  0.13917621619E+03  0.12416156468E+03 0.  0.
         25    2    3    3    0    0 -0.48817794958E+02  0.40904310113E+01  0.82972520418E+01  0.14057099831E+03  0.13149696743E+03 0.  0.
          5    1    4    4  502    0  0.36764041278E+01  0.18510161862E+02 -0.74841914077E+02  0.77327512194E+02  0.47000000000E+01 0. -1.
         -5    1    4    4    0  502  0.45141390830E+02 -0.22600592873E+02  0.35420900917E+02  0.61848703996E+02  0.47000000000E+01 0. -1.
          5    1    5    5  503    0 -0.52857362644E+02 -0.52295433185E+02 -0.20053580397E+02  0.77155357588E+02  0.47000000000E+01 0.  1.
         -5    1    5    5    0  503  0.40395676864E+01  0.56385864197E+02  0.28350832439E+02  0.63415640723E+02  0.47000000000E+01 0.  1.
<mgrwt>
<rscale>  0 0.27801046E+03</rscale>
<asrwt>0</asrwt>
<pdfrwt beam="1">  1        2 0.23913152E-01 0.27801046E+03</pdfrwt>
<pdfrwt beam="2">  1       -2 0.19124881E-01 0.27801046E+03</pdfrwt>
<totfact> 0.51033062E+03</totfact>
</mgrwt>
</event>
<event>
 9    1  0.2114844E-002  0.2753804E+03  0.7818608E-02  0.1098239E+00
          1   -1    0    0  501    0  0.00000000000E+00  0.00000000000E+00  0.43681232194E+03  0.43681232194E+03  0.00000000000E+00 0.  1.
         -1   -1    0    0    0  501 -0.00000000000E+00 -0.00000000000E+00 -0.43402138982E+02  0.43402138982E+02  0.00000000000E+00 0.  1.
         36    2    1    2    0    0  0.00000000000E+00 -0.35527136788E-14  0.39341018296E+03  0.48021446093E+03  0.27538038497E+03 0.  0.
         25    2    3    3    0    0  0.20002039306E+02  0.21141648428E+02  0.27036514561E+03  0.29893923936E+03  0.12417852468E+03 0.  0.
         25    2    3    3    0    0 -0.20002039306E+02 -0.21141648428E+02  0.12304503735E+03  0.18127522156E+03  0.12989832125E+03 0.  0.
          5    1    4    4  502    0 -0.43359037382E+02  0.22385231322E+01  0.39979777016E+02  0.59207175906E+02  0.47000000000E+01 0. -1.
         -5    1    4    4    0  502  0.63361076688E+02  0.18903125296E+02  0.23038536860E+03  0.23973206346E+03  0.47000000000E+01 0. -1.
          5    1    5    5  503    0 -0.64200907856E+01  0.18289587420E+02 -0.22343270507E+02  0.29950597835E+02  0.47000000000E+01 0. -1.
         -5    1    5    5    0  503 -0.13581948520E+02 -0.39431235848E+02  0.14538830786E+03  0.15132462373E+03  0.47000000000E+01 0. -1.
<mgrwt>
<rscale>  0 0.27538038E+03</rscale>
<asrwt>0</asrwt>
<pdfrwt beam="1">  1        1 0.67201893E-01 0.27538038E+03</pdfrwt>
<pdfrwt beam="2">  1       -1 0.66772524E-02 0.27538038E+03</pdfrwt>
<totfact> 0.61012404E+03</totfact>
</mgrwt>
</event>
<event>
 9    1  0.2114844E-002  0.2742487E+03  0.7818608E-02  0.1098872E+00
          3   -1    0    0  501    0  0.00000000000E+00  0.00000000000E+00  0.64913373736E+02  0.64913373736E+02  0.00000000000E+00 0. -1.
         -3   -1    0    0    0  501 -0.00000000000E+00 -0.00000000000E+00 -0.28966438055E+03  0.28966438055E+03  0.00000000000E+00 0. -1.
         36    2    1    2    0    0 -0.17763568394E-14  0.71054273576E-14 -0.22475100681E+03  0.35457775428E+03  0.27424873522E+03 0.  0.
         25    2    3    3    0    0 -0.14481236362E+01 -0.57877326861E+02 -0.97774879336E+02  0.16768184745E+03  0.12331014925E+03 0.  0.
         25    2    3    3    0    0  0.14481236362E+01  0.57877326861E+02 -0.12697612747E+03  0.18689590684E+03  0.12431919006E+03 0.  0.
          5    1    4    4  502    0 -0.48840727958E+02 -0.22252767503E+02 -0.75339657796E+00  0.53881907682E+02  0.47000000000E+01 0. -1.
         -5    1    4    4    0  502  0.47392604322E+02 -0.35624559358E+02 -0.97021482758E+02  0.11379993976E+03  0.47000000000E+01 0. -1.
          5    1    5    5  503    0 -0.14917676472E+02  0.73972750087E+02 -0.21155159985E+02  0.78512009405E+02  0.47000000000E+01 0. -1.
         -5    1    5    5    0  503  0.16365800108E+02 -0.16095423226E+02 -0.10582096749E+03  0.10838389743E+03  0.47000000000E+01 0. -1.
<mgrwt>
<rscale>  0 0.27424874E+03</rscale>
<asrwt>0</asrwt>
<pdfrwt beam="1">  1        3 0.99866731E-02 0.27424874E+03</pdfrwt>
<pdfrwt beam="2">  1       -3 0.44563750E-01 0.27424874E+03</pdfrwt>
<totfact> 0.94454898E+02</totfact>
</mgrwt>
</event>
<event>
 9    1  0.2114844E-002  0.2631503E+03  0.7818608E-02  0.1105265E+00
          1   -1    0    0  501    0  0.00000000000E+00  0.00000000000E+00  0.18565888556E+04  0.18565888556E+04  0.00000000000E+00 0. -1.
         -1   -1    0    0    0  501 -0.00000000000E+00 -0.00000000000E+00 -0.93246387135E+01  0.93246387135E+01  0.00000000000E+00 0. -1.
         36    2    1    2    0    0 -0.35527136788E-14  0.71054273576E-14  0.18472642168E+04  0.18659134943E+04  0.26315030167E+03 0.  0.
         25    2    3    3    0    0  0.19629455151E+02  0.21631837269E+02  0.59698463807E+03  0.60906906113E+03  0.11713757401E+03 0.  0.
         25    2    3    3    0    0 -0.19629455151E+02 -0.21631837269E+02  0.12502795788E+04  0.12568444331E+04  0.12492258450E+03 0.  0.
          5    1    4    4  502    0 -0.11073263104E+02  0.64903346948E+02  0.37643172285E+03  0.38217534401E+03  0.47000000000E+01 0. -1.
         -5    1    4    4    0  502  0.30702718254E+02 -0.43271509679E+02  0.22055291522E+03  0.22689371712E+03  0.47000000000E+01 0. -1.
          5    1    5    5  503    0  0.32524567978E+02 -0.31200866695E+00  0.10178393574E+03  0.10695795644E+03  0.47000000000E+01 0.  1.
         -5    1    5    5    0  503 -0.52154023129E+02 -0.21319828602E+02  0.11484956430E+04  0.11498864767E+04  0.47000000000E+01 0.  1.
<mgrwt>
<rscale>  0 0.26315030E+03</rscale>
<asrwt>0</asrwt>
<pdfrwt beam="1">  1        1 0.28562876E+00 0.26315030E+03</pdfrwt>
<pdfrwt beam="2">  1       -1 0.14345613E-02 0.26315030E+03</pdfrwt>
<totfact> 0.46551952E+03</totfact>
</mgrwt>
</event>
<event>
 9    1  0.2114844E-002  0.2747210E+03  0.7818608E-02  0.1098608E+00
         -2   -1    0    0    0  501 -0.00000000000E+00  0.00000000000E+00  0.92094672140E+01  0.92094672140E+01  0.00000000000E+00 0. -1.
          2   -1    0    0  501    0  0.00000000000E+00 -0.00000000000E+00 -0.20487510724E+04  0.20487510724E+04  0.00000000000E+00 0. -1.
         36    2    1    2    0    0  0.35527136788E-14  0.71054273576E-14 -0.20395416051E+04  0.20579605396E+04  0.27472099178E+03 0.  0.
         25    2    3    3    0    0  0.18616832060E+02  0.35284012299E+02 -0.64038043078E+03  0.65340953714E+03  0.12355314296E+03 0.  0.
         25    2    3    3    0    0 -0.18616832060E+02 -0.35284012299E+02 -0.13991611744E+04  0.14045510024E+04  0.11627544295E+03 0.  0.
          5    1    4    4  502    0 -0.21992336801E+02 -0.38610773289E+02 -0.25496048805E+03  0.25884627708E+03  0.47000000000E+01 0.  1.
         -5    1    4    4    0  502  0.40609168861E+02  0.73894785587E+02 -0.38541994273E+03  0.39456326006E+03  0.47000000000E+01 0.  1.
          5    1    5    5  503    0  0.16451043623E+02  0.31853150022E+02 -0.76685775971E+03  0.76770969359E+03  0.47000000000E+01 0.  1.
         -5    1    5    5    0  503 -0.35067875683E+02 -0.67137162320E+02 -0.63230341466E+03  0.63684130885E+03  0.47000000000E+01 0.  1.
<mgrwt>
<rscale>  0 0.27472099E+03</rscale>
<asrwt>0</asrwt>
<pdfrwt beam="1">  1        2 0.31519316E+00 0.27472099E+03</pdfrwt>
<pdfrwt beam="2">  1       -2 0.14168380E-02 0.27472099E+03</pdfrwt>
<totfact> 0.89809904E+03</totfact>
</mgrwt>
</event>
<event>
 9    1  0.2114844E-002  0.2750546E+03  0.7818608E-02  0.1098421E+00
          2   -1    0    0  501    0  0.00000000000E+00  0.00000000000E+00  0.59503689033E+03  0.59503689033E+03  0.00000000000E+00 0. -1.
         -2   -1    0    0    0  501 -0.00000000000E+00 -0.00000000000E+00 -0.31785869195E+02  0.31785869195E+02  0.00000000000E+00 0. -1.
         36    2    1    2    0    0  0.00000000000E+00 -0.17763568394E-14  0.56325102114E+03  0.62682275953E+03  0.27505464739E+03 0.  0.
         25    2    3    3    0    0  0.15393815422E+02 -0.11250712546E+02  0.46620033794E+03  0.48295578918E+03  0.12465950072E+03 0.  0.
         25    2    3    3    0    0 -0.15393815422E+02  0.11250712546E+02  0.97050683195E+02  0.14386697035E+03  0.10447641821E+03 0.  0.
          5    1    4    4  502    0 -0.44903065463E+02 -0.38153759883E+02  0.24728945414E+03  0.25425608903E+03  0.47000000000E+01 0.  1.
         -5    1    4    4    0  502  0.60296880885E+02  0.26903047337E+02  0.21891088380E+03  0.22869970015E+03  0.47000000000E+01 0.  1.
          5    1    5    5  503    0 -0.55618026861E+02  0.72241871096E+01  0.26024779623E+02  0.62007523299E+02  0.47000000000E+01 0.  1.
         -5    1    5    5    0  503  0.40224211438E+02  0.40265254361E+01  0.71025903571E+02  0.81859447048E+02  0.47000000000E+01 0.  1.
<mgrwt>
<rscale>  0 0.27505465E+03</rscale>
<asrwt>0</asrwt>
<pdfrwt beam="1">  1        2 0.91544128E-01 0.27505465E+03</pdfrwt>
<pdfrwt beam="2">  1       -2 0.48901342E-02 0.27505465E+03</pdfrwt>
<totfact> 0.10271028E+04</totfact>
</mgrwt>
</event>
<event>
 9    1  0.2114844E-002  0.2742639E+03  0.7818608E-02  0.1098864E+00
          3   -1    0    0  501    0  0.00000000000E+00  0.00000000000E+00  0.79228159063E+02  0.79228159063E+02  0.00000000000E+00 0.  1.
         -3   -1    0    0    0  501 -0.00000000000E+00 -0.00000000000E+00 -0.23735465167E+03  0.23735465167E+03  0.00000000000E+00 0.  1.
         36    2    1    2    0    0 -0.35527136788E-14 -0.71054273576E-14 -0.15812649261E+03  0.31658281073E+03  0.27426390281E+03 0.  0.
         25    2    3    3    0    0  0.86451915673E+01 -0.49441258097E+02 -0.39347651289E+02  0.13578886339E+03  0.11987994169E+03 0.  0.
         25    2    3    3    0    0 -0.86451915673E+01  0.49441258097E+02 -0.11877884132E+03  0.18079394734E+03  0.12672356099E+03 0.  0.
          5    1    4    4  502    0  0.14315467827E+02  0.36837007340E+02 -0.27532477081E+02  0.48394473063E+02  0.47000000000E+01 0.  1.
         -5    1    4    4    0  502 -0.56702762592E+01 -0.86278265437E+02 -0.11815174208E+02  0.87394390331E+02  0.47000000000E+01 0.  1.
          5    1    5    5  503    0  0.53936997899E+02  0.36647638912E+02 -0.88282475234E+02  0.10985506185E+03  0.47000000000E+01 0.  1.
         -5    1    5    5    0  503 -0.62582189467E+02  0.12793619185E+02 -0.30496366084E+02  0.70938885490E+02  0.47000000000E+01 0.  1.
<mgrwt>
<rscale>  0 0.27426390E+03</rscale>
<asrwt>0</asrwt>
<pdfrwt beam="1">  1        3 0.12188948E-01 0.27426390E+03</pdfrwt>
<pdfrwt beam="2">  1       -3 0.36516100E-01 0.27426390E+03</pdfrwt>
<totfact> 0.99598780E+02</totfact>
</mgrwt>
</event>
<event>
 9    1  0.2114844E-002  0.2738183E+03  0.7818608E-02  0.1099114E+00
         -2   -1    0    0    0  501 -0.00000000000E+00  0.00000000000E+00  0.39713731070E+01  0.39713731070E+01  0.00000000000E+00 0.  1.
          2   -1    0    0  501    0  0.00000000000E+00 -0.00000000000E+00 -0.47198083397E+04  0.47198083397E+04  0.00000000000E+00 0.  1.
         36    2    1    2    0    0  0.53290705182E-14  0.00000000000E+00 -0.47158369666E+04  0.47237797128E+04  0.27381833328E+03 0.  0.
         25    2    3    3    0    0  0.11173886480E+02  0.17578990440E+02 -0.28634127660E+04  0.28669925928E+04  0.14170385403E+03 0.  0.
         25    2    3    3    0    0 -0.11173886480E+02 -0.17578990440E+02 -0.18524242006E+04  0.18567871200E+04  0.12549547123E+03 0.  0.
          5    1    4    4  502    0  0.10270453935E+02  0.75786795745E+02 -0.11292516133E+04  0.11318482305E+04  0.47000000000E+01 0. -1.
         -5    1    4    4    0  502  0.90343254479E+00 -0.58207805305E+02 -0.17341611527E+04  0.17351443624E+04  0.47000000000E+01 0. -1.
          5    1    5    5  503    0  0.37321635111E+02  0.17530391252E+02 -0.13715064091E+04  0.13721341550E+04  0.47000000000E+01 0. -1.
         -5    1    5    5    0  503 -0.48495521591E+02 -0.35109381692E+02 -0.48091779150E+03  0.48465296500E+03  0.47000000000E+01 0. -1.
<mgrwt>
<rscale>  0 0.27381833E+03</rscale>
<asrwt>0</asrwt>
<pdfrwt beam="1">  1        2 0.72612562E+00 0.27381833E+03</pdfrwt>
<pdfrwt beam="2">  1       -2 0.61097942E-03 0.27381833E+03</pdfrwt>
<totfact> 0.45087294E+02</totfact>
</mgrwt>
</event>
<event>
 9    1  0.2114844E-002  0.2739962E+03  0.7818608E-02  0.1099014E+00
         -1   -1    0    0    0  501 -0.00000000000E+00  0.00000000000E+00  0.49201557349E+03  0.49201557349E+03  0.00000000000E+00 0.  1.
          1   -1    0    0  501    0  0.00000000000E+00 -0.00000000000E+00 -0.38146115055E+02  0.38146115055E+02  0.00000000000E+00 0.  1.
         36    2    1    2    0    0 -0.71054273576E-14  0.00000000000E+00  0.45386945844E+03  0.53016168855E+03  0.27399622388E+03 0.  0.
         25    2    3    3    0    0 -0.49437527449E+02 -0.15473054438E+01  0.28475093326E+03  0.31457117101E+03  0.12419929295E+03 0.  0.
         25    2    3    3    0    0  0.49437527449E+02  0.15473054438E+01  0.16911852518E+03  0.21559051753E+03  0.12422452421E+03 0.  0.
          5    1    4    4  502    0 -0.17762843158E+02 -0.48955427259E+02  0.22825490917E+03  0.23416777322E+03  0.47000000000E+01 0. -1.
         -5    1    4    4    0  502 -0.31674684291E+02  0.47408121815E+02  0.56496024083E+02  0.80403397790E+02  0.47000000000E+01 0. -1.
          5    1    5    5  503    0 -0.83207395702E+01 -0.38156582177E+02  0.84436929173E+01  0.40231149878E+02  0.47000000000E+01 0.  1.
         -5    1    5    5    0  503  0.57758267020E+02  0.39703887621E+02  0.16067483226E+03  0.17535936765E+03  0.47000000000E+01 0.  1.
<mgrwt>
<rscale>  0 0.27399622E+03</rscale>
<asrwt>0</asrwt>
<pdfrwt beam="1">  1        1 0.58686334E-02 0.27399622E+03</pdfrwt>
<pdfrwt beam="2">  1       -1 0.75694699E-01 0.27399622E+03</pdfrwt>
<totfact> 0.24316104E+03</totfact>
</mgrwt>
</event>
<event>
 9    1  0.2114844E-002  0.2742024E+03  0.7818608E-02  0.1098898E+00
          2   -1    0    0  501    0  0.00000000000E+00  0.00000000000E+00  0.25047999044E+03  0.25047999044E+03  0.00000000000E+00 0. -1.
         -2   -1    0    0    0  501 -0.00000000000E+00 -0.00000000000E+00 -0.75042885877E+02  0.75042885877E+02  0.00000000000E+00 0. -1.
         36    2    1    2    0    0  0.00000000000E+00  0.71054273576E-14  0.17543710456E+03  0.32552287632E+03  0.27420241674E+03 0.  0.
         25    2    3    3    0    0  0.15101006150E+02  0.48019172725E+02  0.11380647813E+03  0.17560084238E+03  0.12389455212E+03 0.  0.
         25    2    3    3    0    0 -0.15101006150E+02 -0.48019172725E+02  0.61630626434E+02  0.14992203394E+03  0.12706061864E+03 0.  0.
          5    1    4    4  502    0  0.50266365742E+02  0.72283983007E+02  0.59609438864E+02  0.10642864711E+03  0.47000000000E+01 0. -1.
         -5    1    4    4    0  502 -0.35165359591E+02 -0.24264810282E+02  0.54197039264E+02  0.69172195268E+02  0.47000000000E+01 0. -1.
          5    1    5    5  503    0  0.39734283932E+02  0.22777842904E+02  0.12662281272E+02  0.47750045172E+02  0.47000000000E+01 0.  1.
         -5    1    5    5    0  503 -0.54835290082E+02 -0.70797015629E+02  0.48968345162E+02  0.10217198877E+03  0.47000000000E+01 0.  1.
<mgrwt>
<rscale>  0 0.27420242E+03</rscale>
<asrwt>0</asrwt>
<pdfrwt beam="1">  1        2 0.38535383E-01 0.27420242E+03</pdfrwt>
<pdfrwt beam="2">  1       -2 0.11545060E-01 0.27420242E+03</pdfrwt>
<totfact> 0.69517792E+03</totfact>
</mgrwt>
</event>
<event>
 9    1  0.2114844E-002  0.2752520E+03  0.7818608E-02  0.1098311E+00
          2   -1    0    0  501    0  0.00000000000E+00  0.00000000000E+00  0.35664515666E+04  0.35664515666E+04  0.00000000000E+00 0. -1.
         -2   -1    0    0    0  501 -0.00000000000E+00 -0.00000000000E+00 -0.53108571327E+01  0.53108571327E+01  0.00000000000E+00 0. -1.
         36    2    1    2    0    0  0.00000000000E+00  0.71054273576E-14  0.35611407095E+04  0.35717624238E+04  0.27525199175E+03 0.  0.
         25    2    3    3    0    0  0.21756808918E+02  0.33146136846E+02  0.22390794483E+04  0.22429858569E+04  0.12624085522E+03 0.  0.
         25    2    3    3    0    0 -0.21756808918E+02 -0.33146136846E+02  0.13220612613E+04  0.13287765669E+04  0.12739372453E+03 0.  0.
          5    1    4    4  502    0  0.37044169187E+02  0.76132478306E+02  0.12756263185E+04  0.12784416370E+04  0.47000000000E+01 0. -1.
         -5    1    4    4    0  502 -0.15287360269E+02 -0.42986341460E+02  0.96345312973E+03  0.96454421989E+03  0.47000000000E+01 0. -1.
          5    1    5    5  503    0 -0.46772995893E+02 -0.56306915467E+02  0.11915103665E+04  0.11937659844E+04  0.47000000000E+01 0.  1.
         -5    1    5    5    0  503  0.25016186974E+02  0.23160778621E+02  0.13055089471E+03  0.13501058250E+03  0.47000000000E+01 0.  1.
<mgrwt>
<rscale>  0 0.27525199E+03</rscale>
<asrwt>0</asrwt>
<pdfrwt beam="1">  1        2 0.54868294E+00 0.27525199E+03</pdfrwt>
<pdfrwt beam="2">  1       -2 0.81705779E-03 0.27525199E+03</pdfrwt>
<totfact> 0.26172051E+03</totfact>
</mgrwt>
</event>
<event>
 9    1  0.2114844E-002  0.2783106E+03  0.7818608E-02  0.1096615E+00
         -1   -1    0    0    0  501 -0.00000000000E+00  0.00000000000E+00  0.51774448398E+03  0.51774448398E+03  0.00000000000E+00 0. -1.
          1   -1    0    0  501    0  0.00000000000E+00 -0.00000000000E+00 -0.37401067355E+02  0.37401067355E+02  0.00000000000E+00 0. -1.
         36    2    1    2    0    0  0.00000000000E+00  0.71054273576E-14  0.48034341663E+03  0.55514555134E+03  0.27831059138E+03 0.  0.
         25    2    3    3    0    0  0.19988473144E+02 -0.25552111523E+02  0.35053565007E+03  0.37297700844E+03  0.12322401304E+03 0.  0.
         25    2    3    3    0    0 -0.19988473144E+02  0.25552111523E+02  0.12980776656E+03  0.18216854290E+03  0.12362391476E+03 0.  0.
          5    1    4    4  502    0 -0.34143623014E+02  0.14408953894E+02  0.38154432332E+02  0.53397150218E+02  0.47000000000E+01 0. -1.
         -5    1    4    4    0  502  0.54132096158E+02 -0.39961065417E+02  0.31238121774E+03  0.31957985822E+03  0.47000000000E+01 0. -1.
          5    1    5    5  503    0 -0.89454850947E+01 -0.15668015238E+02  0.13732396592E+03  0.13858380144E+03  0.47000000000E+01 0. -1.
         -5    1    5    5    0  503 -0.11042988049E+02  0.41220126760E+02 -0.75161993649E+01  0.43584741460E+02  0.47000000000E+01 0. -1.
<mgrwt>
<rscale>  0 0.27831059E+03</rscale>
<asrwt>0</asrwt>
<pdfrwt beam="1">  1        1 0.57540107E-02 0.27831059E+03</pdfrwt>
<pdfrwt beam="2">  1       -1 0.79652992E-01 0.27831059E+03</pdfrwt>
<totfact> 0.22508415E+03</totfact>
</mgrwt>
</event>
<event>
 9    1  0.2114844E-002  0.2752102E+03  0.7818608E-02  0.1098334E+00
         -2   -1    0    0    0  501 -0.00000000000E+00  0.00000000000E+00  0.17384187328E+02  0.17384187328E+02  0.00000000000E+00 0. -1.
          2   -1    0    0  501    0  0.00000000000E+00 -0.00000000000E+00 -0.10892176827E+04  0.10892176827E+04  0.00000000000E+00 0. -1.
         36    2    1    2    0    0  0.00000000000E+00  0.35527136788E-14 -0.10718334954E+04  0.11066018700E+04  0.27521020503E+03 0.  0.
         25    2    3    3    0    0 -0.27030935329E+02  0.26058266132E+02 -0.73376783321E+03  0.74513237657E+03  0.12408594146E+03 0.  0.
         25    2    3    3    0    0  0.27030935329E+02 -0.26058266132E+02 -0.33806566217E+03  0.36146949346E+03  0.12231965528E+03 0.  0.
          5    1    4    4  502    0  0.10034929910E+02 -0.30472553562E+02 -0.62104247390E+02  0.70059288341E+02  0.47000000000E+01 0. -1.
         -5    1    4    4    0  502 -0.37065865239E+02  0.56530819695E+02 -0.67166358582E+03  0.67507308823E+03  0.47000000000E+01 0. -1.
          5    1    5    5  503    0  0.72087149454E+02 -0.71318369334E+01 -0.14363892175E+03  0.16093989579E+03  0.47000000000E+01 0.  1.
         -5    1    5    5    0  503 -0.45056214125E+02 -0.18926429199E+02 -0.19442674042E+03  0.20052959768E+03  0.47000000000E+01 0.  1.
<mgrwt>
<rscale>  0 0.27521021E+03</rscale>
<asrwt>0</asrwt>
<pdfrwt beam="1">  1        2 0.16757199E+00 0.27521021E+03</pdfrwt>
<pdfrwt beam="2">  1       -2 0.26744897E-02 0.27521021E+03</pdfrwt>
<totfact> 0.11632290E+04</totfact>
</mgrwt>
</event>
<event>
 9    1  0.2114844E-002  0.2758668E+03  0.7818608E-02  0.1097968E+00
          2   -1    0    0  501    0  0.00000000000E+00  0.00000000000E+00  0.42224786680E+03  0.42224786680E+03  0.00000000000E+00 0.  1.
         -2   -1    0    0    0  501 -0.00000000000E+00 -0.00000000000E+00 -0.45057936728E+02  0.45057936728E+02  0.00000000000E+00 0.  1.
         36    2    1    2    0    0  0.35527136788E-14  0.71054273576E-14  0.37718993008E+03  0.46730580353E+03  0.27586676252E+03 0.  0.
         25    2    3    3    0    0 -0.15410640595E+02 -0.62315046369E+02  0.16623183330E+03  0.21409908274E+03  0.11867915562E+03 0.  0.
         25    2    3    3    0    0  0.15410640595E+02  0.62315046369E+02  0.21095809677E+03  0.25320672079E+03  0.12445751088E+03 0.  0.
          5    1    4    4  502    0 -0.44116424832E+01 -0.90245240939E+01 -0.18441150651E+02  0.21519076696E+02  0.47000000000E+01 0. -1.
         -5    1    4    4    0  502 -0.10998998112E+02 -0.53290522275E+02  0.18467298395E+03  0.19258000604E+03  0.47000000000E+01 0. -1.
          5    1    5    5  503    0  0.15077998784E+02  0.39970133738E+02  0.22319732607E+03  0.22729736911E+03  0.47000000000E+01 0.  1.
         -5    1    5    5    0  503  0.33264181124E+00  0.22344912632E+02 -0.12239229297E+02  0.25909351688E+02  0.47000000000E+01 0.  1.
<mgrwt>
<rscale>  0 0.27586676E+03</rscale>
<asrwt>0</asrwt>
<pdfrwt beam="1">  1        2 0.64961208E-01 0.27586676E+03</pdfrwt>
<pdfrwt beam="2">  1       -2 0.69319905E-02 0.27586676E+03</pdfrwt>
<totfact> 0.88421913E+03</totfact>
</mgrwt>
</event>
<event>
 9    1  0.2114844E-002  0.2752266E+03  0.7818608E-02  0.1098325E+00
          2   -1    0    0  501    0  0.00000000000E+00  0.00000000000E+00  0.23851819873E+04  0.23851819873E+04  0.00000000000E+00 0. -1.
         -2   -1    0    0    0  501 -0.00000000000E+00 -0.00000000000E+00 -0.79396109804E+01  0.79396109804E+01  0.00000000000E+00 0. -1.
         36    2    1    2    0    0  0.00000000000E+00  0.35527136788E-14  0.23772423763E+04  0.23931215982E+04  0.27522657645E+03 0.  0.
         25    2    3    3    0    0 -0.39829023307E+02 -0.46578401336E+01  0.15789486364E+04  0.15839354886E+04  0.11901591976E+03 0.  0.
         25    2    3    3    0    0  0.39829023307E+02  0.46578401336E+01  0.79829373988E+03  0.80918610962E+03  0.12610003289E+03 0.  0.
          5    1    4    4  502    0 -0.15062428987E+02 -0.15322369181E+02  0.15037399999E+04  0.15039008375E+04  0.47000000000E+01 0. -1.
         -5    1    4    4    0  502 -0.24766594320E+02  0.10664529047E+02  0.75208636453E+02  0.80034651065E+02  0.47000000000E+01 0. -1.
          5    1    5    5  503    0  0.17352216709E+02  0.16696026498E+02  0.77154193913E+03  0.77193193389E+03  0.47000000000E+01 0. -1.
         -5    1    5    5    0  503  0.22476806597E+02 -0.12038186364E+02  0.26751800753E+02  0.37254175729E+02  0.47000000000E+01 0. -1.
<mgrwt>
<rscale>  0 0.27522658E+03</rscale>
<asrwt>0</asrwt>
<pdfrwt beam="1">  1        2 0.36695050E+00 0.27522658E+03</pdfrwt>
<pdfrwt beam="2">  1       -2 0.12214805E-02 0.27522658E+03</pdfrwt>
<totfact> 0.73791646E+03</totfact>
</mgrwt>
</event>
<event>
 9    1  0.2114844E-002  0.2744617E+03  0.7818608E-02  0.1098753E+00
          2   -1    0    0  501    0  0.00000000000E+00  0.00000000000E+00  0.11753386165E+03  0.11753386165E+03  0.00000000000E+00 0.  1.
         -2   -1    0    0    0  501 -0.00000000000E+00 -0.00000000000E+00 -0.16022876635E+03  0.16022876635E+03  0.00000000000E+00 0.  1.
         36    2    1    2    0    0  0.00000000000E+00  0.71054273576E-14 -0.42694904697E+02  0.27776262801E+03  0.27446169611E+03 0.  0.
         25    2    3    3    0    0 -0.37796915711E+02 -0.25478716856E+02 -0.73138310605E+02  0.14647719187E+03  0.11844232102E+03 0.  0.
         25    2    3    3    0    0  0.37796915711E+02  0.25478716856E+02  0.30443405907E+02  0.13128543614E+03  0.11929498283E+03 0.  0.
          5    1    4    4  502    0 -0.16366203891E+02  0.47582411187E+02 -0.31842624863E+02  0.59732581079E+02  0.47000000000E+01 0.  1.
         -5    1    4    4    0  502 -0.21430711820E+02 -0.73061128043E+02 -0.41295685742E+02  0.86744610789E+02  0.47000000000E+01 0.  1.
          5    1    5    5  503    0  0.22580229836E+02  0.36852378579E+02  0.72705444648E+02  0.84712078642E+02  0.47000000000E+01 0.  1.
         -5    1    5    5    0  503  0.15216685875E+02 -0.11373661723E+02 -0.42262038740E+02  0.46573357496E+02  0.47000000000E+01 0.  1.
<mgrwt>
<rscale>  0 0.27446170E+03</rscale>
<asrwt>0</asrwt>
<pdfrwt beam="1">  1        2 0.18082133E-01 0.27446170E+03</pdfrwt>
<pdfrwt beam="2">  1       -2 0.24650579E-01 0.27446170E+03</pdfrwt>
<totfact> 0.45226216E+03</totfact>
</mgrwt>
</event>
<event>
 9    1  0.2114844E-002  0.2737994E+03  0.7818608E-02  0.1099125E+00
         -1   -1    0    0    0  501 -0.00000000000E+00  0.00000000000E+00  0.14051623251E+02  0.14051623251E+02  0.00000000000E+00 0. -1.
          1   -1    0    0  501    0  0.00000000000E+00 -0.00000000000E+00 -0.13337626094E+04  0.13337626094E+04  0.00000000000E+00 0. -1.
         36    2    1    2    0    0 -0.71054273576E-14  0.00000000000E+00 -0.13197109861E+04  0.13478142326E+04  0.27379941339E+03 0.  0.
         25    2    3    3    0    0  0.34820660286E+02 -0.37940414444E+02 -0.43690522778E+03  0.45624224468E+03  0.12090845439E+03 0.  0.
         25    2    3    3    0    0 -0.34820660286E+02  0.37940414444E+02 -0.88280575835E+03  0.89157198794E+03  0.11358982915E+03 0.  0.
          5    1    4    4  502    0  0.71031157746E+02 -0.29715001981E+02 -0.16946848221E+03  0.18619898812E+03  0.47000000000E+01 0. -1.
         -5    1    4    4    0  502 -0.36210497460E+02 -0.82254124630E+01 -0.26743674557E+03  0.27004325657E+03  0.47000000000E+01 0. -1.
          5    1    5    5  503    0 -0.81852950632E+01 -0.20928475687E+02 -0.63571370368E+03  0.63612813426E+03  0.47000000000E+01 0.  1.
         -5    1    5    5    0  503 -0.26635365223E+02  0.58868890131E+02 -0.24709205467E+03  0.25544385369E+03  0.47000000000E+01 0.  1.
<mgrwt>
<rscale>  0 0.27379941E+03</rscale>
<asrwt>0</asrwt>
<pdfrwt beam="1">  1        1 0.20519427E+00 0.27379941E+03</pdfrwt>
<pdfrwt beam="2">  1       -1 0.21617879E-02 0.27379941E+03</pdfrwt>
<totfact> 0.56602465E+03</totfact>
</mgrwt>
</event>
<event>
 9    1  0.2114844E-002  0.2860625E+03  0.7818608E-02  0.1092423E+00
         -3   -1    0    0    0  501 -0.00000000000E+00  0.00000000000E+00  0.42990564054E+02  0.42990564054E+02  0.00000000000E+00 0. -1.
          3   -1    0    0  501    0  0.00000000000E+00 -0.00000000000E+00 -0.47587054048E+03  0.47587054048E+03  0.00000000000E+00 0. -1.
         36    2    1    2    0    0  0.00000000000E+00  0.71054273576E-14 -0.43287997643E+03  0.51886110454E+03  0.28606253129E+03 0.  0.
         25    2    3    3    0    0 -0.10476501908E+02  0.60226112046E+02 -0.17480080062E+03  0.22463143227E+03  0.12714959223E+03 0.  0.
         25    2    3    3    0    0  0.10476501908E+02 -0.60226112046E+02 -0.25807917581E+03  0.29422967226E+03  0.12739425964E+03 0.  0.
          5    1    4    4  502    0 -0.47305516164E+00  0.35130919773E+02  0.10768811076E+02  0.37046762305E+02  0.47000000000E+01 0.  1.
         -5    1    4    4    0  502 -0.10003446747E+02  0.25095192273E+02 -0.18556961170E+03  0.18758466997E+03  0.47000000000E+01 0.  1.
          5    1    5    5  503    0  0.94064886853E+01 -0.93483555858E+02 -0.23589941600E+03  0.25396511909E+03  0.47000000000E+01 0. -1.
         -5    1    5    5    0  503  0.10700132230E+01  0.33257443812E+02 -0.22179759813E+02  0.40264553178E+02  0.47000000000E+01 0. -1.
<mgrwt>
<rscale>  0 0.28606253E+03</rscale>
<asrwt>0</asrwt>
<pdfrwt beam="1">  1        3 0.73210854E-01 0.28606253E+03</pdfrwt>
<pdfrwt beam="2">  1       -3 0.66139328E-02 0.28606253E+03</pdfrwt>
<totfact> 0.67098209E+02</totfact>
</mgrwt>
</event>
<event>
 9    1  0.2114844E-002  0.2746555E+03  0.7818608E-02  0.1098644E+00
          2   -1    0    0  501    0  0.00000000000E+00  0.00000000000E+00  0.17239109032E+04  0.17239109032E+04  0.00000000000E+00 0.  1.
         -2   -1    0    0    0  501 -0.00000000000E+00 -0.00000000000E+00 -0.10939605381E+02  0.10939605381E+02  0.00000000000E+00 0.  1.
         36    2    1    2    0    0  0.00000000000E+00 -0.35527136788E-14  0.17129712979E+04  0.17348505086E+04  0.27465545684E+03 0.  0.
         25    2    3    3    0    0  0.44120096299E+02  0.10177226606E+02  0.10502391272E+04  0.10585436516E+04  0.12434741342E+03 0.  0.
         25    2    3    3    0    0 -0.44120096299E+02 -0.10177226606E+02  0.66273217069E+03  0.67630685704E+03  0.12699163742E+03 0.  0.
          5    1    4    4  502    0  0.60649727268E+02 -0.42462877764E+02  0.49149057457E+03  0.49705790437E+03  0.47000000000E+01 0.  1.
         -5    1    4    4    0  502 -0.16529630969E+02  0.52640104369E+02  0.55874855260E+03  0.56148574721E+03  0.47000000000E+01 0.  1.
          5    1    5    5  503    0  0.41816468622E+02 -0.21497775568E+02  0.26904070535E+03  0.27315885952E+03  0.47000000000E+01 0.  1.
         -5    1    5    5    0  503 -0.85936564921E+02  0.11320548963E+02  0.39369146535E+03  0.40314799752E+03  0.47000000000E+01 0.  1.
<mgrwt>
<rscale>  0 0.27465546E+03</rscale>
<asrwt>0</asrwt>
<pdfrwt beam="1">  1        2 0.26521685E+00 0.27465546E+03</pdfrwt>
<pdfrwt beam="2">  1       -2 0.16830176E-02 0.27465546E+03</pdfrwt>
<totfact> 0.10341418E+04</totfact>
</mgrwt>
</event>
<event>
 9    1  0.2114844E-002  0.2752002E+03  0.7818608E-02  0.1098340E+00
         -1   -1    0    0    0  501 -0.00000000000E+00  0.00000000000E+00  0.26902505545E+02  0.26902505545E+02  0.00000000000E+00 0.  1.
          1   -1    0    0  501    0  0.00000000000E+00 -0.00000000000E+00 -0.70379293906E+03  0.70379293906E+03  0.00000000000E+00 0.  1.
         36    2    1    2    0    0 -0.71054273576E-14  0.00000000000E+00 -0.67689043352E+03  0.73069544461E+03  0.27520024306E+03 0.  0.
         25    2    3    3    0    0 -0.41824325102E+02  0.25634450095E+02 -0.42946469470E+03  0.45035755392E+03  0.12639463271E+03 0.  0.
         25    2    3    3    0    0  0.41824325102E+02 -0.25634450095E+02 -0.24742573881E+03  0.28033789068E+03  0.12232513038E+03 0.  0.
          5    1    4    4  502    0 -0.23559925681E+02 -0.34159445064E+02 -0.33101208266E+03  0.33363606917E+03  0.47000000000E+01 0. -1.
         -5    1    4    4    0  502 -0.18264399421E+02  0.59793895159E+02 -0.98452612039E+02  0.11672148475E+03  0.47000000000E+01 0. -1.
          5    1    5    5  503    0 -0.67719082420E+01  0.16822684373E+02  0.52938117775E+01  0.19467303200E+02  0.47000000000E+01 0.  1.
         -5    1    5    5    0  503  0.48596233344E+02 -0.42457134468E+02 -0.25271955059E+03  0.26087058748E+03  0.47000000000E+01 0.  1.
<mgrwt>
<rscale>  0 0.27520024E+03</rscale>
<asrwt>0</asrwt>
<pdfrwt beam="1">  1        1 0.10827584E+00 0.27520024E+03</pdfrwt>
<pdfrwt beam="2">  1       -1 0.41388470E-02 0.27520024E+03</pdfrwt>
<totfact> 0.65181895E+03</totfact>
</mgrwt>
</event>
<event>
 9    1  0.2114844E-002  0.2739755E+03  0.7818608E-02  0.1099026E+00
          2   -1    0    0  501    0  0.00000000000E+00  0.00000000000E+00  0.10733427360E+04  0.10733427360E+04  0.00000000000E+00 0. -1.
         -2   -1    0    0    0  501 -0.00000000000E+00 -0.00000000000E+00 -0.17483365933E+02  0.17483365933E+02  0.00000000000E+00 0. -1.
         36    2    1    2    0    0  0.71054273576E-14  0.00000000000E+00  0.10558593701E+04  0.10908261020E+04  0.27397550128E+03 0.  0.
         25    2    3    3    0    0  0.32265095250E+02  0.32842801748E+02  0.35280468873E+03  0.37545576913E+03  0.11990079309E+03 0.  0.
         25    2    3    3    0    0 -0.32265095250E+02 -0.32842801748E+02  0.70305468138E+03  0.71537033284E+03  0.12389165471E+03 0.  0.
          5    1    4    4  502    0  0.41587872869E+02  0.64474659382E+02  0.13696308470E+03  0.15705893621E+03  0.47000000000E+01 0.  1.
         -5    1    4    4    0  502 -0.93227776191E+01 -0.31631857635E+02  0.21584160403E+03  0.21839683292E+03  0.47000000000E+01 0.  1.
          5    1    5    5  503    0  0.33319568322E+02 -0.49635793752E+00  0.65704931472E+02  0.73821866843E+02  0.47000000000E+01 0. -1.
         -5    1    5    5    0  503 -0.65584663572E+02 -0.32346443810E+02  0.63734974991E+03  0.64154846600E+03  0.47000000000E+01 0. -1.
<mgrwt>
<rscale>  0 0.27397550E+03</rscale>
<asrwt>0</asrwt>
<pdfrwt beam="1">  1        2 0.16512960E+00 0.27397550E+03</pdfrwt>
<pdfrwt beam="2">  1       -2 0.26897494E-02 0.27397550E+03</pdfrwt>
<totfact> 0.11785109E+04</totfact>
</mgrwt>
</event>
<event>
 9    1  0.2114844E-002  0.2751349E+03  0.7818608E-02  0.1098376E+00
          1   -1    0    0  501    0  0.00000000000E+00  0.00000000000E+00  0.17472497689E+04  0.17472497689E+04  0.00000000000E+00 0.  1.
         -1   -1    0    0    0  501 -0.00000000000E+00 -0.00000000000E+00 -0.10831193470E+02  0.10831193470E+02  0.00000000000E+00 0.  1.
         36    2    1    2    0    0  0.71054273576E-14  0.00000000000E+00  0.17364185754E+04  0.17580809623E+04  0.27513487810E+03 0.  0.
         25    2    3    3    0    0 -0.48579140203E+02 -0.36846624316E+02  0.10697378671E+04  0.10792338675E+04  0.12918602766E+03 0.  0.
         25    2    3    3    0    0  0.48579140203E+02  0.36846624316E+02  0.66668070825E+03  0.67884709485E+03  0.11248379814E+03 0.  0.
          5    1    4    4  502    0 -0.40933023499E+01 -0.21422149394E+02  0.25329158800E+02  0.33753813034E+02  0.47000000000E+01 0. -1.
         -5    1    4    4    0  502 -0.44485837853E+02 -0.15424474922E+02  0.10444087083E+04  0.10454800544E+04  0.47000000000E+01 0. -1.
          5    1    5    5  503    0 -0.28316761785E+01 -0.30411369399E+02  0.33788882614E+03  0.33929901062E+03  0.47000000000E+01 0. -1.
         -5    1    5    5    0  503  0.51410816381E+02  0.67257993715E+02  0.32879188212E+03  0.33954808423E+03  0.47000000000E+01 0. -1.
<mgrwt>
<rscale>  0 0.27513488E+03</rscale>
<asrwt>0</asrwt>
<pdfrwt beam="1">  1        1 0.26880743E+00 0.27513488E+03</pdfrwt>
<pdfrwt beam="2">  1       -1 0.16663388E-02 0.27513488E+03</pdfrwt>
<totfact> 0.44092960E+03</totfact>
</mgrwt>
</event>
<event>
 9    1  0.2114844E-002  0.2753774E+03  0.7818608E-02  0.1098241E+00
          4   -1    0    0  501    0  0.00000000000E+00  0.00000000000E+00  0.32266488012E+03  0.32266488012E+03  0.00000000000E+00 0. -1.
         -4   -1    0    0    0  501 -0.00000000000E+00 -0.00000000000E+00 -0.58754989948E+02  0.58754989948E+02  0.00000000000E+00 0. -1.
         36    2    1    2    0    0  0.00000000000E+00  0.00000000000E+00  0.26390989017E+03  0.38141987007E+03  0.27537735410E+03 0.  0.
         25    2    3    3    0    0  0.37711128094E+02 -0.42316874826E+01  0.75563106301E+02  0.15208444216E+03  0.12641146369E+03 0.  0.
         25    2    3    3    0    0 -0.37711128094E+02  0.42316874826E+01  0.18834678387E+03  0.22933542790E+03  0.12522056994E+03 0.  0.
          5    1    4    4  502    0 -0.12981838048E+02  0.53231864212E+02  0.27235328459E+02  0.61367846653E+02  0.47000000000E+01 0.  1.
         -5    1    4    4    0  502  0.50692966142E+02 -0.57463551695E+02  0.48327777843E+02  0.90716595510E+02  0.47000000000E+01 0.  1.
          5    1    5    5  503    0  0.30452958725E+02  0.22562336334E+02  0.13619346977E+03  0.14144678478E+03  0.47000000000E+01 0. -1.
         -5    1    5    5    0  503 -0.68164086818E+02 -0.18330648851E+02  0.52153314100E+02  0.87888643127E+02  0.47000000000E+01 0. -1.
<mgrwt>
<rscale>  0 0.27537735E+03</rscale>
<asrwt>0</asrwt>
<pdfrwt beam="1">  1        4 0.49640750E-01 0.27537735E+03</pdfrwt>
<pdfrwt beam="2">  1       -4 0.90392294E-02 0.27537735E+03</pdfrwt>
<totfact> 0.66420359E+02</totfact>
</mgrwt>
</event>
<event>
 9    1  0.2114844E-002  0.2755290E+03  0.7818608E-02  0.1098156E+00
         -1   -1    0    0    0  501 -0.00000000000E+00  0.00000000000E+00  0.19126289244E+02  0.19126289244E+02  0.00000000000E+00 0.  1.
          1   -1    0    0  501    0  0.00000000000E+00 -0.00000000000E+00 -0.99230224146E+03  0.99230224146E+03  0.00000000000E+00 0.  1.
         36    2    1    2    0    0  0.00000000000E+00  0.00000000000E+00 -0.97317595221E+03  0.10114285307E+04  0.27552901617E+03 0.  0.
         25    2    3    3    0    0  0.35408608144E+02  0.48148023439E+02 -0.49855636381E+03  0.51794151319E+03  0.12701559551E+03 0.  0.
         25    2    3    3    0    0 -0.35408608144E+02 -0.48148023439E+02 -0.47461958841E+03  0.49348701751E+03  0.12121749486E+03 0.  0.
          5    1    4    4  502    0 -0.24576839227E+01 -0.42077020680E+02 -0.15209012532E+03  0.15789240672E+03  0.47000000000E+01 0. -1.
         -5    1    4    4    0  502  0.37866292067E+02  0.90225044119E+02 -0.34646623849E+03  0.36004910647E+03  0.47000000000E+01 0. -1.
          5    1    5    5  503    0  0.20747657390E+02 -0.14201856751E+02 -0.15994177425E+02  0.30167229469E+02  0.47000000000E+01 0.  1.
         -5    1    5    5    0  503 -0.56156265533E+02 -0.33946166688E+02 -0.45862541098E+03  0.46331978804E+03  0.47000000000E+01 0.  1.
<mgrwt>
<rscale>  0 0.27552902E+03</rscale>
<asrwt>0</asrwt>
<pdfrwt beam="1">  1        1 0.15266186E+00 0.27552902E+03</pdfrwt>
<pdfrwt beam="2">  1       -1 0.29425064E-02 0.27552902E+03</pdfrwt>
<totfact> 0.62865320E+03</totfact>
</mgrwt>
</event>
<event>
 9    1  0.2114844E-002  0.2712261E+03  0.7818608E-02  0.1100580E+00
          2   -1    0    0  501    0  0.00000000000E+00  0.00000000000E+00  0.14415389286E+03  0.14415389286E+03  0.00000000000E+00 0.  1.
         -2   -1    0    0    0  501 -0.00000000000E+00 -0.00000000000E+00 -0.12757823781E+03  0.12757823781E+03  0.00000000000E+00 0.  1.
         36    2    1    2    0    0  0.71054273576E-14  0.71054273576E-14  0.16575655042E+02  0.27173213067E+03  0.27122610217E+03 0.  0.
         25    2    3    3    0    0 -0.38023202824E+02 -0.36978469321E+02  0.27985202201E+02  0.13650849850E+03  0.12263045084E+03 0.  0.
         25    2    3    3    0    0  0.38023202824E+02  0.36978469321E+02 -0.11409547159E+02  0.13522363217E+03  0.12386315750E+03 0.  0.
          5    1    4    4  502    0 -0.73636808889E+02 -0.44039938299E+02  0.44010485250E+02  0.96544852792E+02  0.47000000000E+01 0.  1.
         -5    1    4    4    0  502  0.35613606065E+02  0.70614689783E+01 -0.16025283049E+02  0.39963645703E+02  0.47000000000E+01 0.  1.
          5    1    5    5  503    0 -0.17729457943E+01  0.42687394062E+02  0.47300584248E+02  0.63912379230E+02  0.47000000000E+01 0. -1.
         -5    1    5    5    0  503  0.39796148618E+02 -0.57089247408E+01 -0.58710131407E+02  0.71311252943E+02  0.47000000000E+01 0. -1.
<mgrwt>
<rscale>  0 0.27122610E+03</rscale>
<asrwt>0</asrwt>
<pdfrwt beam="1">  1        2 0.22177522E-01 0.27122610E+03</pdfrwt>
<pdfrwt beam="2">  1       -2 0.19627421E-01 0.27122610E+03</pdfrwt>
<totfact> 0.53108969E+03</totfact>
</mgrwt>
</event>
<event>
 9    1  0.2114844E-002  0.2757929E+03  0.7818608E-02  0.1098009E+00
         -2   -1    0    0    0  501 -0.00000000000E+00  0.00000000000E+00  0.29284948166E+02  0.29284948166E+02  0.00000000000E+00 0.  1.
          2   -1    0    0  501    0  0.00000000000E+00 -0.00000000000E+00 -0.64932433974E+03  0.64932433974E+03  0.00000000000E+00 0.  1.
         36    2    1    2    0    0  0.00000000000E+00  0.00000000000E+00 -0.62003939157E+03  0.67860928790E+03  0.27579289064E+03 0.  0.
         25    2    3    3    0    0 -0.48978720816E+02 -0.30798128597E+02 -0.32056745731E+03  0.34975076603E+03  0.12733681257E+03 0.  0.
         25    2    3    3    0    0  0.48978720816E+02  0.30798128597E+02 -0.29947193426E+03  0.32885852188E+03  0.12295140577E+03 0.  0.
          5    1    4    4  502    0  0.87462563185E+01 -0.65351575209E+02 -0.21080111830E+03  0.22092199270E+03  0.47000000000E+01 0. -1.
         -5    1    4    4    0  502 -0.57724977135E+02  0.34553446612E+02 -0.10976633900E+03  0.12882877332E+03  0.47000000000E+01 0. -1.
          5    1    5    5  503    0 -0.37424165322E+02 -0.54167723491E+01 -0.54141646426E+02  0.66206626938E+02  0.47000000000E+01 0.  1.
         -5    1    5    5    0  503  0.86402886139E+02  0.36214900947E+02 -0.24533028784E+03  0.26265189494E+03  0.47000000000E+01 0.  1.
<mgrwt>
<rscale>  0 0.27579289E+03</rscale>
<asrwt>0</asrwt>
<pdfrwt beam="1">  1        2 0.99896054E-01 0.27579289E+03</pdfrwt>
<pdfrwt beam="2">  1       -2 0.45053766E-02 0.27579289E+03</pdfrwt>
<totfact> 0.10498488E+04</totfact>
</mgrwt>
</event>
<event>
 9    1  0.2114844E-002  0.2749458E+03  0.7818608E-02  0.1098482E+00
          1   -1    0    0  501    0  0.00000000000E+00  0.00000000000E+00  0.12699226971E+03  0.12699226971E+03  0.00000000000E+00 0. -1.
         -1   -1    0    0    0  501 -0.00000000000E+00 -0.00000000000E+00 -0.14881849187E+03  0.14881849187E+03  0.00000000000E+00 0. -1.
         36    2    1    2    0    0 -0.14210854715E-13  0.00000000000E+00 -0.21826222167E+02  0.27581076158E+03  0.27494579871E+03 0.  0.
         25    2    3    3    0    0 -0.54368767296E+02  0.21341557996E+02  0.23780213956E+02  0.13437437252E+03  0.11865727310E+03 0.  0.
         25    2    3    3    0    0  0.54368767296E+02 -0.21341557996E+02 -0.45606436123E+02  0.14143638906E+03  0.12046941595E+03 0.  0.
          5    1    4    4  502    0  0.17497961920E+02 -0.28890985859E+02 -0.16363870440E+02  0.37825044495E+02  0.47000000000E+01 0.  1.
         -5    1    4    4    0  502 -0.71866729216E+02  0.50232543855E+02  0.40144084396E+02  0.96549328027E+02  0.47000000000E+01 0.  1.
          5    1    5    5  503    0  0.88576607566E+02 -0.35769857579E+02 -0.25633378934E+02  0.99017464291E+02  0.47000000000E+01 0.  1.
         -5    1    5    5    0  503 -0.34207840269E+02  0.14428299584E+02 -0.19973057189E+02  0.42418924765E+02  0.47000000000E+01 0.  1.
<mgrwt>
<rscale>  0 0.27494580E+03</rscale>
<asrwt>0</asrwt>
<pdfrwt beam="1">  1        1 0.19537272E-01 0.27494580E+03</pdfrwt>
<pdfrwt beam="2">  1       -1 0.22895153E-01 0.27494580E+03</pdfrwt>
<totfact> 0.42200823E+03</totfact>
</mgrwt>
</event>
<event>
 9    1  0.2114844E-002  0.2754688E+03  0.7818608E-02  0.1098190E+00
          2   -1    0    0  501    0  0.00000000000E+00  0.00000000000E+00  0.39563741088E+04  0.39563741088E+04  0.00000000000E+00 0.  1.
         -2   -1    0    0    0  501 -0.00000000000E+00 -0.00000000000E+00 -0.47949882735E+01  0.47949882735E+01  0.00000000000E+00 0.  1.
         36    2    1    2    0    0  0.00000000000E+00  0.14210854715E-13  0.39515791206E+04  0.39611690971E+04  0.27546881825E+03 0.  0.
         25    2    3    3    0    0  0.19179507303E+02 -0.45525540604E+02  0.15000242005E+04  0.15060159346E+04  0.12478367143E+03 0.  0.
         25    2    3    3    0    0 -0.19179507303E+02  0.45525540604E+02  0.24515549200E+04  0.24551531625E+04  0.12334949226E+03 0.  0.
          5    1    4    4  502    0  0.46735239223E+01  0.24130905084E+02  0.10565002685E+04  0.10567965981E+04  0.47000000000E+01 0. -1.
         -5    1    4    4    0  502  0.14505983381E+02 -0.69656445688E+02  0.44352393206E+03  0.44921933650E+03  0.47000000000E+01 0. -1.
          5    1    5    5  503    0 -0.44353761355E+02  0.54664830300E+02  0.73398052212E+03  0.73736354444E+03  0.47000000000E+01 0.  1.
         -5    1    5    5    0  503  0.25174254052E+02 -0.91392896955E+01  0.17175743979E+04  0.17177896181E+04  0.47000000000E+01 0.  1.
<mgrwt>
<rscale>  0 0.27546882E+03</rscale>
<asrwt>0</asrwt>
<pdfrwt beam="1">  1        2 0.60867033E+00 0.27546882E+03</pdfrwt>
<pdfrwt beam="2">  1       -2 0.73769367E-03 0.27546882E+03</pdfrwt>
<totfact> 0.16000427E+03</totfact>
</mgrwt>
</event>
<event>
 9    1  0.2114844E-002  0.2752728E+03  0.7818608E-02  0.1098299E+00
          2   -1    0    0  501    0  0.00000000000E+00  0.00000000000E+00  0.19294178005E+03  0.19294178005E+03  0.00000000000E+00 0. -1.
         -2   -1    0    0    0  501 -0.00000000000E+00 -0.00000000000E+00 -0.98183912807E+02  0.98183912807E+02  0.00000000000E+00 0. -1.
         36    2    1    2    0    0  0.00000000000E+00 -0.71054273576E-14  0.94757867238E+02  0.29112569285E+03  0.27527280221E+03 0.  0.
         25    2    3    3    0    0 -0.50208582181E+02  0.33908464266E+02  0.33979648960E+02  0.14078282191E+03  0.12245203439E+03 0.  0.
         25    2    3    3    0    0  0.50208582181E+02 -0.33908464266E+02  0.60778218278E+02  0.15034287094E+03  0.12344351483E+03 0.  0.
          5    1    4    4  502    0 -0.30318665447E+02  0.48253300422E+02  0.74056971412E+02  0.93563494435E+02  0.47000000000E+01 0. -1.
         -5    1    4    4    0  502 -0.19889916735E+02 -0.14344836156E+02 -0.40077322452E+02  0.47219327473E+02  0.47000000000E+01 0. -1.
          5    1    5    5  503    0 -0.14861718988E+02  0.29795330493E+02 -0.98120547909E+01  0.35028543071E+02  0.47000000000E+01 0. -1.
         -5    1    5    5    0  503  0.65070301169E+02 -0.63703794759E+02  0.70590273069E+02  0.11531432787E+03  0.47000000000E+01 0. -1.
<mgrwt>
<rscale>  0 0.27527280E+03</rscale>
<asrwt>0</asrwt>
<pdfrwt beam="1">  1        2 0.29683351E-01 0.27527280E+03</pdfrwt>
<pdfrwt beam="2">  1       -2 0.15105217E-01 0.27527280E+03</pdfrwt>
<totfact> 0.59596610E+03</totfact>
</mgrwt>
</event>
<event>
 9    1  0.2114844E-002  0.2755096E+03  0.7818608E-02  0.1098167E+00
          1   -1    0    0  501    0  0.00000000000E+00  0.00000000000E+00  0.40216593846E+03  0.40216593846E+03  0.00000000000E+00 0.  1.
         -1   -1    0    0    0  501 -0.00000000000E+00 -0.00000000000E+00 -0.47185449876E+02  0.47185449876E+02  0.00000000000E+00 0.  1.
         36    2    1    2    0    0 -0.71054273576E-14  0.00000000000E+00  0.35498048858E+03  0.44935138834E+03  0.27550956957E+03 0.  0.
         25    2    3    3    0    0  0.22200192941E+02 -0.28428334502E+02  0.11951640619E+03  0.17810380349E+03  0.12702666925E+03 0.  0.
         25    2    3    3    0    0 -0.22200192941E+02  0.28428334502E+02  0.23546408239E+03  0.27124758484E+03  0.12973395630E+03 0.  0.
          5    1    4    4  502    0 -0.39378641897E+02 -0.37943718503E+02  0.97434577778E+02  0.11183018447E+03  0.47000000000E+01 0.  1.
         -5    1    4    4    0  502  0.61578834838E+02  0.95153840009E+01  0.22081828413E+02  0.66273619025E+02  0.47000000000E+01 0.  1.
          5    1    5    5  503    0  0.16395797356E+02  0.26780358911E+02 -0.83879415241E+00  0.31761665101E+02  0.47000000000E+01 0. -1.
         -5    1    5    5    0  503 -0.38595990297E+02  0.16479755902E+01  0.23630287655E+03  0.23948591974E+03  0.47000000000E+01 0. -1.
<mgrwt>
<rscale>  0 0.27550957E+03</rscale>
<asrwt>0</asrwt>
<pdfrwt beam="1">  1        1 0.61871681E-01 0.27550957E+03</pdfrwt>
<pdfrwt beam="2">  1       -1 0.72593002E-02 0.27550957E+03</pdfrwt>
<totfact> 0.59792192E+03</totfact>
</mgrwt>
</event>
<event>
 9    1  0.2114844E-002  0.2735337E+03  0.7818608E-02  0.1099274E+00
         -2   -1    0    0    0  501 -0.00000000000E+00  0.00000000000E+00  0.21833250964E+02  0.21833250964E+02  0.00000000000E+00 0. -1.
          2   -1    0    0  501    0  0.00000000000E+00 -0.00000000000E+00 -0.85672864706E+03  0.85672864706E+03  0.00000000000E+00 0. -1.
         36    2    1    2    0    0  0.35527136788E-14  0.00000000000E+00 -0.83489539609E+03  0.87856189802E+03  0.27353370220E+03 0.  0.
         25    2    3    3    0    0 -0.24342882815E+02 -0.39932938041E+02 -0.31826004670E+03  0.34505561455E+03  0.12484672330E+03 0.  0.
         25    2    3    3    0    0  0.24342882815E+02  0.39932938041E+02 -0.51663534939E+03  0.53350628347E+03  0.12461803554E+03 0.  0.
          5    1    4    4  502    0 -0.55676608407E+02 -0.32865326818E+02 -0.30175216766E+03  0.30863647729E+03  0.47000000000E+01 0.  1.
         -5    1    4    4    0  502  0.31333725592E+02 -0.70676112232E+01 -0.16507879048E+02  0.36419137257E+02  0.47000000000E+01 0.  1.
          5    1    5    5  503    0  0.20357885582E+02  0.29376442059E+02 -0.51966439788E+03  0.52091323201E+03  0.47000000000E+01 0.  1.
         -5    1    5    5    0  503  0.39849972327E+01  0.10556495982E+02  0.30290484953E+01  0.12593051463E+02  0.47000000000E+01 0.  1.
<mgrwt>
<rscale>  0 0.27353370E+03</rscale>
<asrwt>0</asrwt>
<pdfrwt beam="1">  1        2 0.13180443E+00 0.27353370E+03</pdfrwt>
<pdfrwt beam="2">  1       -2 0.33589612E-02 0.27353370E+03</pdfrwt>
<totfact> 0.11562676E+04</totfact>
</mgrwt>
</event>
<event>
 9    1  0.2114844E-002  0.2737779E+03  0.7818608E-02  0.1099137E+00
          2   -1    0    0  501    0  0.00000000000E+00  0.00000000000E+00  0.32343867191E+03  0.32343867191E+03  0.00000000000E+00 0.  1.
         -2   -1    0    0    0  501 -0.00000000000E+00 -0.00000000000E+00 -0.57935528445E+02  0.57935528445E+02  0.00000000000E+00 0.  1.
         36    2    1    2    0    0 -0.26645352591E-14  0.00000000000E+00  0.26550314346E+03  0.38137420035E+03  0.27377794196E+03 0.  0.
         25    2    3    3    0    0 -0.35142226920E+00  0.13627019171E+02  0.59896206238E+02  0.13845072865E+03  0.12407751446E+03 0.  0.
         25    2    3    3    0    0  0.35142226920E+00 -0.13627019171E+02  0.20560693723E+03  0.24292347170E+03  0.12865372641E+03 0.  0.
          5    1    4    4  502    0  0.41401296998E+01 -0.24684529348E+02  0.87275253973E+02  0.90914941671E+02  0.47000000000E+01 0. -1.
         -5    1    4    4    0  502 -0.44915519690E+01  0.38311548520E+02 -0.27379047735E+02  0.47535786981E+02  0.47000000000E+01 0. -1.
          5    1    5    5  503    0 -0.49865808335E+02  0.28640110926E+02  0.13275705291E+03  0.14475282344E+03  0.47000000000E+01 0.  1.
         -5    1    5    5    0  503  0.50217230604E+02 -0.42267130097E+02  0.72849884314E+02  0.98170648265E+02  0.47000000000E+01 0.  1.
<mgrwt>
<rscale>  0 0.27377794E+03</rscale>
<asrwt>0</asrwt>
<pdfrwt beam="1">  1        2 0.49759795E-01 0.27377794E+03</pdfrwt>
<pdfrwt beam="2">  1       -2 0.89131584E-02 0.27377794E+03</pdfrwt>
<totfact> 0.79688346E+03</totfact>
</mgrwt>
</event>
<event>
 9    1  0.2114844E-002  0.2750065E+03  0.7818608E-02  0.1098448E+00
         -1   -1    0    0    0  501 -0.00000000000E+00  0.00000000000E+00  0.37999745274E+02  0.37999745274E+02  0.00000000000E+00 0. -1.
          1   -1    0    0  501    0  0.00000000000E+00 -0.00000000000E+00 -0.49755963858E+03  0.49755963858E+03  0.00000000000E+00 0. -1.
         36    2    1    2    0    0  0.00000000000E+00  0.00000000000E+00 -0.45955989331E+03  0.53555938386E+03  0.27500646919E+03 0.  0.
         25    2    3    3    0    0  0.48756266995E+02 -0.60155299516E+01 -0.21950404302E+03  0.26020037819E+03  0.13080080938E+03 0.  0.
         25    2    3    3    0    0 -0.48756266995E+02  0.60155299516E+01 -0.24005585029E+03  0.27535900567E+03  0.12562806444E+03 0.  0.
          5    1    4    4  502    0  0.91279812092E+02  0.68658430762E+01 -0.11895730566E+03  0.15017348123E+03  0.47000000000E+01 0. -1.
         -5    1    4    4    0  502 -0.42523545097E+02 -0.12881373028E+02 -0.10054673737E+03  0.11002689695E+03  0.47000000000E+01 0. -1.
          5    1    5    5  503    0 -0.37064202740E+02  0.54721107461E+02 -0.63495931294E+02  0.91771335489E+02  0.47000000000E+01 0.  1.
         -5    1    5    5    0  503 -0.11692064255E+02 -0.48705577510E+02 -0.17655991899E+03  0.18358767018E+03  0.47000000000E+01 0.  1.
<mgrwt>
<rscale>  0 0.27500647E+03</rscale>
<asrwt>0</asrwt>
<pdfrwt beam="1">  1        1 0.76547629E-01 0.27500647E+03</pdfrwt>
<pdfrwt beam="2">  1       -1 0.58461152E-02 0.27500647E+03</pdfrwt>
<totfact> 0.62870171E+03</totfact>
</mgrwt>
</event>
<event>
 9    1  0.2114844E-002  0.2747694E+03  0.7818608E-02  0.1098581E+00
          2   -1    0    0  501    0  0.00000000000E+00  0.00000000000E+00  0.55391907204E+03  0.55391907204E+03  0.00000000000E+00 0. -1.
         -2   -1    0    0    0  501 -0.00000000000E+00 -0.00000000000E+00 -0.34074574637E+02  0.34074574637E+02  0.00000000000E+00 0. -1.
         36    2    1    2    0    0 -0.71054273576E-14  0.71054273576E-14  0.51984449741E+03  0.58799364668E+03  0.27476940705E+03 0.  0.
         25    2    3    3    0    0 -0.29786358551E+02 -0.33449154346E+02  0.23082331112E+03  0.26900499782E+03  0.13068364403E+03 0.  0.
         25    2    3    3    0    0  0.29786358551E+02  0.33449154346E+02  0.28902118629E+03  0.31898864886E+03  0.12733592931E+03 0.  0.
          5    1    4    4  502    0 -0.75342465288E+02  0.68648691960E+01  0.10912153088E+03  0.13286539055E+03  0.47000000000E+01 0.  1.
         -5    1    4    4    0  502  0.45556106737E+02 -0.40314023542E+02  0.12170178024E+03  0.13613960727E+03  0.47000000000E+01 0.  1.
          5    1    5    5  503    0  0.14598226158E+02 -0.38489625621E+02  0.19597087570E+03  0.20030285472E+03  0.47000000000E+01 0. -1.
         -5    1    5    5    0  503  0.15188132392E+02  0.71938779967E+02  0.93050310592E+02  0.11868579414E+03  0.47000000000E+01 0. -1.
<mgrwt>
<rscale>  0 0.27476941E+03</rscale>
<asrwt>0</asrwt>
<pdfrwt beam="1">  1        2 0.85218312E-01 0.27476941E+03</pdfrwt>
<pdfrwt beam="2">  1       -2 0.52422427E-02 0.27476941E+03</pdfrwt>
<totfact> 0.10032892E+04</totfact>
</mgrwt>
</event>
<event>
 9    1  0.2114844E-002  0.2737463E+03  0.7818608E-02  0.1099154E+00
          2   -1    0    0  501    0  0.00000000000E+00  0.00000000000E+00  0.15508046943E+04  0.15508046943E+04  0.00000000000E+00 0.  1.
         -2   -1    0    0    0  501 -0.00000000000E+00 -0.00000000000E+00 -0.12080348303E+02  0.12080348303E+02  0.00000000000E+00 0.  1.
         36    2    1    2    0    0  0.71054273576E-14  0.00000000000E+00  0.15387243460E+04  0.15628850426E+04  0.27374631217E+03 0.  0.
         25    2    3    3    0    0 -0.22049371744E+02  0.16864239390E+02  0.50869273025E+03  0.52542476536E+03  0.12857804201E+03 0.  0.
         25    2    3    3    0    0  0.22049371744E+02 -0.16864239390E+02  0.10300316158E+04  0.10374602773E+04  0.12078129010E+03 0.  0.
          5    1    4    4  502    0  0.38629781587E+01  0.52722853512E+02  0.44249029905E+03  0.44566172893E+03  0.47000000000E+01 0.  1.
         -5    1    4    4    0  502 -0.25912349902E+02 -0.35858614122E+02  0.66202431198E+02  0.79763036432E+02  0.47000000000E+01 0.  1.
          5    1    5    5  503    0  0.66949033658E+02  0.12054109301E+02  0.47945663767E+03  0.48428114982E+03  0.47000000000E+01 0. -1.
         -5    1    5    5    0  503 -0.44899661915E+02 -0.28918348691E+02  0.55057497810E+03  0.55317912745E+03  0.47000000000E+01 0. -1.
<mgrwt>
<rscale>  0 0.27374631E+03</rscale>
<asrwt>0</asrwt>
<pdfrwt beam="1">  1        2 0.23858518E+00 0.27374631E+03</pdfrwt>
<pdfrwt beam="2">  1       -2 0.18585164E-02 0.27374631E+03</pdfrwt>
<totfact> 0.11037432E+04</totfact>
</mgrwt>
</event>
<event>
 9    1  0.2114844E-002  0.2735867E+03  0.7818608E-02  0.1099244E+00
          2   -1    0    0  501    0  0.00000000000E+00  0.00000000000E+00  0.19603207315E+04  0.19603207315E+04  0.00000000000E+00 0.  1.
         -2   -1    0    0    0  501 -0.00000000000E+00 -0.00000000000E+00 -0.95455892511E+01  0.95455892511E+01  0.00000000000E+00 0.  1.
         36    2    1    2    0    0 -0.14210854715E-13 -0.71054273576E-14  0.19507751423E+04  0.19698663208E+04  0.27358667002E+03 0.  0.
         25    2    3    3    0    0 -0.40913060648E+02  0.35751822122E+02  0.91613642704E+03  0.92633832824E+03  0.12587562943E+03 0.  0.
         25    2    3    3    0    0  0.40913060648E+02 -0.35751822122E+02  0.10346387152E+04  0.10435279925E+04  0.12458462524E+03 0.  0.
          5    1    4    4  502    0  0.42452464583E+02  0.20972708172E+02  0.22202961171E+03  0.22707114461E+03  0.47000000000E+01 0. -1.
         -5    1    4    4    0  502 -0.83365525231E+02  0.14779113950E+02  0.69410681533E+03  0.69926718363E+03  0.47000000000E+01 0. -1.
          5    1    5    5  503    0  0.98020958915E+01  0.35696763120E+02  0.12257403968E+03  0.12812815922E+03  0.47000000000E+01 0. -1.
         -5    1    5    5    0  503  0.31110964757E+02 -0.71448585242E+02  0.91206467553E+03  0.91539983330E+03  0.47000000000E+01 0. -1.
<mgrwt>
<rscale>  0 0.27358667E+03</rscale>
<asrwt>0</asrwt>
<pdfrwt beam="1">  1        2 0.30158749E+00 0.27358667E+03</pdfrwt>
<pdfrwt beam="2">  1       -2 0.14685537E-02 0.27358667E+03</pdfrwt>
<totfact> 0.94860130E+03</totfact>
</mgrwt>
</event>
<event>
 9    1  0.2114844E-002  0.2742572E+03  0.7818608E-02  0.1098868E+00
         -2   -1    0    0    0  501 -0.00000000000E+00  0.00000000000E+00  0.14103586090E+03  0.14103586090E+03  0.00000000000E+00 0. -1.
          2   -1    0    0  501    0  0.00000000000E+00 -0.00000000000E+00 -0.13332954060E+03  0.13332954060E+03  0.00000000000E+00 0. -1.
         36    2    1    2    0    0  0.35527136788E-14  0.71054273576E-14  0.77063202999E+01  0.27436540150E+03  0.27425715335E+03 0.  0.
         25    2    3    3    0    0 -0.82033106718E+01  0.61094331911E+02 -0.61498658080E+01  0.13964727134E+03  0.12515481551E+03 0.  0.
         25    2    3    3    0    0  0.82033106718E+01 -0.61094331911E+02  0.13856186108E+02  0.13471813015E+03  0.11898390228E+03 0.  0.
          5    1    4    4  502    0 -0.89884718754E+01 -0.38494780953E+02 -0.16943228924E+01  0.39844717559E+02  0.47000000000E+01 0. -1.
         -5    1    4    4    0  502  0.78516120362E+00  0.99589112864E+02 -0.44555429157E+01  0.99802553784E+02  0.47000000000E+01 0. -1.
          5    1    5    5  503    0 -0.20477094181E+02  0.17171820570E+02  0.39013784361E+02  0.47522080951E+02  0.47000000000E+01 0.  1.
         -5    1    5    5    0  503  0.28680404852E+02 -0.78266152481E+02 -0.25157598253E+02  0.87196049202E+02  0.47000000000E+01 0.  1.
<mgrwt>
<rscale>  0 0.27425715E+03</rscale>
<asrwt>0</asrwt>
<pdfrwt beam="1">  1        2 0.20512237E-01 0.27425715E+03</pdfrwt>
<pdfrwt beam="2">  1       -2 0.21697825E-01 0.27425715E+03</pdfrwt>
<totfact> 0.48872436E+03</totfact>
</mgrwt>
</event>
<event>
 9    1  0.2114844E-002  0.2740995E+03  0.7818608E-02  0.1098956E+00
         -2   -1    0    0    0  501 -0.00000000000E+00  0.00000000000E+00  0.30503792922E+02  0.30503792922E+02  0.00000000000E+00 0.  1.
          2   -1    0    0  501    0  0.00000000000E+00 -0.00000000000E+00 -0.61574770294E+03  0.61574770294E+03  0.00000000000E+00 0.  1.
         36    2    1    2    0    0  0.00000000000E+00  0.88817841970E-15 -0.58524391001E+03  0.64625149586E+03  0.27409954704E+03 0.  0.
         25    2    3    3    0    0 -0.50838921530E+02  0.66028344434E+01 -0.40552868457E+03  0.42708602408E+03  0.12377707619E+03 0.  0.
         25    2    3    3    0    0  0.50838921530E+02 -0.66028344434E+01 -0.17971522544E+03  0.21916547178E+03  0.11448907545E+03 0.  0.
          5    1    4    4  502    0 -0.76676855958E+02  0.64128319274E+01 -0.13637989566E+03  0.15665896270E+03  0.47000000000E+01 0.  1.
         -5    1    4    4    0  502  0.25837934428E+02  0.19000251604E+00 -0.26914878891E+03  0.27042706138E+03  0.47000000000E+01 0.  1.
          5    1    5    5  503    0 -0.24147821459E+02  0.22059635300E+01 -0.57376997190E+00  0.24706330531E+02  0.47000000000E+01 0.  1.
         -5    1    5    5    0  503  0.74986742990E+02 -0.88087979734E+01 -0.17914145547E+03  0.19445914125E+03  0.47000000000E+01 0.  1.
<mgrwt>
<rscale>  0 0.27409955E+03</rscale>
<asrwt>0</asrwt>
<pdfrwt beam="1">  1        2 0.94730410E-01 0.27409955E+03</pdfrwt>
<pdfrwt beam="2">  1       -2 0.46928915E-02 0.27409955E+03</pdfrwt>
<totfact> 0.10504492E+04</totfact>
</mgrwt>
</event>
<event>
 9    1  0.2114844E-002  0.2748726E+03  0.7818608E-02  0.1098523E+00
         -2   -1    0    0    0  501 -0.00000000000E+00  0.00000000000E+00  0.30121078248E+02  0.30121078248E+02  0.00000000000E+00 0.  1.
          2   -1    0    0  501    0  0.00000000000E+00 -0.00000000000E+00 -0.62709376720E+03  0.62709376720E+03  0.00000000000E+00 0.  1.
         36    2    1    2    0    0 -0.71054273576E-14 -0.35527136788E-14 -0.59697268896E+03  0.65721484545E+03  0.27487262818E+03 0.  0.
         25    2    3    3    0    0 -0.16014646371E+02 -0.21018042332E+02 -0.17284378034E+03  0.21433377743E+03  0.12395873806E+03 0.  0.
         25    2    3    3    0    0  0.16014646371E+02  0.21018042332E+02 -0.42412890861E+03  0.44288106802E+03  0.12474005889E+03 0.  0.
          5    1    4    4  502    0 -0.24154923023E+02 -0.56462562884E+02 -0.33229354387E+02  0.69984007506E+02  0.47000000000E+01 0. -1.
         -5    1    4    4    0  502  0.81402766520E+01  0.35444520552E+02 -0.13961442596E+03  0.14434976992E+03  0.47000000000E+01 0. -1.
          5    1    5    5  503    0  0.69073814681E+02 -0.19077798968E+01 -0.21676428155E+03  0.22756026730E+03  0.47000000000E+01 0. -1.
         -5    1    5    5    0  503 -0.53059168310E+02  0.22925822229E+02 -0.20736462707E+03  0.21532080073E+03  0.47000000000E+01 0. -1.
<mgrwt>
<rscale>  0 0.27487263E+03</rscale>
<asrwt>0</asrwt>
<pdfrwt beam="1">  1        2 0.96475971E-01 0.27487263E+03</pdfrwt>
<pdfrwt beam="2">  1       -2 0.46340117E-02 0.27487263E+03</pdfrwt>
<totfact> 0.10481724E+04</totfact>
</mgrwt>
</event>
<event>
 9    1  0.2114844E-002  0.2733512E+03  0.7818608E-02  0.1099377E+00
          2   -1    0    0  501    0  0.00000000000E+00  0.00000000000E+00  0.14790606924E+04  0.14790606924E+04  0.00000000000E+00 0.  1.
         -2   -1    0    0    0  501 -0.00000000000E+00 -0.00000000000E+00 -0.12629785132E+02  0.12629785132E+02  0.00000000000E+00 0.  1.
         36    2    1    2    0    0  0.00000000000E+00  0.00000000000E+00  0.14664309073E+04  0.14916904775E+04  0.27335119346E+03 0.  0.
         25    2    3    3    0    0 -0.23985770516E+01 -0.38723362916E+02  0.91863753270E+03  0.92796953654E+03  0.12540850149E+03 0.  0.
         25    2    3    3    0    0  0.23985770516E+01  0.38723362916E+02  0.54779337457E+03  0.56372094099E+03  0.12727319470E+03 0.  0.
          5    1    4    4  502    0  0.44785219065E+02 -0.26763964317E+02  0.76377515170E+03  0.76556945994E+03  0.47000000000E+01 0. -1.
         -5    1    4    4    0  502 -0.47183796116E+02 -0.11959398599E+02  0.15486238100E+03  0.16240007660E+03  0.47000000000E+01 0. -1.
          5    1    5    5  503    0  0.20504600104E+02  0.16449373259E+02  0.52768440772E+03  0.52835967357E+03  0.47000000000E+01 0. -1.
         -5    1    5    5    0  503 -0.18106023052E+02  0.22273989657E+02  0.20108966845E+02  0.35361267421E+02  0.47000000000E+01 0. -1.
<mgrwt>
<rscale>  0 0.27335119E+03</rscale>
<asrwt>0</asrwt>
<pdfrwt beam="1">  1        2 0.22754766E+00 0.27335119E+03</pdfrwt>
<pdfrwt beam="2">  1       -2 0.19430450E-02 0.27335119E+03</pdfrwt>
<totfact> 0.11292883E+04</totfact>
</mgrwt>
</event>
<event>
 9    1  0.2114844E-002  0.2745351E+03  0.7818608E-02  0.1098712E+00
         -3   -1    0    0    0  501 -0.00000000000E+00  0.00000000000E+00  0.26890210486E+03  0.26890210486E+03  0.00000000000E+00 0. -1.
          3   -1    0    0  501    0  0.00000000000E+00 -0.00000000000E+00 -0.70071523862E+02  0.70071523862E+02  0.00000000000E+00 0. -1.
         36    2    1    2    0    0  0.17763568394E-14  0.00000000000E+00  0.19883058100E+03  0.33897362872E+03  0.27453509981E+03 0.  0.
         25    2    3    3    0    0 -0.72867157650E+01  0.54595297440E+02  0.11874002364E+03  0.18100027031E+03  0.12501264699E+03 0.  0.
         25    2    3    3    0    0  0.72867157650E+01 -0.54595297440E+02  0.80090557351E+02  0.15797335841E+03  0.12452847812E+03 0.  0.
          5    1    4    4  502    0 -0.50116781851E+01  0.52435041761E+02 -0.85628535242E+01  0.53572035459E+02  0.47000000000E+01 0. -1.
         -5    1    4    4    0  502 -0.22750375799E+01  0.21602556790E+01  0.12730287717E+03  0.12742823485E+03  0.47000000000E+01 0. -1.
          5    1    5    5  503    0  0.32924824935E+02 -0.22275885591E+02  0.10303319065E+03  0.11053591069E+03  0.47000000000E+01 0. -1.
         -5    1    5    5    0  503 -0.25638109170E+02 -0.32319411849E+02 -0.22942633299E+02  0.47437447727E+02  0.47000000000E+01 0. -1.
<mgrwt>
<rscale>  0 0.27453510E+03</rscale>
<asrwt>0</asrwt>
<pdfrwt beam="1">  1        3 0.10780235E-01 0.27453510E+03</pdfrwt>
<pdfrwt beam="2">  1       -3 0.41369554E-01 0.27453510E+03</pdfrwt>
<totfact> 0.96217049E+02</totfact>
</mgrwt>
</event>
<event>
 9    1  0.2114844E-002  0.2633509E+03  0.7818608E-02  0.1105146E+00
          1   -1    0    0  501    0  0.00000000000E+00  0.00000000000E+00  0.17211203324E+02  0.17211203324E+02  0.00000000000E+00 0.  1.
         -1   -1    0    0    0  501 -0.00000000000E+00 -0.00000000000E+00 -0.10073919637E+04  0.10073919637E+04  0.00000000000E+00 0.  1.
         36    2    1    2    0    0  0.17763568394E-14  0.00000000000E+00 -0.99018076036E+03  0.10246031670E+04  0.26335092872E+03 0.  0.
         25    2    3    3    0    0 -0.14072455382E+02  0.44710803290E+02 -0.58001905928E+03  0.59390125154E+03  0.11874130502E+03 0.  0.
         25    2    3    3    0    0  0.14072455382E+02 -0.44710803290E+02 -0.41016170107E+03  0.43070191546E+03  0.12277796637E+03 0.  0.
          5    1    4    4  502    0 -0.21620922530E+02  0.48468939135E+02 -0.96066895264E+02  0.10985281388E+03  0.47000000000E+01 0. -1.
         -5    1    4    4    0  502  0.75484671485E+01 -0.37581358453E+01 -0.48395216402E+03  0.48404843766E+03  0.47000000000E+01 0. -1.
          5    1    5    5  503    0 -0.32168081911E+01 -0.53930256909E+02 -0.63712087136E+02  0.83666842372E+02  0.47000000000E+01 0. -1.
         -5    1    5    5    0  503  0.17289263573E+02  0.92194536191E+01 -0.34644961393E+03  0.34703507309E+03  0.47000000000E+01 0. -1.
<mgrwt>
<rscale>  0 0.26335093E+03</rscale>
<asrwt>0</asrwt>
<pdfrwt beam="1">  1        1 0.26478774E-02 0.26335093E+03</pdfrwt>
<pdfrwt beam="2">  1       -1 0.15498338E+00 0.26335093E+03</pdfrwt>
<totfact> 0.14075510E+03</totfact>
</mgrwt>
</event>
<event>
 9    1  0.2114844E-002  0.2756076E+03  0.7818608E-02  0.1098112E+00
         -2   -1    0    0    0  501 -0.00000000000E+00  0.00000000000E+00  0.42135084784E+02  0.42135084784E+02  0.00000000000E+00 0. -1.
          2   -1    0    0  501    0  0.00000000000E+00 -0.00000000000E+00 -0.45069061409E+03  0.45069061409E+03  0.00000000000E+00 0. -1.
         36    2    1    2    0    0  0.00000000000E+00  0.71054273576E-14 -0.40855552931E+03  0.49282569887E+03  0.27560759957E+03 0.  0.
         25    2    3    3    0    0  0.72697759574E+01  0.54121709462E+02 -0.18146614523E+03  0.22704376929E+03  0.12504759986E+03 0.  0.
         25    2    3    3    0    0 -0.72697759574E+01 -0.54121709462E+02 -0.22708938408E+03  0.26578192958E+03  0.12684020126E+03 0.  0.
          5    1    4    4  502    0  0.89834755699E+01 -0.40229930171E+02 -0.64375717886E+02  0.76586377171E+02  0.47000000000E+01 0. -1.
         -5    1    4    4    0  502 -0.17136996124E+01  0.94351639633E+02 -0.11709042734E+03  0.15045739212E+03  0.47000000000E+01 0. -1.
          5    1    5    5  503    0  0.53266549046E+02 -0.19318576494E+02 -0.51321195539E+02  0.76593000702E+02  0.47000000000E+01 0. -1.
         -5    1    5    5    0  503 -0.60536325003E+02 -0.34803132968E+02 -0.17576818854E+03  0.18918892888E+03  0.47000000000E+01 0. -1.
<mgrwt>
<rscale>  0 0.27560760E+03</rscale>
<asrwt>0</asrwt>
<pdfrwt beam="1">  1        2 0.69337017E-01 0.27560760E+03</pdfrwt>
<pdfrwt beam="2">  1       -2 0.64823208E-02 0.27560760E+03</pdfrwt>
<totfact> 0.91301110E+03</totfact>
</mgrwt>
</event>
<event>
 9    1  0.2114844E-002  0.2751210E+03  0.7818608E-02  0.1098384E+00
          4   -1    0    0  501    0  0.00000000000E+00  0.00000000000E+00  0.10622487684E+03  0.10622487684E+03  0.00000000000E+00 0.  1.
         -4   -1    0    0    0  501 -0.00000000000E+00 -0.00000000000E+00 -0.17813988349E+03  0.17813988349E+03  0.00000000000E+00 0.  1.
         36    2    1    2    0    0  0.71054273576E-14 -0.71054273576E-14 -0.71915006654E+02  0.28436476033E+03  0.27512097109E+03 0.  0.
         25    2    3    3    0    0  0.42740354441E+02  0.33407623749E+02  0.30782087200E+00  0.13339820970E+03  0.12186952193E+03 0.  0.
         25    2    3    3    0    0 -0.42740354441E+02 -0.33407623749E+02 -0.72222827526E+02  0.15096655063E+03  0.12096261973E+03 0.  0.
          5    1    4    4  502    0  0.80944723726E+02  0.87948423369E+01 -0.19091921896E+02  0.83761500896E+02  0.47000000000E+01 0.  1.
         -5    1    4    4    0  502 -0.38204369284E+02  0.24612781412E+02  0.19399742768E+02  0.49636708802E+02  0.47000000000E+01 0.  1.
          5    1    5    5  503    0 -0.35432951118E+02 -0.42182912798E+02  0.19339892269E+02  0.58574854588E+02  0.47000000000E+01 0. -1.
         -5    1    5    5    0  503 -0.73074033239E+01  0.87752890496E+01 -0.91562719795E+02  0.92391696042E+02  0.47000000000E+01 0. -1.
<mgrwt>
<rscale>  0 0.27512097E+03</rscale>
<asrwt>0</asrwt>
<pdfrwt beam="1">  1        4 0.16342289E-01 0.27512097E+03</pdfrwt>
<pdfrwt beam="2">  1       -4 0.27406136E-01 0.27512097E+03</pdfrwt>
<totfact> 0.76666189E+02</totfact>
</mgrwt>
</event>
<event>
 9    1  0.2114844E-002  0.2744915E+03  0.7818608E-02  0.1098736E+00
         -2   -1    0    0    0  501 -0.00000000000E+00  0.00000000000E+00  0.81426892382E+01  0.81426892382E+01  0.00000000000E+00 0. -1.
          2   -1    0    0  501    0  0.00000000000E+00 -0.00000000000E+00 -0.23132889768E+04  0.23132889768E+04  0.00000000000E+00 0. -1.
         36    2    1    2    0    0  0.00000000000E+00  0.00000000000E+00 -0.23051462876E+04  0.23214316661E+04  0.27449148079E+03 0.  0.
         25    2    3    3    0    0 -0.38595098230E+02 -0.54262627525E+01 -0.73128486480E+03  0.74194969604E+03  0.11913342112E+03 0.  0.
         25    2    3    3    0    0  0.38595098230E+02  0.54262627525E+01 -0.15738614228E+04  0.15794819700E+04  0.12729685609E+03 0.  0.
          5    1    4    4  502    0  0.14503428407E+02 -0.90123627459E+01 -0.59929769033E+03  0.59955932463E+03  0.47000000000E+01 0.  1.
         -5    1    4    4    0  502 -0.53098526637E+02  0.35860999934E+01 -0.13198717448E+03  0.14239037141E+03  0.47000000000E+01 0.  1.
          5    1    5    5  503    0  0.38110002920E+02 -0.27546006476E+02 -0.21157689019E+03  0.21679027943E+03  0.47000000000E+01 0. -1.
         -5    1    5    5    0  503  0.48509530977E+00  0.32972269228E+02 -0.13622845326E+04  0.13626916906E+04  0.47000000000E+01 0. -1.
<mgrwt>
<rscale>  0 0.27449148E+03</rscale>
<asrwt>0</asrwt>
<pdfrwt beam="1">  1        2 0.35589099E+00 0.27449148E+03</pdfrwt>
<pdfrwt beam="2">  1       -2 0.12527201E-02 0.27449148E+03</pdfrwt>
<totfact> 0.77761096E+03</totfact>
</mgrwt>
</event>
<event>
 9    1  0.2114844E-002  0.2756160E+03  0.7818608E-02  0.1098108E+00
         -1   -1    0    0    0  501 -0.00000000000E+00  0.00000000000E+00  0.31563050207E+02  0.31563050207E+02  0.00000000000E+00 0.  1.
          1   -1    0    0  501    0  0.00000000000E+00 -0.00000000000E+00 -0.60168586008E+03  0.60168586008E+03  0.00000000000E+00 0.  1.
         36    2    1    2    0    0  0.00000000000E+00  0.10658141036E-13 -0.57012280987E+03  0.63324891029E+03  0.27561597204E+03 0.  0.
         25    2    3    3    0    0  0.31169931342E+02 -0.29881044867E+02 -0.20495573018E+03  0.24386929965E+03  0.12490373299E+03 0.  0.
         25    2    3    3    0    0 -0.31169931342E+02  0.29881044867E+02 -0.36516707970E+03  0.38937961064E+03  0.12808217529E+03 0.  0.
          5    1    4    4  502    0  0.54140123709E+02  0.17982140823E+02 -0.38235410853E+02  0.68837105016E+02  0.47000000000E+01 0.  1.
         -5    1    4    4    0  502 -0.22970192368E+02 -0.47863185690E+02 -0.16672031932E+03  0.17503219463E+03  0.47000000000E+01 0.  1.
          5    1    5    5  503    0  0.95405078047E+00  0.66777618611E+02 -0.30207179865E+03  0.30940203959E+03  0.47000000000E+01 0.  1.
         -5    1    5    5    0  503 -0.32123982122E+02 -0.36896573745E+02 -0.63095281044E+02  0.79977571053E+02  0.47000000000E+01 0.  1.
<mgrwt>
<rscale>  0 0.27561597E+03</rscale>
<asrwt>0</asrwt>
<pdfrwt beam="1">  1        1 0.92567052E-01 0.27561597E+03</pdfrwt>
<pdfrwt beam="2">  1       -1 0.48558541E-02 0.27561597E+03</pdfrwt>
<totfact> 0.64201637E+03</totfact>
</mgrwt>
</event>
<event>
 9    1  0.2114844E-002  0.2843945E+03  0.7818608E-02  0.1093313E+00
          2   -1    0    0  501    0  0.00000000000E+00  0.00000000000E+00  0.36087021755E+03  0.36087021755E+03  0.00000000000E+00 0. -1.
         -2   -1    0    0    0  501 -0.00000000000E+00 -0.00000000000E+00 -0.56031374738E+02  0.56031374738E+02  0.00000000000E+00 0. -1.
         36    2    1    2    0    0  0.00000000000E+00 -0.35527136788E-14  0.30483884281E+03  0.41690159229E+03  0.28439447527E+03 0.  0.
         25    2    3    3    0    0 -0.10328418204E+02  0.19791845655E+02  0.23917616404E+03  0.27817541583E+03  0.14027804942E+03 0.  0.
         25    2    3    3    0    0  0.10328418204E+02 -0.19791845655E+02  0.65662678774E+02  0.13872617646E+03  0.12014562529E+03 0.  0.
          5    1    4    4  502    0  0.46403192321E+02 -0.30640345627E+02  0.15495693299E+03  0.16469920498E+03  0.47000000000E+01 0. -1.
         -5    1    4    4    0  502 -0.56731610525E+02  0.50432191282E+02  0.84219231049E+02  0.11347621085E+03  0.47000000000E+01 0. -1.
          5    1    5    5  503    0  0.45335398430E+02 -0.36620350442E+02 -0.42379208664E+01  0.58620801688E+02  0.47000000000E+01 0.  1.
         -5    1    5    5    0  503 -0.35006980226E+02  0.16828504787E+02  0.69900599640E+02  0.80105374776E+02  0.47000000000E+01 0.  1.
<mgrwt>
<rscale>  0 0.28439448E+03</rscale>
<asrwt>0</asrwt>
<pdfrwt beam="1">  1        2 0.55518494E-01 0.28439448E+03</pdfrwt>
<pdfrwt beam="2">  1       -2 0.86202117E-02 0.28439448E+03</pdfrwt>
<totfact> 0.74734067E+03</totfact>
</mgrwt>
</event>
<event>
 9    1  0.2114844E-002  0.2762045E+03  0.7818608E-02  0.1097780E+00
         -2   -1    0    0    0  501 -0.00000000000E+00  0.00000000000E+00  0.27806104745E+02  0.27806104745E+02  0.00000000000E+00 0.  1.
          2   -1    0    0  501    0  0.00000000000E+00 -0.00000000000E+00 -0.68590066059E+03  0.68590066059E+03  0.00000000000E+00 0.  1.
         36    2    1    2    0    0  0.00000000000E+00 -0.35527136788E-14 -0.65809455584E+03  0.71370676533E+03  0.27620445770E+03 0.  0.
         25    2    3    3    0    0 -0.56848800980E+02  0.20890963930E+02 -0.33624389709E+03  0.36342345141E+03  0.12388877333E+03 0.  0.
         25    2    3    3    0    0  0.56848800980E+02 -0.20890963930E+02 -0.32185065875E+03  0.35028331392E+03  0.12426719167E+03 0.  0.
          5    1    4    4  502    0 -0.42248707617E+02  0.71723440513E+02 -0.17918594321E+03  0.19763323976E+03  0.47000000000E+01 0.  1.
         -5    1    4    4    0  502 -0.14600093362E+02 -0.50832476583E+02 -0.15705795388E+03  0.16579021165E+03  0.47000000000E+01 0.  1.
          5    1    5    5  503    0  0.87442072329E+02 -0.41915825628E+02 -0.26500343867E+03  0.28222679702E+03  0.47000000000E+01 0. -1.
         -5    1    5    5    0  503 -0.30593271350E+02  0.21024861698E+02 -0.56847220087E+02  0.68056516903E+02  0.47000000000E+01 0. -1.
<mgrwt>
<rscale>  0 0.27620446E+03</rscale>
<asrwt>0</asrwt>
<pdfrwt beam="1">  1        2 0.10552317E+00 0.27620446E+03</pdfrwt>
<pdfrwt beam="2">  1       -2 0.42778625E-02 0.27620446E+03</pdfrwt>
<totfact> 0.10633609E+04</totfact>
</mgrwt>
</event>
<event>
 9    1  0.2114844E-002  0.2743583E+03  0.7818608E-02  0.1098811E+00
         -2   -1    0    0    0  501 -0.00000000000E+00  0.00000000000E+00  0.59644651359E+03  0.59644651359E+03  0.00000000000E+00 0.  1.
          2   -1    0    0  501    0  0.00000000000E+00 -0.00000000000E+00 -0.31550377562E+02  0.31550377562E+02  0.00000000000E+00 0.  1.
         36    2    1    2    0    0 -0.88817841970E-15  0.14210854715E-13  0.56489613602E+03  0.62799689115E+03  0.27435825265E+03 0.  0.
         25    2    3    3    0    0  0.15976344253E+01  0.34404130252E+02  0.35076531860E+03  0.37744721763E+03  0.13506996982E+03 0.  0.
         25    2    3    3    0    0 -0.15976344253E+01 -0.34404130252E+02  0.21413081742E+03  0.25054967352E+03  0.12544694224E+03 0.  0.
          5    1    4    4  502    0 -0.26881009352E+01  0.79101001792E+02  0.29618992878E+03  0.30661826149E+03  0.47000000000E+01 0. -1.
         -5    1    4    4    0  502  0.42857353605E+01 -0.44696871540E+02  0.54575389823E+02  0.70828956137E+02  0.47000000000E+01 0. -1.
          5    1    5    5  503    0 -0.26814037616E+02  0.38106725298E+02  0.12110820437E+03  0.12984761181E+03  0.47000000000E+01 0. -1.
         -5    1    5    5    0  503  0.25216403190E+02 -0.72510855550E+02  0.93022613054E+02  0.12070206171E+03  0.47000000000E+01 0. -1.
<mgrwt>
<rscale>  0 0.27435825E+03</rscale>
<asrwt>0</asrwt>
<pdfrwt beam="1">  1        2 0.48539047E-02 0.27435825E+03</pdfrwt>
<pdfrwt beam="2">  1       -2 0.91760994E-01 0.27435825E+03</pdfrwt>
<totfact> 0.17082873E+03</totfact>
</mgrwt>
</event>
<event>
 9    1  0.2114844E-002  0.2747010E+03  0.7818608E-02  0.1098619E+00
         -1   -1    0    0    0  501 -0.00000000000E+00  0.00000000000E+00  0.41039055663E+02  0.41039055663E+02  0.00000000000E+00 0.  1.
          1   -1    0    0  501    0  0.00000000000E+00 -0.00000000000E+00 -0.45968784586E+03  0.45968784586E+03  0.00000000000E+00 0.  1.
         36    2    1    2    0    0  0.00000000000E+00  0.00000000000E+00 -0.41864879019E+03  0.50072690152E+03  0.27470096537E+03 0.  0.
         25    2    3    3    0    0 -0.27499127454E+02  0.26015852388E+02 -0.27383853595E+03  0.30494358187E+03  0.12872458104E+03 0.  0.
         25    2    3    3    0    0  0.27499127454E+02 -0.26015852388E+02 -0.14481025424E+03  0.19578331965E+03  0.12620646550E+03 0.  0.
          5    1    4    4  502    0  0.42807484324E+02  0.40784966209E+02 -0.93037875071E+02  0.11033598860E+03  0.47000000000E+01 0.  1.
         -5    1    4    4    0  502 -0.70306611778E+02 -0.14769113821E+02 -0.18080066088E+03  0.19460759327E+03  0.47000000000E+01 0.  1.
          5    1    5    5  503    0  0.42999888602E+02  0.36159815329E+02 -0.29135764355E+02  0.63462630177E+02  0.47000000000E+01 0.  1.
         -5    1    5    5    0  503 -0.15500761148E+02 -0.62175667717E+02 -0.11567448988E+03  0.13232068947E+03  0.47000000000E+01 0.  1.
<mgrwt>
<rscale>  0 0.27470097E+03</rscale>
<asrwt>0</asrwt>
<pdfrwt beam="1">  1        1 0.70721208E-01 0.27470097E+03</pdfrwt>
<pdfrwt beam="2">  1       -1 0.63137008E-02 0.27470097E+03</pdfrwt>
<totfact> 0.62129480E+03</totfact>
</mgrwt>
</event>
<event>
 9    1  0.2114844E-002  0.2740905E+03  0.7818608E-02  0.1098961E+00
         -1   -1    0    0    0  501 -0.00000000000E+00  0.00000000000E+00  0.38154575590E+02  0.38154575590E+02  0.00000000000E+00 0.  1.
          1   -1    0    0  501    0  0.00000000000E+00 -0.00000000000E+00 -0.49224498722E+03  0.49224498722E+03  0.00000000000E+00 0.  1.
         36    2    1    2    0    0 -0.17763568394E-14  0.00000000000E+00 -0.45409041163E+03  0.53039956281E+03  0.27409048560E+03 0.  0.
         25    2    3    3    0    0  0.15331916993E+02 -0.18655405763E+02 -0.13608086991E+03  0.18800884611E+03  0.12746070459E+03 0.  0.
         25    2    3    3    0    0 -0.15331916993E+02  0.18655405763E+02 -0.31800954172E+03  0.34239071671E+03  0.12457223774E+03 0.  0.
          5    1    4    4  502    0  0.67604868651E+02 -0.45240549292E+01 -0.43508808395E+02  0.80659728157E+02  0.47000000000E+01 0. -1.
         -5    1    4    4    0  502 -0.52272951658E+02 -0.14131350834E+02 -0.92572061514E+02  0.10734911795E+03  0.47000000000E+01 0. -1.
          5    1    5    5  503    0 -0.87465375880E+01  0.10030223433E+02  0.79620532804E+01  0.16204678162E+02  0.47000000000E+01 0. -1.
         -5    1    5    5    0  503 -0.65853794051E+01  0.86251823305E+01 -0.32597159500E+03  0.32618603855E+03  0.47000000000E+01 0. -1.
<mgrwt>
<rscale>  0 0.27409049E+03</rscale>
<asrwt>0</asrwt>
<pdfrwt beam="1">  1        1 0.75729994E-01 0.27409049E+03</pdfrwt>
<pdfrwt beam="2">  1       -1 0.58699350E-02 0.27409049E+03</pdfrwt>
<totfact> 0.63375684E+03</totfact>
</mgrwt>
</event>
<event>
 9    1  0.2114844E-002  0.2748525E+03  0.7818608E-02  0.1098534E+00
          2   -1    0    0  501    0  0.00000000000E+00  0.00000000000E+00  0.59195333943E+03  0.59195333943E+03  0.00000000000E+00 0.  1.
         -2   -1    0    0    0  501 -0.00000000000E+00 -0.00000000000E+00 -0.31904495824E+02  0.31904495824E+02  0.00000000000E+00 0.  1.
         36    2    1    2    0    0  0.00000000000E+00  0.00000000000E+00  0.56004884361E+03  0.62385783525E+03  0.27485249022E+03 0.  0.
         25    2    3    3    0    0 -0.66435842892E+02  0.24457790573E+02  0.30561858965E+03  0.33882611482E+03  0.12801761207E+03 0.  0.
         25    2    3    3    0    0  0.66435842892E+02 -0.24457790573E+02  0.25443025395E+03  0.28503172044E+03  0.10722137281E+03 0.  0.
          5    1    4    4  502    0  0.15719548606E+02 -0.29346879028E+02  0.26231198446E+02  0.42643983034E+02  0.47000000000E+01 0.  1.
         -5    1    4    4    0  502 -0.82155391498E+02  0.53804669601E+02  0.27938739121E+03  0.29618213178E+03  0.47000000000E+01 0.  1.
          5    1    5    5  503    0  0.12381393950E+02 -0.61323911639E+02  0.11752198499E+03  0.13321947309E+03  0.47000000000E+01 0. -1.
         -5    1    5    5    0  503  0.54054448942E+02  0.36866121067E+02  0.13690826897E+03  0.15181224735E+03  0.47000000000E+01 0. -1.
<mgrwt>
<rscale>  0 0.27485249E+03</rscale>
<asrwt>0</asrwt>
<pdfrwt beam="1">  1        2 0.91069737E-01 0.27485249E+03</pdfrwt>
<pdfrwt beam="2">  1       -2 0.49083844E-02 0.27485249E+03</pdfrwt>
<totfact> 0.10274475E+04</totfact>
</mgrwt>
</event>
<event>
 9    1  0.2114844E-002  0.2749712E+03  0.7818608E-02  0.1098468E+00
         -2   -1    0    0    0  501 -0.00000000000E+00  0.00000000000E+00  0.53565649312E+02  0.53565649312E+02  0.00000000000E+00 0.  1.
          2   -1    0    0  501    0  0.00000000000E+00 -0.00000000000E+00 -0.35288075826E+03  0.35288075826E+03  0.00000000000E+00 0.  1.
         36    2    1    2    0    0 -0.71054273576E-14  0.00000000000E+00 -0.29931510895E+03  0.40644640758E+03  0.27497117628E+03 0.  0.
         25    2    3    3    0    0  0.59557523890E+02  0.47206006103E+02 -0.15054883586E+03  0.19742712370E+03  0.10264994657E+03 0.  0.
         25    2    3    3    0    0 -0.59557523890E+02 -0.47206006103E+02 -0.14876627309E+03  0.20901928387E+03  0.12562703275E+03 0.  0.
          5    1    4    4  502    0  0.75143789368E+02  0.35767192840E+02 -0.55084223930E+02  0.99911175002E+02  0.47000000000E+01 0. -1.
         -5    1    4    4    0  502 -0.15586265478E+02  0.11438813264E+02 -0.95464611929E+02  0.97515948702E+02  0.47000000000E+01 0. -1.
          5    1    5    5  503    0  0.34426501698E+02 -0.33323067729E+02 -0.29481359745E+02  0.56452204868E+02  0.47000000000E+01 0. -1.
         -5    1    5    5    0  503 -0.93984025588E+02 -0.13882938375E+02 -0.11928491335E+03  0.15256707900E+03  0.47000000000E+01 0. -1.
<mgrwt>
<rscale>  0 0.27497118E+03</rscale>
<asrwt>0</asrwt>
<pdfrwt beam="1">  1        2 0.54289349E-01 0.27497118E+03</pdfrwt>
<pdfrwt beam="2">  1       -2 0.82408688E-02 0.27497118E+03</pdfrwt>
<totfact> 0.82064279E+03</totfact>
</mgrwt>
</event>
<event>
 9    1  0.2114844E-002  0.2786958E+03  0.7818608E-02  0.1096403E+00
         -2   -1    0    0    0  501 -0.00000000000E+00  0.00000000000E+00  0.68951960496E+02  0.68951960496E+02  0.00000000000E+00 0.  1.
          2   -1    0    0  501    0  0.00000000000E+00 -0.00000000000E+00 -0.28161395654E+03  0.28161395654E+03  0.00000000000E+00 0.  1.
         36    2    1    2    0    0  0.71054273576E-14  0.00000000000E+00 -0.21266199605E+03  0.35056591704E+03  0.27869577971E+03 0.  0.
         25    2    3    3    0    0  0.26842605788E+02  0.32069600920E+02 -0.16117711131E+03  0.20836614593E+03  0.12525735415E+03 0.  0.
         25    2    3    3    0    0 -0.26842605788E+02 -0.32069600920E+02 -0.51484884734E+02  0.14219977111E+03  0.12578194131E+03 0.  0.
          5    1    4    4  502    0  0.22292025433E+02  0.61992067528E+02 -0.16478239279E+03  0.17752542862E+03  0.47000000000E+01 0. -1.
         -5    1    4    4    0  502  0.45505803550E+01 -0.29922466608E+02  0.36052814746E+01  0.30840717306E+02  0.47000000000E+01 0. -1.
          5    1    5    5  503    0  0.99162077223E+01 -0.73266794151E+02 -0.44312833042E+02  0.86325381395E+02  0.47000000000E+01 0. -1.
         -5    1    5    5    0  503 -0.36758813510E+02  0.41197193231E+02 -0.71720516913E+01  0.55874389717E+02  0.47000000000E+01 0. -1.
<mgrwt>
<rscale>  0 0.27869578E+03</rscale>
<asrwt>0</asrwt>
<pdfrwt beam="1">  1        2 0.43325224E-01 0.27869578E+03</pdfrwt>
<pdfrwt beam="2">  1       -2 0.10607994E-01 0.27869578E+03</pdfrwt>
<totfact> 0.70221881E+03</totfact>
</mgrwt>
</event>
<event>
 9    1  0.2114844E-002  0.2780072E+03  0.7818608E-02  0.1096782E+00
          1   -1    0    0  501    0  0.00000000000E+00  0.00000000000E+00  0.16849278256E+02  0.16849278256E+02  0.00000000000E+00 0. -1.
         -1   -1    0    0    0  501 -0.00000000000E+00 -0.00000000000E+00 -0.11467556122E+04  0.11467556122E+04  0.00000000000E+00 0. -1.
         36    2    1    2    0    0 -0.71054273576E-14 -0.71054273576E-14 -0.11299063340E+04  0.11636048905E+04  0.27800722582E+03 0.  0.
         25    2    3    3    0    0 -0.38649837960E+02 -0.36772264111E+02 -0.68278944108E+03  0.69620534702E+03  0.12511776447E+03 0.  0.
         25    2    3    3    0    0  0.38649837960E+02  0.36772264111E+02 -0.44711689289E+03  0.46739954346E+03  0.12531084526E+03 0.  0.
          5    1    4    4  502    0  0.13542667968E+02  0.40254213111E+02 -0.22870451887E+03  0.23266209936E+03  0.47000000000E+01 0.  1.
         -5    1    4    4    0  502 -0.52192505929E+02 -0.77026477222E+02 -0.45408492221E+03  0.46354324765E+03  0.47000000000E+01 0.  1.
          5    1    5    5  503    0  0.31623359795E+02  0.71934284845E+02 -0.40171477523E+03  0.40935489354E+03  0.47000000000E+01 0. -1.
         -5    1    5    5    0  503  0.70264781657E+01 -0.35162020733E+02 -0.45402117654E+02  0.58044649925E+02  0.47000000000E+01 0. -1.
<mgrwt>
<rscale>  0 0.27800723E+03</rscale>
<asrwt>0</asrwt>
<pdfrwt beam="1">  1        1 0.25921970E-02 0.27800723E+03</pdfrwt>
<pdfrwt beam="2">  1       -1 0.17642392E+00 0.27800723E+03</pdfrwt>
<totfact> 0.10152147E+03</totfact>
</mgrwt>
</event>
<event>
 8    1  0.2114844E-002  0.2985401E+03  0.7818608E-02  0.1085973E+00
         -2   -1    0    0    0  501 -0.00000000000E+00  0.00000000000E+00  0.39467201219E+02  0.39467201219E+02  0.00000000000E+00 0. -1.
          2   -1    0    0  501    0  0.00000000000E+00 -0.00000000000E+00 -0.56455873891E+03  0.56455873891E+03  0.00000000000E+00 0. -1.
         25    2    1    2    0    0  0.76697421377E+02  0.39661883545E+01 -0.24656341138E+03  0.28612248970E+03  0.12318416370E+03 0.  0.
         25    2    1    2    0    0 -0.76697421377E+02 -0.39661883545E+01 -0.27852812631E+03  0.31790345043E+03  0.13261395685E+03 0.  0.
          5    1    3    3  502    0  0.65688192755E+02 -0.15166949104E+02 -0.25362509211E+03  0.26247428895E+03  0.47000000000E+01 0. -1.
         -5    1    3    3    0  502  0.11009228622E+02  0.19133137458E+02  0.70616807344E+01  0.23648200749E+02  0.47000000000E+01 0. -1.
          5    1    4    4  503    0 -0.10061843478E+03 -0.20618449387E+02 -0.26717005062E+03  0.28627105306E+03  0.47000000000E+01 0. -1.
         -5    1    4    4    0  503  0.23921013400E+02  0.16652261032E+02 -0.11358075689E+02  0.31632397363E+02  0.47000000000E+01 0. -1.
<mgrwt>
<rscale>  0 0.29854014E+03</rscale>
<asrwt>0</asrwt>
<pdfrwt beam="1">  1        2 0.86855186E-01 0.29854014E+03</pdfrwt>
<pdfrwt beam="2">  1       -2 0.60718774E-02 0.29854014E+03</pdfrwt>
<totfact> 0.78618264E+03</totfact>
</mgrwt>
</event>
<event>
 9    1  0.2114844E-002  0.2749125E+03  0.7818608E-02  0.1098501E+00
         -2   -1    0    0    0  501 -0.00000000000E+00  0.00000000000E+00  0.77807945848E+02  0.77807945848E+02  0.00000000000E+00 0.  1.
          2   -1    0    0  501    0  0.00000000000E+00 -0.00000000000E+00 -0.24283153822E+03  0.24283153822E+03  0.00000000000E+00 0.  1.
         36    2    1    2    0    0  0.00000000000E+00 -0.21316282073E-13 -0.16502359237E+03  0.32063948406E+03  0.27491251827E+03 0.  0.
         25    2    3    3    0    0 -0.38943450615E+01 -0.48011520664E+02 -0.48090132299E+02  0.14406202842E+03  0.12696824473E+03 0.  0.
         25    2    3    3    0    0  0.38943450615E+01  0.48011520664E+02 -0.11693346007E+03  0.17657745564E+03  0.12323105013E+03 0.  0.
          5    1    4    4  502    0  0.32417968372E+02  0.26376400819E+02 -0.44271616107E+02  0.61063124603E+02  0.47000000000E+01 0.  1.
         -5    1    4    4    0  502 -0.36312313433E+02 -0.74387921483E+02 -0.38185161917E+01  0.82998903820E+02  0.47000000000E+01 0.  1.
          5    1    5    5  503    0 -0.58117195541E+02  0.32384776636E+02 -0.72807402187E+02  0.98738999329E+02  0.47000000000E+01 0. -1.
         -5    1    5    5    0  503  0.62011540603E+02  0.15626744027E+02 -0.44126057883E+02  0.77838456312E+02  0.47000000000E+01 0. -1.
<mgrwt>
<rscale>  0 0.27491252E+03</rscale>
<asrwt>0</asrwt>
<pdfrwt beam="1">  1        2 0.37358698E-01 0.27491252E+03</pdfrwt>
<pdfrwt beam="2">  1       -2 0.11970453E-01 0.27491252E+03</pdfrwt>
<totfact> 0.67823052E+03</totfact>
</mgrwt>
</event>
<event>
 9    1  0.2114844E-002  0.2749155E+03  0.7818608E-02  0.1098499E+00
          1   -1    0    0  501    0  0.00000000000E+00  0.00000000000E+00  0.35769233106E+03  0.35769233106E+03  0.00000000000E+00 0. -1.
         -1   -1    0    0    0  501 -0.00000000000E+00 -0.00000000000E+00 -0.52823717221E+02  0.52823717221E+02  0.00000000000E+00 0. -1.
         36    2    1    2    0    0  0.71054273576E-14  0.00000000000E+00  0.30486861384E+03  0.41051604829E+03  0.27491554011E+03 0.  0.
         25    2    3    3    0    0  0.22536464667E+02 -0.44868844255E+01  0.72193630403E+02  0.14561887689E+03  0.12435800202E+03 0.  0.
         25    2    3    3    0    0 -0.22536464667E+02  0.44868844255E+01  0.23267498344E+03  0.26489717139E+03  0.12451842884E+03 0.  0.
          5    1    4    4  502    0 -0.12453672259E+02 -0.47801232079E+02  0.74705218396E+02  0.89682837805E+02  0.47000000000E+01 0.  1.
         -5    1    4    4    0  502  0.34990136926E+02  0.43314347654E+02 -0.25115879928E+01  0.55936039089E+02  0.47000000000E+01 0.  1.
          5    1    5    5  503    0  0.41154228163E+02  0.32353505983E+02  0.66925546711E+02  0.85097230552E+02  0.47000000000E+01 0.  1.
         -5    1    5    5    0  503 -0.63690692830E+02 -0.27866621557E+02  0.16574943673E+03  0.17979994084E+03  0.47000000000E+01 0.  1.
<mgrwt>
<rscale>  0 0.27491554E+03</rscale>
<asrwt>0</asrwt>
<pdfrwt beam="1">  1        1 0.55029588E-01 0.27491554E+03</pdfrwt>
<pdfrwt beam="2">  1       -1 0.81267259E-02 0.27491554E+03</pdfrwt>
<totfact> 0.58457110E+03</totfact>
</mgrwt>
</event>
<event>
 9    1  0.2114844E-002  0.2745146E+03  0.7818608E-02  0.1098723E+00
         -2   -1    0    0    0  501 -0.00000000000E+00  0.00000000000E+00  0.42881348287E+03  0.42881348287E+03  0.00000000000E+00 0. -1.
          2   -1    0    0  501    0  0.00000000000E+00 -0.00000000000E+00 -0.43934164650E+02  0.43934164650E+02  0.00000000000E+00 0. -1.
         36    2    1    2    0    0  0.00000000000E+00  0.00000000000E+00  0.38487931822E+03  0.47274764752E+03  0.27451456909E+03 0.  0.
         25    2    3    3    0    0  0.32676210361E+02  0.47208513887E+02  0.16610725394E+03  0.21609451797E+03  0.12573321907E+03 0.  0.
         25    2    3    3    0    0 -0.32676210361E+02 -0.47208513887E+02  0.21877206427E+03  0.25665312955E+03  0.12129812155E+03 0.  0.
          5    1    4    4  502    0  0.59307306961E+02 -0.16161580198E+02  0.43489022316E+02  0.75444936181E+02  0.47000000000E+01 0. -1.
         -5    1    4    4    0  502 -0.26631096600E+02  0.63370094085E+02  0.12261823163E+03  0.14064958179E+03  0.47000000000E+01 0. -1.
          5    1    5    5  503    0 -0.48816272258E+02 -0.23912643913E+02  0.22119352181E+03  0.22782341202E+03  0.47000000000E+01 0. -1.
         -5    1    5    5    0  503  0.16140061897E+02 -0.23295869974E+02 -0.24214575332E+01  0.28829717523E+02  0.47000000000E+01 0. -1.
<mgrwt>
<rscale>  0 0.27451457E+03</rscale>
<asrwt>0</asrwt>
<pdfrwt beam="1">  1        2 0.67591026E-02 0.27451457E+03</pdfrwt>
<pdfrwt beam="2">  1       -2 0.65971302E-01 0.27451457E+03</pdfrwt>
<totfact> 0.22834161E+03</totfact>
</mgrwt>
</event>
<event>
 9    1  0.2114844E-002  0.2772529E+03  0.7818608E-02  0.1097199E+00
         -2   -1    0    0    0  501 -0.00000000000E+00  0.00000000000E+00  0.10644803603E+03  0.10644803603E+03  0.00000000000E+00 0.  1.
          2   -1    0    0  501    0  0.00000000000E+00 -0.00000000000E+00 -0.18053210953E+03  0.18053210953E+03  0.00000000000E+00 0.  1.
         36    2    1    2    0    0  0.71054273576E-14 -0.71054273576E-14 -0.74084073502E+02  0.28698014556E+03  0.27725287014E+03 0.  0.
         25    2    3    3    0    0 -0.49865062140E+02  0.33012378580E+02 -0.49307516748E+02  0.14735498878E+03  0.12532326180E+03 0.  0.
         25    2    3    3    0    0  0.49865062140E+02 -0.33012378580E+02 -0.24776556754E+02  0.13962515678E+03  0.12371323729E+03 0.  0.
          5    1    4    4  502    0 -0.82337535773E+02  0.27370253669E+02 -0.66933166101E+02  0.10968472686E+03  0.47000000000E+01 0. -1.
         -5    1    4    4    0  502  0.32472473633E+02  0.56421249105E+01  0.17625649353E+02  0.37670261911E+02  0.47000000000E+01 0. -1.
          5    1    5    5  503    0  0.12450951423E+02  0.47047281485E+02 -0.99696608731E+01  0.49899469179E+02  0.47000000000E+01 0.  1.
         -5    1    5    5    0  503  0.37414110717E+02 -0.80059660065E+02 -0.14806895881E+02  0.89725687604E+02  0.47000000000E+01 0.  1.
<mgrwt>
<rscale>  0 0.27725287E+03</rscale>
<asrwt>0</asrwt>
<pdfrwt beam="1">  1        2 0.27774170E-01 0.27725287E+03</pdfrwt>
<pdfrwt beam="2">  1       -2 0.16376621E-01 0.27725287E+03</pdfrwt>
<totfact> 0.56085276E+03</totfact>
</mgrwt>
</event>
<event>
 9    1  0.2114844E-002  0.2757720E+03  0.7818608E-02  0.1098021E+00
         -2   -1    0    0    0  501 -0.00000000000E+00  0.00000000000E+00  0.16593211187E+02  0.16593211187E+02  0.00000000000E+00 0. -1.
          2   -1    0    0  501    0  0.00000000000E+00 -0.00000000000E+00 -0.11458029588E+04  0.11458029588E+04  0.00000000000E+00 0. -1.
         36    2    1    2    0    0  0.00000000000E+00 -0.14210854715E-13 -0.11292097477E+04  0.11623961700E+04  0.27577201073E+03 0.  0.
         25    2    3    3    0    0  0.26412384105E+02 -0.33155836712E+02 -0.73735269023E+03  0.74893106942E+03  0.12414440550E+03 0.  0.
         25    2    3    3    0    0 -0.26412384105E+02  0.33155836712E+02 -0.39185705743E+03  0.41346510061E+03  0.12491802281E+03 0.  0.
          5    1    4    4  502    0 -0.18157131218E+02 -0.48466113657E+02 -0.13403107303E+03  0.14375348387E+03  0.47000000000E+01 0. -1.
         -5    1    4    4    0  502  0.44569515323E+02  0.15310276945E+02 -0.60332161719E+03  0.60517758555E+03  0.47000000000E+01 0. -1.
          5    1    5    5  503    0 -0.50199983707E+01 -0.43180135793E+02 -0.75070766429E+02  0.86875971839E+02  0.47000000000E+01 0.  1.
         -5    1    5    5    0  503 -0.21392385734E+02  0.76335972505E+02 -0.31678629100E+03  0.32658912877E+03  0.47000000000E+01 0.  1.
<mgrwt>
<rscale>  0 0.27577201E+03</rscale>
<asrwt>0</asrwt>
<pdfrwt beam="1">  1        2 0.17627740E+00 0.27577201E+03</pdfrwt>
<pdfrwt beam="2">  1       -2 0.25528014E-02 0.27577201E+03</pdfrwt>
<totfact> 0.11551212E+04</totfact>
</mgrwt>
</event>
<event>
 9    1  0.2114844E-002  0.2780785E+03  0.7818608E-02  0.1096743E+00
          2   -1    0    0  501    0  0.00000000000E+00  0.00000000000E+00  0.27599000694E+03  0.27599000694E+03  0.00000000000E+00 0.  1.
         -2   -1    0    0    0  501 -0.00000000000E+00 -0.00000000000E+00 -0.70045697426E+02  0.70045697426E+02  0.00000000000E+00 0.  1.
         36    2    1    2    0    0  0.71054273576E-14  0.00000000000E+00  0.20594430951E+03  0.34603570436E+03  0.27807849625E+03 0.  0.
         25    2    3    3    0    0 -0.44159090725E+02  0.84387933126E+01  0.26761399419E+02  0.12813783205E+03  0.11696962417E+03 0.  0.
         25    2    3    3    0    0  0.44159090725E+02 -0.84387933126E+01  0.17918291009E+03  0.21789787231E+03  0.11554968179E+03 0.  0.
          5    1    4    4  502    0 -0.35103785345E+02 -0.37949995165E+02 -0.25230845269E+02  0.57716231959E+02  0.47000000000E+01 0. -1.
         -5    1    4    4    0  502 -0.90553053808E+01  0.46388788478E+02  0.51992244689E+02  0.70421600094E+02  0.47000000000E+01 0. -1.
          5    1    5    5  503    0  0.24166345341E+02 -0.19228849040E+02  0.18982183365E+03  0.19237510081E+03  0.47000000000E+01 0.  1.
         -5    1    5    5    0  503  0.19992745384E+02  0.10790055727E+02 -0.10638923555E+02  0.25522771499E+02  0.47000000000E+01 0.  1.
<mgrwt>
<rscale>  0 0.27807850E+03</rscale>
<asrwt>0</asrwt>
<pdfrwt beam="1">  1        2 0.42460000E-01 0.27807850E+03</pdfrwt>
<pdfrwt beam="2">  1       -2 0.10776261E-01 0.27807850E+03</pdfrwt>
<totfact> 0.69974216E+03</totfact>
</mgrwt>
</event>
<event>
 9    1  0.2114844E-002  0.2743046E+03  0.7818608E-02  0.1098841E+00
         -2   -1    0    0    0  501 -0.00000000000E+00  0.00000000000E+00  0.16070123732E+03  0.16070123732E+03  0.00000000000E+00 0. -1.
          2   -1    0    0  501    0  0.00000000000E+00 -0.00000000000E+00 -0.11705417600E+03  0.11705417600E+03  0.00000000000E+00 0. -1.
         36    2    1    2    0    0 -0.35527136788E-14  0.71054273576E-14  0.43647061322E+02  0.27775541332E+03  0.27430458193E+03 0.  0.
         25    2    3    3    0    0 -0.13015531562E+02 -0.61590633833E+01  0.62194633591E+02  0.14428097199E+03  0.12938890334E+03 0.  0.
         25    2    3    3    0    0  0.13015531562E+02  0.61590633833E+01 -0.18547572269E+02  0.13347444133E+03  0.13139283058E+03 0.  0.
          5    1    4    4  502    0  0.46697660418E+01 -0.39814097380E+02 -0.26078651025E+02  0.48053669000E+02  0.47000000000E+01 0.  1.
         -5    1    4    4    0  502 -0.17685297603E+02  0.33655033996E+02  0.88273284616E+02  0.96227302994E+02  0.47000000000E+01 0.  1.
          5    1    5    5  503    0  0.52665036540E+02 -0.33922118725E+02  0.18932259407E+02  0.65611254056E+02  0.47000000000E+01 0.  1.
         -5    1    5    5    0  503 -0.39649504979E+02  0.40081182108E+02 -0.37479831676E+02  0.67863187272E+02  0.47000000000E+01 0.  1.
<mgrwt>
<rscale>  0 0.27430458E+03</rscale>
<asrwt>0</asrwt>
<pdfrwt beam="1">  1        2 0.18008335E-01 0.27430458E+03</pdfrwt>
<pdfrwt beam="2">  1       -2 0.24723267E-01 0.27430458E+03</pdfrwt>
<totfact> 0.45205313E+03</totfact>
</mgrwt>
</event>
<event>
 9    1  0.2114844E-002  0.2743789E+03  0.7818608E-02  0.1098799E+00
          2   -1    0    0  501    0  0.00000000000E+00  0.00000000000E+00  0.14318946099E+04  0.14318946099E+04  0.00000000000E+00 0.  1.
         -2   -1    0    0    0  501 -0.00000000000E+00 -0.00000000000E+00 -0.13144082517E+02  0.13144082517E+02  0.00000000000E+00 0.  1.
         36    2    1    2    0    0  0.14210854715E-13  0.71054273576E-14  0.14187505273E+04  0.14450386924E+04  0.27437886877E+03 0.  0.
         25    2    3    3    0    0 -0.79932785547E+02 -0.34574682308E+02  0.55198565916E+03  0.56810227134E+03  0.10231013595E+03 0.  0.
         25    2    3    3    0    0  0.79932785547E+02  0.34574682308E+02  0.86676486819E+03  0.87693642105E+03  0.10075460766E+03 0.  0.
          5    1    4    4  502    0 -0.96579892504E+02 -0.25651022612E+02  0.52709809449E+03  0.53650735485E+03  0.47000000000E+01 0.  1.
         -5    1    4    4    0  502  0.16647106957E+02 -0.89236596967E+01  0.24887564667E+02  0.31594916481E+02  0.47000000000E+01 0.  1.
          5    1    5    5  503    0  0.40950651851E+02  0.83601680654E+01  0.74727880011E+03  0.74846145084E+03  0.47000000000E+01 0.  1.
         -5    1    5    5    0  503  0.38982133696E+02  0.26214514243E+02  0.11948606808E+03  0.12847497020E+03  0.47000000000E+01 0.  1.
<mgrwt>
<rscale>  0 0.27437887E+03</rscale>
<asrwt>0</asrwt>
<pdfrwt beam="1">  1        2 0.22029135E+00 0.27437887E+03</pdfrwt>
<pdfrwt beam="2">  1       -2 0.20221677E-02 0.27437887E+03</pdfrwt>
<totfact> 0.11291186E+04</totfact>
</mgrwt>
</event>
<event>
 9    1  0.2114844E-002  0.2748648E+03  0.7818608E-02  0.1098527E+00
          2   -1    0    0  501    0  0.00000000000E+00  0.00000000000E+00  0.26307600958E+04  0.26307600958E+04  0.00000000000E+00 0. -1.
         -2   -1    0    0    0  501 -0.00000000000E+00 -0.00000000000E+00 -0.71795473113E+01  0.71795473113E+01  0.00000000000E+00 0. -1.
         36    2    1    2    0    0  0.71054273576E-14  0.35527136788E-14  0.26235805485E+04  0.26379396431E+04  0.27486481457E+03 0.  0.
         25    2    3    3    0    0 -0.44561187692E+02  0.31306349349E+02  0.12816568286E+04  0.12888998929E+04  0.12511163186E+03 0.  0.
         25    2    3    3    0    0  0.44561187692E+02 -0.31306349349E+02  0.13419237198E+04  0.13490397502E+04  0.12721317125E+03 0.  0.
          5    1    4    4  502    0 -0.86291998952E+02  0.20507895311E+02  0.69682789991E+03  0.70246572510E+03  0.47000000000E+01 0.  1.
         -5    1    4    4    0  502  0.41730811260E+02  0.10798454037E+02  0.58482892873E+03  0.58643416775E+03  0.47000000000E+01 0.  1.
          5    1    5    5  503    0 -0.30193315400E+02  0.84364640636E+01  0.11804812317E+03  0.12223035468E+03  0.47000000000E+01 0. -1.
         -5    1    5    5    0  503  0.74754503092E+02 -0.39742813412E+02  0.12238755966E+04  0.12268093955E+04  0.47000000000E+01 0. -1.
<mgrwt>
<rscale>  0 0.27486481E+03</rscale>
<asrwt>0</asrwt>
<pdfrwt beam="1">  1        2 0.40473155E+00 0.27486481E+03</pdfrwt>
<pdfrwt beam="2">  1       -2 0.11045478E-02 0.27486481E+03</pdfrwt>
<totfact> 0.62642645E+03</totfact>
</mgrwt>
</event>
<event>
 9    1  0.2114844E-002  0.2770087E+03  0.7818608E-02  0.1097334E+00
          2   -1    0    0  501    0  0.00000000000E+00  0.00000000000E+00  0.22882622117E+03  0.22882622117E+03  0.00000000000E+00 0. -1.
         -2   -1    0    0    0  501 -0.00000000000E+00 -0.00000000000E+00 -0.83834188959E+02  0.83834188959E+02  0.00000000000E+00 0. -1.
         36    2    1    2    0    0 -0.35527136788E-14  0.00000000000E+00  0.14499203221E+03  0.31266041013E+03  0.27700874112E+03 0.  0.
         25    2    3    3    0    0 -0.90445516318E+01 -0.65308060053E+02  0.60444595078E+02  0.14872007601E+03  0.11881567789E+03 0.  0.
         25    2    3    3    0    0  0.90445516318E+01  0.65308060053E+02  0.84547437131E+02  0.16394033411E+03  0.12402103613E+03 0.  0.
          5    1    4    4  502    0 -0.44688521016E+02  0.15088891798E+02  0.26728034264E+02  0.54417059659E+02  0.47000000000E+01 0.  1.
         -5    1    4    4    0  502  0.35643969384E+02 -0.80396951852E+02  0.33716560814E+02  0.94303016355E+02  0.47000000000E+01 0.  1.
          5    1    5    5  503    0  0.21306747489E+02 -0.33790966797E+02  0.19741950573E+02  0.44806713091E+02  0.47000000000E+01 0. -1.
         -5    1    5    5    0  503 -0.12262195857E+02  0.99099026850E+02  0.64805486559E+02  0.11913362102E+03  0.47000000000E+01 0. -1.
<mgrwt>
<rscale>  0 0.27700874E+03</rscale>
<asrwt>0</asrwt>
<pdfrwt beam="1">  1        2 0.35204034E-01 0.27700874E+03</pdfrwt>
<pdfrwt beam="2">  1       -2 0.12897568E-01 0.27700874E+03</pdfrwt>
<totfact> 0.64117221E+03</totfact>
</mgrwt>
</event>
<event>
 9    1  0.2114844E-002  0.2750071E+03  0.7818608E-02  0.1098448E+00
          1   -1    0    0  501    0  0.00000000000E+00  0.00000000000E+00  0.46028426741E+03  0.46028426741E+03  0.00000000000E+00 0.  1.
         -1   -1    0    0    0  501 -0.00000000000E+00 -0.00000000000E+00 -0.41077292072E+02  0.41077292072E+02  0.00000000000E+00 0.  1.
         36    2    1    2    0    0  0.00000000000E+00  0.14210854715E-13  0.41920697534E+03  0.50136155948E+03  0.27500713655E+03 0.  0.
         25    2    3    3    0    0 -0.23653770203E+02  0.55689218191E+02  0.22087798588E+03  0.26001559222E+03  0.12312690072E+03 0.  0.
         25    2    3    3    0    0  0.23653770203E+02 -0.55689218191E+02  0.19832898945E+03  0.24134596726E+03  0.12350181371E+03 0.  0.
          5    1    4    4  502    0 -0.42390749422E+02  0.17908252203E+02  0.13281233780E+02  0.48126523916E+02  0.47000000000E+01 0.  1.
         -5    1    4    4    0  502  0.18736979218E+02  0.37780965988E+02  0.20759675210E+03  0.21188906830E+03  0.47000000000E+01 0.  1.
          5    1    5    5  503    0  0.33180777002E+02 -0.76636815132E+02  0.20099818679E+03  0.21770743324E+03  0.47000000000E+01 0.  1.
         -5    1    5    5    0  503 -0.95270067990E+01  0.20947596941E+02 -0.26691973396E+01  0.23638534019E+02  0.47000000000E+01 0.  1.
<mgrwt>
<rscale>  0 0.27500714E+03</rscale>
<asrwt>0</asrwt>
<pdfrwt beam="1">  1        1 0.70812961E-01 0.27500714E+03</pdfrwt>
<pdfrwt beam="2">  1       -1 0.63195837E-02 0.27500714E+03</pdfrwt>
<totfact> 0.61939074E+03</totfact>
</mgrwt>
</event>
<event>
 9    1  0.2114844E-002  0.2739622E+03  0.7818608E-02  0.1099033E+00
         -1   -1    0    0    0  501 -0.00000000000E+00  0.00000000000E+00  0.23132716354E+03  0.23132716354E+03  0.00000000000E+00 0.  1.
          1   -1    0    0  501    0  0.00000000000E+00 -0.00000000000E+00 -0.81113792432E+02  0.81113792432E+02  0.00000000000E+00 0.  1.
         36    2    1    2    0    0  0.17763568394E-14  0.00000000000E+00  0.15021337110E+03  0.31244095597E+03  0.27396221292E+03 0.  0.
         25    2    3    3    0    0 -0.38590302349E+01 -0.43412455071E+02  0.36718434911E+02  0.14020572807E+03  0.12810101230E+03 0.  0.
         25    2    3    3    0    0  0.38590302349E+01  0.43412455071E+02  0.11349493619E+03  0.17223522789E+03  0.12200139268E+03 0.  0.
          5    1    4    4  502    0 -0.63003537887E+02 -0.10435840814E+02  0.22450571984E+01  0.64074041870E+02  0.47000000000E+01 0.  1.
         -5    1    4    4    0  502  0.59144507652E+02 -0.32976614258E+02  0.34473377713E+02  0.76131686203E+02  0.47000000000E+01 0.  1.
          5    1    5    5  503    0  0.15546250261E+02 -0.12230971444E+02  0.11337500985E+03  0.11518361610E+03  0.47000000000E+01 0.  1.
         -5    1    5    5    0  503 -0.11687220026E+02  0.55643426516E+02  0.11992634636E+00  0.57051611797E+02  0.47000000000E+01 0.  1.
<mgrwt>
<rscale>  0 0.27396221E+03</rscale>
<asrwt>0</asrwt>
<pdfrwt beam="1">  1        1 0.12479045E-01 0.27396221E+03</pdfrwt>
<pdfrwt beam="2">  1       -1 0.35588794E-01 0.27396221E+03</pdfrwt>
<totfact> 0.35975321E+03</totfact>
</mgrwt>
</event>
<event>
 9    1  0.2114844E-002  0.2811568E+03  0.7818608E-02  0.1095059E+00
          1   -1    0    0  501    0  0.00000000000E+00  0.00000000000E+00  0.11322849066E+04  0.11322849066E+04  0.00000000000E+00 0. -1.
         -1   -1    0    0    0  501 -0.00000000000E+00 -0.00000000000E+00 -0.17453453704E+02  0.17453453704E+02  0.00000000000E+00 0. -1.
         36    2    1    2    0    0 -0.71054273576E-14  0.35527136788E-14  0.11148314529E+04  0.11497383603E+04  0.28115676907E+03 0.  0.
         25    2    3    3    0    0 -0.34854796007E+01 -0.28496327787E+02  0.75105012605E+03  0.76637070825E+03  0.14974505449E+03 0.  0.
         25    2    3    3    0    0  0.34854796007E+01  0.28496327787E+02  0.36378132688E+03  0.38336765210E+03  0.11751473790E+03 0.  0.
          5    1    4    4  502    0 -0.74949747109E+02 -0.21014825582E+02  0.45880207325E+03  0.46538212246E+03  0.47000000000E+01 0. -1.
         -5    1    4    4    0  502  0.71464267508E+02 -0.74815022045E+01  0.29224805281E+03  0.30098858579E+03  0.47000000000E+01 0. -1.
          5    1    5    5  503    0  0.28991924369E+02  0.52374774471E+02  0.95704634913E+02  0.11298281207E+03  0.47000000000E+01 0. -1.
         -5    1    5    5    0  503 -0.25506444768E+02 -0.23878446684E+02  0.26807669197E+03  0.27038484003E+03  0.47000000000E+01 0. -1.
<mgrwt>
<rscale>  0 0.28115677E+03</rscale>
<asrwt>0</asrwt>
<pdfrwt beam="1">  1        1 0.17419762E+00 0.28115677E+03</pdfrwt>
<pdfrwt beam="2">  1       -1 0.26851476E-02 0.28115677E+03</pdfrwt>
<totfact> 0.56855531E+03</totfact>
</mgrwt>
</event>
<event>
 9    1  0.2114844E-002  0.2765599E+03  0.7818608E-02  0.1097583E+00
          2   -1    0    0  501    0  0.00000000000E+00  0.00000000000E+00  0.54113345603E+03  0.54113345603E+03  0.00000000000E+00 0. -1.
         -2   -1    0    0    0  501 -0.00000000000E+00 -0.00000000000E+00 -0.35335730974E+02  0.35335730974E+02  0.00000000000E+00 0. -1.
         36    2    1    2    0    0  0.00000000000E+00  0.00000000000E+00  0.50579772506E+03  0.57646918701E+03  0.27655991194E+03 0.  0.
         25    2    3    3    0    0 -0.23770622600E+02 -0.49184382307E+02  0.26471364940E+03  0.29738599322E+03  0.12402002589E+03 0.  0.
         25    2    3    3    0    0  0.23770622600E+02  0.49184382307E+02  0.24108407566E+03  0.27908319379E+03  0.12954439994E+03 0.  0.
          5    1    4    4  502    0  0.16716318069E+02  0.35859521499E+02  0.60398145845E+02  0.72355833168E+02  0.47000000000E+01 0. -1.
         -5    1    4    4    0  502 -0.40486940670E+02 -0.85043903806E+02  0.20431550356E+03  0.22503016005E+03  0.47000000000E+01 0. -1.
          5    1    5    5  503    0 -0.22784820370E+02  0.80235682366E+02  0.12846734089E+03  0.15324118388E+03  0.47000000000E+01 0. -1.
         -5    1    5    5    0  503  0.46555442970E+02 -0.31051300060E+02  0.11261673477E+03  0.12584200990E+03  0.47000000000E+01 0. -1.
<mgrwt>
<rscale>  0 0.27655991E+03</rscale>
<asrwt>0</asrwt>
<pdfrwt beam="1">  1        2 0.83251295E-01 0.27655991E+03</pdfrwt>
<pdfrwt beam="2">  1       -2 0.54362667E-02 0.27655991E+03</pdfrwt>
<totfact> 0.97500200E+03</totfact>
</mgrwt>
</event>
<event>
 9    1  0.2114844E-002  0.2748823E+03  0.7818608E-02  0.1098517E+00
         -1   -1    0    0    0  501 -0.00000000000E+00  0.00000000000E+00  0.22655817468E+02  0.22655817468E+02  0.00000000000E+00 0. -1.
          1   -1    0    0  501    0  0.00000000000E+00 -0.00000000000E+00 -0.83378470521E+03  0.83378470521E+03  0.00000000000E+00 0. -1.
         36    2    1    2    0    0 -0.35527136788E-14  0.00000000000E+00 -0.81112888774E+03  0.85644052268E+03  0.27488233183E+03 0.  0.
         25    2    3    3    0    0  0.32922365217E+01 -0.95443424086E+01 -0.18133099017E+03  0.21506731997E+03  0.11520022061E+03 0.  0.
         25    2    3    3    0    0 -0.32922365217E+01  0.95443424086E+01 -0.62979789757E+03  0.64137320271E+03  0.12088118164E+03 0.  0.
          5    1    4    4  502    0  0.36127835561E+02 -0.53811815662E+01 -0.69083852198E+01  0.37469899969E+02  0.47000000000E+01 0. -1.
         -5    1    4    4    0  502 -0.32835599039E+02 -0.41631608424E+01 -0.17442260495E+03  0.17759742000E+03  0.47000000000E+01 0. -1.
          5    1    5    5  503    0 -0.68085110101E+01 -0.39607021253E+02 -0.51201465341E+03  0.51361091038E+03  0.47000000000E+01 0. -1.
         -5    1    5    5    0  503  0.35162744884E+01  0.49151363662E+02 -0.11778324416E+03  0.12776229233E+03  0.47000000000E+01 0. -1.
<mgrwt>
<rscale>  0 0.27488233E+03</rscale>
<asrwt>0</asrwt>
<pdfrwt beam="1">  1        1 0.12827455E+00 0.27488233E+03</pdfrwt>
<pdfrwt beam="2">  1       -1 0.34855108E-02 0.27488233E+03</pdfrwt>
<totfact> 0.65096510E+03</totfact>
</mgrwt>
</event>
<event>
 9    1  0.2114844E-002  0.2809462E+03  0.7818608E-02  0.1095173E+00
         -2   -1    0    0    0  501 -0.00000000000E+00  0.00000000000E+00  0.28706994068E+02  0.28706994068E+02  0.00000000000E+00 0.  1.
          2   -1    0    0  501    0  0.00000000000E+00 -0.00000000000E+00 -0.68738268658E+03  0.68738268658E+03  0.00000000000E+00 0.  1.
         36    2    1    2    0    0  0.17763568394E-14  0.71054273576E-14 -0.65867569251E+03  0.71608968065E+03  0.28094619205E+03 0.  0.
         25    2    3    3    0    0  0.12779438647E+02  0.42854794781E+02 -0.20311889772E+03  0.24105012838E+03  0.12185249399E+03 0.  0.
         25    2    3    3    0    0 -0.12779438647E+02 -0.42854794781E+02 -0.45555679480E+03  0.47503955227E+03  0.12700683230E+03 0.  0.
          5    1    4    4  502    0 -0.15588117933E+02 -0.25064043035E+02 -0.58643359322E+01  0.30457775852E+02  0.47000000000E+01 0. -1.
         -5    1    4    4    0  502  0.28367556580E+02  0.67918837816E+02 -0.19725456178E+03  0.21059235252E+03  0.47000000000E+01 0. -1.
          5    1    5    5  503    0 -0.25600053458E+02  0.27243591394E+02 -0.31631796549E+03  0.31855411047E+03  0.47000000000E+01 0.  1.
         -5    1    5    5    0  503  0.12820614811E+02 -0.70098386174E+02 -0.13923882931E+03  0.15648544180E+03  0.47000000000E+01 0.  1.
<mgrwt>
<rscale>  0 0.28094619E+03</rscale>
<asrwt>0</asrwt>
<pdfrwt beam="1">  1        2 0.10575117E+00 0.28094619E+03</pdfrwt>
<pdfrwt beam="2">  1       -2 0.44164610E-02 0.28094619E+03</pdfrwt>
<totfact> 0.10113470E+04</totfact>
</mgrwt>
</event>
<event>
 9    1  0.2114844E-002  0.2749236E+03  0.7818608E-02  0.1098494E+00
          2   -1    0    0  501    0  0.00000000000E+00  0.00000000000E+00  0.46940777545E+03  0.46940777545E+03  0.00000000000E+00 0. -1.
         -2   -1    0    0    0  501 -0.00000000000E+00 -0.00000000000E+00 -0.40254445598E+02  0.40254445598E+02  0.00000000000E+00 0. -1.
         36    2    1    2    0    0 -0.14210854715E-13  0.00000000000E+00  0.42915332985E+03  0.50966222105E+03  0.27492362401E+03 0.  0.
         25    2    3    3    0    0 -0.66341457772E+02 -0.32872421337E+02  0.14170421368E+03  0.18745389060E+03  0.97862617087E+02 0.  0.
         25    2    3    3    0    0  0.66341457772E+02  0.32872421337E+02  0.28744911617E+03  0.32220833045E+03  0.12533725989E+03 0.  0.
          5    1    4    4  502    0 -0.38038121406E+02 -0.59814619639E+02  0.12684615729E+03  0.14538474825E+03  0.47000000000E+01 0.  1.
         -5    1    4    4    0  502 -0.28303336366E+02  0.26942198303E+02  0.14858056385E+02  0.42069142354E+02  0.47000000000E+01 0.  1.
          5    1    5    5  503    0  0.79659054393E+02  0.82826306888E+00  0.84369471573E+02  0.11613160078E+03  0.47000000000E+01 0. -1.
         -5    1    5    5    0  503 -0.13317596621E+02  0.32044158268E+02  0.20307964460E+03  0.20607672967E+03  0.47000000000E+01 0. -1.
<mgrwt>
<rscale>  0 0.27492362E+03</rscale>
<asrwt>0</asrwt>
<pdfrwt beam="1">  1        2 0.72216577E-01 0.27492362E+03</pdfrwt>
<pdfrwt beam="2">  1       -2 0.61929919E-02 0.27492362E+03</pdfrwt>
<totfact> 0.93635701E+03</totfact>
</mgrwt>
</event>
<event>
 9    1  0.2114844E-002  0.2780762E+03  0.7818608E-02  0.1096744E+00
          2   -1    0    0  501    0  0.00000000000E+00  0.00000000000E+00  0.10806467580E+03  0.10806467580E+03  0.00000000000E+00 0. -1.
         -2   -1    0    0    0  501 -0.00000000000E+00 -0.00000000000E+00 -0.17888904733E+03  0.17888904733E+03  0.00000000000E+00 0. -1.
         36    2    1    2    0    0  0.71054273576E-14  0.00000000000E+00 -0.70824371530E+02  0.28695372312E+03  0.27807615434E+03 0.  0.
         25    2    3    3    0    0 -0.14634077325E+02 -0.33749101942E+02  0.67633690194E+01  0.13032344878E+03  0.12484109916E+03 0.  0.
         25    2    3    3    0    0  0.14634077325E+02  0.33749101942E+02 -0.77587740550E+02  0.15663027434E+03  0.13099628718E+03 0.  0.
          5    1    4    4  502    0  0.43459646260E+02  0.13984782048E+02  0.25758321988E+02  0.52629802714E+02  0.47000000000E+01 0.  1.
         -5    1    4    4    0  502 -0.58093723585E+02 -0.47733883990E+02 -0.18994952969E+02  0.77693646066E+02  0.47000000000E+01 0.  1.
          5    1    5    5  503    0  0.70943103214E+02  0.10811584289E+02 -0.25101562722E+02  0.76170812649E+02  0.47000000000E+01 0. -1.
         -5    1    5    5    0  503 -0.56309025889E+02  0.22937517653E+02 -0.52486177828E+02  0.80459461691E+02  0.47000000000E+01 0. -1.
<mgrwt>
<rscale>  0 0.27807615E+03</rscale>
<asrwt>0</asrwt>
<pdfrwt beam="1">  1        2 0.16625335E-01 0.27807615E+03</pdfrwt>
<pdfrwt beam="2">  1       -2 0.27521392E-01 0.27807615E+03</pdfrwt>
<totfact> 0.41033311E+03</totfact>
</mgrwt>
</event>
<event>
 9    1  0.2114844E-002  0.2756037E+03  0.7818608E-02  0.1098115E+00
          2   -1    0    0  501    0  0.00000000000E+00  0.00000000000E+00  0.22283061363E+04  0.22283061363E+04  0.00000000000E+00 0. -1.
         -2   -1    0    0    0  501 -0.00000000000E+00 -0.00000000000E+00 -0.85218749636E+01  0.85218749636E+01  0.00000000000E+00 0. -1.
         36    2    1    2    0    0  0.53290705182E-14  0.14210854715E-13  0.22197842614E+04  0.22368280113E+04  0.27560367396E+03 0.  0.
         25    2    3    3    0    0  0.11918148447E+02 -0.51959344872E+02  0.13199955119E+04  0.13267733286E+04  0.12287187739E+03 0.  0.
         25    2    3    3    0    0 -0.11918148447E+02  0.51959344872E+02  0.89978874948E+03  0.91005468271E+03  0.12545085115E+03 0.  0.
          5    1    4    4  502    0 -0.33534314155E+02 -0.59386677203E+02  0.41486909418E+03  0.42046377128E+03  0.47000000000E+01 0. -1.
         -5    1    4    4    0  502  0.45452462602E+02  0.74273323315E+01  0.90512641771E+03  0.90630955730E+03  0.47000000000E+01 0. -1.
          5    1    5    5  503    0  0.12831379582E+02  0.29225995440E+02  0.49480046892E+02  0.59069181067E+02  0.47000000000E+01 0.  1.
         -5    1    5    5    0  503 -0.24749528029E+02  0.22733349432E+02  0.85030870259E+03  0.85098550164E+03  0.47000000000E+01 0.  1.
<mgrwt>
<rscale>  0 0.27560367E+03</rscale>
<asrwt>0</asrwt>
<pdfrwt beam="1">  1        2 0.34281586E+00 0.27560367E+03</pdfrwt>
<pdfrwt beam="2">  1       -2 0.13110595E-02 0.27560367E+03</pdfrwt>
<totfact> 0.80798402E+03</totfact>
</mgrwt>
</event>
<event>
 9    1  0.2114844E-002  0.2739886E+03  0.7818608E-02  0.1099018E+00
         -4   -1    0    0    0  501 -0.00000000000E+00  0.00000000000E+00  0.17471394814E+02  0.17471394814E+02  0.00000000000E+00 0. -1.
          4   -1    0    0  501    0  0.00000000000E+00 -0.00000000000E+00 -0.10741811982E+04  0.10741811982E+04  0.00000000000E+00 0. -1.
         36    2    1    2    0    0 -0.14210854715E-13  0.35527136788E-14 -0.10567098034E+04  0.10916525930E+04  0.27398864076E+03 0.  0.
         25    2    3    3    0    0 -0.55741261867E+02  0.61364272142E+01 -0.44468724315E+03  0.46474191133E+03  0.12285583386E+03 0.  0.
         25    2    3    3    0    0  0.55741261867E+02 -0.61364272142E+01 -0.61202256025E+03  0.62691068170E+03  0.12369577421E+03 0.  0.
          5    1    4    4  502    0 -0.79431481954E+02 -0.32660235290E+02 -0.23807929462E+03  0.25314006364E+03  0.47000000000E+01 0. -1.
         -5    1    4    4    0  502  0.23690220087E+02  0.38796662504E+02 -0.20660794854E+03  0.21160184770E+03  0.47000000000E+01 0. -1.
          5    1    5    5  503    0 -0.87191684109E+01 -0.23363208405E+02 -0.46148235803E+03  0.46217953240E+03  0.47000000000E+01 0. -1.
         -5    1    5    5    0  503  0.64460430277E+02  0.17226781190E+02 -0.15054020223E+03  0.16473114930E+03  0.47000000000E+01 0. -1.
<mgrwt>
<rscale>  0 0.27398864E+03</rscale>
<asrwt>0</asrwt>
<pdfrwt beam="1">  1        4 0.16525868E+00 0.27398864E+03</pdfrwt>
<pdfrwt beam="2">  1       -4 0.26879064E-02 0.27398864E+03</pdfrwt>
<totfact> 0.29390962E+02</totfact>
</mgrwt>
</event>
<event>
 9    1  0.2114844E-002  0.2749357E+03  0.7818608E-02  0.1098488E+00
          2   -1    0    0  501    0  0.00000000000E+00  0.00000000000E+00  0.96728610028E+03  0.96728610028E+03  0.00000000000E+00 0.  1.
         -2   -1    0    0    0  501 -0.00000000000E+00 -0.00000000000E+00 -0.19536532777E+02  0.19536532777E+02  0.00000000000E+00 0.  1.
         36    2    1    2    0    0  0.71054273576E-14  0.35527136788E-14  0.94774956751E+03  0.98682263306E+03  0.27493574960E+03 0.  0.
         25    2    3    3    0    0  0.28065596102E+02 -0.16604158385E+02  0.57602509212E+03  0.58992378442E+03  0.12305197650E+03 0.  0.
         25    2    3    3    0    0 -0.28065596102E+02  0.16604158385E+02  0.37172447539E+03  0.39689884864E+03  0.13522660494E+03 0.  0.
          5    1    4    4  502    0 -0.46460499052E+02  0.49724224099E+01  0.27747895245E+03  0.28142487810E+03  0.47000000000E+01 0.  1.
         -5    1    4    4    0  502  0.74526095154E+02 -0.21576580795E+02  0.29854613966E+03  0.30849890633E+03  0.47000000000E+01 0.  1.
          5    1    5    5  503    0 -0.78192352795E+02 -0.12015600579E+02  0.18133222509E+03  0.19789361927E+03  0.47000000000E+01 0.  1.
         -5    1    5    5    0  503  0.50126756693E+02  0.28619758964E+02  0.19039225030E+03  0.19900522936E+03  0.47000000000E+01 0.  1.
<mgrwt>
<rscale>  0 0.27493575E+03</rscale>
<asrwt>0</asrwt>
<pdfrwt beam="1">  1        2 0.14881321E+00 0.27493575E+03</pdfrwt>
<pdfrwt beam="2">  1       -2 0.30056212E-02 0.27493575E+03</pdfrwt>
<totfact> 0.11591484E+04</totfact>
</mgrwt>
</event>
<event>
 9    1  0.2114844E-002  0.2752962E+03  0.7818608E-02  0.1098286E+00
         -3   -1    0    0    0  501 -0.00000000000E+00  0.00000000000E+00  0.20404339763E+04  0.20404339763E+04  0.00000000000E+00 0.  1.
          3   -1    0    0  501    0  0.00000000000E+00 -0.00000000000E+00 -0.92857688829E+01  0.92857688829E+01  0.00000000000E+00 0.  1.
         36    2    1    2    0    0  0.71054273576E-14  0.71054273576E-14  0.20311482074E+04  0.20497197452E+04  0.27529619194E+03 0.  0.
         25    2    3    3    0    0 -0.23786600125E+02 -0.10269303011E+02  0.14028768820E+04  0.14085345549E+04  0.12342927322E+03 0.  0.
         25    2    3    3    0    0  0.23786600125E+02  0.10269303011E+02  0.62827132545E+03  0.64118519028E+03  0.12538871127E+03 0.  0.
          5    1    4    4  502    0  0.18536105820E+02 -0.13679767669E+02  0.12376874483E+04  0.12379107532E+04  0.47000000000E+01 0.  1.
         -5    1    4    4    0  502 -0.42322705944E+02  0.34104646582E+01  0.16518943371E+03  0.17062380173E+03  0.47000000000E+01 0.  1.
          5    1    5    5  503    0 -0.68304638672E+01 -0.45223745628E+02  0.11279250780E+03  0.12180345735E+03  0.47000000000E+01 0. -1.
         -5    1    5    5    0  503  0.30617063992E+02  0.55493048638E+02  0.51547881765E+03  0.51938173293E+03  0.47000000000E+01 0. -1.
<mgrwt>
<rscale>  0 0.27529619E+03</rscale>
<asrwt>0</asrwt>
<pdfrwt beam="1">  1        3 0.14285814E-02 0.27529619E+03</pdfrwt>
<pdfrwt beam="2">  1       -3 0.31391256E+00 0.27529619E+03</pdfrwt>
<totfact> 0.14894778E+02</totfact>
</mgrwt>
</event>
<event>
 9    1  0.2114844E-002  0.2778875E+03  0.7818608E-02  0.1096848E+00
         -2   -1    0    0    0  501 -0.00000000000E+00  0.00000000000E+00  0.45860651697E+02  0.45860651697E+02  0.00000000000E+00 0. -1.
          2   -1    0    0  501    0  0.00000000000E+00 -0.00000000000E+00 -0.42095705671E+03  0.42095705671E+03  0.00000000000E+00 0. -1.
         36    2    1    2    0    0  0.00000000000E+00  0.00000000000E+00 -0.37509640501E+03  0.46681770841E+03  0.27788749491E+03 0.  0.
         25    2    3    3    0    0 -0.27935072545E+01 -0.32264935892E+02 -0.27343047254E+03  0.30303003092E+03  0.12654701321E+03 0.  0.
         25    2    3    3    0    0  0.27935072545E+01  0.32264935892E+02 -0.10166593247E+03  0.16378767749E+03  0.12426428168E+03 0.  0.
          5    1    4    4  502    0 -0.52236946004E+02 -0.22644564769E+02 -0.56756881231E+02  0.80528929016E+02  0.47000000000E+01 0.  1.
         -5    1    4    4    0  502  0.49443438750E+02 -0.96203711236E+01 -0.21667359131E+03  0.22250110190E+03  0.47000000000E+01 0.  1.
          5    1    5    5  503    0 -0.30683978585E+02  0.62653043934E+02 -0.24239151437E+02  0.74003627737E+02  0.47000000000E+01 0. -1.
         -5    1    5    5    0  503  0.33477485839E+02 -0.30388108041E+02 -0.77426781034E+02  0.89784049751E+02  0.47000000000E+01 0. -1.
<mgrwt>
<rscale>  0 0.27788749E+03</rscale>
<asrwt>0</asrwt>
<pdfrwt beam="1">  1        2 0.64762626E-01 0.27788749E+03</pdfrwt>
<pdfrwt beam="2">  1       -2 0.70554847E-02 0.27788749E+03</pdfrwt>
<totfact> 0.86348921E+03</totfact>
</mgrwt>
</event>
<event>
 9    1  0.2114844E-002  0.2744350E+03  0.7818608E-02  0.1098768E+00
          4   -1    0    0  501    0  0.00000000000E+00  0.00000000000E+00  0.41563082776E+02  0.41563082776E+02  0.00000000000E+00 0. -1.
         -4   -1    0    0    0  501 -0.00000000000E+00 -0.00000000000E+00 -0.45301346867E+03  0.45301346867E+03  0.00000000000E+00 0. -1.
         36    2    1    2    0    0  0.00000000000E+00 -0.71054273576E-14 -0.41145038589E+03  0.49457655144E+03  0.27443495621E+03 0.  0.
         25    2    3    3    0    0 -0.92692949398E+01  0.48007757637E+02 -0.26160092605E+03  0.29351562070E+03  0.12379705351E+03 0.  0.
         25    2    3    3    0    0  0.92692949398E+01 -0.48007757637E+02 -0.14984945984E+03  0.20106093075E+03  0.12481976060E+03 0.  0.
          5    1    4    4  502    0  0.28618421670E+02  0.47862044494E+02 -0.24597884370E+03  0.25226468423E+03  0.47000000000E+01 0. -1.
         -5    1    4    4    0  502 -0.37887716610E+02  0.14571314336E+00 -0.15622082354E+02  0.41250936466E+02  0.47000000000E+01 0. -1.
          5    1    5    5  503    0  0.28287397139E+02 -0.78167040083E+02 -0.14144098089E+03  0.16412770658E+03  0.47000000000E+01 0.  1.
         -5    1    5    5    0  503 -0.19018102199E+02  0.30159282446E+02 -0.84084789423E+01  0.36933224163E+02  0.47000000000E+01 0.  1.
<mgrwt>
<rscale>  0 0.27443496E+03</rscale>
<asrwt>0</asrwt>
<pdfrwt beam="1">  1        4 0.63943203E-02 0.27443496E+03</pdfrwt>
<pdfrwt beam="2">  1       -4 0.69694382E-01 0.27443496E+03</pdfrwt>
<totfact> 0.57653288E+02</totfact>
</mgrwt>
</event>
<event>
 9    1  0.2114844E-002  0.2736184E+03  0.7818608E-02  0.1099226E+00
         -1   -1    0    0    0  501 -0.00000000000E+00  0.00000000000E+00  0.20277488602E+02  0.20277488602E+02  0.00000000000E+00 0.  1.
          1   -1    0    0  501    0  0.00000000000E+00 -0.00000000000E+00 -0.92303117291E+03  0.92303117291E+03  0.00000000000E+00 0.  1.
         36    2    1    2    0    0 -0.14210854715E-13  0.00000000000E+00 -0.90275368431E+03  0.94330866151E+03  0.27361837722E+03 0.  0.
         25    2    3    3    0    0 -0.28654214179E+02 -0.13178003521E+02 -0.26826917522E+03  0.29563211777E+03  0.12014688892E+03 0.  0.
         25    2    3    3    0    0  0.28654214179E+02  0.13178003521E+02 -0.63448450909E+03  0.64767654374E+03  0.12617285474E+03 0.  0.
          5    1    4    4  502    0  0.45448412416E+02  0.15767988727E+01 -0.72219492001E+02  0.85473911287E+02  0.47000000000E+01 0. -1.
         -5    1    4    4    0  502 -0.74102626594E+02 -0.14754802393E+02 -0.19604968322E+03  0.21015820648E+03  0.47000000000E+01 0. -1.
          5    1    5    5  503    0  0.21238455822E+02  0.19355493220E+02 -0.25816474722E+02  0.38913847028E+02  0.47000000000E+01 0. -1.
         -5    1    5    5    0  503  0.74157583567E+01 -0.61774896992E+01 -0.60866803437E+03  0.60876269671E+03  0.47000000000E+01 0. -1.
<mgrwt>
<rscale>  0 0.27361838E+03</rscale>
<asrwt>0</asrwt>
<pdfrwt beam="1">  1        1 0.14200474E+00 0.27361838E+03</pdfrwt>
<pdfrwt beam="2">  1       -1 0.31196149E-02 0.27361838E+03</pdfrwt>
<totfact> 0.65124653E+03</totfact>
</mgrwt>
</event>
<event>
 9    1  0.2114844E-002  0.2746526E+03  0.7818608E-02  0.1098646E+00
          2   -1    0    0  501    0  0.00000000000E+00  0.00000000000E+00  0.57090405255E+03  0.57090405255E+03  0.00000000000E+00 0. -1.
         -2   -1    0    0    0  501 -0.00000000000E+00 -0.00000000000E+00 -0.33032717346E+02  0.33032717346E+02  0.00000000000E+00 0. -1.
         36    2    1    2    0    0  0.00000000000E+00  0.35527136788E-14  0.53787133520E+03  0.60393676990E+03  0.27465259656E+03 0.  0.
         25    2    3    3    0    0  0.42636091920E+02  0.80282480955E+01  0.31821904516E+03  0.34712273303E+03  0.13171386404E+03 0.  0.
         25    2    3    3    0    0 -0.42636091920E+02 -0.80282480955E+01  0.21965229004E+03  0.25681403687E+03  0.12579360838E+03 0.  0.
          5    1    4    4  502    0 -0.47131821459E+02 -0.25084395267E+01  0.92964463035E+02  0.10436561814E+03  0.47000000000E+01 0. -1.
         -5    1    4    4    0  502  0.89767913379E+02  0.10536687622E+02  0.22525458212E+03  0.24275711488E+03  0.47000000000E+01 0. -1.
          5    1    5    5  503    0 -0.46578016001E+02  0.51496073643E+02  0.87947486918E+02  0.11215260867E+03  0.47000000000E+01 0.  1.
         -5    1    5    5    0  503  0.39419240808E+01 -0.59524321739E+02  0.13170480313E+03  0.14466142821E+03  0.47000000000E+01 0.  1.
<mgrwt>
<rscale>  0 0.27465260E+03</rscale>
<asrwt>0</asrwt>
<pdfrwt beam="1">  1        2 0.87831385E-01 0.27465260E+03</pdfrwt>
<pdfrwt beam="2">  1       -2 0.50819570E-02 0.27465260E+03</pdfrwt>
<totfact> 0.10161068E+04</totfact>
</mgrwt>
</event>
<event>
 9    1  0.2114844E-002  0.2751071E+03  0.7818608E-02  0.1098392E+00
          2   -1    0    0  501    0  0.00000000000E+00  0.00000000000E+00  0.35584800722E+02  0.35584800722E+02  0.00000000000E+00 0.  1.
         -2   -1    0    0    0  501 -0.00000000000E+00 -0.00000000000E+00 -0.53171523961E+03  0.53171523961E+03  0.00000000000E+00 0.  1.
         36    2    1    2    0    0  0.35527136788E-14  0.00000000000E+00 -0.49613043888E+03  0.56730004033E+03  0.27510711254E+03 0.  0.
         25    2    3    3    0    0  0.40333560094E+01 -0.43329097098E+02 -0.30001663946E+03  0.32802761545E+03  0.12529347122E+03 0.  0.
         25    2    3    3    0    0 -0.40333560094E+01  0.43329097098E+02 -0.19611379943E+03  0.23927242488E+03  0.12998843166E+03 0.  0.
          5    1    4    4  502    0 -0.50684749412E+02 -0.30252506146E+02 -0.72483948998E+02  0.93595784165E+02  0.47000000000E+01 0.  1.
         -5    1    4    4    0  502  0.54718105422E+02 -0.13076590952E+02 -0.22753269046E+03  0.23443183128E+03  0.47000000000E+01 0.  1.
          5    1    5    5  503    0  0.19432798039E+02  0.44651898725E+02 -0.20717593994E+03  0.21287410784E+03  0.47000000000E+01 0. -1.
         -5    1    5    5    0  503 -0.23466154049E+02 -0.13228016265E+01  0.11062140508E+02  0.26398317041E+02  0.47000000000E+01 0. -1.
<mgrwt>
<rscale>  0 0.27510711E+03</rscale>
<asrwt>0</asrwt>
<pdfrwt beam="1">  1        2 0.54745850E-02 0.27510711E+03</pdfrwt>
<pdfrwt beam="2">  1       -2 0.81802341E-01 0.27510711E+03</pdfrwt>
<totfact> 0.18863192E+03</totfact>
</mgrwt>
</event>
<event>
 9    1  0.2114844E-002  0.2748428E+03  0.7818608E-02  0.1098539E+00
         -1   -1    0    0    0  501 -0.00000000000E+00  0.00000000000E+00  0.16103455940E+02  0.16103455940E+02  0.00000000000E+00 0.  1.
          1   -1    0    0  501    0  0.00000000000E+00 -0.00000000000E+00 -0.11727076387E+04  0.11727076387E+04  0.00000000000E+00 0.  1.
         36    2    1    2    0    0  0.00000000000E+00  0.71054273576E-14 -0.11566041828E+04  0.11888110946E+04  0.27484283356E+03 0.  0.
         25    2    3    3    0    0 -0.33373229305E+02 -0.21831919692E+02 -0.37384207624E+03  0.39543533040E+03  0.12255936283E+03 0.  0.
         25    2    3    3    0    0  0.33373229305E+02  0.21831919692E+02 -0.78276210652E+03  0.79337576423E+03  0.12303732244E+03 0.  0.
          5    1    4    4  502    0 -0.57770658253E+01 -0.26193713512E+02 -0.36462779859E+03  0.36564327783E+03  0.47000000000E+01 0. -1.
         -5    1    4    4    0  502 -0.27596163480E+02  0.43617938198E+01 -0.92142776448E+01  0.29792052575E+02  0.47000000000E+01 0. -1.
          5    1    5    5  503    0  0.40703864676E+02  0.59316389005E+02 -0.67704344193E+03  0.68087087679E+03  0.47000000000E+01 0. -1.
         -5    1    5    5    0  503 -0.73306353704E+01 -0.37484469313E+02 -0.10571866459E+03  0.11250488744E+03  0.47000000000E+01 0. -1.
<mgrwt>
<rscale>  0 0.27484283E+03</rscale>
<asrwt>0</asrwt>
<pdfrwt beam="1">  1        1 0.18041661E+00 0.27484283E+03</pdfrwt>
<pdfrwt beam="2">  1       -1 0.24774541E-02 0.27484283E+03</pdfrwt>
<totfact> 0.59889525E+03</totfact>
</mgrwt>
</event>
<event>
 9    1  0.2114844E-002  0.2750321E+03  0.7818608E-02  0.1098434E+00
          1   -1    0    0  501    0  0.00000000000E+00  0.00000000000E+00  0.17005333956E+03  0.17005333956E+03  0.00000000000E+00 0. -1.
         -1   -1    0    0    0  501 -0.00000000000E+00 -0.00000000000E+00 -0.11120434046E+03  0.11120434046E+03  0.00000000000E+00 0. -1.
         36    2    1    2    0    0 -0.35527136788E-14  0.00000000000E+00  0.58848999101E+02  0.28125768003E+03  0.27503213972E+03 0.  0.
         25    2    3    3    0    0 -0.16883489464E+02 -0.32024953831E+02 -0.19486771597E+02  0.13095692413E+03  0.12433556138E+03 0.  0.
         25    2    3    3    0    0  0.16883489464E+02  0.32024953831E+02  0.78335770697E+02  0.15030075590E+03  0.12305760590E+03 0.  0.
          5    1    4    4  502    0  0.36889546849E+02 -0.55055742449E+02  0.65379223085E+01  0.66759327974E+02  0.47000000000E+01 0.  1.
         -5    1    4    4    0  502 -0.53773036313E+02  0.23030788619E+02 -0.26024693905E+02  0.64197596151E+02  0.47000000000E+01 0.  1.
          5    1    5    5  503    0 -0.66094356649E+01  0.74746472812E+02  0.65377997065E+02  0.99634794815E+02  0.47000000000E+01 0. -1.
         -5    1    5    5    0  503  0.23492925129E+02 -0.42721518981E+02  0.12957773632E+02  0.50665961085E+02  0.47000000000E+01 0. -1.
<mgrwt>
<rscale>  0 0.27503214E+03</rscale>
<asrwt>0</asrwt>
<pdfrwt beam="1">  1        1 0.26162052E-01 0.27503214E+03</pdfrwt>
<pdfrwt beam="2">  1       -1 0.17108360E-01 0.27503214E+03</pdfrwt>
<totfact> 0.46623080E+03</totfact>
</mgrwt>
</event>
<event>
 9    1  0.2114844E-002  0.2734565E+03  0.7818608E-02  0.1099318E+00
          2   -1    0    0  501    0  0.00000000000E+00  0.00000000000E+00  0.11954076699E+04  0.11954076699E+04  0.00000000000E+00 0.  1.
         -2   -1    0    0    0  501 -0.00000000000E+00 -0.00000000000E+00 -0.15638692071E+02  0.15638692071E+02  0.00000000000E+00 0.  1.
         36    2    1    2    0    0  0.00000000000E+00 -0.17763568394E-14  0.11797689779E+04  0.12110463620E+04  0.27345648612E+03 0.  0.
         25    2    3    3    0    0 -0.39662096886E+02  0.14103434332E+02  0.72882136129E+03  0.74124331030E+03  0.12840981113E+03 0.  0.
         25    2    3    3    0    0  0.39662096886E+02 -0.14103434332E+02  0.45094761656E+03  0.46980305170E+03  0.12485658058E+03 0.  0.
          5    1    4    4  502    0  0.45881399646E+02  0.15401961229E+02  0.22574499853E+03  0.23092253593E+03  0.47000000000E+01 0. -1.
         -5    1    4    4    0  502 -0.85543496532E+02 -0.12985268969E+01  0.50307636277E+03  0.51032077436E+03  0.47000000000E+01 0. -1.
          5    1    5    5  503    0  0.81796480727E+02  0.10658826797E+02  0.27706018190E+03  0.28911712029E+03  0.47000000000E+01 0.  1.
         -5    1    5    5    0  503 -0.42134383840E+02 -0.24762261129E+02  0.17388743466E+03  0.18068593141E+03  0.47000000000E+01 0.  1.
<mgrwt>
<rscale>  0 0.27345649E+03</rscale>
<asrwt>0</asrwt>
<pdfrwt beam="1">  1        2 0.18390880E+00 0.27345649E+03</pdfrwt>
<pdfrwt beam="2">  1       -2 0.24059536E-02 0.27345649E+03</pdfrwt>
<totfact> 0.11807285E+04</totfact>
</mgrwt>
</event>
<event>
 9    1  0.2114844E-002  0.2754138E+03  0.7818608E-02  0.1098221E+00
         -2   -1    0    0    0  501 -0.00000000000E+00  0.00000000000E+00  0.72313017971E+01  0.72313017971E+01  0.00000000000E+00 0. -1.
          2   -1    0    0  501    0  0.00000000000E+00 -0.00000000000E+00 -0.26223747950E+04  0.26223747950E+04  0.00000000000E+00 0. -1.
         36    2    1    2    0    0 -0.35527136788E-14  0.00000000000E+00 -0.26151434932E+04  0.26296060968E+04  0.27541375106E+03 0.  0.
         25    2    3    3    0    0  0.25939788007E+02 -0.33265160722E+02 -0.84912493080E+03  0.85872179217E+03  0.12087400352E+03 0.  0.
         25    2    3    3    0    0 -0.25939788007E+02  0.33265160722E+02 -0.17660185624E+04  0.17708843046E+04  0.12421841287E+03 0.  0.
          5    1    4    4  502    0  0.26936751643E+01  0.35543763552E+02 -0.10377701446E+03  0.10982883839E+03  0.47000000000E+01 0. -1.
         -5    1    4    4    0  502  0.23246112843E+02 -0.68808924274E+02 -0.74534791634E+03  0.74889295378E+03  0.47000000000E+01 0. -1.
          5    1    5    5  503    0 -0.24905014826E+02  0.44712798815E+02 -0.17493177398E+04  0.17500726097E+04  0.47000000000E+01 0. -1.
         -5    1    5    5    0  503 -0.10347731804E+01 -0.11447638093E+02 -0.16700822582E+02  0.20811694990E+02  0.47000000000E+01 0. -1.
<mgrwt>
<rscale>  0 0.27541375E+03</rscale>
<asrwt>0</asrwt>
<pdfrwt beam="1">  1        2 0.40344268E+00 0.27541375E+03</pdfrwt>
<pdfrwt beam="2">  1       -2 0.11125069E-02 0.27541375E+03</pdfrwt>
<totfact> 0.62660482E+03</totfact>
</mgrwt>
</event>
<event>
 8    1  0.2114844E-002  0.2948378E+03  0.7818608E-02  0.1087850E+00
         -1   -1    0    0    0  501 -0.00000000000E+00  0.00000000000E+00  0.62976349476E+03  0.62976349476E+03  0.00000000000E+00 0. -1.
          1   -1    0    0  501    0  0.00000000000E+00 -0.00000000000E+00 -0.34508719544E+02  0.34508719544E+02  0.00000000000E+00 0. -1.
         25    2    1    2    0    0 -0.21991746199E+02 -0.73306228319E+02  0.34074005719E+03  0.37225112725E+03  0.12887852868E+03 0.  0.
         25    2    1    2    0    0  0.21991746199E+02  0.73306228319E+02  0.25451471803E+03  0.29202108705E+03  0.12100055198E+03 0.  0.
          5    1    3    3  502    0  0.53197819586E+02 -0.30549144004E+02  0.11428604345E+03  0.12979463754E+03  0.47000000000E+01 0. -1.
         -5    1    3    3    0  502 -0.75189565785E+02 -0.42757084315E+02  0.22645401374E+03  0.24245648971E+03  0.47000000000E+01 0. -1.
          5    1    4    4  503    0 -0.39725524652E+02 -0.53635165675E+01  0.49457710567E+02  0.63836038046E+02  0.47000000000E+01 0. -1.
         -5    1    4    4    0  503  0.61717270851E+02  0.78669744886E+02  0.20505700746E+03  0.22818504901E+03  0.47000000000E+01 0. -1.
<mgrwt>
<rscale>  0 0.29483780E+03</rscale>
<asrwt>0</asrwt>
<pdfrwt beam="1">  1        1 0.53090342E-02 0.29483780E+03</pdfrwt>
<pdfrwt beam="2">  1       -1 0.96886683E-01 0.29483780E+03</pdfrwt>
<totfact> 0.16572893E+03</totfact>
</mgrwt>
</event>
<event>
 9    1  0.2114844E-002  0.2752372E+03  0.7818608E-02  0.1098319E+00
         -1   -1    0    0    0  501 -0.00000000000E+00  0.00000000000E+00  0.19879642905E+02  0.19879642905E+02  0.00000000000E+00 0. -1.
          1   -1    0    0  501    0  0.00000000000E+00 -0.00000000000E+00 -0.95267703696E+03  0.95267703696E+03  0.00000000000E+00 0. -1.
         36    2    1    2    0    0  0.00000000000E+00  0.00000000000E+00 -0.93279739406E+03  0.97255667987E+03  0.27523720169E+03 0.  0.
         25    2    3    3    0    0 -0.17993122145E+02 -0.53717926198E+02 -0.39364233783E+03  0.41511856571E+03  0.11899481258E+03 0.  0.
         25    2    3    3    0    0  0.17993122145E+02  0.53717926198E+02 -0.53915505623E+03  0.55743811416E+03  0.12976790213E+03 0.  0.
          5    1    4    4  502    0 -0.63360387310E+02 -0.25237389297E+02 -0.29452319560E+03  0.30235321603E+03  0.47000000000E+01 0.  1.
         -5    1    4    4    0  502  0.45367265164E+02 -0.28480536901E+02 -0.99119142233E+02  0.11276534968E+03  0.47000000000E+01 0.  1.
          5    1    5    5  503    0 -0.68965469172E+00  0.89309299258E+02 -0.25105796634E+03  0.26651232433E+03  0.47000000000E+01 0. -1.
         -5    1    5    5    0  503  0.18682776837E+02 -0.35591373060E+02 -0.28809708989E+03  0.29092578983E+03  0.47000000000E+01 0. -1.
<mgrwt>
<rscale>  0 0.27523720E+03</rscale>
<asrwt>0</asrwt>
<pdfrwt beam="1">  1        1 0.14656571E+00 0.27523720E+03</pdfrwt>
<pdfrwt beam="2">  1       -1 0.30584063E-02 0.27523720E+03</pdfrwt>
<totfact> 0.63631412E+03</totfact>
</mgrwt>
</event>
<event>
 9    1  0.2114844E-002  0.2778648E+03  0.7818608E-02  0.1096861E+00
         -2   -1    0    0    0  501 -0.00000000000E+00  0.00000000000E+00  0.16598039292E+02  0.16598039292E+02  0.00000000000E+00 0. -1.
          2   -1    0    0  501    0  0.00000000000E+00 -0.00000000000E+00 -0.11629215906E+04  0.11629215906E+04  0.00000000000E+00 0. -1.
         36    2    1    2    0    0  0.35527136788E-14  0.14210854715E-13 -0.11463235513E+04  0.11795196299E+04  0.27786484667E+03 0.  0.
         25    2    3    3    0    0 -0.17978464708E+02 -0.49787906709E+02 -0.68307086744E+03  0.69676100161E+03  0.12683856897E+03 0.  0.
         25    2    3    3    0    0  0.17978464708E+02  0.49787906709E+02 -0.46325268385E+03  0.48275862826E+03  0.12510309035E+03 0.  0.
          5    1    4    4  502    0  0.26859474545E+02  0.30798353707E+02 -0.14085444913E+03  0.14673798351E+03  0.47000000000E+01 0.  1.
         -5    1    4    4    0  502 -0.44837939253E+02 -0.80586260416E+02 -0.54221641831E+03  0.55002301811E+03  0.47000000000E+01 0.  1.
          5    1    5    5  503    0 -0.13103310614E+02  0.55722019791E+02 -0.81704454364E+02  0.99871658150E+02  0.47000000000E+01 0. -1.
         -5    1    5    5    0  503  0.31081775322E+02 -0.59341130826E+01 -0.38154822948E+03  0.38288697011E+03  0.47000000000E+01 0. -1.
<mgrwt>
<rscale>  0 0.27786485E+03</rscale>
<asrwt>0</asrwt>
<pdfrwt beam="1">  1        2 0.17891108E+00 0.27786485E+03</pdfrwt>
<pdfrwt beam="2">  1       -2 0.25535436E-02 0.27786485E+03</pdfrwt>
<totfact> 0.11289221E+04</totfact>
</mgrwt>
</event>
<event>
 9    1  0.2114844E-002  0.2747924E+03  0.7818608E-02  0.1098568E+00
         -2   -1    0    0    0  501 -0.00000000000E+00  0.00000000000E+00  0.17369584454E+03  0.17369584454E+03  0.00000000000E+00 0.  1.
          2   -1    0    0  501    0  0.00000000000E+00 -0.00000000000E+00 -0.10868257448E+03  0.10868257448E+03  0.00000000000E+00 0.  1.
         36    2    1    2    0    0 -0.17763568394E-14 -0.14210854715E-13  0.65013270063E+02  0.28237841902E+03  0.27479236934E+03 0.  0.
         25    2    3    3    0    0  0.14473642489E+02  0.60163943199E+02  0.33880909345E+02  0.14116175619E+03  0.12226830744E+03 0.  0.
         25    2    3    3    0    0 -0.14473642489E+02 -0.60163943199E+02  0.31132360719E+02  0.14121666283E+03  0.12305988619E+03 0.  0.
          5    1    4    4  502    0 -0.10849766748E+02 -0.33326340198E+02 -0.67854422562E+01  0.36006869013E+02  0.47000000000E+01 0. -1.
         -5    1    4    4    0  502  0.25323409237E+02  0.93490283397E+02  0.40666351601E+02  0.10515488718E+03  0.47000000000E+01 0. -1.
          5    1    5    5  503    0 -0.58855488288E+02 -0.70439339291E+02  0.19321743511E+02  0.93920651583E+02  0.47000000000E+01 0.  1.
         -5    1    5    5    0  503  0.44381845799E+02  0.10275396093E+02  0.11810617207E+02  0.47296011250E+02  0.47000000000E+01 0.  1.
<mgrwt>
<rscale>  0 0.27479237E+03</rscale>
<asrwt>0</asrwt>
<pdfrwt beam="1">  1        2 0.16720396E-01 0.27479237E+03</pdfrwt>
<pdfrwt beam="2">  1       -2 0.26722438E-01 0.27479237E+03</pdfrwt>
<totfact> 0.42946706E+03</totfact>
</mgrwt>
</event>
<event>
 9    1  0.2114844E-002  0.2734699E+03  0.7818608E-02  0.1099310E+00
         -3   -1    0    0    0  501 -0.00000000000E+00  0.00000000000E+00  0.24102484499E+02  0.24102484499E+02  0.00000000000E+00 0. -1.
          3   -1    0    0  501    0  0.00000000000E+00 -0.00000000000E+00 -0.77570641377E+03  0.77570641377E+03  0.00000000000E+00 0. -1.
         36    2    1    2    0    0  0.00000000000E+00  0.00000000000E+00 -0.75160392928E+03  0.79980889827E+03  0.27346993848E+03 0.  0.
         25    2    3    3    0    0 -0.28504151728E+02  0.14836162827E+02 -0.49471986250E+03  0.51207992835E+03  0.12824005722E+03 0.  0.
         25    2    3    3    0    0  0.28504151728E+02 -0.14836162827E+02 -0.25688406678E+03  0.28772896992E+03  0.12556248634E+03 0.  0.
          5    1    4    4  502    0 -0.57252542835E+02 -0.21906049838E+02 -0.12397880158E+03  0.13838555532E+03  0.47000000000E+01 0. -1.
         -5    1    4    4    0  502  0.28748391108E+02  0.36742212665E+02 -0.37074106091E+03  0.37369437303E+03  0.47000000000E+01 0. -1.
          5    1    5    5  503    0 -0.14830431504E+02  0.24625894754E+02 -0.56056360859E+01  0.29662932204E+02  0.47000000000E+01 0. -1.
         -5    1    5    5    0  503  0.43334583231E+02 -0.39462057581E+02 -0.25127843069E+03  0.25806603772E+03  0.47000000000E+01 0. -1.
<mgrwt>
<rscale>  0 0.27346994E+03</rscale>
<asrwt>0</asrwt>
<pdfrwt beam="1">  1        3 0.11933943E+00 0.27346994E+03</pdfrwt>
<pdfrwt beam="2">  1       -3 0.37080752E-02 0.27346994E+03</pdfrwt>
<totfact> 0.55697682E+02</totfact>
</mgrwt>
</event>
<event>
 9    1  0.2114844E-002  0.2743910E+03  0.7818608E-02  0.1098792E+00
          2   -1    0    0  501    0  0.00000000000E+00  0.00000000000E+00  0.10546032728E+04  0.10546032728E+04  0.00000000000E+00 0.  1.
         -2   -1    0    0    0  501 -0.00000000000E+00 -0.00000000000E+00 -0.17848046580E+02  0.17848046580E+02  0.00000000000E+00 0.  1.
         36    2    1    2    0    0  0.00000000000E+00 -0.35527136788E-14  0.10367552262E+04  0.10724513194E+04  0.27439102271E+03 0.  0.
         25    2    3    3    0    0 -0.16977666175E+02 -0.23501857333E+02  0.35651618085E+03  0.38077628179E+03  0.13056113940E+03 0.  0.
         25    2    3    3    0    0  0.16977666175E+02  0.23501857333E+02  0.68023904535E+03  0.69167503756E+03  0.12185491508E+03 0.  0.
          5    1    4    4  502    0 -0.60731783387E+02  0.25641440223E+02  0.20854540257E+03  0.21876724596E+03  0.47000000000E+01 0. -1.
         -5    1    4    4    0  502  0.43754117212E+02 -0.49143297556E+02  0.14797077828E+03  0.16200903583E+03  0.47000000000E+01 0. -1.
          5    1    5    5  503    0  0.16094778965E+02  0.37924352740E+02  0.70817080608E+02  0.82063678607E+02  0.47000000000E+01 0.  1.
         -5    1    5    5    0  503  0.88288720980E+00 -0.14422495407E+02  0.60942196474E+03  0.60961135896E+03  0.47000000000E+01 0.  1.
<mgrwt>
<rscale>  0 0.27439102E+03</rscale>
<asrwt>0</asrwt>
<pdfrwt beam="1">  1        2 0.16224661E+00 0.27439102E+03</pdfrwt>
<pdfrwt beam="2">  1       -2 0.27458541E-02 0.27439102E+03</pdfrwt>
<totfact> 0.11727772E+04</totfact>
</mgrwt>
</event>
<event>
 9    1  0.2114844E-002  0.2709339E+03  0.7818608E-02  0.1100746E+00
         -1   -1    0    0    0  501 -0.00000000000E+00  0.00000000000E+00  0.10913888667E+04  0.10913888667E+04  0.00000000000E+00 0. -1.
          1   -1    0    0  501    0  0.00000000000E+00 -0.00000000000E+00 -0.16814628011E+02  0.16814628011E+02  0.00000000000E+00 0. -1.
         36    2    1    2    0    0 -0.71054273576E-14 -0.35527136788E-14  0.10745742387E+04  0.11082034947E+04  0.27093392412E+03 0.  0.
         25    2    3    3    0    0  0.57980997439E+02  0.17781188796E+02  0.63983402965E+03  0.65181841417E+03  0.10863559643E+03 0.  0.
         25    2    3    3    0    0 -0.57980997439E+02 -0.17781188796E+02  0.43474020903E+03  0.45638508054E+03  0.12494128880E+03 0.  0.
          5    1    4    4  502    0  0.31528839753E+02 -0.13121802888E+02  0.50972459698E+02  0.61534795806E+02  0.47000000000E+01 0. -1.
         -5    1    4    4    0  502  0.26452157686E+02  0.30902991684E+02  0.58886156995E+03  0.59028361837E+03  0.47000000000E+01 0. -1.
          5    1    5    5  503    0 -0.11556233066E+02 -0.49085665017E+02  0.65010485954E+02  0.82409964912E+02  0.47000000000E+01 0.  1.
         -5    1    5    5    0  503 -0.46424764373E+02  0.31304476221E+02  0.36972972308E+03  0.37397511562E+03  0.47000000000E+01 0.  1.
<mgrwt>
<rscale>  0 0.27093392E+03</rscale>
<asrwt>0</asrwt>
<pdfrwt beam="1">  1        1 0.25868667E-02 0.27093392E+03</pdfrwt>
<pdfrwt beam="2">  1       -1 0.16790592E+00 0.27093392E+03</pdfrwt>
<totfact> 0.11700958E+03</totfact>
</mgrwt>
</event>
<event>
 9    1  0.2114844E-002  0.2741689E+03  0.7818608E-02  0.1098917E+00
         -1   -1    0    0    0  501 -0.00000000000E+00  0.00000000000E+00  0.15599943017E+02  0.15599943017E+02  0.00000000000E+00 0. -1.
          1   -1    0    0  501    0  0.00000000000E+00 -0.00000000000E+00 -0.12046291746E+04  0.12046291746E+04  0.00000000000E+00 0. -1.
         36    2    1    2    0    0  0.35527136788E-14 -0.35527136788E-14 -0.11890292316E+04  0.12202291176E+04  0.27416890035E+03 0.  0.
         25    2    3    3    0    0 -0.24163253658E+02 -0.86840420930E+01 -0.80472936203E+03  0.81488139986E+03  0.12563070612E+03 0.  0.
         25    2    3    3    0    0  0.24163253658E+02  0.86840420930E+01 -0.38429986954E+03  0.40534771773E+03  0.12633727531E+03 0.  0.
          5    1    4    4  502    0 -0.83603549331E+01  0.72600195968E+01 -0.78361362426E+03  0.78370594329E+03  0.47000000000E+01 0. -1.
         -5    1    4    4    0  502 -0.15802898725E+02 -0.15944061690E+02 -0.21115737770E+02  0.31175456578E+02  0.47000000000E+01 0. -1.
          5    1    5    5  503    0 -0.33360366658E+02  0.46119329128E+02 -0.13176550795E+03  0.14361109173E+03  0.47000000000E+01 0. -1.
         -5    1    5    5    0  503  0.57523620316E+02 -0.37435287035E+02 -0.25253436158E+03  0.26173662600E+03  0.47000000000E+01 0. -1.
<mgrwt>
<rscale>  0 0.27416890E+03</rscale>
<asrwt>0</asrwt>
<pdfrwt beam="1">  1        1 0.18532758E+00 0.27416890E+03</pdfrwt>
<pdfrwt beam="2">  1       -1 0.23999911E-02 0.27416890E+03</pdfrwt>
<totfact> 0.59591772E+03</totfact>
</mgrwt>
</event>
<event>
 9    1  0.2114844E-002  0.2769230E+03  0.7818608E-02  0.1097381E+00
         -2   -1    0    0    0  501 -0.00000000000E+00  0.00000000000E+00  0.88663582830E+01  0.88663582830E+01  0.00000000000E+00 0.  1.
          2   -1    0    0  501    0  0.00000000000E+00 -0.00000000000E+00 -0.21622842800E+04  0.21622842800E+04  0.00000000000E+00 0.  1.
         36    2    1    2    0    0 -0.14210854715E-13  0.35527136788E-14 -0.21534179217E+04  0.21711506383E+04  0.27692300111E+03 0.  0.
         25    2    3    3    0    0  0.67723191785E+02 -0.17330702271E+02 -0.10133628032E+04  0.10228991343E+04  0.12054743557E+03 0.  0.
         25    2    3    3    0    0 -0.67723191785E+02  0.17330702271E+02 -0.11400551186E+04  0.11482515040E+04  0.11776696928E+03 0.  0.
          5    1    4    4  502    0  0.18820199390E+02 -0.44531031473E+02 -0.14906718019E+03  0.15678114325E+03  0.47000000000E+01 0. -1.
         -5    1    4    4    0  502  0.48902992396E+02  0.27200329202E+02 -0.86429562297E+03  0.86611799107E+03  0.47000000000E+01 0. -1.
          5    1    5    5  503    0  0.22410818984E+02 -0.14947951934E+02 -0.96392561374E+02  0.10019631711E+03  0.47000000000E+01 0. -1.
         -5    1    5    5    0  503 -0.90134010769E+02  0.32278654205E+02 -0.10436625572E+04  0.10480551869E+04  0.47000000000E+01 0. -1.
<mgrwt>
<rscale>  0 0.27692300E+03</rscale>
<asrwt>0</asrwt>
<pdfrwt beam="1">  1        2 0.33265933E+00 0.27692300E+03</pdfrwt>
<pdfrwt beam="2">  1       -2 0.13640543E-02 0.27692300E+03</pdfrwt>
<totfact> 0.82680010E+03</totfact>
</mgrwt>
</event>
<event>
 9    1  0.2114844E-002  0.2747613E+03  0.7818608E-02  0.1098585E+00
         -1   -1    0    0    0  501 -0.00000000000E+00  0.00000000000E+00  0.18102356188E+02  0.18102356188E+02  0.00000000000E+00 0.  1.
          1   -1    0    0  501    0  0.00000000000E+00 -0.00000000000E+00 -0.10425960407E+04  0.10425960407E+04  0.00000000000E+00 0.  1.
         36    2    1    2    0    0  0.88817841970E-15  0.00000000000E+00 -0.10244936845E+04  0.10606983969E+04  0.27476131380E+03 0.  0.
         25    2    3    3    0    0  0.14329448526E+01 -0.58355943154E+02 -0.46483308967E+03  0.48399841478E+03  0.12156148576E+03 0.  0.
         25    2    3    3    0    0 -0.14329448526E+01  0.58355943154E+02 -0.55966059487E+03  0.57669998214E+03  0.12631475970E+03 0.  0.
          5    1    4    4  502    0 -0.40016602017E+01  0.34218274854E+02 -0.20821635338E+03  0.21109960547E+03  0.47000000000E+01 0.  1.
         -5    1    4    4    0  502  0.54346050543E+01 -0.92574218008E+02 -0.25661673629E+03  0.27289880930E+03  0.47000000000E+01 0.  1.
          5    1    5    5  503    0 -0.31068050414E-01  0.93991804632E+02 -0.29609152184E+03  0.31068752728E+03  0.47000000000E+01 0.  1.
         -5    1    5    5    0  503 -0.14018768022E+01 -0.35635861478E+02 -0.26356907303E+03  0.26601245486E+03  0.47000000000E+01 0.  1.
<mgrwt>
<rscale>  0 0.27476131E+03</rscale>
<asrwt>0</asrwt>
<pdfrwt beam="1">  1        1 0.16039944E+00 0.27476131E+03</pdfrwt>
<pdfrwt beam="2">  1       -1 0.27849770E-02 0.27476131E+03</pdfrwt>
<totfact> 0.62548756E+03</totfact>
</mgrwt>
</event>
<event>
 9    1  0.2114844E-002  0.2762701E+03  0.7818608E-02  0.1097744E+00
         -2   -1    0    0    0  501 -0.00000000000E+00  0.00000000000E+00  0.16802756775E+02  0.16802756775E+02  0.00000000000E+00 0. -1.
          2   -1    0    0  501    0  0.00000000000E+00 -0.00000000000E+00 -0.11356048851E+04  0.11356048851E+04  0.00000000000E+00 0. -1.
         36    2    1    2    0    0 -0.71054273576E-14  0.00000000000E+00 -0.11188021283E+04  0.11524076419E+04  0.27627010462E+03 0.  0.
         25    2    3    3    0    0  0.68819532706E+01  0.54309777720E+02 -0.53853077230E+03  0.55548763848E+03  0.12471652076E+03 0.  0.
         25    2    3    3    0    0 -0.68819532706E+01 -0.54309777720E+02 -0.58027135605E+03  0.59692000342E+03  0.12884770310E+03 0.  0.
          5    1    4    4  502    0  0.36326932036E+02  0.45423929946E+02 -0.50982858707E+03  0.51315714708E+03  0.47000000000E+01 0. -1.
         -5    1    4    4    0  502 -0.29444978766E+02  0.88858477742E+01 -0.28702185227E+02  0.42330491398E+02  0.47000000000E+01 0. -1.
          5    1    5    5  503    0 -0.63786617732E+02 -0.27245415838E+02 -0.39751377747E+03  0.40354719497E+03  0.47000000000E+01 0. -1.
         -5    1    5    5    0  503  0.56904664461E+02 -0.27064361882E+02 -0.18275757857E+03  0.19337280845E+03  0.47000000000E+01 0. -1.
<mgrwt>
<rscale>  0 0.27627010E+03</rscale>
<asrwt>0</asrwt>
<pdfrwt beam="1">  1        2 0.17470839E+00 0.27627010E+03</pdfrwt>
<pdfrwt beam="2">  1       -2 0.25850402E-02 0.27627010E+03</pdfrwt>
<totfact> 0.11494292E+04</totfact>
</mgrwt>
</event>
<event>
 9    1  0.2114844E-002  0.2729713E+03  0.7818608E-02  0.1099591E+00
         -2   -1    0    0    0  501 -0.00000000000E+00  0.00000000000E+00  0.57012557848E+02  0.57012557848E+02  0.00000000000E+00 0. -1.
          2   -1    0    0  501    0  0.00000000000E+00 -0.00000000000E+00 -0.32674094247E+03  0.32674094247E+03  0.00000000000E+00 0. -1.
         36    2    1    2    0    0  0.71054273576E-14  0.00000000000E+00 -0.26972838462E+03  0.38375350032E+03  0.27297133098E+03 0.  0.
         25    2    3    3    0    0 -0.57618649061E+02  0.26805168137E+02 -0.95933700578E+02  0.16085274971E+03  0.11239175426E+03 0.  0.
         25    2    3    3    0    0  0.57618649061E+02 -0.26805168137E+02 -0.17379468405E+03  0.22290075061E+03  0.12426474424E+03 0.  0.
          5    1    4    4  502    0 -0.43519411014E+01  0.17508870878E+02  0.23303550928E+02  0.29843683362E+02  0.47000000000E+01 0.  1.
         -5    1    4    4    0  502 -0.53266707960E+02  0.92962972588E+01 -0.11923725151E+03  0.13100906635E+03  0.47000000000E+01 0.  1.
          5    1    5    5  503    0 -0.29964942727E+02  0.17887391418E+02 -0.77828651589E+02  0.85423916865E+02  0.47000000000E+01 0. -1.
         -5    1    5    5    0  503  0.87583591789E+02 -0.44692559555E+02 -0.95966032457E+02  0.13747683374E+03  0.47000000000E+01 0. -1.
<mgrwt>
<rscale>  0 0.27297133E+03</rscale>
<asrwt>0</asrwt>
<pdfrwt beam="1">  1        2 0.50267838E-01 0.27297133E+03</pdfrwt>
<pdfrwt beam="2">  1       -2 0.87711626E-02 0.27297133E+03</pdfrwt>
<totfact> 0.80829529E+03</totfact>
</mgrwt>
</event>
<event>
 9    1  0.2114844E-002  0.2748900E+03  0.7818608E-02  0.1098513E+00
          1   -1    0    0  501    0  0.00000000000E+00  0.00000000000E+00  0.51561994977E+03  0.51561994977E+03  0.00000000000E+00 0. -1.
         -1   -1    0    0    0  501 -0.00000000000E+00 -0.00000000000E+00 -0.36637686112E+02  0.36637686112E+02  0.00000000000E+00 0. -1.
         36    2    1    2    0    0  0.71054273576E-14  0.00000000000E+00  0.47898226366E+03  0.55225763588E+03  0.27488995524E+03 0.  0.
         25    2    3    3    0    0  0.19993145196E+02  0.38164955803E+02  0.16748268896E+03  0.21402761576E+03  0.12609948255E+03 0.  0.
         25    2    3    3    0    0 -0.19993145196E+02 -0.38164955803E+02  0.31149957469E+03  0.33823002012E+03  0.12454425626E+03 0.  0.
          5    1    4    4  502    0 -0.39064794775E+02 -0.24382110236E+02  0.47555845552E+02  0.66364101263E+02  0.47000000000E+01 0. -1.
         -5    1    4    4    0  502  0.59057939971E+02  0.62547066039E+02  0.11992684341E+03  0.14766351450E+03  0.47000000000E+01 0. -1.
          5    1    5    5  503    0 -0.64445050965E+02  0.51144912427E+01  0.11373018961E+03  0.13090442561E+03  0.47000000000E+01 0. -1.
         -5    1    5    5    0  503  0.44451905768E+02 -0.43279447046E+02  0.19776938508E+03  0.20732559451E+03  0.47000000000E+01 0. -1.
<mgrwt>
<rscale>  0 0.27488996E+03</rscale>
<asrwt>0</asrwt>
<pdfrwt beam="1">  1        1 0.79326141E-01 0.27488996E+03</pdfrwt>
<pdfrwt beam="2">  1       -1 0.56365675E-02 0.27488996E+03</pdfrwt>
<totfact> 0.63340218E+03</totfact>
</mgrwt>
</event>
<event>
 9    1  0.2114844E-002  0.2768916E+03  0.7818608E-02  0.1097399E+00
         -2   -1    0    0    0  501 -0.00000000000E+00  0.00000000000E+00  0.18293681804E+02  0.18293681804E+02  0.00000000000E+00 0. -1.
          2   -1    0    0  501    0  0.00000000000E+00 -0.00000000000E+00 -0.10477522557E+04  0.10477522557E+04  0.00000000000E+00 0. -1.
         36    2    1    2    0    0  0.00000000000E+00 -0.35527136788E-14 -0.10294585739E+04  0.10660459375E+04  0.27689164938E+03 0.  0.
         25    2    3    3    0    0 -0.32544649300E+02 -0.29528999622E+02 -0.35067282168E+03  0.37415933419E+03  0.12285220176E+03 0.  0.
         25    2    3    3    0    0  0.32544649300E+02  0.29528999622E+02 -0.67878575220E+03  0.69188660330E+03  0.12659327953E+03 0.  0.
          5    1    4    4  502    0 -0.70941812482E+02 -0.38581501073E+02 -0.15878888341E+03  0.17820570271E+03  0.47000000000E+01 0. -1.
         -5    1    4    4    0  502  0.38397163183E+02  0.90525014513E+01 -0.19188393828E+03  0.19595363148E+03  0.47000000000E+01 0. -1.
          5    1    5    5  503    0 -0.36771322875E+01 -0.24294700351E+02 -0.26791066844E+02  0.36655218313E+02  0.47000000000E+01 0. -1.
         -5    1    5    5    0  503  0.36221781587E+02  0.53823699972E+02 -0.65199468535E+03  0.65523138498E+03  0.47000000000E+01 0. -1.
<mgrwt>
<rscale>  0 0.27689165E+03</rscale>
<asrwt>0</asrwt>
<pdfrwt beam="1">  1        2 0.16119266E+00 0.27689165E+03</pdfrwt>
<pdfrwt beam="2">  1       -2 0.28144125E-02 0.27689165E+03</pdfrwt>
<totfact> 0.11416621E+04</totfact>
</mgrwt>
</event>
<event>
 9    1  0.2114844E-002  0.2752636E+03  0.7818608E-02  0.1098304E+00
         -2   -1    0    0    0  501 -0.00000000000E+00  0.00000000000E+00  0.26273126365E+03  0.26273126365E+03  0.00000000000E+00 0.  1.
          2   -1    0    0  501    0  0.00000000000E+00 -0.00000000000E+00 -0.72098442392E+02  0.72098442392E+02  0.00000000000E+00 0.  1.
         36    2    1    2    0    0  0.00000000000E+00  0.14210854715E-13  0.19063282126E+03  0.33482970604E+03  0.27526361821E+03 0.  0.
         25    2    3    3    0    0 -0.20202226643E+02  0.52927383483E+02  0.96850135082E+02  0.16755995278E+03  0.12444657981E+03 0.  0.
         25    2    3    3    0    0  0.20202226643E+02 -0.52927383483E+02  0.93782686176E+02  0.16726975326E+03  0.12639042783E+03 0.  0.
          5    1    4    4  502    0 -0.22682437048E+02 -0.35613352954E+02  0.54959700985E+02  0.69465549673E+02  0.47000000000E+01 0. -1.
         -5    1    4    4    0  502  0.24802104050E+01  0.88540736437E+02  0.41890434097E+02  0.98094403109E+02  0.47000000000E+01 0. -1.
          5    1    5    5  503    0  0.66018407594E+02 -0.37725789578E+02  0.19640996475E+02  0.78673528477E+02  0.47000000000E+01 0.  1.
         -5    1    5    5    0  503 -0.45816180951E+02 -0.15201593904E+02  0.74141689701E+02  0.88596224784E+02  0.47000000000E+01 0.  1.
<mgrwt>
<rscale>  0 0.27526362E+03</rscale>
<asrwt>0</asrwt>
<pdfrwt beam="1">  1        2 0.11092068E-01 0.27526362E+03</pdfrwt>
<pdfrwt beam="2">  1       -2 0.40420194E-01 0.27526362E+03</pdfrwt>
<totfact> 0.32736291E+03</totfact>
</mgrwt>
</event>
<event>
 9    1  0.2114844E-002  0.2756628E+03  0.7818608E-02  0.1098082E+00
         -2   -1    0    0    0  501 -0.00000000000E+00  0.00000000000E+00  0.93409839457E+01  0.93409839457E+01  0.00000000000E+00 0.  1.
          2   -1    0    0  501    0  0.00000000000E+00 -0.00000000000E+00 -0.20337781277E+04  0.20337781277E+04  0.00000000000E+00 0.  1.
         36    2    1    2    0    0 -0.71054273576E-14 -0.71054273576E-14 -0.20244371437E+04  0.20431191116E+04  0.27566275657E+03 0.  0.
         25    2    3    3    0    0 -0.29515936660E+02  0.25728500771E+02 -0.85328612084E+03  0.86490603005E+03  0.13576483538E+03 0.  0.
         25    2    3    3    0    0  0.29515936660E+02 -0.25728500771E+02 -0.11711510229E+04  0.11782130816E+04  0.12271186131E+03 0.  0.
          5    1    4    4  502    0 -0.18762078560E+02 -0.42465374943E+02 -0.12647719112E+03  0.13481058391E+03  0.47000000000E+01 0.  1.
         -5    1    4    4    0  502 -0.10753858100E+02  0.68193875714E+02 -0.72680892972E+03  0.73009544614E+03  0.47000000000E+01 0.  1.
          5    1    5    5  503    0  0.65698799467E+02  0.63033873681E+00 -0.37136924267E+03  0.37716565854E+03  0.47000000000E+01 0. -1.
         -5    1    5    5    0  503 -0.36182862807E+02 -0.26358839508E+02 -0.79978178021E+03  0.80104742302E+03  0.47000000000E+01 0. -1.
<mgrwt>
<rscale>  0 0.27566276E+03</rscale>
<asrwt>0</asrwt>
<pdfrwt beam="1">  1        2 0.31288902E+00 0.27566276E+03</pdfrwt>
<pdfrwt beam="2">  1       -2 0.14370741E-02 0.27566276E+03</pdfrwt>
<totfact> 0.89583366E+03</totfact>
</mgrwt>
</event>
<event>
 9    1  0.2114844E-002  0.2753454E+03  0.7818608E-02  0.1098259E+00
          1   -1    0    0  501    0  0.00000000000E+00  0.00000000000E+00  0.21669246503E+03  0.21669246503E+03  0.00000000000E+00 0.  1.
         -1   -1    0    0    0  501 -0.00000000000E+00 -0.00000000000E+00 -0.87468529039E+02  0.87468529039E+02  0.00000000000E+00 0.  1.
         36    2    1    2    0    0 -0.35527136788E-14 -0.71054273576E-14  0.12922393599E+03  0.30416099407E+03  0.27534539161E+03 0.  0.
         25    2    3    3    0    0  0.69179904725E+01 -0.45411942428E+02  0.28944846252E+02  0.13790140720E+03  0.12676312901E+03 0.  0.
         25    2    3    3    0    0 -0.69179904725E+01  0.45411942428E+02  0.10027908974E+03  0.16625958687E+03  0.12440358226E+03 0.  0.
          5    1    4    4  502    0 -0.54587889608E+02 -0.16306858486E+02 -0.11913253196E+02  0.58393209599E+02  0.47000000000E+01 0.  1.
         -5    1    4    4    0  502  0.61505880080E+02 -0.29105083942E+02  0.40858099448E+02  0.79508197604E+02  0.47000000000E+01 0.  1.
          5    1    5    5  503    0 -0.33786234456E+02  0.68436153202E+02  0.10538240074E+03  0.13020198573E+03  0.47000000000E+01 0.  1.
         -5    1    5    5    0  503  0.26868243984E+02 -0.23024210774E+02 -0.51033109953E+01  0.36057601135E+02  0.47000000000E+01 0.  1.
<mgrwt>
<rscale>  0 0.27534539E+03</rscale>
<asrwt>0</asrwt>
<pdfrwt beam="1">  1        1 0.33337302E-01 0.27534539E+03</pdfrwt>
<pdfrwt beam="2">  1       -1 0.13456697E-01 0.27534539E+03</pdfrwt>
<totfact> 0.50267588E+03</totfact>
</mgrwt>
</event>
<event>
 9    1  0.2114844E-002  0.2754824E+03  0.7818608E-02  0.1098182E+00
          4   -1    0    0  501    0  0.00000000000E+00  0.00000000000E+00  0.14010269686E+03  0.14010269686E+03  0.00000000000E+00 0.  1.
         -4   -1    0    0    0  501 -0.00000000000E+00 -0.00000000000E+00 -0.13541947853E+03  0.13541947853E+03  0.00000000000E+00 0.  1.
         36    2    1    2    0    0 -0.71054273576E-14  0.71054273576E-14  0.46832183331E+01  0.27552217539E+03  0.27548237076E+03 0.  0.
         25    2    3    3    0    0 -0.99307206356E+01 -0.38471897342E+02 -0.54590707628E+02  0.13270649408E+03  0.11424605951E+03 0.  0.
         25    2    3    3    0    0  0.99307206356E+01  0.38471897342E+02  0.59273925961E+02  0.14281568132E+03  0.12371020343E+03 0.  0.
          5    1    4    4  502    0  0.39061544445E+02 -0.39488160028E+02 -0.61492654609E+02  0.82997322895E+02  0.47000000000E+01 0.  1.
         -5    1    4    4    0  502 -0.48992265081E+02  0.10162626858E+01  0.69019469807E+01  0.49709171183E+02  0.47000000000E+01 0.  1.
          5    1    5    5  503    0  0.21470338838E+02  0.24671154733E+02 -0.34174448449E+02  0.47535505177E+02  0.47000000000E+01 0.  1.
         -5    1    5    5    0  503 -0.11539618202E+02  0.13800742609E+02  0.93448374411E+02  0.95280176138E+02  0.47000000000E+01 0.  1.
<mgrwt>
<rscale>  0 0.27548237E+03</rscale>
<asrwt>0</asrwt>
<pdfrwt beam="1">  1        4 0.21554261E-01 0.27548237E+03</pdfrwt>
<pdfrwt beam="2">  1       -4 0.20833766E-01 0.27548237E+03</pdfrwt>
<totfact> 0.77380641E+02</totfact>
</mgrwt>
</event>
<event>
 9    1  0.2114844E-002  0.2782919E+03  0.7818608E-02  0.1096626E+00
         -2   -1    0    0    0  501 -0.00000000000E+00  0.00000000000E+00  0.11700788580E+02  0.11700788580E+02  0.00000000000E+00 0.  1.
          2   -1    0    0  501    0  0.00000000000E+00 -0.00000000000E+00 -0.16547257132E+04  0.16547257132E+04  0.00000000000E+00 0.  1.
         36    2    1    2    0    0  0.00000000000E+00  0.00000000000E+00 -0.16430249246E+04  0.16664265018E+04  0.27829190234E+03 0.  0.
         25    2    3    3    0    0 -0.13543806664E+02 -0.21403708096E+02 -0.44779956576E+03  0.46561745860E+03  0.12503444822E+03 0.  0.
         25    2    3    3    0    0  0.13543806664E+02  0.21403708096E+02 -0.11952253589E+04  0.12008090432E+04  0.11285896638E+03 0.  0.
          5    1    4    4  502    0  0.55746398375E+02 -0.13213945510E+02 -0.19048262349E+03  0.19896730671E+03  0.47000000000E+01 0. -1.
         -5    1    4    4    0  502 -0.69290205039E+02 -0.81897625852E+01 -0.25731694227E+03  0.26665015190E+03  0.47000000000E+01 0. -1.
          5    1    5    5  503    0 -0.98197514910E+01  0.60582275563E+02 -0.45220826302E+03  0.45637817956E+03  0.47000000000E+01 0. -1.
         -5    1    5    5    0  503  0.23363558155E+02 -0.39178567468E+02 -0.74301709585E+03  0.74443086363E+03  0.47000000000E+01 0. -1.
<mgrwt>
<rscale>  0 0.27829190E+03</rscale>
<asrwt>0</asrwt>
<pdfrwt beam="1">  1        2 0.25457297E+00 0.27829190E+03</pdfrwt>
<pdfrwt beam="2">  1       -2 0.18001229E-02 0.27829190E+03</pdfrwt>
<totfact> 0.10192476E+04</totfact>
</mgrwt>
</event>
<event>
 9    1  0.2114844E-002  0.2749586E+03  0.7818608E-02  0.1098475E+00
          1   -1    0    0  501    0  0.00000000000E+00  0.00000000000E+00  0.74660059447E+03  0.74660059447E+03  0.00000000000E+00 0.  1.
         -1   -1    0    0    0  501 -0.00000000000E+00 -0.00000000000E+00 -0.25315485188E+02  0.25315485188E+02  0.00000000000E+00 0.  1.
         36    2    1    2    0    0  0.00000000000E+00  0.00000000000E+00  0.72128510928E+03  0.77191607966E+03  0.27495858809E+03 0.  0.
         25    2    3    3    0    0  0.36478185107E+02  0.17875464206E+02  0.43796638473E+03  0.45936505660E+03  0.13248211527E+03 0.  0.
         25    2    3    3    0    0 -0.36478185107E+02 -0.17875464206E+02  0.28331872455E+03  0.31255102305E+03  0.12557249747E+03 0.  0.
          5    1    4    4  502    0  0.49786378202E+02  0.34901572161E+02  0.79394546014E+02  0.10011187307E+03  0.47000000000E+01 0. -1.
         -5    1    4    4    0  502 -0.13308193094E+02 -0.17026107955E+02  0.35857183872E+03  0.35925318353E+03  0.47000000000E+01 0. -1.
          5    1    5    5  503    0 -0.17205707677E+02  0.52796463101E+02  0.15509936019E+03  0.16480717346E+03  0.47000000000E+01 0.  1.
         -5    1    5    5    0  503 -0.19272477430E+02 -0.70671927307E+02  0.12821936437E+03  0.14774384960E+03  0.47000000000E+01 0.  1.
<mgrwt>
<rscale>  0 0.27495859E+03</rscale>
<asrwt>0</asrwt>
<pdfrwt beam="1">  1        1 0.11486161E+00 0.27495859E+03</pdfrwt>
<pdfrwt beam="2">  1       -1 0.38946906E-02 0.27495859E+03</pdfrwt>
<totfact> 0.65385168E+03</totfact>
</mgrwt>
</event>
<event>
 9    1  0.2114844E-002  0.2729814E+03  0.7818608E-02  0.1099585E+00
          2   -1    0    0  501    0  0.00000000000E+00  0.00000000000E+00  0.38522109631E+02  0.38522109631E+02  0.00000000000E+00 0.  1.
         -2   -1    0    0    0  501 -0.00000000000E+00 -0.00000000000E+00 -0.48361080927E+03  0.48361080927E+03  0.00000000000E+00 0.  1.
         36    2    1    2    0    0  0.35527136788E-14  0.00000000000E+00 -0.44508869964E+03  0.52213291890E+03  0.27298138115E+03 0.  0.
         25    2    3    3    0    0 -0.27783662864E+02 -0.46033547440E+02 -0.25462491326E+03  0.28795875527E+03  0.12326953747E+03 0.  0.
         25    2    3    3    0    0  0.27783662864E+02  0.46033547440E+02 -0.19046378638E+03  0.23417416364E+03  0.12518013254E+03 0.  0.
          5    1    4    4  502    0 -0.26598436705E+02  0.39488793137E+02 -0.10845233409E+03  0.11853624082E+03  0.47000000000E+01 0.  1.
         -5    1    4    4    0  502 -0.11852261595E+01 -0.85522340576E+02 -0.14617257918E+03  0.16942251445E+03  0.47000000000E+01 0.  1.
          5    1    5    5  503    0  0.24919535185E+02  0.66010040248E+02 -0.19943069965E+03  0.21159631994E+03  0.47000000000E+01 0. -1.
         -5    1    5    5    0  503  0.28641276788E+01 -0.19976492809E+02  0.89669132771E+01  0.22577843697E+02  0.47000000000E+01 0. -1.
<mgrwt>
<rscale>  0 0.27298138E+03</rscale>
<asrwt>0</asrwt>
<pdfrwt beam="1">  1        2 0.59264784E-02 0.27298138E+03</pdfrwt>
<pdfrwt beam="2">  1       -2 0.74401663E-01 0.27298138E+03</pdfrwt>
<totfact> 0.20929838E+03</totfact>
</mgrwt>
</event>
<event>
 9    1  0.2114844E-002  0.2752756E+03  0.7818608E-02  0.1098298E+00
          2   -1    0    0  501    0  0.00000000000E+00  0.00000000000E+00  0.28497368565E+04  0.28497368565E+04  0.00000000000E+00 0. -1.
         -2   -1    0    0    0  501 -0.00000000000E+00 -0.00000000000E+00 -0.66476912082E+01  0.66476912082E+01  0.00000000000E+00 0. -1.
         36    2    1    2    0    0 -0.14210854715E-13  0.35527136788E-14  0.28430891653E+04  0.28563845477E+04  0.27527564837E+03 0.  0.
         25    2    3    3    0    0  0.40232695582E+02 -0.36727794274E+01  0.94853599412E+03  0.95718876965E+03  0.12189195832E+03 0.  0.
         25    2    3    3    0    0 -0.40232695582E+02  0.36727794274E+01  0.18945531712E+04  0.18991957781E+04  0.12641489583E+03 0.  0.
          5    1    4    4  502    0  0.65473681677E+02  0.18485633503E+02  0.85462530553E+03  0.85734183643E+03  0.47000000000E+01 0.  1.
         -5    1    4    4    0  502 -0.25240986095E+02 -0.22158412931E+02  0.93910688590E+02  0.99846933223E+02  0.47000000000E+01 0.  1.
          5    1    5    5  503    0 -0.51072675457E+02 -0.52929605331E+02  0.11855117456E+04  0.11878005515E+04  0.47000000000E+01 0.  1.
         -5    1    5    5    0  503  0.10839979876E+02  0.56602384759E+02  0.70904142566E+03  0.71139522659E+03  0.47000000000E+01 0.  1.
<mgrwt>
<rscale>  0 0.27527565E+03</rscale>
<asrwt>0</asrwt>
<pdfrwt beam="1">  1        2 0.43842008E+00 0.27527565E+03</pdfrwt>
<pdfrwt beam="2">  1       -2 0.10227240E-02 0.27527565E+03</pdfrwt>
<totfact> 0.52640099E+03</totfact>
</mgrwt>
</event>
<event>
 9    1  0.2114844E-002  0.2743760E+03  0.7818608E-02  0.1098801E+00
          3   -1    0    0  501    0  0.00000000000E+00  0.00000000000E+00  0.56558897734E+02  0.56558897734E+02  0.00000000000E+00 0. -1.
         -3   -1    0    0    0  501 -0.00000000000E+00 -0.00000000000E+00 -0.33276013740E+03  0.33276013740E+03  0.00000000000E+00 0. -1.
         36    2    1    2    0    0  0.00000000000E+00  0.00000000000E+00 -0.27620123967E+03  0.38931903513E+03  0.27437599444E+03 0.  0.
         25    2    3    3    0    0 -0.49631840401E+02 -0.17834906661E+02 -0.90046423732E+02  0.16155649346E+03  0.12333182345E+03 0.  0.
         25    2    3    3    0    0  0.49631840401E+02  0.17834906661E+02 -0.18615481594E+03  0.22776254167E+03  0.12016969841E+03 0.  0.
          5    1    4    4  502    0 -0.31780915702E+02  0.38214614743E+02 -0.89569617191E+02  0.10254359905E+03  0.47000000000E+01 0.  1.
         -5    1    4    4    0  502 -0.17850924700E+02 -0.56049521404E+02 -0.47680654010E+00  0.59012894411E+02  0.47000000000E+01 0.  1.
          5    1    5    5  503    0  0.54878310803E+02  0.44909790332E+02 -0.45574069557E+02  0.84425138912E+02  0.47000000000E+01 0. -1.
         -5    1    5    5    0  503 -0.52464704021E+01 -0.27074883671E+02 -0.14058074638E+03  0.14333740276E+03  0.47000000000E+01 0. -1.
<mgrwt>
<rscale>  0 0.27437599E+03</rscale>
<asrwt>0</asrwt>
<pdfrwt beam="1">  1        3 0.87013689E-02 0.27437599E+03</pdfrwt>
<pdfrwt beam="2">  1       -3 0.51193867E-01 0.27437599E+03</pdfrwt>
<totfact> 0.89955671E+02</totfact>
</mgrwt>
</event>
<event>
 9    1  0.2114844E-002  0.2779457E+03  0.7818608E-02  0.1096816E+00
         -2   -1    0    0    0  501 -0.00000000000E+00  0.00000000000E+00  0.91080842842E+01  0.91080842842E+01  0.00000000000E+00 0.  1.
          2   -1    0    0  501    0  0.00000000000E+00 -0.00000000000E+00 -0.21204730727E+04  0.21204730727E+04  0.00000000000E+00 0.  1.
         36    2    1    2    0    0 -0.17763568394E-14 -0.71054273576E-14 -0.21113649884E+04  0.21295811570E+04  0.27794565993E+03 0.  0.
         25    2    3    3    0    0 -0.55621504176E+01 -0.59398663370E+02 -0.91374025552E+03  0.92375749016E+03  0.12185034813E+03 0.  0.
         25    2    3    3    0    0  0.55621504176E+01  0.59398663370E+02 -0.11976247329E+04  0.12058236668E+04  0.12706917764E+03 0.  0.
          5    1    4    4  502    0  0.53786392593E+02 -0.51712879741E+02 -0.45391714977E+03  0.46003268016E+03  0.47000000000E+01 0.  1.
         -5    1    4    4    0  502 -0.59348543010E+02 -0.76857836295E+01 -0.45982310576E+03  0.46372481001E+03  0.47000000000E+01 0.  1.
          5    1    5    5  503    0  0.17288219261E+02  0.93625186424E+02 -0.64615984285E+03  0.65315326729E+03  0.47000000000E+01 0. -1.
         -5    1    5    5    0  503 -0.11726068843E+02 -0.34226523053E+02 -0.55146489006E+03  0.55267039955E+03  0.47000000000E+01 0. -1.
<mgrwt>
<rscale>  0 0.27794566E+03</rscale>
<asrwt>0</asrwt>
<pdfrwt beam="1">  1        2 0.32622695E+00 0.27794566E+03</pdfrwt>
<pdfrwt beam="2">  1       -2 0.14012424E-02 0.27794566E+03</pdfrwt>
<totfact> 0.83656705E+03</totfact>
</mgrwt>
</event>
<event>
 9    1  0.2114844E-002  0.2745710E+03  0.7818608E-02  0.1098692E+00
         -2   -1    0    0    0  501 -0.00000000000E+00  0.00000000000E+00  0.21727991406E+02  0.21727991406E+02  0.00000000000E+00 0. -1.
          2   -1    0    0  501    0  0.00000000000E+00 -0.00000000000E+00 -0.86742068746E+03  0.86742068746E+03  0.00000000000E+00 0. -1.
         36    2    1    2    0    0  0.35527136788E-14  0.00000000000E+00 -0.84569269606E+03  0.88914867887E+03  0.27457100534E+03 0.  0.
         25    2    3    3    0    0  0.22496822556E+02 -0.41535165490E+02 -0.49829637982E+03  0.51569945385E+03  0.12415863867E+03 0.  0.
         25    2    3    3    0    0 -0.22496822556E+02  0.41535165490E+02 -0.34739631624E+03  0.37344922502E+03  0.12864231861E+03 0.  0.
          5    1    4    4  502    0 -0.20924712597E+02  0.22429861027E+02 -0.31747302875E+03  0.31898613801E+03  0.47000000000E+01 0. -1.
         -5    1    4    4    0  502  0.43421535153E+02 -0.63965026517E+02 -0.18082335107E+03  0.19671331583E+03  0.47000000000E+01 0. -1.
          5    1    5    5  503    0 -0.13165130063E+02  0.29482153363E+02 -0.78904590200E+01  0.33568845080E+02  0.47000000000E+01 0. -1.
         -5    1    5    5    0  503 -0.93316924931E+01  0.12053012127E+02 -0.33950585722E+03  0.33988037994E+03  0.47000000000E+01 0. -1.
<mgrwt>
<rscale>  0 0.27457101E+03</rscale>
<asrwt>0</asrwt>
<pdfrwt beam="1">  1        2 0.13344932E+00 0.27457101E+03</pdfrwt>
<pdfrwt beam="2">  1       -2 0.33427683E-02 0.27457101E+03</pdfrwt>
<totfact> 0.11459836E+04</totfact>
</mgrwt>
</event>
<event>
 9    1  0.2114844E-002  0.2698135E+03  0.7818608E-02  0.1101386E+00
         -2   -1    0    0    0  501 -0.00000000000E+00  0.00000000000E+00  0.25959922422E+02  0.25959922422E+02  0.00000000000E+00 0.  1.
          2   -1    0    0  501    0  0.00000000000E+00 -0.00000000000E+00 -0.70107428620E+03  0.70107428620E+03  0.00000000000E+00 0.  1.
         36    2    1    2    0    0 -0.35527136788E-14  0.00000000000E+00 -0.67511436378E+03  0.72703420862E+03  0.26981352139E+03 0.  0.
         25    2    3    3    0    0 -0.15822193301E+02 -0.36673205181E+02 -0.38482236822E+03  0.40654221931E+03  0.12487215551E+03 0.  0.
         25    2    3    3    0    0  0.15822193301E+02  0.36673205181E+02 -0.29029199555E+03  0.32049198930E+03  0.12980911658E+03 0.  0.
          5    1    4    4  502    0  0.81120664376E+01  0.15643860766E+02 -0.85277402961E+00  0.18257963334E+02  0.47000000000E+01 0.  1.
         -5    1    4    4    0  502 -0.23934259739E+02 -0.52317065947E+02 -0.38396959419E+03  0.38828425598E+03  0.47000000000E+01 0.  1.
          5    1    5    5  503    0  0.18646227213E+02  0.79537992735E+02 -0.24310296569E+03  0.25650558670E+03  0.47000000000E+01 0. -1.
         -5    1    5    5    0  503 -0.28240339119E+01 -0.42864787553E+02 -0.47189029861E+02  0.63986402608E+02  0.47000000000E+01 0. -1.
<mgrwt>
<rscale>  0 0.26981352E+03</rscale>
<asrwt>0</asrwt>
<pdfrwt beam="1">  1        2 0.10785760E+00 0.26981352E+03</pdfrwt>
<pdfrwt beam="2">  1       -2 0.39938335E-02 0.26981352E+03</pdfrwt>
<totfact> 0.11474750E+04</totfact>
</mgrwt>
</event>
<event>
 9    1  0.2114844E-002  0.2747368E+03  0.7818608E-02  0.1098599E+00
         -2   -1    0    0    0  501 -0.00000000000E+00  0.00000000000E+00  0.10693214276E+02  0.10693214276E+02  0.00000000000E+00 0. -1.
          2   -1    0    0  501    0  0.00000000000E+00 -0.00000000000E+00 -0.17646772528E+04  0.17646772528E+04  0.00000000000E+00 0. -1.
         36    2    1    2    0    0  0.00000000000E+00  0.00000000000E+00 -0.17539840385E+04  0.17753704671E+04  0.27473676123E+03 0.  0.
         25    2    3    3    0    0  0.29277724095E+02  0.43139312587E+02 -0.83120032745E+03  0.84280832126E+03  0.12928146280E+03 0.  0.
         25    2    3    3    0    0 -0.29277724095E+02 -0.43139312587E+02 -0.92278371108E+03  0.93256214581E+03  0.12419417441E+03 0.  0.
          5    1    4    4  502    0  0.38437157402E+02  0.85173512823E+02 -0.63773054793E+03  0.64455743276E+03  0.47000000000E+01 0.  1.
         -5    1    4    4    0  502 -0.91594333068E+01 -0.42034200236E+02 -0.19346977952E+03  0.19825088851E+03  0.47000000000E+01 0.  1.
          5    1    5    5  503    0 -0.76249889148E+02 -0.10099176734E+02 -0.53459245882E+03  0.54011778900E+03  0.47000000000E+01 0. -1.
         -5    1    5    5    0  503  0.46972165053E+02 -0.33040135853E+02 -0.38819125226E+03  0.39244435681E+03  0.47000000000E+01 0. -1.
<mgrwt>
<rscale>  0 0.27473676E+03</rscale>
<asrwt>0</asrwt>
<pdfrwt beam="1">  1        2 0.27148892E+00 0.27473676E+03</pdfrwt>
<pdfrwt beam="2">  1       -2 0.16451092E-02 0.27473676E+03</pdfrwt>
<totfact> 0.10177699E+04</totfact>
</mgrwt>
</event>
<event>
 9    1  0.2114844E-002  0.2746182E+03  0.7818608E-02  0.1098665E+00
          3   -1    0    0  501    0  0.00000000000E+00  0.00000000000E+00  0.26118285840E+02  0.26118285840E+02  0.00000000000E+00 0.  1.
         -3   -1    0    0    0  501 -0.00000000000E+00 -0.00000000000E+00 -0.72186183337E+03  0.72186183337E+03  0.00000000000E+00 0.  1.
         36    2    1    2    0    0  0.35527136788E-14  0.71054273576E-14 -0.69574354753E+03  0.74798011921E+03  0.27461823466E+03 0.  0.
         25    2    3    3    0    0  0.10044073741E+02  0.42152687658E+02 -0.26246907629E+03  0.29349882122E+03  0.12399116725E+03 0.  0.
         25    2    3    3    0    0 -0.10044073741E+02 -0.42152687658E+02 -0.43327447124E+03  0.45448129799E+03  0.13018736613E+03 0.  0.
          5    1    4    4  502    0 -0.14027498594E+02  0.34018344311E+02 -0.26495536169E+03  0.26753962726E+03  0.47000000000E+01 0.  1.
         -5    1    4    4    0  502  0.24071572335E+02  0.81343433475E+01  0.24862853939E+01  0.25959193968E+02  0.47000000000E+01 0.  1.
          5    1    5    5  503    0 -0.58649379777E+02  0.79451002636E+01 -0.27654714674E+03  0.28284852613E+03  0.47000000000E+01 0. -1.
         -5    1    5    5    0  503  0.48605306036E+02 -0.50097787922E+02 -0.15672732450E+03  0.17163277186E+03  0.47000000000E+01 0. -1.
<mgrwt>
<rscale>  0 0.27461823E+03</rscale>
<asrwt>0</asrwt>
<pdfrwt beam="1">  1        3 0.40181970E-02 0.27461823E+03</pdfrwt>
<pdfrwt beam="2">  1       -3 0.11105569E+00 0.27461823E+03</pdfrwt>
<totfact> 0.58024446E+02</totfact>
</mgrwt>
</event>
<event>
 9    1  0.2114844E-002  0.2747102E+03  0.7818608E-02  0.1098614E+00
         -2   -1    0    0    0  501 -0.00000000000E+00  0.00000000000E+00  0.13741488006E+03  0.13741488006E+03  0.00000000000E+00 0.  1.
          2   -1    0    0  501    0  0.00000000000E+00 -0.00000000000E+00 -0.13729531470E+03  0.13729531470E+03  0.00000000000E+00 0.  1.
         36    2    1    2    0    0  0.00000000000E+00 -0.17763568394E-14  0.11956536543E+00  0.27471019476E+03  0.27471016874E+03 0.  0.
         25    2    3    3    0    0  0.57602891798E+02  0.15776903264E+02  0.47309632432E+02  0.12970101388E+03  0.10496260220E+03 0.  0.
         25    2    3    3    0    0 -0.57602891798E+02 -0.15776903264E+02 -0.47190067067E+02  0.14500918088E+03  0.12342510397E+03 0.  0.
          5    1    4    4  502    0 -0.22583395344E+01 -0.74219584244E+01 -0.28698247122E+02  0.30097590471E+02  0.47000000000E+01 0.  1.
         -5    1    4    4    0  502  0.59861231332E+02  0.23198861689E+02  0.76007879554E+02  0.99603423408E+02  0.47000000000E+01 0.  1.
          5    1    5    5  503    0  0.31367581235E+02  0.14936604033E+02 -0.35759642631E+02  0.50078631507E+02  0.47000000000E+01 0.  1.
         -5    1    5    5    0  503 -0.88970473033E+02 -0.30713507297E+02 -0.11430424436E+02  0.94930549377E+02  0.47000000000E+01 0.  1.
<mgrwt>
<rscale>  0 0.27471017E+03</rscale>
<asrwt>0</asrwt>
<pdfrwt beam="1">  1        2 0.21122356E-01 0.27471017E+03</pdfrwt>
<pdfrwt beam="2">  1       -2 0.21140751E-01 0.27471017E+03</pdfrwt>
<totfact> 0.49440081E+03</totfact>
</mgrwt>
</event>
<event>
 9    1  0.2114844E-002  0.2738140E+03  0.7818608E-02  0.1099116E+00
         -2   -1    0    0    0  501 -0.00000000000E+00  0.00000000000E+00  0.43663205757E+01  0.43663205757E+01  0.00000000000E+00 0.  1.
          2   -1    0    0  501    0  0.00000000000E+00 -0.00000000000E+00 -0.42927511124E+04  0.42927511124E+04  0.00000000000E+00 0.  1.
         36    2    1    2    0    0  0.00000000000E+00  0.71054273576E-14 -0.42883847919E+04  0.42971174330E+04  0.27381400628E+03 0.  0.
         25    2    3    3    0    0  0.99206107303E+01  0.47570581517E+02 -0.27088346125E+04  0.27121214752E+04  0.12432441382E+03 0.  0.
         25    2    3    3    0    0 -0.99206107303E+01 -0.47570581517E+02 -0.15795501794E+04  0.15849959578E+04  0.12195096667E+03 0.  0.
          5    1    4    4  502    0 -0.36587021320E+02 -0.14921364426E+02 -0.16222665430E+04  0.16227544743E+04  0.47000000000E+01 0. -1.
         -5    1    4    4    0  502  0.46507632050E+02  0.62491945943E+02 -0.10865680694E+04  0.10893670009E+04  0.47000000000E+01 0. -1.
          5    1    5    5  503    0 -0.10932969026E+02 -0.63215007222E+02 -0.38522531372E+03  0.39055895749E+03  0.47000000000E+01 0. -1.
         -5    1    5    5    0  503  0.10123582952E+01  0.15644425705E+02 -0.11943248657E+04  0.11944370003E+04  0.47000000000E+01 0. -1.
<mgrwt>
<rscale>  0 0.27381401E+03</rscale>
<asrwt>0</asrwt>
<pdfrwt beam="1">  1        2 0.66042140E+00 0.27381401E+03</pdfrwt>
<pdfrwt beam="2">  1       -2 0.67174351E-03 0.27381401E+03</pdfrwt>
<totfact> 0.98510804E+02</totfact>
</mgrwt>
</event>
<event>
 9    1  0.2114844E-002  0.2748704E+03  0.7818608E-02  0.1098524E+00
         -4   -1    0    0    0  501 -0.00000000000E+00  0.00000000000E+00  0.42444000580E+02  0.42444000580E+02  0.00000000000E+00 0.  1.
          4   -1    0    0  501    0  0.00000000000E+00 -0.00000000000E+00 -0.44502011552E+03  0.44502011552E+03  0.00000000000E+00 0.  1.
         36    2    1    2    0    0 -0.71054273576E-14  0.00000000000E+00 -0.40257611494E+03  0.48746411610E+03  0.27487039885E+03 0.  0.
         25    2    3    3    0    0 -0.12518572391E+02 -0.86304282570E+01 -0.97838441949E+02  0.15931545318E+03  0.12481127334E+03 0.  0.
         25    2    3    3    0    0  0.12518572391E+02  0.86304282570E+01 -0.30473767299E+03  0.32814866292E+03  0.12076960168E+03 0.  0.
          5    1    4    4  502    0 -0.12002865267E+02 -0.53090499618E+02 -0.32942387749E+01  0.54732183708E+02  0.47000000000E+01 0.  1.
         -5    1    4    4    0  502 -0.51570712371E+00  0.44460071361E+02 -0.94544203174E+02  0.10458326947E+03  0.47000000000E+01 0.  1.
          5    1    5    5  503    0 -0.51589980122E+02 -0.52951871658E+01 -0.17659119562E+03  0.18410894988E+03  0.47000000000E+01 0. -1.
         -5    1    5    5    0  503  0.64108552513E+02  0.13925615423E+02 -0.12814647737E+03  0.14403971304E+03  0.47000000000E+01 0. -1.
<mgrwt>
<rscale>  0 0.27487040E+03</rscale>
<asrwt>0</asrwt>
<pdfrwt beam="1">  1        4 0.68464634E-01 0.27487040E+03</pdfrwt>
<pdfrwt beam="2">  1       -4 0.65298461E-02 0.27487040E+03</pdfrwt>
<totfact> 0.57907078E+02</totfact>
</mgrwt>
</event>
<event>
 9    1  0.2114844E-002  0.2746203E+03  0.7818608E-02  0.1098664E+00
         -2   -1    0    0    0  501 -0.00000000000E+00  0.00000000000E+00  0.74890621525E+01  0.74890621525E+01  0.00000000000E+00 0.  1.
          2   -1    0    0  501    0  0.00000000000E+00 -0.00000000000E+00 -0.25175477650E+04  0.25175477650E+04  0.00000000000E+00 0.  1.
         36    2    1    2    0    0  0.71054273576E-14 -0.44408920985E-15 -0.25100587028E+04  0.25250368271E+04  0.27462025915E+03 0.  0.
         25    2    3    3    0    0 -0.36128241720E+02  0.32198953759E+01 -0.84674815818E+03  0.85658191188E+03  0.12423570662E+03 0.  0.
         25    2    3    3    0    0  0.36128241720E+02 -0.32198953759E+01 -0.16633105446E+04  0.16684549152E+04  0.12579435092E+03 0.  0.
          5    1    4    4  502    0 -0.35838688013E+02 -0.27612368325E+02 -0.10815517297E+03  0.11733066898E+03  0.47000000000E+01 0.  1.
         -5    1    4    4    0  502 -0.28955370752E+00  0.30832263701E+02 -0.73859298521E+03  0.73925124290E+03  0.47000000000E+01 0.  1.
          5    1    5    5  503    0  0.30744309227E+02 -0.21471464083E+01 -0.16603540234E+04  0.16606466800E+04  0.47000000000E+01 0. -1.
         -5    1    5    5    0  503  0.53839324932E+01 -0.10727489677E+01 -0.29565212067E+01  0.78082352094E+01  0.47000000000E+01 0. -1.
<mgrwt>
<rscale>  0 0.27462026E+03</rscale>
<asrwt>0</asrwt>
<pdfrwt beam="1">  1        2 0.38731450E+00 0.27462026E+03</pdfrwt>
<pdfrwt beam="2">  1       -2 0.11521650E-02 0.27462026E+03</pdfrwt>
<totfact> 0.68051302E+03</totfact>
</mgrwt>
</event>
<event>
 9    1  0.2114844E-002  0.2748200E+03  0.7818608E-02  0.1098552E+00
          2   -1    0    0  501    0  0.00000000000E+00  0.00000000000E+00  0.34646283783E+04  0.34646283783E+04  0.00000000000E+00 0.  1.
         -2   -1    0    0    0  501 -0.00000000000E+00 -0.00000000000E+00 -0.54497947718E+01  0.54497947718E+01  0.00000000000E+00 0.  1.
         36    2    1    2    0    0  0.71054273576E-14  0.00000000000E+00  0.34591785835E+04  0.34700781731E+04  0.27482004019E+03 0.  0.
         25    2    3    3    0    0  0.34346413267E+02  0.35294842238E+02  0.16793108090E+04  0.16852003521E+04  0.13187126819E+03 0.  0.
         25    2    3    3    0    0 -0.34346413267E+02 -0.35294842238E+02  0.17798677745E+04  0.17848778210E+04  0.12423421080E+03 0.  0.
          5    1    4    4  502    0  0.43777212733E+02  0.33546990131E+02  0.16703258277E+04  0.16712427429E+04  0.47000000000E+01 0. -1.
         -5    1    4    4    0  502 -0.94307994660E+01  0.17478521064E+01  0.89849813039E+01  0.13957609200E+02  0.47000000000E+01 0. -1.
          5    1    5    5  503    0  0.36657016910E+02 -0.31062620159E+02  0.36012189972E+03  0.36334349577E+03  0.47000000000E+01 0. -1.
         -5    1    5    5    0  503 -0.71003430176E+02 -0.42322220786E+01  0.14197458748E+04  0.14215343252E+04  0.47000000000E+01 0. -1.
<mgrwt>
<rscale>  0 0.27482004E+03</rscale>
<asrwt>0</asrwt>
<pdfrwt beam="1">  1        2 0.53301799E+00 0.27482004E+03</pdfrwt>
<pdfrwt beam="2">  1       -2 0.83843273E-03 0.27482004E+03</pdfrwt>
<totfact> 0.29467913E+03</totfact>
</mgrwt>
</event>
<event>
 9    1  0.2114844E-002  0.2749799E+03  0.7818608E-02  0.1098463E+00
         -2   -1    0    0    0  501 -0.00000000000E+00  0.00000000000E+00  0.14733928621E+02  0.14733928621E+02  0.00000000000E+00 0.  1.
          2   -1    0    0  501    0  0.00000000000E+00 -0.00000000000E+00 -0.12829903020E+04  0.12829903020E+04  0.00000000000E+00 0.  1.
         36    2    1    2    0    0 -0.71054273576E-14  0.00000000000E+00 -0.12682563734E+04  0.12977242306E+04  0.27497990858E+03 0.  0.
         25    2    3    3    0    0  0.28086462203E+02 -0.54599537526E+02 -0.68679533240E+03  0.70092112553E+03  0.12582780595E+03 0.  0.
         25    2    3    3    0    0 -0.28086462203E+02  0.54599537526E+02 -0.58146104097E+03  0.59680310508E+03  0.11961206131E+03 0.  0.
          5    1    4    4  502    0 -0.36704095826E+02 -0.64180722943E+02 -0.34263497409E+03  0.35055266554E+03  0.47000000000E+01 0.  1.
         -5    1    4    4    0  502  0.64790558029E+02  0.95811854167E+01 -0.34416035831E+03  0.35036845999E+03  0.47000000000E+01 0.  1.
          5    1    5    5  503    0  0.28657769907E+02 -0.93539614636E+00 -0.39492927568E+02  0.49029828369E+02  0.47000000000E+01 0.  1.
         -5    1    5    5    0  503 -0.56744232110E+02  0.55534933672E+02 -0.54196811340E+03  0.54777327671E+03  0.47000000000E+01 0.  1.
<mgrwt>
<rscale>  0 0.27497991E+03</rscale>
<asrwt>0</asrwt>
<pdfrwt beam="1">  1        2 0.19738304E+00 0.27497991E+03</pdfrwt>
<pdfrwt beam="2">  1       -2 0.22667592E-02 0.27497991E+03</pdfrwt>
<totfact> 0.11513475E+04</totfact>
</mgrwt>
</event>
<event>
 9    1  0.2114844E-002  0.2747379E+03  0.7818608E-02  0.1098598E+00
         -2   -1    0    0    0  501 -0.00000000000E+00  0.00000000000E+00  0.10175554286E+02  0.10175554286E+02  0.00000000000E+00 0.  1.
          2   -1    0    0  501    0  0.00000000000E+00 -0.00000000000E+00 -0.18544674463E+04  0.18544674463E+04  0.00000000000E+00 0.  1.
         36    2    1    2    0    0  0.17763568394E-14  0.14210854715E-13 -0.18442918920E+04  0.18646430005E+04  0.27473794184E+03 0.  0.
         25    2    3    3    0    0 -0.14431787887E+02 -0.50659651944E+02 -0.99717820734E+03  0.10062188700E+04  0.12384409652E+03 0.  0.
         25    2    3    3    0    0  0.14431787887E+02  0.50659651944E+02 -0.84711368463E+03  0.85842413058E+03  0.12851348736E+03 0.  0.
          5    1    4    4  502    0  0.33164198175E+02  0.19289837932E+02 -0.15333783840E+03  0.15813457741E+03  0.47000000000E+01 0. -1.
         -5    1    4    4    0  502 -0.47595986062E+02 -0.69949489877E+02 -0.84384036894E+03  0.84808429255E+03  0.47000000000E+01 0. -1.
          5    1    5    5  503    0  0.20087973905E+02  0.77731484232E+02 -0.79655177907E+03  0.80060135965E+03  0.47000000000E+01 0. -1.
         -5    1    5    5    0  503 -0.56561860181E+01 -0.27071832288E+02 -0.50561905564E+02  0.57822770930E+02  0.47000000000E+01 0. -1.
<mgrwt>
<rscale>  0 0.27473794E+03</rscale>
<asrwt>0</asrwt>
<pdfrwt beam="1">  1        2 0.28530265E+00 0.27473794E+03</pdfrwt>
<pdfrwt beam="2">  1       -2 0.15654701E-02 0.27473794E+03</pdfrwt>
<totfact> 0.98190755E+03</totfact>
</mgrwt>
</event>
<event>
 9    1  0.2114844E-002  0.2746760E+03  0.7818608E-02  0.1098633E+00
          1   -1    0    0  501    0  0.00000000000E+00  0.00000000000E+00  0.21625805327E+03  0.21625805327E+03  0.00000000000E+00 0.  1.
         -1   -1    0    0    0  501 -0.00000000000E+00 -0.00000000000E+00 -0.87218623785E+02  0.87218623785E+02  0.00000000000E+00 0.  1.
         36    2    1    2    0    0  0.00000000000E+00  0.00000000000E+00  0.12903942949E+03  0.30347667706E+03  0.27467602581E+03 0.  0.
         25    2    3    3    0    0  0.43516725707E+02 -0.33042140157E+02  0.62957393448E+02  0.15008589451E+03  0.12480646578E+03 0.  0.
         25    2    3    3    0    0 -0.43516725707E+02  0.33042140157E+02  0.66082036037E+02  0.15339078254E+03  0.12718650966E+03 0.  0.
          5    1    4    4  502    0  0.82178694734E+02 -0.38982877816E+02  0.22923571057E+02  0.93917957500E+02  0.47000000000E+01 0.  1.
         -5    1    4    4    0  502 -0.38661969027E+02  0.59407376595E+01  0.40033822391E+02  0.56167937013E+02  0.47000000000E+01 0.  1.
          5    1    5    5  503    0 -0.24019711639E+02 -0.48010240858E+02  0.16857155680E+02  0.56464001559E+02  0.47000000000E+01 0.  1.
         -5    1    5    5    0  503 -0.19497014068E+02  0.81052381014E+02  0.49224880358E+02  0.96926780984E+02  0.47000000000E+01 0.  1.
<mgrwt>
<rscale>  0 0.27467603E+03</rscale>
<asrwt>0</asrwt>
<pdfrwt beam="1">  1        1 0.33270469E-01 0.27467603E+03</pdfrwt>
<pdfrwt beam="2">  1       -1 0.13418250E-01 0.27467603E+03</pdfrwt>
<totfact> 0.50618161E+03</totfact>
</mgrwt>
</event>
<event>
 9    1  0.2114844E-002  0.2782218E+03  0.7818608E-02  0.1096664E+00
          2   -1    0    0  501    0  0.00000000000E+00  0.00000000000E+00  0.87450987356E+03  0.87450987356E+03  0.00000000000E+00 0. -1.
         -2   -1    0    0    0  501 -0.00000000000E+00 -0.00000000000E+00 -0.22128791250E+02  0.22128791250E+02  0.00000000000E+00 0. -1.
         36    2    1    2    0    0  0.00000000000E+00  0.14210854715E-13  0.85238108231E+03  0.89663866481E+03  0.27822182832E+03 0.  0.
         25    2    3    3    0    0  0.15472489123E+02  0.58171980901E+02  0.47855798495E+03  0.49865347694E+03  0.12654709724E+03 0.  0.
         25    2    3    3    0    0 -0.15472489123E+02 -0.58171980901E+02  0.37382309736E+03  0.39798518788E+03  0.12257701402E+03 0.  0.
          5    1    4    4  502    0  0.54518541325E+02 -0.12349293259E+02  0.14529971319E+03  0.15575260205E+03  0.47000000000E+01 0.  1.
         -5    1    4    4    0  502 -0.39046052201E+02  0.70521274160E+02  0.33325827177E+03  0.34290087489E+03  0.47000000000E+01 0.  1.
          5    1    5    5  503    0  0.13320191321E+02  0.30006692030E+02  0.42609217860E+02  0.53995041532E+02  0.47000000000E+01 0. -1.
         -5    1    5    5    0  503 -0.28792680444E+02 -0.88178672931E+02  0.33121387950E+03  0.34399014634E+03  0.47000000000E+01 0. -1.
<mgrwt>
<rscale>  0 0.27822183E+03</rscale>
<asrwt>0</asrwt>
<pdfrwt beam="1">  1        2 0.13453995E+00 0.27822183E+03</pdfrwt>
<pdfrwt beam="2">  1       -2 0.34044301E-02 0.27822183E+03</pdfrwt>
<totfact> 0.11036799E+04</totfact>
</mgrwt>
</event>
<event>
 9    1  0.2114844E-002  0.2750326E+03  0.7818608E-02  0.1098433E+00
          2   -1    0    0  501    0  0.00000000000E+00  0.00000000000E+00  0.60809189062E+02  0.60809189062E+02  0.00000000000E+00 0.  1.
         -2   -1    0    0    0  501 -0.00000000000E+00 -0.00000000000E+00 -0.31098477662E+03  0.31098477662E+03  0.00000000000E+00 0.  1.
         36    2    1    2    0    0 -0.43298697960E-14  0.00000000000E+00 -0.25017558755E+03  0.37179396568E+03  0.27503259499E+03 0.  0.
         25    2    3    3    0    0 -0.35959800794E+00 -0.55976157740E+02 -0.86811044050E+02  0.15822739235E+03  0.11985946260E+03 0.  0.
         25    2    3    3    0    0  0.35959800794E+00  0.55976157740E+02 -0.16336454350E+03  0.21356657333E+03  0.12565527296E+03 0.  0.
          5    1    4    4  502    0  0.46472869852E+02 -0.68448733557E+02 -0.62557600158E+02  0.10382918711E+03  0.47000000000E+01 0.  1.
         -5    1    4    4    0  502 -0.46832467859E+02  0.12472575817E+02 -0.24253443892E+02  0.54398205246E+02  0.47000000000E+01 0.  1.
          5    1    5    5  503    0  0.11348389558E+01 -0.26621970600E+02 -0.11412238825E+03  0.11728608902E+03  0.47000000000E+01 0. -1.
         -5    1    5    5    0  503 -0.77524094791E+00  0.82598128340E+02 -0.49242155255E+02  0.96280484305E+02  0.47000000000E+01 0. -1.
<mgrwt>
<rscale>  0 0.27503259E+03</rscale>
<asrwt>0</asrwt>
<pdfrwt beam="1">  1        2 0.93552598E-02 0.27503259E+03</pdfrwt>
<pdfrwt beam="2">  1       -2 0.47843812E-01 0.27503259E+03</pdfrwt>
<totfact> 0.29125628E+03</totfact>
</mgrwt>
</event>
<event>
 9    1  0.2114844E-002  0.2743688E+03  0.7818608E-02  0.1098805E+00
         -2   -1    0    0    0  501 -0.00000000000E+00  0.00000000000E+00  0.12023619349E+02  0.12023619349E+02  0.00000000000E+00 0.  1.
          2   -1    0    0  501    0  0.00000000000E+00 -0.00000000000E+00 -0.15652163855E+04  0.15652163855E+04  0.00000000000E+00 0.  1.
         36    2    1    2    0    0  0.71054273576E-14  0.17763568394E-14 -0.15531927661E+04  0.15772400048E+04  0.27436884676E+03 0.  0.
         25    2    3    3    0    0  0.32238258713E+02 -0.37198215770E+01 -0.98475154165E+03  0.99305373535E+03  0.12396362418E+03 0.  0.
         25    2    3    3    0    0 -0.32238258713E+02  0.37198215770E+01 -0.56844122447E+03  0.58418626946E+03  0.13074796120E+03 0.  0.
          5    1    4    4  502    0  0.15930526260E+02 -0.10047011916E+02 -0.96857364839E+03  0.96876814897E+03  0.47000000000E+01 0.  1.
         -5    1    4    4    0  502  0.16307732454E+02  0.63271903386E+01 -0.16177893261E+02  0.24285586378E+02  0.47000000000E+01 0.  1.
          5    1    5    5  503    0  0.31350048573E+02 -0.15209056679E+02 -0.47933612812E+02  0.59446296670E+02  0.47000000000E+01 0. -1.
         -5    1    5    5    0  503 -0.63588307286E+02  0.18928878256E+02 -0.52050761166E+03  0.52473997279E+03  0.47000000000E+01 0. -1.
<mgrwt>
<rscale>  0 0.27436885E+03</rscale>
<asrwt>0</asrwt>
<pdfrwt beam="1">  1        2 0.24080238E+00 0.27436885E+03</pdfrwt>
<pdfrwt beam="2">  1       -2 0.18497887E-02 0.27436885E+03</pdfrwt>
<totfact> 0.10920054E+04</totfact>
</mgrwt>
</event>
<event>
 9    1  0.2114844E-002  0.2734667E+03  0.7818608E-02  0.1099312E+00
         -2   -1    0    0    0  501 -0.00000000000E+00  0.00000000000E+00  0.47554607288E+03  0.47554607288E+03  0.00000000000E+00 0. -1.
          2   -1    0    0  501    0  0.00000000000E+00 -0.00000000000E+00 -0.39314822772E+02  0.39314822772E+02  0.00000000000E+00 0. -1.
         36    2    1    2    0    0  0.14210854715E-13  0.00000000000E+00  0.43623125010E+03  0.51486089565E+03  0.27346670419E+03 0.  0.
         25    2    3    3    0    0  0.39695751515E+02 -0.48895064828E+01  0.12780238013E+03  0.17910861713E+03  0.11894027242E+03 0.  0.
         25    2    3    3    0    0 -0.39695751515E+02  0.48895064828E+01  0.30842886998E+03  0.33575227852E+03  0.12649729140E+03 0.  0.
          5    1    4    4  502    0  0.41419241731E+02 -0.18357460068E+02 -0.47359293914E+01  0.45793765438E+02  0.47000000000E+01 0.  1.
         -5    1    4    4    0  502 -0.17234902160E+01  0.13467953586E+02  0.13253830952E+03  0.13331485169E+03  0.47000000000E+01 0.  1.
          5    1    5    5  503    0 -0.45811122409E+02 -0.48507686908E+02  0.98936978295E+02  0.11942474743E+03  0.47000000000E+01 0.  1.
         -5    1    5    5    0  503  0.61153708939E+01  0.53397193391E+02  0.20949189168E+03  0.21632753108E+03  0.47000000000E+01 0.  1.
<mgrwt>
<rscale>  0 0.27346670E+03</rscale>
<asrwt>0</asrwt>
<pdfrwt beam="1">  1        2 0.60484346E-02 0.27346670E+03</pdfrwt>
<pdfrwt beam="2">  1       -2 0.73160930E-01 0.27346670E+03</pdfrwt>
<totfact> 0.21138512E+03</totfact>
</mgrwt>
</event>
<event>
 9    1  0.2114844E-002  0.2705262E+03  0.7818608E-02  0.1100979E+00
         -2   -1    0    0    0  501 -0.00000000000E+00  0.00000000000E+00  0.17511266960E+02  0.17511266960E+02  0.00000000000E+00 0. -1.
          2   -1    0    0  501    0  0.00000000000E+00 -0.00000000000E+00 -0.10448188304E+04  0.10448188304E+04  0.00000000000E+00 0. -1.
         36    2    1    2    0    0 -0.35527136788E-14  0.00000000000E+00 -0.10273075634E+04  0.10623300973E+04  0.27052616482E+03 0.  0.
         25    2    3    3    0    0 -0.29258430253E+02 -0.18751743024E+02 -0.71344681052E+03  0.72427846335E+03  0.11985515188E+03 0.  0.
         25    2    3    3    0    0  0.29258430253E+02  0.18751743024E+02 -0.31386075288E+03  0.33805163396E+03  0.12067581125E+03 0.  0.
          5    1    4    4  502    0  0.17931818537E+02  0.36855135050E+02 -0.13306742641E+03  0.13931576029E+03  0.47000000000E+01 0. -1.
         -5    1    4    4    0  502 -0.47190248790E+02 -0.55606878074E+02 -0.58037938411E+03  0.58496270306E+03  0.47000000000E+01 0. -1.
          5    1    5    5  503    0  0.39630089183E+01  0.65623827087E+02 -0.22390562046E+03  0.23340524629E+03  0.47000000000E+01 0.  1.
         -5    1    5    5    0  503  0.25295421335E+02 -0.46872084063E+02 -0.89955132413E+02  0.10464638767E+03  0.47000000000E+01 0.  1.
<mgrwt>
<rscale>  0 0.27052616E+03</rscale>
<asrwt>0</asrwt>
<pdfrwt beam="1">  1        2 0.16074136E+00 0.27052616E+03</pdfrwt>
<pdfrwt beam="2">  1       -2 0.26940410E-02 0.27052616E+03</pdfrwt>
<totfact> 0.12222303E+04</totfact>
</mgrwt>
</event>
<event>
 9    1  0.2114844E-002  0.2750742E+03  0.7818608E-02  0.1098410E+00
         -1   -1    0    0    0  501 -0.00000000000E+00  0.00000000000E+00  0.47078896652E+02  0.47078896652E+02  0.00000000000E+00 0.  1.
          1   -1    0    0  501    0  0.00000000000E+00 -0.00000000000E+00 -0.40180312819E+03  0.40180312819E+03  0.00000000000E+00 0.  1.
         36    2    1    2    0    0  0.00000000000E+00  0.35527136788E-14 -0.35472423154E+03  0.44888202484E+03  0.27507415688E+03 0.  0.
         25    2    3    3    0    0  0.40918313329E+02  0.24606943335E+02 -0.22991578121E+03  0.26426524415E+03  0.12122311163E+03 0.  0.
         25    2    3    3    0    0 -0.40918313329E+02 -0.24606943335E+02 -0.12480845033E+03  0.18461678069E+03  0.12738287331E+03 0.  0.
          5    1    4    4  502    0 -0.33001476174E+02 -0.15624811032E+02 -0.12139780674E+03  0.12685720173E+03  0.47000000000E+01 0.  1.
         -5    1    4    4    0  502  0.73919789503E+02  0.40231754367E+02 -0.10851797447E+03  0.13740804242E+03  0.47000000000E+01 0.  1.
          5    1    5    5  503    0 -0.42887820033E+02  0.36670943279E+02 -0.10623559810E+03  0.12038361804E+03  0.47000000000E+01 0. -1.
         -5    1    5    5    0  503  0.19695067038E+01 -0.61277886614E+02 -0.18572852233E+02  0.64233162654E+02  0.47000000000E+01 0. -1.
<mgrwt>
<rscale>  0 0.27507416E+03</rscale>
<asrwt>0</asrwt>
<pdfrwt beam="1">  1        1 0.61815867E-01 0.27507416E+03</pdfrwt>
<pdfrwt beam="2">  1       -1 0.72429071E-02 0.27507416E+03</pdfrwt>
<totfact> 0.60064620E+03</totfact>
</mgrwt>
</event>
<event>
 9    1  0.2114844E-002  0.2755286E+03  0.7818608E-02  0.1098157E+00
          2   -1    0    0  501    0  0.00000000000E+00  0.00000000000E+00  0.17021963598E+04  0.17021963598E+04  0.00000000000E+00 0.  1.
         -2   -1    0    0    0  501 -0.00000000000E+00 -0.00000000000E+00 -0.11149711455E+02  0.11149711455E+02  0.00000000000E+00 0.  1.
         36    2    1    2    0    0 -0.71054273576E-14  0.00000000000E+00  0.16910466483E+04  0.17133460712E+04  0.27552857022E+03 0.  0.
         25    2    3    3    0    0  0.43804227238E+02 -0.43982290062E+02  0.11550927167E+04  0.11635050492E+04  0.12510620785E+03 0.  0.
         25    2    3    3    0    0 -0.43804227238E+02  0.43982290062E+02  0.53595393161E+03  0.54984102199E+03  0.10594942423E+03 0.  0.
          5    1    4    4  502    0 -0.29937789789E+02 -0.42158025817E+01  0.88947853252E+02  0.94063036560E+02  0.47000000000E+01 0. -1.
         -5    1    4    4    0  502  0.73742017027E+02 -0.39766487480E+02  0.10661448635E+04  0.10694420127E+04  0.47000000000E+01 0. -1.
          5    1    5    5  503    0 -0.11055373525E+02  0.52969762564E+02  0.11171352223E+03  0.12421762387E+03  0.47000000000E+01 0.  1.
         -5    1    5    5    0  503 -0.32748853713E+02 -0.89874725026E+01  0.42424040938E+03  0.42562339812E+03  0.47000000000E+01 0.  1.
<mgrwt>
<rscale>  0 0.27552857E+03</rscale>
<asrwt>0</asrwt>
<pdfrwt beam="1">  1        2 0.26187616E+00 0.27552857E+03</pdfrwt>
<pdfrwt beam="2">  1       -2 0.17153416E-02 0.27552857E+03</pdfrwt>
<totfact> 0.10325684E+04</totfact>
</mgrwt>
</event>
<event>
 9    1  0.2114844E-002  0.2741790E+03  0.7818608E-02  0.1098911E+00
         -1   -1    0    0    0  501 -0.00000000000E+00  0.00000000000E+00  0.99912743538E+01  0.99912743538E+01  0.00000000000E+00 0. -1.
          1   -1    0    0  501    0  0.00000000000E+00 -0.00000000000E+00 -0.18809948226E+04  0.18809948226E+04  0.00000000000E+00 0. -1.
         36    2    1    2    0    0 -0.71054273576E-14 -0.71054273576E-14 -0.18710035482E+04  0.18909860969E+04  0.27417903151E+03 0.  0.
         25    2    3    3    0    0 -0.47118959219E+02 -0.33537743152E+02 -0.99299698909E+03  0.10027039128E+04  0.12659834050E+03 0.  0.
         25    2    3    3    0    0  0.47118959219E+02  0.33537743152E+02 -0.87800655911E+03  0.88828218413E+03  0.12167474790E+03 0.  0.
          5    1    4    4  502    0  0.16372246292E+01  0.31251917827E+02 -0.62721450459E+03  0.62801233080E+03  0.47000000000E+01 0. -1.
         -5    1    4    4    0  502 -0.48756183848E+02 -0.64789660979E+02 -0.36578248451E+03  0.37469158198E+03  0.47000000000E+01 0. -1.
          5    1    5    5  503    0  0.23947716288E+02  0.71757450632E+02 -0.72091845091E+03  0.72489180414E+03  0.47000000000E+01 0. -1.
         -5    1    5    5    0  503  0.23171242931E+02 -0.38219707480E+02 -0.15708810820E+03  0.16339038000E+03  0.47000000000E+01 0. -1.
<mgrwt>
<rscale>  0 0.27417903E+03</rscale>
<asrwt>0</asrwt>
<pdfrwt beam="1">  1        1 0.28938370E+00 0.27417903E+03</pdfrwt>
<pdfrwt beam="2">  1       -1 0.15371198E-02 0.27417903E+03</pdfrwt>
<totfact> 0.40598833E+03</totfact>
</mgrwt>
</event>
<event>
 9    1  0.2114844E-002  0.2738305E+03  0.7818608E-02  0.1099107E+00
          2   -1    0    0  501    0  0.00000000000E+00  0.00000000000E+00  0.20013444879E+03  0.20013444879E+03  0.00000000000E+00 0.  1.
         -2   -1    0    0    0  501 -0.00000000000E+00 -0.00000000000E+00 -0.93665985216E+02  0.93665985216E+02  0.00000000000E+00 0.  1.
         36    2    1    2    0    0  0.53290705182E-14  0.00000000000E+00  0.10646846357E+03  0.29380043400E+03  0.27383053388E+03 0.  0.
         25    2    3    3    0    0  0.15561652630E+02 -0.44285780747E+02  0.39258174650E+02  0.13803913077E+03  0.12373440078E+03 0.  0.
         25    2    3    3    0    0 -0.15561652630E+02  0.44285780747E+02  0.67210288920E+02  0.15576130324E+03  0.13244230910E+03 0.  0.
          5    1    4    4  502    0  0.59432616990E+02  0.37065056134E+01  0.41621928492E+02  0.72804183105E+02  0.47000000000E+01 0. -1.
         -5    1    4    4    0  502 -0.43870964361E+02 -0.47992286360E+02 -0.23637538421E+01  0.65234947660E+02  0.47000000000E+01 0. -1.
          5    1    5    5  503    0 -0.25388788536E+02  0.18701676855E+01  0.98560896419E+02  0.10190401569E+03  0.47000000000E+01 0. -1.
         -5    1    5    5    0  503  0.98271359062E+01  0.42415613062E+02 -0.31350607499E+02  0.53857287548E+02  0.47000000000E+01 0. -1.
<mgrwt>
<rscale>  0 0.27383053E+03</rscale>
<asrwt>0</asrwt>
<pdfrwt beam="1">  1        2 0.30789915E-01 0.27383053E+03</pdfrwt>
<pdfrwt beam="2">  1       -2 0.14410152E-01 0.27383053E+03</pdfrwt>
<totfact> 0.61864637E+03</totfact>
</mgrwt>
</event>
<event>
 9    1  0.2114844E-002  0.2757036E+03  0.7818608E-02  0.1098059E+00
         -2   -1    0    0    0  501 -0.00000000000E+00  0.00000000000E+00  0.63401946016E+02  0.63401946016E+02  0.00000000000E+00 0.  1.
          2   -1    0    0  501    0  0.00000000000E+00 -0.00000000000E+00 -0.29972450389E+03  0.29972450389E+03  0.00000000000E+00 0.  1.
         36    2    1    2    0    0 -0.35527136788E-14  0.00000000000E+00 -0.23632255788E+03  0.36312644991E+03  0.27570358587E+03 0.  0.
         25    2    3    3    0    0  0.17103363731E+02  0.31670302031E+01 -0.19572383750E+03  0.22842481798E+03  0.11647970540E+03 0.  0.
         25    2    3    3    0    0 -0.17103363731E+02 -0.31670302031E+01 -0.40598720374E+02  0.13470163193E+03  0.12725454184E+03 0.  0.
          5    1    4    4  502    0  0.33850903790E+02  0.49103127142E+02 -0.62888992816E+02  0.86799286864E+02  0.47000000000E+01 0.  1.
         -5    1    4    4    0  502 -0.16747540060E+02 -0.45936096939E+02 -0.13283484469E+03  0.14162553111E+03  0.47000000000E+01 0.  1.
          5    1    5    5  503    0 -0.42913667144E+02 -0.21035671816E+02  0.30465155390E+02  0.56870888945E+02  0.47000000000E+01 0.  1.
         -5    1    5    5    0  503  0.25810303413E+02  0.17868641613E+02 -0.71063875763E+02  0.77830742987E+02  0.47000000000E+01 0.  1.
<mgrwt>
<rscale>  0 0.27570359E+03</rscale>
<asrwt>0</asrwt>
<pdfrwt beam="1">  1        2 0.46111463E-01 0.27570359E+03</pdfrwt>
<pdfrwt beam="2">  1       -2 0.97541454E-02 0.27570359E+03</pdfrwt>
<totfact> 0.75023284E+03</totfact>
</mgrwt>
</event>
<event>
 9    1  0.2114844E-002  0.2750498E+03  0.7818608E-02  0.1098424E+00
          2   -1    0    0  501    0  0.00000000000E+00  0.00000000000E+00  0.75695604537E+03  0.75695604537E+03  0.00000000000E+00 0.  1.
         -2   -1    0    0    0  501 -0.00000000000E+00 -0.00000000000E+00 -0.24985729525E+02  0.24985729525E+02  0.00000000000E+00 0.  1.
         36    2    1    2    0    0 -0.71054273576E-14  0.35527136788E-14  0.73197031585E+03  0.78194177490E+03  0.27504980649E+03 0.  0.
         25    2    3    3    0    0  0.38315057545E+02  0.17062277467E+02  0.22892756357E+03  0.26210894470E+03  0.12055747419E+03 0.  0.
         25    2    3    3    0    0 -0.38315057545E+02 -0.17062277467E+02  0.50304275228E+03  0.51983283020E+03  0.12415714149E+03 0.  0.
          5    1    4    4  502    0  0.15598329584E+02  0.18886457661E+02  0.23636691220E+03  0.23767922365E+03  0.47000000000E+01 0. -1.
         -5    1    4    4    0  502  0.22716727961E+02 -0.18241801940E+01 -0.74393486353E+01  0.24429721054E+02  0.47000000000E+01 0. -1.
          5    1    5    5  503    0 -0.70156386084E+02 -0.93731469091E+01  0.46051818557E+03  0.46594942175E+03  0.47000000000E+01 0. -1.
         -5    1    5    5    0  503  0.31841328539E+02 -0.76891305581E+01  0.42524566713E+02  0.53883408448E+02  0.47000000000E+01 0. -1.
<mgrwt>
<rscale>  0 0.27504981E+03</rscale>
<asrwt>0</asrwt>
<pdfrwt beam="1">  1        2 0.11645476E+00 0.27504981E+03</pdfrwt>
<pdfrwt beam="2">  1       -2 0.38439590E-02 0.27504981E+03</pdfrwt>
<totfact> 0.11067861E+04</totfact>
</mgrwt>
</event>
<event>
 9    1  0.2114844E-002  0.2731415E+03  0.7818608E-02  0.1099495E+00
         -2   -1    0    0    0  501 -0.00000000000E+00  0.00000000000E+00  0.32006777106E+02  0.32006777106E+02  0.00000000000E+00 0.  1.
          2   -1    0    0  501    0  0.00000000000E+00 -0.00000000000E+00 -0.58273807682E+03  0.58273807682E+03  0.00000000000E+00 0.  1.
         36    2    1    2    0    0 -0.71054273576E-14  0.00000000000E+00 -0.55073129971E+03  0.61474485393E+03  0.27314148521E+03 0.  0.
         25    2    3    3    0    0  0.30388329434E+02  0.39912812273E+02 -0.20847689531E+03  0.24790814655E+03  0.12441603635E+03 0.  0.
         25    2    3    3    0    0 -0.30388329434E+02 -0.39912812273E+02 -0.34225440440E+03  0.36683670737E+03  0.12212538390E+03 0.  0.
          5    1    4    4  502    0 -0.45453013962E+02  0.35495174006E+01 -0.46247831368E+02  0.65111653782E+02  0.47000000000E+01 0.  1.
         -5    1    4    4    0  502  0.75841343397E+02  0.36363294872E+02 -0.16222906394E+03  0.18279649277E+03  0.47000000000E+01 0.  1.
          5    1    5    5  503    0 -0.57556241350E+02 -0.64909752573E+02 -0.28964729925E+03  0.30239650272E+03  0.47000000000E+01 0.  1.
         -5    1    5    5    0  503  0.27167911916E+02  0.24996940301E+02 -0.52607105155E+02  0.64440204648E+02  0.47000000000E+01 0.  1.
<mgrwt>
<rscale>  0 0.27314149E+03</rscale>
<asrwt>0</asrwt>
<pdfrwt beam="1">  1        2 0.89652006E-01 0.27314149E+03</pdfrwt>
<pdfrwt beam="2">  1       -2 0.49241199E-02 0.27314149E+03</pdfrwt>
<totfact> 0.10409221E+04</totfact>
</mgrwt>
</event>
<event>
 9    1  0.2114844E-002  0.2763218E+03  0.7818608E-02  0.1097715E+00
          2   -1    0    0  501    0  0.00000000000E+00  0.00000000000E+00  0.14466186826E+03  0.14466186826E+03  0.00000000000E+00 0.  1.
         -2   -1    0    0    0  501 -0.00000000000E+00 -0.00000000000E+00 -0.13195210215E+03  0.13195210215E+03  0.00000000000E+00 0.  1.
         36    2    1    2    0    0  0.00000000000E+00  0.00000000000E+00  0.12709766110E+02  0.27661397041E+03  0.27632182410E+03 0.  0.
         25    2    3    3    0    0  0.38292522656E+01  0.55755398766E+02 -0.60502150700E+01  0.13072747528E+03  0.11802431964E+03 0.  0.
         25    2    3    3    0    0 -0.38292522656E+01 -0.55755398766E+02  0.18759981180E+02  0.14588649513E+03  0.13344513818E+03 0.  0.
          5    1    4    4  502    0 -0.21165671954E+02 -0.19962813587E+02  0.30915935575E+02  0.42712816204E+02  0.47000000000E+01 0.  1.
         -5    1    4    4    0  502  0.24994924219E+02  0.75718212353E+02 -0.36966150645E+02  0.88014659075E+02  0.47000000000E+01 0.  1.
          5    1    5    5  503    0  0.54733867933E+02 -0.74562235229E+01  0.38273185975E+02  0.67367041888E+02  0.47000000000E+01 0. -1.
         -5    1    5    5    0  503 -0.58563120199E+02 -0.48299175243E+02 -0.19513204794E+02  0.78519453245E+02  0.47000000000E+01 0. -1.
<mgrwt>
<rscale>  0 0.27632182E+03</rscale>
<asrwt>0</asrwt>
<pdfrwt beam="1">  1        2 0.22255672E-01 0.27632182E+03</pdfrwt>
<pdfrwt beam="2">  1       -2 0.20300323E-01 0.27632182E+03</pdfrwt>
<totfact> 0.49967789E+03</totfact>
</mgrwt>
</event>
<event>
 9    1  0.2114844E-002  0.2805396E+03  0.7818608E-02  0.1095395E+00
          2   -1    0    0  501    0  0.00000000000E+00  0.00000000000E+00  0.98595891447E+03  0.98595891447E+03  0.00000000000E+00 0. -1.
         -2   -1    0    0    0  501 -0.00000000000E+00 -0.00000000000E+00 -0.19955811979E+02  0.19955811979E+02  0.00000000000E+00 0. -1.
         36    2    1    2    0    0  0.00000000000E+00  0.00000000000E+00  0.96600310249E+03  0.10059147265E+04  0.28053955669E+03 0.  0.
         25    2    3    3    0    0  0.22214947824E+02  0.57760206683E+02  0.49723975868E+03  0.51558246512E+03  0.12144198346E+03 0.  0.
         25    2    3    3    0    0 -0.22214947824E+02 -0.57760206683E+02  0.46876334382E+03  0.49033226133E+03  0.12983415811E+03 0.  0.
          5    1    4    4  502    0  0.27349436123E+02  0.19738828021E+02  0.46207119878E+03  0.46332439578E+03  0.47000000000E+01 0.  1.
         -5    1    4    4    0  502 -0.51344882992E+01  0.38021378662E+02  0.35168559897E+02  0.52258069335E+02  0.47000000000E+01 0.  1.
          5    1    5    5  503    0 -0.59206546305E+02 -0.72999677261E+02  0.39733619419E+03  0.40832892283E+03  0.47000000000E+01 0. -1.
         -5    1    5    5    0  503  0.36991598482E+02  0.15239470578E+02  0.71427149628E+02  0.82003338503E+02  0.47000000000E+01 0. -1.
<mgrwt>
<rscale>  0 0.28053956E+03</rscale>
<asrwt>0</asrwt>
<pdfrwt beam="1">  1        2 0.15168595E+00 0.28053956E+03</pdfrwt>
<pdfrwt beam="2">  1       -2 0.30701257E-02 0.28053956E+03</pdfrwt>
<totfact> 0.10942196E+04</totfact>
</mgrwt>
</event>
<event>
 9    1  0.2114844E-002  0.2756517E+03  0.7818608E-02  0.1098088E+00
         -1   -1    0    0    0  501 -0.00000000000E+00  0.00000000000E+00  0.19363189581E+02  0.19363189581E+02  0.00000000000E+00 0. -1.
          1   -1    0    0  501    0  0.00000000000E+00 -0.00000000000E+00 -0.98103470268E+03  0.98103470268E+03  0.00000000000E+00 0. -1.
         36    2    1    2    0    0 -0.71054273576E-14  0.00000000000E+00 -0.96167151310E+03  0.10003978923E+04  0.27565167102E+03 0.  0.
         25    2    3    3    0    0  0.19044000888E+02 -0.56399124414E+02 -0.51530774513E+03  0.53329436378E+03  0.12376296315E+03 0.  0.
         25    2    3    3    0    0 -0.19044000888E+02  0.56399124414E+02 -0.44636376798E+03  0.46710352848E+03  0.12410301268E+03 0.  0.
          5    1    4    4  502    0  0.54087759967E+02 -0.37189858873E+02 -0.46116303869E+03  0.46583474498E+03  0.47000000000E+01 0.  1.
         -5    1    4    4    0  502 -0.35043759079E+02 -0.19209265541E+02 -0.54144706438E+02  0.67459618797E+02  0.47000000000E+01 0.  1.
          5    1    5    5  503    0  0.64352180146E+01 -0.75440640069E+01  0.38537007059E+01  0.11630388719E+02  0.47000000000E+01 0. -1.
         -5    1    5    5    0  503 -0.25479218902E+02  0.63943188421E+02 -0.45021746868E+03  0.45547313976E+03  0.47000000000E+01 0. -1.
<mgrwt>
<rscale>  0 0.27565167E+03</rscale>
<asrwt>0</asrwt>
<pdfrwt beam="1">  1        1 0.15092843E+00 0.27565167E+03</pdfrwt>
<pdfrwt beam="2">  1       -1 0.29789519E-02 0.27565167E+03</pdfrwt>
<totfact> 0.62952406E+03</totfact>
</mgrwt>
</event>
<event>
 9    1  0.2114844E-002  0.2761800E+03  0.7818608E-02  0.1097794E+00
          1   -1    0    0  501    0  0.00000000000E+00  0.00000000000E+00  0.26843556051E+03  0.26843556051E+03  0.00000000000E+00 0. -1.
         -1   -1    0    0    0  501 -0.00000000000E+00 -0.00000000000E+00 -0.71036950591E+02  0.71036950591E+02  0.00000000000E+00 0. -1.
         36    2    1    2    0    0  0.00000000000E+00  0.88817841970E-15  0.19739860992E+03  0.33947251110E+03  0.27617996777E+03 0.  0.
         25    2    3    3    0    0 -0.33289546171E+02  0.38888153669E+01  0.44152149089E+02  0.14061315296E+03  0.12922588652E+03 0.  0.
         25    2    3    3    0    0  0.33289546171E+02 -0.38888153669E+01  0.15324646083E+03  0.19885935814E+03  0.12221804202E+03 0.  0.
          5    1    4    4  502    0  0.60789443771E+01 -0.17118293489E+01 -0.43521882628E+02  0.44228138011E+02  0.47000000000E+01 0.  1.
         -5    1    4    4    0  502 -0.39368490548E+02  0.56006447158E+01  0.87674031717E+02  0.96385014949E+02  0.47000000000E+01 0.  1.
          5    1    5    5  503    0  0.40271808116E+02 -0.16797277371E+02  0.17030626693E+03  0.17587007026E+03  0.47000000000E+01 0.  1.
         -5    1    5    5    0  503 -0.69822619454E+01  0.12908462004E+02 -0.17059806102E+02  0.22989287884E+02  0.47000000000E+01 0.  1.
<mgrwt>
<rscale>  0 0.27617997E+03</rscale>
<asrwt>0</asrwt>
<pdfrwt beam="1">  1        1 0.41297778E-01 0.27617997E+03</pdfrwt>
<pdfrwt beam="2">  1       -1 0.10928762E-01 0.27617997E+03</pdfrwt>
<totfact> 0.53188726E+03</totfact>
</mgrwt>
</event>
<event>
 9    1  0.2114844E-002  0.2746690E+03  0.7818608E-02  0.1098637E+00
          1   -1    0    0  501    0  0.00000000000E+00  0.00000000000E+00  0.26293408416E+04  0.26293408416E+04  0.00000000000E+00 0. -1.
         -1   -1    0    0    0  501 -0.00000000000E+00 -0.00000000000E+00 -0.71731888630E+01  0.71731888630E+01  0.00000000000E+00 0. -1.
         36    2    1    2    0    0  0.00000000000E+00  0.00000000000E+00  0.26221676527E+04  0.26365140304E+04  0.27466895304E+03 0.  0.
         25    2    3    3    0    0 -0.74107301249E+02  0.47637078839E+02  0.92293312820E+03  0.93082927857E+03  0.82924081719E+02 0.  0.
         25    2    3    3    0    0  0.74107301249E+02 -0.47637078839E+02  0.16992345245E+04  0.17056847518E+04  0.11916929174E+03 0.  0.
          5    1    4    4  502    0 -0.45258131597E+02  0.60577037773E+02  0.80767386476E+03  0.81121947573E+03  0.47000000000E+01 0. -1.
         -5    1    4    4    0  502 -0.28849169652E+02 -0.12939958934E+02  0.11525926344E+03  0.11960980284E+03  0.47000000000E+01 0. -1.
          5    1    5    5  503    0  0.60757141595E+02 -0.84545020199E+02  0.13959815539E+04  0.13998663791E+04  0.47000000000E+01 0.  1.
         -5    1    5    5    0  503  0.13350159653E+02  0.36907941359E+02  0.30325297061E+03  0.30581837270E+03  0.47000000000E+01 0.  1.
<mgrwt>
<rscale>  0 0.27466895E+03</rscale>
<asrwt>0</asrwt>
<pdfrwt beam="1">  1        1 0.40451321E+00 0.27466895E+03</pdfrwt>
<pdfrwt beam="2">  1       -1 0.11035696E-02 0.27466895E+03</pdfrwt>
<totfact> 0.21187963E+03</totfact>
</mgrwt>
</event>
<event>
 9    1  0.2114844E-002  0.2744907E+03  0.7818608E-02  0.1098737E+00
          2   -1    0    0  501    0  0.00000000000E+00  0.00000000000E+00  0.88321769180E+03  0.88321769180E+03  0.00000000000E+00 0. -1.
         -2   -1    0    0    0  501 -0.00000000000E+00 -0.00000000000E+00 -0.21326895429E+02  0.21326895429E+02  0.00000000000E+00 0. -1.
         36    2    1    2    0    0 -0.71054273576E-14  0.00000000000E+00  0.86189079637E+03  0.90454458723E+03  0.27449073831E+03 0.  0.
         25    2    3    3    0    0  0.47512033770E+02 -0.20009015264E+02  0.43945922366E+03  0.46109056680E+03  0.12970099263E+03 0.  0.
         25    2    3    3    0    0 -0.47512033770E+02  0.20009015264E+02  0.42243157272E+03  0.44345402043E+03  0.12468071449E+03 0.  0.
          5    1    4    4  502    0 -0.31755616599E+02  0.29424856872E+02  0.10197587276E+03  0.11088466987E+03  0.47000000000E+01 0. -1.
         -5    1    4    4    0  502  0.79267650369E+02 -0.49433872136E+02  0.33748335089E+03  0.35020589692E+03  0.47000000000E+01 0. -1.
          5    1    5    5  503    0  0.10248053663E+01  0.65079715383E+02  0.16102886202E+03  0.17374925607E+03  0.47000000000E+01 0.  1.
         -5    1    5    5    0  503 -0.48536839136E+02 -0.45070700119E+02  0.26140271070E+03  0.26970476437E+03  0.47000000000E+01 0.  1.
<mgrwt>
<rscale>  0 0.27449074E+03</rscale>
<asrwt>0</asrwt>
<pdfrwt beam="1">  1        2 0.13587962E+00 0.27449074E+03</pdfrwt>
<pdfrwt beam="2">  1       -2 0.32810615E-02 0.27449074E+03</pdfrwt>
<totfact> 0.11505293E+04</totfact>
</mgrwt>
</event>
<event>
 9    1  0.2114844E-002  0.2754178E+03  0.7818608E-02  0.1098218E+00
          2   -1    0    0  501    0  0.00000000000E+00  0.00000000000E+00  0.42275869307E+02  0.42275869307E+02  0.00000000000E+00 0.  1.
         -2   -1    0    0    0  501 -0.00000000000E+00 -0.00000000000E+00 -0.44857125238E+03  0.44857125238E+03  0.00000000000E+00 0.  1.
         36    2    1    2    0    0  0.00000000000E+00 -0.71054273576E-14 -0.40629538307E+03  0.49084712168E+03  0.27541778912E+03 0.  0.
         25    2    3    3    0    0  0.10815127808E+01  0.35968318825E+02 -0.12089637081E+03  0.17705258381E+03  0.12424490061E+03 0.  0.
         25    2    3    3    0    0 -0.10815127808E+01 -0.35968318825E+02 -0.28539901226E+03  0.31379453788E+03  0.12537753457E+03 0.  0.
          5    1    4    4  502    0  0.53552738883E+02  0.23699788594E+02 -0.10559562706E+03  0.12083915870E+03  0.47000000000E+01 0.  1.
         -5    1    4    4    0  502 -0.52471226102E+02  0.12268530232E+02 -0.15300743748E+02  0.56213425104E+02  0.47000000000E+01 0.  1.
          5    1    5    5  503    0  0.44043028127E+02  0.30045024234E+01 -0.35515370611E+02  0.56852853147E+02  0.47000000000E+01 0.  1.
         -5    1    5    5    0  503 -0.45124540908E+02 -0.38972821249E+02 -0.24988364165E+03  0.25694168473E+03  0.47000000000E+01 0.  1.
<mgrwt>
<rscale>  0 0.27541779E+03</rscale>
<asrwt>0</asrwt>
<pdfrwt beam="1">  1        2 0.65039800E-02 0.27541779E+03</pdfrwt>
<pdfrwt beam="2">  1       -2 0.69010961E-01 0.27541779E+03</pdfrwt>
<totfact> 0.21811169E+03</totfact>
</mgrwt>
</event>
<event>
 9    1  0.2114844E-002  0.2738936E+03  0.7818608E-02  0.1099072E+00
          2   -1    0    0  501    0  0.00000000000E+00  0.00000000000E+00  0.13422913636E+04  0.13422913636E+04  0.00000000000E+00 0.  1.
         -2   -1    0    0    0  501 -0.00000000000E+00 -0.00000000000E+00 -0.13971951549E+02  0.13971951549E+02  0.00000000000E+00 0.  1.
         36    2    1    2    0    0  0.17763568394E-14  0.00000000000E+00  0.13283194120E+04  0.13562633151E+04  0.27389362824E+03 0.  0.
         25    2    3    3    0    0  0.14192734877E+02 -0.55317299724E+02  0.61908258619E+03  0.63362123330E+03  0.12227502360E+03 0.  0.
         25    2    3    3    0    0 -0.14192734877E+02  0.55317299724E+02  0.70923682586E+03  0.72264208185E+03  0.12622704119E+03 0.  0.
          5    1    4    4  502    0 -0.13941429211E+02 -0.31608058978E+02  0.57480307666E+03  0.57585944446E+03  0.47000000000E+01 0.  1.
         -5    1    4    4    0  502  0.28134164088E+02 -0.23709240746E+02  0.44279509536E+02  0.57761788843E+02  0.47000000000E+01 0.  1.
          5    1    5    5  503    0  0.24401785772E+01  0.54375588573E+02  0.10685329932E+03  0.12000990242E+03  0.47000000000E+01 0. -1.
         -5    1    5    5    0  503 -0.16632913454E+02  0.94171115131E+00  0.60238352654E+03  0.60263217942E+03  0.47000000000E+01 0. -1.
<mgrwt>
<rscale>  0 0.27389363E+03</rscale>
<asrwt>0</asrwt>
<pdfrwt beam="1">  1        2 0.20650626E+00 0.27389363E+03</pdfrwt>
<pdfrwt beam="2">  1       -2 0.21495321E-02 0.27389363E+03</pdfrwt>
<totfact> 0.11545830E+04</totfact>
</mgrwt>
</event>
<event>
 9    1  0.2114844E-002  0.2745649E+03  0.7818608E-02  0.1098695E+00
         -1   -1    0    0    0  501 -0.00000000000E+00  0.00000000000E+00  0.20858001179E+02  0.20858001179E+02  0.00000000000E+00 0. -1.
          1   -1    0    0  501    0  0.00000000000E+00 -0.00000000000E+00 -0.90356063306E+03  0.90356063306E+03  0.00000000000E+00 0. -1.
         36    2    1    2    0    0  0.00000000000E+00  0.00000000000E+00 -0.88270263188E+03  0.92441863424E+03  0.27456488304E+03 0.  0.
         25    2    3    3    0    0  0.48534934749E+02  0.46317588916E+02 -0.30687169266E+03  0.33783090531E+03  0.12433232039E+03 0.  0.
         25    2    3    3    0    0 -0.48534934749E+02 -0.46317588916E+02 -0.57583093922E+03  0.58658772893E+03  0.89459120451E+02 0.  0.
          5    1    4    4  502    0  0.64390329432E+02  0.62249871052E+02 -0.30107275091E+03  0.31414654591E+03  0.47000000000E+01 0. -1.
         -5    1    4    4    0  502 -0.15855394684E+02 -0.15932282137E+02 -0.57989417538E+01  0.23684359399E+02  0.47000000000E+01 0. -1.
          5    1    5    5  503    0 -0.34355662534E+02  0.12327321158E+02 -0.93610748772E+02  0.10058497244E+03  0.47000000000E+01 0.  1.
         -5    1    5    5    0  503 -0.14179272214E+02 -0.58644910074E+02 -0.48222019045E+03  0.48600275649E+03  0.47000000000E+01 0.  1.
<mgrwt>
<rscale>  0 0.27456488E+03</rscale>
<asrwt>0</asrwt>
<pdfrwt beam="1">  1        1 0.13900930E+00 0.27456488E+03</pdfrwt>
<pdfrwt beam="2">  1       -1 0.32089239E-02 0.27456488E+03</pdfrwt>
<totfact> 0.64693083E+03</totfact>
</mgrwt>
</event>
<event>
 9    1  0.2114844E-002  0.2756767E+03  0.7818608E-02  0.1098074E+00
         -1   -1    0    0    0  501 -0.00000000000E+00  0.00000000000E+00  0.92021140276E+02  0.92021140276E+02  0.00000000000E+00 0.  1.
          1   -1    0    0  501    0  0.00000000000E+00 -0.00000000000E+00 -0.20646787337E+03  0.20646787337E+03  0.00000000000E+00 0.  1.
         36    2    1    2    0    0  0.71054273576E-14 -0.71054273576E-14 -0.11444673309E+03  0.29848901364E+03  0.27567668844E+03 0.  0.
         25    2    3    3    0    0  0.19195130249E+01 -0.44532602349E+02 -0.89155110997E+02  0.16350761008E+03  0.12961198839E+03 0.  0.
         25    2    3    3    0    0 -0.19195130249E+01  0.44532602349E+02 -0.25291622094E+02  0.13498140356E+03  0.12487384016E+03 0.  0.
          5    1    4    4  502    0  0.55476873557E+02  0.13097559196E+02 -0.47585849764E+02  0.74402504355E+02  0.47000000000E+01 0.  1.
         -5    1    4    4    0  502 -0.53557360532E+02 -0.57630161545E+02 -0.41569261233E+02  0.89105105726E+02  0.47000000000E+01 0.  1.
          5    1    5    5  503    0  0.34731534871E+02  0.27950835111E+02 -0.64541082817E+02  0.78582250344E+02  0.47000000000E+01 0.  1.
         -5    1    5    5    0  503 -0.36651047896E+02  0.16581767239E+02  0.39249460723E+02  0.56399153218E+02  0.47000000000E+01 0.  1.
<mgrwt>
<rscale>  0 0.27567669E+03</rscale>
<asrwt>0</asrwt>
<pdfrwt beam="1">  1        1 0.31764288E-01 0.27567669E+03</pdfrwt>
<pdfrwt beam="2">  1       -1 0.14157099E-01 0.27567669E+03</pdfrwt>
<totfact> 0.49314135E+03</totfact>
</mgrwt>
</event>
<event>
 9    1  0.2114844E-002  0.2750837E+03  0.7818608E-02  0.1098405E+00
          1   -1    0    0  501    0  0.00000000000E+00  0.00000000000E+00  0.46673429145E+03  0.46673429145E+03  0.00000000000E+00 0. -1.
         -1   -1    0    0    0  501 -0.00000000000E+00 -0.00000000000E+00 -0.40532173745E+02  0.40532173745E+02  0.00000000000E+00 0. -1.
         36    2    1    2    0    0  0.00000000000E+00  0.35527136788E-14  0.42620211771E+03  0.50726646520E+03  0.27508366287E+03 0.  0.
         25    2    3    3    0    0 -0.26367435736E+02  0.18356488080E+02  0.15232065660E+03  0.20391539840E+03  0.13171068657E+03 0.  0.
         25    2    3    3    0    0  0.26367435736E+02 -0.18356488080E+02  0.27388146111E+03  0.30335106680E+03  0.12640653728E+03 0.  0.
          5    1    4    4  502    0  0.39887092719E+02 -0.26688451611E+02  0.90739214401E+02  0.10275674501E+03  0.47000000000E+01 0.  1.
         -5    1    4    4    0  502 -0.66254528456E+02  0.45044939691E+02  0.61581442200E+02  0.10115865339E+03  0.47000000000E+01 0.  1.
          5    1    5    5  503    0 -0.33312496356E+02 -0.33100532403E+02  0.20731473883E+03  0.21261904570E+03  0.47000000000E+01 0. -1.
         -5    1    5    5    0  503  0.59679932093E+02  0.14744044323E+02  0.66566722281E+02  0.90732021100E+02  0.47000000000E+01 0. -1.
<mgrwt>
<rscale>  0 0.27508366E+03</rscale>
<asrwt>0</asrwt>
<pdfrwt beam="1">  1        1 0.71805272E-01 0.27508366E+03</pdfrwt>
<pdfrwt beam="2">  1       -1 0.62357194E-02 0.27508366E+03</pdfrwt>
<totfact> 0.62061070E+03</totfact>
</mgrwt>
</event>
<event>
 9    1  0.2114844E-002  0.2746277E+03  0.7818608E-02  0.1098660E+00
         -1   -1    0    0    0  501 -0.00000000000E+00  0.00000000000E+00  0.31316163308E+03  0.31316163308E+03  0.00000000000E+00 0. -1.
          1   -1    0    0  501    0  0.00000000000E+00 -0.00000000000E+00 -0.60208845114E+02  0.60208845114E+02  0.00000000000E+00 0. -1.
         36    2    1    2    0    0  0.00000000000E+00  0.00000000000E+00  0.25295278796E+03  0.37337047819E+03  0.27462774996E+03 0.  0.
         25    2    3    3    0    0  0.35653374236E+02  0.20105498796E+02  0.63406348743E+02  0.14355168379E+03  0.12211194324E+03 0.  0.
         25    2    3    3    0    0 -0.35653374236E+02 -0.20105498796E+02  0.18954643922E+03  0.22981879441E+03  0.12334273981E+03 0.  0.
          5    1    4    4  502    0  0.61993793115E+02 -0.31834767797E+02  0.28120243730E+02  0.75296221240E+02  0.47000000000E+01 0. -1.
         -5    1    4    4    0  502 -0.26340418880E+02  0.51940266592E+02  0.35286105013E+02  0.68255462547E+02  0.47000000000E+01 0. -1.
          5    1    5    5  503    0  0.25912915153E+02 -0.49727777704E+02  0.54178224236E+02  0.78113385719E+02  0.47000000000E+01 0.  1.
         -5    1    5    5    0  503 -0.61566289388E+02  0.29622278909E+02  0.13536821498E+03  0.15170540869E+03  0.47000000000E+01 0.  1.
<mgrwt>
<rscale>  0 0.27462775E+03</rscale>
<asrwt>0</asrwt>
<pdfrwt beam="1">  1        1 0.92628994E-02 0.27462775E+03</pdfrwt>
<pdfrwt beam="2">  1       -1 0.48178712E-01 0.27462775E+03</pdfrwt>
<totfact> 0.31207519E+03</totfact>
</mgrwt>
</event>
<event>
 9    1  0.2114844E-002  0.2747238E+03  0.7818608E-02  0.1098606E+00
          1   -1    0    0  501    0  0.00000000000E+00  0.00000000000E+00  0.23412141234E+02  0.23412141234E+02  0.00000000000E+00 0. -1.
         -1   -1    0    0    0  501 -0.00000000000E+00 -0.00000000000E+00 -0.80591915230E+03  0.80591915230E+03  0.00000000000E+00 0. -1.
         36    2    1    2    0    0  0.00000000000E+00  0.00000000000E+00 -0.78250701106E+03  0.82933129353E+03  0.27472381052E+03 0.  0.
         25    2    3    3    0    0  0.34537487639E+02 -0.41875254980E+02 -0.34952020253E+03  0.37492473311E+03  0.12432943531E+03 0.  0.
         25    2    3    3    0    0 -0.34537487639E+02  0.41875254980E+02 -0.43298680853E+03  0.45440656042E+03  0.12673346347E+03 0.  0.
          5    1    4    4  502    0  0.13219725917E+02  0.43991755485E+02 -0.14081537229E+03  0.14819276223E+03  0.47000000000E+01 0.  1.
         -5    1    4    4    0  502  0.21317761723E+02 -0.85867010465E+02 -0.20870483024E+03  0.22673197088E+03  0.47000000000E+01 0.  1.
          5    1    5    5  503    0 -0.65047048032E+02  0.33409887277E+02 -0.40593990244E+03  0.41250046475E+03  0.47000000000E+01 0. -1.
         -5    1    5    5    0  503  0.30509560393E+02  0.84653677025E+01 -0.27046906089E+02  0.41906095674E+02  0.47000000000E+01 0. -1.
<mgrwt>
<rscale>  0 0.27472381E+03</rscale>
<asrwt>0</asrwt>
<pdfrwt beam="1">  1        1 0.36018675E-02 0.27472381E+03</pdfrwt>
<pdfrwt beam="2">  1       -1 0.12398757E+00 0.27472381E+03</pdfrwt>
<totfact> 0.16093819E+03</totfact>
</mgrwt>
</event>
<event>
 9    1  0.2114844E-002  0.2750568E+03  0.7818608E-02  0.1098420E+00
         -1   -1    0    0    0  501 -0.00000000000E+00  0.00000000000E+00  0.67592995756E+02  0.67592995756E+02  0.00000000000E+00 0.  1.
          1   -1    0    0  501    0  0.00000000000E+00 -0.00000000000E+00 -0.27982283953E+03  0.27982283953E+03  0.00000000000E+00 0.  1.
         36    2    1    2    0    0  0.71054273576E-14  0.00000000000E+00 -0.21222984378E+03  0.34741583529E+03  0.27505682326E+03 0.  0.
         25    2    3    3    0    0 -0.13098440325E+02  0.23669060321E+02 -0.76226298388E+02  0.15772208907E+03  0.13540315824E+03 0.  0.
         25    2    3    3    0    0  0.13098440325E+02 -0.23669060321E+02 -0.13600354539E+03  0.18969374621E+03  0.12944094962E+03 0.  0.
          5    1    4    4  502    0  0.57173173652E+02  0.16199371988E+02 -0.93965176615E+01  0.60345471929E+02  0.47000000000E+01 0. -1.
         -5    1    4    4    0  502 -0.70271613977E+02  0.74696883325E+01 -0.66829780726E+02  0.97376617145E+02  0.47000000000E+01 0. -1.
          5    1    5    5  503    0 -0.49943445926E+02 -0.23134887347E+02 -0.10640178527E+03  0.11988745019E+03  0.47000000000E+01 0. -1.
         -5    1    5    5    0  503  0.63041886251E+02 -0.53417297401E+00 -0.29601760114E+02  0.69806296025E+02  0.47000000000E+01 0. -1.
<mgrwt>
<rscale>  0 0.27505682E+03</rscale>
<asrwt>0</asrwt>
<pdfrwt beam="1">  1        1 0.43049668E-01 0.27505682E+03</pdfrwt>
<pdfrwt beam="2">  1       -1 0.10398922E-01 0.27505682E+03</pdfrwt>
<totfact> 0.54525072E+03</totfact>
</mgrwt>
</event>
<event>
 9    1  0.2114844E-002  0.2749252E+03  0.7818608E-02  0.1098493E+00
         -2   -1    0    0    0  501 -0.00000000000E+00  0.00000000000E+00  0.48521338347E+02  0.48521338347E+02  0.00000000000E+00 0.  1.
          2   -1    0    0  501    0  0.00000000000E+00 -0.00000000000E+00 -0.38943617728E+03  0.38943617728E+03  0.00000000000E+00 0.  1.
         36    2    1    2    0    0  0.71054273576E-14  0.71054273576E-14 -0.34091483893E+03  0.43795751563E+03  0.27492518635E+03 0.  0.
         25    2    3    3    0    0 -0.29728208028E+02  0.34069223539E+02 -0.20068147742E+03  0.24096774931E+03  0.12549072667E+03 0.  0.
         25    2    3    3    0    0  0.29728208028E+02 -0.34069223539E+02 -0.14023336151E+03  0.19698976632E+03  0.13074820844E+03 0.  0.
          5    1    4    4  502    0 -0.73125226014E+02  0.42420154330E+01 -0.15333782377E+03  0.16999962228E+03  0.47000000000E+01 0. -1.
         -5    1    4    4    0  502  0.43397017985E+02  0.29827208106E+02 -0.47343653651E+02  0.70968127032E+02  0.47000000000E+01 0. -1.
          5    1    5    5  503    0  0.19468031720E+02 -0.66123496233E+02 -0.19825279011E+02  0.71878040465E+02  0.47000000000E+01 0.  1.
         -5    1    5    5    0  503  0.10260176308E+02  0.32054272694E+02 -0.12040808250E+03  0.12511172586E+03  0.47000000000E+01 0.  1.
<mgrwt>
<rscale>  0 0.27492519E+03</rscale>
<asrwt>0</asrwt>
<pdfrwt beam="1">  1        2 0.59913261E-01 0.27492519E+03</pdfrwt>
<pdfrwt beam="2">  1       -2 0.74648209E-02 0.27492519E+03</pdfrwt>
<totfact> 0.86069533E+03</totfact>
</mgrwt>
</event>
<event>
 8    1  0.2114844E-002  0.2961635E+03  0.7818608E-02  0.1087174E+00
          2   -1    0    0  501    0  0.00000000000E+00  0.00000000000E+00  0.49569285561E+03  0.49569285561E+03  0.00000000000E+00 0.  1.
         -2   -1    0    0    0  501 -0.00000000000E+00 -0.00000000000E+00 -0.44237483321E+02  0.44237483321E+02  0.00000000000E+00 0.  1.
         25    2    1    2    0    0  0.63258975880E+02  0.24883320872E+01  0.16693934317E+03  0.22069377572E+03  0.12972705391E+03 0.  0.
         25    2    1    2    0    0 -0.63258975880E+02 -0.24883320872E+01  0.28451602912E+03  0.31923656322E+03  0.13021030159E+03 0.  0.
          5    1    3    3  502    0  0.47739666773E+02  0.61636914116E+02  0.12119458520E+03  0.14418183813E+03  0.47000000000E+01 0. -1.
         -5    1    3    3    0  502  0.15519309107E+02 -0.59148582029E+02  0.45744757971E+02  0.76511937585E+02  0.47000000000E+01 0. -1.
          5    1    4    4  503    0  0.13363803986E+01  0.23097292838E+02 -0.26417444342E+01  0.23755834287E+02  0.47000000000E+01 0.  1.
         -5    1    4    4    0  503 -0.64595356279E+02 -0.25585624925E+02  0.28715777356E+03  0.29548072893E+03  0.47000000000E+01 0.  1.
<mgrwt>
<rscale>  0 0.29616350E+03</rscale>
<asrwt>0</asrwt>
<pdfrwt beam="1">  1        2 0.76260435E-01 0.29616350E+03</pdfrwt>
<pdfrwt beam="2">  1       -2 0.68057670E-02 0.29616350E+03</pdfrwt>
<totfact> 0.76378783E+03</totfact>
</mgrwt>
</event>
<event>
 9    1  0.2114844E-002  0.2740786E+03  0.7818608E-02  0.1098968E+00
          2   -1    0    0  501    0  0.00000000000E+00  0.00000000000E+00  0.29274916047E+03  0.29274916047E+03  0.00000000000E+00 0.  1.
         -2   -1    0    0    0  501 -0.00000000000E+00 -0.00000000000E+00 -0.64149688207E+02  0.64149688207E+02  0.00000000000E+00 0.  1.
         36    2    1    2    0    0  0.00000000000E+00  0.14210854715E-13  0.22859947226E+03  0.35689884868E+03  0.27407858265E+03 0.  0.
         25    2    3    3    0    0 -0.36332642798E+02  0.32329600444E+02  0.59297684061E+02  0.14694373517E+03  0.12534345604E+03 0.  0.
         25    2    3    3    0    0  0.36332642798E+02 -0.32329600444E+02  0.16930178820E+03  0.20995511351E+03  0.11424880832E+03 0.  0.
          5    1    4    4  502    0  0.93492462801E+01 -0.41231920927E+02  0.39375619724E+02  0.57965585807E+02  0.47000000000E+01 0.  1.
         -5    1    4    4    0  502 -0.45681889078E+02  0.73561521372E+02  0.19922064337E+02  0.88978149361E+02  0.47000000000E+01 0.  1.
          5    1    5    5  503    0  0.62373613316E+02 -0.37855560103E+02  0.52357871945E+02  0.89927458674E+02  0.47000000000E+01 0. -1.
         -5    1    5    5    0  503 -0.26040970518E+02  0.55259596590E+01  0.11694391626E+03  0.12002765484E+03  0.47000000000E+01 0. -1.
<mgrwt>
<rscale>  0 0.27407858E+03</rscale>
<asrwt>0</asrwt>
<pdfrwt beam="1">  1        2 0.45038331E-01 0.27407858E+03</pdfrwt>
<pdfrwt beam="2">  1       -2 0.98691830E-02 0.27407858E+03</pdfrwt>
<totfact> 0.75511671E+03</totfact>
</mgrwt>
</event>
<event>
 9    1  0.2114844E-002  0.2752641E+03  0.7818608E-02  0.1098304E+00
         -1   -1    0    0    0  501 -0.00000000000E+00  0.00000000000E+00  0.10019644533E+04  0.10019644533E+04  0.00000000000E+00 0.  1.
          1   -1    0    0  501    0  0.00000000000E+00 -0.00000000000E+00 -0.18905439136E+02  0.18905439136E+02  0.00000000000E+00 0.  1.
         36    2    1    2    0    0  0.00000000000E+00  0.00000000000E+00  0.98305901416E+03  0.10208698924E+04  0.27526407676E+03 0.  0.
         25    2    3    3    0    0 -0.16269418140E+02  0.32814516639E+02  0.64114529856E+03  0.65427308356E+03  0.12515785049E+03 0.  0.
         25    2    3    3    0    0  0.16269418140E+02 -0.32814516639E+02  0.34191371560E+03  0.36659680887E+03  0.12706984257E+03 0.  0.
          5    1    4    4  502    0 -0.21772969310E+01  0.79601690799E+02  0.44394497886E+03  0.45105476836E+03  0.47000000000E+01 0. -1.
         -5    1    4    4    0  502 -0.14092121209E+02 -0.46787174160E+02  0.19720031970E+03  0.20321831521E+03  0.47000000000E+01 0. -1.
          5    1    5    5  503    0 -0.11162411633E+02 -0.70534312080E+02  0.11945228809E+03  0.13925023427E+03  0.47000000000E+01 0. -1.
         -5    1    5    5    0  503  0.27431829773E+02  0.37719795441E+02  0.22246142751E+03  0.22734657460E+03  0.47000000000E+01 0. -1.
<mgrwt>
<rscale>  0 0.27526408E+03</rscale>
<asrwt>0</asrwt>
<pdfrwt beam="1">  1        1 0.29085299E-02 0.27526408E+03</pdfrwt>
<pdfrwt beam="2">  1       -1 0.15414834E+00 0.27526408E+03</pdfrwt>
<totfact> 0.12521007E+03</totfact>
</mgrwt>
</event>
<event>
 9    1  0.2114844E-002  0.2748164E+03  0.7818608E-02  0.1098554E+00
          2   -1    0    0  501    0  0.00000000000E+00  0.00000000000E+00  0.43613919495E+03  0.43613919495E+03  0.00000000000E+00 0. -1.
         -2   -1    0    0    0  501 -0.00000000000E+00 -0.00000000000E+00 -0.43291244446E+02  0.43291244446E+02  0.00000000000E+00 0. -1.
         36    2    1    2    0    0  0.00000000000E+00 -0.71054273576E-14  0.39284795050E+03  0.47943043939E+03  0.27481636415E+03 0.  0.
         25    2    3    3    0    0  0.63884804762E+02 -0.96757485412E+01  0.28109930794E+03  0.29962052519E+03  0.81121820721E+02 0.  0.
         25    2    3    3    0    0 -0.63884804762E+02  0.96757485412E+01  0.11174864256E+03  0.17980991421E+03  0.12517570749E+03 0.  0.
          5    1    4    4  502    0  0.35006580611E+02 -0.45378226121E+02  0.16033195815E+03  0.17033223681E+03  0.47000000000E+01 0. -1.
         -5    1    4    4    0  502  0.28878224150E+02  0.35702477580E+02  0.12076734980E+03  0.12928828838E+03  0.47000000000E+01 0. -1.
          5    1    5    5  503    0 -0.15661049154E+02 -0.24806831237E+02  0.11642520507E+03  0.12015642185E+03  0.47000000000E+01 0.  1.
         -5    1    5    5    0  503 -0.48223755607E+02  0.34482579778E+02 -0.46765625149E+01  0.59653492354E+02  0.47000000000E+01 0.  1.
<mgrwt>
<rscale>  0 0.27481636E+03</rscale>
<asrwt>0</asrwt>
<pdfrwt beam="1">  1        2 0.67098335E-01 0.27481636E+03</pdfrwt>
<pdfrwt beam="2">  1       -2 0.66601918E-02 0.27481636E+03</pdfrwt>
<totfact> 0.90773250E+03</totfact>
</mgrwt>
</event>
<event>
 9    1  0.2114844E-002  0.2751450E+03  0.7818608E-02  0.1098371E+00
         -2   -1    0    0    0  501 -0.00000000000E+00  0.00000000000E+00  0.98232592172E+02  0.98232592172E+02  0.00000000000E+00 0.  1.
          2   -1    0    0  501    0  0.00000000000E+00 -0.00000000000E+00 -0.19266716638E+03  0.19266716638E+03  0.00000000000E+00 0.  1.
         36    2    1    2    0    0  0.00000000000E+00  0.00000000000E+00 -0.94434574212E+02  0.29089975856E+03  0.27514501762E+03 0.  0.
         25    2    3    3    0    0 -0.48671521838E+02  0.34532338802E+02 -0.76938513835E+02  0.14927295641E+03  0.11314363059E+03 0.  0.
         25    2    3    3    0    0  0.48671521838E+02 -0.34532338802E+02 -0.17496060377E+02  0.14162680215E+03  0.12724244377E+03 0.  0.
          5    1    4    4  502    0 -0.30008856586E+02  0.76158251379E+02 -0.47033598326E+02  0.94524388907E+02  0.47000000000E+01 0. -1.
         -5    1    4    4    0  502 -0.18662665252E+02 -0.41625912577E+02 -0.29904915509E+02  0.54748567504E+02  0.47000000000E+01 0. -1.
          5    1    5    5  503    0  0.66789839898E+02 -0.33753658332E+01  0.36656338358E+02  0.76407152479E+02  0.47000000000E+01 0. -1.
         -5    1    5    5    0  503 -0.18118318060E+02 -0.31156972968E+02 -0.54152398735E+02  0.65219649667E+02  0.47000000000E+01 0. -1.
<mgrwt>
<rscale>  0 0.27514502E+03</rscale>
<asrwt>0</asrwt>
<pdfrwt beam="1">  1        2 0.29641102E-01 0.27514502E+03</pdfrwt>
<pdfrwt beam="2">  1       -2 0.15112707E-01 0.27514502E+03</pdfrwt>
<totfact> 0.59640028E+03</totfact>
</mgrwt>
</event>
<event>
 9    1  0.2114844E-002  0.2731239E+03  0.7818608E-02  0.1099505E+00
          2   -1    0    0  501    0  0.00000000000E+00  0.00000000000E+00  0.15185249351E+04  0.15185249351E+04  0.00000000000E+00 0. -1.
         -2   -1    0    0    0  501 -0.00000000000E+00 -0.00000000000E+00 -0.12281108714E+02  0.12281108714E+02  0.00000000000E+00 0. -1.
         36    2    1    2    0    0  0.35527136788E-14 -0.14210854715E-13  0.15062438264E+04  0.15308060439E+04  0.27312392655E+03 0.  0.
         25    2    3    3    0    0 -0.24790058764E+02 -0.44332615593E+02  0.56838456942E+03  0.58418710463E+03  0.12503450178E+03 0.  0.
         25    2    3    3    0    0  0.24790058764E+02  0.44332615593E+02  0.93785925700E+03  0.94661893923E+03  0.11801483949E+03 0.  0.
          5    1    4    4  502    0 -0.65596595576E+02  0.67664497485E+01  0.34936269760E+03  0.35556305020E+03  0.47000000000E+01 0. -1.
         -5    1    4    4    0  502  0.40806536812E+02 -0.51099065342E+02  0.21902187182E+03  0.22862405442E+03  0.47000000000E+01 0. -1.
          5    1    5    5  503    0 -0.52647537452E+01 -0.32457632862E+02  0.49567613456E+03  0.49678781782E+03  0.47000000000E+01 0. -1.
         -5    1    5    5    0  503  0.30054812509E+02  0.76790248455E+02  0.44218312244E+03  0.44983112141E+03  0.47000000000E+01 0. -1.
<mgrwt>
<rscale>  0 0.27312393E+03</rscale>
<asrwt>0</asrwt>
<pdfrwt beam="1">  1        2 0.23361907E+00 0.27312393E+03</pdfrwt>
<pdfrwt beam="2">  1       -2 0.18894025E-02 0.27312393E+03</pdfrwt>
<totfact> 0.11208334E+04</totfact>
</mgrwt>
</event>
<event>
 9    1  0.2114844E-002  0.2798057E+03  0.7818608E-02  0.1095795E+00
          1   -1    0    0  501    0  0.00000000000E+00  0.00000000000E+00  0.12114917853E+04  0.12114917853E+04  0.00000000000E+00 0. -1.
         -1   -1    0    0    0  501 -0.00000000000E+00 -0.00000000000E+00 -0.16155951501E+02  0.16155951501E+02  0.00000000000E+00 0. -1.
         36    2    1    2    0    0  0.35527136788E-14  0.00000000000E+00  0.11953358338E+04  0.12276477368E+04  0.27980566490E+03 0.  0.
         25    2    3    3    0    0 -0.23743685549E+02 -0.13614613871E+02  0.35622058396E+03  0.37837321363E+03  0.12459560202E+03 0.  0.
         25    2    3    3    0    0  0.23743685549E+02  0.13614613871E+02  0.83911524984E+03  0.84927452317E+03  0.12807690221E+03 0.  0.
          5    1    4    4  502    0 -0.20623115335E+02 -0.33292197858E+02  0.25387298163E+02  0.46907230065E+02  0.47000000000E+01 0. -1.
         -5    1    4    4    0  502 -0.31205702147E+01  0.19677583987E+02  0.33083328580E+03  0.33146598357E+03  0.47000000000E+01 0. -1.
          5    1    5    5  503    0  0.48725644040E-01 -0.42200052814E+02  0.11463720542E+03  0.12224821348E+03  0.47000000000E+01 0. -1.
         -5    1    5    5    0  503  0.23694959905E+02  0.55814666685E+02  0.72447804442E+03  0.72702630970E+03  0.47000000000E+01 0. -1.
<mgrwt>
<rscale>  0 0.27980566E+03</rscale>
<asrwt>0</asrwt>
<pdfrwt beam="1">  1        1 0.18638328E+00 0.27980566E+03</pdfrwt>
<pdfrwt beam="2">  1       -1 0.24855319E-02 0.27980566E+03</pdfrwt>
<totfact> 0.56000357E+03</totfact>
</mgrwt>
</event>
<event>
 9    1  0.2114844E-002  0.2759699E+03  0.7818608E-02  0.1097911E+00
         -2   -1    0    0    0  501 -0.00000000000E+00  0.00000000000E+00  0.16541812539E+02  0.16541812539E+02  0.00000000000E+00 0. -1.
          2   -1    0    0  501    0  0.00000000000E+00 -0.00000000000E+00 -0.11510129623E+04  0.11510129623E+04  0.00000000000E+00 0. -1.
         36    2    1    2    0    0  0.00000000000E+00  0.00000000000E+00 -0.11344711498E+04  0.11675547749E+04  0.27596985816E+03 0.  0.
         25    2    3    3    0    0  0.54239078845E+02 -0.11788182594E+02 -0.50753632343E+03  0.52569493359E+03  0.12522461692E+03 0.  0.
         25    2    3    3    0    0 -0.54239078845E+02  0.11788182594E+02 -0.62693482635E+03  0.64185984126E+03  0.12592037331E+03 0.  0.
          5    1    4    4  502    0  0.42168813579E+02  0.14724643651E+02 -0.48854240358E+03  0.49060248069E+03  0.47000000000E+01 0. -1.
         -5    1    4    4    0  502  0.12070265266E+02 -0.26512826246E+02 -0.18993919851E+02  0.35092452899E+02  0.47000000000E+01 0. -1.
          5    1    5    5  503    0  0.25301981925E+02 -0.33585769954E+02 -0.27205258032E+03  0.27532324764E+03  0.47000000000E+01 0. -1.
         -5    1    5    5    0  503 -0.79541060771E+02  0.45373952549E+02 -0.35488224603E+03  0.36653659363E+03  0.47000000000E+01 0. -1.
<mgrwt>
<rscale>  0 0.27596986E+03</rscale>
<asrwt>0</asrwt>
<pdfrwt beam="1">  1        2 0.17707894E+00 0.27596986E+03</pdfrwt>
<pdfrwt beam="2">  1       -2 0.25448939E-02 0.27596986E+03</pdfrwt>
<totfact> 0.11524517E+04</totfact>
</mgrwt>
</event>
<event>
 9    1  0.2114844E-002  0.2741033E+03  0.7818608E-02  0.1098954E+00
         -1   -1    0    0    0  501 -0.00000000000E+00  0.00000000000E+00  0.44967743755E+03  0.44967743755E+03  0.00000000000E+00 0.  1.
          1   -1    0    0  501    0  0.00000000000E+00 -0.00000000000E+00 -0.41770294171E+02  0.41770294171E+02  0.00000000000E+00 0.  1.
         36    2    1    2    0    0  0.35527136788E-14  0.71054273576E-14  0.40790714338E+03  0.49144773172E+03  0.27410332978E+03 0.  0.
         25    2    3    3    0    0 -0.74181755355E+01 -0.74672938572E+01  0.13389692444E+03  0.18400216186E+03  0.12576811753E+03 0.  0.
         25    2    3    3    0    0  0.74181755355E+01  0.74672938572E+01  0.27401021893E+03  0.30744556986E+03  0.13903376763E+03 0.  0.
          5    1    4    4  502    0 -0.53533438512E+02 -0.24818090591E+02  0.24754001824E+02  0.64160870207E+02  0.47000000000E+01 0.  1.
         -5    1    4    4    0  502  0.46115262977E+02  0.17350796733E+02  0.10914292262E+03  0.11984129165E+03  0.47000000000E+01 0.  1.
          5    1    5    5  503    0  0.23691185188E+02  0.69233129247E+02  0.17225733596E+03  0.18721425756E+03  0.47000000000E+01 0.  1.
         -5    1    5    5    0  503 -0.16273009652E+02 -0.61765835390E+02  0.10175288298E+03  0.12023131230E+03  0.47000000000E+01 0.  1.
<mgrwt>
<rscale>  0 0.27410333E+03</rscale>
<asrwt>0</asrwt>
<pdfrwt beam="1">  1        1 0.64261994E-02 0.27410333E+03</pdfrwt>
<pdfrwt beam="2">  1       -1 0.69181141E-01 0.27410333E+03</pdfrwt>
<totfact> 0.25732103E+03</totfact>
</mgrwt>
</event>
<event>
 9    1  0.2114844E-002  0.2750604E+03  0.7818608E-02  0.1098418E+00
          1   -1    0    0  501    0  0.00000000000E+00  0.00000000000E+00  0.65621879864E+03  0.65621879864E+03  0.00000000000E+00 0.  1.
         -1   -1    0    0    0  501 -0.00000000000E+00 -0.00000000000E+00 -0.28823557260E+02  0.28823557260E+02  0.00000000000E+00 0.  1.
         36    2    1    2    0    0 -0.35527136788E-14  0.00000000000E+00  0.62739524138E+03  0.68504235590E+03  0.27506043058E+03 0.  0.
         25    2    3    3    0    0 -0.24899193162E+02 -0.13232377992E+02  0.43847290289E+03  0.45635716327E+03  0.12332196984E+03 0.  0.
         25    2    3    3    0    0  0.24899193162E+02  0.13232377992E+02  0.18892233849E+03  0.22868519263E+03  0.12573862455E+03 0.  0.
          5    1    4    4  502    0 -0.29694780987E+02  0.26768810236E+02  0.43350322747E+02  0.59158175273E+02  0.47000000000E+01 0.  1.
         -5    1    4    4    0  502  0.47955878250E+01 -0.40001188227E+02  0.39512258015E+03  0.39719898799E+03  0.47000000000E+01 0.  1.
          5    1    5    5  503    0  0.40837388218E+01  0.67373238623E+02  0.12572719055E+03  0.14277691217E+03  0.47000000000E+01 0.  1.
         -5    1    5    5    0  503  0.20815454340E+02 -0.54140860631E+02  0.63195147936E+02  0.85908280462E+02  0.47000000000E+01 0.  1.
<mgrwt>
<rscale>  0 0.27506043E+03</rscale>
<asrwt>0</asrwt>
<pdfrwt beam="1">  1        1 0.10095673E+00 0.27506043E+03</pdfrwt>
<pdfrwt beam="2">  1       -1 0.44343939E-02 0.27506043E+03</pdfrwt>
<totfact> 0.65071580E+03</totfact>
</mgrwt>
</event>
<event>
 9    1  0.2114844E-002  0.2745953E+03  0.7818608E-02  0.1098678E+00
         -2   -1    0    0    0  501 -0.00000000000E+00  0.00000000000E+00  0.34325977785E+02  0.34325977785E+02  0.00000000000E+00 0. -1.
          2   -1    0    0  501    0  0.00000000000E+00 -0.00000000000E+00 -0.54916539035E+03  0.54916539035E+03  0.00000000000E+00 0. -1.
         36    2    1    2    0    0  0.71054273576E-14  0.00000000000E+00 -0.51483941256E+03  0.58349136813E+03  0.27459525844E+03 0.  0.
         25    2    3    3    0    0 -0.57461077747E+02 -0.22347065129E+02 -0.26926991651E+03  0.30372958085E+03  0.12627035903E+03 0.  0.
         25    2    3    3    0    0  0.57461077747E+02  0.22347065129E+02 -0.24556949605E+03  0.27976178728E+03  0.11900047671E+03 0.  0.
          5    1    4    4  502    0 -0.33828081410E+02  0.18652933135E+02 -0.10061119086E+02  0.40194366815E+02  0.47000000000E+01 0. -1.
         -5    1    4    4    0  502 -0.23632996336E+02 -0.40999998264E+02 -0.25920879743E+03  0.26353521404E+03  0.47000000000E+01 0. -1.
          5    1    5    5  503    0  0.18459252257E+01  0.22985561553E+02 -0.21468295035E+03  0.21596898539E+03  0.47000000000E+01 0.  1.
         -5    1    5    5    0  503  0.55615152521E+02 -0.63849642351E+00 -0.30886545699E+02  0.63792801889E+02  0.47000000000E+01 0.  1.
<mgrwt>
<rscale>  0 0.27459526E+03</rscale>
<asrwt>0</asrwt>
<pdfrwt beam="1">  1        2 0.84486981E-01 0.27459526E+03</pdfrwt>
<pdfrwt beam="2">  1       -2 0.52809198E-02 0.27459526E+03</pdfrwt>
<totfact> 0.10018810E+04</totfact>
</mgrwt>
</event>
<event>
 9    1  0.2114844E-002  0.2745795E+03  0.7818608E-02  0.1098687E+00
          3   -1    0    0  501    0  0.00000000000E+00  0.00000000000E+00  0.10070699616E+04  0.10070699616E+04  0.00000000000E+00 0.  1.
         -3   -1    0    0    0  501 -0.00000000000E+00 -0.00000000000E+00 -0.18716156297E+02  0.18716156297E+02  0.00000000000E+00 0.  1.
         36    2    1    2    0    0  0.35527136788E-14  0.00000000000E+00  0.98835380534E+03  0.10257861179E+04  0.27457952440E+03 0.  0.
         25    2    3    3    0    0  0.97211898849E+01  0.53919343484E+01  0.16962654469E+03  0.19733241471E+03  0.10021647940E+03 0.  0.
         25    2    3    3    0    0 -0.97211898849E+01 -0.53919343484E+01  0.81872726065E+03  0.82845370323E+03  0.12608583015E+03 0.  0.
          5    1    4    4  502    0  0.24126476993E+02  0.48792578179E+02  0.98680306487E+02  0.11279492660E+03  0.47000000000E+01 0.  1.
         -5    1    4    4    0  502 -0.14405287109E+02 -0.43400643831E+02  0.70946238198E+02  0.84537488111E+02  0.47000000000E+01 0.  1.
          5    1    5    5  503    0 -0.46073323856E+02 -0.77519669958E+01  0.74098306106E+03  0.74246941415E+03  0.47000000000E+01 0. -1.
         -5    1    5    5    0  503  0.36352133971E+02  0.23600326474E+01  0.77744199593E+02  0.85984289081E+02  0.47000000000E+01 0. -1.
<mgrwt>
<rscale>  0 0.27457952E+03</rscale>
<asrwt>0</asrwt>
<pdfrwt beam="1">  1        3 0.15493380E+00 0.27457952E+03</pdfrwt>
<pdfrwt beam="2">  1       -3 0.28794094E-02 0.27457952E+03</pdfrwt>
<totfact> 0.43548112E+02</totfact>
</mgrwt>
</event>
<event>
 9    1  0.2114844E-002  0.2754589E+03  0.7818608E-02  0.1098195E+00
         -2   -1    0    0    0  501 -0.00000000000E+00  0.00000000000E+00  0.52314729713E+02  0.52314729713E+02  0.00000000000E+00 0. -1.
          2   -1    0    0  501    0  0.00000000000E+00 -0.00000000000E+00 -0.36260156071E+03  0.36260156071E+03  0.00000000000E+00 0. -1.
         36    2    1    2    0    0  0.00000000000E+00  0.14210854715E-13 -0.31028683100E+03  0.41491629043E+03  0.27545890904E+03 0.  0.
         25    2    3    3    0    0  0.46227708614E+02 -0.37016756253E+02 -0.19326410152E+03  0.23777232882E+03  0.12520952890E+03 0.  0.
         25    2    3    3    0    0 -0.46227708614E+02  0.37016756253E+02 -0.11702272948E+03  0.17714396161E+03  0.11907318184E+03 0.  0.
          5    1    4    4  502    0  0.60242766583E+02  0.19364205407E+02 -0.15646353766E+03  0.16884043353E+03  0.47000000000E+01 0.  1.
         -5    1    4    4    0  502 -0.14015057969E+02 -0.56380961660E+02 -0.36800563860E+02  0.68931895288E+02  0.47000000000E+01 0.  1.
          5    1    5    5  503    0 -0.21740350363E+02 -0.37352574880E+02 -0.10265724500E+02  0.44669148006E+02  0.47000000000E+01 0.  1.
         -5    1    5    5    0  503 -0.24487358251E+02  0.74369331133E+02 -0.10675700498E+03  0.13247481360E+03  0.47000000000E+01 0.  1.
<mgrwt>
<rscale>  0 0.27545891E+03</rscale>
<asrwt>0</asrwt>
<pdfrwt beam="1">  1        2 0.55784855E-01 0.27545891E+03</pdfrwt>
<pdfrwt beam="2">  1       -2 0.80484200E-02 0.27545891E+03</pdfrwt>
<totfact> 0.82695922E+03</totfact>
</mgrwt>
</event>
<event>
 9    1  0.2114844E-002  0.2739192E+03  0.7818608E-02  0.1099057E+00
         -2   -1    0    0    0  501 -0.00000000000E+00  0.00000000000E+00  0.23385707334E+02  0.23385707334E+02  0.00000000000E+00 0.  1.
          2   -1    0    0  501    0  0.00000000000E+00 -0.00000000000E+00 -0.80211103848E+03  0.80211103848E+03  0.00000000000E+00 0.  1.
         36    2    1    2    0    0  0.53290705182E-14 -0.71054273576E-14 -0.77872533114E+03  0.82549674581E+03  0.27391921433E+03 0.  0.
         25    2    3    3    0    0 -0.46524744455E+01  0.53742347485E+02 -0.44589144992E+03  0.46631955823E+03  0.12539880321E+03 0.  0.
         25    2    3    3    0    0  0.46524744455E+01 -0.53742347485E+02 -0.33283388123E+03  0.35917718758E+03  0.12377388317E+03 0.  0.
          5    1    4    4  502    0 -0.13025240226E+02 -0.36837219944E+02 -0.20582791061E+03  0.20955633238E+03  0.47000000000E+01 0. -1.
         -5    1    4    4    0  502  0.83727657806E+01  0.90579567429E+02 -0.24006353931E+03  0.25676322585E+03  0.47000000000E+01 0. -1.
          5    1    5    5  503    0 -0.57858952730E+02 -0.10837016496E+02 -0.14493344768E+03  0.15650205620E+03  0.47000000000E+01 0. -1.
         -5    1    5    5    0  503  0.62511427175E+02 -0.42905330989E+02 -0.18790043355E+03  0.20267513138E+03  0.47000000000E+01 0. -1.
<mgrwt>
<rscale>  0 0.27391921E+03</rscale>
<asrwt>0</asrwt>
<pdfrwt beam="1">  1        2 0.12340168E+00 0.27391921E+03</pdfrwt>
<pdfrwt beam="2">  1       -2 0.35978017E-02 0.27391921E+03</pdfrwt>
<totfact> 0.11360522E+04</totfact>
</mgrwt>
</event>
<event>
 9    1  0.2114844E-002  0.2760318E+03  0.7818608E-02  0.1097876E+00
          2   -1    0    0  501    0  0.00000000000E+00  0.00000000000E+00  0.51533574079E+03  0.51533574079E+03  0.00000000000E+00 0. -1.
         -2   -1    0    0    0  501 -0.00000000000E+00 -0.00000000000E+00 -0.36963060609E+02  0.36963060609E+02  0.00000000000E+00 0. -1.
         36    2    1    2    0    0  0.00000000000E+00  0.00000000000E+00  0.47837268018E+03  0.55229880140E+03  0.27603178238E+03 0.  0.
         25    2    3    3    0    0  0.29723709885E+02 -0.37745302214E+02  0.17647045646E+03  0.22120591104E+03  0.12442679095E+03 0.  0.
         25    2    3    3    0    0 -0.29723709885E+02  0.37745302214E+02  0.30190222372E+03  0.33109289036E+03  0.12715872991E+03 0.  0.
          5    1    4    4  502    0  0.60341314641E+02 -0.49216343021E+01  0.16324886885E+03  0.17417686389E+03  0.47000000000E+01 0.  1.
         -5    1    4    4    0  502 -0.30617604756E+02 -0.32823667912E+02  0.13221587616E+02  0.47029047144E+02  0.47000000000E+01 0.  1.
          5    1    5    5  503    0 -0.69952007950E+02  0.14003698040E+02  0.25459995427E+03  0.26444775228E+03  0.47000000000E+01 0.  1.
         -5    1    5    5    0  503  0.40228298065E+02  0.23741604174E+02  0.47302269452E+02  0.66645138077E+02  0.47000000000E+01 0.  1.
<mgrwt>
<rscale>  0 0.27603178E+03</rscale>
<asrwt>0</asrwt>
<pdfrwt beam="1">  1        2 0.79282416E-01 0.27603178E+03</pdfrwt>
<pdfrwt beam="2">  1       -2 0.56866251E-02 0.27603178E+03</pdfrwt>
<totfact> 0.96176857E+03</totfact>
</mgrwt>
</event>
<event>
 9    1  0.2114844E-002  0.2746559E+03  0.7818608E-02  0.1098644E+00
         -2   -1    0    0    0  501 -0.00000000000E+00  0.00000000000E+00  0.36408463508E+02  0.36408463508E+02  0.00000000000E+00 0. -1.
          2   -1    0    0  501    0  0.00000000000E+00 -0.00000000000E+00 -0.51798304295E+03  0.51798304295E+03  0.00000000000E+00 0. -1.
         36    2    1    2    0    0 -0.71054273576E-14 -0.71054273576E-14 -0.48157457944E+03  0.55439150646E+03  0.27465590630E+03 0.  0.
         25    2    3    3    0    0  0.25851387872E+02 -0.44545868376E+02 -0.28025423207E+03  0.31127905993E+03  0.12529800442E+03 0.  0.
         25    2    3    3    0    0 -0.25851387872E+02  0.44545868376E+02 -0.20132034737E+03  0.24311244653E+03  0.12617904243E+03 0.  0.
          5    1    4    4  502    0 -0.58312100425E+01 -0.64895702402E+02 -0.26036542789E+03  0.26843565569E+03  0.47000000000E+01 0. -1.
         -5    1    4    4    0  502  0.31682597914E+02  0.20349834025E+02 -0.19888804176E+02  0.42843404242E+02  0.47000000000E+01 0. -1.
          5    1    5    5  503    0  0.48882968198E+02  0.32724227812E+02 -0.10601798279E+03  0.12133557739E+03  0.47000000000E+01 0.  1.
         -5    1    5    5    0  503 -0.74734356069E+02  0.11821640565E+02 -0.95302364580E+02  0.12177686914E+03  0.47000000000E+01 0.  1.
<mgrwt>
<rscale>  0 0.27465591E+03</rscale>
<asrwt>0</asrwt>
<pdfrwt beam="1">  1        2 0.79689702E-01 0.27465591E+03</pdfrwt>
<pdfrwt beam="2">  1       -2 0.56013018E-02 0.27465591E+03</pdfrwt>
<totfact> 0.97841298E+03</totfact>
</mgrwt>
</event>
<event>
 9    1  0.2114844E-002  0.2749713E+03  0.7818608E-02  0.1098468E+00
          2   -1    0    0  501    0  0.00000000000E+00  0.00000000000E+00  0.24705152048E+04  0.24705152048E+04  0.00000000000E+00 0. -1.
         -2   -1    0    0    0  501 -0.00000000000E+00 -0.00000000000E+00 -0.76511574237E+01  0.76511574237E+01  0.00000000000E+00 0. -1.
         36    2    1    2    0    0 -0.71054273576E-14  0.71054273576E-14  0.24628640474E+04  0.24781663622E+04  0.27497127668E+03 0.  0.
         25    2    3    3    0    0  0.44025750970E+02 -0.34549665026E+02  0.14090830895E+04  0.14156346362E+04  0.12399324206E+03 0.  0.
         25    2    3    3    0    0 -0.44025750970E+02  0.34549665026E+02  0.10537809579E+04  0.10625317260E+04  0.12404602154E+03 0.  0.
          5    1    4    4  502    0  0.43019628442E+02 -0.74419994490E+02  0.11734755699E+04  0.11766290950E+04  0.47000000000E+01 0. -1.
         -5    1    4    4    0  502  0.10061225286E+01  0.39870329464E+02  0.23560751962E+03  0.23900554126E+03  0.47000000000E+01 0. -1.
          5    1    5    5  503    0 -0.33443415310E+02 -0.44538631614E+02  0.40172657282E+03  0.40559645097E+03  0.47000000000E+01 0.  1.
         -5    1    5    5    0  503 -0.10582335661E+02  0.79088296640E+02  0.65205438507E+03  0.65693527503E+03  0.47000000000E+01 0.  1.
<mgrwt>
<rscale>  0 0.27497128E+03</rscale>
<asrwt>0</asrwt>
<pdfrwt beam="1">  1        2 0.38007863E+00 0.27497128E+03</pdfrwt>
<pdfrwt beam="2">  1       -2 0.11771031E-02 0.27497128E+03</pdfrwt>
<totfact> 0.69992068E+03</totfact>
</mgrwt>
</event>
<event>
 9    1  0.2114844E-002  0.2758740E+03  0.7818608E-02  0.1097964E+00
          1   -1    0    0  501    0  0.00000000000E+00  0.00000000000E+00  0.13726738369E+04  0.13726738369E+04  0.00000000000E+00 0.  1.
         -1   -1    0    0    0  501 -0.00000000000E+00 -0.00000000000E+00 -0.13860985063E+02  0.13860985063E+02  0.00000000000E+00 0.  1.
         36    2    1    2    0    0  0.00000000000E+00  0.00000000000E+00  0.13588128519E+04  0.13865348220E+04  0.27587396797E+03 0.  0.
         25    2    3    3    0    0  0.30451659589E+02  0.80830048624E+01  0.87616592924E+03  0.88608659345E+03  0.12841369470E+03 0.  0.
         25    2    3    3    0    0 -0.30451659589E+02 -0.80830048624E+01  0.48264692263E+03  0.50044822855E+03  0.12848244625E+03 0.  0.
          5    1    4    4  502    0  0.65906938730E+01 -0.41660890035E+02  0.10970119801E+03  0.11762444410E+03  0.47000000000E+01 0. -1.
         -5    1    4    4    0  502  0.23860965716E+02  0.49743894897E+02  0.76646473123E+03  0.76846214935E+03  0.47000000000E+01 0. -1.
          5    1    5    5  503    0 -0.72061699042E+01  0.23333307108E+02  0.44591838955E+03  0.44661132122E+03  0.47000000000E+01 0. -1.
         -5    1    5    5    0  503 -0.23245489685E+02 -0.31416311970E+02  0.36728533086E+02  0.53836907333E+02  0.47000000000E+01 0. -1.
<mgrwt>
<rscale>  0 0.27587397E+03</rscale>
<asrwt>0</asrwt>
<pdfrwt beam="1">  1        1 0.21118048E+00 0.27587397E+03</pdfrwt>
<pdfrwt beam="2">  1       -1 0.21324603E-02 0.27587397E+03</pdfrwt>
<totfact> 0.54352791E+03</totfact>
</mgrwt>
</event>
<event>
 9    1  0.2114844E-002  0.2728972E+03  0.7818608E-02  0.1099633E+00
          3   -1    0    0  501    0  0.00000000000E+00  0.00000000000E+00  0.13418310195E+03  0.13418310195E+03  0.00000000000E+00 0. -1.
         -3   -1    0    0    0  501 -0.00000000000E+00 -0.00000000000E+00 -0.13875231166E+03  0.13875231166E+03  0.00000000000E+00 0. -1.
         36    2    1    2    0    0 -0.71054273576E-14  0.35527136788E-14 -0.45692097112E+01  0.27293541362E+03  0.27289716438E+03 0.  0.
         25    2    3    3    0    0  0.85415602823E+01  0.21277285534E+02 -0.25817427535E+02  0.13091456403E+03  0.12627906548E+03 0.  0.
         25    2    3    3    0    0 -0.85415602823E+01 -0.21277285534E+02  0.21248217824E+02  0.14202084959E+03  0.13853791476E+03 0.  0.
          5    1    4    4  502    0 -0.45440110053E+02 -0.92425866492E-01  0.26336110361E+02  0.52730378844E+02  0.47000000000E+01 0. -1.
         -5    1    4    4    0  502  0.53981670335E+02  0.21369711400E+02 -0.52153537896E+02  0.78184185182E+02  0.47000000000E+01 0. -1.
          5    1    5    5  503    0 -0.32696777879E+02 -0.20638936218E+02  0.74102238432E+02  0.83715450858E+02  0.47000000000E+01 0.  1.
         -5    1    5    5    0  503  0.24155217596E+02 -0.63834931622E+00 -0.52854020607E+02  0.58305398732E+02  0.47000000000E+01 0.  1.
<mgrwt>
<rscale>  0 0.27289716E+03</rscale>
<asrwt>0</asrwt>
<pdfrwt beam="1">  1        3 0.20643554E-01 0.27289716E+03</pdfrwt>
<pdfrwt beam="2">  1       -3 0.21346509E-01 0.27289716E+03</pdfrwt>
<totfact> 0.10771437E+03</totfact>
</mgrwt>
</event>
<event>
 9    1  0.2114844E-002  0.2756278E+03  0.7818608E-02  0.1098101E+00
         -3   -1    0    0    0  501 -0.00000000000E+00  0.00000000000E+00  0.14068022525E+03  0.14068022525E+03  0.00000000000E+00 0. -1.
          3   -1    0    0  501    0  0.00000000000E+00 -0.00000000000E+00 -0.13500595887E+03  0.13500595887E+03  0.00000000000E+00 0. -1.
         36    2    1    2    0    0  0.35527136788E-14  0.71054273576E-14  0.56742663842E+01  0.27568618412E+03  0.27562778310E+03 0.  0.
         25    2    3    3    0    0 -0.11723735629E+02 -0.41699001549E+02  0.41142370380E+02  0.13995372041E+03  0.12656261893E+03 0.  0.
         25    2    3    3    0    0  0.11723735629E+02  0.41699001549E+02 -0.35468103996E+02  0.13573246371E+03  0.12364894903E+03 0.  0.
          5    1    4    4  502    0  0.29261198438E+02 -0.71633258318E+02  0.54176533064E+01  0.77710889833E+02  0.47000000000E+01 0. -1.
         -5    1    4    4    0  502 -0.40984934067E+02  0.29934256769E+02  0.35724717074E+02  0.62242830582E+02  0.47000000000E+01 0. -1.
          5    1    5    5  503    0  0.50886599024E+02  0.49009498161E+02 -0.56364157068E+02  0.90500746253E+02  0.47000000000E+01 0. -1.
         -5    1    5    5    0  503 -0.39162863396E+02 -0.73104966121E+01  0.20896053072E+02  0.45231717456E+02  0.47000000000E+01 0. -1.
<mgrwt>
<rscale>  0 0.27562778E+03</rscale>
<asrwt>0</asrwt>
<pdfrwt beam="1">  1        3 0.20770147E-01 0.27562778E+03</pdfrwt>
<pdfrwt beam="2">  1       -3 0.21643112E-01 0.27562778E+03</pdfrwt>
<totfact> 0.10405308E+03</totfact>
</mgrwt>
</event>
<event>
 9    1  0.2114844E-002  0.2772921E+03  0.7818608E-02  0.1097177E+00
         -2   -1    0    0    0  501 -0.00000000000E+00  0.00000000000E+00  0.81903928492E+01  0.81903928492E+01  0.00000000000E+00 0.  1.
          2   -1    0    0  501    0  0.00000000000E+00 -0.00000000000E+00 -0.23469850446E+04  0.23469850446E+04  0.00000000000E+00 0.  1.
         36    2    1    2    0    0  0.00000000000E+00  0.00000000000E+00 -0.23387946518E+04  0.23551754375E+04  0.27729211692E+03 0.  0.
         25    2    3    3    0    0 -0.46390697351E+02  0.10794985453E+02 -0.74220137681E+03  0.75255421029E+03  0.11491878516E+03 0.  0.
         25    2    3    3    0    0  0.46390697351E+02 -0.10794985453E+02 -0.15965932750E+04  0.16026212272E+04  0.13044571142E+03 0.  0.
          5    1    4    4  502    0  0.33642202538E+02 -0.15359074205E+02 -0.30724332480E+03  0.30949676829E+03  0.47000000000E+01 0.  1.
         -5    1    4    4    0  502 -0.80032899889E+02  0.26154059657E+02 -0.43495805201E+03  0.44305744200E+03  0.47000000000E+01 0.  1.
          5    1    5    5  503    0  0.19656241589E+02  0.34807095210E+02 -0.13396579322E+04  0.13402624246E+04  0.47000000000E+01 0.  1.
         -5    1    5    5    0  503  0.26734455762E+02 -0.45602080663E+02 -0.25693534279E+03  0.26235880252E+03  0.47000000000E+01 0.  1.
<mgrwt>
<rscale>  0 0.27729212E+03</rscale>
<asrwt>0</asrwt>
<pdfrwt beam="1">  1        2 0.36107518E+00 0.27729212E+03</pdfrwt>
<pdfrwt beam="2">  1       -2 0.12600585E-02 0.27729212E+03</pdfrwt>
<totfact> 0.73949225E+03</totfact>
</mgrwt>
</event>
<event>
 9    1  0.2114844E-002  0.2747455E+03  0.7818608E-02  0.1098594E+00
         -1   -1    0    0    0  501 -0.00000000000E+00  0.00000000000E+00  0.97871720517E+03  0.97871720517E+03  0.00000000000E+00 0. -1.
          1   -1    0    0  501    0  0.00000000000E+00 -0.00000000000E+00 -0.19281634471E+02  0.19281634471E+02  0.00000000000E+00 0. -1.
         36    2    1    2    0    0 -0.14210854715E-13  0.00000000000E+00  0.95943557069E+03  0.99799883964E+03  0.27474546330E+03 0.  0.
         25    2    3    3    0    0 -0.36401925329E+02  0.27062895120E+02  0.60026829772E+03  0.61477998812E+03  0.12479945548E+03 0.  0.
         25    2    3    3    0    0  0.36401925329E+02 -0.27062895120E+02  0.35916727297E+03  0.38321885151E+03  0.12569032469E+03 0.  0.
          5    1    4    4  502    0  0.30015715585E+02  0.28645434950E+02  0.79772282659E+02  0.90040053344E+02  0.47000000000E+01 0.  1.
         -5    1    4    4    0  502 -0.66417640914E+02 -0.15825398306E+01  0.52049601506E+03  0.52473993478E+03  0.47000000000E+01 0.  1.
          5    1    5    5  503    0  0.15708373889E+02 -0.64672440586E+02  0.98312069433E+02  0.11881342760E+03  0.47000000000E+01 0. -1.
         -5    1    5    5    0  503  0.20693551440E+02  0.37609545467E+02  0.26085520354E+03  0.26440542391E+03  0.47000000000E+01 0. -1.
<mgrwt>
<rscale>  0 0.27474546E+03</rscale>
<asrwt>0</asrwt>
<pdfrwt beam="1">  1        1 0.29664061E-02 0.27474546E+03</pdfrwt>
<pdfrwt beam="2">  1       -1 0.15057184E+00 0.27474546E+03</pdfrwt>
<totfact> 0.12957884E+03</totfact>
</mgrwt>
</event>
<event>
 8    1  0.2114844E-002  0.3145110E+03  0.7818608E-02  0.1078204E+00
          1   -1    0    0  501    0  0.00000000000E+00  0.00000000000E+00  0.19300538946E+03  0.19300538946E+03  0.00000000000E+00 0. -1.
         -1   -1    0    0    0  501 -0.00000000000E+00 -0.00000000000E+00 -0.12812747973E+03  0.12812747973E+03  0.00000000000E+00 0. -1.
         25    2    1    2    0    0  0.67356211599E+02 -0.32336318240E+02  0.99649804221E+02  0.17507212119E+03  0.12303522836E+03 0.  0.
         25    2    1    2    0    0 -0.67356211599E+02  0.32336318240E+02 -0.34771894491E+02  0.14606074800E+03  0.12059088167E+03 0.  0.
          5    1    3    3  502    0 -0.98436205913E+01  0.34766388855E+02  0.48358152357E+02  0.60549149951E+02  0.47000000000E+01 0. -1.
         -5    1    3    3    0  502  0.77199832190E+02 -0.67102707095E+02  0.51291651865E+02  0.11452297124E+03  0.47000000000E+01 0. -1.
          5    1    4    4  503    0 -0.58355056867E+02  0.66041938492E+02  0.10318935720E+02  0.88856180067E+02  0.47000000000E+01 0.  1.
         -5    1    4    4    0  503 -0.90011547325E+01 -0.33705620252E+02 -0.45090830211E+02  0.57204567932E+02  0.47000000000E+01 0.  1.
<mgrwt>
<rscale>  0 0.31451101E+03</rscale>
<asrwt>0</asrwt>
<pdfrwt beam="1">  1        1 0.29693137E-01 0.31451101E+03</pdfrwt>
<pdfrwt beam="2">  1       -1 0.19711920E-01 0.31451101E+03</pdfrwt>
<totfact> 0.31689485E+03</totfact>
</mgrwt>
</event>
<event>
 9    1  0.2114844E-002  0.2759341E+03  0.7818608E-02  0.1097931E+00
          2   -1    0    0  501    0  0.00000000000E+00  0.00000000000E+00  0.14688693172E+02  0.14688693172E+02  0.00000000000E+00 0.  1.
         -2   -1    0    0    0  501 -0.00000000000E+00 -0.00000000000E+00 -0.12958879718E+04  0.12958879718E+04  0.00000000000E+00 0.  1.
         36    2    1    2    0    0  0.71054273576E-14  0.71054273576E-14 -0.12811992787E+04  0.13105766650E+04  0.27593405591E+03 0.  0.
         25    2    3    3    0    0 -0.31201142756E+02 -0.34225185919E+02 -0.86590811411E+03  0.87602992985E+03  0.12444557546E+03 0.  0.
         25    2    3    3    0    0  0.31201142756E+02  0.34225185919E+02 -0.41529116454E+03  0.43454673514E+03  0.11924445068E+03 0.  0.
          5    1    4    4  502    0 -0.17409561545E+02  0.46175008108E+02 -0.26558958074E+03  0.27017612700E+03  0.47000000000E+01 0.  1.
         -5    1    4    4    0  502 -0.13791581211E+02 -0.80400194027E+02 -0.60031853338E+03  0.60585380285E+03  0.47000000000E+01 0.  1.
          5    1    5    5  503    0  0.68482027410E+02  0.44828992102E+01 -0.32630451865E+03  0.33347655593E+03  0.47000000000E+01 0. -1.
         -5    1    5    5    0  503 -0.37280884654E+02  0.29742286708E+02 -0.88986645882E+02  0.10107017921E+03  0.47000000000E+01 0. -1.
<mgrwt>
<rscale>  0 0.27593406E+03</rscale>
<asrwt>0</asrwt>
<pdfrwt beam="1">  1        2 0.22597988E-02 0.27593406E+03</pdfrwt>
<pdfrwt beam="2">  1       -2 0.19936739E+00 0.27593406E+03</pdfrwt>
<totfact> 0.67326225E+02</totfact>
</mgrwt>
</event>
<event>
 9    1  0.2114844E-002  0.2767105E+03  0.7818608E-02  0.1097499E+00
         -1   -1    0    0    0  501 -0.00000000000E+00  0.00000000000E+00  0.50275880969E+01  0.50275880969E+01  0.00000000000E+00 0.  1.
          1   -1    0    0  501    0  0.00000000000E+00 -0.00000000000E+00 -0.38074279326E+04  0.38074279326E+04  0.00000000000E+00 0.  1.
         36    2    1    2    0    0  0.00000000000E+00  0.00000000000E+00 -0.38024003445E+04  0.38124555207E+04  0.27671053001E+03 0.  0.
         25    2    3    3    0    0  0.33752402442E+02 -0.16566956177E+02 -0.25564077167E+04  0.25597494541E+04  0.12523244408E+03 0.  0.
         25    2    3    3    0    0 -0.33752402442E+02  0.16566956177E+02 -0.12459926278E+04  0.12527060666E+04  0.12394019543E+03 0.  0.
          5    1    4    4  502    0  0.24723568668E+02 -0.61727001498E+02 -0.20870564629E+04  0.20881207453E+04  0.47000000000E+01 0.  1.
         -5    1    4    4    0  502  0.90288337748E+01  0.45160045321E+02 -0.46935125375E+03  0.47162870876E+03  0.47000000000E+01 0.  1.
          5    1    5    5  503    0  0.19748309458E+02 -0.43807314073E+02 -0.41768438944E+03  0.42046571284E+03  0.47000000000E+01 0. -1.
         -5    1    5    5    0  503 -0.53500711900E+02  0.60374270250E+02 -0.82830823841E+03  0.83224035380E+03  0.47000000000E+01 0. -1.
<mgrwt>
<rscale>  0 0.27671053E+03</rscale>
<asrwt>0</asrwt>
<pdfrwt beam="1">  1        1 0.58575706E+00 0.27671053E+03</pdfrwt>
<pdfrwt beam="2">  1       -1 0.77347653E-03 0.27671053E+03</pdfrwt>
<totfact> 0.49252386E+02</totfact>
</mgrwt>
</event>
<event>
 9    1  0.2114844E-002  0.2742403E+03  0.7818608E-02  0.1098877E+00
          1   -1    0    0  501    0  0.00000000000E+00  0.00000000000E+00  0.26471654118E+02  0.26471654118E+02  0.00000000000E+00 0. -1.
         -1   -1    0    0    0  501 -0.00000000000E+00 -0.00000000000E+00 -0.71026697157E+03  0.71026697157E+03  0.00000000000E+00 0. -1.
         36    2    1    2    0    0 -0.71054273576E-14 -0.35527136788E-14 -0.68379531745E+03  0.73673862569E+03  0.27424034425E+03 0.  0.
         25    2    3    3    0    0  0.28272821478E+02  0.25838173272E+02 -0.45929582589E+03  0.47697854378E+03  0.12283693220E+03 0.  0.
         25    2    3    3    0    0 -0.28272821478E+02 -0.25838173272E+02 -0.22449949156E+03  0.25976008191E+03  0.12493324141E+03 0.  0.
          5    1    4    4  502    0  0.65264660631E+02  0.44869650648E+02 -0.36923094085E+03  0.37765902499E+03  0.47000000000E+01 0. -1.
         -5    1    4    4    0  502 -0.36991839153E+02 -0.19031477376E+02 -0.90064885045E+02  0.99319518792E+02  0.47000000000E+01 0. -1.
          5    1    5    5  503    0 -0.29393257863E+02  0.30042206558E+00  0.37182922321E+01  0.29999492635E+02  0.47000000000E+01 0.  1.
         -5    1    5    5    0  503  0.11204363851E+01 -0.26138595338E+02 -0.22821778379E+03  0.22976058927E+03  0.47000000000E+01 0.  1.
<mgrwt>
<rscale>  0 0.27424034E+03</rscale>
<asrwt>0</asrwt>
<pdfrwt beam="1">  1        1 0.40725628E-02 0.27424034E+03</pdfrwt>
<pdfrwt beam="2">  1       -1 0.10927182E+00 0.27424034E+03</pdfrwt>
<totfact> 0.18250317E+03</totfact>
</mgrwt>
</event>
<event>
 9    1  0.2114844E-002  0.2753390E+03  0.7818608E-02  0.1098262E+00
         -2   -1    0    0    0  501 -0.00000000000E+00  0.00000000000E+00  0.13787920203E+02  0.13787920203E+02  0.00000000000E+00 0.  1.
          2   -1    0    0  501    0  0.00000000000E+00 -0.00000000000E+00 -0.13746014823E+04  0.13746014823E+04  0.00000000000E+00 0.  1.
         36    2    1    2    0    0  0.00000000000E+00  0.35527136788E-14 -0.13608135621E+04  0.13883894025E+04  0.27533903137E+03 0.  0.
         25    2    3    3    0    0 -0.50844322813E+02  0.64265706248E+01 -0.54613826001E+03  0.56263394737E+03  0.12515396007E+03 0.  0.
         25    2    3    3    0    0  0.50844322813E+02 -0.64265706248E+01 -0.81467530212E+03  0.82575545516E+03  0.12469874846E+03 0.  0.
          5    1    4    4  502    0  0.25935647843E+02 -0.23162600854E+02 -0.32048828942E+03  0.32240347015E+03  0.47000000000E+01 0. -1.
         -5    1    4    4    0  502 -0.76779970656E+02  0.29589171479E+02 -0.22564997058E+03  0.24023047722E+03  0.47000000000E+01 0. -1.
          5    1    5    5  503    0 -0.18755759267E+02  0.26221126924E+02 -0.52518340461E+03  0.52619295365E+03  0.47000000000E+01 0. -1.
         -5    1    5    5    0  503  0.69600082080E+02 -0.32647697549E+02 -0.28949189751E+03  0.29956250150E+03  0.47000000000E+01 0. -1.
<mgrwt>
<rscale>  0 0.27533903E+03</rscale>
<asrwt>0</asrwt>
<pdfrwt beam="1">  1        2 0.21147721E+00 0.27533903E+03</pdfrwt>
<pdfrwt beam="2">  1       -2 0.21212179E-02 0.27533903E+03</pdfrwt>
<totfact> 0.11305466E+04</totfact>
</mgrwt>
</event>
<event>
 9    1  0.2114844E-002  0.2759819E+03  0.7818608E-02  0.1097904E+00
         -1   -1    0    0    0  501 -0.00000000000E+00  0.00000000000E+00  0.64787011654E+03  0.64787011654E+03  0.00000000000E+00 0.  1.
          1   -1    0    0  501    0  0.00000000000E+00 -0.00000000000E+00 -0.29390928628E+02  0.29390928628E+02  0.00000000000E+00 0.  1.
         36    2    1    2    0    0  0.71054273576E-14  0.00000000000E+00  0.61847918791E+03  0.67726104517E+03  0.27598191503E+03 0.  0.
         25    2    3    3    0    0  0.11752194408E+02 -0.51646431108E+02  0.38021605319E+03  0.40420677989E+03  0.12654408676E+03 0.  0.
         25    2    3    3    0    0 -0.11752194408E+02  0.51646431108E+02  0.23826313472E+03  0.27305426527E+03  0.12240850663E+03 0.  0.
          5    1    4    4  502    0 -0.32421756743E+02 -0.50679754972E+02  0.77385062518E+02  0.98133306146E+02  0.47000000000E+01 0.  1.
         -5    1    4    4    0  502  0.44173951152E+02 -0.96667613587E+00  0.30283099067E+03  0.30607347375E+03  0.47000000000E+01 0.  1.
          5    1    5    5  503    0 -0.55069332713E+02 -0.21387229626E+01  0.15615989850E+03  0.16566595740E+03  0.47000000000E+01 0. -1.
         -5    1    5    5    0  503  0.43317138305E+02  0.53785154070E+02  0.82103236223E+02  0.10738830787E+03  0.47000000000E+01 0. -1.
<mgrwt>
<rscale>  0 0.27598192E+03</rscale>
<asrwt>0</asrwt>
<pdfrwt beam="1">  1        1 0.45216818E-02 0.27598192E+03</pdfrwt>
<pdfrwt beam="2">  1       -1 0.99672315E-01 0.27598192E+03</pdfrwt>
<totfact> 0.19429102E+03</totfact>
</mgrwt>
</event>
<event>
 9    1  0.2114844E-002  0.2742777E+03  0.7818608E-02  0.1098856E+00
          2   -1    0    0  501    0  0.00000000000E+00  0.00000000000E+00  0.13407694062E+04  0.13407694062E+04  0.00000000000E+00 0.  1.
         -2   -1    0    0    0  501 -0.00000000000E+00 -0.00000000000E+00 -0.14027068542E+02  0.14027068542E+02  0.00000000000E+00 0.  1.
         36    2    1    2    0    0  0.00000000000E+00 -0.71054273576E-14  0.13267423377E+04  0.13547964748E+04  0.27427770132E+03 0.  0.
         25    2    3    3    0    0  0.57687182310E+00 -0.26417670225E+02  0.92719156312E+03  0.93491467970E+03  0.11697451654E+03 0.  0.
         25    2    3    3    0    0 -0.57687182310E+00  0.26417670225E+02  0.39955077456E+03  0.41988179506E+03  0.12633951991E+03 0.  0.
          5    1    4    4  502    0 -0.36844716345E+02  0.71468557383E+01  0.11306552174E+03  0.11922463200E+03  0.47000000000E+01 0. -1.
         -5    1    4    4    0  502  0.37421588168E+02 -0.33564525963E+02  0.81412604138E+03  0.81569004770E+03  0.47000000000E+01 0. -1.
          5    1    5    5  503    0  0.36368909735E+02 -0.36177569829E+02  0.22347726940E+03  0.22933751131E+03  0.47000000000E+01 0. -1.
         -5    1    5    5    0  503 -0.36945781558E+02  0.62595240054E+02  0.17607350516E+03  0.19054428375E+03  0.47000000000E+01 0. -1.
<mgrwt>
<rscale>  0 0.27427770E+03</rscale>
<asrwt>0</asrwt>
<pdfrwt beam="1">  1        2 0.20627212E+00 0.27427770E+03</pdfrwt>
<pdfrwt beam="2">  1       -2 0.21580116E-02 0.27427770E+03</pdfrwt>
<totfact> 0.11501525E+04</totfact>
</mgrwt>
</event>
<event>
 9    1  0.2114844E-002  0.2758998E+03  0.7818608E-02  0.1097950E+00
         -1   -1    0    0    0  501 -0.00000000000E+00  0.00000000000E+00  0.15536357698E+02  0.15536357698E+02  0.00000000000E+00 0.  1.
          1   -1    0    0  501    0  0.00000000000E+00 -0.00000000000E+00 -0.12248798715E+04  0.12248798715E+04  0.00000000000E+00 0.  1.
         36    2    1    2    0    0  0.71054273576E-14  0.71054273576E-14 -0.12093435138E+04  0.12404162292E+04  0.27589977761E+03 0.  0.
         25    2    3    3    0    0 -0.33648636279E+02 -0.52903124896E+02 -0.57364994247E+03  0.59027140160E+03  0.12415755996E+03 0.  0.
         25    2    3    3    0    0  0.33648636279E+02  0.52903124896E+02 -0.63569357136E+03  0.65014482763E+03  0.12104135196E+03 0.  0.
          5    1    4    4  502    0 -0.40451558265E+02 -0.83227645421E+02 -0.51917959473E+03  0.52738288853E+03  0.47000000000E+01 0.  1.
         -5    1    4    4    0  502  0.68029219863E+01  0.30324520525E+02 -0.54470347744E+02  0.62888513068E+02  0.47000000000E+01 0.  1.
          5    1    5    5  503    0 -0.39557518196E+02  0.37664932547E+02 -0.37185241955E+03  0.37587199459E+03  0.47000000000E+01 0. -1.
         -5    1    5    5    0  503  0.73206154474E+02  0.15238192349E+02 -0.26384115180E+03  0.27427283304E+03  0.47000000000E+01 0. -1.
<mgrwt>
<rscale>  0 0.27589978E+03</rscale>
<asrwt>0</asrwt>
<pdfrwt beam="1">  1        1 0.18844311E+00 0.27589978E+03</pdfrwt>
<pdfrwt beam="2">  1       -1 0.23902082E-02 0.27589978E+03</pdfrwt>
<totfact> 0.58038438E+03</totfact>
</mgrwt>
</event>
<event>
 9    1  0.2114844E-002  0.2748071E+03  0.7818608E-02  0.1098559E+00
          2   -1    0    0  501    0  0.00000000000E+00  0.00000000000E+00  0.16396350404E+04  0.16396350404E+04  0.00000000000E+00 0.  1.
         -2   -1    0    0    0  501 -0.00000000000E+00 -0.00000000000E+00 -0.11514594236E+02  0.11514594236E+02  0.00000000000E+00 0.  1.
         36    2    1    2    0    0  0.17763568394E-14 -0.14210854715E-13  0.16281204462E+04  0.16511496346E+04  0.27480707549E+03 0.  0.
         25    2    3    3    0    0  0.13008319637E+02  0.18258754935E+02  0.10506630554E+04  0.10584945908E+04  0.12655174582E+03 0.  0.
         25    2    3    3    0    0 -0.13008319637E+02 -0.18258754935E+02  0.57745739078E+03  0.59265504380E+03  0.13145479932E+03 0.  0.
          5    1    4    4  502    0 -0.12200536225E+02  0.69727586049E+02  0.59835152841E+03  0.60254247227E+03  0.47000000000E+01 0.  1.
         -5    1    4    4    0  502  0.25208855862E+02 -0.51468831114E+02  0.45231152697E+03  0.45595211856E+03  0.47000000000E+01 0.  1.
          5    1    5    5  503    0 -0.71609497274E+01 -0.69468733883E+02  0.44453393083E+03  0.45001076637E+03  0.47000000000E+01 0. -1.
         -5    1    5    5    0  503 -0.58473699100E+01  0.51209978949E+02  0.13292345995E+03  0.14264427743E+03  0.47000000000E+01 0. -1.
<mgrwt>
<rscale>  0 0.27480708E+03</rscale>
<asrwt>0</asrwt>
<pdfrwt beam="1">  1        2 0.25225136E+00 0.27480708E+03</pdfrwt>
<pdfrwt beam="2">  1       -2 0.17714773E-02 0.27480708E+03</pdfrwt>
<totfact> 0.10626329E+04</totfact>
</mgrwt>
</event>
<event>
 9    1  0.2114844E-002  0.2694177E+03  0.7818608E-02  0.1101613E+00
         -2   -1    0    0    0  501 -0.00000000000E+00  0.00000000000E+00  0.15280670762E+03  0.15280670762E+03  0.00000000000E+00 0. -1.
          2   -1    0    0  501    0  0.00000000000E+00 -0.00000000000E+00 -0.11875444398E+03  0.11875444398E+03  0.00000000000E+00 0. -1.
         36    2    1    2    0    0  0.71054273576E-14  0.00000000000E+00  0.34052263639E+02  0.27156115160E+03  0.26941770989E+03 0.  0.
         25    2    3    3    0    0 -0.32230835510E+02 -0.34412634638E+02 -0.15567619234E+01  0.13237611206E+03  0.12368490350E+03 0.  0.
         25    2    3    3    0    0  0.32230835510E+02  0.34412634638E+02  0.35609025562E+02  0.13918503955E+03  0.12602149162E+03 0.  0.
          5    1    4    4  502    0  0.43003571763E+02  0.58053554129E+01  0.13356894447E+02  0.45645437506E+02  0.47000000000E+01 0.  1.
         -5    1    4    4    0  502 -0.75234407273E+02 -0.40217990051E+02 -0.14913656371E+02  0.86730674550E+02  0.47000000000E+01 0.  1.
          5    1    5    5  503    0  0.79420438726E+02  0.25174272041E+02  0.35968899843E+02  0.90869146668E+02  0.47000000000E+01 0.  1.
         -5    1    5    5    0  503 -0.47189603215E+02  0.92383625970E+01 -0.35987428038E+00  0.48315892878E+02  0.47000000000E+01 0.  1.
<mgrwt>
<rscale>  0 0.26941771E+03</rscale>
<asrwt>0</asrwt>
<pdfrwt beam="1">  1        2 0.18269915E-01 0.26941771E+03</pdfrwt>
<pdfrwt beam="2">  1       -2 0.23508724E-01 0.26941771E+03</pdfrwt>
<totfact> 0.48534468E+03</totfact>
</mgrwt>
</event>
<event>
 9    1  0.2114844E-002  0.2747814E+03  0.7818608E-02  0.1098574E+00
          1   -1    0    0  501    0  0.00000000000E+00  0.00000000000E+00  0.40174296225E+03  0.40174296225E+03  0.00000000000E+00 0.  1.
         -1   -1    0    0    0  501 -0.00000000000E+00 -0.00000000000E+00 -0.46985778629E+02  0.46985778629E+02  0.00000000000E+00 0.  1.
         36    2    1    2    0    0 -0.71054273576E-14  0.00000000000E+00  0.35475718362E+03  0.44872874088E+03  0.27478141051E+03 0.  0.
         25    2    3    3    0    0 -0.17635989279E+02  0.65544460324E+02  0.15959637862E+03  0.20794264067E+03  0.11472590529E+03 0.  0.
         25    2    3    3    0    0  0.17635989279E+02 -0.65544460324E+02  0.19516080500E+03  0.24078610020E+03  0.12362484316E+03 0.  0.
          5    1    4    4  502    0 -0.62998885000E+02  0.36396817306E+02  0.12170631696E+03  0.14187355430E+03  0.47000000000E+01 0. -1.
         -5    1    4    4    0  502  0.45362895721E+02  0.29147643018E+02  0.37890061662E+02  0.66069086375E+02  0.47000000000E+01 0. -1.
          5    1    5    5  503    0  0.66064148395E+02 -0.52777011519E+02  0.86541824619E+02  0.12108452443E+03  0.47000000000E+01 0. -1.
         -5    1    5    5    0  503 -0.48428159116E+02 -0.12767448804E+02  0.10861898038E+03  0.11970157577E+03  0.47000000000E+01 0. -1.
<mgrwt>
<rscale>  0 0.27478141E+03</rscale>
<asrwt>0</asrwt>
<pdfrwt beam="1">  1        1 0.61806607E-01 0.27478141E+03</pdfrwt>
<pdfrwt beam="2">  1       -1 0.72285816E-02 0.27478141E+03</pdfrwt>
<totfact> 0.60255232E+03</totfact>
</mgrwt>
</event>
<event>
 9    1  0.2114844E-002  0.2659048E+03  0.7818608E-02  0.1103647E+00
          1   -1    0    0  501    0  0.00000000000E+00  0.00000000000E+00  0.11731652307E+03  0.11731652307E+03  0.00000000000E+00 0.  1.
         -1   -1    0    0    0  501 -0.00000000000E+00 -0.00000000000E+00 -0.15067225659E+03  0.15067225659E+03  0.00000000000E+00 0.  1.
         36    2    1    2    0    0  0.00000000000E+00  0.00000000000E+00 -0.33355733519E+02  0.26798877967E+03  0.26590483461E+03 0.  0.
         25    2    3    3    0    0  0.42518109563E+02 -0.46600676787E+02  0.86775818774E+01  0.12417253382E+03  0.10660255630E+03 0.  0.
         25    2    3    3    0    0 -0.42518109563E+02  0.46600676787E+02 -0.42033315396E+02  0.14381624584E+03  0.12221661200E+03 0.  0.
          5    1    4    4  502    0  0.58996833379E+02  0.13969141325E+02  0.69014165302E+01  0.61200349739E+02  0.47000000000E+01 0.  1.
         -5    1    4    4    0  502 -0.16478723816E+02 -0.60569818112E+02  0.17761653473E+01  0.62972184082E+02  0.47000000000E+01 0.  1.
          5    1    5    5  503    0 -0.77275564044E+02  0.17583573085E+01 -0.39252606533E+02  0.86818556418E+02  0.47000000000E+01 0. -1.
         -5    1    5    5    0  503  0.34757454482E+02  0.44842319479E+02 -0.27807088636E+01  0.56997689427E+02  0.47000000000E+01 0. -1.
<mgrwt>
<rscale>  0 0.26590483E+03</rscale>
<asrwt>0</asrwt>
<pdfrwt beam="1">  1        1 0.18048696E-01 0.26590483E+03</pdfrwt>
<pdfrwt beam="2">  1       -1 0.23180347E-01 0.26590483E+03</pdfrwt>
<totfact> 0.45762704E+03</totfact>
</mgrwt>
</event>
<event>
 9    1  0.2114844E-002  0.2743847E+03  0.7818608E-02  0.1098796E+00
          1   -1    0    0  501    0  0.00000000000E+00  0.00000000000E+00  0.14398740972E+02  0.14398740972E+02  0.00000000000E+00 0.  1.
         -1   -1    0    0    0  501 -0.00000000000E+00 -0.00000000000E+00 -0.13071794189E+04  0.13071794189E+04  0.00000000000E+00 0.  1.
         36    2    1    2    0    0  0.00000000000E+00  0.00000000000E+00 -0.12927806779E+04  0.13215781599E+04  0.27438467782E+03 0.  0.
         25    2    3    3    0    0 -0.54918125103E+02 -0.13059175703E+02 -0.57927967660E+03  0.59603134676E+03  0.12845964373E+03 0.  0.
         25    2    3    3    0    0  0.54918125103E+02  0.13059175703E+02 -0.71350100131E+03  0.72554681309E+03  0.11894518309E+03 0.  0.
          5    1    4    4  502    0 -0.19418573658E+02  0.51490687496E+02 -0.37033020023E+03  0.37442611969E+03  0.47000000000E+01 0.  1.
         -5    1    4    4    0  502 -0.35499551444E+02 -0.64549863199E+02 -0.20894947637E+03  0.22160522708E+03  0.47000000000E+01 0.  1.
          5    1    5    5  503    0 -0.17912508054E+02  0.14450033383E+02 -0.29725530718E+02  0.37886126564E+02  0.47000000000E+01 0. -1.
         -5    1    5    5    0  503  0.72830633157E+02 -0.13908576800E+01 -0.68377547059E+03  0.68766068652E+03  0.47000000000E+01 0. -1.
<mgrwt>
<rscale>  0 0.27438468E+03</rscale>
<asrwt>0</asrwt>
<pdfrwt beam="1">  1        1 0.22151902E-02 0.27438468E+03</pdfrwt>
<pdfrwt beam="2">  1       -1 0.20110460E+00 0.27438468E+03</pdfrwt>
<totfact> 0.85910003E+02</totfact>
</mgrwt>
</event>
<event>
 9    1  0.2114844E-002  0.2761821E+03  0.7818608E-02  0.1097793E+00
         -2   -1    0    0    0  501 -0.00000000000E+00  0.00000000000E+00  0.13498852833E+02  0.13498852833E+02  0.00000000000E+00 0.  1.
          2   -1    0    0  501    0  0.00000000000E+00 -0.00000000000E+00 -0.14126490287E+04  0.14126490287E+04  0.00000000000E+00 0.  1.
         36    2    1    2    0    0  0.00000000000E+00  0.00000000000E+00 -0.13991501758E+04  0.14261478815E+04  0.27618212355E+03 0.  0.
         25    2    3    3    0    0  0.59430290333E+02  0.41381945044E+02 -0.80581574503E+03  0.81778363786E+03  0.11910767663E+03 0.  0.
         25    2    3    3    0    0 -0.59430290333E+02 -0.41381945044E+02 -0.59333443081E+03  0.60836424364E+03  0.11321166625E+03 0.  0.
          5    1    4    4  502    0 -0.20894514072E+02 -0.81577112829E+01 -0.41781399627E+03  0.41844205626E+03  0.47000000000E+01 0. -1.
         -5    1    4    4    0  502  0.80324804405E+02  0.49539656327E+02 -0.38800174876E+03  0.39934158160E+03  0.47000000000E+01 0. -1.
          5    1    5    5  503    0 -0.30465200658E+02  0.24247064134E+02 -0.71053036338E+02  0.81158317769E+02  0.47000000000E+01 0.  1.
         -5    1    5    5    0  503 -0.28965089675E+02 -0.65629009178E+02 -0.52228139447E+03  0.52720592587E+03  0.47000000000E+01 0.  1.
<mgrwt>
<rscale>  0 0.27618212E+03</rscale>
<asrwt>0</asrwt>
<pdfrwt beam="1">  1        2 0.21733068E+00 0.27618212E+03</pdfrwt>
<pdfrwt beam="2">  1       -2 0.20767460E-02 0.27618212E+03</pdfrwt>
<totfact> 0.11122141E+04</totfact>
</mgrwt>
</event>
<event>
 9    1  0.2114844E-002  0.2755307E+03  0.7818608E-02  0.1098155E+00
         -1   -1    0    0    0  501 -0.00000000000E+00  0.00000000000E+00  0.31138033029E+02  0.31138033029E+02  0.00000000000E+00 0. -1.
          1   -1    0    0  501    0  0.00000000000E+00 -0.00000000000E+00 -0.60952104918E+03  0.60952104918E+03  0.00000000000E+00 0. -1.
         36    2    1    2    0    0  0.35527136788E-14  0.00000000000E+00 -0.57838301615E+03  0.64065908221E+03  0.27553066299E+03 0.  0.
         25    2    3    3    0    0  0.22567042753E+02 -0.37951208226E+02 -0.18692830676E+03  0.22961025870E+03  0.12581380452E+03 0.  0.
         25    2    3    3    0    0 -0.22567042753E+02  0.37951208226E+02 -0.39145470940E+03  0.41104882351E+03  0.11736600948E+03 0.  0.
          5    1    4    4  502    0  0.60556046764E+02  0.15726356340E+02 -0.61207365587E+02  0.87651495626E+02  0.47000000000E+01 0. -1.
         -5    1    4    4    0  502 -0.37989004011E+02 -0.53677564566E+02 -0.12572094117E+03  0.14195876307E+03  0.47000000000E+01 0. -1.
          5    1    5    5  503    0  0.15095994941E+02 -0.32068986853E+02 -0.20800717534E+03  0.21105777402E+03  0.47000000000E+01 0.  1.
         -5    1    5    5    0  503 -0.37663037694E+02  0.70020195079E+02 -0.18344753406E+03  0.19999104950E+03  0.47000000000E+01 0.  1.
<mgrwt>
<rscale>  0 0.27553066E+03</rscale>
<asrwt>0</asrwt>
<pdfrwt beam="1">  1        1 0.93772468E-01 0.27553066E+03</pdfrwt>
<pdfrwt beam="2">  1       -1 0.47904667E-02 0.27553066E+03</pdfrwt>
<totfact> 0.64346943E+03</totfact>
</mgrwt>
</event>
<event>
 9    1  0.2114844E-002  0.2748581E+03  0.7818608E-02  0.1098531E+00
         -2   -1    0    0    0  501 -0.00000000000E+00  0.00000000000E+00  0.12277078453E+02  0.12277078453E+02  0.00000000000E+00 0.  1.
          2   -1    0    0  501    0  0.00000000000E+00 -0.00000000000E+00 -0.15383741965E+04  0.15383741965E+04  0.00000000000E+00 0.  1.
         36    2    1    2    0    0  0.71054273576E-14  0.21316282073E-13 -0.15260971180E+04  0.15506512749E+04  0.27485807756E+03 0.  0.
         25    2    3    3    0    0  0.44818371069E+02  0.36080929866E+02 -0.75333482663E+03  0.76620176378E+03  0.12744120967E+03 0.  0.
         25    2    3    3    0    0 -0.44818371069E+02 -0.36080929866E+02 -0.77276229139E+03  0.78444951115E+03  0.12202031247E+03 0.  0.
          5    1    4    4  502    0  0.10842443358E+02 -0.35834470607E+02 -0.83314896225E+02  0.91461083498E+02  0.47000000000E+01 0. -1.
         -5    1    4    4    0  502  0.33975927711E+02  0.71915400473E+02 -0.67001993040E+03  0.67474068028E+03  0.47000000000E+01 0. -1.
          5    1    5    5  503    0 -0.83972513462E+01  0.23280818218E+02 -0.33580194164E+02  0.41978920510E+02  0.47000000000E+01 0.  1.
         -5    1    5    5    0  503 -0.36421119723E+02 -0.59361748084E+02 -0.73918209723E+03  0.74247059064E+03  0.47000000000E+01 0.  1.
<mgrwt>
<rscale>  0 0.27485808E+03</rscale>
<asrwt>0</asrwt>
<pdfrwt beam="1">  1        2 0.23667293E+00 0.27485808E+03</pdfrwt>
<pdfrwt beam="2">  1       -2 0.18887815E-02 0.27485808E+03</pdfrwt>
<totfact> 0.10945063E+04</totfact>
</mgrwt>
</event>
<event>
 9    1  0.2114844E-002  0.2752740E+03  0.7818608E-02  0.1098299E+00
         -2   -1    0    0    0  501 -0.00000000000E+00  0.00000000000E+00  0.10270727328E+02  0.10270727328E+02  0.00000000000E+00 0.  1.
          2   -1    0    0  501    0  0.00000000000E+00 -0.00000000000E+00 -0.18444601751E+04  0.18444601751E+04  0.00000000000E+00 0.  1.
         36    2    1    2    0    0 -0.71054273576E-14  0.00000000000E+00 -0.18341894478E+04  0.18547309024E+04  0.27527402729E+03 0.  0.
         25    2    3    3    0    0  0.35652264677E+02 -0.18787209899E+02 -0.11018996905E+04  0.11098969769E+04  0.12674513081E+03 0.  0.
         25    2    3    3    0    0 -0.35652264677E+02  0.18787209899E+02 -0.73228975729E+03  0.74483392554E+03  0.13002017064E+03 0.  0.
          5    1    4    4  502    0 -0.32031061594E+02 -0.48447964229E+02 -0.43019126329E+03  0.43411957702E+03  0.47000000000E+01 0.  1.
         -5    1    4    4    0  502  0.67683326271E+02  0.29660754330E+02 -0.67170842719E+03  0.67577739986E+03  0.47000000000E+01 0.  1.
          5    1    5    5  503    0 -0.20804793552E+02  0.68492197306E+02 -0.56729217513E+03  0.57180986568E+03  0.47000000000E+01 0. -1.
         -5    1    5    5    0  503 -0.14847471125E+02 -0.49704987407E+02 -0.16499758216E+03  0.17302405986E+03  0.47000000000E+01 0. -1.
<mgrwt>
<rscale>  0 0.27527403E+03</rscale>
<asrwt>0</asrwt>
<pdfrwt beam="1">  1        2 0.28376315E+00 0.27527403E+03</pdfrwt>
<pdfrwt beam="2">  1       -2 0.15801117E-02 0.27527403E+03</pdfrwt>
<totfact> 0.98042388E+03</totfact>
</mgrwt>
</event>
<event>
 9    1  0.2114844E-002  0.2739504E+03  0.7818608E-02  0.1099040E+00
         -4   -1    0    0    0  501 -0.00000000000E+00  0.00000000000E+00  0.25326940954E+02  0.25326940954E+02  0.00000000000E+00 0. -1.
          4   -1    0    0  501    0  0.00000000000E+00 -0.00000000000E+00 -0.74080016292E+03  0.74080016292E+03  0.00000000000E+00 0. -1.
         36    2    1    2    0    0 -0.35527136788E-14  0.00000000000E+00 -0.71547322197E+03  0.76612710388E+03  0.27395037496E+03 0.  0.
         25    2    3    3    0    0  0.19637970719E+02  0.16740340857E+02 -0.18689958735E+03  0.22305533853E+03  0.11898041598E+03 0.  0.
         25    2    3    3    0    0 -0.19637970719E+02 -0.16740340857E+02 -0.52857363461E+03  0.54307176535E+03  0.12194657110E+03 0.  0.
          5    1    4    4  502    0 -0.24582967151E+02 -0.56213689635E+01 -0.16778665758E+03  0.16973619097E+03  0.47000000000E+01 0. -1.
         -5    1    4    4    0  502  0.44220937870E+02  0.22361709820E+02 -0.19112929779E+02  0.53319147563E+02  0.47000000000E+01 0. -1.
          5    1    5    5  503    0  0.35298026125E+02  0.17399018672E+02 -0.36447845467E+03  0.36662693630E+03  0.47000000000E+01 0.  1.
         -5    1    5    5    0  503 -0.54935996844E+02 -0.34139359528E+02 -0.16409517994E+03  0.17644482905E+03  0.47000000000E+01 0.  1.
<mgrwt>
<rscale>  0 0.27395037E+03</rscale>
<asrwt>0</asrwt>
<pdfrwt beam="1">  1        4 0.11396927E+00 0.27395037E+03</pdfrwt>
<pdfrwt beam="2">  1       -4 0.38964519E-02 0.27395037E+03</pdfrwt>
<totfact> 0.41788740E+02</totfact>
</mgrwt>
</event>
<event>
 9    1  0.2114844E-002  0.2742816E+03  0.7818608E-02  0.1098854E+00
         -1   -1    0    0    0  501 -0.00000000000E+00  0.00000000000E+00  0.51042398097E+02  0.51042398097E+02  0.00000000000E+00 0.  1.
          1   -1    0    0  501    0  0.00000000000E+00 -0.00000000000E+00 -0.36847008542E+03  0.36847008542E+03  0.00000000000E+00 0.  1.
         36    2    1    2    0    0  0.71054273576E-14 -0.71054273576E-14 -0.31742768732E+03  0.41951248351E+03  0.27428158368E+03 0.  0.
         25    2    3    3    0    0  0.11428146712E+02 -0.42935580686E+02 -0.85550693157E+02  0.15394746552E+03  0.12002847334E+03 0.  0.
         25    2    3    3    0    0 -0.11428146712E+02  0.42935580686E+02 -0.23187699416E+03  0.26556501800E+03  0.12158853456E+03 0.  0.
          5    1    4    4  502    0 -0.46492992415E+02 -0.50921004560E+02 -0.41797728927E+02  0.80769345624E+02  0.47000000000E+01 0.  1.
         -5    1    4    4    0  502  0.57921139127E+02  0.79854238739E+01 -0.43752964230E+02  0.73178119893E+02  0.47000000000E+01 0.  1.
          5    1    5    5  503    0  0.55076562229E+02  0.16084414930E+02 -0.10164197078E+03  0.11681316850E+03  0.47000000000E+01 0.  1.
         -5    1    5    5    0  503 -0.66504708941E+02  0.26851165755E+02 -0.13023502338E+03  0.14875184949E+03  0.47000000000E+01 0.  1.
<mgrwt>
<rscale>  0 0.27428158E+03</rscale>
<asrwt>0</asrwt>
<pdfrwt beam="1">  1        1 0.56687706E-01 0.27428158E+03</pdfrwt>
<pdfrwt beam="2">  1       -1 0.78526765E-02 0.27428158E+03</pdfrwt>
<totfact> 0.59314583E+03</totfact>
</mgrwt>
</event>
<event>
 9    1  0.2114844E-002  0.2806855E+03  0.7818608E-02  0.1095315E+00
          1   -1    0    0  501    0  0.00000000000E+00  0.00000000000E+00  0.47167291387E+03  0.47167291387E+03  0.00000000000E+00 0.  1.
         -1   -1    0    0    0  501 -0.00000000000E+00 -0.00000000000E+00 -0.41757923453E+02  0.41757923453E+02  0.00000000000E+00 0.  1.
         36    2    1    2    0    0 -0.71054273576E-14 -0.71054273576E-14  0.42991499041E+03  0.51343083732E+03  0.28068545692E+03 0.  0.
         25    2    3    3    0    0 -0.57919179445E+02 -0.63289940174E+01  0.21570221040E+03  0.25587386637E+03  0.12469685003E+03 0.  0.
         25    2    3    3    0    0  0.57919179445E+02  0.63289940174E+01  0.21421278002E+03  0.25755697095E+03  0.13059016291E+03 0.  0.
          5    1    4    4  502    0 -0.56018148984E+02 -0.45027147696E+01  0.19609364368E+02  0.59706989766E+02  0.47000000000E+01 0. -1.
         -5    1    4    4    0  502 -0.19010304604E+01 -0.18262792477E+01  0.19609284603E+03  0.19616687661E+03  0.47000000000E+01 0. -1.
          5    1    5    5  503    0  0.34484104448E+02  0.68225978137E+02  0.11115774264E+03  0.13498915254E+03  0.47000000000E+01 0. -1.
         -5    1    5    5    0  503  0.23435074997E+02 -0.61896984119E+02  0.10305503737E+03  0.12256781841E+03  0.47000000000E+01 0. -1.
<mgrwt>
<rscale>  0 0.28068546E+03</rscale>
<asrwt>0</asrwt>
<pdfrwt beam="1">  1        1 0.72565060E-01 0.28068546E+03</pdfrwt>
<pdfrwt beam="2">  1       -1 0.64242962E-02 0.28068546E+03</pdfrwt>
<totfact> 0.58548515E+03</totfact>
</mgrwt>
</event>
<event>
 9    1  0.2114844E-002  0.2755516E+03  0.7818608E-02  0.1098144E+00
         -1   -1    0    0    0  501 -0.00000000000E+00  0.00000000000E+00  0.72545432609E+01  0.72545432609E+01  0.00000000000E+00 0.  1.
          1   -1    0    0  501    0  0.00000000000E+00 -0.00000000000E+00 -0.26165910758E+04  0.26165910758E+04  0.00000000000E+00 0.  1.
         36    2    1    2    0    0  0.35527136788E-14  0.10658141036E-13 -0.26093365326E+04  0.26238456191E+04  0.27555161517E+03 0.  0.
         25    2    3    3    0    0 -0.22755391827E+02 -0.11120320320E+02 -0.17510374536E+04  0.17560794921E+04  0.13054328531E+03 0.  0.
         25    2    3    3    0    0  0.22755391827E+02  0.11120320320E+02 -0.85829907896E+03  0.86776612697E+03  0.12529673892E+03 0.  0.
          5    1    4    4  502    0 -0.65176712979E+01 -0.68454859385E+02 -0.11542250648E+04  0.11562811674E+04  0.47000000000E+01 0.  1.
         -5    1    4    4    0  502 -0.16237720529E+02  0.57334539065E+02 -0.59681238883E+03  0.59979832477E+03  0.47000000000E+01 0.  1.
          5    1    5    5  503    0 -0.29842680926E+02 -0.27019042474E+02 -0.60044223416E+03  0.60180859151E+03  0.47000000000E+01 0. -1.
         -5    1    5    5    0  503  0.52598072753E+02  0.38139362794E+02 -0.25785684481E+03  0.26595753546E+03  0.47000000000E+01 0. -1.
<mgrwt>
<rscale>  0 0.27555162E+03</rscale>
<asrwt>0</asrwt>
<pdfrwt beam="1">  1        1 0.40255273E+00 0.27555162E+03</pdfrwt>
<pdfrwt beam="2">  1       -1 0.11160829E-02 0.27555162E+03</pdfrwt>
<totfact> 0.21258227E+03</totfact>
</mgrwt>
</event>
<event>
 9    1  0.2114844E-002  0.2718917E+03  0.7818608E-02  0.1100202E+00
          2   -1    0    0  501    0  0.00000000000E+00  0.00000000000E+00  0.80786878716E+02  0.80786878716E+02  0.00000000000E+00 0. -1.
         -2   -1    0    0    0  501 -0.00000000000E+00 -0.00000000000E+00 -0.22876575546E+03  0.22876575546E+03  0.00000000000E+00 0. -1.
         36    2    1    2    0    0  0.00000000000E+00 -0.71054273576E-14 -0.14797887674E+03  0.30955263417E+03  0.27189167946E+03 0.  0.
         25    2    3    3    0    0 -0.26795737403E+02  0.34642674423E+02 -0.38130215171E+02  0.13650518113E+03  0.12353794855E+03 0.  0.
         25    2    3    3    0    0  0.26795737403E+02 -0.34642674423E+02 -0.10984866157E+03  0.17304745305E+03  0.12633513416E+03 0.  0.
          5    1    4    4  502    0 -0.91211368359E+01  0.79953313095E+02 -0.33942087639E+02  0.87463608005E+02  0.47000000000E+01 0.  1.
         -5    1    4    4    0  502 -0.17674600567E+02 -0.45310638672E+02 -0.41881275321E+01  0.49041573122E+02  0.47000000000E+01 0.  1.
          5    1    5    5  503    0 -0.15018657252E+01  0.12211749645E+02 -0.11691709955E+03  0.11765662156E+03  0.47000000000E+01 0.  1.
         -5    1    5    5    0  503  0.28297603128E+02 -0.46854424068E+02  0.70684379753E+01  0.55390831488E+02  0.47000000000E+01 0.  1.
<mgrwt>
<rscale>  0 0.27189168E+03</rscale>
<asrwt>0</asrwt>
<pdfrwt beam="1">  1        2 0.12428751E-01 0.27189168E+03</pdfrwt>
<pdfrwt beam="2">  1       -2 0.35194731E-01 0.27189168E+03</pdfrwt>
<totfact> 0.36995805E+03</totfact>
</mgrwt>
</event>
<event>
 9    1  0.2114844E-002  0.2762012E+03  0.7818608E-02  0.1097782E+00
          2   -1    0    0  501    0  0.00000000000E+00  0.00000000000E+00  0.80987225481E+02  0.80987225481E+02  0.00000000000E+00 0. -1.
         -2   -1    0    0    0  501 -0.00000000000E+00 -0.00000000000E+00 -0.23549117865E+03  0.23549117865E+03  0.00000000000E+00 0. -1.
         36    2    1    2    0    0  0.00000000000E+00 -0.71054273576E-14 -0.15450395317E+03  0.31647840413E+03  0.27620121060E+03 0.  0.
         25    2    3    3    0    0 -0.48117879604E+01  0.54840076379E+02 -0.93012086529E+02  0.16495522557E+03  0.12461296450E+03 0.  0.
         25    2    3    3    0    0  0.48117879604E+01 -0.54840076379E+02 -0.61491866639E+02  0.15152317856E+03  0.12707256469E+03 0.  0.
          5    1    4    4  502    0  0.57064280900E+02  0.10734657454E+02 -0.53895762780E+02  0.79362511748E+02  0.47000000000E+01 0.  1.
         -5    1    4    4    0  502 -0.61876068860E+02  0.44105418924E+02 -0.39116323749E+02  0.85592713824E+02  0.47000000000E+01 0.  1.
          5    1    5    5  503    0 -0.45680324817E+02 -0.55884395557E+02 -0.67919662902E+00  0.72334701563E+02  0.47000000000E+01 0.  1.
         -5    1    5    5    0  503  0.50492112777E+02  0.10443191785E+01 -0.60812670010E+02  0.79188476997E+02  0.47000000000E+01 0.  1.
<mgrwt>
<rscale>  0 0.27620121E+03</rscale>
<asrwt>0</asrwt>
<pdfrwt beam="1">  1        2 0.12459573E-01 0.27620121E+03</pdfrwt>
<pdfrwt beam="2">  1       -2 0.36229413E-01 0.27620121E+03</pdfrwt>
<totfact> 0.34956196E+03</totfact>
</mgrwt>
</event>
<event>
 9    1  0.2114844E-002  0.2744953E+03  0.7818608E-02  0.1098734E+00
         -1   -1    0    0    0  501 -0.00000000000E+00  0.00000000000E+00  0.26261039007E+03  0.26261039007E+03  0.00000000000E+00 0.  1.
          1   -1    0    0  501    0  0.00000000000E+00 -0.00000000000E+00 -0.71729502293E+02  0.71729502293E+02  0.00000000000E+00 0.  1.
         36    2    1    2    0    0  0.00000000000E+00  0.14210854715E-13  0.19088088778E+03  0.33433989236E+03  0.27449526463E+03 0.  0.
         25    2    3    3    0    0  0.18379295278E+02  0.58549134948E+02  0.71589217709E+02  0.15048274894E+03  0.11727848029E+03 0.  0.
         25    2    3    3    0    0 -0.18379295278E+02 -0.58549134948E+02  0.11929167007E+03  0.18385714342E+03  0.12572647669E+03 0.  0.
          5    1    4    4  502    0 -0.41494096911E+02  0.51712463939E+02  0.58701601570E+02  0.88678672926E+02  0.47000000000E+01 0.  1.
         -5    1    4    4    0  502  0.59873392188E+02  0.68366710088E+01  0.12887616139E+02  0.61804076017E+02  0.47000000000E+01 0.  1.
          5    1    5    5  503    0  0.32865806284E+02 -0.22624494521E+02  0.11400328338E+03  0.12087542181E+03  0.47000000000E+01 0. -1.
         -5    1    5    5    0  503 -0.51245101561E+02 -0.35924640426E+02  0.52883866879E+01  0.62981721615E+02  0.47000000000E+01 0. -1.
<mgrwt>
<rscale>  0 0.27449526E+03</rscale>
<asrwt>0</asrwt>
<pdfrwt beam="1">  1        1 0.11035308E-01 0.27449526E+03</pdfrwt>
<pdfrwt beam="2">  1       -1 0.40401598E-01 0.27449526E+03</pdfrwt>
<totfact> 0.33901757E+03</totfact>
</mgrwt>
</event>
<event>
 9    1  0.2114844E-002  0.2758378E+03  0.7818608E-02  0.1097984E+00
          1   -1    0    0  501    0  0.00000000000E+00  0.00000000000E+00  0.31609400631E+03  0.31609400631E+03  0.00000000000E+00 0.  1.
         -1   -1    0    0    0  501 -0.00000000000E+00 -0.00000000000E+00 -0.60177106637E+02  0.60177106637E+02  0.00000000000E+00 0.  1.
         36    2    1    2    0    0  0.00000000000E+00  0.00000000000E+00  0.25591689968E+03  0.37627111295E+03  0.27583779817E+03 0.  0.
         25    2    3    3    0    0 -0.20643300682E+02 -0.56814798452E+02  0.15085357126E+03  0.20490625003E+03  0.12480266085E+03 0.  0.
         25    2    3    3    0    0  0.20643300682E+02  0.56814798452E+02  0.10506332842E+03  0.17136486292E+03  0.12113441327E+03 0.  0.
          5    1    4    4  502    0 -0.49466901785E+01  0.37770297092E+02  0.22044304192E+02  0.44261794286E+02  0.47000000000E+01 0.  1.
         -5    1    4    4    0  502 -0.15696610503E+02 -0.94585095543E+02  0.12880926706E+03  0.16064445574E+03  0.47000000000E+01 0.  1.
          5    1    5    5  503    0 -0.56557822119E+01  0.22155047156E+02  0.12216913601E+03  0.12437934628E+03  0.47000000000E+01 0.  1.
         -5    1    5    5    0  503  0.26299082894E+02  0.34659751296E+02 -0.17105807588E+02  0.46985516643E+02  0.47000000000E+01 0.  1.
<mgrwt>
<rscale>  0 0.27583780E+03</rscale>
<asrwt>0</asrwt>
<pdfrwt beam="1">  1        1 0.48629846E-01 0.27583780E+03</pdfrwt>
<pdfrwt beam="2">  1       -1 0.92580166E-02 0.27583780E+03</pdfrwt>
<totfact> 0.55974881E+03</totfact>
</mgrwt>
</event>
<event>
 9    1  0.2114844E-002  0.2741628E+03  0.7818608E-02  0.1098920E+00
          2   -1    0    0  501    0  0.00000000000E+00  0.00000000000E+00  0.14501413299E+04  0.14501413299E+04  0.00000000000E+00 0. -1.
         -2   -1    0    0    0  501 -0.00000000000E+00 -0.00000000000E+00 -0.12958264333E+02  0.12958264333E+02  0.00000000000E+00 0. -1.
         36    2    1    2    0    0  0.88817841970E-15  0.35527136788E-14  0.14371830656E+04  0.14630995943E+04  0.27416283245E+03 0.  0.
         25    2    3    3    0    0  0.96041649697E+00  0.24204713440E+02  0.43107126249E+03  0.44888740922E+03  0.12284413809E+03 0.  0.
         25    2    3    3    0    0 -0.96041649697E+00 -0.24204713440E+02  0.10061118031E+04  0.10142121851E+04  0.12561291884E+03 0.  0.
          5    1    4    4  502    0  0.73320121781E+01  0.48528024448E+02  0.63336764773E+02  0.80264334118E+02  0.47000000000E+01 0. -1.
         -5    1    4    4    0  502 -0.63715956811E+01 -0.24323311008E+02  0.36773449771E+03  0.36862307510E+03  0.47000000000E+01 0. -1.
          5    1    5    5  503    0  0.30825470452E+02  0.39022477927E+02  0.26131766713E+03  0.26604882365E+03  0.47000000000E+01 0.  1.
         -5    1    5    5    0  503 -0.31785886949E+02 -0.63227191367E+02  0.74479413599E+03  0.74816336140E+03  0.47000000000E+01 0.  1.
<mgrwt>
<rscale>  0 0.27416283E+03</rscale>
<asrwt>0</asrwt>
<pdfrwt beam="1">  1        2 0.22309854E+00 0.27416283E+03</pdfrwt>
<pdfrwt beam="2">  1       -2 0.19935803E-02 0.27416283E+03</pdfrwt>
<totfact> 0.11271598E+04</totfact>
</mgrwt>
</event>
<event>
 9    1  0.2114844E-002  0.2750481E+03  0.7818608E-02  0.1098425E+00
          3   -1    0    0  501    0  0.00000000000E+00  0.00000000000E+00  0.16333391477E+03  0.16333391477E+03  0.00000000000E+00 0. -1.
         -3   -1    0    0    0  501 -0.00000000000E+00 -0.00000000000E+00 -0.11579261249E+03  0.11579261249E+03  0.00000000000E+00 0. -1.
         36    2    1    2    0    0  0.00000000000E+00 -0.71054273576E-14  0.47541302275E+02  0.27912652726E+03  0.27504807361E+03 0.  0.
         25    2    3    3    0    0 -0.40500367978E+02  0.19175374117E+02 -0.59574463120E+01  0.13305412235E+03  0.12513965610E+03 0.  0.
         25    2    3    3    0    0  0.40500367978E+02 -0.19175374117E+02  0.53498748587E+02  0.14607240491E+03  0.12832402970E+03 0.  0.
          5    1    4    4  502    0 -0.31470231726E+02 -0.18857054499E+02 -0.57393529460E+02  0.68279361546E+02  0.47000000000E+01 0.  1.
         -5    1    4    4    0  502 -0.90301362524E+01  0.38032428616E+02  0.51436083148E+02  0.64774760800E+02  0.47000000000E+01 0.  1.
          5    1    5    5  503    0 -0.22095837685E+02  0.24155582148E+02  0.61041087358E+02  0.69424941755E+02  0.47000000000E+01 0.  1.
         -5    1    5    5    0  503  0.62596205663E+02 -0.43330956265E+02 -0.75423387702E+01  0.76647463157E+02  0.47000000000E+01 0.  1.
<mgrwt>
<rscale>  0 0.27504807E+03</rscale>
<asrwt>0</asrwt>
<pdfrwt beam="1">  1        3 0.25128295E-01 0.27504807E+03</pdfrwt>
<pdfrwt beam="2">  1       -3 0.17814248E-01 0.27504807E+03</pdfrwt>
<totfact> 0.10420911E+03</totfact>
</mgrwt>
</event>
<event>
 9    1  0.2114844E-002  0.2740783E+03  0.7818608E-02  0.1098968E+00
         -1   -1    0    0    0  501 -0.00000000000E+00  0.00000000000E+00  0.15727960676E+02  0.15727960676E+02  0.00000000000E+00 0. -1.
          1   -1    0    0  501    0  0.00000000000E+00 -0.00000000000E+00 -0.11940343048E+04  0.11940343048E+04  0.00000000000E+00 0. -1.
         36    2    1    2    0    0  0.53290705182E-14  0.00000000000E+00 -0.11783063441E+04  0.12097622654E+04  0.27407827051E+03 0.  0.
         25    2    3    3    0    0 -0.56830182561E+01  0.36845897481E+02 -0.69517075517E+03  0.70724976989E+03  0.12469940379E+03 0.  0.
         25    2    3    3    0    0  0.56830182561E+01 -0.36845897481E+02 -0.48313558891E+03  0.50251249554E+03  0.13307476864E+03 0.  0.
          5    1    4    4  502    0 -0.56155307371E+02  0.30798258525E+01 -0.18392387833E+03  0.19238759548E+03  0.47000000000E+01 0. -1.
         -5    1    4    4    0  502  0.50472289115E+02  0.33766071628E+02 -0.51124687684E+03  0.51486217441E+03  0.47000000000E+01 0. -1.
          5    1    5    5  503    0 -0.15877604291E+02  0.45637694341E+02 -0.11946746047E+03  0.12895526966E+03  0.47000000000E+01 0. -1.
         -5    1    5    5    0  503  0.21560622547E+02 -0.82483591821E+02 -0.36366812844E+03  0.37355722588E+03  0.47000000000E+01 0. -1.
<mgrwt>
<rscale>  0 0.27407827E+03</rscale>
<asrwt>0</asrwt>
<pdfrwt beam="1">  1        1 0.18369759E+00 0.27407827E+03</pdfrwt>
<pdfrwt beam="2">  1       -1 0.24196862E-02 0.27407827E+03</pdfrwt>
<totfact> 0.59894667E+03</totfact>
</mgrwt>
</event>
<event>
 9    1  0.2114844E-002  0.2748986E+03  0.7818608E-02  0.1098508E+00
         -2   -1    0    0    0  501 -0.00000000000E+00  0.00000000000E+00  0.77499850789E+01  0.77499850789E+01  0.00000000000E+00 0.  1.
          2   -1    0    0  501    0  0.00000000000E+00 -0.00000000000E+00 -0.24377214789E+04  0.24377214789E+04  0.00000000000E+00 0.  1.
         36    2    1    2    0    0  0.71054273576E-14 -0.35527136788E-14 -0.24299714938E+04  0.24454714640E+04  0.27489856375E+03 0.  0.
         25    2    3    3    0    0 -0.53961691306E+02  0.13143426493E+02 -0.13374045821E+04  0.13444706825E+04  0.12595946250E+03 0.  0.
         25    2    3    3    0    0  0.53961691306E+02 -0.13143426493E+02 -0.10925669117E+04  0.11010007814E+04  0.12415977754E+03 0.  0.
          5    1    4    4  502    0  0.24639787118E+02  0.44740994466E+02 -0.41082772441E+03  0.41401737263E+03  0.47000000000E+01 0.  1.
         -5    1    4    4    0  502 -0.78601478424E+02 -0.31597567973E+02 -0.92657685770E+03  0.93045330991E+03  0.47000000000E+01 0.  1.
          5    1    5    5  503    0  0.33618534012E+02 -0.66947185812E+02 -0.49581231998E+03  0.50146194089E+03  0.47000000000E+01 0.  1.
         -5    1    5    5    0  503  0.20343157294E+02  0.53803759319E+02 -0.59675459174E+03  0.59953884055E+03  0.47000000000E+01 0.  1.
<mgrwt>
<rscale>  0 0.27489856E+03</rscale>
<asrwt>0</asrwt>
<pdfrwt beam="1">  1        2 0.37503416E+00 0.27489856E+03</pdfrwt>
<pdfrwt beam="2">  1       -2 0.11923051E-02 0.27489856E+03</pdfrwt>
<totfact> 0.71581883E+03</totfact>
</mgrwt>
</event>
<event>
 9    1  0.2114844E-002  0.2754080E+03  0.7818608E-02  0.1098224E+00
         -1   -1    0    0    0  501 -0.00000000000E+00  0.00000000000E+00  0.49707359305E+02  0.49707359305E+02  0.00000000000E+00 0.  1.
          1   -1    0    0  501    0  0.00000000000E+00 -0.00000000000E+00 -0.38148046998E+03  0.38148046998E+03  0.00000000000E+00 0.  1.
         36    2    1    2    0    0  0.00000000000E+00  0.35527136788E-14 -0.33177311067E+03  0.43118782928E+03  0.27540796495E+03 0.  0.
         25    2    3    3    0    0  0.17926969280E+02 -0.24578536243E+02 -0.89792777129E+02  0.15662479696E+03  0.12467198373E+03 0.  0.
         25    2    3    3    0    0 -0.17926969280E+02  0.24578536243E+02 -0.24198033354E+03  0.27456303232E+03  0.12611461543E+03 0.  0.
          5    1    4    4  502    0  0.23874057552E+02 -0.71122970816E+01 -0.11904915421E+03  0.12171830804E+03  0.47000000000E+01 0.  1.
         -5    1    4    4    0  502 -0.59470882721E+01 -0.17466239161E+02  0.29256377078E+02  0.34906488925E+02  0.47000000000E+01 0.  1.
          5    1    5    5  503    0  0.43698451712E+02  0.27261945634E+02 -0.17883905763E+03  0.18616730888E+03  0.47000000000E+01 0. -1.
         -5    1    5    5    0  503 -0.61625420992E+02 -0.26834093914E+01 -0.63141275911E+02  0.88395723438E+02  0.47000000000E+01 0. -1.
<mgrwt>
<rscale>  0 0.27540796E+03</rscale>
<asrwt>0</asrwt>
<pdfrwt beam="1">  1        1 0.58689304E-01 0.27540796E+03</pdfrwt>
<pdfrwt beam="2">  1       -1 0.76472859E-02 0.27540796E+03</pdfrwt>
<totfact> 0.59097062E+03</totfact>
</mgrwt>
</event>
<event>
 9    1  0.2114844E-002  0.2732862E+03  0.7818608E-02  0.1099413E+00
         -2   -1    0    0    0  501 -0.00000000000E+00  0.00000000000E+00  0.16085676683E+02  0.16085676683E+02  0.00000000000E+00 0. -1.
          2   -1    0    0  501    0  0.00000000000E+00 -0.00000000000E+00 -0.11607428775E+04  0.11607428775E+04  0.00000000000E+00 0. -1.
         36    2    1    2    0    0  0.00000000000E+00  0.00000000000E+00 -0.11446572008E+04  0.11768285541E+04  0.27328618435E+03 0.  0.
         25    2    3    3    0    0 -0.58159642617E+01 -0.51693600416E+02 -0.69110317116E+03  0.70415888486E+03  0.12453950447E+03 0.  0.
         25    2    3    3    0    0  0.58159642617E+01  0.51693600416E+02 -0.45355402963E+03  0.47266966929E+03  0.12247164862E+03 0.  0.
          5    1    4    4  502    0 -0.34688870317E+02  0.26863613126E+02 -0.14211649208E+03  0.14880913532E+03  0.47000000000E+01 0. -1.
         -5    1    4    4    0  502  0.28872906055E+02 -0.78557213542E+02 -0.54898667908E+03  0.55534974953E+03  0.47000000000E+01 0. -1.
          5    1    5    5  503    0 -0.67715759597E+01  0.80690629999E+02 -0.41373988792E+03  0.42161548461E+03  0.47000000000E+01 0. -1.
         -5    1    5    5    0  503  0.12587540221E+02 -0.28997029583E+02 -0.39814141707E+02  0.51054184680E+02  0.47000000000E+01 0. -1.
<mgrwt>
<rscale>  0 0.27328618E+03</rscale>
<asrwt>0</asrwt>
<pdfrwt beam="1">  1        2 0.17857586E+00 0.27328618E+03</pdfrwt>
<pdfrwt beam="2">  1       -2 0.24747191E-02 0.27328618E+03</pdfrwt>
<totfact> 0.11854127E+04</totfact>
</mgrwt>
</event>
<event>
 9    1  0.2114844E-002  0.2751157E+03  0.7818608E-02  0.1098387E+00
         -2   -1    0    0    0  501 -0.00000000000E+00  0.00000000000E+00  0.14454541460E+02  0.14454541460E+02  0.00000000000E+00 0.  1.
          2   -1    0    0  501    0  0.00000000000E+00 -0.00000000000E+00 -0.13090804667E+04  0.13090804667E+04  0.00000000000E+00 0.  1.
         36    2    1    2    0    0  0.00000000000E+00  0.00000000000E+00 -0.12946259252E+04  0.13235350081E+04  0.27511566934E+03 0.  0.
         25    2    3    3    0    0  0.27018900285E+02 -0.18712154027E+01 -0.91580639679E+03  0.92440664781E+03  0.12285264216E+03 0.  0.
         25    2    3    3    0    0 -0.27018900285E+02  0.18712154027E+01 -0.37881952841E+03  0.39912836031E+03  0.12274237444E+03 0.  0.
          5    1    4    4  502    0  0.12154435516E+02  0.22529978674E+02 -0.86885139534E+03  0.86924114458E+03  0.47000000000E+01 0. -1.
         -5    1    4    4    0  502  0.14864464769E+02 -0.24401194077E+02 -0.46955001452E+02  0.55165503230E+02  0.47000000000E+01 0. -1.
          5    1    5    5  503    0  0.21440607888E+02  0.25404074098E+02 -0.26741105717E+02  0.42921362774E+02  0.47000000000E+01 0. -1.
         -5    1    5    5    0  503 -0.48459508173E+02 -0.23532858696E+02 -0.35207842269E+03  0.35620699754E+03  0.47000000000E+01 0. -1.
<mgrwt>
<rscale>  0 0.27511567E+03</rscale>
<asrwt>0</asrwt>
<pdfrwt beam="1">  1        2 0.20139699E+00 0.27511567E+03</pdfrwt>
<pdfrwt beam="2">  1       -2 0.22237756E-02 0.27511567E+03</pdfrwt>
<totfact> 0.11455605E+04</totfact>
</mgrwt>
</event>
<event>
 9    1  0.2114844E-002  0.2746357E+03  0.7818608E-02  0.1098655E+00
         -2   -1    0    0    0  501 -0.00000000000E+00  0.00000000000E+00  0.20571481398E+03  0.20571481398E+03  0.00000000000E+00 0. -1.
          2   -1    0    0  501    0  0.00000000000E+00 -0.00000000000E+00 -0.91661787202E+02  0.91661787202E+02  0.00000000000E+00 0. -1.
         36    2    1    2    0    0  0.35527136788E-14  0.35527136788E-14  0.11405302678E+03  0.29737660119E+03  0.27463566778E+03 0.  0.
         25    2    3    3    0    0  0.15641668802E+02  0.10570065085E+02  0.50165519078E+02  0.13974640404E+03  0.12905847534E+03 0.  0.
         25    2    3    3    0    0 -0.15641668802E+02 -0.10570065085E+02  0.63887507705E+02  0.15763019715E+03  0.14286104204E+03 0.  0.
          5    1    4    4  502    0  0.64159430225E+02  0.72234688396E+01 -0.63408780664E+01  0.65045428152E+02  0.47000000000E+01 0.  1.
         -5    1    4    4    0  502 -0.48517761423E+02  0.33465962457E+01  0.56506397145E+02  0.74700975885E+02  0.47000000000E+01 0.  1.
          5    1    5    5  503    0  0.13350718908E+02  0.51872625298E+02 -0.11966800431E+02  0.55084528347E+02  0.47000000000E+01 0. -1.
         -5    1    5    5    0  503 -0.28992387710E+02 -0.62442690383E+02  0.75854308136E+02  0.10254566880E+03  0.47000000000E+01 0. -1.
<mgrwt>
<rscale>  0 0.27463567E+03</rscale>
<asrwt>0</asrwt>
<pdfrwt beam="1">  1        2 0.14101813E-01 0.27463567E+03</pdfrwt>
<pdfrwt beam="2">  1       -2 0.31648433E-01 0.27463567E+03</pdfrwt>
<totfact> 0.38688729E+03</totfact>
</mgrwt>
</event>
<event>
 9    1  0.2114844E-002  0.2789914E+03  0.7818608E-02  0.1096241E+00
         -1   -1    0    0    0  501 -0.00000000000E+00  0.00000000000E+00  0.23861250225E+03  0.23861250225E+03  0.00000000000E+00 0.  1.
          1   -1    0    0  501    0  0.00000000000E+00 -0.00000000000E+00 -0.81550851120E+02  0.81550851120E+02  0.00000000000E+00 0.  1.
         36    2    1    2    0    0  0.71054273576E-14  0.14210854715E-13  0.15706165113E+03  0.32016335337E+03  0.27899141669E+03 0.  0.
         25    2    3    3    0    0  0.22463641303E+02  0.53796310429E+02  0.44688569791E+02  0.14339764911E+03  0.12315502143E+03 0.  0.
         25    2    3    3    0    0 -0.22463641303E+02 -0.53796310429E+02  0.11237308134E+03  0.17676570426E+03  0.12336833709E+03 0.  0.
          5    1    4    4  502    0  0.24730374579E+02 -0.11569509263E+02  0.68298011076E+02  0.73703143002E+02  0.47000000000E+01 0. -1.
         -5    1    4    4    0  502 -0.22667332757E+01  0.65365819692E+02 -0.23609441285E+02  0.69694506108E+02  0.47000000000E+01 0. -1.
          5    1    5    5  503    0 -0.58236002694E+02  0.12791299142E+02  0.39574328170E+02  0.71716572656E+02  0.47000000000E+01 0. -1.
         -5    1    5    5    0  503  0.35772361391E+02 -0.66587609571E+02  0.72798753173E+02  0.10504913161E+03  0.47000000000E+01 0. -1.
<mgrwt>
<rscale>  0 0.27899142E+03</rscale>
<asrwt>0</asrwt>
<pdfrwt beam="1">  1        1 0.12546285E-01 0.27899142E+03</pdfrwt>
<pdfrwt beam="2">  1       -1 0.36709615E-01 0.27899142E+03</pdfrwt>
<totfact> 0.33854007E+03</totfact>
</mgrwt>
</event>
<event>
 9    1  0.2114844E-002  0.2748310E+03  0.7818608E-02  0.1098546E+00
          2   -1    0    0  501    0  0.00000000000E+00  0.00000000000E+00  0.36399171070E+03  0.36399171070E+03  0.00000000000E+00 0.  1.
         -2   -1    0    0    0  501 -0.00000000000E+00 -0.00000000000E+00 -0.51877619446E+02  0.51877619446E+02  0.00000000000E+00 0.  1.
         36    2    1    2    0    0  0.00000000000E+00  0.71054273576E-14  0.31211409125E+03  0.41586933014E+03  0.27483102772E+03 0.  0.
         25    2    3    3    0    0 -0.20356909817E+02  0.57054275150E+02  0.23091767006E+03  0.25481034678E+03  0.89082817584E+02 0.  0.
         25    2    3    3    0    0  0.20356909817E+02 -0.57054275150E+02  0.81196421187E+02  0.16105898336E+03  0.12520999648E+03 0.  0.
          5    1    4    4  502    0 -0.27508077518E+02  0.63013152075E+02  0.89256844315E+02  0.11276624460E+03  0.47000000000E+01 0. -1.
         -5    1    4    4    0  502  0.71511677012E+01 -0.59588769251E+01  0.14166082575E+03  0.14204410219E+03  0.47000000000E+01 0. -1.
          5    1    5    5  503    0  0.21566056864E+02 -0.95941397003E+02  0.68232790961E+02  0.11978167735E+03  0.47000000000E+01 0.  1.
         -5    1    5    5    0  503 -0.12091470470E+01  0.38887121853E+02  0.12963630227E+02  0.41277306007E+02  0.47000000000E+01 0.  1.
<mgrwt>
<rscale>  0 0.27483103E+03</rscale>
<asrwt>0</asrwt>
<pdfrwt beam="1">  1        2 0.55998723E-01 0.27483103E+03</pdfrwt>
<pdfrwt beam="2">  1       -2 0.79811724E-02 0.27483103E+03</pdfrwt>
<totfact> 0.83433850E+03</totfact>
</mgrwt>
</event>
<event>
 9    1  0.2114844E-002  0.2733743E+03  0.7818608E-02  0.1099364E+00
          1   -1    0    0  501    0  0.00000000000E+00  0.00000000000E+00  0.27920440304E+03  0.27920440304E+03  0.00000000000E+00 0.  1.
         -1   -1    0    0    0  501 -0.00000000000E+00 -0.00000000000E+00 -0.66916470460E+02  0.66916470460E+02  0.00000000000E+00 0.  1.
         36    2    1    2    0    0 -0.17763568394E-14  0.00000000000E+00  0.21228793258E+03  0.34612087350E+03  0.27337427230E+03 0.  0.
         25    2    3    3    0    0  0.11632629546E+01 -0.33588025464E+02  0.16532460064E+03  0.20979328035E+03  0.12470560639E+03 0.  0.
         25    2    3    3    0    0 -0.11632629546E+01  0.33588025464E+02  0.46963331935E+02  0.13632759315E+03  0.12349149555E+03 0.  0.
          5    1    4    4  502    0  0.12219249487E+02  0.21515463990E+02 -0.88656820770E+01  0.26700478786E+02  0.47000000000E+01 0.  1.
         -5    1    4    4    0  502 -0.11055986533E+02 -0.55103489454E+02  0.17419028272E+03  0.18309280156E+03  0.47000000000E+01 0.  1.
          5    1    5    5  503    0  0.18024163934E+02  0.12312256553E+02 -0.39360312983E+02  0.45252473800E+02  0.47000000000E+01 0.  1.
         -5    1    5    5    0  503 -0.19187426889E+02  0.21275768911E+02  0.86323644917E+02  0.91075119353E+02  0.47000000000E+01 0.  1.
<mgrwt>
<rscale>  0 0.27337427E+03</rscale>
<asrwt>0</asrwt>
<pdfrwt beam="1">  1        1 0.42954523E-01 0.27337427E+03</pdfrwt>
<pdfrwt beam="2">  1       -1 0.10294842E-01 0.27337427E+03</pdfrwt>
<totfact> 0.55523729E+03</totfact>
</mgrwt>
</event>
<event>
 9    1  0.2114844E-002  0.2754543E+03  0.7818608E-02  0.1098198E+00
         -2   -1    0    0    0  501 -0.00000000000E+00  0.00000000000E+00  0.37558054605E+02  0.37558054605E+02  0.00000000000E+00 0. -1.
          2   -1    0    0  501    0  0.00000000000E+00 -0.00000000000E+00 -0.50505178846E+03  0.50505178846E+03  0.00000000000E+00 0. -1.
         36    2    1    2    0    0  0.00000000000E+00  0.00000000000E+00 -0.46749373386E+03  0.54260984307E+03  0.27545426226E+03 0.  0.
         25    2    3    3    0    0  0.35938160762E+02 -0.34613246805E+02 -0.14411830529E+03  0.19431945577E+03  0.12041734392E+03 0.  0.
         25    2    3    3    0    0 -0.35938160762E+02  0.34613246805E+02 -0.32337542857E+03  0.34829038730E+03  0.11935199132E+03 0.  0.
          5    1    4    4  502    0  0.31209285160E+02  0.72801730319E+01  0.10451365758E+02  0.34034415608E+02  0.47000000000E+01 0.  1.
         -5    1    4    4    0  502  0.47288756019E+01 -0.41893419837E+02 -0.15456967105E+03  0.16028504016E+03  0.47000000000E+01 0.  1.
          5    1    5    5  503    0 -0.70877360272E+02 -0.10818447033E+02 -0.18104888047E+03  0.19478559011E+03  0.47000000000E+01 0. -1.
         -5    1    5    5    0  503  0.34939199510E+02  0.45431693839E+02 -0.14232654809E+03  0.15350479719E+03  0.47000000000E+01 0. -1.
<mgrwt>
<rscale>  0 0.27545426E+03</rscale>
<asrwt>0</asrwt>
<pdfrwt beam="1">  1        2 0.77700272E-01 0.27545426E+03</pdfrwt>
<pdfrwt beam="2">  1       -2 0.57781625E-02 0.27545426E+03</pdfrwt>
<totfact> 0.95995792E+03</totfact>
</mgrwt>
</event>
<event>
 9    1  0.2114844E-002  0.2750248E+03  0.7818608E-02  0.1098438E+00
         -3   -1    0    0    0  501 -0.00000000000E+00  0.00000000000E+00  0.69875038629E+02  0.69875038629E+02  0.00000000000E+00 0. -1.
          3   -1    0    0  501    0  0.00000000000E+00 -0.00000000000E+00 -0.27062111615E+03  0.27062111615E+03  0.00000000000E+00 0. -1.
         36    2    1    2    0    0  0.00000000000E+00  0.71054273576E-14 -0.20074607753E+03  0.34049615478E+03  0.27502480576E+03 0.  0.
         25    2    3    3    0    0 -0.13204004248E+02  0.49314153133E+02 -0.14381185404E+03  0.19744980227E+03  0.12529303105E+03 0.  0.
         25    2    3    3    0    0  0.13204004248E+02 -0.49314153133E+02 -0.56934223487E+02  0.14304635251E+03  0.12089053617E+03 0.  0.
          5    1    4    4  502    0 -0.51482511188E+02  0.24586148623E+02 -0.12799893862E+02  0.58658801089E+02  0.47000000000E+01 0.  1.
         -5    1    4    4    0  502  0.38278506941E+02  0.24728004510E+02 -0.13101196018E+03  0.13879100118E+03  0.47000000000E+01 0.  1.
          5    1    5    5  503    0  0.38836663442E+01 -0.78921053563E+02 -0.13009857025E+01  0.79166900429E+02  0.47000000000E+01 0. -1.
         -5    1    5    5    0  503  0.93203379034E+01  0.29606900430E+02 -0.55633237785E+02  0.63879452081E+02  0.47000000000E+01 0. -1.
<mgrwt>
<rscale>  0 0.27502481E+03</rscale>
<asrwt>0</asrwt>
<pdfrwt beam="1">  1        3 0.41634017E-01 0.27502481E+03</pdfrwt>
<pdfrwt beam="2">  1       -3 0.10750006E-01 0.27502481E+03</pdfrwt>
<totfact> 0.95526083E+02</totfact>
</mgrwt>
</event>
<event>
 8    1  0.2114844E-002  0.2501786E+03  0.7818608E-02  0.1113192E+00
          4   -1    0    0  501    0  0.00000000000E+00  0.00000000000E+00  0.24437761692E+02  0.24437761692E+02  0.00000000000E+00 0.  1.
         -4   -1    0    0    0  501 -0.00000000000E+00 -0.00000000000E+00 -0.64029297877E+03  0.64029297877E+03  0.00000000000E+00 0.  1.
         25    2    1    2    0    0  0.51679927166E+02 -0.13864918429E+02 -0.30542531669E+03  0.32510855844E+03  0.97713355604E+02 0.  0.
         25    2    1    2    0    0 -0.51679927166E+02  0.13864918429E+02 -0.31042990039E+03  0.33962218202E+03  0.12693877512E+03 0.  0.
          5    1    3    3  502    0  0.72915594763E+01  0.29996970438E+02 -0.20066323209E+03  0.20307832920E+03  0.47000000000E+01 0. -1.
         -5    1    3    3    0  502  0.44388367690E+02 -0.43861888867E+02 -0.10476208460E+03  0.12203022925E+03  0.47000000000E+01 0. -1.
          5    1    4    4  503    0 -0.20990558427E+02  0.10091915531E+02  0.36065088700E+01  0.24032211891E+02  0.47000000000E+01 0.  1.
         -5    1    4    4    0  503 -0.30689368739E+02  0.37730028987E+01 -0.31403640926E+03  0.31558997013E+03  0.47000000000E+01 0.  1.
<mgrwt>
<rscale>  0 0.25017855E+03</rscale>
<asrwt>0</asrwt>
<pdfrwt beam="1">  1        4 0.37596554E-02 0.25017855E+03</pdfrwt>
<pdfrwt beam="2">  1       -4 0.98506618E-01 0.25017855E+03</pdfrwt>
<totfact> 0.61758443E+02</totfact>
</mgrwt>
</event>
<event>
 9    1  0.2114844E-002  0.2756484E+03  0.7818608E-02  0.1098090E+00
          2   -1    0    0  501    0  0.00000000000E+00  0.00000000000E+00  0.14981072872E+04  0.14981072872E+04  0.00000000000E+00 0. -1.
         -2   -1    0    0    0  501 -0.00000000000E+00 -0.00000000000E+00 -0.12679675553E+02  0.12679675553E+02  0.00000000000E+00 0. -1.
         36    2    1    2    0    0  0.00000000000E+00 -0.35527136788E-14  0.14854276117E+04  0.15107869628E+04  0.27564843077E+03 0.  0.
         25    2    3    3    0    0 -0.24104546683E+02  0.14225061721E+02  0.10709523700E+04  0.10770840640E+04  0.11130013690E+03 0.  0.
         25    2    3    3    0    0  0.24104546683E+02 -0.14225061721E+02  0.41447524164E+03  0.43370289879E+03  0.12459974692E+03 0.  0.
          5    1    4    4  502    0  0.34141294742E+02  0.38310108290E+02  0.46858694960E+03  0.47141182817E+03  0.47000000000E+01 0. -1.
         -5    1    4    4    0  502 -0.58245841425E+02 -0.24085046569E+02  0.60236542044E+03  0.60567223583E+03  0.47000000000E+01 0. -1.
          5    1    5    5  503    0 -0.39812926930E+02  0.25662819690E+02  0.21999633644E+03  0.22508693323E+03  0.47000000000E+01 0.  1.
         -5    1    5    5    0  503  0.63917473613E+02 -0.39887881411E+02  0.19447890521E+03  0.20861596556E+03  0.47000000000E+01 0.  1.
<mgrwt>
<rscale>  0 0.27564843E+03</rscale>
<asrwt>0</asrwt>
<pdfrwt beam="1">  1        2 0.23047790E+00 0.27564843E+03</pdfrwt>
<pdfrwt beam="2">  1       -2 0.19507205E-02 0.27564843E+03</pdfrwt>
<totfact> 0.10968724E+04</totfact>
</mgrwt>
</event>
<event>
 9    1  0.2114844E-002  0.2751239E+03  0.7818608E-02  0.1098382E+00
         -2   -1    0    0    0  501 -0.00000000000E+00  0.00000000000E+00  0.80475066507E+02  0.80475066507E+02  0.00000000000E+00 0. -1.
          2   -1    0    0  501    0  0.00000000000E+00 -0.00000000000E+00 -0.23514482319E+03  0.23514482319E+03  0.00000000000E+00 0. -1.
         36    2    1    2    0    0  0.35527136788E-14 -0.35527136788E-14 -0.15466975668E+03  0.31561988969E+03  0.27512393778E+03 0.  0.
         25    2    3    3    0    0 -0.28060878297E+02  0.23472261340E+02 -0.12702293756E+03  0.18076700754E+03  0.12330257259E+03 0.  0.
         25    2    3    3    0    0  0.28060878297E+02 -0.23472261340E+02 -0.27646819122E+02  0.13485288215E+03  0.12681716474E+03 0.  0.
          5    1    4    4  502    0 -0.32931199406E+02 -0.97818669689E+00 -0.14557949197E+03  0.14933485603E+03  0.47000000000E+01 0.  1.
         -5    1    4    4    0  502  0.48703211090E+01  0.24450448037E+02  0.18556554414E+02  0.31432151511E+02  0.47000000000E+01 0.  1.
          5    1    5    5  503    0  0.48478624628E+02  0.39760828843E+02 -0.26495754335E+02  0.68229140064E+02  0.47000000000E+01 0.  1.
         -5    1    5    5    0  503 -0.20417746331E+02 -0.63233090183E+02 -0.11510647871E+01  0.66623742086E+02  0.47000000000E+01 0.  1.
<mgrwt>
<rscale>  0 0.27512394E+03</rscale>
<asrwt>0</asrwt>
<pdfrwt beam="1">  1        2 0.36176126E-01 0.27512394E+03</pdfrwt>
<pdfrwt beam="2">  1       -2 0.12380780E-01 0.27512394E+03</pdfrwt>
<totfact> 0.66504736E+03</totfact>
</mgrwt>
</event>
<event>
 9    1  0.2114844E-002  0.2750069E+03  0.7818608E-02  0.1098448E+00
          3   -1    0    0  501    0  0.00000000000E+00  0.00000000000E+00  0.62289000345E+02  0.62289000345E+02  0.00000000000E+00 0.  1.
         -3   -1    0    0    0  501 -0.00000000000E+00 -0.00000000000E+00 -0.30353994717E+03  0.30353994717E+03  0.00000000000E+00 0.  1.
         36    2    1    2    0    0  0.00000000000E+00  0.00000000000E+00 -0.24125094682E+03  0.36582894751E+03  0.27500690809E+03 0.  0.
         25    2    3    3    0    0 -0.55383895405E+00  0.11620221939E+02 -0.44587323680E+02  0.13458221428E+03  0.12644764399E+03 0.  0.
         25    2    3    3    0    0  0.55383895405E+00 -0.11620221939E+02 -0.19666362314E+03  0.23124673323E+03  0.12109143103E+03 0.  0.
          5    1    4    4  502    0  0.57195271860E+02 -0.84630721141E+01 -0.44743893683E+02  0.73260007745E+02  0.47000000000E+01 0.  1.
         -5    1    4    4    0  502 -0.57749110815E+02  0.20083294053E+02  0.15657000358E+00  0.61322206533E+02  0.47000000000E+01 0.  1.
          5    1    5    5  503    0 -0.32680731309E+02 -0.47275121609E+02 -0.16000053623E+03  0.17007418651E+03  0.47000000000E+01 0. -1.
         -5    1    5    5    0  503  0.33234570263E+02  0.35654899670E+02 -0.36663086910E+02  0.61172546725E+02  0.47000000000E+01 0. -1.
<mgrwt>
<rscale>  0 0.27500691E+03</rscale>
<asrwt>0</asrwt>
<pdfrwt beam="1">  1        3 0.95829230E-02 0.27500691E+03</pdfrwt>
<pdfrwt beam="2">  1       -3 0.46698454E-01 0.27500691E+03</pdfrwt>
<totfact> 0.92224612E+02</totfact>
</mgrwt>
</event>
<event>
 9    1  0.2114844E-002  0.2744183E+03  0.7818608E-02  0.1098777E+00
          2   -1    0    0  501    0  0.00000000000E+00  0.00000000000E+00  0.33751282068E+04  0.33751282068E+04  0.00000000000E+00 0. -1.
         -2   -1    0    0    0  501 -0.00000000000E+00 -0.00000000000E+00 -0.55779673369E+01  0.55779673369E+01  0.00000000000E+00 0. -1.
         36    2    1    2    0    0 -0.14210854715E-13  0.00000000000E+00  0.33695502394E+04  0.33807061741E+04  0.27441832953E+03 0.  0.
         25    2    3    3    0    0 -0.75040096143E+02  0.46072554972E+02  0.12933625534E+04  0.12988696324E+04  0.80758474221E+02 0.  0.
         25    2    3    3    0    0  0.75040096143E+02 -0.46072554972E+02  0.20761876861E+04  0.20818365417E+04  0.12543676606E+03 0.  0.
          5    1    4    4  502    0 -0.18286112617E+02  0.39368447061E+02  0.92874320479E+03  0.92976894279E+03  0.47000000000E+01 0.  1.
         -5    1    4    4    0  502 -0.56753983526E+02  0.67041079118E+01  0.36461934857E+03  0.36910068960E+03  0.47000000000E+01 0.  1.
          5    1    5    5  503    0  0.22346654353E+02 -0.14758784589E+02  0.17312519479E+04  0.17314654463E+04  0.47000000000E+01 0. -1.
         -5    1    5    5    0  503  0.52693441790E+02 -0.31313770384E+02  0.34493573821E+03  0.35037109544E+03  0.47000000000E+01 0. -1.
<mgrwt>
<rscale>  0 0.27441833E+03</rscale>
<asrwt>0</asrwt>
<pdfrwt beam="1">  1        2 0.51924886E+00 0.27441833E+03</pdfrwt>
<pdfrwt beam="2">  1       -2 0.85815152E-03 0.27441833E+03</pdfrwt>
<totfact> 0.32573194E+03</totfact>
</mgrwt>
</event>
<event>
 9    1  0.2114844E-002  0.2756126E+03  0.7818608E-02  0.1098110E+00
         -2   -1    0    0    0  501 -0.00000000000E+00  0.00000000000E+00  0.13857222933E+02  0.13857222933E+02  0.00000000000E+00 0. -1.
          2   -1    0    0  501    0  0.00000000000E+00 -0.00000000000E+00 -0.13704463168E+04  0.13704463168E+04  0.00000000000E+00 0. -1.
         36    2    1    2    0    0  0.00000000000E+00  0.71054273576E-14 -0.13565890939E+04  0.13843035397E+04  0.27561262765E+03 0.  0.
         25    2    3    3    0    0 -0.37929137683E+02 -0.39848475994E+02 -0.58480906785E+03  0.60056527520E+03  0.12510189213E+03 0.  0.
         25    2    3    3    0    0  0.37929137683E+02  0.39848475994E+02 -0.77178002602E+03  0.78373826453E+03  0.12479879089E+03 0.  0.
          5    1    4    4  502    0 -0.73539612144E+01 -0.35215125336E+02 -0.36844697909E+02  0.51708873145E+02  0.47000000000E+01 0. -1.
         -5    1    4    4    0  502 -0.30575176469E+02 -0.46333506578E+01 -0.54796436994E+03  0.54885640205E+03  0.47000000000E+01 0. -1.
          5    1    5    5  503    0  0.17651760054E+02 -0.39643228685E+02 -0.14026715790E+03  0.14690178964E+03  0.47000000000E+01 0.  1.
         -5    1    5    5    0  503  0.20277377629E+02  0.79491704679E+02 -0.63151286812E+03  0.63683647489E+03  0.47000000000E+01 0.  1.
<mgrwt>
<rscale>  0 0.27561263E+03</rscale>
<asrwt>0</asrwt>
<pdfrwt beam="1">  1        2 0.21083796E+00 0.27561263E+03</pdfrwt>
<pdfrwt beam="2">  1       -2 0.21318798E-02 0.27561263E+03</pdfrwt>
<totfact> 0.11281255E+04</totfact>
</mgrwt>
</event>
<event>
 9    1  0.2114844E-002  0.2751408E+03  0.7818608E-02  0.1098373E+00
          2   -1    0    0  501    0  0.00000000000E+00  0.00000000000E+00  0.21070343645E+04  0.21070343645E+04  0.00000000000E+00 0. -1.
         -2   -1    0    0    0  501 -0.00000000000E+00 -0.00000000000E+00 -0.89821080730E+01  0.89821080730E+01  0.00000000000E+00 0. -1.
         36    2    1    2    0    0  0.00000000000E+00  0.53290705182E-14  0.20980522565E+04  0.21160164726E+04  0.27514076671E+03 0.  0.
         25    2    3    3    0    0  0.52840105128E+02 -0.14474669353E+02  0.12407621212E+04  0.12475300088E+04  0.11763880574E+03 0.  0.
         25    2    3    3    0    0 -0.52840105128E+02  0.14474669353E+02  0.85729013526E+03  0.86848646384E+03  0.12775276549E+03 0.  0.
          5    1    4    4  502    0  0.18300995755E+02  0.33066999955E+00  0.25815146259E+02  0.31992929917E+02  0.47000000000E+01 0. -1.
         -5    1    4    4    0  502  0.34539109373E+02 -0.14805339353E+02  0.12149469749E+04  0.12155370789E+04  0.47000000000E+01 0. -1.
          5    1    5    5  503    0 -0.53382069633E+02  0.56141578653E+02  0.30910489386E+03  0.31869961974E+03  0.47000000000E+01 0. -1.
         -5    1    5    5    0  503  0.54196450528E+00 -0.41666909299E+02  0.54818524140E+03  0.54978684410E+03  0.47000000000E+01 0. -1.
<mgrwt>
<rscale>  0 0.27514077E+03</rscale>
<asrwt>0</asrwt>
<pdfrwt beam="1">  1        2 0.32415874E+00 0.27514077E+03</pdfrwt>
<pdfrwt beam="2">  1       -2 0.13818645E-02 0.27514077E+03</pdfrwt>
<totfact> 0.86780834E+03</totfact>
</mgrwt>
</event>
<event>
 9    1  0.2114844E-002  0.2765211E+03  0.7818608E-02  0.1097604E+00
         -1   -1    0    0    0  501 -0.00000000000E+00  0.00000000000E+00  0.78478490780E+01  0.78478490780E+01  0.00000000000E+00 0. -1.
          1   -1    0    0  501    0  0.00000000000E+00 -0.00000000000E+00 -0.24358242822E+04  0.24358242822E+04  0.00000000000E+00 0. -1.
         36    2    1    2    0    0  0.00000000000E+00  0.71054273576E-14 -0.24279764331E+04  0.24436721313E+04  0.27652111201E+03 0.  0.
         25    2    3    3    0    0  0.30927398576E+02  0.50485549645E+02 -0.96552445484E+03  0.97480644826E+03  0.12043605760E+03 0.  0.
         25    2    3    3    0    0 -0.30927398576E+02 -0.50485549645E+02 -0.14624519783E+04  0.14688656830E+04  0.12367421421E+03 0.  0.
          5    1    4    4  502    0 -0.23071965888E+02  0.19232544116E+02 -0.74385400955E+03  0.74447503913E+03  0.47000000000E+01 0.  1.
         -5    1    4    4    0  502  0.53999364464E+02  0.31253005529E+02 -0.22167044529E+03  0.23033140913E+03  0.47000000000E+01 0.  1.
          5    1    5    5  503    0  0.72678276754E+01 -0.33137249376E+02 -0.13161499437E+04  0.13165954819E+04  0.47000000000E+01 0.  1.
         -5    1    5    5    0  503 -0.38195226251E+02 -0.17348300270E+02 -0.14630203460E+03  0.15227020115E+03  0.47000000000E+01 0.  1.
<mgrwt>
<rscale>  0 0.27652111E+03</rscale>
<asrwt>0</asrwt>
<pdfrwt beam="1">  1        1 0.37474199E+00 0.27652111E+03</pdfrwt>
<pdfrwt beam="2">  1       -1 0.12073621E-02 0.27652111E+03</pdfrwt>
<totfact> 0.25032282E+03</totfact>
</mgrwt>
</event>
<event>
 9    1  0.2114844E-002  0.2747367E+03  0.7818608E-02  0.1098599E+00
         -2   -1    0    0    0  501 -0.00000000000E+00  0.00000000000E+00  0.94440540567E+02  0.94440540567E+02  0.00000000000E+00 0. -1.
          2   -1    0    0  501    0  0.00000000000E+00 -0.00000000000E+00 -0.19980894648E+03  0.19980894648E+03  0.00000000000E+00 0. -1.
         36    2    1    2    0    0  0.00000000000E+00  0.71054273576E-14 -0.10536840592E+03  0.29424948705E+03  0.27473670971E+03 0.  0.
         25    2    3    3    0    0 -0.46638773274E+02  0.21559977605E+02 -0.79651397872E+02  0.15617682613E+03  0.12412432490E+03 0.  0.
         25    2    3    3    0    0  0.46638773274E+02 -0.21559977605E+02 -0.25717008045E+02  0.13807266092E+03  0.12554954155E+03 0.  0.
          5    1    4    4  502    0 -0.18823572912E+02  0.54720731029E+02  0.77102172090E+01  0.58568103529E+02  0.47000000000E+01 0. -1.
         -5    1    4    4    0  502 -0.27815200362E+02 -0.33160753424E+02 -0.87361615081E+02  0.97608722604E+02  0.47000000000E+01 0. -1.
          5    1    5    5  503    0  0.59033261519E+02  0.40388357860E+02 -0.70410970038E+01  0.72026470573E+02  0.47000000000E+01 0. -1.
         -5    1    5    5    0  503 -0.12394488245E+02 -0.61948335466E+02 -0.18675911042E+02  0.66046190345E+02  0.47000000000E+01 0. -1.
<mgrwt>
<rscale>  0 0.27473671E+03</rscale>
<asrwt>0</asrwt>
<pdfrwt beam="1">  1        2 0.30739837E-01 0.27473671E+03</pdfrwt>
<pdfrwt beam="2">  1       -2 0.14529314E-01 0.27473671E+03</pdfrwt>
<totfact> 0.61148180E+03</totfact>
</mgrwt>
</event>
<event>
 9    1  0.2114844E-002  0.2749742E+03  0.7818608E-02  0.1098466E+00
          1   -1    0    0  501    0  0.00000000000E+00  0.00000000000E+00  0.24185796553E+04  0.24185796553E+04  0.00000000000E+00 0. -1.
         -1   -1    0    0    0  501 -0.00000000000E+00 -0.00000000000E+00 -0.78156237452E+01  0.78156237452E+01  0.00000000000E+00 0. -1.
         36    2    1    2    0    0 -0.71054273576E-14 -0.17763568394E-14  0.24107640316E+04  0.24263952791E+04  0.27497424304E+03 0.  0.
         25    2    3    3    0    0  0.15903426959E+02  0.11794899188E+02  0.71294042980E+03  0.72383876036E+03  0.12355750047E+03 0.  0.
         25    2    3    3    0    0 -0.15903426959E+02 -0.11794899188E+02  0.16978236018E+04  0.17025565187E+04  0.12530633663E+03 0.  0.
          5    1    4    4  502    0 -0.29933635178E+02  0.10223031648E+02  0.50353758793E+02  0.59650011866E+02  0.47000000000E+01 0. -1.
         -5    1    4    4    0  502  0.45837062137E+02  0.15718675403E+01  0.66258667101E+03  0.66418874850E+03  0.47000000000E+01 0. -1.
          5    1    5    5  503    0 -0.28202067073E+02 -0.10725163547E+01  0.16679433377E+04  0.16681887108E+04  0.47000000000E+01 0. -1.
         -5    1    5    5    0  503  0.12298640114E+02 -0.10722382833E+02  0.29880264029E+02  0.34367807912E+02  0.47000000000E+01 0. -1.
<mgrwt>
<rscale>  0 0.27497424E+03</rscale>
<asrwt>0</asrwt>
<pdfrwt beam="1">  1        1 0.37208858E+00 0.27497424E+03</pdfrwt>
<pdfrwt beam="2">  1       -1 0.12024056E-02 0.27497424E+03</pdfrwt>
<totfact> 0.25854872E+03</totfact>
</mgrwt>
</event>
<event>
 9    1  0.2114844E-002  0.2768569E+03  0.7818608E-02  0.1097418E+00
         -2   -1    0    0    0  501 -0.00000000000E+00  0.00000000000E+00  0.30808622244E+02  0.30808622244E+02  0.00000000000E+00 0. -1.
          2   -1    0    0  501    0  0.00000000000E+00 -0.00000000000E+00 -0.62198271663E+03  0.62198271663E+03  0.00000000000E+00 0. -1.
         36    2    1    2    0    0  0.71054273576E-14  0.00000000000E+00 -0.59117409438E+03  0.65279133887E+03  0.27685686236E+03 0.  0.
         25    2    3    3    0    0  0.54431423646E+02  0.13877053403E+02 -0.30093635312E+03  0.33189417116E+03  0.12820179302E+03 0.  0.
         25    2    3    3    0    0 -0.54431423646E+02 -0.13877053403E+02 -0.29023774127E+03  0.32089716771E+03  0.12482665298E+03 0.  0.
          5    1    4    4  502    0  0.29386822481E+02  0.71035392178E+02 -0.15396297670E+03  0.17215196912E+03  0.47000000000E+01 0. -1.
         -5    1    4    4    0  502  0.25044601165E+02 -0.57158338775E+02 -0.14697337642E+03  0.15974220205E+03  0.47000000000E+01 0. -1.
          5    1    5    5  503    0  0.81634048122E+01 -0.50175253294E+02 -0.19277154961E+03  0.19941704431E+03  0.47000000000E+01 0. -1.
         -5    1    5    5    0  503 -0.62594828458E+02  0.36298199891E+02 -0.97466191656E+02  0.12148012340E+03  0.47000000000E+01 0. -1.
<mgrwt>
<rscale>  0 0.27685686E+03</rscale>
<asrwt>0</asrwt>
<pdfrwt beam="1">  1        2 0.95689640E-01 0.27685686E+03</pdfrwt>
<pdfrwt beam="2">  1       -2 0.47397885E-02 0.27685686E+03</pdfrwt>
<totfact> 0.10229873E+04</totfact>
</mgrwt>
</event>
<event>
 9    1  0.2114844E-002  0.2745996E+03  0.7818608E-02  0.1098676E+00
         -1   -1    0    0    0  501 -0.00000000000E+00  0.00000000000E+00  0.71927680215E+02  0.71927680215E+02  0.00000000000E+00 0. -1.
          1   -1    0    0  501    0  0.00000000000E+00 -0.00000000000E+00 -0.26208590456E+03  0.26208590456E+03  0.00000000000E+00 0. -1.
         36    2    1    2    0    0  0.35527136788E-14  0.00000000000E+00 -0.19015822434E+03  0.33401358477E+03  0.27459957124E+03 0.  0.
         25    2    3    3    0    0 -0.12974594842E+02 -0.18660324954E+02 -0.15023824894E+03  0.19830616615E+03  0.12742549293E+03 0.  0.
         25    2    3    3    0    0  0.12974594842E+02  0.18660324954E+02 -0.39919975398E+02  0.13570741862E+03  0.12769632412E+03 0.  0.
          5    1    4    4  502    0 -0.24098974184E+02  0.52025718972E+02 -0.61455208339E+02  0.84179977567E+02  0.47000000000E+01 0. -1.
         -5    1    4    4    0  502  0.11124379342E+02 -0.70686043926E+02 -0.88783040603E+02  0.11412618858E+03  0.47000000000E+01 0. -1.
          5    1    5    5  503    0 -0.41497784011E+02  0.36872392138E+02  0.13286023791E+02  0.57273447670E+02  0.47000000000E+01 0.  1.
         -5    1    5    5    0  503  0.54472378853E+02 -0.18212067184E+02 -0.53205999190E+02  0.78433970949E+02  0.47000000000E+01 0.  1.
<mgrwt>
<rscale>  0 0.27459957E+03</rscale>
<asrwt>0</asrwt>
<pdfrwt beam="1">  1        1 0.40320909E-01 0.27459957E+03</pdfrwt>
<pdfrwt beam="2">  1       -1 0.11065797E-01 0.27459957E+03</pdfrwt>
<totfact> 0.53749050E+03</totfact>
</mgrwt>
</event>
<event>
 9    1  0.2114844E-002  0.2747783E+03  0.7818608E-02  0.1098576E+00
         -2   -1    0    0    0  501 -0.00000000000E+00  0.00000000000E+00  0.59999135835E+03  0.59999135835E+03  0.00000000000E+00 0. -1.
          2   -1    0    0  501    0  0.00000000000E+00 -0.00000000000E+00 -0.31460073672E+02  0.31460073672E+02  0.00000000000E+00 0. -1.
         36    2    1    2    0    0  0.71054273576E-14  0.00000000000E+00  0.56853128468E+03  0.63145143202E+03  0.27477825486E+03 0.  0.
         25    2    3    3    0    0  0.34269300107E+02  0.35399642568E+02  0.38785154572E+03  0.40725817945E+03  0.11403018718E+03 0.  0.
         25    2    3    3    0    0 -0.34269300107E+02 -0.35399642568E+02  0.18067973896E+03  0.22419325257E+03  0.12324742109E+03 0.  0.
          5    1    4    4  502    0  0.32128326958E+01 -0.12498149973E+02 -0.14092039314E+01  0.13805864782E+02  0.47000000000E+01 0.  1.
         -5    1    4    4    0  502  0.31056467411E+02  0.47897792540E+02  0.38926074965E+03  0.39345231467E+03  0.47000000000E+01 0.  1.
          5    1    5    5  503    0 -0.76588373366E+02 -0.41765678279E+02  0.13962332884E+03  0.16470250384E+03  0.47000000000E+01 0.  1.
         -5    1    5    5    0  503  0.42319073259E+02  0.63660357116E+01  0.41056410123E+02  0.59490748729E+02  0.47000000000E+01 0.  1.
<mgrwt>
<rscale>  0 0.27477825E+03</rscale>
<asrwt>0</asrwt>
<pdfrwt beam="1">  1        2 0.48400118E-02 0.27477825E+03</pdfrwt>
<pdfrwt beam="2">  1       -2 0.92306354E-01 0.27477825E+03</pdfrwt>
<totfact> 0.16918942E+03</totfact>
</mgrwt>
</event>
<event>
 9    1  0.2114844E-002  0.2751328E+03  0.7818608E-02  0.1098377E+00
          1   -1    0    0  501    0  0.00000000000E+00  0.00000000000E+00  0.21271816106E+04  0.21271816106E+04  0.00000000000E+00 0. -1.
         -1   -1    0    0    0  501 -0.00000000000E+00 -0.00000000000E+00 -0.88965179701E+01  0.88965179701E+01  0.00000000000E+00 0. -1.
         36    2    1    2    0    0  0.00000000000E+00  0.71054273576E-14  0.21182850926E+04  0.21360781285E+04  0.27513276376E+03 0.  0.
         25    2    3    3    0    0 -0.19534695928E+02 -0.41051911531E+02  0.95295822962E+03  0.96317382589E+03  0.13231616571E+03 0.  0.
         25    2    3    3    0    0  0.19534695928E+02  0.41051911531E+02  0.11653268630E+04  0.11729043027E+04  0.12510372413E+03 0.  0.
          5    1    4    4  502    0 -0.17962493761E+02 -0.46546485392E+02  0.95433290608E+03  0.95564774478E+03  0.47000000000E+01 0. -1.
         -5    1    4    4    0  502 -0.15722021669E+01  0.54945738613E+01 -0.13746764584E+01  0.75260811141E+01  0.47000000000E+01 0. -1.
          5    1    5    5  503    0  0.39531039418E+01  0.50214222444E+02  0.16916132787E+03  0.17656369959E+03  0.47000000000E+01 0.  1.
         -5    1    5    5    0  503  0.15581591987E+02 -0.91623109130E+01  0.99616553512E+03  0.99634060306E+03  0.47000000000E+01 0.  1.
<mgrwt>
<rscale>  0 0.27513276E+03</rscale>
<asrwt>0</asrwt>
<pdfrwt beam="1">  1        1 0.32725830E+00 0.27513276E+03</pdfrwt>
<pdfrwt beam="2">  1       -1 0.13686968E-02 0.27513276E+03</pdfrwt>
<totfact> 0.33258139E+03</totfact>
</mgrwt>
</event>
<event>
 9    1  0.2114844E-002  0.2752599E+03  0.7818608E-02  0.1098306E+00
          1   -1    0    0  501    0  0.00000000000E+00  0.00000000000E+00  0.32493465938E+03  0.32493465938E+03  0.00000000000E+00 0. -1.
         -1   -1    0    0    0  501 -0.00000000000E+00 -0.00000000000E+00 -0.58294789912E+02  0.58294789912E+02  0.00000000000E+00 0. -1.
         36    2    1    2    0    0  0.71054273576E-14  0.00000000000E+00  0.26663986947E+03  0.38322944929E+03  0.27525986052E+03 0.  0.
         25    2    3    3    0    0 -0.18006894339E+02 -0.30367487178E+02  0.18653411492E+03  0.23043977275E+03  0.13061807040E+03 0.  0.
         25    2    3    3    0    0  0.18006894339E+02  0.30367487178E+02  0.80105754551E+02  0.15278967654E+03  0.12522508065E+03 0.  0.
          5    1    4    4  502    0 -0.46926477418E+02 -0.69396973457E+02  0.13869515392E+03  0.16210018485E+03  0.47000000000E+01 0. -1.
         -5    1    4    4    0  502  0.28919583079E+02  0.39029486279E+02  0.47838960995E+02  0.68339587895E+02  0.47000000000E+01 0. -1.
          5    1    5    5  503    0  0.53331461876E+02 -0.20215945548E+01  0.88940023007E+02  0.10383038747E+03  0.47000000000E+01 0.  1.
         -5    1    5    5    0  503 -0.35324567537E+02  0.32389081733E+02 -0.88342684555E+01  0.48959289071E+02  0.47000000000E+01 0.  1.
<mgrwt>
<rscale>  0 0.27525986E+03</rscale>
<asrwt>0</asrwt>
<pdfrwt beam="1">  1        1 0.49989947E-01 0.27525986E+03</pdfrwt>
<pdfrwt beam="2">  1       -1 0.89684294E-02 0.27525986E+03</pdfrwt>
<totfact> 0.56764549E+03</totfact>
</mgrwt>
</event>
<event>
 9    1  0.2114844E-002  0.2747613E+03  0.7818608E-02  0.1098585E+00
         -2   -1    0    0    0  501 -0.00000000000E+00  0.00000000000E+00  0.20839869554E+02  0.20839869554E+02  0.00000000000E+00 0. -1.
          2   -1    0    0  501    0  0.00000000000E+00 -0.00000000000E+00 -0.90564125479E+03  0.90564125479E+03  0.00000000000E+00 0. -1.
         36    2    1    2    0    0  0.71054273576E-14  0.00000000000E+00 -0.88480138524E+03  0.92648112435E+03  0.27476131906E+03 0.  0.
         25    2    3    3    0    0 -0.25480145079E+02  0.36861202309E+02 -0.32847896419E+03  0.35437856313E+03  0.12521082247E+03 0.  0.
         25    2    3    3    0    0  0.25480145079E+02 -0.36861202309E+02 -0.55632242105E+03  0.57210256122E+03  0.12569295268E+03 0.  0.
          5    1    4    4  502    0  0.42287387491E+02  0.45242929138E+02 -0.19027224787E+03  0.20015185257E+03  0.47000000000E+01 0.  1.
         -5    1    4    4    0  502 -0.67767532570E+02 -0.83817268290E+01 -0.13820671631E+03  0.15422671056E+03  0.47000000000E+01 0.  1.
          5    1    5    5  503    0  0.29155899652E+01 -0.11052667366E+01  0.59643150339E+01  0.82088569989E+01  0.47000000000E+01 0. -1.
         -5    1    5    5    0  503  0.22564555114E+02 -0.35755935572E+02 -0.56228673609E+03  0.56389370422E+03  0.47000000000E+01 0. -1.
<mgrwt>
<rscale>  0 0.27476132E+03</rscale>
<asrwt>0</asrwt>
<pdfrwt beam="1">  1        2 0.13932938E+00 0.27476132E+03</pdfrwt>
<pdfrwt beam="2">  1       -2 0.32061349E-02 0.27476132E+03</pdfrwt>
<totfact> 0.11517254E+04</totfact>
</mgrwt>
</event>
<event>
 9    1  0.2114844E-002  0.2750909E+03  0.7818608E-02  0.1098401E+00
         -3   -1    0    0    0  501 -0.00000000000E+00  0.00000000000E+00  0.33602954317E+03  0.33602954317E+03  0.00000000000E+00 0.  1.
          3   -1    0    0  501    0  0.00000000000E+00 -0.00000000000E+00 -0.56300836177E+02  0.56300836177E+02  0.00000000000E+00 0.  1.
         36    2    1    2    0    0 -0.71054273576E-14  0.00000000000E+00  0.27972870699E+03  0.39233037934E+03  0.27509085234E+03 0.  0.
         25    2    3    3    0    0 -0.17584778676E+02  0.45288188604E+02  0.96409533774E+02  0.16399270622E+03  0.12344458280E+03 0.  0.
         25    2    3    3    0    0  0.17584778676E+02 -0.45288188604E+02  0.18331917322E+03  0.22833767313E+03  0.12716890041E+03 0.  0.
          5    1    4    4  502    0 -0.64781833796E+02  0.66726301251E+01  0.74406617179E+02  0.98993154626E+02  0.47000000000E+01 0. -1.
         -5    1    4    4    0  502  0.47197055119E+02  0.38615558478E+02  0.22002916595E+02  0.64999551593E+02  0.47000000000E+01 0. -1.
          5    1    5    5  503    0  0.18004517126E+02 -0.29312480285E+01 -0.15875411392E+02  0.24634803405E+02  0.47000000000E+01 0. -1.
         -5    1    5    5    0  503 -0.41973844984E+00 -0.42356940575E+02  0.19919458461E+03  0.20370286972E+03  0.47000000000E+01 0. -1.
<mgrwt>
<rscale>  0 0.27509085E+03</rscale>
<asrwt>0</asrwt>
<pdfrwt beam="1">  1        3 0.86616673E-02 0.27509085E+03</pdfrwt>
<pdfrwt beam="2">  1       -3 0.51696852E-01 0.27509085E+03</pdfrwt>
<totfact> 0.88884125E+02</totfact>
</mgrwt>
</event>
<event>
 9    1  0.2114844E-002  0.2733673E+03  0.7818608E-02  0.1099368E+00
         -1   -1    0    0    0  501 -0.00000000000E+00  0.00000000000E+00  0.33388272668E+02  0.33388272668E+02  0.00000000000E+00 0.  1.
          1   -1    0    0  501    0  0.00000000000E+00 -0.00000000000E+00 -0.55955056347E+03  0.55955056347E+03  0.00000000000E+00 0.  1.
         36    2    1    2    0    0 -0.14210854715E-13  0.35527136788E-14 -0.52616229080E+03  0.59293883613E+03  0.27336734834E+03 0.  0.
         25    2    3    3    0    0 -0.51400077673E+02 -0.20175086499E+02 -0.28782454924E+03  0.31778033514E+03  0.12285099982E+03 0.  0.
         25    2    3    3    0    0  0.51400077673E+02  0.20175086499E+02 -0.23833774156E+03  0.27515850100E+03  0.12592981981E+03 0.  0.
          5    1    4    4  502    0 -0.64208047055E+02  0.16821086386E+02 -0.26276551714E+03  0.27105982596E+03  0.47000000000E+01 0.  1.
         -5    1    4    4    0  502  0.12807969382E+02 -0.36996172886E+02 -0.25059032097E+02  0.46720509174E+02  0.47000000000E+01 0.  1.
          5    1    5    5  503    0  0.73116262703E+02  0.43506230378E+02 -0.92341731845E+02  0.12564977276E+03  0.47000000000E+01 0.  1.
         -5    1    5    5    0  503 -0.21716185030E+02 -0.23331143879E+02 -0.14599600972E+03  0.14950872824E+03  0.47000000000E+01 0.  1.
<mgrwt>
<rscale>  0 0.27336735E+03</rscale>
<asrwt>0</asrwt>
<pdfrwt beam="1">  1        1 0.86084694E-01 0.27336735E+03</pdfrwt>
<pdfrwt beam="2">  1       -1 0.51366578E-02 0.27336735E+03</pdfrwt>
<totfact> 0.65201657E+03</totfact>
</mgrwt>
</event>
<event>
 9    1  0.2114844E-002  0.2743504E+03  0.7818608E-02  0.1098815E+00
         -2   -1    0    0    0  501 -0.00000000000E+00  0.00000000000E+00  0.13863168513E+02  0.13863168513E+02  0.00000000000E+00 0. -1.
          2   -1    0    0  501    0  0.00000000000E+00 -0.00000000000E+00 -0.13573397218E+04  0.13573397218E+04  0.00000000000E+00 0. -1.
         36    2    1    2    0    0 -0.35527136788E-14  0.00000000000E+00 -0.13434765533E+04  0.13712028903E+04  0.27435035478E+03 0.  0.
         25    2    3    3    0    0 -0.67323684504E+01 -0.31482416591E+02 -0.74607189758E+03  0.75907051385E+03  0.13611870295E+03 0.  0.
         25    2    3    3    0    0  0.67323684504E+01  0.31482416591E+02 -0.59740465572E+03  0.61213237648E+03  0.12952704860E+03 0.  0.
          5    1    4    4  502    0  0.16216188993E+02 -0.41778270625E+02 -0.72364198340E+03  0.72504358408E+03  0.47000000000E+01 0. -1.
         -5    1    4    4    0  502 -0.22948557444E+02  0.10295854034E+02 -0.22429914187E+02  0.34026929769E+02  0.47000000000E+01 0. -1.
          5    1    5    5  503    0 -0.46547658595E+02 -0.27104951592E+02 -0.23256281030E+03  0.23876539460E+03  0.47000000000E+01 0.  1.
         -5    1    5    5    0  503  0.53280027045E+02  0.58587368182E+02 -0.36484184542E+03  0.37336698188E+03  0.47000000000E+01 0.  1.
<mgrwt>
<rscale>  0 0.27435035E+03</rscale>
<asrwt>0</asrwt>
<pdfrwt beam="1">  1        2 0.20882154E+00 0.27435035E+03</pdfrwt>
<pdfrwt beam="2">  1       -2 0.21327947E-02 0.27435035E+03</pdfrwt>
<totfact> 0.11460377E+04</totfact>
</mgrwt>
</event>
<event>
 9    1  0.2114844E-002  0.2750991E+03  0.7818608E-02  0.1098396E+00
          2   -1    0    0  501    0  0.00000000000E+00  0.00000000000E+00  0.61450113349E+02  0.61450113349E+02  0.00000000000E+00 0. -1.
         -2   -1    0    0    0  501 -0.00000000000E+00 -0.00000000000E+00 -0.30788997919E+03  0.30788997919E+03  0.00000000000E+00 0. -1.
         36    2    1    2    0    0  0.00000000000E+00  0.00000000000E+00 -0.24643986584E+03  0.36934009254E+03  0.27509906667E+03 0.  0.
         25    2    3    3    0    0  0.18242295194E+02  0.32624063132E+02 -0.25042796128E+03  0.28600261920E+03  0.13298956188E+03 0.  0.
         25    2    3    3    0    0 -0.18242295194E+02 -0.32624063132E+02  0.39880954326E+01  0.83337473344E+02  0.74378214075E+02 0.  0.
          5    1    4    4  502    0  0.53295946966E+02 -0.25574229545E+02 -0.62688028680E+02  0.86292398968E+02  0.47000000000E+01 0. -1.
         -5    1    4    4    0  502 -0.35053651772E+02  0.58198292677E+02 -0.18773993260E+03  0.19971022023E+03  0.47000000000E+01 0. -1.
          5    1    5    5  503    0 -0.46595133367E+02 -0.19882881329E+02 -0.35753348335E+01  0.51003023857E+02  0.47000000000E+01 0. -1.
         -5    1    5    5    0  503  0.28352838173E+02 -0.12741181803E+02  0.75634302661E+01  0.32334449486E+02  0.47000000000E+01 0. -1.
<mgrwt>
<rscale>  0 0.27509907E+03</rscale>
<asrwt>0</asrwt>
<pdfrwt beam="1">  1        2 0.94538634E-02 0.27509907E+03</pdfrwt>
<pdfrwt beam="2">  1       -2 0.47367690E-01 0.27509907E+03</pdfrwt>
<totfact> 0.29320054E+03</totfact>
</mgrwt>
</event>
<event>
 9    1  0.2114844E-002  0.2747953E+03  0.7818608E-02  0.1098566E+00
          2   -1    0    0  501    0  0.00000000000E+00  0.00000000000E+00  0.19597590694E+04  0.19597590694E+04  0.00000000000E+00 0. -1.
         -2   -1    0    0    0  501 -0.00000000000E+00 -0.00000000000E+00 -0.96328727535E+01  0.96328727535E+01  0.00000000000E+00 0. -1.
         36    2    1    2    0    0 -0.35527136788E-14  0.00000000000E+00  0.19501261967E+04  0.19693919422E+04  0.27479526738E+03 0.  0.
         25    2    3    3    0    0  0.64436719038E+01 -0.14525673315E+02  0.59086490856E+03  0.60435567706E+03  0.12598384079E+03 0.  0.
         25    2    3    3    0    0 -0.64436719038E+01  0.14525673315E+02  0.13592612881E+04  0.13650362651E+04  0.12441961109E+03 0.  0.
          5    1    4    4  502    0 -0.26050544986E+02  0.46540608954E+02  0.33552177734E+03  0.33976699700E+03  0.47000000000E+01 0. -1.
         -5    1    4    4    0  502  0.32494216890E+02 -0.61066282269E+02  0.25534313121E+03  0.26458868006E+03  0.47000000000E+01 0. -1.
          5    1    5    5  503    0 -0.16594033783E+02  0.65808978866E+02  0.57291574192E+03  0.57694082972E+03  0.47000000000E+01 0.  1.
         -5    1    5    5    0  503  0.10150361879E+02 -0.51283305551E+02  0.78634554620E+03  0.78809543540E+03  0.47000000000E+01 0.  1.
<mgrwt>
<rscale>  0 0.27479527E+03</rscale>
<asrwt>0</asrwt>
<pdfrwt beam="1">  1        2 0.30150108E+00 0.27479527E+03</pdfrwt>
<pdfrwt beam="2">  1       -2 0.14819820E-02 0.27479527E+03</pdfrwt>
<totfact> 0.93673877E+03</totfact>
</mgrwt>
</event>
<event>
 9    1  0.2114844E-002  0.2756239E+03  0.7818608E-02  0.1098103E+00
          1   -1    0    0  501    0  0.00000000000E+00  0.00000000000E+00  0.56847133250E+02  0.56847133250E+02  0.00000000000E+00 0. -1.
         -1   -1    0    0    0  501 -0.00000000000E+00 -0.00000000000E+00 -0.33409122610E+03  0.33409122610E+03  0.00000000000E+00 0. -1.
         36    2    1    2    0    0 -0.71054273576E-14  0.00000000000E+00 -0.27724409285E+03  0.39093835935E+03  0.27562386288E+03 0.  0.
         25    2    3    3    0    0  0.24061009291E+02 -0.51054188991E+02 -0.18500552193E+03  0.22513066202E+03  0.11520116951E+03 0.  0.
         25    2    3    3    0    0 -0.24061009291E+02  0.51054188991E+02 -0.92238570920E+02  0.16580769733E+03  0.12569318257E+03 0.  0.
          5    1    4    4  502    0 -0.35544400614E+02  0.36600526781E+01 -0.19811909110E+02  0.41126659762E+02  0.47000000000E+01 0. -1.
         -5    1    4    4    0  502  0.59605409906E+02 -0.54714241669E+02 -0.16519361282E+03  0.18400400226E+03  0.47000000000E+01 0. -1.
          5    1    5    5  503    0 -0.47977766465E+02  0.12151746849E+02  0.12661277006E+02  0.51302329010E+02  0.47000000000E+01 0.  1.
         -5    1    5    5    0  503  0.23916757174E+02  0.38902442143E+02 -0.10489984793E+03  0.11450536832E+03  0.47000000000E+01 0.  1.
<mgrwt>
<rscale>  0 0.27562386E+03</rscale>
<asrwt>0</asrwt>
<pdfrwt beam="1">  1        1 0.87457128E-02 0.27562386E+03</pdfrwt>
<pdfrwt beam="2">  1       -1 0.51398650E-01 0.27562386E+03</pdfrwt>
<totfact> 0.29931198E+03</totfact>
</mgrwt>
</event>
<event>
 9    1  0.2114844E-002  0.2751833E+03  0.7818608E-02  0.1098349E+00
         -2   -1    0    0    0  501 -0.00000000000E+00  0.00000000000E+00  0.15313557848E+02  0.15313557848E+02  0.00000000000E+00 0.  1.
          2   -1    0    0  501    0  0.00000000000E+00 -0.00000000000E+00 -0.12362554286E+04  0.12362554286E+04  0.00000000000E+00 0.  1.
         36    2    1    2    0    0  0.00000000000E+00  0.14210854715E-13 -0.12209418707E+04  0.12515689864E+04  0.27518334993E+03 0.  0.
         25    2    3    3    0    0 -0.23754675024E+02  0.45336110626E+02 -0.49592139549E+03  0.51525631303E+03  0.13012067514E+03 0.  0.
         25    2    3    3    0    0  0.23754675024E+02 -0.45336110626E+02 -0.72502047523E+03  0.73631267339E+03  0.11782196728E+03 0.  0.
          5    1    4    4  502    0 -0.26000026598E+01 -0.34147265960E+02 -0.30972622538E+03  0.31164919456E+03  0.47000000000E+01 0.  1.
         -5    1    4    4    0  502 -0.21154672364E+02  0.79483376586E+02 -0.18619517011E+03  0.20360711847E+03  0.47000000000E+01 0.  1.
          5    1    5    5  503    0  0.19348658036E+02 -0.69065334531E+02 -0.68876774134E+03  0.69250811007E+03  0.47000000000E+01 0.  1.
         -5    1    5    5    0  503  0.44060169882E+01  0.23729223905E+02 -0.36252733890E+02  0.43804563316E+02  0.47000000000E+01 0.  1.
<mgrwt>
<rscale>  0 0.27518335E+03</rscale>
<asrwt>0</asrwt>
<pdfrwt beam="1">  1        2 0.19019315E+00 0.27518335E+03</pdfrwt>
<pdfrwt beam="2">  1       -2 0.23559319E-02 0.27518335E+03</pdfrwt>
<totfact> 0.11550537E+04</totfact>
</mgrwt>
</event>
<event>
 9    1  0.2114844E-002  0.2761677E+03  0.7818608E-02  0.1097801E+00
         -2   -1    0    0    0  501 -0.00000000000E+00  0.00000000000E+00  0.29033989583E+02  0.29033989583E+02  0.00000000000E+00 0. -1.
          2   -1    0    0  501    0  0.00000000000E+00 -0.00000000000E+00 -0.65671815455E+03  0.65671815455E+03  0.00000000000E+00 0. -1.
         36    2    1    2    0    0 -0.71054273576E-14 -0.35527136788E-14 -0.62768416496E+03  0.68575214413E+03  0.27616768861E+03 0.  0.
         25    2    3    3    0    0 -0.37260138548E+02  0.19147841218E+02 -0.37983382988E+03  0.40270552546E+03  0.12705527995E+03 0.  0.
         25    2    3    3    0    0  0.37260138548E+02 -0.19147841218E+02 -0.24785033508E+03  0.28304661867E+03  0.13011780045E+03 0.  0.
          5    1    4    4  502    0  0.33658897612E+02  0.46245185833E+02 -0.17743298400E+03  0.18648349099E+03  0.47000000000E+01 0.  1.
         -5    1    4    4    0  502 -0.70919036160E+02 -0.27097344615E+02 -0.20240084589E+03  0.21622203447E+03  0.47000000000E+01 0.  1.
          5    1    5    5  503    0 -0.47174407404E+02  0.75547365814E+01 -0.88532504496E+02  0.10071044192E+03  0.47000000000E+01 0.  1.
         -5    1    5    5    0  503  0.84434545952E+02 -0.26702577800E+02 -0.15931783058E+03  0.18233617675E+03  0.47000000000E+01 0.  1.
<mgrwt>
<rscale>  0 0.27616769E+03</rscale>
<asrwt>0</asrwt>
<pdfrwt beam="1">  1        2 0.10103356E+00 0.27616769E+03</pdfrwt>
<pdfrwt beam="2">  1       -2 0.44667679E-02 0.27616769E+03</pdfrwt>
<totfact> 0.10494372E+04</totfact>
</mgrwt>
</event>
<event>
 9    1  0.2114844E-002  0.2680290E+03  0.7818608E-02  0.1102413E+00
         -1   -1    0    0    0  501 -0.00000000000E+00  0.00000000000E+00  0.16187663984E+02  0.16187663984E+02  0.00000000000E+00 0. -1.
          1   -1    0    0  501    0  0.00000000000E+00 -0.00000000000E+00 -0.11094798369E+04  0.11094798369E+04  0.00000000000E+00 0. -1.
         36    2    1    2    0    0 -0.71054273576E-14 -0.71054273576E-14 -0.10932921729E+04  0.11256675008E+04  0.26802900437E+03 0.  0.
         25    2    3    3    0    0 -0.40065013408E+02  0.19258597051E+02 -0.48849109272E+03  0.50681415372E+03  0.12751839039E+03 0.  0.
         25    2    3    3    0    0  0.40065013408E+02 -0.19258597051E+02 -0.60480108016E+03  0.61885334713E+03  0.12336539151E+03 0.  0.
          5    1    4    4  502    0 -0.26068599494E+02  0.39850473024E+02 -0.56329125953E+02  0.73910029837E+02  0.47000000000E+01 0. -1.
         -5    1    4    4    0  502 -0.13996413914E+02 -0.20591875973E+02 -0.43216196676E+03  0.43290412388E+03  0.47000000000E+01 0. -1.
          5    1    5    5  503    0  0.14353667957E+02 -0.67174625066E+02 -0.43721087861E+03  0.44259902894E+03  0.47000000000E+01 0. -1.
         -5    1    5    5    0  503  0.25711345450E+02  0.47916028015E+02 -0.16759020155E+03  0.17625431819E+03  0.47000000000E+01 0. -1.
<mgrwt>
<rscale>  0 0.26802900E+03</rscale>
<asrwt>0</asrwt>
<pdfrwt beam="1">  1        1 0.17068929E+00 0.26802900E+03</pdfrwt>
<pdfrwt beam="2">  1       -1 0.24904087E-02 0.26802900E+03</pdfrwt>
<totfact> 0.65885600E+03</totfact>
</mgrwt>
</event>
<event>
 9    1  0.2114844E-002  0.2733067E+03  0.7818608E-02  0.1099402E+00
          2   -1    0    0  501    0  0.00000000000E+00  0.00000000000E+00  0.17193535678E+04  0.17193535678E+04  0.00000000000E+00 0.  1.
         -2   -1    0    0    0  501 -0.00000000000E+00 -0.00000000000E+00 -0.10861137065E+02  0.10861137065E+02  0.00000000000E+00 0.  1.
         36    2    1    2    0    0 -0.71054273576E-14  0.00000000000E+00  0.17084924307E+04  0.17302147049E+04  0.27330667582E+03 0.  0.
         25    2    3    3    0    0 -0.15033882695E+02  0.35647790824E+02  0.58486085965E+03  0.59916189293E+03  0.12424156378E+03 0.  0.
         25    2    3    3    0    0  0.15033882695E+02 -0.35647790824E+02  0.11236315711E+04  0.11310528119E+04  0.12343327437E+03 0.  0.
          5    1    4    4  502    0 -0.44126646233E+02  0.20455799952E+02  0.83804065938E+02  0.97009340412E+02  0.47000000000E+01 0.  1.
         -5    1    4    4    0  502  0.29092763538E+02  0.15191990872E+02  0.50105679371E+03  0.50215255252E+03  0.47000000000E+01 0.  1.
          5    1    5    5  503    0 -0.29465466378E+02  0.34521185181E+02  0.35150683692E+03  0.35445602313E+03  0.47000000000E+01 0.  1.
         -5    1    5    5    0  503  0.44499349074E+02 -0.70168976005E+02  0.77212473416E+03  0.77659678880E+03  0.47000000000E+01 0.  1.
<mgrwt>
<rscale>  0 0.27330668E+03</rscale>
<asrwt>0</asrwt>
<pdfrwt beam="1">  1        2 0.26451572E+00 0.27330668E+03</pdfrwt>
<pdfrwt beam="2">  1       -2 0.16709455E-02 0.27330668E+03</pdfrwt>
<totfact> 0.10508120E+04</totfact>
</mgrwt>
</event>
<event>
 9    1  0.2114844E-002  0.2744684E+03  0.7818608E-02  0.1098749E+00
         -2   -1    0    0    0  501 -0.00000000000E+00  0.00000000000E+00  0.99317047340E+01  0.99317047340E+01  0.00000000000E+00 0. -1.
          2   -1    0    0  501    0  0.00000000000E+00 -0.00000000000E+00 -0.18962731019E+04  0.18962731019E+04  0.00000000000E+00 0. -1.
         36    2    1    2    0    0  0.00000000000E+00  0.71054273576E-14 -0.18863413971E+04  0.19062048066E+04  0.27446839193E+03 0.  0.
         25    2    3    3    0    0 -0.71113546132E+01 -0.48567276342E+02 -0.11213698931E+04  0.11292346958E+04  0.12365763000E+03 0.  0.
         25    2    3    3    0    0  0.71113546132E+01  0.48567276342E+02 -0.76497150404E+03  0.77697011076E+03  0.12685345611E+03 0.  0.
          5    1    4    4  502    0 -0.29418137161E+02 -0.84958742219E+02 -0.74179780004E+03  0.74724124673E+03  0.47000000000E+01 0. -1.
         -5    1    4    4    0  502  0.22306782548E+02  0.36391465877E+02 -0.37957209306E+03  0.38199344912E+03  0.47000000000E+01 0. -1.
          5    1    5    5  503    0 -0.13210052288E+02 -0.30924089353E+02 -0.45578221777E+03  0.45704521092E+03  0.47000000000E+01 0.  1.
         -5    1    5    5    0  503  0.20321406901E+02  0.79491365694E+02 -0.30918928626E+03  0.31992489984E+03  0.47000000000E+01 0.  1.
<mgrwt>
<rscale>  0 0.27446839E+03</rscale>
<asrwt>0</asrwt>
<pdfrwt beam="1">  1        2 0.29173411E+00 0.27446839E+03</pdfrwt>
<pdfrwt beam="2">  1       -2 0.15279557E-02 0.27446839E+03</pdfrwt>
<totfact> 0.96726021E+03</totfact>
</mgrwt>
</event>
<event>
 9    1  0.2114844E-002  0.2745501E+03  0.7818608E-02  0.1098703E+00
          1   -1    0    0  501    0  0.00000000000E+00  0.00000000000E+00  0.52777666756E+02  0.52777666756E+02  0.00000000000E+00 0.  1.
         -1   -1    0    0    0  501 -0.00000000000E+00 -0.00000000000E+00 -0.35705325366E+03  0.35705325366E+03  0.00000000000E+00 0.  1.
         36    2    1    2    0    0  0.00000000000E+00  0.00000000000E+00 -0.30427558690E+03  0.40983092041E+03  0.27455008749E+03 0.  0.
         25    2    3    3    0    0  0.39740307419E+02 -0.16956894757E+02 -0.23293811158E+03  0.25985240778E+03  0.10675336852E+03 0.  0.
         25    2    3    3    0    0 -0.39740307419E+02  0.16956894757E+02 -0.71337475319E+02  0.14997851263E+03  0.12465027297E+03 0.  0.
          5    1    4    4  502    0  0.13850613883E+02  0.38350505400E+02 -0.39557194823E+02  0.57004056274E+02  0.47000000000E+01 0.  1.
         -5    1    4    4    0  502  0.25889693535E+02 -0.55307400157E+02 -0.19338091676E+03  0.20284835151E+03  0.47000000000E+01 0.  1.
          5    1    5    5  503    0 -0.52238711752E+02 -0.32946061602E+02 -0.76077433581E+02  0.98102965708E+02  0.47000000000E+01 0. -1.
         -5    1    5    5    0  503  0.12498404333E+02  0.49902956358E+02  0.47399582618E+01  0.51875546923E+02  0.47000000000E+01 0. -1.
<mgrwt>
<rscale>  0 0.27455009E+03</rscale>
<asrwt>0</asrwt>
<pdfrwt beam="1">  1        1 0.81196410E-02 0.27455009E+03</pdfrwt>
<pdfrwt beam="2">  1       -1 0.54931270E-01 0.27455009E+03</pdfrwt>
<totfact> 0.29227150E+03</totfact>
</mgrwt>
</event>
<event>
 9    1  0.2114844E-002  0.2745962E+03  0.7818608E-02  0.1098678E+00
          2   -1    0    0  501    0  0.00000000000E+00  0.00000000000E+00  0.72603183658E+03  0.72603183658E+03  0.00000000000E+00 0.  1.
         -2   -1    0    0    0  501 -0.00000000000E+00 -0.00000000000E+00 -0.25964102527E+02  0.25964102527E+02  0.00000000000E+00 0.  1.
         36    2    1    2    0    0  0.00000000000E+00  0.00000000000E+00  0.70006773405E+03  0.75199593911E+03  0.27459617654E+03 0.  0.
         25    2    3    3    0    0 -0.50246676368E+02 -0.86115967400E+00  0.38296167622E+03  0.40566624141E+03  0.12401606301E+03 0.  0.
         25    2    3    3    0    0  0.50246676368E+02  0.86115967400E+00  0.31710605783E+03  0.34632969770E+03  0.12985583357E+03 0.  0.
          5    1    4    4  502    0  0.28410964087E+02 -0.75931912167E+01  0.24440709380E+02  0.38526324872E+02  0.47000000000E+01 0.  1.
         -5    1    4    4    0  502 -0.78657640454E+02  0.67320315427E+01  0.35852096684E+03  0.36713991654E+03  0.47000000000E+01 0.  1.
          5    1    5    5  503    0 -0.13457604958E+02 -0.41806735186E+01  0.26022568629E+03  0.26064934868E+03  0.47000000000E+01 0. -1.
         -5    1    5    5    0  503  0.63704281326E+02  0.50418331926E+01  0.56880371544E+02  0.85680349020E+02  0.47000000000E+01 0. -1.
<mgrwt>
<rscale>  0 0.27459618E+03</rscale>
<asrwt>0</asrwt>
<pdfrwt beam="1">  1        2 0.11169719E+00 0.27459618E+03</pdfrwt>
<pdfrwt beam="2">  1       -2 0.39944779E-02 0.27459618E+03</pdfrwt>
<totfact> 0.10999631E+04</totfact>
</mgrwt>
</event>
<event>
 9    1  0.2114844E-002  0.2823766E+03  0.7818608E-02  0.1094398E+00
         -1   -1    0    0    0  501 -0.00000000000E+00  0.00000000000E+00  0.12866726347E+02  0.12866726347E+02  0.00000000000E+00 0. -1.
          1   -1    0    0  501    0  0.00000000000E+00 -0.00000000000E+00 -0.15492780829E+04  0.15492780829E+04  0.00000000000E+00 0. -1.
         36    2    1    2    0    0  0.00000000000E+00  0.35527136788E-14 -0.15364113566E+04  0.15621448093E+04  0.28237660759E+03 0.  0.
         25    2    3    3    0    0 -0.72493024768E+02 -0.19042879743E+02 -0.77514644342E+03  0.78970894570E+03  0.13103564499E+03 0.  0.
         25    2    3    3    0    0  0.72493024768E+02  0.19042879743E+02 -0.76126491314E+03  0.77243586356E+03  0.10730808646E+03 0.  0.
          5    1    4    4  502    0 -0.10948783729E+03 -0.25860001224E+02 -0.55231335570E+03  0.56367407166E+03  0.47000000000E+01 0. -1.
         -5    1    4    4    0  502  0.36994812518E+02  0.68171214809E+01 -0.22283308772E+03  0.22603487404E+03  0.47000000000E+01 0. -1.
          5    1    5    5  503    0  0.79574576179E+01  0.40580502591E+01 -0.56775398431E+03  0.56784369821E+03  0.47000000000E+01 0.  1.
         -5    1    5    5    0  503  0.64535567150E+02  0.14984829484E+02 -0.19351092883E+03  0.20459216534E+03  0.47000000000E+01 0.  1.
<mgrwt>
<rscale>  0 0.28237661E+03</rscale>
<asrwt>0</asrwt>
<pdfrwt beam="1">  1        1 0.23835030E+00 0.28237661E+03</pdfrwt>
<pdfrwt beam="2">  1       -1 0.19794978E-02 0.28237661E+03</pdfrwt>
<totfact> 0.46224408E+03</totfact>
</mgrwt>
</event>
<event>
 9    1  0.2114844E-002  0.2747602E+03  0.7818608E-02  0.1098586E+00
          1   -1    0    0  501    0  0.00000000000E+00  0.00000000000E+00  0.27396539108E+02  0.27396539108E+02  0.00000000000E+00 0.  1.
         -1   -1    0    0    0  501 -0.00000000000E+00 -0.00000000000E+00 -0.68889339084E+03  0.68889339084E+03  0.00000000000E+00 0.  1.
         36    2    1    2    0    0  0.00000000000E+00  0.00000000000E+00 -0.66149685173E+03  0.71628992995E+03  0.27476022073E+03 0.  0.
         25    2    3    3    0    0 -0.24032072399E+02 -0.41348510908E+02 -0.39864797419E+03  0.42047181975E+03  0.12485633352E+03 0.  0.
         25    2    3    3    0    0  0.24032072399E+02  0.41348510908E+02 -0.26284887754E+03  0.29581811020E+03  0.12701016509E+03 0.  0.
          5    1    4    4  502    0 -0.27554809806E+01  0.39222204792E+01  0.81637155629E+01  0.10569424805E+02  0.47000000000E+01 0. -1.
         -5    1    4    4    0  502 -0.21276591419E+02 -0.45270731387E+02 -0.40681168975E+03  0.40990239495E+03  0.47000000000E+01 0. -1.
          5    1    5    5  503    0 -0.29097373781E+02  0.41106455827E+02 -0.22449441955E+03  0.23012221162E+03  0.47000000000E+01 0.  1.
         -5    1    5    5    0  503  0.53129446180E+02  0.24205508129E+00 -0.38354457993E+02  0.65695898578E+02  0.47000000000E+01 0.  1.
<mgrwt>
<rscale>  0 0.27476022E+03</rscale>
<asrwt>0</asrwt>
<pdfrwt beam="1">  1        1 0.42148525E-02 0.27476022E+03</pdfrwt>
<pdfrwt beam="2">  1       -1 0.10598359E+00 0.27476022E+03</pdfrwt>
<totfact> 0.18657043E+03</totfact>
</mgrwt>
</event>
<event>
 9    1  0.2114844E-002  0.2748341E+03  0.7818608E-02  0.1098544E+00
          1   -1    0    0  501    0  0.00000000000E+00  0.00000000000E+00  0.75031665569E+03  0.75031665569E+03  0.00000000000E+00 0.  1.
         -1   -1    0    0    0  501 -0.00000000000E+00 -0.00000000000E+00 -0.25167301622E+02  0.25167301622E+02  0.00000000000E+00 0.  1.
         36    2    1    2    0    0  0.00000000000E+00  0.71054273576E-14  0.72514935406E+03  0.77548395731E+03  0.27483409967E+03 0.  0.
         25    2    3    3    0    0 -0.32040569836E+02 -0.39993749192E+02  0.25569141930E+03  0.28605920831E+03  0.11758261208E+03 0.  0.
         25    2    3    3    0    0  0.32040569836E+02  0.39993749192E+02  0.46945793477E+03  0.48942474900E+03  0.12852911862E+03 0.  0.
          5    1    4    4  502    0  0.17743110115E+02  0.10481151947E+02  0.48014289352E+00  0.21142209910E+02  0.47000000000E+01 0. -1.
         -5    1    4    4    0  502 -0.49783679951E+02 -0.50474901139E+02  0.25521127640E+03  0.26491699840E+03  0.47000000000E+01 0. -1.
          5    1    5    5  503    0 -0.19047570117E+01  0.83057975343E+02  0.27249703928E+03  0.28491925485E+03  0.47000000000E+01 0.  1.
         -5    1    5    5    0  503  0.33945326848E+02 -0.43064226151E+02  0.19696089549E+03  0.20450549416E+03  0.47000000000E+01 0.  1.
<mgrwt>
<rscale>  0 0.27483410E+03</rscale>
<asrwt>0</asrwt>
<pdfrwt beam="1">  1        1 0.11543331E+00 0.27483410E+03</pdfrwt>
<pdfrwt beam="2">  1       -1 0.38718931E-02 0.27483410E+03</pdfrwt>
<totfact> 0.65468954E+03</totfact>
</mgrwt>
</event>
<event>
 9    1  0.2114844E-002  0.2750839E+03  0.7818608E-02  0.1098405E+00
          2   -1    0    0  501    0  0.00000000000E+00  0.00000000000E+00  0.52645902741E+03  0.52645902741E+03  0.00000000000E+00 0.  1.
         -2   -1    0    0    0  501 -0.00000000000E+00 -0.00000000000E+00 -0.35934010787E+02  0.35934010787E+02  0.00000000000E+00 0.  1.
         36    2    1    2    0    0  0.00000000000E+00  0.71054273576E-14  0.49052501663E+03  0.56239303820E+03  0.27508387354E+03 0.  0.
         25    2    3    3    0    0 -0.80721413533E+01  0.44657708992E+02  0.15845319082E+03  0.20494128556E+03  0.12179510009E+03 0.  0.
         25    2    3    3    0    0  0.80721413533E+01 -0.44657708992E+02  0.33207182581E+03  0.35745175264E+03  0.12426016068E+03 0.  0.
          5    1    4    4  502    0  0.56524748997E+02  0.17322557476E+02  0.80235059783E+02  0.99774110194E+02  0.47000000000E+01 0. -1.
         -5    1    4    4    0  502 -0.64596890350E+02  0.27335151517E+02  0.78218131035E+02  0.10516717536E+03  0.47000000000E+01 0. -1.
          5    1    5    5  503    0  0.47738880117E+02  0.78127515644E+01  0.23582193500E+03  0.24077814433E+03  0.47000000000E+01 0. -1.
         -5    1    5    5    0  503 -0.39666738764E+02 -0.52470460557E+02  0.96249890810E+02  0.11667360831E+03  0.47000000000E+01 0. -1.
<mgrwt>
<rscale>  0 0.27508387E+03</rscale>
<asrwt>0</asrwt>
<pdfrwt beam="1">  1        2 0.80993691E-01 0.27508387E+03</pdfrwt>
<pdfrwt beam="2">  1       -2 0.55283097E-02 0.27508387E+03</pdfrwt>
<totfact> 0.98017564E+03</totfact>
</mgrwt>
</event>
<event>
 9    1  0.2114844E-002  0.2774663E+03  0.7818608E-02  0.1097081E+00
          1   -1    0    0  501    0  0.00000000000E+00  0.00000000000E+00  0.70859757160E+02  0.70859757160E+02  0.00000000000E+00 0.  1.
         -1   -1    0    0    0  501 -0.00000000000E+00 -0.00000000000E+00 -0.27161937465E+03  0.27161937465E+03  0.00000000000E+00 0.  1.
         36    2    1    2    0    0  0.71054273576E-14  0.71054273576E-14 -0.20075961749E+03  0.34247913181E+03  0.27746627130E+03 0.  0.
         25    2    3    3    0    0 -0.44148105650E+02  0.20149860079E+02 -0.92906169874E+02  0.16555837760E+03  0.12815204992E+03 0.  0.
         25    2    3    3    0    0  0.44148105650E+02 -0.20149860079E+02 -0.10785344761E+03  0.17692075421E+03  0.13158083072E+03 0.  0.
          5    1    4    4  502    0 -0.69336827168E+02  0.41507328870E+02 -0.10272510557E+03  0.13078605149E+03  0.47000000000E+01 0.  1.
         -5    1    4    4    0  502  0.25188721517E+02 -0.21357468791E+02  0.98189356926E+01  0.34772326108E+02  0.47000000000E+01 0.  1.
          5    1    5    5  503    0  0.12912448391E+02  0.50543406199E+02 -0.12062007405E+02  0.53748946559E+02  0.47000000000E+01 0. -1.
         -5    1    5    5    0  503  0.31235657260E+02 -0.70693266278E+02 -0.95791440209E+02  0.12317180765E+03  0.47000000000E+01 0. -1.
<mgrwt>
<rscale>  0 0.27746627E+03</rscale>
<asrwt>0</asrwt>
<pdfrwt beam="1">  1        1 0.10901501E-01 0.27746627E+03</pdfrwt>
<pdfrwt beam="2">  1       -1 0.41787595E-01 0.27746627E+03</pdfrwt>
<totfact> 0.32456680E+03</totfact>
</mgrwt>
</event>
<event>
 9    1  0.2114844E-002  0.2749171E+03  0.7818608E-02  0.1098498E+00
         -3   -1    0    0    0  501 -0.00000000000E+00  0.00000000000E+00  0.20382857012E+03  0.20382857012E+03  0.00000000000E+00 0. -1.
          3   -1    0    0  501    0  0.00000000000E+00 -0.00000000000E+00 -0.92699715751E+02  0.92699715751E+02  0.00000000000E+00 0. -1.
         36    2    1    2    0    0  0.00000000000E+00  0.00000000000E+00  0.11112885437E+03  0.29652828587E+03  0.27491708213E+03 0.  0.
         25    2    3    3    0    0  0.18156401905E+02 -0.55999159478E+02  0.56482646376E+02  0.14577864692E+03  0.12081210106E+03 0.  0.
         25    2    3    3    0    0 -0.18156401905E+02  0.55999159478E+02  0.54646207991E+02  0.15074963895E+03  0.12756835346E+03 0.  0.
          5    1    4    4  502    0  0.48101753183E+02 -0.10266295023E+02  0.73295647024E+02  0.88394102436E+02  0.47000000000E+01 0.  1.
         -5    1    4    4    0  502 -0.29945351278E+02 -0.45732864455E+02 -0.16813000648E+02  0.57384544480E+02  0.47000000000E+01 0.  1.
          5    1    5    5  503    0  0.20348634375E+02  0.78720996661E+02  0.19293002617E+01  0.81467014403E+02  0.47000000000E+01 0. -1.
         -5    1    5    5    0  503 -0.38505036281E+02 -0.22721837183E+02  0.52716907729E+02  0.69282624549E+02  0.47000000000E+01 0. -1.
<mgrwt>
<rscale>  0 0.27491708E+03</rscale>
<asrwt>0</asrwt>
<pdfrwt beam="1">  1        3 0.14261495E-01 0.27491708E+03</pdfrwt>
<pdfrwt beam="2">  1       -3 0.31358241E-01 0.27491708E+03</pdfrwt>
<totfact> 0.10175118E+03</totfact>
</mgrwt>
</event>
<event>
 9    1  0.2114844E-002  0.2764498E+03  0.7818608E-02  0.1097644E+00
          1   -1    0    0  501    0  0.00000000000E+00  0.00000000000E+00  0.16897555012E+04  0.16897555012E+04  0.00000000000E+00 0. -1.
         -1   -1    0    0    0  501 -0.00000000000E+00 -0.00000000000E+00 -0.11307036631E+02  0.11307036631E+02  0.00000000000E+00 0. -1.
         36    2    1    2    0    0  0.00000000000E+00  0.14210854715E-13  0.16784484646E+04  0.17010625378E+04  0.27644983161E+03 0.  0.
         25    2    3    3    0    0  0.13500699542E+01 -0.43796091802E+02  0.66796639320E+03  0.68212112550E+03  0.13111142993E+03 0.  0.
         25    2    3    3    0    0 -0.13500699542E+01  0.43796091802E+02  0.10104820714E+04  0.10189414123E+04  0.12348143530E+03 0.  0.
          5    1    4    4  502    0  0.23199169117E+02 -0.86613130840E+02  0.44932910826E+03  0.45821258540E+03  0.47000000000E+01 0.  1.
         -5    1    4    4    0  502 -0.21849099163E+02  0.42817039037E+02  0.21863728494E+03  0.22390854010E+03  0.47000000000E+01 0.  1.
          5    1    5    5  503    0 -0.55242967500E+02  0.36526518843E+02  0.74215446881E+03  0.74511832457E+03  0.47000000000E+01 0.  1.
         -5    1    5    5    0  503  0.53892897546E+02  0.72695729596E+01  0.26832760257E+03  0.27382308777E+03  0.47000000000E+01 0.  1.
<mgrwt>
<rscale>  0 0.27644983E+03</rscale>
<asrwt>0</asrwt>
<pdfrwt beam="1">  1        1 0.25996218E+00 0.27644983E+03</pdfrwt>
<pdfrwt beam="2">  1       -1 0.17395454E-02 0.27644983E+03</pdfrwt>
<totfact> 0.45147312E+03</totfact>
</mgrwt>
</event>
<event>
 9    1  0.2114844E-002  0.2751216E+03  0.7818608E-02  0.1098384E+00
          1   -1    0    0  501    0  0.00000000000E+00  0.00000000000E+00  0.46641868506E+03  0.46641868506E+03  0.00000000000E+00 0. -1.
         -1   -1    0    0    0  501 -0.00000000000E+00 -0.00000000000E+00 -0.40570789873E+02  0.40570789873E+02  0.00000000000E+00 0. -1.
         36    2    1    2    0    0 -0.71054273576E-14  0.00000000000E+00  0.42584789519E+03  0.50698947494E+03  0.27512160558E+03 0.  0.
         25    2    3    3    0    0  0.59780881745E+02  0.22040885164E+02  0.22569179150E+03  0.26696559591E+03  0.12757072629E+03 0.  0.
         25    2    3    3    0    0 -0.59780881745E+02 -0.22040885164E+02  0.20015610369E+03  0.24002387903E+03  0.11614405805E+03 0.  0.
          5    1    4    4  502    0  0.78994302149E+01  0.56527106761E+02  0.18181839625E+03  0.19062458921E+03  0.47000000000E+01 0. -1.
         -5    1    4    4    0  502  0.51881451530E+02 -0.34486221597E+02  0.43873395258E+02  0.76341006703E+02  0.47000000000E+01 0. -1.
          5    1    5    5  503    0  0.33608925956E+02  0.28039121339E+01  0.36579685457E+02  0.49975846320E+02  0.47000000000E+01 0.  1.
         -5    1    5    5    0  503 -0.93389807702E+02 -0.24844797298E+02  0.16357641823E+03  0.19004803271E+03  0.47000000000E+01 0.  1.
<mgrwt>
<rscale>  0 0.27512161E+03</rscale>
<asrwt>0</asrwt>
<pdfrwt beam="1">  1        1 0.71756717E-01 0.27512161E+03</pdfrwt>
<pdfrwt beam="2">  1       -1 0.62416603E-02 0.27512161E+03</pdfrwt>
<totfact> 0.62027112E+03</totfact>
</mgrwt>
</event>
<event>
 9    1  0.2114844E-002  0.2750981E+03  0.7818608E-02  0.1098397E+00
         -2   -1    0    0    0  501 -0.00000000000E+00  0.00000000000E+00  0.17537358834E+02  0.17537358834E+02  0.00000000000E+00 0. -1.
          2   -1    0    0  501    0  0.00000000000E+00 -0.00000000000E+00 -0.10788253905E+04  0.10788253905E+04  0.00000000000E+00 0. -1.
         36    2    1    2    0    0  0.35527136788E-14  0.17763568394E-14 -0.10612880316E+04  0.10963627493E+04  0.27509814969E+03 0.  0.
         25    2    3    3    0    0 -0.23960394711E+02  0.95135734580E+01 -0.69836035176E+03  0.71082862451E+03  0.13002132100E+03 0.  0.
         25    2    3    3    0    0  0.23960394711E+02 -0.95135734580E+01 -0.36292767985E+03  0.38553412477E+03  0.12749687042E+03 0.  0.
          5    1    4    4  502    0 -0.34741948550E+02 -0.15332975093E+02 -0.67084075703E+03  0.67193118279E+03  0.47000000000E+01 0. -1.
         -5    1    4    4    0  502  0.10781553839E+02  0.24846548551E+02 -0.27519594735E+02  0.38897441721E+02  0.47000000000E+01 0. -1.
          5    1    5    5  503    0 -0.23430356455E+02 -0.19668931103E+01 -0.32023770475E+03  0.32113412746E+03  0.47000000000E+01 0. -1.
         -5    1    5    5    0  503  0.47390751166E+02 -0.75466803477E+01 -0.42689975101E+02  0.64399997317E+02  0.47000000000E+01 0. -1.
<mgrwt>
<rscale>  0 0.27509815E+03</rscale>
<asrwt>0</asrwt>
<pdfrwt beam="1">  1        2 0.16597313E+00 0.27509815E+03</pdfrwt>
<pdfrwt beam="2">  1       -2 0.26980553E-02 0.27509815E+03</pdfrwt>
<totfact> 0.11645324E+04</totfact>
</mgrwt>
</event>
<event>
 9    1  0.2114844E-002  0.2737018E+03  0.7818608E-02  0.1099179E+00
         -2   -1    0    0    0  501 -0.00000000000E+00  0.00000000000E+00  0.29976935097E+02  0.29976935097E+02  0.00000000000E+00 0. -1.
          2   -1    0    0  501    0  0.00000000000E+00 -0.00000000000E+00 -0.62475279279E+03  0.62475279279E+03  0.00000000000E+00 0. -1.
         36    2    1    2    0    0 -0.35527136788E-14  0.71054273576E-14 -0.59477585769E+03  0.65472972788E+03  0.27370183719E+03 0.  0.
         25    2    3    3    0    0 -0.12013851591E+02  0.42945525803E+02 -0.34277460335E+03  0.36986776224E+03  0.13160198337E+03 0.  0.
         25    2    3    3    0    0  0.12013851591E+02 -0.42945525803E+02 -0.25200125434E+03  0.28486196565E+03  0.12511217552E+03 0.  0.
          5    1    4    4  502    0 -0.27950635959E+02 -0.42303538260E+02 -0.15065937679E+03  0.15903196287E+03  0.47000000000E+01 0. -1.
         -5    1    4    4    0  502  0.15936784368E+02  0.85249064063E+02 -0.19211522656E+03  0.21083579937E+03  0.47000000000E+01 0. -1.
          5    1    5    5  503    0 -0.17787911368E+02  0.33571162090E+02 -0.14461463732E+03  0.14959584233E+03  0.47000000000E+01 0.  1.
         -5    1    5    5    0  503  0.29801762958E+02 -0.76516687893E+02 -0.10738661702E+03  0.13526612332E+03  0.47000000000E+01 0.  1.
<mgrwt>
<rscale>  0 0.27370184E+03</rscale>
<asrwt>0</asrwt>
<pdfrwt beam="1">  1        2 0.96115810E-01 0.27370184E+03</pdfrwt>
<pdfrwt beam="2">  1       -2 0.46118364E-02 0.27370184E+03</pdfrwt>
<totfact> 0.10602884E+04</totfact>
</mgrwt>
</event>
<event>
 9    1  0.2114844E-002  0.2745781E+03  0.7818608E-02  0.1098688E+00
         -2   -1    0    0    0  501 -0.00000000000E+00  0.00000000000E+00  0.74369575734E+02  0.74369575734E+02  0.00000000000E+00 0.  1.
          2   -1    0    0  501    0  0.00000000000E+00 -0.00000000000E+00 -0.25344070119E+03  0.25344070119E+03  0.00000000000E+00 0.  1.
         36    2    1    2    0    0  0.00000000000E+00 -0.35527136788E-14 -0.17907112545E+03  0.32781027692E+03  0.27457805754E+03 0.  0.
         25    2    3    3    0    0 -0.32503432602E+02  0.24002430933E+02 -0.70419007650E+02  0.15709748052E+03  0.13449234895E+03 0.  0.
         25    2    3    3    0    0  0.32503432602E+02 -0.24002430933E+02 -0.10865211780E+03  0.17071279640E+03  0.12531953690E+03 0.  0.
          5    1    4    4  502    0 -0.83543393916E+02  0.24685182175E+02 -0.56649834237E+02  0.10401995292E+03  0.47000000000E+01 0. -1.
         -5    1    4    4    0  502  0.51039961314E+02 -0.68275124166E+00 -0.13769173414E+02  0.53077527606E+02  0.47000000000E+01 0. -1.
          5    1    5    5  503    0 -0.30333970339E+02 -0.51435622869E+02 -0.68986284806E+02  0.91361756484E+02  0.47000000000E+01 0.  1.
         -5    1    5    5    0  503  0.62837402941E+02  0.27433191936E+02 -0.39665832997E+02  0.79351039914E+02  0.47000000000E+01 0.  1.
<mgrwt>
<rscale>  0 0.27457806E+03</rscale>
<asrwt>0</asrwt>
<pdfrwt beam="1">  1        2 0.38990877E-01 0.27457806E+03</pdfrwt>
<pdfrwt beam="2">  1       -2 0.11441473E-01 0.27457806E+03</pdfrwt>
<totfact> 0.69646554E+03</totfact>
</mgrwt>
</event>
<event>
 9    1  0.2114844E-002  0.2745727E+03  0.7818608E-02  0.1098691E+00
         -2   -1    0    0    0  501 -0.00000000000E+00  0.00000000000E+00  0.29019445524E+03  0.29019445524E+03  0.00000000000E+00 0.  1.
          2   -1    0    0  501    0  0.00000000000E+00 -0.00000000000E+00 -0.64947983837E+02  0.64947983837E+02  0.00000000000E+00 0.  1.
         36    2    1    2    0    0  0.00000000000E+00  0.00000000000E+00  0.22524647140E+03  0.35514243908E+03  0.27457272107E+03 0.  0.
         25    2    3    3    0    0  0.22282602858E+02 -0.74224315089E+01  0.63124180922E+02  0.14486096238E+03  0.12825143011E+03 0.  0.
         25    2    3    3    0    0 -0.22282602858E+02  0.74224315089E+01  0.16212229048E+03  0.21028147669E+03  0.13184481594E+03 0.  0.
          5    1    4    4  502    0  0.35924895011E+02 -0.56884053534E+02  0.56581698483E+01  0.67679380272E+02  0.47000000000E+01 0. -1.
         -5    1    4    4    0  502 -0.13642292153E+02  0.49461622025E+02  0.57466011073E+02  0.77181582111E+02  0.47000000000E+01 0. -1.
          5    1    5    5  503    0  0.75739286439E+01  0.52989904552E+02  0.14232019879E+03  0.15212634013E+03  0.47000000000E+01 0.  1.
         -5    1    5    5    0  503 -0.29856531502E+02 -0.45567473043E+02  0.19802091694E+02  0.58155136560E+02  0.47000000000E+01 0.  1.
<mgrwt>
<rscale>  0 0.27457272E+03</rscale>
<asrwt>0</asrwt>
<pdfrwt beam="1">  1        2 0.99919977E-02 0.27457272E+03</pdfrwt>
<pdfrwt beam="2">  1       -2 0.44645300E-01 0.27457272E+03</pdfrwt>
<totfact> 0.30733605E+03</totfact>
</mgrwt>
</event>
<event>
 9    1  0.2114844E-002  0.2820399E+03  0.7818608E-02  0.1094580E+00
          2   -1    0    0  501    0  0.00000000000E+00  0.00000000000E+00  0.10017340180E+04  0.10017340180E+04  0.00000000000E+00 0. -1.
         -2   -1    0    0    0  501 -0.00000000000E+00 -0.00000000000E+00 -0.19852201753E+02  0.19852201753E+02  0.00000000000E+00 0. -1.
         36    2    1    2    0    0 -0.35527136788E-14  0.00000000000E+00  0.98188181622E+03  0.10215862197E+04  0.28203989667E+03 0.  0.
         25    2    3    3    0    0  0.31329127059E+02 -0.41111290613E+02  0.61892377369E+03  0.63214952981E+03  0.11779107768E+03 0.  0.
         25    2    3    3    0    0 -0.31329127059E+02  0.41111290613E+02  0.36295804253E+03  0.38943668992E+03  0.13134208160E+03 0.  0.
          5    1    4    4  502    0  0.61063899439E+02  0.85526782554E+01  0.20356735157E+03  0.21275268446E+03  0.47000000000E+01 0. -1.
         -5    1    4    4    0  502 -0.29734772379E+02 -0.49663968869E+02  0.41535642212E+03  0.41939684535E+03  0.47000000000E+01 0. -1.
          5    1    5    5  503    0  0.39756266114E+02 -0.11170918244E+02  0.19785257738E+03  0.20217092393E+03  0.47000000000E+01 0.  1.
         -5    1    5    5    0  503 -0.71085393174E+02  0.52282208858E+02  0.16510546515E+03  0.18726576598E+03  0.47000000000E+01 0.  1.
<mgrwt>
<rscale>  0 0.28203990E+03</rscale>
<asrwt>0</asrwt>
<pdfrwt beam="1">  1        2 0.15411289E+00 0.28203990E+03</pdfrwt>
<pdfrwt beam="2">  1       -2 0.30541857E-02 0.28203990E+03</pdfrwt>
<totfact> 0.10785500E+04</totfact>
</mgrwt>
</event>
<event>
 9    1  0.2114844E-002  0.2744918E+03  0.7818608E-02  0.1098736E+00
         -1   -1    0    0    0  501 -0.00000000000E+00  0.00000000000E+00  0.12373342333E+03  0.12373342333E+03  0.00000000000E+00 0.  1.
          1   -1    0    0  501    0  0.00000000000E+00 -0.00000000000E+00 -0.15223407543E+03  0.15223407543E+03  0.00000000000E+00 0.  1.
         36    2    1    2    0    0  0.00000000000E+00 -0.35527136788E-14 -0.28500652096E+02  0.27596749876E+03  0.27449184542E+03 0.  0.
         25    2    3    3    0    0  0.58755522264E+02 -0.11787490606E+02 -0.12355403720E+02  0.13721546643E+03  0.12281804386E+03 0.  0.
         25    2    3    3    0    0 -0.58755522264E+02  0.11787490606E+02 -0.16145248377E+02  0.13875203232E+03  0.12409794961E+03 0.  0.
          5    1    4    4  502    0 -0.15930818075E+02 -0.31047221575E+02  0.32457733524E+02  0.47888572725E+02  0.47000000000E+01 0.  1.
         -5    1    4    4    0  502  0.74686340339E+02  0.19259730970E+02 -0.44813137244E+02  0.89326893710E+02  0.47000000000E+01 0.  1.
          5    1    5    5  503    0 -0.28752912535E+02  0.54714764943E+00 -0.70049766773E+02  0.75868894645E+02  0.47000000000E+01 0.  1.
         -5    1    5    5    0  503 -0.30002609730E+02  0.11240342956E+02  0.53904518396E+02  0.62883137675E+02  0.47000000000E+01 0.  1.
<mgrwt>
<rscale>  0 0.27449185E+03</rscale>
<asrwt>0</asrwt>
<pdfrwt beam="1">  1        1 0.23420627E-01 0.27449185E+03</pdfrwt>
<pdfrwt beam="2">  1       -1 0.19035911E-01 0.27449185E+03</pdfrwt>
<totfact> 0.45198440E+03</totfact>
</mgrwt>
</event>
<event>
 9    1  0.2114844E-002  0.2749645E+03  0.7818608E-02  0.1098471E+00
         -1   -1    0    0    0  501 -0.00000000000E+00  0.00000000000E+00  0.14000745742E+03  0.14000745742E+03  0.00000000000E+00 0.  1.
          1   -1    0    0  501    0  0.00000000000E+00 -0.00000000000E+00 -0.13500261192E+03  0.13500261192E+03  0.00000000000E+00 0.  1.
         36    2    1    2    0    0  0.88817841970E-15 -0.71054273576E-14  0.50048455047E+01  0.27501006934E+03  0.27496452454E+03 0.  0.
         25    2    3    3    0    0  0.13849612799E+01  0.20744429151E+01  0.45854233111E+02  0.14141553335E+03  0.13375171381E+03 0.  0.
         25    2    3    3    0    0 -0.13849612799E+01 -0.20744429151E+01 -0.40849387607E+02  0.13359453598E+03  0.12717156186E+03 0.  0.
          5    1    4    4  502    0  0.30048452609E+02 -0.32955073449E+02 -0.29293037958E+02  0.53564152593E+02  0.47000000000E+01 0. -1.
         -5    1    4    4    0  502 -0.28663491329E+02  0.35029516364E+02  0.75147271070E+02  0.87851380758E+02  0.47000000000E+01 0. -1.
          5    1    5    5  503    0 -0.93447442377E+01 -0.52172800881E+02 -0.59058372070E+02  0.79494067126E+02  0.47000000000E+01 0. -1.
         -5    1    5    5    0  503  0.79597829578E+01  0.50098357966E+02  0.18208984464E+02  0.54100468859E+02  0.47000000000E+01 0. -1.
<mgrwt>
<rscale>  0 0.27496452E+03</rscale>
<asrwt>0</asrwt>
<pdfrwt beam="1">  1        1 0.20769633E-01 0.27496452E+03</pdfrwt>
<pdfrwt beam="2">  1       -1 0.21539609E-01 0.27496452E+03</pdfrwt>
<totfact> 0.43116210E+03</totfact>
</mgrwt>
</event>
<event>
 9    1  0.2114844E-002  0.2741121E+03  0.7818608E-02  0.1098949E+00
          1   -1    0    0  501    0  0.00000000000E+00  0.00000000000E+00  0.12528265536E+04  0.12528265536E+04  0.00000000000E+00 0.  1.
         -1   -1    0    0    0  501 -0.00000000000E+00 -0.00000000000E+00 -0.14993584939E+02  0.14993584939E+02  0.00000000000E+00 0.  1.
         36    2    1    2    0    0  0.35527136788E-14 -0.71054273576E-14  0.12378329687E+04  0.12678201385E+04  0.27411210368E+03 0.  0.
         25    2    3    3    0    0  0.12504689540E+02 -0.56879232993E+02  0.59647964704E+03  0.61183236736E+03  0.12312295484E+03 0.  0.
         25    2    3    3    0    0 -0.12504689540E+02  0.56879232993E+02  0.64135332161E+03  0.65598777117E+03  0.12487697297E+03 0.  0.
          5    1    4    4  502    0  0.51471091234E+02 -0.62386244073E+02  0.24325381393E+03  0.25638998552E+03  0.47000000000E+01 0.  1.
         -5    1    4    4    0  502 -0.38966401694E+02  0.55070110805E+01  0.35322583311E+03  0.35544238184E+03  0.47000000000E+01 0.  1.
          5    1    5    5  503    0  0.11898957517E+02  0.51695807518E+02  0.62145304703E+03  0.62373072826E+03  0.47000000000E+01 0. -1.
         -5    1    5    5    0  503 -0.24403647057E+02  0.51834254747E+01  0.19900274578E+02  0.32257042915E+02  0.47000000000E+01 0. -1.
<mgrwt>
<rscale>  0 0.27411210E+03</rscale>
<asrwt>0</asrwt>
<pdfrwt beam="1">  1        1 0.19274246E+00 0.27411210E+03</pdfrwt>
<pdfrwt beam="2">  1       -1 0.23067064E-02 0.27411210E+03</pdfrwt>
<totfact> 0.58474197E+03</totfact>
</mgrwt>
</event>
<event>
 9    1  0.2114844E-002  0.2746383E+03  0.7818608E-02  0.1098654E+00
         -1   -1    0    0    0  501 -0.00000000000E+00  0.00000000000E+00  0.22949863776E+02  0.22949863776E+02  0.00000000000E+00 0. -1.
          1   -1    0    0  501    0  0.00000000000E+00 -0.00000000000E+00 -0.82164091598E+03  0.82164091598E+03  0.00000000000E+00 0. -1.
         36    2    1    2    0    0  0.00000000000E+00 -0.71054273576E-14 -0.79869105220E+03  0.84459077975E+03  0.27463828644E+03 0.  0.
         25    2    3    3    0    0  0.44517995160E+02  0.33404153674E+02 -0.36688153605E+03  0.39171326987E+03  0.12545730318E+03 0.  0.
         25    2    3    3    0    0 -0.44517995160E+02 -0.33404153674E+02 -0.43180951615E+03  0.45287750988E+03  0.12466311141E+03 0.  0.
          5    1    4    4  502    0 -0.10283317199E+02 -0.17823632061E+02 -0.44519229386E+01  0.21571696510E+02  0.47000000000E+01 0. -1.
         -5    1    4    4    0  502  0.54801312359E+02  0.51227785735E+02 -0.36242961311E+03  0.37014157336E+03  0.47000000000E+01 0. -1.
          5    1    5    5  503    0 -0.14059157694E+02 -0.73932949721E+02 -0.16723849802E+03  0.18345175439E+03  0.47000000000E+01 0. -1.
         -5    1    5    5    0  503 -0.30458837466E+02  0.40528796047E+02 -0.26457101813E+03  0.26942575549E+03  0.47000000000E+01 0. -1.
<mgrwt>
<rscale>  0 0.27463829E+03</rscale>
<asrwt>0</asrwt>
<pdfrwt beam="1">  1        1 0.12640627E+00 0.27463829E+03</pdfrwt>
<pdfrwt beam="2">  1       -1 0.35307490E-02 0.27463829E+03</pdfrwt>
<totfact> 0.65345148E+03</totfact>
</mgrwt>
</event>
<event>
 9    1  0.2114844E-002  0.2748658E+03  0.7818608E-02  0.1098527E+00
          1   -1    0    0  501    0  0.00000000000E+00  0.00000000000E+00  0.28114414997E+03  0.28114414997E+03  0.00000000000E+00 0. -1.
         -1   -1    0    0    0  501 -0.00000000000E+00 -0.00000000000E+00 -0.67181901454E+02  0.67181901454E+02  0.00000000000E+00 0. -1.
         36    2    1    2    0    0  0.71054273576E-14  0.00000000000E+00  0.21396224851E+03  0.34832605142E+03  0.27486577508E+03 0.  0.
         25    2    3    3    0    0 -0.44029358723E+02 -0.28943485312E+02  0.10297055376E+03  0.17172920573E+03  0.12693177454E+03 0.  0.
         25    2    3    3    0    0  0.44029358723E+02  0.28943485312E+02  0.11099169475E+03  0.17659684569E+03  0.12685022598E+03 0.  0.
          5    1    4    4  502    0 -0.48555225685E+01  0.39834062032E+02  0.79268831643E+02  0.88971716109E+02  0.47000000000E+01 0.  1.
         -5    1    4    4    0  502 -0.39173836154E+02 -0.68777547344E+02  0.23701722115E+02  0.82757489624E+02  0.47000000000E+01 0.  1.
          5    1    5    5  503    0  0.60957735588E+02 -0.23981069813E+01  0.13311179744E+01  0.61200149674E+02  0.47000000000E+01 0.  1.
         -5    1    5    5    0  503 -0.16928376865E+02  0.31341592293E+02  0.10966057678E+03  0.11539669601E+03  0.47000000000E+01 0.  1.
<mgrwt>
<rscale>  0 0.27486578E+03</rscale>
<asrwt>0</asrwt>
<pdfrwt beam="1">  1        1 0.43252946E-01 0.27486578E+03</pdfrwt>
<pdfrwt beam="2">  1       -1 0.10335677E-01 0.27486578E+03</pdfrwt>
<totfact> 0.54716818E+03</totfact>
</mgrwt>
</event>
<event>
 9    1  0.2114844E-002  0.2742070E+03  0.7818608E-02  0.1098896E+00
          1   -1    0    0  501    0  0.00000000000E+00  0.00000000000E+00  0.84032695115E+03  0.84032695115E+03  0.00000000000E+00 0. -1.
         -1   -1    0    0    0  501 -0.00000000000E+00 -0.00000000000E+00 -0.22369108813E+02  0.22369108813E+02  0.00000000000E+00 0. -1.
         36    2    1    2    0    0 -0.35527136788E-14  0.00000000000E+00  0.81795784234E+03  0.86269605996E+03  0.27420696570E+03 0.  0.
         25    2    3    3    0    0 -0.94253926919E+01 -0.34971180519E+02  0.55272973323E+03  0.56713275303E+03  0.12172748281E+03 0.  0.
         25    2    3    3    0    0  0.94253926919E+01  0.34971180519E+02  0.26522810911E+03  0.29556330694E+03  0.12529923004E+03 0.  0.
          5    1    4    4  502    0 -0.33729786558E+02  0.32701814469E+02  0.13006307186E+03  0.13836762566E+03  0.47000000000E+01 0.  1.
         -5    1    4    4    0  502  0.24304393866E+02 -0.67672994987E+02  0.42266666137E+03  0.42876512736E+03  0.47000000000E+01 0.  1.
          5    1    5    5  503    0 -0.24030287404E+02 -0.16290746255E+02  0.21282156916E+03  0.21484402116E+03  0.47000000000E+01 0.  1.
         -5    1    5    5    0  503  0.33455680096E+02  0.51261926773E+02  0.52406539949E+02  0.80719285778E+02  0.47000000000E+01 0.  1.
<mgrwt>
<rscale>  0 0.27420697E+03</rscale>
<asrwt>0</asrwt>
<pdfrwt beam="1">  1        1 0.12928105E+00 0.27420697E+03</pdfrwt>
<pdfrwt beam="2">  1       -1 0.34414020E-02 0.27420697E+03</pdfrwt>
<totfact> 0.65522233E+03</totfact>
</mgrwt>
</event>
<event>
 9    1  0.2114844E-002  0.2765374E+03  0.7818608E-02  0.1097595E+00
         -2   -1    0    0    0  501 -0.00000000000E+00  0.00000000000E+00  0.85884991435E+01  0.85884991435E+01  0.00000000000E+00 0. -1.
          2   -1    0    0  501    0  0.00000000000E+00 -0.00000000000E+00 -0.22260279722E+04  0.22260279722E+04  0.00000000000E+00 0. -1.
         36    2    1    2    0    0  0.35527136788E-14  0.00000000000E+00 -0.22174394730E+04  0.22346164713E+04  0.27653744291E+03 0.  0.
         25    2    3    3    0    0  0.17672209096E+02 -0.16048835660E+02 -0.13866802592E+04  0.13946137298E+04  0.14661323997E+03 0.  0.
         25    2    3    3    0    0 -0.17672209096E+02  0.16048835660E+02 -0.83075921385E+03  0.84000274148E+03  0.12195844459E+03 0.  0.
          5    1    4    4  502    0 -0.25600121426E+02 -0.38517457025E+02 -0.12199866943E+04  0.12208720592E+04  0.47000000000E+01 0. -1.
         -5    1    4    4    0  502  0.43272330522E+02  0.22468621364E+02 -0.16669356489E+03  0.17374167062E+03  0.47000000000E+01 0. -1.
          5    1    5    5  503    0 -0.60415148878E+02  0.29410422825E+02 -0.30654069728E+03  0.31385387089E+03  0.47000000000E+01 0. -1.
         -5    1    5    5    0  503  0.42742939782E+02 -0.13361587165E+02 -0.52421851657E+03  0.52614887059E+03  0.47000000000E+01 0. -1.
<mgrwt>
<rscale>  0 0.27653744E+03</rscale>
<asrwt>0</asrwt>
<pdfrwt beam="1">  1        2 0.34246602E+00 0.27653744E+03</pdfrwt>
<pdfrwt beam="2">  1       -2 0.13213069E-02 0.27653744E+03</pdfrwt>
<totfact> 0.80109544E+03</totfact>
</mgrwt>
</event>
<event>
 9    1  0.2114844E-002  0.2751140E+03  0.7818608E-02  0.1098388E+00
          1   -1    0    0  501    0  0.00000000000E+00  0.00000000000E+00  0.13620881422E+04  0.13620881422E+04  0.00000000000E+00 0. -1.
         -1   -1    0    0    0  501 -0.00000000000E+00 -0.00000000000E+00 -0.13891853782E+02  0.13891853782E+02  0.00000000000E+00 0. -1.
         36    2    1    2    0    0  0.00000000000E+00  0.14210854715E-13  0.13481962884E+04  0.13759799960E+04  0.27511400771E+03 0.  0.
         25    2    3    3    0    0 -0.24339022356E+02  0.51684716452E+02  0.66160958542E+03  0.67587064118E+03  0.12573854689E+03 0.  0.
         25    2    3    3    0    0  0.24339022356E+02 -0.51684716452E+02  0.68658670301E+03  0.70010935481E+03  0.12445123549E+03 0.  0.
          5    1    4    4  502    0 -0.58905464989E+00 -0.26139118424E+02  0.42089457338E+03  0.42173206233E+03  0.47000000000E+01 0.  1.
         -5    1    4    4    0  502 -0.23749967706E+02  0.77823834877E+02  0.24071501204E+03  0.25413857886E+03  0.47000000000E+01 0.  1.
          5    1    5    5  503    0 -0.18905393546E+01 -0.26233424753E+01  0.57783872813E+03  0.57786688933E+03  0.47000000000E+01 0.  1.
         -5    1    5    5    0  503  0.26229561711E+02 -0.49061373977E+02  0.10874797488E+03  0.12224246548E+03  0.47000000000E+01 0.  1.
<mgrwt>
<rscale>  0 0.27511401E+03</rscale>
<asrwt>0</asrwt>
<pdfrwt beam="1">  1        1 0.20955192E+00 0.27511401E+03</pdfrwt>
<pdfrwt beam="2">  1       -1 0.21372093E-02 0.27511401E+03</pdfrwt>
<totfact> 0.55073425E+03</totfact>
</mgrwt>
</event>
<event>
 9    1  0.2114844E-002  0.2749365E+03  0.7818608E-02  0.1098487E+00
         -2   -1    0    0    0  501 -0.00000000000E+00  0.00000000000E+00  0.73847845027E+02  0.73847845027E+02  0.00000000000E+00 0. -1.
          2   -1    0    0  501    0  0.00000000000E+00 -0.00000000000E+00 -0.25589798602E+03  0.25589798602E+03  0.00000000000E+00 0. -1.
         36    2    1    2    0    0  0.00000000000E+00  0.00000000000E+00 -0.18205014099E+03  0.32974583105E+03  0.27493646404E+03 0.  0.
         25    2    3    3    0    0 -0.19848112764E+02 -0.23778713081E+02 -0.30450187918E+02  0.13085769981E+03  0.12343884672E+03 0.  0.
         25    2    3    3    0    0  0.19848112764E+02  0.23778713081E+02 -0.15159995307E+03  0.19888813123E+03  0.12495826582E+03 0.  0.
          5    1    4    4  502    0  0.11603884090E+02 -0.63756930661E+02  0.99461449530E+01  0.65731363387E+02  0.47000000000E+01 0. -1.
         -5    1    4    4    0  502 -0.31451996854E+02  0.39978217581E+02 -0.40396332871E+02  0.65126336427E+02  0.47000000000E+01 0. -1.
          5    1    5    5  503    0 -0.62922606550E+01  0.47184247167E+02 -0.15604262753E+03  0.16320948910E+03  0.47000000000E+01 0. -1.
         -5    1    5    5    0  503  0.26140373419E+02 -0.23405534087E+02  0.44426744538E+01  0.35678642136E+02  0.47000000000E+01 0. -1.
<mgrwt>
<rscale>  0 0.27493646E+03</rscale>
<asrwt>0</asrwt>
<pdfrwt beam="1">  1        2 0.39368920E-01 0.27493646E+03</pdfrwt>
<pdfrwt beam="2">  1       -2 0.11361207E-01 0.27493646E+03</pdfrwt>
<totfact> 0.69712212E+03</totfact>
</mgrwt>
</event>
<event>
 9    1  0.2114844E-002  0.2804994E+03  0.7818608E-02  0.1095416E+00
          2   -1    0    0  501    0  0.00000000000E+00  0.00000000000E+00  0.14235408886E+04  0.14235408886E+04  0.00000000000E+00 0. -1.
         -2   -1    0    0    0  501 -0.00000000000E+00 -0.00000000000E+00 -0.13817641782E+02  0.13817641782E+02  0.00000000000E+00 0. -1.
         36    2    1    2    0    0  0.35527136788E-14  0.88817841970E-15  0.14097232468E+04  0.14373585304E+04  0.28049939793E+03 0.  0.
         25    2    3    3    0    0  0.16808018853E+02  0.30669408821E+01  0.10601870847E+04  0.10675188024E+04  0.12372478867E+03 0.  0.
         25    2    3    3    0    0 -0.16808018853E+02 -0.30669408821E+01  0.34953616212E+03  0.36983972797E+03  0.11964104700E+03 0.  0.
          5    1    4    4  502    0  0.39327413916E+02  0.50484419342E+02  0.76310738742E+03  0.76580042884E+03  0.47000000000E+01 0.  1.
         -5    1    4    4    0  502 -0.22519395062E+02 -0.47417478460E+02  0.29707969726E+03  0.30171837356E+03  0.47000000000E+01 0.  1.
          5    1    5    5  503    0  0.34155949195E+02 -0.10852130699E+02  0.32510416668E+02  0.48614964754E+02  0.47000000000E+01 0.  1.
         -5    1    5    5    0  503 -0.50963968048E+02  0.77851898168E+01  0.31702574545E+03  0.32122476321E+03  0.47000000000E+01 0.  1.
<mgrwt>
<rscale>  0 0.28049940E+03</rscale>
<asrwt>0</asrwt>
<pdfrwt beam="1">  1        2 0.21900617E+00 0.28049940E+03</pdfrwt>
<pdfrwt beam="2">  1       -2 0.21257922E-02 0.28049940E+03</pdfrwt>
<totfact> 0.10604656E+04</totfact>
</mgrwt>
</event>
<event>
 9    1  0.2114844E-002  0.2691086E+03  0.7818608E-02  0.1101791E+00
         -3   -1    0    0    0  501 -0.00000000000E+00  0.00000000000E+00  0.19922270491E+03  0.19922270491E+03  0.00000000000E+00 0. -1.
          3   -1    0    0  501    0  0.00000000000E+00 -0.00000000000E+00 -0.90877467783E+02  0.90877467783E+02  0.00000000000E+00 0. -1.
         36    2    1    2    0    0  0.71054273576E-14 -0.17763568394E-14  0.10834523713E+03  0.29010017270E+03  0.26910856506E+03 0.  0.
         25    2    3    3    0    0 -0.43780556342E+02 -0.79840176744E+01  0.45960327827E+02  0.14168894839E+03  0.12642359238E+03 0.  0.
         25    2    3    3    0    0  0.43780556342E+02  0.79840176744E+01  0.62384909305E+02  0.14841122431E+03  0.12709654968E+03 0.  0.
          5    1    4    4  502    0  0.38235751498E+02  0.33568033222E+01  0.44216901096E+02  0.58740660226E+02  0.47000000000E+01 0.  1.
         -5    1    4    4    0  502 -0.82016307840E+02 -0.11340820997E+02  0.17434267304E+01  0.82948288164E+02  0.47000000000E+01 0.  1.
          5    1    5    5  503    0  0.87666300136E+02  0.14037134565E+02  0.32021442424E+02  0.94498064008E+02  0.47000000000E+01 0.  1.
         -5    1    5    5    0  503 -0.43885743794E+02 -0.60531168902E+01  0.30363466881E+02  0.53913160299E+02  0.47000000000E+01 0.  1.
<mgrwt>
<rscale>  0 0.26910857E+03</rscale>
<asrwt>0</asrwt>
<pdfrwt beam="1">  1        3 0.13981149E-01 0.26910857E+03</pdfrwt>
<pdfrwt beam="2">  1       -3 0.30649647E-01 0.26910857E+03</pdfrwt>
<totfact> 0.10964001E+03</totfact>
</mgrwt>
</event>
<event>
 9    1  0.2114844E-002  0.2737365E+03  0.7818608E-02  0.1099160E+00
          2   -1    0    0  501    0  0.00000000000E+00  0.00000000000E+00  0.56199295354E+03  0.56199295354E+03  0.00000000000E+00 0.  1.
         -2   -1    0    0    0  501 -0.00000000000E+00 -0.00000000000E+00 -0.33333021986E+02  0.33333021986E+02  0.00000000000E+00 0.  1.
         36    2    1    2    0    0  0.71054273576E-14 -0.71054273576E-14  0.52865993155E+03  0.59532597553E+03  0.27373654105E+03 0.  0.
         25    2    3    3    0    0 -0.25253499593E+02  0.47688879109E+02  0.40380248477E+03  0.41341990821E+03  0.70339216388E+02 0.  0.
         25    2    3    3    0    0  0.25253499593E+02 -0.47688879109E+02  0.12485744678E+03  0.18190606732E+03  0.12078272591E+03 0.  0.
          5    1    4    4  502    0 -0.33296987440E+02  0.46381322943E+02  0.39854841718E+03  0.40264481535E+03  0.47000000000E+01 0.  1.
         -5    1    4    4    0  502  0.80434878465E+01  0.13075561658E+01  0.52540675924E+01  0.10775092859E+02  0.47000000000E+01 0.  1.
          5    1    5    5  503    0 -0.23831545504E+02  0.29122463437E+02  0.19956167168E+02  0.42853226784E+02  0.47000000000E+01 0.  1.
         -5    1    5    5    0  503  0.49085045098E+02 -0.76811342546E+02  0.10490127961E+03  0.13905284053E+03  0.47000000000E+01 0.  1.
<mgrwt>
<rscale>  0 0.27373654E+03</rscale>
<asrwt>0</asrwt>
<pdfrwt beam="1">  1        2 0.86460447E-01 0.27373654E+03</pdfrwt>
<pdfrwt beam="2">  1       -2 0.51281576E-02 0.27373654E+03</pdfrwt>
<totfact> 0.10203125E+04</totfact>
</mgrwt>
</event>
<event>
 9    1  0.2114844E-002  0.2673956E+03  0.7818608E-02  0.1102779E+00
         -1   -1    0    0    0  501 -0.00000000000E+00  0.00000000000E+00  0.63394099141E+02  0.63394099141E+02  0.00000000000E+00 0. -1.
          1   -1    0    0  501    0  0.00000000000E+00 -0.00000000000E+00 -0.28196785737E+03  0.28196785737E+03  0.00000000000E+00 0. -1.
         36    2    1    2    0    0  0.00000000000E+00  0.00000000000E+00 -0.21857375823E+03  0.34536195651E+03  0.26739557442E+03 0.  0.
         25    2    3    3    0    0 -0.30137540638E+01  0.11792645607E+02 -0.15958596730E+03  0.20527793464E+03  0.12854260106E+03 0.  0.
         25    2    3    3    0    0  0.30137540638E+01 -0.11792645607E+02 -0.58987790929E+02  0.14008402187E+03  0.12647460022E+03 0.  0.
          5    1    4    4  502    0  0.52750499963E+02 -0.15998455987E+02 -0.11770333827E+03  0.13005664796E+03  0.47000000000E+01 0.  1.
         -5    1    4    4    0  502 -0.55764254027E+02  0.27791101594E+02 -0.41882629033E+02  0.75221286679E+02  0.47000000000E+01 0.  1.
          5    1    5    5  503    0  0.22892528209E+02  0.39096015619E+02  0.15032579110E+02  0.47964932188E+02  0.47000000000E+01 0. -1.
         -5    1    5    5    0  503 -0.19878774146E+02 -0.50888661226E+02 -0.74020370040E+02  0.92119089681E+02  0.47000000000E+01 0. -1.
<mgrwt>
<rscale>  0 0.26739557E+03</rscale>
<asrwt>0</asrwt>
<pdfrwt beam="1">  1        1 0.43379670E-01 0.26739557E+03</pdfrwt>
<pdfrwt beam="2">  1       -1 0.97529384E-02 0.26739557E+03</pdfrwt>
<totfact> 0.59575699E+03</totfact>
</mgrwt>
</event>
<event>
 9    1  0.2114844E-002  0.2746025E+03  0.7818608E-02  0.1098674E+00
         -1   -1    0    0    0  501 -0.00000000000E+00  0.00000000000E+00  0.31687426416E+03  0.31687426416E+03  0.00000000000E+00 0. -1.
          1   -1    0    0  501    0  0.00000000000E+00 -0.00000000000E+00 -0.59492484343E+02  0.59492484343E+02  0.00000000000E+00 0. -1.
         36    2    1    2    0    0  0.71054273576E-14 -0.71054273576E-14  0.25738177981E+03  0.37636674850E+03  0.27460252875E+03 0.  0.
         25    2    3    3    0    0 -0.44122768594E+02  0.23878512385E+02  0.64907578320E+02  0.14921336627E+03  0.12463800740E+03 0.  0.
         25    2    3    3    0    0  0.44122768594E+02 -0.23878512385E+02  0.19247420149E+03  0.22715338223E+03  0.10970569153E+03 0.  0.
          5    1    4    4  502    0 -0.56796504950E+02  0.67392619187E+02  0.36437594616E+02  0.95485058500E+02  0.47000000000E+01 0.  1.
         -5    1    4    4    0  502  0.12673736356E+02 -0.43514106802E+02  0.28469983705E+02  0.53728307773E+02  0.47000000000E+01 0.  1.
          5    1    5    5  503    0  0.32301183486E+02  0.19369352029E+02  0.17456895392E+03  0.17864755225E+03  0.47000000000E+01 0.  1.
         -5    1    5    5    0  503  0.11821585108E+02 -0.43247864414E+02  0.17905247572E+02  0.48505829973E+02  0.47000000000E+01 0.  1.
<mgrwt>
<rscale>  0 0.27460253E+03</rscale>
<asrwt>0</asrwt>
<pdfrwt beam="1">  1        1 0.91526901E-02 0.27460253E+03</pdfrwt>
<pdfrwt beam="2">  1       -1 0.48749886E-01 0.27460253E+03</pdfrwt>
<totfact> 0.31036291E+03</totfact>
</mgrwt>
</event>
<event>
 9    1  0.2114844E-002  0.2747033E+03  0.7818608E-02  0.1098618E+00
          2   -1    0    0  501    0  0.00000000000E+00  0.00000000000E+00  0.37188288986E+02  0.37188288986E+02  0.00000000000E+00 0. -1.
         -2   -1    0    0    0  501 -0.00000000000E+00 -0.00000000000E+00 -0.50729631266E+03  0.50729631266E+03  0.00000000000E+00 0. -1.
         36    2    1    2    0    0 -0.35527136788E-14 -0.13322676296E-14 -0.47010802367E+03  0.54448460164E+03  0.27470334455E+03 0.  0.
         25    2    3    3    0    0  0.20247550489E+02  0.20934498277E+01 -0.13152914311E+03  0.18342016467E+03  0.12620893585E+03 0.  0.
         25    2    3    3    0    0 -0.20247550489E+02 -0.20934498277E+01 -0.33857888056E+03  0.36106443697E+03  0.12376398286E+03 0.  0.
          5    1    4    4  502    0  0.19633407427E+02  0.32697734300E+01 -0.15657379622E+03  0.15790378643E+03  0.47000000000E+01 0. -1.
         -5    1    4    4    0  502  0.61414306167E+00 -0.11763236024E+01  0.25044653113E+02  0.25516378239E+02  0.47000000000E+01 0. -1.
          5    1    5    5  503    0  0.22357590717E+01 -0.50346747040E+02 -0.26689593296E+03  0.27165294511E+03  0.47000000000E+01 0.  1.
         -5    1    5    5    0  503 -0.22483309560E+02  0.48253297212E+02 -0.71682947600E+02  0.89411491863E+02  0.47000000000E+01 0.  1.
<mgrwt>
<rscale>  0 0.27470334E+03</rscale>
<asrwt>0</asrwt>
<pdfrwt beam="1">  1        2 0.57212755E-02 0.27470334E+03</pdfrwt>
<pdfrwt beam="2">  1       -2 0.78045583E-01 0.27470334E+03</pdfrwt>
<totfact> 0.19748358E+03</totfact>
</mgrwt>
</event>
<event>
 9    1  0.2114844E-002  0.2747797E+03  0.7818608E-02  0.1098575E+00
          2   -1    0    0  501    0  0.00000000000E+00  0.00000000000E+00  0.17724905950E+04  0.17724905950E+04  0.00000000000E+00 0.  1.
         -2   -1    0    0    0  501 -0.00000000000E+00 -0.00000000000E+00 -0.10649409082E+02  0.10649409082E+02  0.00000000000E+00 0.  1.
         36    2    1    2    0    0  0.14210854715E-13 -0.14210854715E-13  0.17618411859E+04  0.17831400041E+04  0.27477974773E+03 0.  0.
         25    2    3    3    0    0  0.42997773536E+02 -0.53082358783E+01  0.87328737543E+03  0.88305865501E+03  0.12363155827E+03 0.  0.
         25    2    3    3    0    0 -0.42997773536E+02  0.53082358783E+01  0.88855381047E+03  0.90008134906E+03  0.13689987189E+03 0.  0.
          5    1    4    4  502    0  0.67825095407E+01 -0.55747553729E+02  0.60593057709E+03  0.60854559931E+03  0.47000000000E+01 0. -1.
         -5    1    4    4    0  502  0.36215263995E+02  0.50439317851E+02  0.26735679834E+03  0.27451305570E+03  0.47000000000E+01 0. -1.
          5    1    5    5  503    0 -0.18704584451E+02  0.70278785649E+02  0.51241645142E+03  0.51757287301E+03  0.47000000000E+01 0. -1.
         -5    1    5    5    0  503 -0.24293189086E+02 -0.64970549770E+02  0.37613735905E+03  0.38250847605E+03  0.47000000000E+01 0. -1.
<mgrwt>
<rscale>  0 0.27477975E+03</rscale>
<asrwt>0</asrwt>
<pdfrwt beam="1">  1        2 0.27269063E+00 0.27477975E+03</pdfrwt>
<pdfrwt beam="2">  1       -2 0.16383720E-02 0.27477975E+03</pdfrwt>
<totfact> 0.10142810E+04</totfact>
</mgrwt>
</event>
<event>
 9    1  0.2114844E-002  0.2754544E+03  0.7818608E-02  0.1098198E+00
          2   -1    0    0  501    0  0.00000000000E+00  0.00000000000E+00  0.13310416873E+03  0.13310416873E+03  0.00000000000E+00 0.  1.
         -2   -1    0    0    0  501 -0.00000000000E+00 -0.00000000000E+00 -0.14251082978E+03  0.14251082978E+03  0.00000000000E+00 0.  1.
         36    2    1    2    0    0  0.00000000000E+00  0.00000000000E+00 -0.94066610507E+01  0.27561499851E+03  0.27545442841E+03 0.  0.
         25    2    3    3    0    0 -0.33748024128E+01  0.21108016502E+02  0.45244099646E+02  0.13585263033E+03  0.12630111228E+03 0.  0.
         25    2    3    3    0    0  0.33748024128E+01 -0.21108016502E+02 -0.54650760697E+02  0.13976236818E+03  0.12684587601E+03 0.  0.
          5    1    4    4  502    0  0.43892534176E+02 -0.31421884101E+02  0.50483503345E+01  0.54419345806E+02  0.47000000000E+01 0. -1.
         -5    1    4    4    0  502 -0.47267336588E+02  0.52529900603E+02  0.40195749312E+02  0.81433284523E+02  0.47000000000E+01 0. -1.
          5    1    5    5  503    0 -0.65560998111E+01 -0.19470179756E+02 -0.95310373975E+02  0.97612641250E+02  0.47000000000E+01 0.  1.
         -5    1    5    5    0  503  0.99309022239E+01 -0.16378367454E+01  0.40659613278E+02  0.42149726928E+02  0.47000000000E+01 0.  1.
<mgrwt>
<rscale>  0 0.27545443E+03</rscale>
<asrwt>0</asrwt>
<pdfrwt beam="1">  1        2 0.20477564E-01 0.27545443E+03</pdfrwt>
<pdfrwt beam="2">  1       -2 0.21924743E-01 0.27545443E+03</pdfrwt>
<totfact> 0.48100454E+03</totfact>
</mgrwt>
</event>
<event>
 9    1  0.2114844E-002  0.2748054E+03  0.7818608E-02  0.1098560E+00
         -3   -1    0    0    0  501 -0.00000000000E+00  0.00000000000E+00  0.49714747859E+02  0.49714747859E+02  0.00000000000E+00 0.  1.
          3   -1    0    0  501    0  0.00000000000E+00 -0.00000000000E+00 -0.37975653063E+03  0.37975653063E+03  0.00000000000E+00 0.  1.
         36    2    1    2    0    0  0.28421709430E-13 -0.35527136788E-14 -0.33004178277E+03  0.42947127848E+03  0.27480538690E+03 0.  0.
         25    2    3    3    0    0  0.75692509037E+02 -0.32084079870E+01 -0.21733169926E+03  0.26174520681E+03  0.12465085632E+03 0.  0.
         25    2    3    3    0    0 -0.75692509037E+02  0.32084079870E+01 -0.11271008351E+03  0.16772607167E+03  0.98431815930E+02 0.  0.
          5    1    4    4  502    0  0.10027848364E+03 -0.29406597629E+02 -0.12775743980E+03  0.16511988278E+03  0.47000000000E+01 0. -1.
         -5    1    4    4    0  502 -0.24585974601E+02  0.26198189642E+02 -0.89574259456E+02  0.96625324034E+02  0.47000000000E+01 0. -1.
          5    1    5    5  503    0 -0.34693028193E+02 -0.34669375458E+02 -0.98190321209E+02  0.10985900500E+03  0.47000000000E+01 0. -1.
         -5    1    5    5    0  503 -0.40999480844E+02  0.37877783445E+02 -0.14519762303E+02  0.57867066675E+02  0.47000000000E+01 0. -1.
<mgrwt>
<rscale>  0 0.27480539E+03</rscale>
<asrwt>0</asrwt>
<pdfrwt beam="1">  1        3 0.58424083E-01 0.27480539E+03</pdfrwt>
<pdfrwt beam="2">  1       -3 0.76484225E-02 0.27480539E+03</pdfrwt>
<totfact> 0.84934302E+02</totfact>
</mgrwt>
</event>
<event>
 9    1  0.2114844E-002  0.2753011E+03  0.7818608E-02  0.1098283E+00
          2   -1    0    0  501    0  0.00000000000E+00  0.00000000000E+00  0.22335365576E+04  0.22335365576E+04  0.00000000000E+00 0.  1.
         -2   -1    0    0    0  501 -0.00000000000E+00 -0.00000000000E+00 -0.84832613999E+01  0.84832613999E+01  0.00000000000E+00 0.  1.
         36    2    1    2    0    0  0.44408920985E-14  0.14210854715E-13  0.22250532962E+04  0.22420198190E+04  0.27530110399E+03 0.  0.
         25    2    3    3    0    0 -0.26965954474E+01 -0.64831870341E+02  0.11889850356E+04  0.11978385887E+04  0.13008238460E+03 0.  0.
         25    2    3    3    0    0  0.26965954474E+01  0.64831870341E+02  0.10360682607E+04  0.10441812303E+04  0.11254580375E+03 0.  0.
          5    1    4    4  502    0 -0.35879113913E+01  0.17313462228E+02  0.80170089060E+03  0.80190961901E+03  0.47000000000E+01 0. -1.
         -5    1    4    4    0  502  0.89131594392E+00 -0.82145332569E+02  0.38728414497E+03  0.39592896970E+03  0.47000000000E+01 0. -1.
          5    1    5    5  503    0  0.35130599516E+02 -0.10566122611E+02  0.15792794944E+03  0.16220089144E+03  0.47000000000E+01 0.  1.
         -5    1    5    5    0  503 -0.32434004069E+02  0.75397992951E+02  0.87814031122E+03  0.88198033887E+03  0.47000000000E+01 0.  1.
<mgrwt>
<rscale>  0 0.27530110E+03</rscale>
<asrwt>0</asrwt>
<pdfrwt beam="1">  1        2 0.34362054E+00 0.27530110E+03</pdfrwt>
<pdfrwt beam="2">  1       -2 0.13051189E-02 0.27530110E+03</pdfrwt>
<totfact> 0.80814695E+03</totfact>
</mgrwt>
</event>
<event>
 9    1  0.2114844E-002  0.2742109E+03  0.7818608E-02  0.1098894E+00
         -1   -1    0    0    0  501 -0.00000000000E+00  0.00000000000E+00  0.13722696928E+03  0.13722696928E+03  0.00000000000E+00 0. -1.
          1   -1    0    0  501    0  0.00000000000E+00 -0.00000000000E+00 -0.13698400993E+03  0.13698400993E+03  0.00000000000E+00 0. -1.
         36    2    1    2    0    0  0.35527136788E-14  0.00000000000E+00  0.24295935876E+00  0.27421097921E+03  0.27421087158E+03 0.  0.
         25    2    3    3    0    0  0.25501046852E+02  0.46811658613E+02  0.12976982232E+02  0.13754906262E+03  0.12613369013E+03 0.  0.
         25    2    3    3    0    0 -0.25501046852E+02 -0.46811658613E+02 -0.12734022873E+02  0.13666191660E+03  0.12519061201E+03 0.  0.
          5    1    4    4  502    0  0.19155080229E+02 -0.23873237059E+02 -0.38750151360E+02  0.49603556089E+02  0.47000000000E+01 0. -1.
         -5    1    4    4    0  502  0.63459666233E+01  0.70684895672E+02  0.51727133592E+02  0.87945506526E+02  0.47000000000E+01 0. -1.
          5    1    5    5  503    0  0.33518767413E+02 -0.55749657003E+02 -0.33455846523E+02  0.73300175249E+02  0.47000000000E+01 0. -1.
         -5    1    5    5    0  503 -0.59019814265E+02  0.89379983902E+01  0.20721823650E+02  0.63361741347E+02  0.47000000000E+01 0. -1.
<mgrwt>
<rscale>  0 0.27421087E+03</rscale>
<asrwt>0</asrwt>
<pdfrwt beam="1">  1        1 0.21074463E-01 0.27421087E+03</pdfrwt>
<pdfrwt beam="2">  1       -1 0.21111841E-01 0.27421087E+03</pdfrwt>
<totfact> 0.43724255E+03</totfact>
</mgrwt>
</event>
<event>
 9    1  0.2114844E-002  0.2751485E+03  0.7818608E-02  0.1098369E+00
          2   -1    0    0  501    0  0.00000000000E+00  0.00000000000E+00  0.17401782691E+03  0.17401782691E+03  0.00000000000E+00 0. -1.
         -2   -1    0    0    0  501 -0.00000000000E+00 -0.00000000000E+00 -0.10876284954E+03  0.10876284954E+03  0.00000000000E+00 0. -1.
         36    2    1    2    0    0  0.00000000000E+00  0.00000000000E+00  0.65254977362E+02  0.28278067645E+03  0.27514850336E+03 0.  0.
         25    2    3    3    0    0 -0.51266281034E+02  0.30117687901E+02  0.27292871408E+02  0.14037954292E+03  0.12420228880E+03 0.  0.
         25    2    3    3    0    0  0.51266281034E+02 -0.30117687901E+02  0.37962105955E+02  0.14240113353E+03  0.12369985710E+03 0.  0.
          5    1    4    4  502    0 -0.60179588925E+02 -0.61842037066E+01 -0.33159788298E+02  0.69148310599E+02  0.47000000000E+01 0.  1.
         -5    1    4    4    0  502  0.89133078909E+01  0.36301891608E+02  0.60452659706E+02  0.71231232317E+02  0.47000000000E+01 0.  1.
          5    1    5    5  503    0  0.75409118682E+02  0.21730072548E+02  0.31338724851E+02  0.84634135599E+02  0.47000000000E+01 0. -1.
         -5    1    5    5    0  503 -0.24142837647E+02 -0.51847760449E+02  0.66233811037E+01  0.57766997935E+02  0.47000000000E+01 0. -1.
<mgrwt>
<rscale>  0 0.27514850E+03</rscale>
<asrwt>0</asrwt>
<pdfrwt beam="1">  1        2 0.26771973E-01 0.27514850E+03</pdfrwt>
<pdfrwt beam="2">  1       -2 0.16732746E-01 0.27514850E+03</pdfrwt>
<totfact> 0.56337631E+03</totfact>
</mgrwt>
</event>
<event>
 9    1  0.2114844E-002  0.2749208E+03  0.7818608E-02  0.1098496E+00
          1   -1    0    0  501    0  0.00000000000E+00  0.00000000000E+00  0.11057992737E+02  0.11057992737E+02  0.00000000000E+00 0. -1.
         -1   -1    0    0    0  501 -0.00000000000E+00 -0.00000000000E+00 -0.17087520294E+04  0.17087520294E+04  0.00000000000E+00 0. -1.
         36    2    1    2    0    0 -0.71054273576E-14  0.00000000000E+00 -0.16976940367E+04  0.17198100222E+04  0.27492084337E+03 0.  0.
         25    2    3    3    0    0  0.18311587062E+02  0.47270881305E+02 -0.63677869983E+03  0.65025611936E+03  0.12155680880E+03 0.  0.
         25    2    3    3    0    0 -0.18311587062E+02 -0.47270881305E+02 -0.10609153369E+04  0.10695539028E+04  0.12583460805E+03 0.  0.
          5    1    4    4  502    0 -0.47109029411E+02  0.12177142274E+02 -0.37298264893E+03  0.37617242037E+03  0.47000000000E+01 0. -1.
         -5    1    4    4    0  502  0.65420616472E+02  0.35093739031E+02 -0.26379605090E+03  0.27408369898E+03  0.47000000000E+01 0. -1.
          5    1    5    5  503    0  0.45677046876E+01  0.39205481828E+02 -0.19448291858E+03  0.19850347440E+03  0.47000000000E+01 0.  1.
         -5    1    5    5    0  503 -0.22879291749E+02 -0.86476363132E+02 -0.86643241828E+03  0.87105042840E+03  0.47000000000E+01 0.  1.
<mgrwt>
<rscale>  0 0.27492084E+03</rscale>
<asrwt>0</asrwt>
<pdfrwt beam="1">  1        1 0.17012300E-02 0.27492084E+03</pdfrwt>
<pdfrwt beam="2">  1       -1 0.26288487E+00 0.27492084E+03</pdfrwt>
<totfact> 0.50115109E+02</totfact>
</mgrwt>
</event>
<event>
 9    1  0.2114844E-002  0.2753035E+03  0.7818608E-02  0.1098282E+00
          2   -1    0    0  501    0  0.00000000000E+00  0.00000000000E+00  0.74290944394E+03  0.74290944394E+03  0.00000000000E+00 0.  1.
         -2   -1    0    0    0  501 -0.00000000000E+00 -0.00000000000E+00 -0.25505127104E+02  0.25505127104E+02  0.00000000000E+00 0.  1.
         36    2    1    2    0    0  0.00000000000E+00  0.71054273576E-14  0.71740431684E+03  0.76841457105E+03  0.27530346743E+03 0.  0.
         25    2    3    3    0    0 -0.19887727196E+02  0.35871228510E+02  0.24429339866E+03  0.27406744807E+03  0.11726651156E+03 0.  0.
         25    2    3    3    0    0  0.19887727196E+02 -0.35871228510E+02  0.47311091818E+03  0.49434712298E+03  0.13734216530E+03 0.  0.
          5    1    4    4  502    0  0.21284554852E+02 -0.24726617099E+02  0.21164965616E+02  0.39172485726E+02  0.47000000000E+01 0.  1.
         -5    1    4    4    0  502 -0.41172282048E+02  0.60597845609E+02  0.22312843304E+03  0.23489496234E+03  0.47000000000E+01 0.  1.
          5    1    5    5  503    0  0.68658192861E+02 -0.19046933394E+02  0.13924933206E+03  0.15649025400E+03  0.47000000000E+01 0.  1.
         -5    1    5    5    0  503 -0.48770465665E+02 -0.16824295116E+02  0.33386158613E+03  0.33785686898E+03  0.47000000000E+01 0.  1.
<mgrwt>
<rscale>  0 0.27530347E+03</rscale>
<asrwt>0</asrwt>
<pdfrwt beam="1">  1        2 0.11429374E+00 0.27530347E+03</pdfrwt>
<pdfrwt beam="2">  1       -2 0.39238663E-02 0.27530347E+03</pdfrwt>
<totfact> 0.10983942E+04</totfact>
</mgrwt>
</event>
<event>
 9    1  0.2114844E-002  0.2753329E+03  0.7818608E-02  0.1098266E+00
          2   -1    0    0  501    0  0.00000000000E+00  0.00000000000E+00  0.34434035998E+03  0.34434035998E+03  0.00000000000E+00 0.  1.
         -2   -1    0    0    0  501 -0.00000000000E+00 -0.00000000000E+00 -0.55038712292E+02  0.55038712292E+02  0.00000000000E+00 0.  1.
         36    2    1    2    0    0  0.00000000000E+00 -0.88817841970E-15  0.28930164769E+03  0.39937907228E+03  0.27533288945E+03 0.  0.
         25    2    3    3    0    0  0.13926944568E+02 -0.16880471917E+01  0.20810645965E+03  0.24713475816E+03  0.13255369046E+03 0.  0.
         25    2    3    3    0    0 -0.13926944568E+02  0.16880471917E+01  0.81195188039E+02  0.15224431412E+03  0.12801899598E+03 0.  0.
          5    1    4    4  502    0  0.48497576282E+02  0.59124418968E+00  0.20646054589E+03  0.21213300423E+03  0.47000000000E+01 0. -1.
         -5    1    4    4    0  502 -0.34570631715E+02 -0.22792913814E+01  0.16459137681E+01  0.35001753934E+02  0.47000000000E+01 0. -1.
          5    1    5    5  503    0  0.52797653764E+02  0.16442170918E+02  0.57113757593E+02  0.79636728548E+02  0.47000000000E+01 0.  1.
         -5    1    5    5    0  503 -0.66724598332E+02 -0.14754123727E+02  0.24081430446E+02  0.72607585567E+02  0.47000000000E+01 0.  1.
<mgrwt>
<rscale>  0 0.27533289E+03</rscale>
<asrwt>0</asrwt>
<pdfrwt beam="1">  1        2 0.52975439E-01 0.27533289E+03</pdfrwt>
<pdfrwt beam="2">  1       -2 0.84674944E-02 0.27533289E+03</pdfrwt>
<totfact> 0.80759998E+03</totfact>
</mgrwt>
</event>
<event>
 9    1  0.2114844E-002  0.2741947E+03  0.7818608E-02  0.1098903E+00
          1   -1    0    0  501    0  0.00000000000E+00  0.00000000000E+00  0.67322127377E+02  0.67322127377E+02  0.00000000000E+00 0.  1.
         -1   -1    0    0    0  501 -0.00000000000E+00 -0.00000000000E+00 -0.27919024637E+03  0.27919024637E+03  0.00000000000E+00 0.  1.
         36    2    1    2    0    0  0.00000000000E+00  0.71054273576E-14 -0.21186811899E+03  0.34651237374E+03  0.27419468506E+03 0.  0.
         25    2    3    3    0    0  0.24711671841E+02  0.22373563736E+02 -0.17300678561E+03  0.21759288104E+03  0.12768739535E+03 0.  0.
         25    2    3    3    0    0 -0.24711671841E+02 -0.22373563736E+02 -0.38861333375E+02  0.12891949271E+03  0.11831647936E+03 0.  0.
          5    1    4    4  502    0 -0.14049688767E+02  0.66237311859E+02 -0.61614268057E+02  0.91668878389E+02  0.47000000000E+01 0. -1.
         -5    1    4    4    0  502  0.38761360607E+02 -0.43863748124E+02 -0.11139251756E+03  0.12592400265E+03  0.47000000000E+01 0. -1.
          5    1    5    5  503    0  0.20768762997E+02  0.16761659084E+02 -0.59430524283E+02  0.65317470467E+02  0.47000000000E+01 0.  1.
         -5    1    5    5    0  503 -0.45480434838E+02 -0.39135222819E+02  0.20569190908E+02  0.63602022238E+02  0.47000000000E+01 0.  1.
<mgrwt>
<rscale>  0 0.27419469E+03</rscale>
<asrwt>0</asrwt>
<pdfrwt beam="1">  1        1 0.10357250E-01 0.27419469E+03</pdfrwt>
<pdfrwt beam="2">  1       -1 0.42952346E-01 0.27419469E+03</pdfrwt>
<totfact> 0.33078858E+03</totfact>
</mgrwt>
</event>
<event>
 9    1  0.2114844E-002  0.2746900E+03  0.7818608E-02  0.1098625E+00
         -1   -1    0    0    0  501 -0.00000000000E+00  0.00000000000E+00  0.52557351977E+02  0.52557351977E+02  0.00000000000E+00 0.  1.
          1   -1    0    0  501    0  0.00000000000E+00 -0.00000000000E+00 -0.35891553860E+03  0.35891553860E+03  0.00000000000E+00 0.  1.
         36    2    1    2    0    0  0.00000000000E+00  0.00000000000E+00 -0.30635818663E+03  0.41147289058E+03  0.27469000923E+03 0.  0.
         25    2    3    3    0    0  0.41163910775E+02  0.36419695481E+02 -0.14854528280E+03  0.20195407522E+03  0.12529519420E+03 0.  0.
         25    2    3    3    0    0 -0.41163910775E+02 -0.36419695481E+02 -0.15781290383E+03  0.20951881535E+03  0.12638180092E+03 0.  0.
          5    1    4    4  502    0 -0.21778997669E+02  0.57056870834E+02 -0.35360121604E+02  0.70726511639E+02  0.47000000000E+01 0.  1.
         -5    1    4    4    0  502  0.62942908444E+02 -0.20637175353E+02 -0.11318516119E+03  0.13122756359E+03  0.47000000000E+01 0.  1.
          5    1    5    5  503    0 -0.82321184443E+02 -0.46582819191E+02 -0.11651681968E+03  0.15014991083E+03  0.47000000000E+01 0.  1.
         -5    1    5    5    0  503  0.41157273668E+02  0.10163123709E+02 -0.41296084143E+02  0.59368904528E+02  0.47000000000E+01 0.  1.
<mgrwt>
<rscale>  0 0.27469001E+03</rscale>
<asrwt>0</asrwt>
<pdfrwt beam="1">  1        1 0.55217775E-01 0.27469001E+03</pdfrwt>
<pdfrwt beam="2">  1       -1 0.80857464E-02 0.27469001E+03</pdfrwt>
<totfact> 0.58654016E+03</totfact>
</mgrwt>
</event>
<event>
 9    1  0.2114844E-002  0.2750195E+03  0.7818608E-02  0.1098441E+00
         -2   -1    0    0    0  501 -0.00000000000E+00  0.00000000000E+00  0.16847764313E+02  0.16847764313E+02  0.00000000000E+00 0.  1.
          2   -1    0    0  501    0  0.00000000000E+00 -0.00000000000E+00 -0.11223408340E+04  0.11223408340E+04  0.00000000000E+00 0.  1.
         36    2    1    2    0    0 -0.71054273576E-14 -0.35527136788E-14 -0.11054930696E+04  0.11391885983E+04  0.27501951821E+03 0.  0.
         25    2    3    3    0    0  0.60831759512E+02 -0.35930861242E-01 -0.52831116312E+03  0.54636152970E+03  0.12529058945E+03 0.  0.
         25    2    3    3    0    0 -0.60831759512E+02  0.35930861242E-01 -0.57718190652E+03  0.59282706857E+03  0.12084897912E+03 0.  0.
          5    1    4    4  502    0  0.10280717724E+02  0.23671486605E+02 -0.15440059634E+02  0.30438756160E+02  0.47000000000E+01 0. -1.
         -5    1    4    4    0  502  0.50551041788E+02 -0.23707417467E+02 -0.51287110348E+03  0.51592277354E+03  0.47000000000E+01 0. -1.
          5    1    5    5  503    0 -0.36120497153E+02 -0.54818103265E+02 -0.40644168623E+03  0.41173614010E+03  0.47000000000E+01 0. -1.
         -5    1    5    5    0  503 -0.24711262359E+02  0.54854034126E+02 -0.17074022030E+03  0.18109092847E+03  0.47000000000E+01 0. -1.
<mgrwt>
<rscale>  0 0.27501952E+03</rscale>
<asrwt>0</asrwt>
<pdfrwt beam="1">  1        2 0.17266783E+00 0.27501952E+03</pdfrwt>
<pdfrwt beam="2">  1       -2 0.25919636E-02 0.27501952E+03</pdfrwt>
<totfact> 0.11652393E+04</totfact>
</mgrwt>
</event>
<event>
 9    1  0.2114844E-002  0.2734458E+03  0.7818608E-02  0.1099324E+00
          2   -1    0    0  501    0  0.00000000000E+00  0.00000000000E+00  0.28110039932E+04  0.28110039932E+04  0.00000000000E+00 0.  1.
         -2   -1    0    0    0  501 -0.00000000000E+00 -0.00000000000E+00 -0.66499917292E+01  0.66499917292E+01  0.00000000000E+00 0.  1.
         36    2    1    2    0    0 -0.17763568394E-14  0.14210854715E-13  0.28043540015E+04  0.28176539849E+04  0.27344581405E+03 0.  0.
         25    2    3    3    0    0  0.25713351145E+01 -0.71581438737E+02  0.15117960930E+04  0.15192660999E+04  0.13233117987E+03 0.  0.
         25    2    3    3    0    0 -0.25713351145E+01  0.71581438737E+02  0.12925579084E+04  0.12983878851E+04  0.99873115852E+02 0.  0.
          5    1    4    4  502    0  0.47308613705E+02 -0.45358967778E+02  0.33869582505E+03  0.34501085896E+03  0.47000000000E+01 0. -1.
         -5    1    4    4    0  502 -0.44737278591E+02 -0.26222470958E+02  0.11731002680E+04  0.11742552409E+04  0.47000000000E+01 0. -1.
          5    1    5    5  503    0 -0.11333420846E+02 -0.22683546857E+02  0.18629526742E+03  0.18807181179E+03  0.47000000000E+01 0.  1.
         -5    1    5    5    0  503  0.87620857313E+01  0.94264985593E+02  0.11062626410E+04  0.11103160733E+04  0.47000000000E+01 0.  1.
<mgrwt>
<rscale>  0 0.27344581E+03</rscale>
<asrwt>0</asrwt>
<pdfrwt beam="1">  1        2 0.43246120E+00 0.27344581E+03</pdfrwt>
<pdfrwt beam="2">  1       -2 0.10230779E-02 0.27344581E+03</pdfrwt>
<totfact> 0.55388210E+03</totfact>
</mgrwt>
</event>
<event>
 9    1  0.2114844E-002  0.2738483E+03  0.7818608E-02  0.1099097E+00
          1   -1    0    0  501    0  0.00000000000E+00  0.00000000000E+00  0.68164759892E+02  0.68164759892E+02  0.00000000000E+00 0. -1.
         -1   -1    0    0    0  501 -0.00000000000E+00 -0.00000000000E+00 -0.27504275869E+03  0.27504275869E+03  0.00000000000E+00 0. -1.
         36    2    1    2    0    0 -0.17763568394E-14 -0.14210854715E-13 -0.20687799880E+03  0.34320751858E+03  0.27384830550E+03 0.  0.
         25    2    3    3    0    0 -0.95729279869E+01 -0.35264957673E+02 -0.62366583898E+02  0.14407846748E+03  0.12463448887E+03 0.  0.
         25    2    3    3    0    0  0.95729279869E+01  0.35264957673E+02 -0.14451141490E+03  0.19912905110E+03  0.13203625171E+03 0.  0.
          5    1    4    4  502    0 -0.39207698861E+02  0.29300661721E+02  0.38662249860E+00  0.49173284456E+02  0.47000000000E+01 0.  1.
         -5    1    4    4    0  502  0.29634770874E+02 -0.64565619393E+02 -0.62753206396E+02  0.94905183027E+02  0.47000000000E+01 0.  1.
          5    1    5    5  503    0 -0.36557737294E+01 -0.49752729599E+02 -0.43484215992E+02  0.66345051244E+02  0.47000000000E+01 0.  1.
         -5    1    5    5    0  503  0.13228701716E+02  0.85017687272E+02 -0.10102719891E+03  0.13278399985E+03  0.47000000000E+01 0.  1.
<mgrwt>
<rscale>  0 0.27384831E+03</rscale>
<asrwt>0</asrwt>
<pdfrwt beam="1">  1        1 0.10486886E-01 0.27384831E+03</pdfrwt>
<pdfrwt beam="2">  1       -1 0.42314270E-01 0.27384831E+03</pdfrwt>
<totfact> 0.33416311E+03</totfact>
</mgrwt>
</event>
<event>
 9    1  0.2114844E-002  0.2754712E+03  0.7818608E-02  0.1098189E+00
         -2   -1    0    0    0  501 -0.00000000000E+00  0.00000000000E+00  0.14838358976E+03  0.14838358976E+03  0.00000000000E+00 0. -1.
          2   -1    0    0  501    0  0.00000000000E+00 -0.00000000000E+00 -0.12785169615E+03  0.12785169615E+03  0.00000000000E+00 0. -1.
         36    2    1    2    0    0 -0.71054273576E-14  0.00000000000E+00  0.20531893619E+02  0.27623528591E+03  0.27547118638E+03 0.  0.
         25    2    3    3    0    0 -0.28926711418E+02 -0.28289537805E+02  0.59009458983E+02  0.14318968349E+03  0.12403272401E+03 0.  0.
         25    2    3    3    0    0  0.28926711418E+02  0.28289537805E+02 -0.38477565363E+02  0.13304560242E+03  0.12076239773E+03 0.  0.
          5    1    4    4  502    0 -0.32061251902E+02 -0.74044737580E+02  0.53106702832E+02  0.96710697043E+02  0.47000000000E+01 0. -1.
         -5    1    4    4    0  502  0.31345404842E+01  0.45755199776E+02  0.59027561508E+01  0.46478986443E+02  0.47000000000E+01 0. -1.
          5    1    5    5  503    0 -0.23358197495E+02  0.48007186334E+02  0.14898943092E+02  0.55627006348E+02  0.47000000000E+01 0. -1.
         -5    1    5    5    0  503  0.52284908914E+02 -0.19717648529E+02 -0.53376508455E+02  0.77418596077E+02  0.47000000000E+01 0. -1.
<mgrwt>
<rscale>  0 0.27547119E+03</rscale>
<asrwt>0</asrwt>
<pdfrwt beam="1">  1        2 0.19669492E-01 0.27547119E+03</pdfrwt>
<pdfrwt beam="2">  1       -2 0.22828244E-01 0.27547119E+03</pdfrwt>
<totfact> 0.46957658E+03</totfact>
</mgrwt>
</event>
<event>
 9    1  0.2114844E-002  0.2699792E+03  0.7818608E-02  0.1101292E+00
          1   -1    0    0  501    0  0.00000000000E+00  0.00000000000E+00  0.22798703073E+04  0.22798703073E+04  0.00000000000E+00 0. -1.
         -1   -1    0    0    0  501 -0.00000000000E+00 -0.00000000000E+00 -0.79926446374E+01  0.79926446374E+01  0.00000000000E+00 0. -1.
         36    2    1    2    0    0  0.71054273576E-14  0.71054273576E-14  0.22718776627E+04  0.22878629520E+04  0.26997920798E+03 0.  0.
         25    2    3    3    0    0 -0.32517753769E+02 -0.26388373811E+02  0.12351025249E+04  0.12424860061E+04  0.12860590112E+03 0.  0.
         25    2    3    3    0    0  0.32517753769E+02  0.26388373811E+02  0.10367751378E+04  0.10453769459E+04  0.12710830809E+03 0.  0.
          5    1    4    4  502    0 -0.42884530179E+02 -0.64187165124E+02  0.10674828025E+04  0.10702806635E+04  0.47000000000E+01 0. -1.
         -5    1    4    4    0  502  0.10366776411E+02  0.37798791313E+02  0.16761972235E+03  0.17220534254E+03  0.47000000000E+01 0. -1.
          5    1    5    5  503    0  0.63417119126E+02 -0.27958428826E+02  0.62651108796E+03  0.63035040896E+03  0.47000000000E+01 0.  1.
         -5    1    5    5    0  503 -0.30899365357E+02  0.54346802637E+02  0.41026404989E+03  0.41502653694E+03  0.47000000000E+01 0.  1.
<mgrwt>
<rscale>  0 0.26997921E+03</rscale>
<asrwt>0</asrwt>
<pdfrwt beam="1">  1        1 0.35074876E+00 0.26997921E+03</pdfrwt>
<pdfrwt beam="2">  1       -1 0.12296395E-02 0.26997921E+03</pdfrwt>
<totfact> 0.30889591E+03</totfact>
</mgrwt>
</event>
<event>
 9    1  0.2114844E-002  0.2744159E+03  0.7818608E-02  0.1098779E+00
         -2   -1    0    0    0  501 -0.00000000000E+00  0.00000000000E+00  0.44068993239E+02  0.44068993239E+02  0.00000000000E+00 0.  1.
          2   -1    0    0  501    0  0.00000000000E+00 -0.00000000000E+00 -0.42719413876E+03  0.42719413876E+03  0.00000000000E+00 0.  1.
         36    2    1    2    0    0  0.28421709430E-13  0.00000000000E+00 -0.38312514552E+03  0.47126313200E+03  0.27441585678E+03 0.  0.
         25    2    3    3    0    0  0.55516584548E+02  0.21787045514E+02 -0.16305493879E+03  0.21341044511E+03  0.12409810033E+03 0.  0.
         25    2    3    3    0    0 -0.55516584548E+02 -0.21787045514E+02 -0.22007020673E+03  0.25785268689E+03  0.12041738136E+03 0.  0.
          5    1    4    4  502    0 -0.22565066007E+02 -0.27996647416E+02 -0.84254776517E+02  0.91727595828E+02  0.47000000000E+01 0.  1.
         -5    1    4    4    0  502  0.78081650556E+02  0.49783692929E+02 -0.78800162271E+02  0.12168284928E+03  0.47000000000E+01 0.  1.
          5    1    5    5  503    0  0.34653778694E+02  0.79620120320E+01 -0.36766383381E+02  0.51362777965E+02  0.47000000000E+01 0.  1.
         -5    1    5    5    0  503 -0.90170363243E+02 -0.29749057546E+02 -0.18330382335E+03  0.20648990893E+03  0.47000000000E+01 0.  1.
<mgrwt>
<rscale>  0 0.27441586E+03</rscale>
<asrwt>0</asrwt>
<pdfrwt beam="1">  1        2 0.65722173E-01 0.27441586E+03</pdfrwt>
<pdfrwt beam="2">  1       -2 0.67798454E-02 0.27441586E+03</pdfrwt>
<totfact> 0.90333155E+03</totfact>
</mgrwt>
</event>
<event>
 9    1  0.2114844E-002  0.2747401E+03  0.7818608E-02  0.1098597E+00
          2   -1    0    0  501    0  0.00000000000E+00  0.00000000000E+00  0.98431519753E+03  0.98431519753E+03  0.00000000000E+00 0.  1.
         -2   -1    0    0    0  501 -0.00000000000E+00 -0.00000000000E+00 -0.19171231137E+02  0.19171231137E+02  0.00000000000E+00 0.  1.
         36    2    1    2    0    0  0.35527136788E-14  0.00000000000E+00  0.96514396639E+03  0.10034864287E+04  0.27474012567E+03 0.  0.
         25    2    3    3    0    0 -0.13517530503E+02  0.86875846469E+01  0.29423767651E+03  0.32029289813E+03  0.12551307723E+03 0.  0.
         25    2    3    3    0    0  0.13517530503E+02 -0.86875846469E+01  0.67090628988E+03  0.68319353054E+03  0.12798418891E+03 0.  0.
          5    1    4    4  502    0  0.23371655739E+02 -0.46737064555E+02  0.18484134418E+03  0.19214317582E+03  0.47000000000E+01 0.  1.
         -5    1    4    4    0  502 -0.36889186242E+02  0.55424649202E+02  0.10939633233E+03  0.12814972231E+03  0.47000000000E+01 0.  1.
          5    1    5    5  503    0 -0.89552939029E+01 -0.28231335320E+02  0.33058861816E+02  0.44633887658E+02  0.47000000000E+01 0.  1.
         -5    1    5    5    0  503  0.22472824406E+02  0.19543750673E+02  0.63784742806E+03  0.63855964288E+03  0.47000000000E+01 0.  1.
<mgrwt>
<rscale>  0 0.27474013E+03</rscale>
<asrwt>0</asrwt>
<pdfrwt beam="1">  1        2 0.15143307E+00 0.27474013E+03</pdfrwt>
<pdfrwt beam="2">  1       -2 0.29494209E-02 0.27474013E+03</pdfrwt>
<totfact> 0.11635153E+04</totfact>
</mgrwt>
</event>
<event>
 9    1  0.2114844E-002  0.2748209E+03  0.7818608E-02  0.1098552E+00
          2   -1    0    0  501    0  0.00000000000E+00  0.00000000000E+00  0.36622424845E+04  0.36622424845E+04  0.00000000000E+00 0.  1.
         -2   -1    0    0    0  501 -0.00000000000E+00 -0.00000000000E+00 -0.51557552064E+01  0.51557552064E+01  0.00000000000E+00 0.  1.
         36    2    1    2    0    0 -0.14210854715E-13 -0.35527136788E-14  0.36570867293E+04  0.36673982397E+04  0.27482085624E+03 0.  0.
         25    2    3    3    0    0  0.56390443139E+02  0.17906679502E+02  0.19428356463E+04  0.19481116783E+04  0.13049226553E+03 0.  0.
         25    2    3    3    0    0 -0.56390443139E+02 -0.17906679502E+02  0.17142510830E+04  0.17192865614E+04  0.11742645965E+03 0.  0.
          5    1    4    4  502    0  0.43844765590E+01 -0.36291110573E+02  0.13519680852E+04  0.13524703552E+04  0.47000000000E+01 0.  1.
         -5    1    4    4    0  502  0.52005966580E+02  0.54197790075E+02  0.59086756108E+03  0.59564132307E+03  0.47000000000E+01 0.  1.
          5    1    5    5  503    0 -0.69869059008E+02 -0.36303497550E+02  0.64825491217E+03  0.65303610198E+03  0.47000000000E+01 0.  1.
         -5    1    5    5    0  503  0.13478615869E+02  0.18396818048E+02  0.10659961709E+04  0.10662504595E+04  0.47000000000E+01 0.  1.
<mgrwt>
<rscale>  0 0.27482086E+03</rscale>
<asrwt>0</asrwt>
<pdfrwt beam="1">  1        2 0.56341984E+00 0.27482086E+03</pdfrwt>
<pdfrwt beam="2">  1       -2 0.79319604E-03 0.27482086E+03</pdfrwt>
<totfact> 0.23501932E+03</totfact>
</mgrwt>
</event>
<event>
 9    1  0.2114844E-002  0.2752929E+03  0.7818608E-02  0.1098288E+00
         -2   -1    0    0    0  501 -0.00000000000E+00  0.00000000000E+00  0.27067972787E+02  0.27067972787E+02  0.00000000000E+00 0.  1.
          2   -1    0    0  501    0  0.00000000000E+00 -0.00000000000E+00 -0.69996172978E+03  0.69996172978E+03  0.00000000000E+00 0.  1.
         36    2    1    2    0    0  0.00000000000E+00 -0.71054273576E-14 -0.67289375699E+03  0.72702970256E+03  0.27529289895E+03 0.  0.
         25    2    3    3    0    0 -0.35274855945E+02  0.42481851719E+02 -0.27856515281E+03  0.31057693879E+03  0.12573968093E+03 0.  0.
         25    2    3    3    0    0  0.35274855945E+02 -0.42481851719E+02 -0.39432860418E+03  0.41645276377E+03  0.12201980656E+03 0.  0.
          5    1    4    4  502    0 -0.80562517911E+02  0.10459713031E+02 -0.17523434148E+03  0.19320685631E+03  0.47000000000E+01 0. -1.
         -5    1    4    4    0  502  0.45287661965E+02  0.32022138688E+02 -0.10333081133E+03  0.11737008248E+03  0.47000000000E+01 0. -1.
          5    1    5    5  503    0 -0.30364991340E+02 -0.54161943859E+02 -0.24604132076E+03  0.25379907483E+03  0.47000000000E+01 0. -1.
         -5    1    5    5    0  503  0.65639847285E+02  0.11680092140E+02 -0.14828728341E+03  0.16265368894E+03  0.47000000000E+01 0. -1.
<mgrwt>
<rscale>  0 0.27529290E+03</rscale>
<asrwt>0</asrwt>
<pdfrwt beam="1">  1        2 0.10768640E+00 0.27529290E+03</pdfrwt>
<pdfrwt beam="2">  1       -2 0.41643042E-02 0.27529290E+03</pdfrwt>
<totfact> 0.10804003E+04</totfact>
</mgrwt>
</event>
<event>
 9    1  0.2114844E-002  0.2659545E+03  0.7818608E-02  0.1103617E+00
          1   -1    0    0  501    0  0.00000000000E+00  0.00000000000E+00  0.49766191653E+02  0.49766191653E+02  0.00000000000E+00 0. -1.
         -1   -1    0    0    0  501 -0.00000000000E+00 -0.00000000000E+00 -0.35532061844E+03  0.35532061844E+03  0.00000000000E+00 0. -1.
         36    2    1    2    0    0  0.00000000000E+00  0.00000000000E+00 -0.30555442679E+03  0.40508681009E+03  0.26595453743E+03 0.  0.
         25    2    3    3    0    0  0.90477967210E+01  0.43353520839E+02 -0.11670152787E+03  0.17422141972E+03  0.12154203424E+03 0.  0.
         25    2    3    3    0    0 -0.90477967210E+01 -0.43353520839E+02 -0.18885289891E+03  0.23086539037E+03  0.12518794130E+03 0.  0.
          5    1    4    4  502    0  0.19497843618E+02 -0.52907619295E+01 -0.12219665263E+03  0.12394462465E+03  0.47000000000E+01 0.  1.
         -5    1    4    4    0  502 -0.10450046897E+02  0.48644282769E+02  0.54951247533E+01  0.50276795068E+02  0.47000000000E+01 0.  1.
          5    1    5    5  503    0 -0.63634940913E+02 -0.11523557079E+02 -0.12551377340E+03  0.14127276944E+03  0.47000000000E+01 0. -1.
         -5    1    5    5    0  503  0.54587144192E+02 -0.31829963760E+02 -0.63339125517E+02  0.89592620931E+02  0.47000000000E+01 0. -1.
<mgrwt>
<rscale>  0 0.26595454E+03</rscale>
<asrwt>0</asrwt>
<pdfrwt beam="1">  1        1 0.76563374E-02 0.26595454E+03</pdfrwt>
<pdfrwt beam="2">  1       -1 0.54664709E-01 0.26595454E+03</pdfrwt>
<totfact> 0.31922132E+03</totfact>
</mgrwt>
</event>
<event>
 9    1  0.2114844E-002  0.2801885E+03  0.7818608E-02  0.1095586E+00
         -3   -1    0    0    0  501 -0.00000000000E+00  0.00000000000E+00  0.66035675844E+03  0.66035675844E+03  0.00000000000E+00 0.  1.
          3   -1    0    0  501    0  0.00000000000E+00 -0.00000000000E+00 -0.29720898823E+02  0.29720898823E+02  0.00000000000E+00 0.  1.
         36    2    1    2    0    0  0.00000000000E+00  0.00000000000E+00  0.63063585962E+03  0.69007765726E+03  0.28018848231E+03 0.  0.
         25    2    3    3    0    0  0.42041871391E+02 -0.42269380232E+02  0.28809774396E+03  0.32067662191E+03  0.12758905248E+03 0.  0.
         25    2    3    3    0    0 -0.42041871391E+02  0.42269380232E+02  0.34253811566E+03  0.36940103535E+03  0.12478198902E+03 0.  0.
          5    1    4    4  502    0  0.23028065636E+02 -0.22411002534E+01 -0.50646878075E+01  0.24146540122E+02  0.47000000000E+01 0.  1.
         -5    1    4    4    0  502  0.19013805755E+02 -0.40028279978E+02  0.29316243177E+03  0.29653008179E+03  0.47000000000E+01 0.  1.
          5    1    5    5  503    0 -0.15678145298E+02  0.42403156666E+02  0.33940925722E+03  0.34243914178E+03  0.47000000000E+01 0.  1.
         -5    1    5    5    0  503 -0.26363726093E+02 -0.13377643455E+00  0.31288584335E+01  0.26961893567E+02  0.47000000000E+01 0.  1.
<mgrwt>
<rscale>  0 0.28018848E+03</rscale>
<asrwt>0</asrwt>
<pdfrwt beam="1">  1        3 0.45724465E-02 0.28018848E+03</pdfrwt>
<pdfrwt beam="2">  1       -3 0.10159334E+00 0.28018848E+03</pdfrwt>
<totfact> 0.58293705E+02</totfact>
</mgrwt>
</event>
<event>
 9    1  0.2114844E-002  0.2719787E+03  0.7818608E-02  0.1100152E+00
         -2   -1    0    0    0  501 -0.00000000000E+00  0.00000000000E+00  0.24594588122E+02  0.24594588122E+02  0.00000000000E+00 0.  1.
          2   -1    0    0  501    0  0.00000000000E+00 -0.00000000000E+00 -0.75191763784E+03  0.75191763784E+03  0.00000000000E+00 0.  1.
         36    2    1    2    0    0  0.35527136788E-14  0.35527136788E-14 -0.72732304972E+03  0.77651222596E+03  0.27197870949E+03 0.  0.
         25    2    3    3    0    0  0.24043616335E+02  0.21796333717E+02 -0.24598782213E+03  0.27811499359E+03  0.12563743617E+03 0.  0.
         25    2    3    3    0    0 -0.24043616335E+02 -0.21796333717E+02 -0.48133522758E+03  0.49839723238E+03  0.12515200469E+03 0.  0.
          5    1    4    4  502    0 -0.98190513749E+01  0.17004422027E+02 -0.24258770243E+03  0.24342647249E+03  0.47000000000E+01 0.  1.
         -5    1    4    4    0  502  0.33862667710E+02  0.47919116904E+01 -0.34001197089E+01  0.34688521100E+02  0.47000000000E+01 0.  1.
          5    1    5    5  503    0 -0.64398658514E+01 -0.73268116656E+02 -0.24552071839E+03  0.25634391342E+03  0.47000000000E+01 0.  1.
         -5    1    5    5    0  503 -0.17603750484E+02  0.51471782939E+02 -0.23581450920E+03  0.24205331895E+03  0.47000000000E+01 0.  1.
<mgrwt>
<rscale>  0 0.27197871E+03</rscale>
<asrwt>0</asrwt>
<pdfrwt beam="1">  1        2 0.11567963E+00 0.27197871E+03</pdfrwt>
<pdfrwt beam="2">  1       -2 0.37837831E-02 0.27197871E+03</pdfrwt>
<totfact> 0.11423080E+04</totfact>
</mgrwt>
</event>
<event>
 9    1  0.2114844E-002  0.2755736E+03  0.7818608E-02  0.1098131E+00
          2   -1    0    0  501    0  0.00000000000E+00  0.00000000000E+00  0.42630821077E+03  0.42630821077E+03  0.00000000000E+00 0. -1.
         -2   -1    0    0    0  501 -0.00000000000E+00 -0.00000000000E+00 -0.44533991679E+02  0.44533991679E+02  0.00000000000E+00 0. -1.
         36    2    1    2    0    0  0.00000000000E+00  0.35527136788E-14  0.38177421909E+03  0.47084220245E+03  0.27557362944E+03 0.  0.
         25    2    3    3    0    0  0.16379454306E+02 -0.39150013118E+01  0.29150165449E+03  0.31689139226E+03  0.12313945816E+03 0.  0.
         25    2    3    3    0    0 -0.16379454306E+02  0.39150013118E+01  0.90272564595E+02  0.15395081019E+03  0.12356416261E+03 0.  0.
          5    1    4    4  502    0 -0.26512573227E+02 -0.30381329594E+02  0.29851740064E+02  0.50390059653E+02  0.47000000000E+01 0. -1.
         -5    1    4    4    0  502  0.42892027533E+02  0.26466328282E+02  0.26164991443E+03  0.26650133260E+03  0.47000000000E+01 0. -1.
          5    1    5    5  503    0  0.24083337268E+02 -0.43112221902E+02  0.71437005356E+01  0.50117793933E+02  0.47000000000E+01 0.  1.
         -5    1    5    5    0  503 -0.40462791574E+02  0.47027223214E+02  0.83128864060E+02  0.10383301626E+03  0.47000000000E+01 0.  1.
<mgrwt>
<rscale>  0 0.27557363E+03</rscale>
<asrwt>0</asrwt>
<pdfrwt beam="1">  1        2 0.65585876E-01 0.27557363E+03</pdfrwt>
<pdfrwt beam="2">  1       -2 0.68513836E-02 0.27557363E+03</pdfrwt>
<totfact> 0.89095697E+03</totfact>
</mgrwt>
</event>
<event>
 9    1  0.2114844E-002  0.2747563E+03  0.7818608E-02  0.1098588E+00
         -1   -1    0    0    0  501 -0.00000000000E+00  0.00000000000E+00  0.50532079476E+02  0.50532079476E+02  0.00000000000E+00 0. -1.
          1   -1    0    0  501    0  0.00000000000E+00 -0.00000000000E+00 -0.37348058102E+03  0.37348058102E+03  0.00000000000E+00 0. -1.
         36    2    1    2    0    0  0.00000000000E+00 -0.35527136788E-14 -0.32294850155E+03  0.42401266050E+03  0.27475625855E+03 0.  0.
         25    2    3    3    0    0  0.56546595173E+02 -0.52284163879E+01 -0.18044857649E+03  0.22583656735E+03  0.12335158140E+03 0.  0.
         25    2    3    3    0    0 -0.56546595173E+02  0.52284163879E+01 -0.14249992506E+03  0.19817609315E+03  0.12546984295E+03 0.  0.
          5    1    4    4  502    0  0.17758642320E+02  0.55483461253E+02 -0.11208455376E+03  0.12640736150E+03  0.47000000000E+01 0. -1.
         -5    1    4    4    0  502  0.38787952853E+02 -0.60711877641E+02 -0.68364022723E+02  0.99429205850E+02  0.47000000000E+01 0. -1.
          5    1    5    5  503    0 -0.72106494901E+02  0.29894323911E+02 -0.33200451478E+02  0.84955148092E+02  0.47000000000E+01 0.  1.
         -5    1    5    5    0  503  0.15559899728E+02 -0.24665907523E+02 -0.10929947358E+03  0.11322094505E+03  0.47000000000E+01 0.  1.
<mgrwt>
<rscale>  0 0.27475626E+03</rscale>
<asrwt>0</asrwt>
<pdfrwt beam="1">  1        1 0.57458552E-01 0.27475626E+03</pdfrwt>
<pdfrwt beam="2">  1       -1 0.77741659E-02 0.27475626E+03</pdfrwt>
<totfact> 0.59206835E+03</totfact>
</mgrwt>
</event>
<event>
 9    1  0.2114844E-002  0.2750812E+03  0.7818608E-02  0.1098406E+00
          2   -1    0    0  501    0  0.00000000000E+00  0.00000000000E+00  0.10390952151E+03  0.10390952151E+03  0.00000000000E+00 0. -1.
         -2   -1    0    0    0  501 -0.00000000000E+00 -0.00000000000E+00 -0.18205657397E+03  0.18205657397E+03  0.00000000000E+00 0. -1.
         36    2    1    2    0    0  0.71054273576E-14  0.71054273576E-14 -0.78147052470E+02  0.28596609548E+03  0.27508116249E+03 0.  0.
         25    2    3    3    0    0  0.47893265213E+02  0.35059845430E+01 -0.13017313394E+02  0.13823516275E+03  0.12897074472E+03 0.  0.
         25    2    3    3    0    0 -0.47893265213E+02 -0.35059845430E+01 -0.65129739076E+02  0.14773093273E+03  0.12359809380E+03 0.  0.
          5    1    4    4  502    0  0.51534130458E+02  0.47894204279E+02 -0.44602287134E+02  0.83433059534E+02  0.47000000000E+01 0.  1.
         -5    1    4    4    0  502 -0.36408652443E+01 -0.44388219736E+02  0.31584973740E+02  0.54802103219E+02  0.47000000000E+01 0.  1.
          5    1    5    5  503    0 -0.37176151122E+02 -0.53495783440E+02 -0.70505231071E+02  0.96109014491E+02  0.47000000000E+01 0.  1.
         -5    1    5    5    0  503 -0.10717114092E+02  0.49989798897E+02  0.53754919953E+01  0.51621918236E+02  0.47000000000E+01 0.  1.
<mgrwt>
<rscale>  0 0.27508116E+03</rscale>
<asrwt>0</asrwt>
<pdfrwt beam="1">  1        2 0.15986081E-01 0.27508116E+03</pdfrwt>
<pdfrwt beam="2">  1       -2 0.28008703E-01 0.27508116E+03</pdfrwt>
<totfact> 0.41619667E+03</totfact>
</mgrwt>
</event>
<event>
 9    1  0.2114844E-002  0.2746899E+03  0.7818608E-02  0.1098625E+00
          2   -1    0    0  501    0  0.00000000000E+00  0.00000000000E+00  0.77984258560E+03  0.77984258560E+03  0.00000000000E+00 0. -1.
         -2   -1    0    0    0  501 -0.00000000000E+00 -0.00000000000E+00 -0.24189038163E+02  0.24189038163E+02  0.00000000000E+00 0. -1.
         36    2    1    2    0    0  0.71054273576E-14  0.00000000000E+00  0.75565354743E+03  0.80403162376E+03  0.27468994932E+03 0.  0.
         25    2    3    3    0    0 -0.30417057851E+02  0.20343691189E+02  0.43103202776E+03  0.45397005786E+03  0.13769946008E+03 0.  0.
         25    2    3    3    0    0  0.30417057851E+02 -0.20343691189E+02  0.32462151968E+03  0.35006156590E+03  0.12579708145E+03 0.  0.
          5    1    4    4  502    0 -0.66388502833E+02  0.15767968546E+01  0.98187127902E+02  0.11862850282E+03  0.47000000000E+01 0. -1.
         -5    1    4    4    0  502  0.35971444982E+02  0.18766894334E+02  0.33284489985E+03  0.33534155504E+03  0.47000000000E+01 0. -1.
          5    1    5    5  503    0 -0.42079508991E+02 -0.14617401668E+02  0.20623638746E+03  0.21104476070E+03  0.47000000000E+01 0. -1.
         -5    1    5    5    0  503  0.72496566842E+02 -0.57262895203E+01  0.11838513222E+03  0.13901680519E+03  0.47000000000E+01 0. -1.
<mgrwt>
<rscale>  0 0.27468995E+03</rscale>
<asrwt>0</asrwt>
<pdfrwt beam="1">  1        2 0.11997576E+00 0.27468995E+03</pdfrwt>
<pdfrwt beam="2">  1       -2 0.37213911E-02 0.27468995E+03</pdfrwt>
<totfact> 0.11193135E+04</totfact>
</mgrwt>
</event>
<event>
 9    1  0.2114844E-002  0.2714733E+03  0.7818608E-02  0.1100439E+00
          1   -1    0    0  501    0  0.00000000000E+00  0.00000000000E+00  0.56908572796E+02  0.56908572796E+02  0.00000000000E+00 0.  1.
         -1   -1    0    0    0  501 -0.00000000000E+00 -0.00000000000E+00 -0.32375506283E+03  0.32375506283E+03  0.00000000000E+00 0.  1.
         36    2    1    2    0    0  0.71054273576E-14  0.00000000000E+00 -0.26684649003E+03  0.38066363563E+03  0.27147330301E+03 0.  0.
         25    2    3    3    0    0  0.15335266141E+02  0.54806749845E+02 -0.11895184620E+03  0.18312726424E+03  0.12707125157E+03 0.  0.
         25    2    3    3    0    0 -0.15335266141E+02 -0.54806749845E+02 -0.14789464383E+03  0.19753637139E+03  0.11793575425E+03 0.  0.
          5    1    4    4  502    0 -0.27060511929E+02  0.13778113853E+02 -0.12006229169E+03  0.12393204434E+03  0.47000000000E+01 0. -1.
         -5    1    4    4    0  502  0.42395778070E+02  0.41028635992E+02  0.11104454949E+01  0.59195219897E+02  0.47000000000E+01 0. -1.
          5    1    5    5  503    0 -0.25481192147E+02 -0.67156764475E+02 -0.16098748663E+03  0.17634733630E+03  0.47000000000E+01 0.  1.
         -5    1    5    5    0  503  0.10145926006E+02  0.12350014630E+02  0.13092842792E+02  0.21189035095E+02  0.47000000000E+01 0.  1.
<mgrwt>
<rscale>  0 0.27147330E+03</rscale>
<asrwt>0</asrwt>
<pdfrwt beam="1">  1        1 0.87551652E-02 0.27147330E+03</pdfrwt>
<pdfrwt beam="2">  1       -1 0.49808471E-01 0.27147330E+03</pdfrwt>
<totfact> 0.31666889E+03</totfact>
</mgrwt>
</event>
<event>
 9    1  0.2114844E-002  0.2748351E+03  0.7818608E-02  0.1098544E+00
         -2   -1    0    0    0  501 -0.00000000000E+00  0.00000000000E+00  0.15121539685E+02  0.15121539685E+02  0.00000000000E+00 0.  1.
          2   -1    0    0  501    0  0.00000000000E+00 -0.00000000000E+00 -0.12487867807E+04  0.12487867807E+04  0.00000000000E+00 0.  1.
         36    2    1    2    0    0 -0.71054273576E-14  0.00000000000E+00 -0.12336652410E+04  0.12639083204E+04  0.27483506954E+03 0.  0.
         25    2    3    3    0    0 -0.26701959193E+02  0.45784058436E+02 -0.73178033098E+03  0.74404882883E+03  0.12368117174E+03 0.  0.
         25    2    3    3    0    0  0.26701959193E+02 -0.45784058436E+02 -0.50188491003E+03  0.51985949155E+03  0.12472471048E+03 0.  0.
          5    1    4    4  502    0  0.36886150143E+02  0.19242498706E+02 -0.51113392824E+03  0.51284582910E+03  0.47000000000E+01 0. -1.
         -5    1    4    4    0  502 -0.63588109336E+02  0.26541559730E+02 -0.22064640274E+03  0.23120299973E+03  0.47000000000E+01 0. -1.
          5    1    5    5  503    0  0.51474022932E+02 -0.22881532365E+02 -0.46939567596E+03  0.47278698182E+03  0.47000000000E+01 0. -1.
         -5    1    5    5    0  503 -0.24772063739E+02 -0.22902526071E+02 -0.32489234064E+02  0.47072509731E+02  0.47000000000E+01 0. -1.
<mgrwt>
<rscale>  0 0.27483507E+03</rscale>
<asrwt>0</asrwt>
<pdfrwt beam="1">  1        2 0.19212100E+00 0.27483507E+03</pdfrwt>
<pdfrwt beam="2">  1       -2 0.23263912E-02 0.27483507E+03</pdfrwt>
<totfact> 0.11578300E+04</totfact>
</mgrwt>
</event>
<event>
 9    1  0.2114844E-002  0.2779687E+03  0.7818608E-02  0.1096804E+00
          1   -1    0    0  501    0  0.00000000000E+00  0.00000000000E+00  0.15794211246E+03  0.15794211246E+03  0.00000000000E+00 0.  1.
         -1   -1    0    0    0  501 -0.00000000000E+00 -0.00000000000E+00 -0.12230208133E+03  0.12230208133E+03  0.00000000000E+00 0.  1.
         36    2    1    2    0    0  0.00000000000E+00 -0.71054273576E-14  0.35640031138E+02  0.28024419379E+03  0.27796869668E+03 0.  0.
         25    2    3    3    0    0 -0.26615512257E+02  0.62347630894E+02  0.19206166212E+02  0.14308754372E+03  0.12453736699E+03 0.  0.
         25    2    3    3    0    0  0.26615512257E+02 -0.62347630894E+02  0.16433864926E+02  0.13715665007E+03  0.11809429356E+03 0.  0.
          5    1    4    4  502    0  0.14978654642E+02  0.76108806536E+02 -0.24043594498E+02  0.81345528234E+02  0.47000000000E+01 0. -1.
         -5    1    4    4    0  502 -0.41594166898E+02 -0.13761175642E+02  0.43249760711E+02  0.61742015488E+02  0.47000000000E+01 0. -1.
          5    1    5    5  503    0 -0.40113244920E+01 -0.26467916042E+02 -0.49190425843E+02  0.56199904790E+02  0.47000000000E+01 0. -1.
         -5    1    5    5    0  503  0.30626836749E+02 -0.35879714852E+02  0.65624290768E+02  0.80956745277E+02  0.47000000000E+01 0. -1.
<mgrwt>
<rscale>  0 0.27796870E+03</rscale>
<asrwt>0</asrwt>
<pdfrwt beam="1">  1        1 0.24298787E-01 0.27796870E+03</pdfrwt>
<pdfrwt beam="2">  1       -1 0.18815705E-01 0.27796870E+03</pdfrwt>
<totfact> 0.43961123E+03</totfact>
</mgrwt>
</event>
<event>
 9    1  0.2114844E-002  0.2747893E+03  0.7818608E-02  0.1098569E+00
         -2   -1    0    0    0  501 -0.00000000000E+00  0.00000000000E+00  0.10163941434E+02  0.10163941434E+02  0.00000000000E+00 0.  1.
          2   -1    0    0  501    0  0.00000000000E+00 -0.00000000000E+00 -0.18572804436E+04  0.18572804436E+04  0.00000000000E+00 0.  1.
         36    2    1    2    0    0  0.00000000000E+00  0.00000000000E+00 -0.18471165022E+04  0.18674443850E+04  0.27478929860E+03 0.  0.
         25    2    3    3    0    0  0.37673332141E+02  0.16762980796E+02 -0.11927124866E+04  0.12001762901E+04  0.12712109990E+03 0.  0.
         25    2    3    3    0    0 -0.37673332141E+02 -0.16762980796E+02 -0.65440401555E+03  0.66726809496E+03  0.12370051539E+03 0.  0.
          5    1    4    4  502    0 -0.46073480685E+01 -0.45975334756E+02 -0.71308198122E+03  0.71459286381E+03  0.47000000000E+01 0.  1.
         -5    1    4    4    0  502  0.42280680209E+02  0.62738315552E+02 -0.47963050541E+03  0.48558342628E+03  0.47000000000E+01 0.  1.
          5    1    5    5  503    0 -0.37010496199E+02 -0.20214426336E+02 -0.63722789109E+02  0.76557714914E+02  0.47000000000E+01 0.  1.
         -5    1    5    5    0  503 -0.66283594191E+00  0.34514455407E+01 -0.59068122644E+03  0.59071038005E+03  0.47000000000E+01 0.  1.
<mgrwt>
<rscale>  0 0.27478930E+03</rscale>
<asrwt>0</asrwt>
<pdfrwt beam="1">  1        2 0.28573543E+00 0.27478930E+03</pdfrwt>
<pdfrwt beam="2">  1       -2 0.15636834E-02 0.27478930E+03</pdfrwt>
<totfact> 0.98021517E+03</totfact>
</mgrwt>
</event>
<event>
 9    1  0.2114844E-002  0.2748754E+03  0.7818608E-02  0.1098521E+00
         -2   -1    0    0    0  501 -0.00000000000E+00  0.00000000000E+00  0.31886471415E+03  0.31886471415E+03  0.00000000000E+00 0.  1.
          2   -1    0    0  501    0  0.00000000000E+00 -0.00000000000E+00 -0.59238651035E+02  0.59238651035E+02  0.00000000000E+00 0.  1.
         36    2    1    2    0    0  0.00000000000E+00  0.00000000000E+00  0.25962606312E+03  0.37810336519E+03  0.27487535742E+03 0.  0.
         25    2    3    3    0    0 -0.21360198481E+02  0.10801295789E+02  0.80316858769E+02  0.15455264799E+03  0.12985683320E+03 0.  0.
         25    2    3    3    0    0  0.21360198481E+02 -0.10801295789E+02  0.17930920435E+03  0.22355071720E+03  0.13134004083E+03 0.  0.
          5    1    4    4  502    0  0.51006617552E+02  0.19303863263E+02  0.15433208167E+02  0.56873439190E+02  0.47000000000E+01 0. -1.
         -5    1    4    4    0  502 -0.72366816033E+02 -0.85025674738E+01  0.64883650602E+02  0.97679208800E+02  0.47000000000E+01 0. -1.
          5    1    5    5  503    0  0.47433949711E+02 -0.26291982396E+01  0.60887542718E+01  0.48125411138E+02  0.47000000000E+01 0. -1.
         -5    1    5    5    0  503 -0.26073751230E+02 -0.81720975496E+01  0.17322045008E+03  0.17542530606E+03  0.47000000000E+01 0. -1.
<mgrwt>
<rscale>  0 0.27487536E+03</rscale>
<asrwt>0</asrwt>
<pdfrwt beam="1">  1        2 0.91136388E-02 0.27487536E+03</pdfrwt>
<pdfrwt beam="2">  1       -2 0.49056109E-01 0.27487536E+03</pdfrwt>
<totfact> 0.28639327E+03</totfact>
</mgrwt>
</event>
<event>
 9    1  0.2114844E-002  0.2746556E+03  0.7818608E-02  0.1098644E+00
         -1   -1    0    0    0  501 -0.00000000000E+00  0.00000000000E+00  0.68641349056E+02  0.68641349056E+02  0.00000000000E+00 0. -1.
          1   -1    0    0  501    0  0.00000000000E+00 -0.00000000000E+00 -0.27474576919E+03  0.27474576919E+03  0.00000000000E+00 0. -1.
         36    2    1    2    0    0  0.00000000000E+00  0.35527136788E-14 -0.20610442014E+03  0.34338711825E+03  0.27465556790E+03 0.  0.
         25    2    3    3    0    0  0.48288448156E+02  0.99916651758E+01 -0.67630870649E+02  0.14988154275E+03  0.12433396396E+03 0.  0.
         25    2    3    3    0    0 -0.48288448156E+02 -0.99916651758E+01 -0.13847354949E+03  0.19350557550E+03  0.12584862433E+03 0.  0.
          5    1    4    4  502    0 -0.10680133002E+02  0.37720134759E+02 -0.74371740830E+02  0.84202848178E+02  0.47000000000E+01 0. -1.
         -5    1    4    4    0  502  0.58968581158E+02 -0.27728469584E+02  0.67408701817E+01  0.65678694567E+02  0.47000000000E+01 0. -1.
          5    1    5    5  503    0 -0.65730429218E+01  0.52413680368E+02 -0.28309433177E+02  0.60115828113E+02  0.47000000000E+01 0. -1.
         -5    1    5    5    0  503 -0.41715405234E+02 -0.62405345544E+02 -0.11016411631E+03  0.13338974739E+03  0.47000000000E+01 0. -1.
<mgrwt>
<rscale>  0 0.27465557E+03</rscale>
<asrwt>0</asrwt>
<pdfrwt beam="1">  1        1 0.42268579E-01 0.27465557E+03</pdfrwt>
<pdfrwt beam="2">  1       -1 0.10560208E-01 0.27465557E+03</pdfrwt>
<totfact> 0.54475220E+03</totfact>
</mgrwt>
</event>
<event>
 9    1  0.2114844E-002  0.2758456E+03  0.7818608E-02  0.1097980E+00
         -1   -1    0    0    0  501 -0.00000000000E+00  0.00000000000E+00  0.14893337559E+02  0.14893337559E+02  0.00000000000E+00 0. -1.
          1   -1    0    0  501    0  0.00000000000E+00 -0.00000000000E+00 -0.12772621875E+04  0.12772621875E+04  0.00000000000E+00 0. -1.
         36    2    1    2    0    0  0.00000000000E+00  0.71054273576E-14 -0.12623688500E+04  0.12921555251E+04  0.27584558659E+03 0.  0.
         25    2    3    3    0    0  0.71192890804E+01  0.57861836616E+02 -0.58807638438E+03  0.60394893378E+03  0.12458653357E+03 0.  0.
         25    2    3    3    0    0 -0.71192890804E+01 -0.57861836616E+02 -0.67429246558E+03  0.68820659129E+03  0.12473695019E+03 0.  0.
          5    1    4    4  502    0  0.48321616470E+02  0.75747290060E+02 -0.33483086103E+03  0.34670798385E+03  0.47000000000E+01 0. -1.
         -5    1    4    4    0  502 -0.41202327390E+02 -0.17885453444E+02 -0.25324552335E+03  0.25724094993E+03  0.47000000000E+01 0. -1.
          5    1    5    5  503    0  0.46444418028E+02 -0.54053794741E+02 -0.51753678744E+03  0.52244168387E+03  0.47000000000E+01 0. -1.
         -5    1    5    5    0  503 -0.53563707109E+02 -0.38080418751E+01 -0.15675567814E+03  0.16576490741E+03  0.47000000000E+01 0. -1.
<mgrwt>
<rscale>  0 0.27584559E+03</rscale>
<asrwt>0</asrwt>
<pdfrwt beam="1">  1        1 0.19650185E+00 0.27584559E+03</pdfrwt>
<pdfrwt beam="2">  1       -1 0.22912830E-02 0.27584559E+03</pdfrwt>
<totfact> 0.56812512E+03</totfact>
</mgrwt>
</event>
<event>
 9    1  0.2114844E-002  0.2746140E+03  0.7818608E-02  0.1098668E+00
         -2   -1    0    0    0  501 -0.00000000000E+00  0.00000000000E+00  0.88563383996E+01  0.88563383996E+01  0.00000000000E+00 0.  1.
          2   -1    0    0  501    0  0.00000000000E+00 -0.00000000000E+00 -0.21287822719E+04  0.21287822719E+04  0.00000000000E+00 0.  1.
         36    2    1    2    0    0 -0.17763568394E-14 -0.71054273576E-14 -0.21199259335E+04  0.21376386103E+04  0.27461402862E+03 0.  0.
         25    2    3    3    0    0  0.75076966647E+01 -0.54839318730E+02 -0.11144063110E+04  0.11228020406E+04  0.12537655264E+03 0.  0.
         25    2    3    3    0    0 -0.75076966647E+01  0.54839318730E+02 -0.10055196224E+04  0.10148365697E+04  0.12553818389E+03 0.  0.
          5    1    4    4  502    0 -0.23508915887E+02 -0.73689012530E+02 -0.99250089599E+03  0.99552140019E+03  0.47000000000E+01 0.  1.
         -5    1    4    4    0  502  0.31016612551E+02  0.18849693800E+02 -0.12190541506E+03  0.12728064044E+03  0.47000000000E+01 0.  1.
          5    1    5    5  503    0 -0.74185731691E+01  0.90461133825E+02 -0.51148811165E+03  0.51950017356E+03  0.47000000000E+01 0.  1.
         -5    1    5    5    0  503 -0.89123495619E-01 -0.35621815095E+02 -0.49403151079E+03  0.49533639610E+03  0.47000000000E+01 0.  1.
<mgrwt>
<rscale>  0 0.27461403E+03</rscale>
<asrwt>0</asrwt>
<pdfrwt beam="1">  1        2 0.32750571E+00 0.27461403E+03</pdfrwt>
<pdfrwt beam="2">  1       -2 0.13625105E-02 0.27461403E+03</pdfrwt>
<totfact> 0.86269000E+03</totfact>
</mgrwt>
</event>
<event>
 9    1  0.2114844E-002  0.2754044E+03  0.7818608E-02  0.1098226E+00
         -2   -1    0    0    0  501 -0.00000000000E+00  0.00000000000E+00  0.20038614676E+02  0.20038614676E+02  0.00000000000E+00 0. -1.
          2   -1    0    0  501    0  0.00000000000E+00 -0.00000000000E+00 -0.94626803550E+03  0.94626803550E+03  0.00000000000E+00 0. -1.
         36    2    1    2    0    0  0.00000000000E+00  0.00000000000E+00 -0.92622942082E+03  0.96630665017E+03  0.27540443383E+03 0.  0.
         25    2    3    3    0    0 -0.39472297643E+02  0.29620309429E+02 -0.36813015899E+03  0.39165171724E+03  0.12424101035E+03 0.  0.
         25    2    3    3    0    0  0.39472297643E+02 -0.29620309429E+02 -0.55809926184E+03  0.57465493293E+03  0.12774224387E+03 0.  0.
          5    1    4    4  502    0 -0.51614478289E+02 -0.24143196450E+02 -0.80428212922E+02  0.98679966243E+02  0.47000000000E+01 0. -1.
         -5    1    4    4    0  502  0.12142180646E+02  0.53763505880E+02 -0.28770194606E+03  0.29297175100E+03  0.47000000000E+01 0. -1.
          5    1    5    5  503    0  0.41827834553E+02 -0.58458855120E+02 -0.52706574819E+03  0.53196559889E+03  0.47000000000E+01 0. -1.
         -5    1    5    5    0  503 -0.23555369107E+01  0.28838545691E+02 -0.31033513642E+02  0.42689334039E+02  0.47000000000E+01 0. -1.
<mgrwt>
<rscale>  0 0.27540443E+03</rscale>
<asrwt>0</asrwt>
<pdfrwt beam="1">  1        2 0.14557967E+00 0.27540443E+03</pdfrwt>
<pdfrwt beam="2">  1       -2 0.30828643E-02 0.27540443E+03</pdfrwt>
<totfact> 0.11505557E+04</totfact>
</mgrwt>
</event>
<event>
 9    1  0.2114844E-002  0.2745756E+03  0.7818608E-02  0.1098689E+00
          4   -1    0    0  501    0  0.00000000000E+00  0.00000000000E+00  0.53410801968E+02  0.53410801968E+02  0.00000000000E+00 0.  1.
         -4   -1    0    0    0  501 -0.00000000000E+00 -0.00000000000E+00 -0.35288640180E+03  0.35288640180E+03  0.00000000000E+00 0.  1.
         36    2    1    2    0    0 -0.35527136788E-14  0.71054273576E-14 -0.29947559983E+03  0.40629720377E+03  0.27457564148E+03 0.  0.
         25    2    3    3    0    0  0.49731472288E+01  0.46235076738E+02 -0.10078422783E+03  0.16579151614E+03  0.12315417870E+03 0.  0.
         25    2    3    3    0    0 -0.49731472288E+01 -0.46235076738E+02 -0.19869137200E+03  0.24050568763E+03  0.12728829467E+03 0.  0.
          5    1    4    4  502    0  0.91729023417E+01  0.27145441225E+02 -0.12839510238E+03  0.13163741653E+03  0.47000000000E+01 0. -1.
         -5    1    4    4    0  502 -0.41997551130E+01  0.19089635513E+02  0.27610874545E+02  0.34154099610E+02  0.47000000000E+01 0. -1.
          5    1    5    5  503    0 -0.57339252708E+02  0.43784670685E+01 -0.12018732153E+03  0.13331932768E+03  0.47000000000E+01 0.  1.
         -5    1    5    5    0  503  0.52366105480E+02 -0.50613543807E+02 -0.78504050469E+02  0.10718635995E+03  0.47000000000E+01 0.  1.
<mgrwt>
<rscale>  0 0.27457564E+03</rscale>
<asrwt>0</asrwt>
<pdfrwt beam="1">  1        4 0.82170463E-02 0.27457564E+03</pdfrwt>
<pdfrwt beam="2">  1       -4 0.54290217E-01 0.27457564E+03</pdfrwt>
<totfact> 0.64748658E+02</totfact>
</mgrwt>
</event>
<event>
 9    1  0.2114844E-002  0.2750554E+03  0.7818608E-02  0.1098421E+00
          1   -1    0    0  501    0  0.00000000000E+00  0.00000000000E+00  0.87173507368E+02  0.87173507368E+02  0.00000000000E+00 0. -1.
         -1   -1    0    0    0  501 -0.00000000000E+00 -0.00000000000E+00 -0.21696814847E+03  0.21696814847E+03  0.00000000000E+00 0. -1.
         36    2    1    2    0    0 -0.14210854715E-13 -0.71054273576E-14 -0.12979464111E+03  0.30414165584E+03  0.27505544524E+03 0.  0.
         25    2    3    3    0    0 -0.45874776128E+02 -0.46211924103E+02 -0.78168919823E+02  0.15968637726E+03  0.12308258221E+03 0.  0.
         25    2    3    3    0    0  0.45874776128E+02  0.46211924103E+02 -0.51625721283E+02  0.14445527858E+03  0.11816122629E+03 0.  0.
          5    1    4    4  502    0 -0.49772925915E+02 -0.83431063146E+02 -0.37559198279E+02  0.10426346353E+03  0.47000000000E+01 0. -1.
         -5    1    4    4    0  502  0.38981497862E+01  0.37219139043E+02 -0.40609721545E+02  0.55422913734E+02  0.47000000000E+01 0. -1.
          5    1    5    5  503    0 -0.13510482774E+02  0.64601959759E+02 -0.48488360085E+02  0.82031441613E+02  0.47000000000E+01 0. -1.
         -5    1    5    5    0  503  0.59385258902E+02 -0.18390035656E+02 -0.31373611984E+01  0.62423836966E+02  0.47000000000E+01 0. -1.
<mgrwt>
<rscale>  0 0.27505545E+03</rscale>
<asrwt>0</asrwt>
<pdfrwt beam="1">  1        1 0.13411309E-01 0.27505545E+03</pdfrwt>
<pdfrwt beam="2">  1       -1 0.33379715E-01 0.27505545E+03</pdfrwt>
<totfact> 0.36549310E+03</totfact>
</mgrwt>
</event>
<event>
 9    1  0.2114844E-002  0.2744887E+03  0.7818608E-02  0.1098738E+00
          1   -1    0    0  501    0  0.00000000000E+00  0.00000000000E+00  0.65233466544E+03  0.65233466544E+03  0.00000000000E+00 0.  1.
         -1   -1    0    0    0  501 -0.00000000000E+00 -0.00000000000E+00 -0.28874768075E+02  0.28874768075E+02  0.00000000000E+00 0.  1.
         36    2    1    2    0    0  0.00000000000E+00  0.00000000000E+00  0.62345989737E+03  0.68120943352E+03  0.27448870412E+03 0.  0.
         25    2    3    3    0    0 -0.81127811350E+01 -0.32706252414E+02  0.36029636705E+03  0.38369477869E+03  0.12756447358E+03 0.  0.
         25    2    3    3    0    0  0.81127811350E+01  0.32706252414E+02  0.26316353032E+03  0.29751465483E+03  0.13462692890E+03 0.  0.
          5    1    4    4  502    0 -0.60017945895E+02  0.10306225515E+02  0.12898647343E+03  0.14271640565E+03  0.47000000000E+01 0.  1.
         -5    1    4    4    0  502  0.51905164760E+02 -0.43012477929E+02  0.23130989363E+03  0.24097837305E+03  0.47000000000E+01 0.  1.
          5    1    5    5  503    0  0.25255723092E+02 -0.48064195582E+02  0.83241166783E+02  0.99494724952E+02  0.47000000000E+01 0. -1.
         -5    1    5    5    0  503 -0.17142941957E+02  0.80770447996E+02  0.17992236354E+03  0.19801992988E+03  0.47000000000E+01 0. -1.
<mgrwt>
<rscale>  0 0.27448870E+03</rscale>
<asrwt>0</asrwt>
<pdfrwt beam="1">  1        1 0.10035917E+00 0.27448870E+03</pdfrwt>
<pdfrwt beam="2">  1       -1 0.44422725E-02 0.27448870E+03</pdfrwt>
<totfact> 0.65447562E+03</totfact>
</mgrwt>
</event>
<event>
 9    1  0.2114844E-002  0.2750514E+03  0.7818608E-02  0.1098423E+00
          2   -1    0    0  501    0  0.00000000000E+00  0.00000000000E+00  0.14801496245E+04  0.14801496245E+04  0.00000000000E+00 0. -1.
         -2   -1    0    0    0  501 -0.00000000000E+00 -0.00000000000E+00 -0.12777977370E+02  0.12777977370E+02  0.00000000000E+00 0. -1.
         36    2    1    2    0    0  0.00000000000E+00  0.00000000000E+00  0.14673716472E+04  0.14929276019E+04  0.27505140179E+03 0.  0.
         25    2    3    3    0    0  0.34684754949E+02 -0.10921439741E+02  0.54589073296E+03  0.56259317609E+03  0.13111856994E+03 0.  0.
         25    2    3    3    0    0 -0.34684754949E+02  0.10921439741E+02  0.92148091420E+03  0.93033442580E+03  0.12277116329E+03 0.  0.
          5    1    4    4  502    0 -0.28689955128E+02  0.38333838658E+02  0.12198411334E+03  0.13112898466E+03  0.47000000000E+01 0. -1.
         -5    1    4    4    0  502  0.63374710077E+02 -0.49255278400E+02  0.42390661962E+03  0.43146419143E+03  0.47000000000E+01 0. -1.
          5    1    5    5  503    0 -0.58195498789E+02 -0.40664796294E+02  0.51681262480E+03  0.52168737850E+03  0.47000000000E+01 0. -1.
         -5    1    5    5    0  503  0.23510743840E+02  0.51586236035E+02  0.40466828940E+03  0.40864704731E+03  0.47000000000E+01 0. -1.
<mgrwt>
<rscale>  0 0.27505140E+03</rscale>
<asrwt>0</asrwt>
<pdfrwt beam="1">  1        2 0.22771519E+00 0.27505140E+03</pdfrwt>
<pdfrwt beam="2">  1       -2 0.19658438E-02 0.27505140E+03</pdfrwt>
<totfact> 0.11087409E+04</totfact>
</mgrwt>
</event>
<event>
 9    1  0.2114844E-002  0.2740611E+03  0.7818608E-02  0.1098978E+00
          2   -1    0    0  501    0  0.00000000000E+00  0.00000000000E+00  0.79647930201E+03  0.79647930201E+03  0.00000000000E+00 0.  1.
         -2   -1    0    0    0  501 -0.00000000000E+00 -0.00000000000E+00 -0.23575475097E+02  0.23575475097E+02  0.00000000000E+00 0.  1.
         36    2    1    2    0    0 -0.35527136788E-14 -0.71054273576E-14  0.77290382691E+03  0.82005477711E+03  0.27406114610E+03 0.  0.
         25    2    3    3    0    0  0.31808675942E+02  0.33769347281E+02  0.46039803160E+03  0.47992521544E+03  0.12731733674E+03 0.  0.
         25    2    3    3    0    0 -0.31808675942E+02 -0.33769347281E+02  0.31250579531E+03  0.34012956167E+03  0.12600034101E+03 0.  0.
          5    1    4    4  502    0  0.65987598225E+02 -0.30827689878E+01  0.37434490914E+03  0.38015795084E+03  0.47000000000E+01 0.  1.
         -5    1    4    4    0  502 -0.34178922283E+02  0.36852116269E+02  0.86053122460E+02  0.99767264606E+02  0.47000000000E+01 0.  1.
          5    1    5    5  503    0  0.19617610071E+02  0.13953075772E+02  0.54508280612E+01  0.25126489507E+02  0.47000000000E+01 0.  1.
         -5    1    5    5    0  503 -0.51426286014E+02 -0.47722423052E+02  0.30705496725E+03  0.31500307216E+03  0.47000000000E+01 0.  1.
<mgrwt>
<rscale>  0 0.27406115E+03</rscale>
<asrwt>0</asrwt>
<pdfrwt beam="1">  1        2 0.12253526E+00 0.27406115E+03</pdfrwt>
<pdfrwt beam="2">  1       -2 0.36269968E-02 0.27406115E+03</pdfrwt>
<totfact> 0.11325089E+04</totfact>
</mgrwt>
</event>
<event>
 9    1  0.2114844E-002  0.2747996E+03  0.7818608E-02  0.1098564E+00
          4   -1    0    0  501    0  0.00000000000E+00  0.00000000000E+00  0.22209548279E+03  0.22209548279E+03  0.00000000000E+00 0.  1.
         -4   -1    0    0    0  501 -0.00000000000E+00 -0.00000000000E+00 -0.85002639081E+02  0.85002639081E+02  0.00000000000E+00 0.  1.
         36    2    1    2    0    0  0.35527136788E-14 -0.53290705182E-14  0.13709284371E+03  0.30709812187E+03  0.27479957908E+03 0.  0.
         25    2    3    3    0    0 -0.80985692685E+01  0.75633288200E+01  0.84654868637E+02  0.16379847193E+03  0.13978806049E+03 0.  0.
         25    2    3    3    0    0  0.80985692685E+01 -0.75633288200E+01  0.52437975074E+02  0.14329964994E+03  0.13289942693E+03 0.  0.
          5    1    4    4  502    0  0.16601314753E+02  0.66033972296E+02  0.71423814255E+02  0.98790386129E+02  0.47000000000E+01 0.  1.
         -5    1    4    4    0  502 -0.24699884022E+02 -0.58470643476E+02  0.13231054382E+02  0.65008085799E+02  0.47000000000E+01 0.  1.
          5    1    5    5  503    0  0.66867763568E+02 -0.97503966316E+01  0.50106396767E+02  0.84256210667E+02  0.47000000000E+01 0. -1.
         -5    1    5    5    0  503 -0.58769194300E+02  0.21870678116E+01  0.23315783075E+01  0.59043439277E+02  0.47000000000E+01 0. -1.
<mgrwt>
<rscale>  0 0.27479958E+03</rscale>
<asrwt>0</asrwt>
<pdfrwt beam="1">  1        4 0.34168536E-01 0.27479958E+03</pdfrwt>
<pdfrwt beam="2">  1       -4 0.13077329E-01 0.27479958E+03</pdfrwt>
<totfact> 0.74378003E+02</totfact>
</mgrwt>
</event>
<event>
 9    1  0.2114844E-002  0.2761711E+03  0.7818608E-02  0.1097799E+00
         -1   -1    0    0    0  501 -0.00000000000E+00  0.00000000000E+00  0.24873163890E+03  0.24873163890E+03  0.00000000000E+00 0.  1.
          1   -1    0    0  501    0  0.00000000000E+00 -0.00000000000E+00 -0.76659384972E+02  0.76659384972E+02  0.00000000000E+00 0.  1.
         36    2    1    2    0    0  0.00000000000E+00  0.00000000000E+00  0.17207225393E+03  0.32539102387E+03  0.27617106627E+03 0.  0.
         25    2    3    3    0    0  0.16751818961E+02  0.36119231392E+02  0.13603189384E+03  0.18960696766E+03  0.12594007991E+03 0.  0.
         25    2    3    3    0    0 -0.16751818961E+02 -0.36119231392E+02  0.36040360086E+02  0.13578405621E+03  0.12471238933E+03 0.  0.
          5    1    4    4  502    0 -0.38444399082E+02 -0.20437667140E+02  0.84418461438E+02  0.95101191846E+02  0.47000000000E+01 0.  1.
         -5    1    4    4    0  502  0.55196218043E+02  0.56556898532E+02  0.51613432406E+02  0.94505775816E+02  0.47000000000E+01 0.  1.
          5    1    5    5  503    0  0.31093020839E+02 -0.60713113174E+02  0.43842499754E+02  0.81222612866E+02  0.47000000000E+01 0. -1.
         -5    1    5    5    0  503 -0.47844839800E+02  0.24593881782E+02 -0.78021396683E+01  0.54561443346E+02  0.47000000000E+01 0. -1.
<mgrwt>
<rscale>  0 0.27617107E+03</rscale>
<asrwt>0</asrwt>
<pdfrwt beam="1">  1        1 0.11793752E-01 0.27617107E+03</pdfrwt>
<pdfrwt beam="2">  1       -1 0.38266406E-01 0.27617107E+03</pdfrwt>
<totfact> 0.34160254E+03</totfact>
</mgrwt>
</event>
<event>
 9    1  0.2114844E-002  0.2762374E+03  0.7818608E-02  0.1097762E+00
         -1   -1    0    0    0  501 -0.00000000000E+00  0.00000000000E+00  0.17662119179E+03  0.17662119179E+03  0.00000000000E+00 0. -1.
          1   -1    0    0  501    0  0.00000000000E+00 -0.00000000000E+00 -0.10800951849E+03  0.10800951849E+03  0.00000000000E+00 0. -1.
         36    2    1    2    0    0  0.00000000000E+00  0.71054273576E-14  0.68611673295E+02  0.28463071028E+03  0.27623736084E+03 0.  0.
         25    2    3    3    0    0 -0.25250712085E+01 -0.58205336057E+02  0.24989817795E+02  0.13848934459E+03  0.12312826825E+03 0.  0.
         25    2    3    3    0    0  0.25250712085E+01  0.58205336057E+02  0.43621855500E+02  0.14614136569E+03  0.12672882607E+03 0.  0.
          5    1    4    4  502    0 -0.55878369467E+02 -0.49759583715E+02 -0.73930399155E+01  0.75333627185E+02  0.47000000000E+01 0.  1.
         -5    1    4    4    0  502  0.53353298258E+02 -0.84457523425E+01  0.32382857710E+02  0.63155717407E+02  0.47000000000E+01 0.  1.
          5    1    5    5  503    0 -0.37446070354E+02  0.13959237084E+02 -0.30792491079E+02  0.50668885835E+02  0.47000000000E+01 0.  1.
         -5    1    5    5    0  503  0.39971141562E+02  0.44246098973E+02  0.74414346580E+02  0.95472479852E+02  0.47000000000E+01 0.  1.
<mgrwt>
<rscale>  0 0.27623736E+03</rscale>
<asrwt>0</asrwt>
<pdfrwt beam="1">  1        1 0.16616849E-01 0.27623736E+03</pdfrwt>
<pdfrwt beam="2">  1       -1 0.27172491E-01 0.27623736E+03</pdfrwt>
<totfact> 0.39163424E+03</totfact>
</mgrwt>
</event>
<event>
 9    1  0.2114844E-002  0.2750957E+03  0.7818608E-02  0.1098398E+00
          1   -1    0    0  501    0  0.00000000000E+00  0.00000000000E+00  0.19402309617E+04  0.19402309617E+04  0.00000000000E+00 0.  1.
         -1   -1    0    0    0  501 -0.00000000000E+00 -0.00000000000E+00 -0.97511113240E+01  0.97511113240E+01  0.00000000000E+00 0.  1.
         36    2    1    2    0    0  0.00000000000E+00 -0.21316282073E-13  0.19304798503E+04  0.19499820730E+04  0.27509567864E+03 0.  0.
         25    2    3    3    0    0  0.17108880600E+02 -0.45419744057E+02  0.11211240059E+04  0.11293801557E+04  0.12737673422E+03 0.  0.
         25    2    3    3    0    0 -0.17108880600E+02  0.45419744057E+02  0.80935584440E+03  0.82060191730E+03  0.12639207597E+03 0.  0.
          5    1    4    4  502    0 -0.80498733799E+01  0.42084378683E+02  0.45682891371E+03  0.45885797562E+03  0.47000000000E+01 0. -1.
         -5    1    4    4    0  502  0.25158753980E+02 -0.87504122740E+02  0.66429509222E+03  0.67052218005E+03  0.47000000000E+01 0. -1.
          5    1    5    5  503    0 -0.32318993885E+02  0.77130364131E+02  0.35021188039E+03  0.36008896345E+03  0.47000000000E+01 0. -1.
         -5    1    5    5    0  503  0.15210113285E+02 -0.31710620074E+02  0.45914396401E+03  0.46051295385E+03  0.47000000000E+01 0. -1.
<mgrwt>
<rscale>  0 0.27509568E+03</rscale>
<asrwt>0</asrwt>
<pdfrwt beam="1">  1        1 0.29849676E+00 0.27509568E+03</pdfrwt>
<pdfrwt beam="2">  1       -1 0.15001725E-02 0.27509568E+03</pdfrwt>
<totfact> 0.38498760E+03</totfact>
</mgrwt>
</event>
<event>
 9    1  0.2114844E-002  0.2749769E+03  0.7818608E-02  0.1098464E+00
          2   -1    0    0  501    0  0.00000000000E+00  0.00000000000E+00  0.10398078475E+03  0.10398078475E+03  0.00000000000E+00 0.  1.
         -2   -1    0    0    0  501 -0.00000000000E+00 -0.00000000000E+00 -0.18179395223E+03  0.18179395223E+03  0.00000000000E+00 0.  1.
         36    2    1    2    0    0 -0.35527136788E-14  0.35527136788E-14 -0.77813167481E+02  0.28577473698E+03  0.27497692860E+03 0.  0.
         25    2    3    3    0    0 -0.40572410843E+01  0.28699441987E+02 -0.88393437890E+02  0.15550947212E+03  0.12461812421E+03 0.  0.
         25    2    3    3    0    0  0.40572410843E+01 -0.28699441987E+02  0.10580270409E+02  0.13026526486E+03  0.12655819978E+03 0.  0.
          5    1    4    4  502    0  0.43956511924E+02  0.34296063843E+01  0.77505744335E+01  0.45012204396E+02  0.47000000000E+01 0. -1.
         -5    1    4    4    0  502 -0.48013753009E+02  0.25269835603E+02 -0.96144012324E+02  0.11049726773E+03  0.47000000000E+01 0. -1.
          5    1    5    5  503    0 -0.30744338654E+02  0.70308568688E+01  0.54826739040E+02  0.63424826538E+02  0.47000000000E+01 0. -1.
         -5    1    5    5    0  503  0.34801579739E+02 -0.35730298856E+02 -0.44246468631E+02  0.66840438321E+02  0.47000000000E+01 0. -1.
<mgrwt>
<rscale>  0 0.27497693E+03</rscale>
<asrwt>0</asrwt>
<pdfrwt beam="1">  1        2 0.15997044E-01 0.27497693E+03</pdfrwt>
<pdfrwt beam="2">  1       -2 0.27968300E-01 0.27497693E+03</pdfrwt>
<totfact> 0.41693553E+03</totfact>
</mgrwt>
</event>
<event>
 9    1  0.2114844E-002  0.2754115E+03  0.7818608E-02  0.1098222E+00
          3   -1    0    0  501    0  0.00000000000E+00  0.00000000000E+00  0.66678212704E+02  0.66678212704E+02  0.00000000000E+00 0.  1.
         -3   -1    0    0    0  501 -0.00000000000E+00 -0.00000000000E+00 -0.28439377572E+03  0.28439377572E+03  0.00000000000E+00 0.  1.
         36    2    1    2    0    0 -0.71054273576E-14  0.00000000000E+00 -0.21771556302E+03  0.35107198843E+03  0.27541146432E+03 0.  0.
         25    2    3    3    0    0  0.36606695759E+02  0.49865971067E+02 -0.86057913131E+02  0.16057771516E+03  0.12063404557E+03 0.  0.
         25    2    3    3    0    0 -0.36606695759E+02 -0.49865971067E+02 -0.13165764989E+03  0.19049427327E+03  0.12299457764E+03 0.  0.
          5    1    4    4  502    0  0.19186470043E+02 -0.14178528467E+01  0.27959146948E+02  0.34262732487E+02  0.47000000000E+01 0.  1.
         -5    1    4    4    0  502  0.17420225716E+02  0.51283823914E+02 -0.11401706008E+03  0.12631498268E+03  0.47000000000E+01 0.  1.
          5    1    5    5  503    0 -0.59574512274E+02 -0.35026167979E+02 -0.14425423673E+03  0.16002290390E+03  0.47000000000E+01 0. -1.
         -5    1    5    5    0  503  0.22967816516E+02 -0.14839803088E+02  0.12596586843E+02  0.30471369370E+02  0.47000000000E+01 0. -1.
<mgrwt>
<rscale>  0 0.27541146E+03</rscale>
<asrwt>0</asrwt>
<pdfrwt beam="1">  1        3 0.10258187E-01 0.27541146E+03</pdfrwt>
<pdfrwt beam="2">  1       -3 0.43752889E-01 0.27541146E+03</pdfrwt>
<totfact> 0.93695493E+02</totfact>
</mgrwt>
</event>
<event>
 9    1  0.2114844E-002  0.2713621E+03  0.7818608E-02  0.1100503E+00
          2   -1    0    0  501    0  0.00000000000E+00  0.00000000000E+00  0.27063780491E+04  0.27063780491E+04  0.00000000000E+00 0.  1.
         -2   -1    0    0    0  501 -0.00000000000E+00 -0.00000000000E+00 -0.68022102168E+01  0.68022102168E+01  0.00000000000E+00 0.  1.
         36    2    1    2    0    0  0.00000000000E+00  0.00000000000E+00  0.26995758389E+04  0.27131802594E+04  0.27136213749E+03 0.  0.
         25    2    3    3    0    0 -0.21915938739E+02  0.11271741620E+02  0.17782700915E+04  0.17829902845E+04  0.12728894634E+03 0.  0.
         25    2    3    3    0    0  0.21915938739E+02 -0.11271741620E+02  0.92130574744E+03  0.93018997485E+03  0.12586400801E+03 0.  0.
          5    1    4    4  502    0  0.12332976444E+02 -0.47175401080E+02  0.11537087556E+04  0.11547482858E+04  0.47000000000E+01 0. -1.
         -5    1    4    4    0  502 -0.34248915182E+02  0.58447142700E+02  0.62456133591E+03  0.62824199875E+03  0.47000000000E+01 0. -1.
          5    1    5    5  503    0  0.42020495514E+02  0.40691077320E+02  0.26073611238E+03  0.26725810767E+03  0.47000000000E+01 0.  1.
         -5    1    5    5    0  503 -0.20104556775E+02 -0.51962818940E+02  0.66056963506E+03  0.66293186718E+03  0.47000000000E+01 0.  1.
<mgrwt>
<rscale>  0 0.27136214E+03</rscale>
<asrwt>0</asrwt>
<pdfrwt beam="1">  1        2 0.41636500E+00 0.27136214E+03</pdfrwt>
<pdfrwt beam="2">  1       -2 0.10464960E-02 0.27136214E+03</pdfrwt>
<totfact> 0.61465655E+03</totfact>
</mgrwt>
</event>
<event>
 9    1  0.2114844E-002  0.2748120E+03  0.7818608E-02  0.1098557E+00
         -2   -1    0    0    0  501 -0.00000000000E+00  0.00000000000E+00  0.45637388264E+03  0.45637388264E+03  0.00000000000E+00 0.  1.
          2   -1    0    0  501    0  0.00000000000E+00 -0.00000000000E+00 -0.41370498166E+02  0.41370498166E+02  0.00000000000E+00 0.  1.
         36    2    1    2    0    0  0.35527136788E-14  0.35527136788E-14  0.41500338448E+03  0.49774438081E+03  0.27481204395E+03 0.  0.
         25    2    3    3    0    0  0.90134585389E+01  0.22350327114E+02  0.12664923147E+03  0.18223555609E+03  0.12879825509E+03 0.  0.
         25    2    3    3    0    0 -0.90134585389E+01 -0.22350327114E+02  0.28835415301E+03  0.31550882472E+03  0.12576534246E+03 0.  0.
          5    1    4    4  502    0  0.29165601780E+02 -0.19250306466E+02  0.13091194828E+03  0.13557741268E+03  0.47000000000E+01 0. -1.
         -5    1    4    4    0  502 -0.20152143241E+02  0.41600633580E+02 -0.42627168131E+01  0.46658143406E+02  0.47000000000E+01 0. -1.
          5    1    5    5  503    0  0.18424596295E+02  0.42149501252E+02  0.55237170940E+02  0.72036666066E+02  0.47000000000E+01 0. -1.
         -5    1    5    5    0  503 -0.27438054834E+02 -0.64499828366E+02  0.23311698207E+03  0.24347215866E+03  0.47000000000E+01 0. -1.
<mgrwt>
<rscale>  0 0.27481204E+03</rscale>
<asrwt>0</asrwt>
<pdfrwt beam="1">  1        2 0.63646923E-02 0.27481204E+03</pdfrwt>
<pdfrwt beam="2">  1       -2 0.70211363E-01 0.27481204E+03</pdfrwt>
<totfact> 0.21618387E+03</totfact>
</mgrwt>
</event>
<event>
 9    1  0.2114844E-002  0.2749086E+03  0.7818608E-02  0.1098503E+00
         -2   -1    0    0    0  501 -0.00000000000E+00  0.00000000000E+00  0.10170397068E+02  0.10170397068E+02  0.00000000000E+00 0. -1.
          2   -1    0    0  501    0  0.00000000000E+00 -0.00000000000E+00 -0.18577131699E+04  0.18577131699E+04  0.00000000000E+00 0. -1.
         36    2    1    2    0    0  0.71054273576E-14  0.00000000000E+00 -0.18475427728E+04  0.18678835669E+04  0.27490857081E+03 0.  0.
         25    2    3    3    0    0 -0.52136818911E+02 -0.19301967145E+02 -0.87773884517E+03  0.88815276047E+03  0.12368925494E+03 0.  0.
         25    2    3    3    0    0  0.52136818911E+02  0.19301967145E+02 -0.96980392764E+03  0.97973080648E+03  0.12752247359E+03 0.  0.
          5    1    4    4  502    0 -0.79201013976E+02 -0.21202209900E+02 -0.34258212399E+03  0.35228814343E+03  0.47000000000E+01 0.  1.
         -5    1    4    4    0  502  0.27064195065E+02  0.19002427553E+01 -0.53515672118E+03  0.53586461705E+03  0.47000000000E+01 0.  1.
          5    1    5    5  503    0  0.53964371124E+02 -0.46410661353E+02 -0.58369497058E+03  0.58803742357E+03  0.47000000000E+01 0. -1.
         -5    1    5    5    0  503 -0.18275522134E+01  0.65712628498E+02 -0.38610895706E+03  0.39169338291E+03  0.47000000000E+01 0. -1.
<mgrwt>
<rscale>  0 0.27490857E+03</rscale>
<asrwt>0</asrwt>
<pdfrwt beam="1">  1        2 0.28580213E+00 0.27490857E+03</pdfrwt>
<pdfrwt beam="2">  1       -2 0.15646759E-02 0.27490857E+03</pdfrwt>
<totfact> 0.97879766E+03</totfact>
</mgrwt>
</event>
<event>
 9    1  0.2114844E-002  0.2746205E+03  0.7818608E-02  0.1098664E+00
         -2   -1    0    0    0  501 -0.00000000000E+00  0.00000000000E+00  0.53078809226E+02  0.53078809226E+02  0.00000000000E+00 0. -1.
          2   -1    0    0  501    0  0.00000000000E+00 -0.00000000000E+00 -0.35520963918E+03  0.35520963918E+03  0.00000000000E+00 0. -1.
         36    2    1    2    0    0  0.17763568394E-14  0.00000000000E+00 -0.30213082995E+03  0.40828844840E+03  0.27462049940E+03 0.  0.
         25    2    3    3    0    0  0.71873051357E+01 -0.37271051153E+02 -0.12196531947E+03  0.17958103399E+03  0.12622606706E+03 0.  0.
         25    2    3    3    0    0 -0.71873051357E+01  0.37271051153E+02 -0.18016551048E+03  0.22870741441E+03  0.13567122625E+03 0.  0.
          5    1    4    4  502    0  0.43437837033E+02 -0.68077903589E+02 -0.94708201374E+02  0.12455191709E+03  0.47000000000E+01 0.  1.
         -5    1    4    4    0  502 -0.36250531898E+02  0.30806852436E+02 -0.27257118097E+02  0.55029116900E+02  0.47000000000E+01 0.  1.
          5    1    5    5  503    0 -0.78988617859E+01 -0.50494505401E+02 -0.83891188732E+02  0.98345862344E+02  0.47000000000E+01 0.  1.
         -5    1    5    5    0  503  0.71155665015E+00  0.87765556554E+02 -0.96274321748E+02  0.13036155207E+03  0.47000000000E+01 0.  1.
<mgrwt>
<rscale>  0 0.27462050E+03</rscale>
<asrwt>0</asrwt>
<pdfrwt beam="1">  1        2 0.54647637E-01 0.27462050E+03</pdfrwt>
<pdfrwt beam="2">  1       -2 0.81659706E-02 0.27462050E+03</pdfrwt>
<totfact> 0.82651939E+03</totfact>
</mgrwt>
</event>
<event>
 9    1  0.2114844E-002  0.2750904E+03  0.7818608E-02  0.1098401E+00
         -1   -1    0    0    0  501 -0.00000000000E+00  0.00000000000E+00  0.13661866167E+03  0.13661866167E+03  0.00000000000E+00 0.  1.
          1   -1    0    0  501    0  0.00000000000E+00 -0.00000000000E+00 -0.13847798863E+03  0.13847798863E+03  0.00000000000E+00 0.  1.
         36    2    1    2    0    0  0.00000000000E+00 -0.35527136788E-14 -0.18593269636E+01  0.27509665030E+03  0.27509036681E+03 0.  0.
         25    2    3    3    0    0  0.35480245871E+02 -0.27050289221E+02  0.35913899840E+02  0.13764175751E+03  0.12515941520E+03 0.  0.
         25    2    3    3    0    0 -0.35480245871E+02  0.27050289221E+02 -0.37773226804E+02  0.13745489280E+03  0.12440444082E+03 0.  0.
          5    1    4    4  502    0  0.20324603601E+02 -0.52365698750E+02 -0.31021972109E+02  0.64340567845E+02  0.47000000000E+01 0.  1.
         -5    1    4    4    0  502  0.15155642270E+02  0.25315409529E+02  0.66935871949E+02  0.73301189662E+02  0.47000000000E+01 0.  1.
          5    1    5    5  503    0 -0.44369088740E+02 -0.42581177149E+02 -0.14563343401E+02  0.63371552403E+02  0.47000000000E+01 0. -1.
         -5    1    5    5    0  503  0.88888428690E+01  0.69631466370E+02 -0.23209883403E+02  0.74083340394E+02  0.47000000000E+01 0. -1.
<mgrwt>
<rscale>  0 0.27509037E+03</rscale>
<asrwt>0</asrwt>
<pdfrwt beam="1">  1        1 0.21304306E-01 0.27509037E+03</pdfrwt>
<pdfrwt beam="2">  1       -1 0.21018256E-01 0.27509037E+03</pdfrwt>
<totfact> 0.43437823E+03</totfact>
</mgrwt>
</event>
<event>
 9    1  0.2114844E-002  0.2751797E+03  0.7818608E-02  0.1098351E+00
          2   -1    0    0  501    0  0.00000000000E+00  0.00000000000E+00  0.63974826013E+02  0.63974826013E+02  0.00000000000E+00 0.  1.
         -2   -1    0    0    0  501 -0.00000000000E+00 -0.00000000000E+00 -0.29591283232E+03  0.29591283232E+03  0.00000000000E+00 0.  1.
         36    2    1    2    0    0  0.00000000000E+00  0.00000000000E+00 -0.23193800630E+03  0.35988765833E+03  0.27517973735E+03 0.  0.
         25    2    3    3    0    0 -0.14942483290E+02 -0.51437714871E+02 -0.66836115066E+02  0.14652489015E+03  0.11888381235E+03 0.  0.
         25    2    3    3    0    0  0.14942483290E+02  0.51437714871E+02 -0.16510189124E+03  0.21336276817E+03  0.12408029672E+03 0.  0.
          5    1    4    4  502    0  0.11162250341E+02  0.24677167458E+00 -0.84844063599E+02  0.85704503131E+02  0.47000000000E+01 0. -1.
         -5    1    4    4    0  502 -0.26104733631E+02 -0.51684486545E+02  0.18007948533E+02  0.60820387024E+02  0.47000000000E+01 0. -1.
          5    1    5    5  503    0 -0.49444037868E+02  0.37916425752E+01 -0.36382143926E+02  0.61683383749E+02  0.47000000000E+01 0.  1.
         -5    1    5    5    0  503  0.64386521158E+02  0.47646072296E+02 -0.12871974731E+03  0.15167938443E+03  0.47000000000E+01 0.  1.
<mgrwt>
<rscale>  0 0.27517974E+03</rscale>
<asrwt>0</asrwt>
<pdfrwt beam="1">  1        2 0.98422810E-02 0.27517974E+03</pdfrwt>
<pdfrwt beam="2">  1       -2 0.45525051E-01 0.27517974E+03</pdfrwt>
<totfact> 0.30146253E+03</totfact>
</mgrwt>
</event>
<event>
 9    1  0.2114844E-002  0.2749158E+03  0.7818608E-02  0.1098499E+00
         -1   -1    0    0    0  501 -0.00000000000E+00  0.00000000000E+00  0.23592035264E+02  0.23592035264E+02  0.00000000000E+00 0.  1.
          1   -1    0    0  501    0  0.00000000000E+00 -0.00000000000E+00 -0.80089233848E+03  0.80089233848E+03  0.00000000000E+00 0.  1.
         36    2    1    2    0    0 -0.35527136788E-14 -0.71054273576E-14 -0.77730030322E+03  0.82448437375E+03  0.27491584379E+03 0.  0.
         25    2    3    3    0    0  0.13330487514E+02  0.58109141390E+02 -0.44795107275E+03  0.46778863021E+03  0.12087871921E+03 0.  0.
         25    2    3    3    0    0 -0.13330487514E+02 -0.58109141390E+02 -0.32934923047E+03  0.35669574354E+03  0.12331489627E+03 0.  0.
          5    1    4    4  502    0 -0.50647791848E+02  0.41217239152E+02 -0.17369050342E+03  0.18561934328E+03  0.47000000000E+01 0.  1.
         -5    1    4    4    0  502  0.63978279361E+02  0.16891902238E+02 -0.27426056934E+03  0.28216928693E+03  0.47000000000E+01 0.  1.
          5    1    5    5  503    0  0.17958264935E+02 -0.47399998171E+02 -0.31703392437E+03  0.32109478088E+03  0.47000000000E+01 0. -1.
         -5    1    5    5    0  503 -0.31288752449E+02 -0.10709143219E+02 -0.12315306096E+02  0.35600962663E+02  0.47000000000E+01 0. -1.
<mgrwt>
<rscale>  0 0.27491584E+03</rscale>
<asrwt>0</asrwt>
<pdfrwt beam="1">  1        1 0.12321422E+00 0.27491584E+03</pdfrwt>
<pdfrwt beam="2">  1       -1 0.36295436E-02 0.27491584E+03</pdfrwt>
<totfact> 0.65263303E+03</totfact>
</mgrwt>
</event>
<event>
 9    1  0.2114844E-002  0.2762979E+03  0.7818608E-02  0.1097728E+00
         -1   -1    0    0    0  501 -0.00000000000E+00  0.00000000000E+00  0.11707033466E+04  0.11707033466E+04  0.00000000000E+00 0. -1.
          1   -1    0    0  501    0  0.00000000000E+00 -0.00000000000E+00 -0.16302274681E+02  0.16302274681E+02  0.00000000000E+00 0. -1.
         36    2    1    2    0    0 -0.71054273576E-14  0.00000000000E+00  0.11544010719E+04  0.11870056213E+04  0.27629786482E+03 0.  0.
         25    2    3    3    0    0 -0.46015270114E+02 -0.19498242552E+02  0.70847943398E+03  0.72121722909E+03  0.12535388551E+03 0.  0.
         25    2    3    3    0    0  0.46015270114E+02  0.19498242552E+02  0.44592163793E+03  0.46578839219E+03  0.12496052407E+03 0.  0.
          5    1    4    4  502    0  0.21380644504E+02 -0.34960688451E+02  0.91629240190E+02  0.10048576692E+03  0.47000000000E+01 0. -1.
         -5    1    4    4    0  502 -0.67395914619E+02  0.15462445898E+02  0.61685019379E+03  0.62073146216E+03  0.47000000000E+01 0. -1.
          5    1    5    5  503    0  0.52257943945E+02 -0.20311313734E+02  0.81026620203E+02  0.98645047278E+02  0.47000000000E+01 0.  1.
         -5    1    5    5    0  503 -0.62426738310E+01  0.39809556287E+02  0.36489501773E+03  0.36714334491E+03  0.47000000000E+01 0.  1.
<mgrwt>
<rscale>  0 0.27629786E+03</rscale>
<asrwt>0</asrwt>
<pdfrwt beam="1">  1        1 0.25080432E-02 0.27629786E+03</pdfrwt>
<pdfrwt beam="2">  1       -1 0.18010814E+00 0.27629786E+03</pdfrwt>
<totfact> 0.10021637E+03</totfact>
</mgrwt>
</event>
<event>
 9    1  0.2114844E-002  0.2737421E+03  0.7818608E-02  0.1099157E+00
         -2   -1    0    0    0  501 -0.00000000000E+00  0.00000000000E+00  0.11213293884E+03  0.11213293884E+03  0.00000000000E+00 0.  1.
          2   -1    0    0  501    0  0.00000000000E+00 -0.00000000000E+00 -0.16706672069E+03  0.16706672069E+03  0.00000000000E+00 0.  1.
         36    2    1    2    0    0  0.71054273576E-14  0.00000000000E+00 -0.54933781851E+02  0.27919965954E+03  0.27374208572E+03 0.  0.
         25    2    3    3    0    0  0.51752732919E+02 -0.39690092815E-01 -0.12321868344E+02  0.13540699599E+03  0.12451858971E+03 0.  0.
         25    2    3    3    0    0 -0.51752732919E+02  0.39690092815E-01 -0.42611913507E+02  0.14379266355E+03  0.12720930775E+03 0.  0.
          5    1    4    4  502    0  0.30699621737E+02  0.29164586394E+02  0.48510772895E+02  0.64563340691E+02  0.47000000000E+01 0. -1.
         -5    1    4    4    0  502  0.21053111182E+02 -0.29204276487E+02 -0.60832641240E+02  0.70843655296E+02  0.47000000000E+01 0. -1.
          5    1    5    5  503    0 -0.73175956491E+02  0.28440777360E+02  0.10860778581E+02  0.79395496954E+02  0.47000000000E+01 0. -1.
         -5    1    5    5    0  503  0.21423223572E+02 -0.28401087267E+02 -0.53472692088E+02  0.64397166594E+02  0.47000000000E+01 0. -1.
<mgrwt>
<rscale>  0 0.27374209E+03</rscale>
<asrwt>0</asrwt>
<pdfrwt beam="1">  1        2 0.25702573E-01 0.27374209E+03</pdfrwt>
<pdfrwt beam="2">  1       -2 0.17251221E-01 0.27374209E+03</pdfrwt>
<totfact> 0.56002029E+03</totfact>
</mgrwt>
</event>
<event>
 9    1  0.2114844E-002  0.2750932E+03  0.7818608E-02  0.1098400E+00
         -2   -1    0    0    0  501 -0.00000000000E+00  0.00000000000E+00  0.14677847469E+02  0.14677847469E+02  0.00000000000E+00 0.  1.
          2   -1    0    0  501    0  0.00000000000E+00 -0.00000000000E+00 -0.12889538923E+04  0.12889538923E+04  0.00000000000E+00 0.  1.
         36    2    1    2    0    0 -0.71054273576E-14  0.14210854715E-13 -0.12742760449E+04  0.13036317398E+04  0.27509321058E+03 0.  0.
         25    2    3    3    0    0  0.36054004929E+02  0.13345278237E+02 -0.43960010950E+03  0.45672627665E+03  0.11778220488E+03 0.  0.
         25    2    3    3    0    0 -0.36054004929E+02 -0.13345278237E+02 -0.83467593536E+03  0.84690546315E+03  0.13815555986E+03 0.  0.
          5    1    4    4  502    0  0.14834981857E+02 -0.50868294485E+02 -0.24337859428E+03  0.24912424656E+03  0.47000000000E+01 0. -1.
         -5    1    4    4    0  502  0.21219023072E+02  0.64213572722E+02 -0.19622151522E+03  0.20760203009E+03  0.47000000000E+01 0. -1.
          5    1    5    5  503    0 -0.22099803799E+02  0.62157069731E+02 -0.35678935338E+03  0.36286724202E+03  0.47000000000E+01 0.  1.
         -5    1    5    5    0  503 -0.13954201130E+02 -0.75502347968E+02 -0.47788658199E+03  0.48403822114E+03  0.47000000000E+01 0.  1.
<mgrwt>
<rscale>  0 0.27509321E+03</rscale>
<asrwt>0</asrwt>
<pdfrwt beam="1">  1        2 0.19830065E+00 0.27509321E+03</pdfrwt>
<pdfrwt beam="2">  1       -2 0.22581298E-02 0.27509321E+03</pdfrwt>
<totfact> 0.11490581E+04</totfact>
</mgrwt>
</event>
<event>
 9    1  0.2114844E-002  0.2752758E+03  0.7818608E-02  0.1098298E+00
          2   -1    0    0  501    0  0.00000000000E+00  0.00000000000E+00  0.17469898554E+04  0.17469898554E+04  0.00000000000E+00 0. -1.
         -2   -1    0    0    0  501 -0.00000000000E+00 -0.00000000000E+00 -0.10843906208E+02  0.10843906208E+02  0.00000000000E+00 0. -1.
         36    2    1    2    0    0  0.00000000000E+00  0.00000000000E+00  0.17361459492E+04  0.17578337616E+04  0.27527581905E+03 0.  0.
         25    2    3    3    0    0 -0.36715883518E+02  0.35366489285E+02  0.82753366655E+03  0.83840227207E+03  0.12452933738E+03 0.  0.
         25    2    3    3    0    0  0.36715883518E+02 -0.35366489285E+02  0.90861228265E+03  0.91943148954E+03  0.13106921501E+03 0.  0.
          5    1    4    4  502    0 -0.15231743862E+02 -0.17850811326E+02  0.67401453727E+03  0.67443928113E+03  0.47000000000E+01 0. -1.
         -5    1    4    4    0  502 -0.21484139656E+02  0.53217300611E+02  0.15351912928E+03  0.16396299094E+03  0.47000000000E+01 0. -1.
          5    1    5    5  503    0 -0.28855014896E+02 -0.32316124407E+01  0.52340863263E+02  0.60039246920E+02  0.47000000000E+01 0.  1.
         -5    1    5    5    0  503  0.65570898415E+02 -0.32134876844E+02  0.85627141938E+03  0.85939224262E+03  0.47000000000E+01 0.  1.
<mgrwt>
<rscale>  0 0.27527582E+03</rscale>
<asrwt>0</asrwt>
<pdfrwt beam="1">  1        2 0.26876745E+00 0.27527582E+03</pdfrwt>
<pdfrwt beam="2">  1       -2 0.16682946E-02 0.27527582E+03</pdfrwt>
<totfact> 0.10187135E+04</totfact>
</mgrwt>
</event>
<event>
 9    1  0.2114844E-002  0.2758183E+03  0.7818608E-02  0.1097995E+00
         -2   -1    0    0    0  501 -0.00000000000E+00  0.00000000000E+00  0.29128712371E+03  0.29128712371E+03  0.00000000000E+00 0. -1.
          2   -1    0    0  501    0  0.00000000000E+00 -0.00000000000E+00 -0.65292731511E+02  0.65292731511E+02  0.00000000000E+00 0. -1.
         36    2    1    2    0    0  0.35527136788E-14 -0.28421709430E-13  0.22599439220E+03  0.35657985522E+03  0.27581828773E+03 0.  0.
         25    2    3    3    0    0  0.51622770566E+01  0.73740878239E+02  0.68873787176E+02  0.13766500919E+03  0.93507700046E+02 0.  0.
         25    2    3    3    0    0 -0.51622770566E+01 -0.73740878239E+02  0.15712060502E+03  0.21891484603E+03  0.13331338666E+03 0.  0.
          5    1    4    4  502    0 -0.23202619182E+02 -0.43448785244E+01  0.45106265099E+02  0.51126359712E+02  0.47000000000E+01 0.  1.
         -5    1    4    4    0  502  0.28364896238E+02  0.78085756764E+02  0.23767522077E+02  0.86538649479E+02  0.47000000000E+01 0.  1.
          5    1    5    5  503    0 -0.39586352085E+02 -0.75668515707E+02  0.35825769547E+02  0.92727446338E+02  0.47000000000E+01 0. -1.
         -5    1    5    5    0  503  0.34424075028E+02  0.19276374683E+01  0.12129483548E+03  0.12618739969E+03  0.47000000000E+01 0. -1.
<mgrwt>
<rscale>  0 0.27581829E+03</rscale>
<asrwt>0</asrwt>
<pdfrwt beam="1">  1        2 0.10045036E-01 0.27581829E+03</pdfrwt>
<pdfrwt beam="2">  1       -2 0.44813403E-01 0.27581829E+03</pdfrwt>
<totfact> 0.30313228E+03</totfact>
</mgrwt>
</event>
<event>
 9    1  0.2114844E-002  0.2753462E+03  0.7818608E-02  0.1098258E+00
          4   -1    0    0  501    0  0.00000000000E+00  0.00000000000E+00  0.21763704055E+03  0.21763704055E+03  0.00000000000E+00 0. -1.
         -4   -1    0    0    0  501 -0.00000000000E+00 -0.00000000000E+00 -0.87089391101E+02  0.87089391101E+02  0.00000000000E+00 0. -1.
         36    2    1    2    0    0 -0.71054273576E-14  0.00000000000E+00  0.13054764945E+03  0.30472643165E+03  0.27534616280E+03 0.  0.
         25    2    3    3    0    0  0.47284816655E+02  0.31426238432E+02  0.67314995828E+02  0.15236401563E+03  0.12433833780E+03 0.  0.
         25    2    3    3    0    0 -0.47284816655E+02 -0.31426238432E+02  0.63232653622E+02  0.15236241602E+03  0.12646135767E+03 0.  0.
          5    1    4    4  502    0  0.26228498102E+02  0.37494280594E+01  0.10051563016E+03  0.10405514995E+03  0.47000000000E+01 0. -1.
         -5    1    4    4    0  502  0.21056318553E+02  0.27676810373E+02 -0.33200634335E+02  0.48308865684E+02  0.47000000000E+01 0. -1.
          5    1    5    5  503    0 -0.84044128454E+02 -0.16025423935E+01  0.62386316162E+02  0.10478609695E+03  0.47000000000E+01 0.  1.
         -5    1    5    5    0  503  0.36759311800E+02 -0.29823696039E+02  0.84633746072E+00  0.47576319073E+02  0.47000000000E+01 0.  1.
<mgrwt>
<rscale>  0 0.27534616E+03</rscale>
<asrwt>0</asrwt>
<pdfrwt beam="1">  1        4 0.33482622E-01 0.27534616E+03</pdfrwt>
<pdfrwt beam="2">  1       -4 0.13398368E-01 0.27534616E+03</pdfrwt>
<totfact> 0.74182325E+02</totfact>
</mgrwt>
</event>
<event>
 9    1  0.2114844E-002  0.2752786E+03  0.7818608E-02  0.1098296E+00
         -2   -1    0    0    0  501 -0.00000000000E+00  0.00000000000E+00  0.30135147275E+02  0.30135147275E+02  0.00000000000E+00 0.  1.
          2   -1    0    0  501    0  0.00000000000E+00 -0.00000000000E+00 -0.62865409535E+03  0.62865409535E+03  0.00000000000E+00 0.  1.
         36    2    1    2    0    0  0.00000000000E+00  0.71054273576E-14 -0.59851894807E+03  0.65878924262E+03  0.27527864972E+03 0.  0.
         25    2    3    3    0    0  0.19065599913E+02 -0.50279113713E+02 -0.21680213259E+03  0.25242675166E+03  0.11757811821E+03 0.  0.
         25    2    3    3    0    0 -0.19065599913E+02  0.50279113713E+02 -0.38171681548E+03  0.40636249096E+03  0.12857394939E+03 0.  0.
          5    1    4    4  502    0  0.39494808601E+02 -0.18342271056E+02 -0.20886605132E+03  0.21340898811E+03  0.47000000000E+01 0.  1.
         -5    1    4    4    0  502 -0.20429208688E+02 -0.31936842657E+02 -0.79360812746E+01  0.39017763551E+02  0.47000000000E+01 0.  1.
          5    1    5    5  503    0  0.50503926388E+02 -0.39354343850E+01 -0.14919259172E+03  0.15762821337E+03  0.47000000000E+01 0.  1.
         -5    1    5    5    0  503 -0.69569526301E+02  0.54214548098E+02 -0.23252422376E+03  0.24873427759E+03  0.47000000000E+01 0.  1.
<mgrwt>
<rscale>  0 0.27527865E+03</rscale>
<asrwt>0</asrwt>
<pdfrwt beam="1">  1        2 0.96716016E-01 0.27527865E+03</pdfrwt>
<pdfrwt beam="2">  1       -2 0.46361764E-02 0.27527865E+03</pdfrwt>
<totfact> 0.10444344E+04</totfact>
</mgrwt>
</event>
<event>
 9    1  0.2114844E-002  0.2887213E+03  0.7818608E-02  0.1091019E+00
          1   -1    0    0  501    0  0.00000000000E+00  0.00000000000E+00  0.24711566531E+03  0.24711566531E+03  0.00000000000E+00 0. -1.
         -1   -1    0    0    0  501 -0.00000000000E+00 -0.00000000000E+00 -0.84332945321E+02  0.84332945321E+02  0.00000000000E+00 0. -1.
         36    2    1    2    0    0  0.35527136788E-14  0.00000000000E+00  0.16278271999E+03  0.33144861064E+03  0.28872126275E+03 0.  0.
         25    2    3    3    0    0 -0.26233842999E+02 -0.29198050265E+02  0.16789664711E+03  0.21238479226E+03  0.12400514189E+03 0.  0.
         25    2    3    3    0    0  0.26233842999E+02  0.29198050265E+02 -0.51139271175E+01  0.11906381838E+03  0.11229113918E+03 0.  0.
          5    1    4    4  502    0 -0.21859863823E+02 -0.64673696327E+02  0.16199224256E+03  0.17585254417E+03  0.47000000000E+01 0.  1.
         -5    1    4    4    0  502 -0.43739791759E+01  0.35475646062E+02  0.59044045550E+01  0.36532248090E+02  0.47000000000E+01 0.  1.
          5    1    5    5  503    0 -0.43551384889E+02  0.30699253792E+01  0.26830004637E+01  0.43993591114E+02  0.47000000000E+01 0. -1.
         -5    1    5    5    0  503  0.69785227888E+02  0.26128124885E+02 -0.77969275812E+01  0.75070227262E+02  0.47000000000E+01 0. -1.
<mgrwt>
<rscale>  0 0.28872126E+03</rscale>
<asrwt>0</asrwt>
<pdfrwt beam="1">  1        1 0.38017794E-01 0.28872126E+03</pdfrwt>
<pdfrwt beam="2">  1       -1 0.12974299E-01 0.28872126E+03</pdfrwt>
<totfact> 0.45194771E+03</totfact>
</mgrwt>
</event>
<event>
 9    1  0.2114844E-002  0.2755840E+03  0.7818608E-02  0.1098126E+00
          1   -1    0    0  501    0  0.00000000000E+00  0.00000000000E+00  0.15016799413E+03  0.15016799413E+03  0.00000000000E+00 0.  1.
         -1   -1    0    0    0  501 -0.00000000000E+00 -0.00000000000E+00 -0.12643591987E+03  0.12643591987E+03  0.00000000000E+00 0.  1.
         36    2    1    2    0    0  0.00000000000E+00  0.00000000000E+00  0.23732074266E+02  0.27660391400E+03  0.27558395072E+03 0.  0.
         25    2    3    3    0    0 -0.55841681254E+02  0.12952088522E+02  0.13408625897E+02  0.13846303714E+03  0.12532426519E+03 0.  0.
         25    2    3    3    0    0  0.55841681254E+02 -0.12952088522E+02  0.10323448368E+02  0.13814087686E+03  0.12526084109E+03 0.  0.
          5    1    4    4  502    0 -0.91430302821E+02  0.21396346190E+02 -0.10363550896E+02  0.94587510229E+02  0.47000000000E+01 0.  1.
         -5    1    4    4    0  502  0.35588621567E+02 -0.84442576683E+01  0.23772176794E+02  0.43875526915E+02  0.47000000000E+01 0.  1.
          5    1    5    5  503    0  0.35530064985E+02  0.21585515467E+01 -0.56266487707E+02  0.66746179678E+02  0.47000000000E+01 0.  1.
         -5    1    5    5    0  503  0.20311616269E+02 -0.15110640069E+02  0.66589936076E+02  0.71394697179E+02  0.47000000000E+01 0.  1.
<mgrwt>
<rscale>  0 0.27558395E+03</rscale>
<asrwt>0</asrwt>
<pdfrwt beam="1">  1        1 0.23102768E-01 0.27558395E+03</pdfrwt>
<pdfrwt beam="2">  1       -1 0.19451680E-01 0.27558395E+03</pdfrwt>
<totfact> 0.44417838E+03</totfact>
</mgrwt>
</event>
<event>
 9    1  0.2114844E-002  0.2733720E+03  0.7818608E-02  0.1099365E+00
          4   -1    0    0  501    0  0.00000000000E+00  0.00000000000E+00  0.26031929769E+02  0.26031929769E+02  0.00000000000E+00 0. -1.
         -4   -1    0    0    0  501 -0.00000000000E+00 -0.00000000000E+00 -0.71769806955E+03  0.71769806955E+03  0.00000000000E+00 0. -1.
         36    2    1    2    0    0  0.14210854715E-13  0.00000000000E+00 -0.69166613978E+03  0.74372999931E+03  0.27337202301E+03 0.  0.
         25    2    3    3    0    0 -0.45352186176E+02  0.24268258919E+02 -0.37715822489E+03  0.40129968377E+03  0.12707218582E+03 0.  0.
         25    2    3    3    0    0  0.45352186176E+02 -0.24268258919E+02 -0.31450791489E+03  0.34243031554E+03  0.12528975734E+03 0.  0.
          5    1    4    4  502    0 -0.76215399988E+02 -0.19618898041E+02 -0.17231916499E+03  0.18949847751E+03  0.47000000000E+01 0. -1.
         -5    1    4    4    0  502  0.30863213812E+02  0.43887156961E+02 -0.20483905989E+03  0.21180120626E+03  0.47000000000E+01 0. -1.
          5    1    5    5  503    0  0.75482897124E+02  0.66807225725E+01 -0.11196457083E+03  0.13527917405E+03  0.47000000000E+01 0.  1.
         -5    1    5    5    0  503 -0.30130710948E+02 -0.30948981492E+02 -0.20254334406E+03  0.20715114149E+03  0.47000000000E+01 0.  1.
<mgrwt>
<rscale>  0 0.27337202E+03</rscale>
<asrwt>0</asrwt>
<pdfrwt beam="1">  1        4 0.40049128E-02 0.27337202E+03</pdfrwt>
<pdfrwt beam="2">  1       -4 0.11041507E+00 0.27337202E+03</pdfrwt>
<totfact> 0.43133591E+02</totfact>
</mgrwt>
</event>
<event>
 9    1  0.2114844E-002  0.2743597E+03  0.7818608E-02  0.1098810E+00
         -2   -1    0    0    0  501 -0.00000000000E+00  0.00000000000E+00  0.11401371685E+02  0.11401371685E+02  0.00000000000E+00 0. -1.
          2   -1    0    0  501    0  0.00000000000E+00 -0.00000000000E+00 -0.16505301519E+04  0.16505301519E+04  0.00000000000E+00 0. -1.
         36    2    1    2    0    0 -0.71054273576E-14  0.00000000000E+00 -0.16391287802E+04  0.16619315236E+04  0.27435967444E+03 0.  0.
         25    2    3    3    0    0  0.33023175681E+02  0.20794044220E+02 -0.69553641815E+03  0.70792870625E+03  0.12597309934E+03 0.  0.
         25    2    3    3    0    0 -0.33023175681E+02 -0.20794044220E+02 -0.94359236208E+03  0.95400281735E+03  0.13502558026E+03 0.  0.
          5    1    4    4  502    0 -0.19718463934E+02  0.10722251421E+02 -0.57983692807E+03  0.58029021846E+03  0.47000000000E+01 0. -1.
         -5    1    4    4    0  502  0.52741639615E+02  0.10071792799E+02 -0.11569949008E+03  0.12763848779E+03  0.47000000000E+01 0. -1.
          5    1    5    5  503    0 -0.65773488674E+02  0.42042454192E+01 -0.23262138144E+03  0.24182354020E+03  0.47000000000E+01 0.  1.
         -5    1    5    5    0  503  0.32750312993E+02 -0.24998289639E+02 -0.71097098065E+03  0.71217927716E+03  0.47000000000E+01 0.  1.
<mgrwt>
<rscale>  0 0.27435967E+03</rscale>
<asrwt>0</asrwt>
<pdfrwt beam="1">  1        2 0.25392779E+00 0.27435967E+03</pdfrwt>
<pdfrwt beam="2">  1       -2 0.17540567E-02 0.27435967E+03</pdfrwt>
<totfact> 0.10639275E+04</totfact>
</mgrwt>
</event>
<event>
 9    1  0.2114844E-002  0.2753597E+03  0.7818608E-02  0.1098251E+00
         -2   -1    0    0    0  501 -0.00000000000E+00  0.00000000000E+00  0.88976819593E+01  0.88976819593E+01  0.00000000000E+00 0. -1.
          2   -1    0    0  501    0  0.00000000000E+00 -0.00000000000E+00 -0.21304141077E+04  0.21304141077E+04  0.00000000000E+00 0. -1.
         36    2    1    2    0    0  0.00000000000E+00 -0.71054273576E-14 -0.21215164257E+04  0.21393117896E+04  0.27535974413E+03 0.  0.
         25    2    3    3    0    0 -0.15366173846E+02  0.36628777655E+02 -0.73359519086E+03  0.74524241852E+03  0.12508625689E+03 0.  0.
         25    2    3    3    0    0  0.15366173846E+02 -0.36628777655E+02 -0.13879212349E+04  0.13940693711E+04  0.12460445681E+03 0.  0.
          5    1    4    4  502    0 -0.62710732617E+02  0.51618658945E+02 -0.45404259872E+03  0.46127420629E+03  0.47000000000E+01 0.  1.
         -5    1    4    4    0  502  0.47344558771E+02 -0.14989881290E+02 -0.27955259214E+03  0.28396821223E+03  0.47000000000E+01 0.  1.
          5    1    5    5  503    0 -0.54747387180E+02 -0.18245892945E+02 -0.57327997222E+03  0.57619632553E+03  0.47000000000E+01 0. -1.
         -5    1    5    5    0  503  0.70113561026E+02 -0.18382884710E+02 -0.81464126265E+03  0.81787304559E+03  0.47000000000E+01 0. -1.
<mgrwt>
<rscale>  0 0.27535974E+03</rscale>
<asrwt>0</asrwt>
<pdfrwt beam="1">  1        2 0.32775600E+00 0.27535974E+03</pdfrwt>
<pdfrwt beam="2">  1       -2 0.13688742E-02 0.27535974E+03</pdfrwt>
<totfact> 0.85515587E+03</totfact>
</mgrwt>
</event>
<event>
 9    1  0.2114844E-002  0.2715638E+03  0.7818608E-02  0.1100388E+00
          1   -1    0    0  501    0  0.00000000000E+00  0.00000000000E+00  0.10882703760E+03  0.10882703760E+03  0.00000000000E+00 0. -1.
         -1   -1    0    0    0  501 -0.00000000000E+00 -0.00000000000E+00 -0.16941312865E+03  0.16941312865E+03  0.00000000000E+00 0. -1.
         36    2    1    2    0    0  0.71054273576E-14  0.00000000000E+00 -0.60586091052E+02  0.27824016624E+03  0.27156383353E+03 0.  0.
         25    2    3    3    0    0 -0.27384746611E+02  0.22073423845E+02  0.18143325655E+02  0.12740384546E+03  0.12110078111E+03 0.  0.
         25    2    3    3    0    0  0.27384746611E+02 -0.22073423845E+02 -0.78729416707E+02  0.15083632078E+03  0.12375828952E+03 0.  0.
          5    1    4    4  502    0 -0.52624006470E+02  0.16965985764E+02 -0.36772099647E+02  0.66568821849E+02  0.47000000000E+01 0.  1.
         -5    1    4    4    0  502  0.25239259858E+02  0.51074380804E+01  0.54915425302E+02  0.60835023614E+02  0.47000000000E+01 0.  1.
          5    1    5    5  503    0  0.60940661573E+02 -0.78130683339E+01 -0.92866330951E+02  0.11144978104E+03  0.47000000000E+01 0. -1.
         -5    1    5    5    0  503 -0.33555914962E+02 -0.14260355511E+02  0.14136914244E+02  0.39386539739E+02  0.47000000000E+01 0. -1.
<mgrwt>
<rscale>  0 0.27156383E+03</rscale>
<asrwt>0</asrwt>
<pdfrwt beam="1">  1        1 0.16742621E-01 0.27156383E+03</pdfrwt>
<pdfrwt beam="2">  1       -1 0.26063558E-01 0.27156383E+03</pdfrwt>
<totfact> 0.41562641E+03</totfact>
</mgrwt>
</event>
<event>
 9    1  0.2114844E-002  0.2736349E+03  0.7818608E-02  0.1099217E+00
          4   -1    0    0  501    0  0.00000000000E+00  0.00000000000E+00  0.63793495864E+02  0.63793495864E+02  0.00000000000E+00 0. -1.
         -4   -1    0    0    0  501 -0.00000000000E+00 -0.00000000000E+00 -0.29343129715E+03  0.29343129715E+03  0.00000000000E+00 0. -1.
         36    2    1    2    0    0 -0.71054273576E-14  0.00000000000E+00 -0.22963780129E+03  0.35722479302E+03  0.27363485335E+03 0.  0.
         25    2    3    3    0    0  0.49320267852E+02  0.11037367983E+02 -0.70100178388E+02  0.15006231295E+03  0.12267986977E+03 0.  0.
         25    2    3    3    0    0 -0.49320267852E+02 -0.11037367983E+02 -0.15953762290E+03  0.20716248006E+03  0.12210539592E+03 0.  0.
          5    1    4    4  502    0  0.75094564702E+02  0.36735878946E+02 -0.16879329575E+02  0.85414988243E+02  0.47000000000E+01 0. -1.
         -5    1    4    4    0  502 -0.25774296850E+02 -0.25698510963E+02 -0.53220848813E+02  0.64647324710E+02  0.47000000000E+01 0. -1.
          5    1    5    5  503    0 -0.15971359148E+02 -0.64283654557E+02 -0.10276998922E+03  0.12235699098E+03  0.47000000000E+01 0.  1.
         -5    1    5    5    0  503 -0.33348908704E+02  0.53246286575E+02 -0.56767633683E+02  0.84805489090E+02  0.47000000000E+01 0.  1.
<mgrwt>
<rscale>  0 0.27363485E+03</rscale>
<asrwt>0</asrwt>
<pdfrwt beam="1">  1        4 0.98143839E-02 0.27363485E+03</pdfrwt>
<pdfrwt beam="2">  1       -4 0.45143277E-01 0.27363485E+03</pdfrwt>
<totfact> 0.70075864E+02</totfact>
</mgrwt>
</event>
<event>
 9    1  0.2114844E-002  0.2752907E+03  0.7818608E-02  0.1098289E+00
          1   -1    0    0  501    0  0.00000000000E+00  0.00000000000E+00  0.15947256460E+03  0.15947256460E+03  0.00000000000E+00 0.  1.
         -1   -1    0    0    0  501 -0.00000000000E+00 -0.00000000000E+00 -0.11880567049E+03  0.11880567049E+03  0.00000000000E+00 0.  1.
         36    2    1    2    0    0 -0.10658141036E-13  0.00000000000E+00  0.40666894115E+02  0.27827823509E+03  0.27529071878E+03 0.  0.
         25    2    3    3    0    0 -0.22023741232E+02 -0.24259364247E+02 -0.15007834334E+02  0.13620562139E+03  0.13135133907E+03 0.  0.
         25    2    3    3    0    0  0.22023741232E+02  0.24259364247E+02  0.55674728449E+02  0.14207261370E+03  0.12653612229E+03 0.  0.
          5    1    4    4  502    0 -0.23983623450E+02  0.18582957417E+02  0.49708929800E+02  0.58426091792E+02  0.47000000000E+01 0. -1.
         -5    1    4    4    0  502  0.19598822174E+01 -0.42842321664E+02 -0.64716764134E+02  0.77779529594E+02  0.47000000000E+01 0. -1.
          5    1    5    5  503    0 -0.48554157274E+02  0.21900340116E+02  0.24660677446E+01  0.53528521145E+02  0.47000000000E+01 0. -1.
         -5    1    5    5    0  503  0.70577898507E+02  0.23590241314E+01  0.53208660704E+02  0.88544092555E+02  0.47000000000E+01 0. -1.
<mgrwt>
<rscale>  0 0.27529072E+03</rscale>
<asrwt>0</asrwt>
<pdfrwt beam="1">  1        1 0.24534241E-01 0.27529072E+03</pdfrwt>
<pdfrwt beam="2">  1       -1 0.18277795E-01 0.27529072E+03</pdfrwt>
<totfact> 0.45492335E+03</totfact>
</mgrwt>
</event>
<event>
 9    1  0.2114844E-002  0.2751113E+03  0.7818608E-02  0.1098389E+00
          3   -1    0    0  501    0  0.00000000000E+00  0.00000000000E+00  0.11736982625E+03  0.11736982625E+03  0.00000000000E+00 0. -1.
         -3   -1    0    0    0  501 -0.00000000000E+00 -0.00000000000E+00 -0.16121317959E+03  0.16121317959E+03  0.00000000000E+00 0. -1.
         36    2    1    2    0    0  0.35527136788E-14  0.14210854715E-13 -0.43843353345E+02  0.27858300584E+03  0.27511134384E+03 0.  0.
         25    2    3    3    0    0 -0.15638648720E+02 -0.46458815519E+02  0.21028117622E+02  0.13269074409E+03  0.12149758419E+03 0.  0.
         25    2    3    3    0    0  0.15638648720E+02  0.46458815519E+02 -0.64871470967E+02  0.14589226175E+03  0.12113321352E+03 0.  0.
          5    1    4    4  502    0 -0.11903975111E+02 -0.76306363679E+02 -0.21578016860E+02  0.80324756912E+02  0.47000000000E+01 0.  1.
         -5    1    4    4    0  502 -0.37346736088E+01  0.29847548160E+02  0.42606134482E+02  0.52365987183E+02  0.47000000000E+01 0.  1.
          5    1    5    5  503    0 -0.33770651310E+02  0.55152437212E+02 -0.14056448493E+01  0.64856102703E+02  0.47000000000E+01 0. -1.
         -5    1    5    5    0  503  0.49409300030E+02 -0.86936216929E+01 -0.63465826118E+02  0.81036159043E+02  0.47000000000E+01 0. -1.
<mgrwt>
<rscale>  0 0.27511134E+03</rscale>
<asrwt>0</asrwt>
<pdfrwt beam="1">  1        3 0.18056896E-01 0.27511134E+03</pdfrwt>
<pdfrwt beam="2">  1       -3 0.24802028E-01 0.27511134E+03</pdfrwt>
<totfact> 0.10421146E+03</totfact>
</mgrwt>
</event>
<event>
 9    1  0.2114844E-002  0.2740098E+03  0.7818608E-02  0.1099006E+00
          2   -1    0    0  501    0  0.00000000000E+00  0.00000000000E+00  0.85374453153E+03  0.85374453153E+03  0.00000000000E+00 0.  1.
         -2   -1    0    0    0  501 -0.00000000000E+00 -0.00000000000E+00 -0.21985895302E+02  0.21985895302E+02  0.00000000000E+00 0.  1.
         36    2    1    2    0    0  0.00000000000E+00  0.00000000000E+00  0.83175863623E+03  0.87573042683E+03  0.27400976541E+03 0.  0.
         25    2    3    3    0    0  0.11295602362E+02  0.95514354376E+01  0.42897987111E+03  0.45419764380E+03  0.14850235442E+03 0.  0.
         25    2    3    3    0    0 -0.11295602362E+02 -0.95514354376E+01  0.40277876512E+03  0.42153278303E+03  0.12345174355E+03 0.  0.
          5    1    4    4  502    0 -0.59420258672E+02 -0.10766534834E+02  0.29612976118E+03  0.30226083251E+03  0.47000000000E+01 0. -1.
         -5    1    4    4    0  502  0.70715861034E+02  0.20317970271E+02  0.13285010993E+03  0.15193681129E+03  0.47000000000E+01 0. -1.
          5    1    5    5  503    0  0.48352510402E+02  0.14528996143E+02  0.10190182311E+03  0.11382059806E+03  0.47000000000E+01 0.  1.
         -5    1    5    5    0  503 -0.59648112763E+02 -0.24080431580E+02  0.30087694201E+03  0.30771218496E+03  0.47000000000E+01 0.  1.
<mgrwt>
<rscale>  0 0.27400977E+03</rscale>
<asrwt>0</asrwt>
<pdfrwt beam="1">  1        2 0.13134529E+00 0.27400977E+03</pdfrwt>
<pdfrwt beam="2">  1       -2 0.33824461E-02 0.27400977E+03</pdfrwt>
<totfact> 0.11495978E+04</totfact>
</mgrwt>
</event>
<event>
 9    1  0.2114844E-002  0.2744476E+03  0.7818608E-02  0.1098761E+00
          2   -1    0    0  501    0  0.00000000000E+00  0.00000000000E+00  0.25335999158E+04  0.25335999158E+04  0.00000000000E+00 0.  1.
         -2   -1    0    0    0  501 -0.00000000000E+00 -0.00000000000E+00 -0.74322608090E+01  0.74322608090E+01  0.00000000000E+00 0.  1.
         36    2    1    2    0    0  0.71054273576E-14  0.00000000000E+00  0.25261676550E+04  0.25410321766E+04  0.27444762969E+03 0.  0.
         25    2    3    3    0    0  0.21584892333E+02 -0.44540463569E+02  0.92816124298E+03  0.93751199038E+03  0.12245684402E+03 0.  0.
         25    2    3    3    0    0 -0.21584892333E+02  0.44540463569E+02  0.15980064120E+04  0.16035201862E+04  0.12329936891E+03 0.  0.
          5    1    4    4  502    0  0.52016841592E+02 -0.15195416521E+02  0.81179229918E+03  0.81361261022E+03  0.47000000000E+01 0. -1.
         -5    1    4    4    0  502 -0.30431949260E+02 -0.29345047048E+02  0.11636894380E+03  0.12389938016E+03  0.47000000000E+01 0. -1.
          5    1    5    5  503    0 -0.70400669485E+02  0.15408089492E+02  0.70363034991E+03  0.70732695609E+03  0.47000000000E+01 0.  1.
         -5    1    5    5    0  503  0.48815777153E+02  0.29132374077E+02  0.89437606210E+03  0.89619323016E+03  0.47000000000E+01 0.  1.
<mgrwt>
<rscale>  0 0.27444763E+03</rscale>
<asrwt>0</asrwt>
<pdfrwt beam="1">  1        2 0.38978391E+00 0.27444763E+03</pdfrwt>
<pdfrwt beam="2">  1       -2 0.11434268E-02 0.27444763E+03</pdfrwt>
<totfact> 0.67425894E+03</totfact>
</mgrwt>
</event>
<event>
 9    1  0.2114844E-002  0.2736429E+03  0.7818608E-02  0.1099213E+00
          2   -1    0    0  501    0  0.00000000000E+00  0.00000000000E+00  0.56368375242E+03  0.56368375242E+03  0.00000000000E+00 0. -1.
         -2   -1    0    0    0  501 -0.00000000000E+00 -0.00000000000E+00 -0.33210295559E+02  0.33210295559E+02  0.00000000000E+00 0. -1.
         36    2    1    2    0    0  0.00000000000E+00  0.35527136788E-14  0.53047345686E+03  0.59689404798E+03  0.27364286229E+03 0.  0.
         25    2    3    3    0    0 -0.39643807899E+02 -0.21810960494E+02  0.21245741669E+03  0.25395814810E+03  0.13156457569E+03 0.  0.
         25    2    3    3    0    0  0.39643807899E+02  0.21810960494E+02  0.31801604017E+03  0.34293589989E+03  0.12009779399E+03 0.  0.
          5    1    4    4  502    0 -0.47549137773E+02 -0.71054901974E+02  0.10569233669E+03  0.13602455526E+03  0.47000000000E+01 0.  1.
         -5    1    4    4    0  502  0.79053298740E+01  0.49243941479E+02  0.10676508000E+03  0.11793359284E+03  0.47000000000E+01 0.  1.
          5    1    5    5  503    0 -0.42881827565E+02  0.19880244241E+01  0.11512535909E+03  0.12295829245E+03  0.47000000000E+01 0.  1.
         -5    1    5    5    0  503  0.82525635464E+02  0.19822936070E+02  0.20289068108E+03  0.21997760743E+03  0.47000000000E+01 0.  1.
<mgrwt>
<rscale>  0 0.27364286E+03</rscale>
<asrwt>0</asrwt>
<pdfrwt beam="1">  1        2 0.86720571E-01 0.27364286E+03</pdfrwt>
<pdfrwt beam="2">  1       -2 0.51092766E-02 0.27364286E+03</pdfrwt>
<totfact> 0.10225201E+04</totfact>
</mgrwt>
</event>
<event>
 9    1  0.2114844E-002  0.2752730E+03  0.7818608E-02  0.1098299E+00
         -2   -1    0    0    0  501 -0.00000000000E+00  0.00000000000E+00  0.34149589527E+02  0.34149589527E+02  0.00000000000E+00 0. -1.
          2   -1    0    0  501    0  0.00000000000E+00 -0.00000000000E+00 -0.55473027835E+03  0.55473027835E+03  0.00000000000E+00 0. -1.
         36    2    1    2    0    0 -0.26645352591E-14  0.14210854715E-13 -0.52058068882E+03  0.58887986788E+03  0.27527303758E+03 0.  0.
         25    2    3    3    0    0 -0.63398684184E+00  0.53734992887E+02 -0.29647695146E+03  0.32597304687E+03  0.12438646686E+03 0.  0.
         25    2    3    3    0    0  0.63398684184E+00 -0.53734992887E+02 -0.22410373737E+03  0.26290682101E+03  0.12652928528E+03 0.  0.
          5    1    4    4  502    0  0.20407518404E+02 -0.27129250397E+02 -0.17584537605E+03  0.17915398213E+03  0.47000000000E+01 0. -1.
         -5    1    4    4    0  502 -0.21041505246E+02  0.80864243284E+02 -0.12063157541E+03  0.14681906474E+03  0.47000000000E+01 0. -1.
          5    1    5    5  503    0  0.81165501737E+01  0.39458076604E+02 -0.96256078801E+02  0.10445161991E+03  0.47000000000E+01 0.  1.
         -5    1    5    5    0  503 -0.74825633319E+01 -0.93193069491E+02 -0.12784765857E+03  0.15845520110E+03  0.47000000000E+01 0.  1.
<mgrwt>
<rscale>  0 0.27527304E+03</rscale>
<asrwt>0</asrwt>
<pdfrwt beam="1">  1        2 0.85343110E-01 0.27527304E+03</pdfrwt>
<pdfrwt beam="2">  1       -2 0.52537836E-02 0.27527304E+03</pdfrwt>
<totfact> 0.99833640E+03</totfact>
</mgrwt>
</event>
<event>
 9    1  0.2114844E-002  0.2750667E+03  0.7818608E-02  0.1098414E+00
         -1   -1    0    0    0  501 -0.00000000000E+00  0.00000000000E+00  0.24338208041E+02  0.24338208041E+02  0.00000000000E+00 0.  1.
          1   -1    0    0  501    0  0.00000000000E+00 -0.00000000000E+00 -0.77719046254E+03  0.77719046254E+03  0.00000000000E+00 0.  1.
         36    2    1    2    0    0  0.71054273576E-14 -0.14210854715E-13 -0.75285225450E+03  0.80152867058E+03  0.27506670584E+03 0.  0.
         25    2    3    3    0    0  0.37101372844E+02 -0.43112421005E+02 -0.42256023864E+03  0.44290194967E+03  0.11987405487E+03 0.  0.
         25    2    3    3    0    0 -0.37101372844E+02  0.43112421005E+02 -0.33029201586E+03  0.35862672091E+03  0.12761315175E+03 0.  0.
          5    1    4    4  502    0 -0.11433904631E+02  0.35467498613E+02 -0.16560993161E+03  0.16981583284E+03  0.47000000000E+01 0.  1.
         -5    1    4    4    0  502  0.48535277475E+02 -0.78579919618E+02 -0.25695030702E+03  0.27308611683E+03  0.47000000000E+01 0.  1.
          5    1    5    5  503    0 -0.82412949183E-01 -0.36887998041E+02 -0.37479333873E+02  0.52796985321E+02  0.47000000000E+01 0.  1.
         -5    1    5    5    0  503 -0.37018959895E+02  0.80000419046E+02 -0.29281268199E+03  0.30582973559E+03  0.47000000000E+01 0.  1.
<mgrwt>
<rscale>  0 0.27506671E+03</rscale>
<asrwt>0</asrwt>
<pdfrwt beam="1">  1        1 0.11956775E+00 0.27506671E+03</pdfrwt>
<pdfrwt beam="2">  1       -1 0.37443401E-02 0.27506671E+03</pdfrwt>
<totfact> 0.65250645E+03</totfact>
</mgrwt>
</event>
<event>
 9    1  0.2114844E-002  0.2747320E+03  0.7818608E-02  0.1098601E+00
          1   -1    0    0  501    0  0.00000000000E+00  0.00000000000E+00  0.51746717562E+03  0.51746717562E+03  0.00000000000E+00 0.  1.
         -1   -1    0    0    0  501 -0.00000000000E+00 -0.00000000000E+00 -0.36464962291E+02  0.36464962291E+02  0.00000000000E+00 0.  1.
         36    2    1    2    0    0 -0.71054273576E-14  0.71054273576E-14  0.48100221333E+03  0.55393213791E+03  0.27473202249E+03 0.  0.
         25    2    3    3    0    0 -0.29094473778E+02 -0.58859576643E+02  0.24457278852E+03  0.28278875233E+03  0.12586775358E+03 0.  0.
         25    2    3    3    0    0  0.29094473778E+02  0.58859576643E+02  0.23642942481E+03  0.27114338558E+03  0.11536431192E+03 0.  0.
          5    1    4    4  502    0  0.49562858242E+02 -0.27297315635E+02  0.89091380759E+02  0.10564556064E+03  0.47000000000E+01 0.  1.
         -5    1    4    4    0  502 -0.78657332020E+02 -0.31562261008E+02  0.15548140776E+03  0.17714319169E+03  0.47000000000E+01 0.  1.
          5    1    5    5  503    0  0.38344931995E+02 -0.17068806354E+02  0.32504823125E+02  0.53294760403E+02  0.47000000000E+01 0. -1.
         -5    1    5    5    0  503 -0.92504582164E+01  0.75928382996E+02  0.20392460168E+03  0.21784862518E+03  0.47000000000E+01 0. -1.
<mgrwt>
<rscale>  0 0.27473202E+03</rscale>
<asrwt>0</asrwt>
<pdfrwt beam="1">  1        1 0.79610329E-01 0.27473202E+03</pdfrwt>
<pdfrwt beam="2">  1       -1 0.56099946E-02 0.27473202E+03</pdfrwt>
<totfact> 0.63486594E+03</totfact>
</mgrwt>
</event>
<event>
 9    1  0.2114844E-002  0.2762003E+03  0.7818608E-02  0.1097783E+00
         -2   -1    0    0    0  501 -0.00000000000E+00  0.00000000000E+00  0.27104504690E+02  0.27104504690E+02  0.00000000000E+00 0. -1.
          2   -1    0    0  501    0  0.00000000000E+00 -0.00000000000E+00 -0.70363411119E+03  0.70363411119E+03  0.00000000000E+00 0. -1.
         36    2    1    2    0    0 -0.35527136788E-14  0.71054273576E-14 -0.67652960650E+03  0.73073861588E+03  0.27620031909E+03 0.  0.
         25    2    3    3    0    0 -0.47771981264E+01 -0.56606649991E+02 -0.29440364215E+03  0.32469539639E+03  0.12460522252E+03 0.  0.
         25    2    3    3    0    0  0.47771981264E+01  0.56606649991E+02 -0.38212596435E+03  0.40604321949E+03  0.12499483597E+03 0.  0.
          5    1    4    4  502    0  0.89176758470E+01 -0.66844654928E+02 -0.62345727753E+02  0.91960929769E+02  0.47000000000E+01 0.  1.
         -5    1    4    4    0  502 -0.13694873973E+02  0.10238004936E+02 -0.23205791440E+03  0.23273446662E+03  0.47000000000E+01 0.  1.
          5    1    5    5  503    0 -0.43490504559E+02  0.69386747214E+00 -0.53129161276E+02  0.68823711152E+02  0.47000000000E+01 0. -1.
         -5    1    5    5    0  503  0.48267702686E+02  0.55912782519E+02 -0.32899680307E+03  0.33721950833E+03  0.47000000000E+01 0. -1.
<mgrwt>
<rscale>  0 0.27620032E+03</rscale>
<asrwt>0</asrwt>
<pdfrwt beam="1">  1        2 0.10825140E+00 0.27620032E+03</pdfrwt>
<pdfrwt beam="2">  1       -2 0.41699240E-02 0.27620032E+03</pdfrwt>
<totfact> 0.10715035E+04</totfact>
</mgrwt>
</event>
<event>
 9    1  0.2114844E-002  0.2752046E+03  0.7818608E-02  0.1098337E+00
          2   -1    0    0  501    0  0.00000000000E+00  0.00000000000E+00  0.37412830883E+03  0.37412830883E+03  0.00000000000E+00 0. -1.
         -2   -1    0    0    0  501 -0.00000000000E+00 -0.00000000000E+00 -0.50609345753E+02  0.50609345753E+02  0.00000000000E+00 0. -1.
         36    2    1    2    0    0  0.00000000000E+00 -0.71054273576E-14  0.32351896308E+03  0.42473765459E+03  0.27520457073E+03 0.  0.
         25    2    3    3    0    0 -0.40275745960E+02 -0.42816960681E+02  0.19179253260E+03  0.23633489356E+03  0.12495750686E+03 0.  0.
         25    2    3    3    0    0  0.40275745960E+02  0.42816960681E+02  0.13172643048E+03  0.18840276102E+03  0.12119537961E+03 0.  0.
          5    1    4    4  502    0 -0.54599918517E+02 -0.16772722890E+02  0.19755085727E+03  0.20569615102E+03  0.47000000000E+01 0. -1.
         -5    1    4    4    0  502  0.14324172557E+02 -0.26044237792E+02 -0.57583246742E+01  0.30638742543E+02  0.47000000000E+01 0. -1.
          5    1    5    5  503    0  0.56383696525E+02 -0.20420067844E+02  0.97509416217E+02  0.11456996402E+03  0.47000000000E+01 0. -1.
         -5    1    5    5    0  503 -0.16107950565E+02  0.63237028525E+02  0.34217014266E+02  0.73832797004E+02  0.47000000000E+01 0. -1.
<mgrwt>
<rscale>  0 0.27520457E+03</rscale>
<asrwt>0</asrwt>
<pdfrwt beam="1">  1        2 0.57558199E-01 0.27520457E+03</pdfrwt>
<pdfrwt beam="2">  1       -2 0.77860535E-02 0.27520457E+03</pdfrwt>
<totfact> 0.84184823E+03</totfact>
</mgrwt>
</event>
<event>
 9    1  0.2114844E-002  0.2742024E+03  0.7818608E-02  0.1098898E+00
          2   -1    0    0  501    0  0.00000000000E+00  0.00000000000E+00  0.20096478839E+04  0.20096478839E+04  0.00000000000E+00 0. -1.
         -2   -1    0    0    0  501 -0.00000000000E+00 -0.00000000000E+00 -0.93532507119E+01  0.93532507119E+01  0.00000000000E+00 0. -1.
         36    2    1    2    0    0  0.14210854715E-13  0.71054273576E-14  0.20002946332E+04  0.20190011346E+04  0.27420241064E+03 0.  0.
         25    2    3    3    0    0  0.50962355495E+02  0.30803492734E+02  0.84022878345E+03  0.85091778507E+03  0.12054315230E+03 0.  0.
         25    2    3    3    0    0 -0.50962355495E+02 -0.30803492734E+02  0.11600658497E+04  0.11680833495E+04  0.12296307945E+03 0.  0.
          5    1    4    4  502    0 -0.45985000689E+01 -0.57089667553E+00  0.65347811039E+03  0.65351144051E+03  0.47000000000E+01 0.  1.
         -5    1    4    4    0  502  0.55560855564E+02  0.31374389410E+02  0.18675067306E+03  0.19740634456E+03  0.47000000000E+01 0.  1.
          5    1    5    5  503    0 -0.66400916547E+01  0.21932948819E+02  0.43556155484E+02  0.49440608224E+02  0.47000000000E+01 0.  1.
         -5    1    5    5    0  503 -0.44322263840E+02 -0.52736441553E+02  0.11165096943E+04  0.11186427413E+04  0.47000000000E+01 0.  1.
<mgrwt>
<rscale>  0 0.27420241E+03</rscale>
<asrwt>0</asrwt>
<pdfrwt beam="1">  1        2 0.30917625E+00 0.27420241E+03</pdfrwt>
<pdfrwt beam="2">  1       -2 0.14389632E-02 0.27420241E+03</pdfrwt>
<totfact> 0.92062043E+03</totfact>
</mgrwt>
</event>
<event>
 9    1  0.2114844E-002  0.2734947E+03  0.7818608E-02  0.1099296E+00
         -3   -1    0    0    0  501 -0.00000000000E+00  0.00000000000E+00  0.19965112320E+03  0.19965112320E+03  0.00000000000E+00 0.  1.
          3   -1    0    0  501    0  0.00000000000E+00 -0.00000000000E+00 -0.93662565654E+02  0.93662565654E+02  0.00000000000E+00 0.  1.
         36    2    1    2    0    0  0.00000000000E+00  0.00000000000E+00  0.10598855755E+03  0.29331368886E+03  0.27349469051E+03 0.  0.
         25    2    3    3    0    0 -0.43518839961E+02  0.19579271234E+02  0.78994951970E+02  0.15753080276E+03  0.12766563393E+03 0.  0.
         25    2    3    3    0    0  0.43518839961E+02 -0.19579271234E+02  0.26993605580E+02  0.13578288610E+03  0.12422197922E+03 0.  0.
          5    1    4    4  502    0 -0.42589999175E+02  0.43021919453E+02  0.10556065430E+03  0.12177822186E+03  0.47000000000E+01 0. -1.
         -5    1    4    4    0  502 -0.92884078636E+00 -0.23442648219E+02 -0.26565702328E+02  0.35752580898E+02  0.47000000000E+01 0. -1.
          5    1    5    5  503    0  0.50863606188E+02  0.43134876700E+02 -0.23990864465E+00  0.66857098191E+02  0.47000000000E+01 0. -1.
         -5    1    5    5    0  503 -0.73447662270E+01 -0.62714147934E+02  0.27233514225E+02  0.68925787910E+02  0.47000000000E+01 0. -1.
<mgrwt>
<rscale>  0 0.27349469E+03</rscale>
<asrwt>0</asrwt>
<pdfrwt beam="1">  1        3 0.14409626E-01 0.27349469E+03</pdfrwt>
<pdfrwt beam="2">  1       -3 0.30715557E-01 0.27349469E+03</pdfrwt>
<totfact> 0.10386185E+03</totfact>
</mgrwt>
</event>
<event>
 9    1  0.2114844E-002  0.2755008E+03  0.7818608E-02  0.1098172E+00
         -1   -1    0    0    0  501 -0.00000000000E+00  0.00000000000E+00  0.35640025179E+03  0.35640025179E+03  0.00000000000E+00 0.  1.
          1   -1    0    0  501    0  0.00000000000E+00 -0.00000000000E+00 -0.53241196749E+02  0.53241196749E+02  0.00000000000E+00 0.  1.
         36    2    1    2    0    0  0.35527136788E-14 -0.71054273576E-14  0.30315905504E+03  0.40964144854E+03  0.27550082342E+03 0.  0.
         25    2    3    3    0    0  0.25402787473E+02 -0.90042780639E+01  0.72496313738E+02  0.14556828286E+03  0.12332084509E+03 0.  0.
         25    2    3    3    0    0 -0.25402787473E+02  0.90042780639E+01  0.23066274130E+03  0.26407316568E+03  0.12570981653E+03 0.  0.
          5    1    4    4  502    0 -0.46069723377E+01  0.28102894359E+02 -0.24179245652E+02  0.37652659743E+02  0.47000000000E+01 0.  1.
         -5    1    4    4    0  502  0.30009759811E+02 -0.37107172422E+02  0.96675559389E+02  0.10791562312E+03  0.47000000000E+01 0.  1.
          5    1    5    5  503    0  0.78055193381E+01  0.62939610349E+02  0.13523169724E+03  0.14943902643E+03  0.47000000000E+01 0.  1.
         -5    1    5    5    0  503 -0.33208306811E+02 -0.53935332285E+02  0.95431044061E+02  0.11463413925E+03  0.47000000000E+01 0.  1.
<mgrwt>
<rscale>  0 0.27550082E+03</rscale>
<asrwt>0</asrwt>
<pdfrwt beam="1">  1        1 0.81909536E-02 0.27550082E+03</pdfrwt>
<pdfrwt beam="2">  1       -1 0.54830807E-01 0.27550082E+03</pdfrwt>
<totfact> 0.28984447E+03</totfact>
</mgrwt>
</event>
<event>
 9    1  0.2114844E-002  0.2747161E+03  0.7818608E-02  0.1098610E+00
         -2   -1    0    0    0  501 -0.00000000000E+00  0.00000000000E+00  0.11843970799E+02  0.11843970799E+02  0.00000000000E+00 0. -1.
          2   -1    0    0  501    0  0.00000000000E+00 -0.00000000000E+00 -0.15929821973E+04  0.15929821973E+04  0.00000000000E+00 0. -1.
         36    2    1    2    0    0  0.35527136788E-14  0.00000000000E+00 -0.15811382265E+04  0.16048261681E+04  0.27471610530E+03 0.  0.
         25    2    3    3    0    0  0.20137882508E+02  0.61006081784E+02 -0.61512880526E+03  0.63122424936E+03  0.12622729335E+03 0.  0.
         25    2    3    3    0    0 -0.20137882508E+02 -0.61006081784E+02 -0.96600942123E+03  0.97360191873E+03  0.10295250326E+03 0.  0.
          5    1    4    4  502    0 -0.27241299098E+02  0.15460101213E+02 -0.34365179892E+02  0.46734983632E+02  0.47000000000E+01 0.  1.
         -5    1    4    4    0  502  0.47379181606E+02  0.45545980571E+02 -0.58076362537E+03  0.58448926573E+03  0.47000000000E+01 0.  1.
          5    1    5    5  503    0 -0.48476555172E+02  0.53500078179E+01 -0.40383156318E+03  0.40679309287E+03  0.47000000000E+01 0.  1.
         -5    1    5    5    0  503  0.28338672664E+02 -0.66356089602E+02 -0.56217785804E+03  0.56680882586E+03  0.47000000000E+01 0.  1.
<mgrwt>
<rscale>  0 0.27471611E+03</rscale>
<asrwt>0</asrwt>
<pdfrwt beam="1">  1        2 0.24507414E+00 0.27471611E+03</pdfrwt>
<pdfrwt beam="2">  1       -2 0.18221497E-02 0.27471611E+03</pdfrwt>
<totfact> 0.10791827E+04</totfact>
</mgrwt>
</event>
<event>
 9    1  0.2114844E-002  0.2744489E+03  0.7818608E-02  0.1098760E+00
         -2   -1    0    0    0  501 -0.00000000000E+00  0.00000000000E+00  0.25910361533E+03  0.25910361533E+03  0.00000000000E+00 0.  1.
          2   -1    0    0  501    0  0.00000000000E+00 -0.00000000000E+00 -0.72675759385E+02  0.72675759385E+02  0.00000000000E+00 0.  1.
         36    2    1    2    0    0 -0.71054273576E-14  0.00000000000E+00  0.18642785595E+03  0.33177937472E+03  0.27444891695E+03 0.  0.
         25    2    3    3    0    0 -0.50283256486E+02 -0.24570625989E+02  0.11503919229E+03  0.17818439542E+03  0.12403040541E+03 0.  0.
         25    2    3    3    0    0  0.50283256486E+02  0.24570625989E+02  0.71388663664E+02  0.15359497930E+03  0.12394738731E+03 0.  0.
          5    1    4    4  502    0  0.22073483215E+02  0.31077987695E+02  0.60756100032E+02  0.71878186339E+02  0.47000000000E+01 0. -1.
         -5    1    4    4    0  502 -0.72356739701E+02 -0.55648613684E+02  0.54283092254E+02  0.10630620908E+03  0.47000000000E+01 0. -1.
          5    1    5    5  503    0  0.86708884782E+02  0.81486971872E+01  0.22105162061E+02  0.89975330818E+02  0.47000000000E+01 0. -1.
         -5    1    5    5    0  503 -0.36425628296E+02  0.16421928802E+02  0.49283501604E+02  0.63619648480E+02  0.47000000000E+01 0. -1.
<mgrwt>
<rscale>  0 0.27444892E+03</rscale>
<asrwt>0</asrwt>
<pdfrwt beam="1">  1        2 0.11180886E-01 0.27444892E+03</pdfrwt>
<pdfrwt beam="2">  1       -2 0.39862094E-01 0.27444892E+03</pdfrwt>
<totfact> 0.33287309E+03</totfact>
</mgrwt>
</event>
<event>
 9    1  0.2114844E-002  0.2743918E+03  0.7818608E-02  0.1098792E+00
         -3   -1    0    0    0  501 -0.00000000000E+00  0.00000000000E+00  0.49609301968E+02  0.49609301968E+02  0.00000000000E+00 0. -1.
          3   -1    0    0  501    0  0.00000000000E+00 -0.00000000000E+00 -0.37941917889E+03  0.37941917889E+03  0.00000000000E+00 0. -1.
         36    2    1    2    0    0  0.00000000000E+00  0.00000000000E+00 -0.32980987692E+03  0.42902848085E+03  0.27439184112E+03 0.  0.
         25    2    3    3    0    0 -0.41520445778E+01  0.46640212432E+02 -0.13932805089E+03  0.19734343015E+03  0.13167981913E+03 0.  0.
         25    2    3    3    0    0  0.41520445778E+01 -0.46640212432E+02 -0.19048182603E+03  0.23168505071E+03  0.12329674686E+03 0.  0.
          5    1    4    4  502    0  0.58300159838E+02  0.42844087860E+02 -0.49564791099E+02  0.87825298282E+02  0.47000000000E+01 0.  1.
         -5    1    4    4    0  502 -0.62452204416E+02  0.37961245724E+01 -0.89763259792E+02  0.10951813186E+03  0.47000000000E+01 0.  1.
          5    1    5    5  503    0  0.15182153301E+02 -0.80740129940E+02 -0.77414085388E+02  0.11298007337E+03  0.47000000000E+01 0. -1.
         -5    1    5    5    0  503 -0.11030108723E+02  0.34099917508E+02 -0.11306774064E+03  0.11870497734E+03  0.47000000000E+01 0. -1.
<mgrwt>
<rscale>  0 0.27439184E+03</rscale>
<asrwt>0</asrwt>
<pdfrwt beam="1">  1        3 0.58372178E-01 0.27439184E+03</pdfrwt>
<pdfrwt beam="2">  1       -3 0.76322008E-02 0.27439184E+03</pdfrwt>
<totfact> 0.85373587E+02</totfact>
</mgrwt>
</event>
<event>
 9    1  0.2114844E-002  0.2746511E+03  0.7818608E-02  0.1098647E+00
         -2   -1    0    0    0  501 -0.00000000000E+00  0.00000000000E+00  0.13552194964E+02  0.13552194964E+02  0.00000000000E+00 0. -1.
          2   -1    0    0  501    0  0.00000000000E+00 -0.00000000000E+00 -0.13915316268E+04  0.13915316268E+04  0.00000000000E+00 0. -1.
         36    2    1    2    0    0  0.00000000000E+00  0.00000000000E+00 -0.13779794319E+04  0.14050838218E+04  0.27465110890E+03 0.  0.
         25    2    3    3    0    0 -0.27814836497E+01 -0.92385863448E+01 -0.95804210215E+03  0.96629893841E+03  0.12568166434E+03 0.  0.
         25    2    3    3    0    0  0.27814836497E+01  0.92385863448E+01 -0.41993732973E+03  0.43878488339E+03  0.12685316263E+03 0.  0.
          5    1    4    4  502    0 -0.44168683206E+02 -0.45661948832E+02 -0.35045599451E+03  0.35619851240E+03  0.47000000000E+01 0.  1.
         -5    1    4    4    0  502  0.41387199556E+02  0.36423362487E+02 -0.60758610764E+03  0.61010042601E+03  0.47000000000E+01 0.  1.
          5    1    5    5  503    0 -0.49618052593E+02  0.30762620157E+02 -0.12025880033E+03  0.13376307038E+03  0.47000000000E+01 0. -1.
         -5    1    5    5    0  503  0.52399536243E+02 -0.21524033812E+02 -0.29967852940E+03  0.30502181301E+03  0.47000000000E+01 0. -1.
<mgrwt>
<rscale>  0 0.27465111E+03</rscale>
<asrwt>0</asrwt>
<pdfrwt beam="1">  1        2 0.21408178E+00 0.27465111E+03</pdfrwt>
<pdfrwt beam="2">  1       -2 0.20849532E-02 0.27465111E+03</pdfrwt>
<totfact> 0.11352065E+04</totfact>
</mgrwt>
</event>
<event>
 9    1  0.2114844E-002  0.2763572E+03  0.7818608E-02  0.1097695E+00
         -1   -1    0    0    0  501 -0.00000000000E+00  0.00000000000E+00  0.20025496506E+02  0.20025496506E+02  0.00000000000E+00 0. -1.
          1   -1    0    0  501    0  0.00000000000E+00 -0.00000000000E+00 -0.95345071403E+03  0.95345071403E+03  0.00000000000E+00 0. -1.
         36    2    1    2    0    0 -0.71054273576E-14  0.00000000000E+00 -0.93342521752E+03  0.97347621053E+03  0.27635718874E+03 0.  0.
         25    2    3    3    0    0 -0.27517823450E+02  0.49496339703E+01 -0.61795918481E+03  0.63228014823E+03  0.13085450804E+03 0.  0.
         25    2    3    3    0    0  0.27517823450E+02 -0.49496339703E+01 -0.31546603272E+03  0.34119606230E+03  0.12694174117E+03 0.  0.
          5    1    4    4  502    0 -0.20000522525E+02 -0.18630165779E+02 -0.20995386366E+02  0.34785057523E+02  0.47000000000E+01 0.  1.
         -5    1    4    4    0  502 -0.75173009251E+01  0.23579799750E+02 -0.59696379844E+03  0.59749509071E+03  0.47000000000E+01 0.  1.
          5    1    5    5  503    0  0.31647750433E+02 -0.37968965283E+02 -0.30021036446E+03  0.30428863824E+03  0.47000000000E+01 0.  1.
         -5    1    5    5    0  503 -0.41299269825E+01  0.33019331312E+02 -0.15255668256E+02  0.36907424065E+02  0.47000000000E+01 0.  1.
<mgrwt>
<rscale>  0 0.27635719E+03</rscale>
<asrwt>0</asrwt>
<pdfrwt beam="1">  1        1 0.14668470E+00 0.27635719E+03</pdfrwt>
<pdfrwt beam="2">  1       -1 0.30808461E-02 0.27635719E+03</pdfrwt>
<totfact> 0.62868131E+03</totfact>
</mgrwt>
</event>
<event>
 9    1  0.2114844E-002  0.2754969E+03  0.7818608E-02  0.1098174E+00
          1   -1    0    0  501    0  0.00000000000E+00  0.00000000000E+00  0.21103760899E+04  0.21103760899E+04  0.00000000000E+00 0. -1.
         -1   -1    0    0    0  501 -0.00000000000E+00 -0.00000000000E+00 -0.89911130931E+01  0.89911130931E+01  0.00000000000E+00 0. -1.
         36    2    1    2    0    0  0.71054273576E-14 -0.35527136788E-14  0.21013849768E+04  0.21193672030E+04  0.27549686091E+03 0.  0.
         25    2    3    3    0    0 -0.24175456452E+02  0.14321867036E+02  0.64408773153E+03  0.65681045953E+03  0.12554443543E+03 0.  0.
         25    2    3    3    0    0  0.24175456452E+02 -0.14321867036E+02  0.14572972452E+04  0.14625567434E+04  0.12069547711E+03 0.  0.
          5    1    4    4  502    0  0.12905920954E+02  0.63811379578E+02  0.28251178495E+03  0.28995422673E+03  0.47000000000E+01 0.  1.
         -5    1    4    4    0  502 -0.37081377406E+02 -0.49489512542E+02  0.36157594658E+03  0.36685623280E+03  0.47000000000E+01 0.  1.
          5    1    5    5  503    0 -0.12360096512E+02  0.15130265815E+02  0.42895404455E+02  0.47368794082E+02  0.47000000000E+01 0.  1.
         -5    1    5    5    0  503  0.36535552964E+02 -0.29452132851E+02  0.14144018408E+04  0.14151879494E+04  0.47000000000E+01 0.  1.
<mgrwt>
<rscale>  0 0.27549686E+03</rscale>
<asrwt>0</asrwt>
<pdfrwt beam="1">  1        1 0.32467285E+00 0.27549686E+03</pdfrwt>
<pdfrwt beam="2">  1       -1 0.13832499E-02 0.27549686E+03</pdfrwt>
<totfact> 0.33586048E+03</totfact>
</mgrwt>
</event>
<event>
 9    1  0.2114844E-002  0.2756668E+03  0.7818608E-02  0.1098079E+00
          2   -1    0    0  501    0  0.00000000000E+00  0.00000000000E+00  0.46104307553E+04  0.46104307553E+04  0.00000000000E+00 0. -1.
         -2   -1    0    0    0  501 -0.00000000000E+00 -0.00000000000E+00 -0.41206647626E+01  0.41206647626E+01  0.00000000000E+00 0. -1.
         36    2    1    2    0    0  0.00000000000E+00  0.71054273576E-14  0.46063100905E+04  0.46145514201E+04  0.27566675210E+03 0.  0.
         25    2    3    3    0    0  0.14448235623E+02 -0.41671993116E+02  0.17268196126E+04  0.17319322984E+04  0.12545200401E+03 0.  0.
         25    2    3    3    0    0 -0.14448235623E+02  0.41671993116E+02  0.28794904779E+04  0.28826191216E+04  0.12681593526E+03 0.  0.
          5    1    4    4  502    0  0.89966916888E+01  0.40480861589E+02  0.32186012054E+03  0.32455456831E+03  0.47000000000E+01 0.  1.
         -5    1    4    4    0  502  0.54515439338E+01 -0.82152854705E+02  0.14049594921E+04  0.14073777301E+04  0.47000000000E+01 0.  1.
          5    1    5    5  503    0  0.51878092032E+02  0.23653938113E+02  0.18152279599E+04  0.18161292580E+04  0.47000000000E+01 0. -1.
         -5    1    5    5    0  503 -0.66326327654E+02  0.18018055002E+02  0.10642625180E+04  0.10664898636E+04  0.47000000000E+01 0. -1.
<mgrwt>
<rscale>  0 0.27566675E+03</rscale>
<asrwt>0</asrwt>
<pdfrwt beam="1">  1        2 0.70929291E+00 0.27566675E+03</pdfrwt>
<pdfrwt beam="2">  1       -2 0.63395211E-03 0.27566675E+03</pdfrwt>
<totfact> 0.54995087E+02</totfact>
</mgrwt>
</event>
<event>
 9    1  0.2114844E-002  0.2752234E+03  0.7818608E-02  0.1098327E+00
         -1   -1    0    0    0  501 -0.00000000000E+00  0.00000000000E+00  0.20496369758E+02  0.20496369758E+02  0.00000000000E+00 0.  1.
          1   -1    0    0  501    0  0.00000000000E+00 -0.00000000000E+00 -0.92391871360E+03  0.92391871360E+03  0.00000000000E+00 0.  1.
         36    2    1    2    0    0  0.17763568394E-14  0.71054273576E-14 -0.90342234384E+03  0.94441508335E+03  0.27522339711E+03 0.  0.
         25    2    3    3    0    0 -0.94653477334E+01 -0.42551397250E+02 -0.56943670649E+03  0.58573447849E+03  0.13010189230E+03 0.  0.
         25    2    3    3    0    0  0.94653477334E+01  0.42551397250E+02 -0.33398563735E+03  0.35868060486E+03  0.12330918917E+03 0.  0.
          5    1    4    4  502    0 -0.10568552089E+02  0.21462197637E+02 -0.44542965453E+03  0.44609638796E+03  0.47000000000E+01 0. -1.
         -5    1    4    4    0  502  0.11032043557E+01 -0.64013594887E+02 -0.12400705196E+03  0.13963809053E+03  0.47000000000E+01 0. -1.
          5    1    5    5  503    0 -0.35236697537E+02 -0.18104108373E+02 -0.45648249547E+02  0.60623727038E+02  0.47000000000E+01 0. -1.
         -5    1    5    5    0  503  0.44702045271E+02  0.60655505623E+02 -0.28833738780E+03  0.29805687783E+03  0.47000000000E+01 0. -1.
<mgrwt>
<rscale>  0 0.27522340E+03</rscale>
<asrwt>0</asrwt>
<pdfrwt beam="1">  1        1 0.14214135E+00 0.27522340E+03</pdfrwt>
<pdfrwt beam="2">  1       -1 0.31532873E-02 0.27522340E+03</pdfrwt>
<totfact> 0.64006893E+03</totfact>
</mgrwt>
</event>
<event>
 9    1  0.2114844E-002  0.2763001E+03  0.7818608E-02  0.1097727E+00
         -1   -1    0    0    0  501 -0.00000000000E+00  0.00000000000E+00  0.54502367141E+02  0.54502367141E+02  0.00000000000E+00 0. -1.
          1   -1    0    0  501    0  0.00000000000E+00 -0.00000000000E+00 -0.35017638249E+03  0.35017638249E+03  0.00000000000E+00 0. -1.
         36    2    1    2    0    0  0.00000000000E+00 -0.14210854715E-13 -0.29567401535E+03  0.40467874963E+03  0.27630013943E+03 0.  0.
         25    2    3    3    0    0 -0.18449764846E+02 -0.57251701673E+02 -0.14549910307E+03  0.20098798758E+03  0.12493210553E+03 0.  0.
         25    2    3    3    0    0  0.18449764846E+02  0.57251701673E+02 -0.15017491228E+03  0.20369076205E+03  0.12377104305E+03 0.  0.
          5    1    4    4  502    0  0.34859414770E+02 -0.74534565828E+02 -0.85798600059E+02  0.11897087910E+03  0.47000000000E+01 0.  1.
         -5    1    4    4    0  502 -0.53309179616E+02  0.17282864156E+02 -0.59700503008E+02  0.82017108485E+02  0.47000000000E+01 0.  1.
          5    1    5    5  503    0  0.60736574082E+02 -0.61423020081E+01 -0.69216746336E+02  0.92410536621E+02  0.47000000000E+01 0. -1.
         -5    1    5    5    0  503 -0.42286809236E+02  0.63394003681E+02 -0.80958165945E+02  0.11128022543E+03  0.47000000000E+01 0. -1.
<mgrwt>
<rscale>  0 0.27630014E+03</rscale>
<asrwt>0</asrwt>
<pdfrwt beam="1">  1        1 0.53873288E-01 0.27630014E+03</pdfrwt>
<pdfrwt beam="2">  1       -1 0.83849797E-02 0.27630014E+03</pdfrwt>
<totfact> 0.57257102E+03</totfact>
</mgrwt>
</event>
<event>
 9    1  0.2114844E-002  0.2749404E+03  0.7818608E-02  0.1098485E+00
         -1   -1    0    0    0  501 -0.00000000000E+00  0.00000000000E+00  0.64355966803E+03  0.64355966803E+03  0.00000000000E+00 0.  1.
          1   -1    0    0  501    0  0.00000000000E+00 -0.00000000000E+00 -0.29364877940E+02  0.29364877940E+02  0.00000000000E+00 0.  1.
         36    2    1    2    0    0 -0.14210854715E-13  0.00000000000E+00  0.61419479009E+03  0.67292454597E+03  0.27494036516E+03 0.  0.
         25    2    3    3    0    0 -0.34535328708E+02 -0.24203248491E+02  0.20537753296E+03  0.24427685169E+03  0.12535056066E+03 0.  0.
         25    2    3    3    0    0  0.34535328708E+02  0.24203248491E+02  0.40881725712E+03  0.42864769428E+03  0.12177360109E+03 0.  0.
          5    1    4    4  502    0  0.38023762178E+02 -0.33950839262E+02  0.45987479753E+02  0.68814273743E+02  0.47000000000E+01 0. -1.
         -5    1    4    4    0  502 -0.72559090886E+02  0.97475907709E+01  0.15939005321E+03  0.17546257794E+03  0.47000000000E+01 0. -1.
          5    1    5    5  503    0 -0.40824704078E+02  0.26702343412E+02  0.10991101120E+03  0.12034197933E+03  0.47000000000E+01 0.  1.
         -5    1    5    5    0  503  0.75360032786E+02 -0.24990949215E+01  0.29890624593E+03  0.30830571495E+03  0.47000000000E+01 0.  1.
<mgrwt>
<rscale>  0 0.27494037E+03</rscale>
<asrwt>0</asrwt>
<pdfrwt beam="1">  1        1 0.45176740E-02 0.27494037E+03</pdfrwt>
<pdfrwt beam="2">  1       -1 0.99009169E-01 0.27494037E+03</pdfrwt>
<totfact> 0.19742137E+03</totfact>
</mgrwt>
</event>
<event>
 9    1  0.2114844E-002  0.2762062E+03  0.7818608E-02  0.1097779E+00
         -1   -1    0    0    0  501 -0.00000000000E+00  0.00000000000E+00  0.38909744113E+02  0.38909744113E+02  0.00000000000E+00 0.  1.
          1   -1    0    0  501    0  0.00000000000E+00 -0.00000000000E+00 -0.49017201398E+03  0.49017201398E+03  0.00000000000E+00 0.  1.
         36    2    1    2    0    0  0.71054273576E-14  0.35527136788E-14 -0.45126226987E+03  0.52908175810E+03  0.27620621018E+03 0.  0.
         25    2    3    3    0    0 -0.32097927144E+02 -0.27580914552E+02 -0.29432141480E+03  0.32325628998E+03  0.12680122251E+03 0.  0.
         25    2    3    3    0    0  0.32097927144E+02  0.27580914552E+02 -0.15694085508E+03  0.20582546812E+03  0.12626443505E+03 0.  0.
          5    1    4    4  502    0 -0.37793790548E+02 -0.70686887295E+02 -0.24249745389E+03  0.25544492906E+03  0.47000000000E+01 0. -1.
         -5    1    4    4    0  502  0.56958634042E+01  0.43105972743E+02 -0.51823960901E+02  0.67811360918E+02  0.47000000000E+01 0. -1.
          5    1    5    5  503    0 -0.18456857677E+02  0.49748591512E+02 -0.17970656807E+02  0.56219324603E+02  0.47000000000E+01 0. -1.
         -5    1    5    5    0  503  0.50554784821E+02 -0.22167676960E+02 -0.13897019827E+03  0.14960614351E+03  0.47000000000E+01 0. -1.
<mgrwt>
<rscale>  0 0.27620621E+03</rscale>
<asrwt>0</asrwt>
<pdfrwt beam="1">  1        1 0.75411080E-01 0.27620621E+03</pdfrwt>
<pdfrwt beam="2">  1       -1 0.59861144E-02 0.27620621E+03</pdfrwt>
<totfact> 0.61889927E+03</totfact>
</mgrwt>
</event>
<event>
 9    1  0.2114844E-002  0.2750193E+03  0.7818608E-02  0.1098441E+00
          1   -1    0    0  501    0  0.00000000000E+00  0.00000000000E+00  0.14446875103E+03  0.14446875103E+03  0.00000000000E+00 0.  1.
         -1   -1    0    0    0  501 -0.00000000000E+00 -0.00000000000E+00 -0.13088579309E+03  0.13088579309E+03  0.00000000000E+00 0.  1.
         36    2    1    2    0    0  0.71054273576E-14  0.00000000000E+00  0.13582957946E+02  0.27535454412E+03  0.27501932336E+03 0.  0.
         25    2    3    3    0    0 -0.42997367020E+02 -0.70087098709E+02  0.93216864223E+01  0.14972253771E+03  0.12477567666E+03 0.  0.
         25    2    3    3    0    0  0.42997367020E+02  0.70087098709E+02  0.42612715236E+01  0.12563200641E+03  0.94890819493E+02 0.  0.
          5    1    4    4  502    0 -0.31670789303E+02 -0.29903666817E+02  0.65971786800E+02  0.79193654024E+02  0.47000000000E+01 0. -1.
         -5    1    4    4    0  502 -0.11326577717E+02 -0.40183431892E+02 -0.56650100377E+02  0.70528883687E+02  0.47000000000E+01 0. -1.
          5    1    5    5  503    0  0.66309912246E+02  0.24780445405E+02 -0.11976201434E+02  0.71948553407E+02  0.47000000000E+01 0. -1.
         -5    1    5    5    0  503 -0.23312545226E+02  0.45306653304E+02  0.16237472958E+02  0.53683453005E+02  0.47000000000E+01 0. -1.
<mgrwt>
<rscale>  0 0.27501932E+03</rscale>
<asrwt>0</asrwt>
<pdfrwt beam="1">  1        1 0.22225962E-01 0.27501932E+03</pdfrwt>
<pdfrwt beam="2">  1       -1 0.20136276E-01 0.27501932E+03</pdfrwt>
<totfact> 0.44119334E+03</totfact>
</mgrwt>
</event>
<event>
 9    1  0.2114844E-002  0.2753572E+03  0.7818608E-02  0.1098252E+00
         -3   -1    0    0    0  501 -0.00000000000E+00  0.00000000000E+00  0.62500047483E+03  0.62500047483E+03  0.00000000000E+00 0. -1.
          3   -1    0    0  501    0  0.00000000000E+00 -0.00000000000E+00 -0.30328617453E+02  0.30328617453E+02  0.00000000000E+00 0. -1.
         36    2    1    2    0    0  0.00000000000E+00  0.71054273576E-14  0.59467185738E+03  0.65532909229E+03  0.27535722478E+03 0.  0.
         25    2    3    3    0    0 -0.76023790115E+02  0.17104264093E+02  0.27938204389E+03  0.30781999746E+03  0.10308565309E+03 0.  0.
         25    2    3    3    0    0  0.76023790115E+02 -0.17104264093E+02  0.31528981349E+03  0.34750909483E+03  0.12362334725E+03 0.  0.
          5    1    4    4  502    0 -0.58597132758E+02  0.50742963581E+02  0.11297923265E+03  0.13709438110E+03  0.47000000000E+01 0. -1.
         -5    1    4    4    0  502 -0.17426657356E+02 -0.33638699488E+02  0.16640281125E+03  0.17072561636E+03  0.47000000000E+01 0. -1.
          5    1    5    5  503    0  0.43754273244E+02  0.51775646327E+02  0.12044119260E+03  0.13828711023E+03  0.47000000000E+01 0. -1.
         -5    1    5    5    0  503  0.32269516871E+02 -0.68879910420E+02  0.19484862089E+03  0.20922198460E+03  0.47000000000E+01 0. -1.
<mgrwt>
<rscale>  0 0.27535722E+03</rscale>
<asrwt>0</asrwt>
<pdfrwt beam="1">  1        3 0.46659416E-02 0.27535722E+03</pdfrwt>
<pdfrwt beam="2">  1       -3 0.96153910E-01 0.27535722E+03</pdfrwt>
<totfact> 0.63928583E+02</totfact>
</mgrwt>
</event>
<event>
 9    1  0.2114844E-002  0.2748539E+03  0.7818608E-02  0.1098533E+00
          2   -1    0    0  501    0  0.00000000000E+00  0.00000000000E+00  0.11323730743E+04  0.11323730743E+04  0.00000000000E+00 0.  1.
         -2   -1    0    0    0  501 -0.00000000000E+00 -0.00000000000E+00 -0.16678400087E+02  0.16678400087E+02  0.00000000000E+00 0.  1.
         36    2    1    2    0    0  0.00000000000E+00  0.00000000000E+00  0.11156946742E+04  0.11490514744E+04  0.27485393343E+03 0.  0.
         25    2    3    3    0    0 -0.47902633852E+02 -0.18834645093E+02  0.66722239985E+03  0.68055078768E+03  0.12375070733E+03 0.  0.
         25    2    3    3    0    0  0.47902633852E+02  0.18834645093E+02  0.44847227437E+03  0.46850068672E+03  0.12536389586E+03 0.  0.
          5    1    4    4  502    0  0.45927124607E+01  0.25649098805E+02  0.48485869142E+03  0.48558110540E+03  0.47000000000E+01 0.  1.
         -5    1    4    4    0  502 -0.52495346313E+02 -0.44483743898E+02  0.18236370843E+03  0.19496968228E+03  0.47000000000E+01 0.  1.
          5    1    5    5  503    0  0.71496570424E+02  0.45357067829E+02  0.19678425543E+03  0.21427822188E+03  0.47000000000E+01 0.  1.
         -5    1    5    5    0  503 -0.23593936572E+02 -0.26522422736E+02  0.25168801894E+03  0.25422246484E+03  0.47000000000E+01 0.  1.
<mgrwt>
<rscale>  0 0.27485393E+03</rscale>
<asrwt>0</asrwt>
<pdfrwt beam="1">  1        2 0.17421118E+00 0.27485393E+03</pdfrwt>
<pdfrwt beam="2">  1       -2 0.25659086E-02 0.27485393E+03</pdfrwt>
<totfact> 0.11670031E+04</totfact>
</mgrwt>
</event>
<event>
 9    1  0.2114844E-002  0.2747000E+03  0.7818608E-02  0.1098619E+00
         -2   -1    0    0    0  501 -0.00000000000E+00  0.00000000000E+00  0.49812621383E+02  0.49812621383E+02  0.00000000000E+00 0. -1.
          2   -1    0    0  501    0  0.00000000000E+00 -0.00000000000E+00 -0.37871975107E+03  0.37871975107E+03  0.00000000000E+00 0. -1.
         36    2    1    2    0    0  0.35527136788E-14  0.00000000000E+00 -0.32890712969E+03  0.42853237246E+03  0.27470000779E+03 0.  0.
         25    2    3    3    0    0 -0.37087304415E+01 -0.19849835571E+02 -0.24551113389E+03  0.27681483857E+03  0.12626546375E+03 0.  0.
         25    2    3    3    0    0  0.37087304415E+01  0.19849835571E+02 -0.83395995801E+02  0.15171753388E+03  0.12512212961E+03 0.  0.
          5    1    4    4  502    0 -0.50559975924E+02 -0.35958387747E+02 -0.19971973523E+03  0.20918742662E+03  0.47000000000E+01 0. -1.
         -5    1    4    4    0  502  0.46851245483E+02  0.16108552176E+02 -0.45791398660E+02  0.67627411955E+02  0.47000000000E+01 0. -1.
          5    1    5    5  503    0 -0.21471782941E+02  0.47200968662E+02 -0.98420431783E+02  0.11134469138E+03  0.47000000000E+01 0. -1.
         -5    1    5    5    0  503  0.25180513383E+02 -0.27351133091E+02  0.15024435981E+02  0.40372842507E+02  0.47000000000E+01 0. -1.
<mgrwt>
<rscale>  0 0.27470001E+03</rscale>
<asrwt>0</asrwt>
<pdfrwt beam="1">  1        2 0.58264578E-01 0.27470001E+03</pdfrwt>
<pdfrwt beam="2">  1       -2 0.76634801E-02 0.27470001E+03</pdfrwt>
<totfact> 0.85155404E+03</totfact>
</mgrwt>
</event>
<event>
 9    1  0.2114844E-002  0.2751805E+03  0.7818608E-02  0.1098351E+00
          2   -1    0    0  501    0  0.00000000000E+00  0.00000000000E+00  0.30574946786E+03  0.30574946786E+03  0.00000000000E+00 0. -1.
         -2   -1    0    0    0  501 -0.00000000000E+00 -0.00000000000E+00 -0.61916975586E+02  0.61916975586E+02  0.00000000000E+00 0. -1.
         36    2    1    2    0    0  0.00000000000E+00  0.35527136788E-14  0.24383249227E+03  0.36766644345E+03  0.27518053955E+03 0.  0.
         25    2    3    3    0    0 -0.95116671148E+01  0.20866360956E+02  0.61377064597E+02  0.14537131716E+03  0.12976825099E+03 0.  0.
         25    2    3    3    0    0  0.95116671148E+01 -0.20866360956E+02  0.18245542768E+03  0.22229512628E+03  0.12489701057E+03 0.  0.
          5    1    4    4  502    0 -0.41546202159E+02  0.46615733287E+02  0.78656928841E+02  0.10053912650E+03  0.47000000000E+01 0. -1.
         -5    1    4    4    0  502  0.32034535044E+02 -0.25749372331E+02 -0.17279864244E+02  0.44832190658E+02  0.47000000000E+01 0. -1.
          5    1    5    5  503    0 -0.47159478772E+02 -0.37636323530E+02  0.12890211283E+03  0.14240208558E+03  0.47000000000E+01 0. -1.
         -5    1    5    5    0  503  0.56671145887E+02  0.16769962573E+02  0.53553314850E+02  0.79893040699E+02  0.47000000000E+01 0. -1.
<mgrwt>
<rscale>  0 0.27518054E+03</rscale>
<asrwt>0</asrwt>
<pdfrwt beam="1">  1        2 0.47038379E-01 0.27518054E+03</pdfrwt>
<pdfrwt beam="2">  1       -2 0.95256887E-02 0.27518054E+03</pdfrwt>
<totfact> 0.76239574E+03</totfact>
</mgrwt>
</event>
<event>
 9    1  0.2114844E-002  0.2745663E+03  0.7818608E-02  0.1098694E+00
         -2   -1    0    0    0  501 -0.00000000000E+00  0.00000000000E+00  0.15404172944E+02  0.15404172944E+02  0.00000000000E+00 0. -1.
          2   -1    0    0  501    0  0.00000000000E+00 -0.00000000000E+00 -0.12234773824E+04  0.12234773824E+04  0.00000000000E+00 0. -1.
         36    2    1    2    0    0  0.35527136788E-14  0.00000000000E+00 -0.12080732094E+04  0.12388815553E+04  0.27456625570E+03 0.  0.
         25    2    3    3    0    0  0.17345153477E+02  0.11987242907E+02 -0.75948001701E+03  0.77006502195E+03  0.12548184513E+03 0.  0.
         25    2    3    3    0    0 -0.17345153477E+02 -0.11987242907E+02 -0.44859319244E+03  0.46881653339E+03  0.13456798033E+03 0.  0.
          5    1    4    4  502    0  0.18110696179E+02 -0.64703391245E+01 -0.74704143023E+03  0.74730372078E+03  0.47000000000E+01 0. -1.
         -5    1    4    4    0  502 -0.76554270214E+00  0.18457582032E+02 -0.12438586773E+02  0.22761301171E+02  0.47000000000E+01 0. -1.
          5    1    5    5  503    0  0.28749078306E+01 -0.55423042344E+02 -0.38525103904E+03  0.38925625467E+03  0.47000000000E+01 0. -1.
         -5    1    5    5    0  503 -0.20220061307E+02  0.43435799437E+02 -0.63342153398E+02  0.79560278714E+02  0.47000000000E+01 0. -1.
<mgrwt>
<rscale>  0 0.27456626E+03</rscale>
<asrwt>0</asrwt>
<pdfrwt beam="1">  1        2 0.18822732E+00 0.27456626E+03</pdfrwt>
<pdfrwt beam="2">  1       -2 0.23698724E-02 0.27456626E+03</pdfrwt>
<totfact> 0.11641009E+04</totfact>
</mgrwt>
</event>
<event>
 9    1  0.2114844E-002  0.2751970E+03  0.7818608E-02  0.1098342E+00
          3   -1    0    0  501    0  0.00000000000E+00  0.00000000000E+00  0.94472174343E+02  0.94472174343E+02  0.00000000000E+00 0.  1.
         -3   -1    0    0    0  501 -0.00000000000E+00 -0.00000000000E+00 -0.20041185106E+03  0.20041185106E+03  0.00000000000E+00 0.  1.
         36    2    1    2    0    0  0.00000000000E+00 -0.35527136788E-14 -0.10593967672E+03  0.29488402541E+03  0.27519697189E+03 0.  0.
         25    2    3    3    0    0  0.72252758749E+01  0.23202491089E+02  0.63557525289E+01  0.12473424776E+03  0.12217887203E+03 0.  0.
         25    2    3    3    0    0 -0.72252758749E+01 -0.23202491089E+02 -0.11229542925E+03  0.17014977764E+03  0.12549949481E+03 0.  0.
          5    1    4    4  502    0  0.52829504774E+02 -0.10049029413E+02  0.31793853911E+02  0.62648852450E+02  0.47000000000E+01 0.  1.
         -5    1    4    4    0  502 -0.45604228899E+02  0.33251520502E+02 -0.25438101382E+02  0.62085395312E+02  0.47000000000E+01 0.  1.
          5    1    5    5  503    0 -0.58530825385E+02 -0.13950876655E+02 -0.19176312307E+02  0.63326972400E+02  0.47000000000E+01 0. -1.
         -5    1    5    5    0  503  0.51305549510E+02 -0.92516144344E+01 -0.93119116942E+02  0.10682280524E+03  0.47000000000E+01 0. -1.
<mgrwt>
<rscale>  0 0.27519697E+03</rscale>
<asrwt>0</asrwt>
<pdfrwt beam="1">  1        3 0.14534181E-01 0.27519697E+03</pdfrwt>
<pdfrwt beam="2">  1       -3 0.30832592E-01 0.27519697E+03</pdfrwt>
<totfact> 0.10167499E+03</totfact>
</mgrwt>
</event>
<event>
 9    1  0.2114844E-002  0.2741563E+03  0.7818608E-02  0.1098924E+00
         -1   -1    0    0    0  501 -0.00000000000E+00  0.00000000000E+00  0.68310960755E+02  0.68310960755E+02  0.00000000000E+00 0.  1.
          1   -1    0    0  501    0  0.00000000000E+00 -0.00000000000E+00 -0.27507188606E+03  0.27507188606E+03  0.00000000000E+00 0.  1.
         36    2    1    2    0    0  0.00000000000E+00  0.00000000000E+00 -0.20676092531E+03  0.34338284682E+03  0.27415634090E+03 0.  0.
         25    2    3    3    0    0  0.25531032672E+02 -0.22593271043E+02 -0.57462837759E+02  0.14160751689E+03  0.12485360063E+03 0.  0.
         25    2    3    3    0    0 -0.25531032672E+02  0.22593271043E+02 -0.14929808755E+03  0.20177532993E+03  0.13138141153E+03 0.  0.
          5    1    4    4  502    0  0.10826471190E+02 -0.67969386508E+02 -0.29918447298E+01  0.69051365776E+02  0.47000000000E+01 0.  1.
         -5    1    4    4    0  502  0.14704561482E+02  0.45376115465E+02 -0.54470993030E+02  0.72556151115E+02  0.47000000000E+01 0.  1.
          5    1    5    5  503    0 -0.50061550804E+02  0.64235925130E+02 -0.11987390265E+03  0.14499743268E+03  0.47000000000E+01 0.  1.
         -5    1    5    5    0  503  0.24530518132E+02 -0.41642654087E+02 -0.29424184899E+02  0.56777897251E+02  0.47000000000E+01 0.  1.
<mgrwt>
<rscale>  0 0.27415634E+03</rscale>
<asrwt>0</asrwt>
<pdfrwt beam="1">  1        1 0.42318751E-01 0.27415634E+03</pdfrwt>
<pdfrwt beam="2">  1       -1 0.10509379E-01 0.27415634E+03</pdfrwt>
<totfact> 0.54799205E+03</totfact>
</mgrwt>
</event>
<event>
 9    1  0.2114844E-002  0.2757504E+03  0.7818608E-02  0.1098033E+00
          2   -1    0    0  501    0  0.00000000000E+00  0.00000000000E+00  0.21646726477E+04  0.21646726477E+04  0.00000000000E+00 0.  1.
         -2   -1    0    0    0  501 -0.00000000000E+00 -0.00000000000E+00 -0.87817290174E+01  0.87817290174E+01  0.00000000000E+00 0.  1.
         36    2    1    2    0    0  0.00000000000E+00  0.00000000000E+00  0.21558909186E+04  0.21734543767E+04  0.27575038425E+03 0.  0.
         25    2    3    3    0    0  0.94405691400E+01 -0.39165384162E+02  0.78619438007E+03  0.79730487147E+03  0.12637406041E+03 0.  0.
         25    2    3    3    0    0 -0.94405691400E+01  0.39165384162E+02  0.13696965386E+04  0.13761495052E+04  0.12686922896E+03 0.  0.
          5    1    4    4  502    0 -0.53551453954E+02 -0.73387576648E+01  0.21467022982E+03  0.22142044430E+03  0.47000000000E+01 0. -1.
         -5    1    4    4    0  502  0.62992023094E+02 -0.31826626497E+02  0.57152415025E+03  0.57588442716E+03  0.47000000000E+01 0. -1.
          5    1    5    5  503    0 -0.14928795729E+02  0.33027521460E+02  0.13651426580E+04  0.13656318145E+04  0.47000000000E+01 0. -1.
         -5    1    5    5    0  503  0.54882265893E+01  0.61378627025E+01  0.45538805927E+01  0.10517690721E+02  0.47000000000E+01 0. -1.
<mgrwt>
<rscale>  0 0.27575038E+03</rscale>
<asrwt>0</asrwt>
<pdfrwt beam="1">  1        2 0.33302614E+00 0.27575038E+03</pdfrwt>
<pdfrwt beam="2">  1       -2 0.13510370E-02 0.27575038E+03</pdfrwt>
<totfact> 0.83600373E+03</totfact>
</mgrwt>
</event>
<event>
 9    1  0.2114844E-002  0.2753102E+03  0.7818608E-02  0.1098278E+00
         -2   -1    0    0    0  501 -0.00000000000E+00  0.00000000000E+00  0.12636138434E+03  0.12636138434E+03  0.00000000000E+00 0.  1.
          2   -1    0    0  501    0  0.00000000000E+00 -0.00000000000E+00 -0.14995821855E+03  0.14995821855E+03  0.00000000000E+00 0.  1.
         36    2    1    2    0    0 -0.35527136788E-14  0.00000000000E+00 -0.23596834213E+02  0.27631960289E+03  0.27531021113E+03 0.  0.
         25    2    3    3    0    0  0.29333960562E+02  0.11320457185E+02  0.29977768036E+02  0.13298048558E+03  0.12568416358E+03 0.  0.
         25    2    3    3    0    0 -0.29333960562E+02 -0.11320457185E+02 -0.53574602250E+02  0.14333911731E+03  0.12917906391E+03 0.  0.
          5    1    4    4  502    0  0.39621731297E+02 -0.45207420491E+02  0.42775752122E+02  0.73928664455E+02  0.47000000000E+01 0.  1.
         -5    1    4    4    0  502 -0.10287770735E+02  0.56527877677E+02 -0.12797984086E+02  0.59051821123E+02  0.47000000000E+01 0.  1.
          5    1    5    5  503    0 -0.11729166302E+01  0.38064692269E+02 -0.73501463305E+02  0.82914725103E+02  0.47000000000E+01 0.  1.
         -5    1    5    5    0  503 -0.28161043932E+02 -0.49385149455E+02  0.19926861055E+02  0.60424392206E+02  0.47000000000E+01 0.  1.
<mgrwt>
<rscale>  0 0.27531021E+03</rscale>
<asrwt>0</asrwt>
<pdfrwt beam="1">  1        2 0.23070495E-01 0.27531021E+03</pdfrwt>
<pdfrwt beam="2">  1       -2 0.19440213E-01 0.27531021E+03</pdfrwt>
<totfact> 0.51657973E+03</totfact>
</mgrwt>
</event>
<event>
 9    1  0.2114844E-002  0.2751655E+03  0.7818608E-02  0.1098359E+00
         -1   -1    0    0    0  501 -0.00000000000E+00  0.00000000000E+00  0.91945514391E+01  0.91945514391E+01  0.00000000000E+00 0. -1.
          1   -1    0    0  501    0  0.00000000000E+00 -0.00000000000E+00 -0.20587204546E+04  0.20587204546E+04  0.00000000000E+00 0. -1.
         36    2    1    2    0    0  0.71054273576E-14 -0.35527136788E-14 -0.20495259031E+04  0.20679150060E+04  0.27516548561E+03 0.  0.
         25    2    3    3    0    0 -0.49661379427E+02  0.22822759224E+02 -0.11470932636E+04  0.11552139343E+04  0.12533613784E+03 0.  0.
         25    2    3    3    0    0  0.49661379427E+02 -0.22822759224E+02 -0.90243263947E+03  0.91270107174E+03  0.12510574179E+03 0.  0.
          5    1    4    4  502    0 -0.12242006269E+02  0.62319156055E+02 -0.89552601590E+03  0.89778754674E+03  0.47000000000E+01 0. -1.
         -5    1    4    4    0  502 -0.37419373158E+02 -0.39496396831E+02 -0.25156724775E+03  0.25742638751E+03  0.47000000000E+01 0. -1.
          5    1    5    5  503    0  0.90035623520E+02 -0.10113419710E+02 -0.51447832443E+03  0.52241624311E+03  0.47000000000E+01 0.  1.
         -5    1    5    5    0  503 -0.40374244093E+02 -0.12709339513E+02 -0.38795431504E+03  0.39028482863E+03  0.47000000000E+01 0.  1.
<mgrwt>
<rscale>  0 0.27516549E+03</rscale>
<asrwt>0</asrwt>
<pdfrwt beam="1">  1        1 0.31672661E+00 0.27516549E+03</pdfrwt>
<pdfrwt beam="2">  1       -1 0.14145447E-02 0.27516549E+03</pdfrwt>
<totfact> 0.35126194E+03</totfact>
</mgrwt>
</event>
<event>
 9    1  0.2114844E-002  0.2753632E+03  0.7818608E-02  0.1098249E+00
          1   -1    0    0  501    0  0.00000000000E+00  0.00000000000E+00  0.46707437697E+02  0.46707437697E+02  0.00000000000E+00 0. -1.
         -1   -1    0    0    0  501 -0.00000000000E+00 -0.00000000000E+00 -0.40585026145E+03  0.40585026145E+03  0.00000000000E+00 0. -1.
         36    2    1    2    0    0  0.00000000000E+00  0.00000000000E+00 -0.35914282375E+03  0.45255769914E+03  0.27536322050E+03 0.  0.
         25    2    3    3    0    0 -0.63444134647E+02 -0.11920475076E+02 -0.17269351038E+03  0.21996920778E+03  0.11998394850E+03 0.  0.
         25    2    3    3    0    0  0.63444134647E+02  0.11920475076E+02 -0.18644931337E+03  0.23258849136E+03  0.12315357856E+03 0.  0.
          5    1    4    4  502    0 -0.84321913101E+02  0.23027438674E+02 -0.79851756124E+02  0.11848561481E+03  0.47000000000E+01 0. -1.
         -5    1    4    4    0  502  0.20877778454E+02 -0.34947913750E+02 -0.92841754259E+02  0.10148359297E+03  0.47000000000E+01 0. -1.
          5    1    5    5  503    0  0.79537690985E+02  0.83610825497E+01 -0.19685838292E+03  0.21253579679E+03  0.47000000000E+01 0.  1.
         -5    1    5    5    0  503 -0.16093556338E+02  0.35593925262E+01  0.10409069556E+02  0.20052694576E+02  0.47000000000E+01 0.  1.
<mgrwt>
<rscale>  0 0.27536322E+03</rscale>
<asrwt>0</asrwt>
<pdfrwt beam="1">  1        1 0.71857593E-02 0.27536322E+03</pdfrwt>
<pdfrwt beam="2">  1       -1 0.62438504E-01 0.27536322E+03</pdfrwt>
<totfact> 0.27019018E+03</totfact>
</mgrwt>
</event>
<event>
 9    1  0.2114844E-002  0.2755016E+03  0.7818608E-02  0.1098172E+00
          2   -1    0    0  501    0  0.00000000000E+00  0.00000000000E+00  0.12295870595E+04  0.12295870595E+04  0.00000000000E+00 0.  1.
         -2   -1    0    0    0  501 -0.00000000000E+00 -0.00000000000E+00 -0.15432238483E+02  0.15432238483E+02  0.00000000000E+00 0.  1.
         36    2    1    2    0    0  0.00000000000E+00  0.00000000000E+00  0.12141548210E+04  0.12450192980E+04  0.27550158430E+03 0.  0.
         25    2    3    3    0    0  0.34982954381E+02  0.44815179232E+02  0.54483589880E+03  0.56175011139E+03  0.12443803130E+03 0.  0.
         25    2    3    3    0    0 -0.34982954381E+02 -0.44815179232E+02  0.66931892220E+03  0.68326918659E+03  0.12504700848E+03 0.  0.
          5    1    4    4  502    0 -0.35533346610E+02  0.47412692733E+02  0.16481033189E+03  0.17520022160E+03  0.47000000000E+01 0.  1.
         -5    1    4    4    0  502  0.70516300991E+02 -0.25975135014E+01  0.38002556692E+03  0.38654988979E+03  0.47000000000E+01 0.  1.
          5    1    5    5  503    0 -0.81482327057E+01 -0.30146251723E+01 -0.20170257063E+01  0.10081669200E+02  0.47000000000E+01 0.  1.
         -5    1    5    5    0  503 -0.26834721675E+02 -0.41800554059E+02  0.67133594791E+03  0.67318751739E+03  0.47000000000E+01 0.  1.
<mgrwt>
<rscale>  0 0.27550158E+03</rscale>
<asrwt>0</asrwt>
<pdfrwt beam="1">  1        2 0.18916716E+00 0.27550158E+03</pdfrwt>
<pdfrwt beam="2">  1       -2 0.23741915E-02 0.27550158E+03</pdfrwt>
<totfact> 0.11519037E+04</totfact>
</mgrwt>
</event>
<event>
 9    1  0.2114844E-002  0.2761032E+03  0.7818608E-02  0.1097837E+00
          2   -1    0    0  501    0  0.00000000000E+00  0.00000000000E+00  0.83173256155E+03  0.83173256155E+03  0.00000000000E+00 0.  1.
         -2   -1    0    0    0  501 -0.00000000000E+00 -0.00000000000E+00 -0.22913913196E+02  0.22913913196E+02  0.00000000000E+00 0.  1.
         36    2    1    2    0    0  0.00000000000E+00 -0.71054273576E-14  0.80881864836E+03  0.85464647475E+03  0.27610322503E+03 0.  0.
         25    2    3    3    0    0 -0.26158713369E+02  0.13787860300E+02  0.57648114763E+03  0.58878622912E+03  0.11603588518E+03 0.  0.
         25    2    3    3    0    0  0.26158713369E+02 -0.13787860300E+02  0.23233750072E+03  0.26586024563E+03  0.12580370657E+03 0.  0.
          5    1    4    4  502    0 -0.55677631506E+02 -0.15769569194E+02  0.16034708576E+03  0.17053432462E+03  0.47000000000E+01 0. -1.
         -5    1    4    4    0  502  0.29518918138E+02  0.29557429494E+02  0.41613406188E+03  0.41825190450E+03  0.47000000000E+01 0. -1.
          5    1    5    5  503    0  0.20963092601E+02 -0.66422163841E+02  0.17118400591E+03  0.18487133088E+03  0.47000000000E+01 0. -1.
         -5    1    5    5    0  503  0.51956207671E+01  0.52634303542E+02  0.61153494811E+02  0.80988914748E+02  0.47000000000E+01 0. -1.
<mgrwt>
<rscale>  0 0.27610323E+03</rscale>
<asrwt>0</asrwt>
<pdfrwt beam="1">  1        2 0.12795883E+00 0.27610323E+03</pdfrwt>
<pdfrwt beam="2">  1       -2 0.35252181E-02 0.27610323E+03</pdfrwt>
<totfact> 0.11182933E+04</totfact>
</mgrwt>
</event>
<event>
 8    1  0.2114844E-002  0.2467511E+03  0.7818608E-02  0.1115375E+00
         -2   -1    0    0    0  501 -0.00000000000E+00  0.00000000000E+00  0.14573408026E+02  0.14573408026E+02  0.00000000000E+00 0. -1.
          2   -1    0    0  501    0  0.00000000000E+00 -0.00000000000E+00 -0.10444723964E+04  0.10444723964E+04  0.00000000000E+00 0. -1.
         25    2    1    2    0    0 -0.39465298256E+01 -0.22552100307E+02 -0.37585702787E+03  0.39276193368E+03  0.11166583552E+03 0.  0.
         25    2    1    2    0    0  0.39465298256E+01  0.22552100307E+02 -0.65404196054E+03  0.66628387078E+03  0.12505653917E+03 0.  0.
          5    1    3    3  502    0  0.49159685157E+02 -0.11275035995E+00 -0.24125281655E+03  0.24625535294E+03  0.47000000000E+01 0.  1.
         -5    1    3    3    0  502 -0.53106214982E+02 -0.22439349947E+02 -0.13460421132E+03  0.14650658074E+03  0.47000000000E+01 0.  1.
          5    1    4    4  503    0 -0.54626601977E+02  0.37404360383E+02 -0.35818434529E+03  0.36428185109E+03  0.47000000000E+01 0.  1.
         -5    1    4    4    0  503  0.58573131803E+02 -0.14852260076E+02 -0.29585761524E+03  0.30200201969E+03  0.47000000000E+01 0.  1.
<mgrwt>
<rscale>  0 0.24675107E+03</rscale>
<asrwt>0</asrwt>
<pdfrwt beam="1">  1        2 0.16068812E+00 0.24675107E+03</pdfrwt>
<pdfrwt beam="2">  1       -2 0.22420619E-02 0.24675107E+03</pdfrwt>
<totfact> 0.15985423E+04</totfact>
</mgrwt>
</event>
<event>
 9    1  0.2114844E-002  0.2735944E+03  0.7818608E-02  0.1099240E+00
          2   -1    0    0  501    0  0.00000000000E+00  0.00000000000E+00  0.73984591552E+03  0.73984591552E+03  0.00000000000E+00 0. -1.
         -2   -1    0    0    0  501 -0.00000000000E+00 -0.00000000000E+00 -0.25293738765E+02  0.25293738765E+02  0.00000000000E+00 0. -1.
         36    2    1    2    0    0  0.00000000000E+00  0.17763568394E-14  0.71455217675E+03  0.76513965428E+03  0.27359436627E+03 0.  0.
         25    2    3    3    0    0 -0.22059983566E+01  0.11150785676E+02  0.50854462882E+03  0.52334248240E+03  0.12304677132E+03 0.  0.
         25    2    3    3    0    0  0.22059983566E+01 -0.11150785676E+02  0.20600754794E+03  0.24179717189E+03  0.12608551097E+03 0.  0.
          5    1    4    4  502    0 -0.12281025256E+02  0.10659362566E+02  0.24245963899E+01  0.17100124541E+02  0.47000000000E+01 0. -1.
         -5    1    4    4    0  502  0.10075026899E+02  0.49142310991E+00  0.50612003243E+03  0.50624235786E+03  0.47000000000E+01 0. -1.
          5    1    5    5  503    0 -0.10867050588E+02 -0.67500802188E+02  0.11408831839E+03  0.13308901336E+03  0.47000000000E+01 0. -1.
         -5    1    5    5    0  503  0.13073048944E+02  0.56350016512E+02  0.91919229546E+02  0.10870815853E+03  0.47000000000E+01 0. -1.
<mgrwt>
<rscale>  0 0.27359437E+03</rscale>
<asrwt>0</asrwt>
<pdfrwt beam="1">  1        2 0.11382243E+00 0.27359437E+03</pdfrwt>
<pdfrwt beam="2">  1       -2 0.38913450E-02 0.27359437E+03</pdfrwt>
<totfact> 0.11176655E+04</totfact>
</mgrwt>
</event>
<event>
 9    1  0.2114844E-002  0.2710062E+03  0.7818608E-02  0.1100705E+00
          2   -1    0    0  501    0  0.00000000000E+00  0.00000000000E+00  0.67736718930E+02  0.67736718930E+02  0.00000000000E+00 0. -1.
         -2   -1    0    0    0  501 -0.00000000000E+00 -0.00000000000E+00 -0.27106559088E+03  0.27106559088E+03  0.00000000000E+00 0. -1.
         36    2    1    2    0    0  0.00000000000E+00  0.00000000000E+00 -0.20332887195E+03  0.33880230981E+03  0.27100622680E+03 0.  0.
         25    2    3    3    0    0 -0.32355542765E+01  0.41725497994E+02 -0.17554335719E+03  0.20454699376E+03  0.96293906402E+02 0.  0.
         25    2    3    3    0    0  0.32355542765E+01 -0.41725497994E+02 -0.27785514766E+02  0.13425531605E+03  0.12450288777E+03 0.  0.
          5    1    4    4  502    0  0.20373081419E+02  0.96672897050E+01 -0.15984023020E+03  0.16149151101E+03  0.47000000000E+01 0. -1.
         -5    1    4    4    0  502 -0.23608635695E+02  0.32058208289E+02 -0.15703126986E+02  0.43055482754E+02  0.47000000000E+01 0. -1.
          5    1    5    5  503    0 -0.22598715984E+02  0.21761583330E+02 -0.52417983871E+02  0.61269923341E+02  0.47000000000E+01 0.  1.
         -5    1    5    5    0  503  0.25834270260E+02 -0.63487081324E+02  0.24632469104E+02  0.72985392711E+02  0.47000000000E+01 0.  1.
<mgrwt>
<rscale>  0 0.27100623E+03</rscale>
<asrwt>0</asrwt>
<pdfrwt beam="1">  1        2 0.10421034E-01 0.27100623E+03</pdfrwt>
<pdfrwt beam="2">  1       -2 0.41702398E-01 0.27100623E+03</pdfrwt>
<totfact> 0.33280285E+03</totfact>
</mgrwt>
</event>
<event>
 9    1  0.2114844E-002  0.2752043E+03  0.7818608E-02  0.1098337E+00
          2   -1    0    0  501    0  0.00000000000E+00  0.00000000000E+00  0.29126052059E+04  0.29126052059E+04  0.00000000000E+00 0.  1.
         -2   -1    0    0    0  501 -0.00000000000E+00 -0.00000000000E+00 -0.65008297224E+01  0.65008297224E+01  0.00000000000E+00 0.  1.
         36    2    1    2    0    0  0.00000000000E+00  0.00000000000E+00  0.29061043762E+04  0.29191060356E+04  0.27520429133E+03 0.  0.
         25    2    3    3    0    0 -0.11136284578E+02 -0.21433904596E+02  0.20225875972E+04  0.20264435297E+04  0.12259429621E+03 0.  0.
         25    2    3    3    0    0  0.11136284578E+02  0.21433904596E+02  0.88351677896E+03  0.89266250594E+03  0.12514400389E+03 0.  0.
          5    1    4    4  502    0  0.35124327133E+02 -0.67079404275E+01  0.20146631113E+03  0.20466919490E+03  0.47000000000E+01 0. -1.
         -5    1    4    4    0  502 -0.46260611712E+02 -0.14725964169E+02  0.18211212861E+04  0.18217743348E+04  0.47000000000E+01 0. -1.
          5    1    5    5  503    0 -0.51495294952E+02  0.19149202035E+02  0.58548989100E+03  0.58808074259E+03  0.47000000000E+01 0.  1.
         -5    1    5    5    0  503  0.62631579530E+02  0.22847025616E+01  0.29802688796E+03  0.30458176335E+03  0.47000000000E+01 0.  1.
<mgrwt>
<rscale>  0 0.27520429E+03</rscale>
<asrwt>0</asrwt>
<pdfrwt beam="1">  1        2 0.44809207E+00 0.27520429E+03</pdfrwt>
<pdfrwt beam="2">  1       -2 0.10001300E-02 0.27520429E+03</pdfrwt>
<totfact> 0.49996618E+03</totfact>
</mgrwt>
</event>
<event>
 9    1  0.2114844E-002  0.2741404E+03  0.7818608E-02  0.1098933E+00
          1   -1    0    0  501    0  0.00000000000E+00  0.00000000000E+00  0.38678585877E+03  0.38678585877E+03  0.00000000000E+00 0.  1.
         -1   -1    0    0    0  501 -0.00000000000E+00 -0.00000000000E+00 -0.48575298089E+02  0.48575298089E+02  0.00000000000E+00 0.  1.
         36    2    1    2    0    0  0.00000000000E+00 -0.17763568394E-14  0.33821056068E+03  0.43536115685E+03  0.27414039021E+03 0.  0.
         25    2    3    3    0    0 -0.30270447428E+01 -0.12702595263E+02  0.11788670836E+03  0.17361481407E+03  0.12678449720E+03 0.  0.
         25    2    3    3    0    0  0.30270447428E+01  0.12702595263E+02  0.22032385232E+03  0.26174634278E+03  0.14070546945E+03 0.  0.
          5    1    4    4  502    0 -0.31760822809E+02  0.13370332633E+02  0.12849386502E+03  0.13311753832E+03  0.47000000000E+01 0. -1.
         -5    1    4    4    0  502  0.28733778067E+02 -0.26072927896E+02 -0.10607156662E+02  0.40497275754E+02  0.47000000000E+01 0. -1.
          5    1    5    5  503    0 -0.45829769449E+02  0.33154814611E+02  0.30133771753E+02  0.64263081935E+02  0.47000000000E+01 0. -1.
         -5    1    5    5    0  503  0.48856814192E+02 -0.20452219348E+02  0.19019008057E+03  0.19748326085E+03  0.47000000000E+01 0. -1.
<mgrwt>
<rscale>  0 0.27414039E+03</rscale>
<asrwt>0</asrwt>
<pdfrwt beam="1">  1        1 0.59505515E-01 0.27414039E+03</pdfrwt>
<pdfrwt beam="2">  1       -1 0.74731231E-02 0.27414039E+03</pdfrwt>
<totfact> 0.60128758E+03</totfact>
</mgrwt>
</event>
<event>
 9    1  0.2114844E-002  0.2751437E+03  0.7818608E-02  0.1098371E+00
         -1   -1    0    0    0  501 -0.00000000000E+00  0.00000000000E+00  0.35084719211E+02  0.35084719211E+02  0.00000000000E+00 0. -1.
          1   -1    0    0  501    0  0.00000000000E+00 -0.00000000000E+00 -0.53943762261E+03  0.53943762261E+03  0.00000000000E+00 0. -1.
         36    2    1    2    0    0  0.00000000000E+00 -0.71054273576E-14 -0.50435290340E+03  0.57452234182E+03  0.27514372623E+03 0.  0.
         25    2    3    3    0    0 -0.62753605757E+01 -0.60021305481E+02 -0.23768107358E+03  0.27519582466E+03  0.12489400271E+03 0.  0.
         25    2    3    3    0    0  0.62753605757E+01  0.60021305481E+02 -0.26667182983E+03  0.29932651716E+03  0.12182184447E+03 0.  0.
          5    1    4    4  502    0  0.17246206461E+02 -0.10997722477E+02  0.87904613904E+01  0.22753983133E+02  0.47000000000E+01 0.  1.
         -5    1    4    4    0  502 -0.23521567037E+02 -0.49023583004E+02 -0.24647153497E+03  0.25244184153E+03  0.47000000000E+01 0.  1.
          5    1    5    5  503    0  0.63497720494E+01  0.97177609961E+02 -0.20804762763E+03  0.22976012022E+03  0.47000000000E+01 0. -1.
         -5    1    5    5    0  503 -0.74411473636E-01 -0.37156304481E+02 -0.58624202200E+02  0.69566396941E+02  0.47000000000E+01 0. -1.
<mgrwt>
<rscale>  0 0.27514373E+03</rscale>
<asrwt>0</asrwt>
<pdfrwt beam="1">  1        1 0.82990398E-01 0.27514373E+03</pdfrwt>
<pdfrwt beam="2">  1       -1 0.53976495E-02 0.27514373E+03</pdfrwt>
<totfact> 0.63623163E+03</totfact>
</mgrwt>
</event>
<event>
 9    1  0.2114844E-002  0.2749059E+03  0.7818608E-02  0.1098504E+00
         -1   -1    0    0    0  501 -0.00000000000E+00  0.00000000000E+00  0.47787440122E+02  0.47787440122E+02  0.00000000000E+00 0.  1.
          1   -1    0    0  501    0  0.00000000000E+00 -0.00000000000E+00 -0.39536134912E+03  0.39536134912E+03  0.00000000000E+00 0.  1.
         36    2    1    2    0    0  0.00000000000E+00 -0.71054273576E-14 -0.34757390900E+03  0.44314878924E+03  0.27490585150E+03 0.  0.
         25    2    3    3    0    0 -0.47161356435E+02  0.26821234814E+02 -0.19658836567E+03  0.23818458637E+03  0.12305015030E+03 0.  0.
         25    2    3    3    0    0  0.47161356435E+02 -0.26821234814E+02 -0.15098554333E+03  0.20496420288E+03  0.12755437267E+03 0.  0.
          5    1    4    4  502    0 -0.41818476969E+01  0.64706167507E+02 -0.54238866383E+02  0.84665935241E+02  0.47000000000E+01 0. -1.
         -5    1    4    4    0  502 -0.42979508738E+02 -0.37884932693E+02 -0.14234949929E+03  0.15351865113E+03  0.47000000000E+01 0. -1.
          5    1    5    5  503    0  0.45676860970E+02  0.29156803462E+02 -0.13649177361E+03  0.14693055870E+03  0.47000000000E+01 0. -1.
         -5    1    5    5    0  503  0.14844954651E+01 -0.55978038276E+02 -0.14493769722E+02  0.58033644180E+02  0.47000000000E+01 0. -1.
<mgrwt>
<rscale>  0 0.27490585E+03</rscale>
<asrwt>0</asrwt>
<pdfrwt beam="1">  1        1 0.60824823E-01 0.27490585E+03</pdfrwt>
<pdfrwt beam="2">  1       -1 0.73519138E-02 0.27490585E+03</pdfrwt>
<totfact> 0.59943727E+03</totfact>
</mgrwt>
</event>
<event>
 9    1  0.2114844E-002  0.2883659E+03  0.7818608E-02  0.1091205E+00
          1   -1    0    0  501    0  0.00000000000E+00  0.00000000000E+00  0.66604831083E+02  0.66604831083E+02  0.00000000000E+00 0.  1.
         -1   -1    0    0    0  501 -0.00000000000E+00 -0.00000000000E+00 -0.31212045476E+03  0.31212045476E+03  0.00000000000E+00 0.  1.
         36    2    1    2    0    0 -0.35527136788E-14 -0.71054273576E-14 -0.24551562368E+03  0.37872528584E+03  0.28836594922E+03 0.  0.
         25    2    3    3    0    0  0.52871963920E+01 -0.52323788930E+02 -0.59602863872E+02  0.14840953469E+03  0.12532819025E+03 0.  0.
         25    2    3    3    0    0 -0.52871963920E+01  0.52323788930E+02 -0.18591275980E+03  0.23031575115E+03  0.12536370143E+03 0.  0.
          5    1    4    4  502    0 -0.29451227139E+02 -0.79761754103E+02 -0.17087459902E+02  0.86852653866E+02  0.47000000000E+01 0.  1.
         -5    1    4    4    0  502  0.34738423531E+02  0.27437965173E+02 -0.42515403970E+02  0.61556880826E+02  0.47000000000E+01 0.  1.
          5    1    5    5  503    0 -0.53764864859E+02  0.66015727020E+02 -0.11269904521E+03  0.14132197882E+03  0.47000000000E+01 0.  1.
         -5    1    5    5    0  503  0.48477668467E+02 -0.13691938090E+02 -0.73213714593E+02  0.88993772327E+02  0.47000000000E+01 0.  1.
<mgrwt>
<rscale>  0 0.28836595E+03</rscale>
<asrwt>0</asrwt>
<pdfrwt beam="1">  1        1 0.10246897E-01 0.28836595E+03</pdfrwt>
<pdfrwt beam="2">  1       -1 0.48018532E-01 0.28836595E+03</pdfrwt>
<totfact> 0.27438836E+03</totfact>
</mgrwt>
</event>
<event>
 9    1  0.2114844E-002  0.2742044E+03  0.7818608E-02  0.1098897E+00
         -2   -1    0    0    0  501 -0.00000000000E+00  0.00000000000E+00  0.15709303209E+02  0.15709303209E+02  0.00000000000E+00 0. -1.
          2   -1    0    0  501    0  0.00000000000E+00 -0.00000000000E+00 -0.11965530258E+04  0.11965530258E+04  0.00000000000E+00 0. -1.
         36    2    1    2    0    0  0.00000000000E+00  0.00000000000E+00 -0.11808437226E+04  0.12122623290E+04  0.27420440760E+03 0.  0.
         25    2    3    3    0    0 -0.48815055096E+02 -0.20827773341E+02 -0.76349579670E+03  0.77555907136E+03  0.12549635787E+03 0.  0.
         25    2    3    3    0    0  0.48815055096E+02  0.20827773341E+02 -0.41734792586E+03  0.43670325762E+03  0.11710567130E+03 0.  0.
          5    1    4    4  502    0 -0.71460754677E+02  0.11640178789E+02 -0.24459323858E+03  0.25512756727E+03  0.47000000000E+01 0. -1.
         -5    1    4    4    0  502  0.22645699581E+02 -0.32467952130E+02 -0.51890255812E+03  0.52043150409E+03  0.47000000000E+01 0. -1.
          5    1    5    5  503    0  0.44103219079E+02  0.38073392219E+02 -0.81219102247E+02  0.10006652636E+03  0.47000000000E+01 0.  1.
         -5    1    5    5    0  503  0.47118360173E+01 -0.17245618878E+02 -0.33612882361E+03  0.33663673126E+03  0.47000000000E+01 0.  1.
<mgrwt>
<rscale>  0 0.27420441E+03</rscale>
<asrwt>0</asrwt>
<pdfrwt beam="1">  1        2 0.18408510E+00 0.27420441E+03</pdfrwt>
<pdfrwt beam="2">  1       -2 0.24168156E-02 0.27420441E+03</pdfrwt>
<totfact> 0.11712229E+04</totfact>
</mgrwt>
</event>
<event>
 9    1  0.2114844E-002  0.2754943E+03  0.7818608E-02  0.1098176E+00
          4   -1    0    0  501    0  0.00000000000E+00  0.00000000000E+00  0.13603372809E+03  0.13603372809E+03  0.00000000000E+00 0. -1.
         -4   -1    0    0    0  501 -0.00000000000E+00 -0.00000000000E+00 -0.13948217492E+03  0.13948217492E+03  0.00000000000E+00 0. -1.
         36    2    1    2    0    0  0.71054273576E-14  0.00000000000E+00 -0.34484468330E+01  0.27551590301E+03  0.27549432122E+03 0.  0.
         25    2    3    3    0    0  0.52518654961E+02  0.21136784137E+02 -0.19780234374E+02  0.13897803971E+03  0.12537410055E+03 0.  0.
         25    2    3    3    0    0 -0.52518654961E+02 -0.21136784137E+02  0.16331787541E+02  0.13653786330E+03  0.12317015900E+03 0.  0.
          5    1    4    4  502    0 -0.29106561180E+02  0.31813858219E+02 -0.34245182880E+02  0.55264238246E+02  0.47000000000E+01 0.  1.
         -5    1    4    4    0  502  0.81625216141E+02 -0.10677074082E+02  0.14464948506E+02  0.83713801468E+02  0.47000000000E+01 0.  1.
          5    1    5    5  503    0 -0.90883703204E+02  0.68184500192E+00  0.14132763842E+02  0.92098520262E+02  0.47000000000E+01 0. -1.
         -5    1    5    5    0  503  0.38365048243E+02 -0.21818629139E+02  0.21990236986E+01  0.44439343035E+02  0.47000000000E+01 0. -1.
<mgrwt>
<rscale>  0 0.27549432E+03</rscale>
<asrwt>0</asrwt>
<pdfrwt beam="1">  1        4 0.20928266E-01 0.27549432E+03</pdfrwt>
<pdfrwt beam="2">  1       -4 0.21458796E-01 0.27549432E+03</pdfrwt>
<totfact> 0.77370965E+02</totfact>
</mgrwt>
</event>
<event>
 9    1  0.2114844E-002  0.2746513E+03  0.7818608E-02  0.1098647E+00
          1   -1    0    0  501    0  0.00000000000E+00  0.00000000000E+00  0.45387561761E+03  0.45387561761E+03  0.00000000000E+00 0.  1.
         -1   -1    0    0    0  501 -0.00000000000E+00 -0.00000000000E+00 -0.41549574457E+02  0.41549574457E+02  0.00000000000E+00 0.  1.
         36    2    1    2    0    0 -0.71054273576E-14  0.71054273576E-14  0.41232604316E+03  0.49542519207E+03  0.27465133364E+03 0.  0.
         25    2    3    3    0    0  0.54162221461E+02 -0.81216417117E+01  0.14986507086E+03  0.19965634221E+03  0.12001503332E+03 0.  0.
         25    2    3    3    0    0 -0.54162221461E+02  0.81216417117E+01  0.26246097230E+03  0.29576884986E+03  0.12487571129E+03 0.  0.
          5    1    4    4  502    0 -0.27069148912E+02 -0.34734764658E+02  0.35274086017E+02  0.56617963960E+02  0.47000000000E+01 0. -1.
         -5    1    4    4    0  502  0.81231370373E+02  0.26613122946E+02  0.11459098484E+03  0.14303837825E+03  0.47000000000E+01 0. -1.
          5    1    5    5  503    0 -0.19458103180E+02 -0.43900925093E+02  0.34436567802E+02  0.59277957163E+02  0.47000000000E+01 0.  1.
         -5    1    5    5    0  503 -0.34704118281E+02  0.52022566805E+02  0.22802440449E+03  0.23649089269E+03  0.47000000000E+01 0.  1.
<mgrwt>
<rscale>  0 0.27465133E+03</rscale>
<asrwt>0</asrwt>
<pdfrwt beam="1">  1        1 0.69827015E-01 0.27465133E+03</pdfrwt>
<pdfrwt beam="2">  1       -1 0.63922425E-02 0.27465133E+03</pdfrwt>
<totfact> 0.62001018E+03</totfact>
</mgrwt>
</event>
<event>
 9    1  0.2114844E-002  0.2745451E+03  0.7818608E-02  0.1098706E+00
          2   -1    0    0  501    0  0.00000000000E+00  0.00000000000E+00  0.31822121112E+03  0.31822121112E+03  0.00000000000E+00 0.  1.
         -2   -1    0    0    0  501 -0.00000000000E+00 -0.00000000000E+00 -0.59215889840E+02  0.59215889840E+02  0.00000000000E+00 0.  1.
         36    2    1    2    0    0  0.71054273576E-14  0.00000000000E+00  0.25900532128E+03  0.37743710096E+03  0.27454509416E+03 0.  0.
         25    2    3    3    0    0  0.33064212723E+02  0.31870898012E+02  0.17685312806E+03  0.21917938976E+03  0.12105197101E+03 0.  0.
         25    2    3    3    0    0 -0.33064212723E+02 -0.31870898012E+02  0.82152193218E+02  0.15825771120E+03  0.12723020082E+03 0.  0.
          5    1    4    4  502    0 -0.29834243828E+02 -0.23780894366E+02  0.25835647868E+02  0.46316128318E+02  0.47000000000E+01 0.  1.
         -5    1    4    4    0  502  0.62898456551E+02  0.55651792378E+02  0.15101748019E+03  0.17286326144E+03  0.47000000000E+01 0.  1.
          5    1    5    5  503    0 -0.66456798465E+02 -0.59059835227E+02  0.70037915041E+02  0.11327828451E+03  0.47000000000E+01 0. -1.
         -5    1    5    5    0  503  0.33392585742E+02  0.27188937215E+02  0.12114278178E+02  0.44979426688E+02  0.47000000000E+01 0. -1.
<mgrwt>
<rscale>  0 0.27454509E+03</rscale>
<asrwt>0</asrwt>
<pdfrwt beam="1">  1        2 0.48957109E-01 0.27454509E+03</pdfrwt>
<pdfrwt beam="2">  1       -2 0.91101370E-02 0.27454509E+03</pdfrwt>
<totfact> 0.78357138E+03</totfact>
</mgrwt>
</event>
<event>
 9    1  0.2114844E-002  0.2761024E+03  0.7818608E-02  0.1097837E+00
          2   -1    0    0  501    0  0.00000000000E+00  0.00000000000E+00  0.22830827433E+04  0.22830827433E+04  0.00000000000E+00 0.  1.
         -2   -1    0    0    0  501 -0.00000000000E+00 -0.00000000000E+00 -0.83475445516E+01  0.83475445516E+01  0.00000000000E+00 0.  1.
         36    2    1    2    0    0 -0.35527136788E-14  0.00000000000E+00  0.22747351987E+04  0.22914302878E+04  0.27610240792E+03 0.  0.
         25    2    3    3    0    0  0.11138865526E+02  0.54705836039E+02  0.10168866941E+04  0.10264596262E+04  0.12823421126E+03 0.  0.
         25    2    3    3    0    0 -0.11138865526E+02 -0.54705836039E+02  0.12578485047E+04  0.12649706616E+04  0.12186513509E+03 0.  0.
          5    1    4    4  502    0  0.69370110492E+02  0.22115212370E+02  0.52765340579E+03  0.53267391666E+03  0.47000000000E+01 0. -1.
         -5    1    4    4    0  502 -0.58231244967E+02  0.32590623669E+02  0.48923328826E+03  0.49378570958E+03  0.47000000000E+01 0. -1.
          5    1    5    5  503    0 -0.20846821138E+02 -0.66618963697E+00  0.35929453230E+02  0.41809680334E+02  0.47000000000E+01 0.  1.
         -5    1    5    5    0  503  0.97079556127E+01 -0.54039646402E+02  0.12219190515E+04  0.12231609813E+04  0.47000000000E+01 0.  1.
<mgrwt>
<rscale>  0 0.27610241E+03</rscale>
<asrwt>0</asrwt>
<pdfrwt beam="1">  1        2 0.35124300E+00 0.27610241E+03</pdfrwt>
<pdfrwt beam="2">  1       -2 0.12842394E-02 0.27610241E+03</pdfrwt>
<totfact> 0.77844832E+03</totfact>
</mgrwt>
</event>
<event>
 9    1  0.2114844E-002  0.2746574E+03  0.7818608E-02  0.1098643E+00
         -2   -1    0    0    0  501 -0.00000000000E+00  0.00000000000E+00  0.58956828767E+02  0.58956828767E+02  0.00000000000E+00 0. -1.
          2   -1    0    0  501    0  0.00000000000E+00 -0.00000000000E+00 -0.31988109563E+03  0.31988109563E+03  0.00000000000E+00 0. -1.
         36    2    1    2    0    0  0.00000000000E+00  0.14210854715E-13 -0.26092426686E+03  0.37883792439E+03  0.27465742284E+03 0.  0.
         25    2    3    3    0    0 -0.14775437364E+02 -0.53358162265E+02 -0.15635956265E+03  0.20831828846E+03  0.12602693937E+03 0.  0.
         25    2    3    3    0    0  0.14775437364E+02  0.53358162265E+02 -0.10456470421E+03  0.17051963593E+03  0.12279153815E+03 0.  0.
          5    1    4    4  502    0  0.47145852205E+02  0.95442063244E+01 -0.67143696436E+02  0.82729615166E+02  0.47000000000E+01 0.  1.
         -5    1    4    4    0  502 -0.61921289569E+02 -0.62902368590E+02 -0.89215866215E+02  0.12558867330E+03  0.47000000000E+01 0.  1.
          5    1    5    5  503    0 -0.25534387712E+02 -0.22110727191E+02 -0.70487507559E+02  0.78303690427E+02  0.47000000000E+01 0. -1.
         -5    1    5    5    0  503  0.40309825076E+02  0.75468889456E+02 -0.34077196653E+02  0.92215945504E+02  0.47000000000E+01 0. -1.
<mgrwt>
<rscale>  0 0.27465742E+03</rscale>
<asrwt>0</asrwt>
<pdfrwt beam="1">  1        2 0.49212475E-01 0.27465742E+03</pdfrwt>
<pdfrwt beam="2">  1       -2 0.90702815E-02 0.27465742E+03</pdfrwt>
<totfact> 0.78461677E+03</totfact>
</mgrwt>
</event>
<event>
 9    1  0.2114844E-002  0.2747103E+03  0.7818608E-02  0.1098614E+00
         -2   -1    0    0    0  501 -0.00000000000E+00  0.00000000000E+00  0.69587236822E+01  0.69587236822E+01  0.00000000000E+00 0.  1.
          2   -1    0    0  501    0  0.00000000000E+00 -0.00000000000E+00 -0.27111923199E+04  0.27111923199E+04  0.00000000000E+00 0.  1.
         36    2    1    2    0    0  0.53290705182E-14  0.71054273576E-14 -0.27042335963E+04  0.27181510436E+04  0.27471030708E+03 0.  0.
         25    2    3    3    0    0  0.11459874244E+02  0.42706050254E+02 -0.10334136150E+04  0.10420608917E+04  0.12645974416E+03 0.  0.
         25    2    3    3    0    0 -0.11459874244E+02 -0.42706050254E+02 -0.16708199813E+04  0.16760901520E+04  0.12523438890E+03 0.  0.
          5    1    4    4  502    0 -0.45354669695E+02  0.56036951787E+02 -0.68047695712E+03  0.68430122402E+03  0.47000000000E+01 0. -1.
         -5    1    4    4    0  502  0.56814543939E+02 -0.13330901534E+02 -0.35293665785E+03  0.35775966764E+03  0.47000000000E+01 0. -1.
          5    1    5    5  503    0  0.76402384731E+01  0.23566364507E+02 -0.82524531620E+02  0.86290990834E+02  0.47000000000E+01 0.  1.
         -5    1    5    5    0  503 -0.19100112717E+02 -0.66272414761E+02 -0.15882954497E+04  0.15897991611E+04  0.47000000000E+01 0.  1.
<mgrwt>
<rscale>  0 0.27471031E+03</rscale>
<asrwt>0</asrwt>
<pdfrwt beam="1">  1        2 0.41710617E+00 0.27471031E+03</pdfrwt>
<pdfrwt beam="2">  1       -2 0.10705738E-02 0.27471031E+03</pdfrwt>
<totfact> 0.59087430E+03</totfact>
</mgrwt>
</event>
<event>
 9    1  0.2114844E-002  0.2749068E+03  0.7818608E-02  0.1098504E+00
         -2   -1    0    0    0  501 -0.00000000000E+00  0.00000000000E+00  0.26782307699E+02  0.26782307699E+02  0.00000000000E+00 0.  1.
          2   -1    0    0  501    0  0.00000000000E+00 -0.00000000000E+00 -0.70544474055E+03  0.70544474055E+03  0.00000000000E+00 0.  1.
         36    2    1    2    0    0  0.35527136788E-14  0.00000000000E+00 -0.67866243285E+03  0.73222704825E+03  0.27490680680E+03 0.  0.
         25    2    3    3    0    0 -0.16614771376E+02 -0.47815917063E+02 -0.28153978526E+03  0.31254689972E+03  0.12593054151E+03 0.  0.
         25    2    3    3    0    0  0.16614771376E+02  0.47815917063E+02 -0.39712264759E+03  0.41968014853E+03  0.12594688281E+03 0.  0.
          5    1    4    4  502    0 -0.11507572603E+02  0.34117611758E+02 -0.17080053966E+03  0.17461772535E+03  0.47000000000E+01 0.  1.
         -5    1    4    4    0  502 -0.51071987737E+01 -0.81933528821E+02 -0.11073924560E+03  0.13792917437E+03  0.47000000000E+01 0.  1.
          5    1    5    5  503    0 -0.41948153375E+02 -0.15680177112E+02 -0.18909970953E+03  0.19438699974E+03  0.47000000000E+01 0. -1.
         -5    1    5    5    0  503  0.58562924751E+02  0.63496094175E+02 -0.20802293806E+03  0.22529314879E+03  0.47000000000E+01 0. -1.
<mgrwt>
<rscale>  0 0.27490681E+03</rscale>
<asrwt>0</asrwt>
<pdfrwt beam="1">  1        2 0.10852995E+00 0.27490681E+03</pdfrwt>
<pdfrwt beam="2">  1       -2 0.41203555E-02 0.27490681E+03</pdfrwt>
<totfact> 0.10873917E+04</totfact>
</mgrwt>
</event>
<event>
 9    1  0.2114844E-002  0.2735765E+03  0.7818608E-02  0.1099250E+00
          2   -1    0    0  501    0  0.00000000000E+00  0.00000000000E+00  0.17076642633E+04  0.17076642633E+04  0.00000000000E+00 0.  1.
         -2   -1    0    0    0  501 -0.00000000000E+00 -0.00000000000E+00 -0.10957090503E+02  0.10957090503E+02  0.00000000000E+00 0.  1.
         36    2    1    2    0    0  0.00000000000E+00  0.71054273576E-14  0.16967071728E+04  0.17186213538E+04  0.27357654783E+03 0.  0.
         25    2    3    3    0    0 -0.42827512301E+02 -0.23091220363E+02  0.98953748844E+03  0.99828650821E+03  0.12257288107E+03 0.  0.
         25    2    3    3    0    0  0.42827512301E+02  0.23091220363E+02  0.70716968433E+03  0.72033484557E+03  0.12816367284E+03 0.  0.
          5    1    4    4  502    0  0.17823270436E+02 -0.58323716389E+02  0.49989103228E+03  0.50361935925E+03  0.47000000000E+01 0. -1.
         -5    1    4    4    0  502 -0.60650782737E+02  0.35232496026E+02  0.48964645617E+03  0.49466714896E+03  0.47000000000E+01 0. -1.
          5    1    5    5  503    0  0.11589761567E+02 -0.53205552025E+01  0.64436952120E+03  0.64451283986E+03  0.47000000000E+01 0. -1.
         -5    1    5    5    0  503  0.31237750734E+02  0.28411775565E+02  0.62800163128E+02  0.75822005715E+02  0.47000000000E+01 0. -1.
<mgrwt>
<rscale>  0 0.27357655E+03</rscale>
<asrwt>0</asrwt>
<pdfrwt beam="1">  1        2 0.26271737E+00 0.27357655E+03</pdfrwt>
<pdfrwt beam="2">  1       -2 0.16857076E-02 0.27357655E+03</pdfrwt>
<totfact> 0.10521680E+04</totfact>
</mgrwt>
</event>
<event>
 9    1  0.2114844E-002  0.2758749E+03  0.7818608E-02  0.1097964E+00
          2   -1    0    0  501    0  0.00000000000E+00  0.00000000000E+00  0.10703052374E+04  0.10703052374E+04  0.00000000000E+00 0. -1.
         -2   -1    0    0    0  501 -0.00000000000E+00 -0.00000000000E+00 -0.17776933732E+02  0.17776933732E+02  0.00000000000E+00 0. -1.
         36    2    1    2    0    0 -0.14210854715E-13  0.17763568394E-14  0.10525283037E+04  0.10880821711E+04  0.27587493745E+03 0.  0.
         25    2    3    3    0    0  0.59199942074E+02 -0.36904939462E+01  0.38455737422E+03  0.40640236852E+03  0.11730412688E+03 0.  0.
         25    2    3    3    0    0 -0.59199942074E+02  0.36904939462E+01  0.66797092944E+03  0.68167980260E+03  0.12240889598E+03 0.  0.
          5    1    4    4  502    0  0.88518818604E+02 -0.16976868893E+02  0.20597377213E+03  0.22488014614E+03  0.47000000000E+01 0.  1.
         -5    1    4    4    0  502 -0.29318876530E+02  0.13286374947E+02  0.17858360209E+03  0.18152222238E+03  0.47000000000E+01 0.  1.
          5    1    5    5  503    0 -0.66932552142E+02  0.41939511745E+02  0.25881468474E+03  0.27064001961E+03  0.47000000000E+01 0. -1.
         -5    1    5    5    0  503  0.77326100676E+01 -0.38249017799E+02  0.40915624470E+03  0.41103978299E+03  0.47000000000E+01 0. -1.
<mgrwt>
<rscale>  0 0.27587494E+03</rscale>
<asrwt>0</asrwt>
<pdfrwt beam="1">  1        2 0.16466229E+00 0.27587494E+03</pdfrwt>
<pdfrwt beam="2">  1       -2 0.27349137E-02 0.27587494E+03</pdfrwt>
<totfact> 0.11547830E+04</totfact>
</mgrwt>
</event>
<event>
 9    1  0.2114844E-002  0.2750833E+03  0.7818608E-02  0.1098405E+00
          2   -1    0    0  501    0  0.00000000000E+00  0.00000000000E+00  0.11033116180E+04  0.11033116180E+04  0.00000000000E+00 0. -1.
         -2   -1    0    0    0  501 -0.00000000000E+00 -0.00000000000E+00 -0.17146288280E+02  0.17146288280E+02  0.00000000000E+00 0. -1.
         36    2    1    2    0    0 -0.71054273576E-14  0.71054273576E-14  0.10861653298E+04  0.11204579063E+04  0.27508325333E+03 0.  0.
         25    2    3    3    0    0 -0.50162409594E+02 -0.12114297292E+02  0.46159693165E+03  0.48132648668E+03  0.12625543924E+03 0.  0.
         25    2    3    3    0    0  0.50162409594E+02  0.12114297292E+02  0.62456839810E+03  0.63913141963E+03  0.12546020929E+03 0.  0.
          5    1    4    4  502    0 -0.46268291867E+02 -0.66336184687E+02  0.30107085114E+03  0.31178035801E+03  0.47000000000E+01 0.  1.
         -5    1    4    4    0  502 -0.38941177264E+01  0.54221887394E+02  0.16052608051E+03  0.16954612868E+03  0.47000000000E+01 0.  1.
          5    1    5    5  503    0 -0.83920798908E+01 -0.45853554960E+02  0.32666771905E+03  0.33001040010E+03  0.47000000000E+01 0.  1.
         -5    1    5    5    0  503  0.58554489485E+02  0.57967852252E+02  0.29790067905E+03  0.30912101953E+03  0.47000000000E+01 0.  1.
<mgrwt>
<rscale>  0 0.27508325E+03</rscale>
<asrwt>0</asrwt>
<pdfrwt beam="1">  1        2 0.16974019E+00 0.27508325E+03</pdfrwt>
<pdfrwt beam="2">  1       -2 0.26378914E-02 0.27508325E+03</pdfrwt>
<totfact> 0.11647710E+04</totfact>
</mgrwt>
</event>
<event>
 9    1  0.2114844E-002  0.2749107E+03  0.7818608E-02  0.1098502E+00
         -2   -1    0    0    0  501 -0.00000000000E+00  0.00000000000E+00  0.25232807461E+02  0.25232807461E+02  0.00000000000E+00 0. -1.
          2   -1    0    0  501    0  0.00000000000E+00 -0.00000000000E+00 -0.74878622528E+03  0.74878622528E+03  0.00000000000E+00 0. -1.
         36    2    1    2    0    0 -0.35527136788E-14 -0.71054273576E-14 -0.72355341782E+03  0.77401903274E+03  0.27491073934E+03 0.  0.
         25    2    3    3    0    0  0.19878986399E+02  0.45924974618E+02 -0.41313194706E+03  0.43690403711E+03  0.13305207466E+03 0.  0.
         25    2    3    3    0    0 -0.19878986399E+02 -0.45924974618E+02 -0.31042147076E+03  0.33711499563E+03  0.12157612173E+03 0.  0.
          5    1    4    4  502    0 -0.16272040051E+02 -0.98243513608E+01 -0.32906154144E+03  0.32964357300E+03  0.47000000000E+01 0.  1.
         -5    1    4    4    0  502  0.36151026450E+02  0.55749325979E+02 -0.84070405621E+02  0.10726046411E+03  0.47000000000E+01 0.  1.
          5    1    5    5  503    0 -0.54177700980E+01  0.36986106133E+02 -0.45320596902E+02  0.58935310156E+02  0.47000000000E+01 0.  1.
         -5    1    5    5    0  503 -0.14461216301E+02 -0.82911080751E+02 -0.26510087386E+03  0.27817968547E+03  0.47000000000E+01 0.  1.
<mgrwt>
<rscale>  0 0.27491074E+03</rscale>
<asrwt>0</asrwt>
<pdfrwt beam="1">  1        2 0.11519787E+00 0.27491074E+03</pdfrwt>
<pdfrwt beam="2">  1       -2 0.38819709E-02 0.27491074E+03</pdfrwt>
<totfact> 0.11053479E+04</totfact>
</mgrwt>
</event>
<event>
 9    1  0.2114844E-002  0.2744559E+03  0.7818608E-02  0.1098756E+00
          1   -1    0    0  501    0  0.00000000000E+00  0.00000000000E+00  0.26250227726E+04  0.26250227726E+04  0.00000000000E+00 0.  1.
         -1   -1    0    0    0  501 -0.00000000000E+00 -0.00000000000E+00 -0.71738466673E+01  0.71738466673E+01  0.00000000000E+00 0.  1.
         36    2    1    2    0    0  0.00000000000E+00  0.00000000000E+00  0.26178489259E+04  0.26321966192E+04  0.27445590443E+03 0.  0.
         25    2    3    3    0    0 -0.39559985987E+02 -0.22576474732E+02  0.16272225579E+04  0.16326571435E+04  0.12506560459E+03 0.  0.
         25    2    3    3    0    0  0.39559985987E+02  0.22576474732E+02  0.99062636799E+03  0.99953947576E+03  0.12515539522E+03 0.  0.
          5    1    4    4  502    0 -0.71980605280E+02 -0.31918756774E+02  0.63937587383E+03  0.64422326302E+03  0.47000000000E+01 0.  1.
         -5    1    4    4    0  502  0.32420619293E+02  0.93422820428E+01  0.98784668409E+03  0.98843388047E+03  0.47000000000E+01 0.  1.
          5    1    5    5  503    0  0.44274186938E+02  0.67144187223E+02  0.45987731177E+03  0.46688090279E+03  0.47000000000E+01 0.  1.
         -5    1    5    5    0  503 -0.47142009506E+01 -0.44567712491E+02  0.53074905622E+03  0.53265857297E+03  0.47000000000E+01 0.  1.
<mgrwt>
<rscale>  0 0.27445590E+03</rscale>
<asrwt>0</asrwt>
<pdfrwt beam="1">  1        1 0.40384889E+00 0.27445590E+03</pdfrwt>
<pdfrwt beam="2">  1       -1 0.11036708E-02 0.27445590E+03</pdfrwt>
<totfact> 0.21327575E+03</totfact>
</mgrwt>
</event>
<event>
 9    1  0.2114844E-002  0.2750860E+03  0.7818608E-02  0.1098404E+00
         -2   -1    0    0    0  501 -0.00000000000E+00  0.00000000000E+00  0.44220666506E+03  0.44220666506E+03  0.00000000000E+00 0. -1.
          2   -1    0    0  501    0  0.00000000000E+00 -0.00000000000E+00 -0.42781070940E+02  0.42781070940E+02  0.00000000000E+00 0. -1.
         36    2    1    2    0    0 -0.71054273576E-14  0.71054273576E-14  0.39942559412E+03  0.48498773600E+03  0.27508598444E+03 0.  0.
         25    2    3    3    0    0 -0.34886942062E+02  0.27075399487E+01  0.30021187383E+03  0.32630857301E+03  0.12298652825E+03 0.  0.
         25    2    3    3    0    0  0.34886942062E+02 -0.27075399487E+01  0.99213720294E+02  0.15867916300E+03  0.11879092969E+03 0.  0.
          5    1    4    4  502    0  0.38800277788E+02 -0.16621459147E+02  0.54981631182E+02  0.69475205851E+02  0.47000000000E+01 0.  1.
         -5    1    4    4    0  502 -0.73687219850E+02  0.19328999096E+02  0.24523024265E+03  0.25683336716E+03  0.47000000000E+01 0.  1.
          5    1    5    5  503    0 -0.17722731686E+02  0.41085509615E+02  0.99249904836E+01  0.46072874393E+02  0.47000000000E+01 0. -1.
         -5    1    5    5    0  503  0.52609673748E+02 -0.43793049564E+02  0.89288729810E+02  0.11260628860E+03  0.47000000000E+01 0. -1.
<mgrwt>
<rscale>  0 0.27508598E+03</rscale>
<asrwt>0</asrwt>
<pdfrwt beam="1">  1        2 0.65817035E-02 0.27508598E+03</pdfrwt>
<pdfrwt beam="2">  1       -2 0.68031791E-01 0.27508598E+03</pdfrwt>
<totfact> 0.22141778E+03</totfact>
</mgrwt>
</event>
<event>
 9    1  0.2114844E-002  0.2752191E+03  0.7818608E-02  0.1098329E+00
          2   -1    0    0  501    0  0.00000000000E+00  0.00000000000E+00  0.97681854372E+02  0.97681854372E+02  0.00000000000E+00 0. -1.
         -2   -1    0    0    0  501 -0.00000000000E+00 -0.00000000000E+00 -0.19385773359E+03  0.19385773359E+03  0.00000000000E+00 0. -1.
         36    2    1    2    0    0 -0.71054273576E-14  0.00000000000E+00 -0.96175879215E+02  0.29153958796E+03  0.27521906112E+03 0.  0.
         25    2    3    3    0    0 -0.15777067778E+02 -0.51925199597E+02 -0.16189126673E+02  0.13661660225E+03  0.12432564485E+03 0.  0.
         25    2    3    3    0    0  0.15777067778E+02  0.51925199597E+02 -0.79986752542E+02  0.15492298571E+03  0.12107067646E+03 0.  0.
          5    1    4    4  502    0 -0.64802225145E+02 -0.12436291280E+01 -0.76499597395E+01  0.65433071769E+02  0.47000000000E+01 0.  1.
         -5    1    4    4    0  502  0.49025157367E+02 -0.50681570469E+02 -0.85391669339E+01  0.71183530482E+02  0.47000000000E+01 0.  1.
          5    1    5    5  503    0  0.61839507674E+02  0.43783066642E+02 -0.19620348785E+02  0.78410010333E+02  0.47000000000E+01 0.  1.
         -5    1    5    5    0  503 -0.46062439896E+02  0.81421329544E+01 -0.60366403756E+02  0.76512975375E+02  0.47000000000E+01 0.  1.
<mgrwt>
<rscale>  0 0.27521906E+03</rscale>
<asrwt>0</asrwt>
<pdfrwt beam="1">  1        2 0.15027978E-01 0.27521906E+03</pdfrwt>
<pdfrwt beam="2">  1       -2 0.29824266E-01 0.27521906E+03</pdfrwt>
<totfact> 0.39972246E+03</totfact>
</mgrwt>
</event>
<event>
 9    1  0.2114844E-002  0.2752680E+03  0.7818608E-02  0.1098302E+00
         -2   -1    0    0    0  501 -0.00000000000E+00  0.00000000000E+00  0.90009759419E+01  0.90009759419E+01  0.00000000000E+00 0.  1.
          2   -1    0    0  501    0  0.00000000000E+00 -0.00000000000E+00 -0.21045619775E+04  0.21045619775E+04  0.00000000000E+00 0.  1.
         36    2    1    2    0    0  0.35527136788E-14  0.00000000000E+00 -0.20955610015E+04  0.21135629534E+04  0.27526795474E+03 0.  0.
         25    2    3    3    0    0  0.10312157616E+02  0.39687682906E+02 -0.97250202910E+03  0.98152253752E+03  0.12627288816E+03 0.  0.
         25    2    3    3    0    0 -0.10312157616E+02 -0.39687682906E+02 -0.11230589724E+04  0.11320404159E+04  0.13628130795E+03 0.  0.
          5    1    4    4  502    0 -0.16104338666E+02  0.39285573215E+02 -0.93175163510E+03  0.93273034983E+03  0.47000000000E+01 0.  1.
         -5    1    4    4    0  502  0.26416496282E+02  0.40210969096E+00 -0.40750394000E+02  0.48792187686E+02  0.47000000000E+01 0.  1.
          5    1    5    5  503    0 -0.41056472803E+02 -0.57518150599E+02 -0.30178165517E+03  0.30998101394E+03  0.47000000000E+01 0.  1.
         -5    1    5    5    0  503  0.30744315187E+02  0.17830467693E+02 -0.82127731725E+03  0.82205940194E+03  0.47000000000E+01 0.  1.
<mgrwt>
<rscale>  0 0.27526795E+03</rscale>
<asrwt>0</asrwt>
<pdfrwt beam="1">  1        2 0.32377927E+00 0.27526795E+03</pdfrwt>
<pdfrwt beam="2">  1       -2 0.13847634E-02 0.27526795E+03</pdfrwt>
<totfact> 0.86776038E+03</totfact>
</mgrwt>
</event>
<event>
 9    1  0.2114844E-002  0.2753522E+03  0.7818608E-02  0.1098255E+00
         -2   -1    0    0    0  501 -0.00000000000E+00  0.00000000000E+00  0.31169703986E+02  0.31169703986E+02  0.00000000000E+00 0. -1.
          2   -1    0    0  501    0  0.00000000000E+00 -0.00000000000E+00 -0.60811318837E+03  0.60811318837E+03  0.00000000000E+00 0. -1.
         36    2    1    2    0    0  0.35527136788E-14 -0.71054273576E-14 -0.57694348438E+03  0.63928289235E+03  0.27535219681E+03 0.  0.
         25    2    3    3    0    0 -0.29941495778E+02 -0.63331771787E+02 -0.34554747886E+03  0.37429619112E+03  0.12564701373E+03 0.  0.
         25    2    3    3    0    0  0.29941495778E+02  0.63331771787E+02 -0.23139600552E+03  0.26498670123E+03  0.10847319470E+03 0.  0.
          5    1    4    4  502    0 -0.58433547394E+02  0.21004960115E+01 -0.79475181961E+02  0.98778975963E+02  0.47000000000E+01 0. -1.
         -5    1    4    4    0  502  0.28492051616E+02 -0.65432267799E+02 -0.26607229690E+03  0.27551721516E+03  0.47000000000E+01 0. -1.
          5    1    5    5  503    0  0.61941816782E+02  0.15056908333E+02 -0.77331990798E+02  0.10032858992E+03  0.47000000000E+01 0. -1.
         -5    1    5    5    0  503 -0.32000321004E+02  0.48274863454E+02 -0.15406401473E+03  0.16465811131E+03  0.47000000000E+01 0. -1.
<mgrwt>
<rscale>  0 0.27535220E+03</rscale>
<asrwt>0</asrwt>
<pdfrwt beam="1">  1        2 0.93555872E-01 0.27535220E+03</pdfrwt>
<pdfrwt beam="2">  1       -2 0.47953392E-02 0.27535220E+03</pdfrwt>
<totfact> 0.10317113E+04</totfact>
</mgrwt>
</event>
<event>
 9    1  0.2114844E-002  0.2743708E+03  0.7818608E-02  0.1098804E+00
          1   -1    0    0  501    0  0.00000000000E+00  0.00000000000E+00  0.43562858189E+02  0.43562858189E+02  0.00000000000E+00 0.  1.
         -1   -1    0    0    0  501 -0.00000000000E+00 -0.00000000000E+00 -0.43201573371E+03  0.43201573371E+03  0.00000000000E+00 0.  1.
         36    2    1    2    0    0 -0.71054273576E-14  0.71054273576E-14 -0.38845287553E+03  0.47557859190E+03  0.27437084498E+03 0.  0.
         25    2    3    3    0    0  0.33959321265E+02 -0.39873512659E+02 -0.15975539433E+03  0.20891814703E+03  0.12402368171E+03 0.  0.
         25    2    3    3    0    0 -0.33959321265E+02  0.39873512659E+02 -0.22869748119E+03  0.26666044488E+03  0.12673642904E+03 0.  0.
          5    1    4    4  502    0 -0.16275316398E+02  0.20602547142E+02 -0.11557690201E+03  0.11861475942E+03  0.47000000000E+01 0. -1.
         -5    1    4    4    0  502  0.50234637663E+02 -0.60476059801E+02 -0.44178492323E+02  0.90303387612E+02  0.47000000000E+01 0. -1.
          5    1    5    5  503    0 -0.25004887233E+02 -0.24521930167E+01  0.73807078007E+01  0.26604933448E+02  0.47000000000E+01 0.  1.
         -5    1    5    5    0  503 -0.89544340323E+01  0.42325705676E+02 -0.23607818899E+03  0.24005551143E+03  0.47000000000E+01 0.  1.
<mgrwt>
<rscale>  0 0.27437084E+03</rscale>
<asrwt>0</asrwt>
<pdfrwt beam="1">  1        1 0.67019781E-02 0.27437084E+03</pdfrwt>
<pdfrwt beam="2">  1       -1 0.66463960E-01 0.27437084E+03</pdfrwt>
<totfact> 0.26299505E+03</totfact>
</mgrwt>
</event>
<event>
 9    1  0.2114844E-002  0.2749643E+03  0.7818608E-02  0.1098472E+00
          2   -1    0    0  501    0  0.00000000000E+00  0.00000000000E+00  0.23055829838E+04  0.23055829838E+04  0.00000000000E+00 0. -1.
         -2   -1    0    0    0  501 -0.00000000000E+00 -0.00000000000E+00 -0.81980751677E+01  0.81980751677E+01  0.00000000000E+00 0. -1.
         36    2    1    2    0    0 -0.71054273576E-14 -0.14210854715E-13  0.22973849086E+04  0.23137810590E+04  0.27496430755E+03 0.  0.
         25    2    3    3    0    0 -0.22958259362E+02 -0.57218034542E+02  0.12112713043E+04  0.12188658456E+04  0.12105697791E+03 0.  0.
         25    2    3    3    0    0  0.22958259362E+02  0.57218034542E+02  0.10861136044E+04  0.10949152134E+04  0.12407891726E+03 0.  0.
          5    1    4    4  502    0 -0.46459971671E+02  0.23008722278E+02  0.44632342911E+03  0.44934911109E+03  0.47000000000E+01 0. -1.
         -5    1    4    4    0  502  0.23501712308E+02 -0.80226756819E+02  0.76494787515E+03  0.76951673450E+03  0.47000000000E+01 0. -1.
          5    1    5    5  503    0  0.33055353258E+02  0.90450985274E+00  0.88863501640E+03  0.88926247919E+03  0.47000000000E+01 0.  1.
         -5    1    5    5    0  503 -0.10097093895E+02  0.56313524689E+02  0.19747858798E+03  0.20565273419E+03  0.47000000000E+01 0.  1.
<mgrwt>
<rscale>  0 0.27496431E+03</rscale>
<asrwt>0</asrwt>
<pdfrwt beam="1">  1        2 0.35470456E+00 0.27496431E+03</pdfrwt>
<pdfrwt beam="2">  1       -2 0.12612442E-02 0.27496431E+03</pdfrwt>
<totfact> 0.77733614E+03</totfact>
</mgrwt>
</event>
<event>
 9    1  0.2114844E-002  0.2741533E+03  0.7818608E-02  0.1098926E+00
         -3   -1    0    0    0  501 -0.00000000000E+00  0.00000000000E+00  0.82828201452E+03  0.82828201452E+03  0.00000000000E+00 0.  1.
          3   -1    0    0  501    0  0.00000000000E+00 -0.00000000000E+00 -0.22685512846E+02  0.22685512846E+02  0.00000000000E+00 0.  1.
         36    2    1    2    0    0  0.00000000000E+00  0.71054273576E-14  0.80559650167E+03  0.85096752737E+03  0.27415325846E+03 0.  0.
         25    2    3    3    0    0  0.22355863868E+00 -0.78987282723E+01  0.26646824447E+03  0.29723098882E+03  0.13144769117E+03 0.  0.
         25    2    3    3    0    0 -0.22355863868E+00  0.78987282723E+01  0.53912825720E+03  0.55373653855E+03  0.12610486321E+03 0.  0.
          5    1    4    4  502    0 -0.40127751781E+02 -0.42438290515E+02  0.59514952331E+02  0.83518647713E+02  0.47000000000E+01 0.  1.
         -5    1    4    4    0  502  0.40351310419E+02  0.34539562242E+02  0.20695329214E+03  0.21371234111E+03  0.47000000000E+01 0.  1.
          5    1    5    5  503    0  0.28523077728E+02  0.58556382818E+02  0.22797087387E+03  0.23713967459E+03  0.47000000000E+01 0.  1.
         -5    1    5    5    0  503 -0.28746636367E+02 -0.50657654546E+02  0.31115738333E+03  0.31659686396E+03  0.47000000000E+01 0.  1.
<mgrwt>
<rscale>  0 0.27415326E+03</rscale>
<asrwt>0</asrwt>
<pdfrwt beam="1">  1        3 0.34900795E-02 0.27415326E+03</pdfrwt>
<pdfrwt beam="2">  1       -3 0.12742798E+00 0.27415326E+03</pdfrwt>
<totfact> 0.52177012E+02</totfact>
</mgrwt>
</event>
<event>
 9    1  0.2114844E-002  0.2743787E+03  0.7818608E-02  0.1098799E+00
          2   -1    0    0  501    0  0.00000000000E+00  0.00000000000E+00  0.36513060055E+04  0.36513060055E+04  0.00000000000E+00 0. -1.
         -2   -1    0    0    0  501 -0.00000000000E+00 -0.00000000000E+00 -0.51545711478E+01  0.51545711478E+01  0.00000000000E+00 0. -1.
         36    2    1    2    0    0  0.71054273576E-14 -0.71054273576E-14  0.36461514344E+04  0.36564605767E+04  0.27437869150E+03 0.  0.
         25    2    3    3    0    0  0.30505897413E+02 -0.33082802732E+02  0.13783285640E+04  0.13852668415E+04  0.13095613825E+03 0.  0.
         25    2    3    3    0    0 -0.30505897413E+02  0.33082802732E+02  0.22678228703E+04  0.22711937352E+04  0.11521861729E+03 0.  0.
          5    1    4    4  502    0  0.65918976132E+02 -0.33459022430E+02  0.43497768817E+03  0.44123972713E+03  0.47000000000E+01 0.  1.
         -5    1    4    4    0  502 -0.35413078718E+02  0.37621969806E+00  0.94335087584E+03  0.94402711436E+03  0.47000000000E+01 0.  1.
          5    1    5    5  503    0 -0.69764360344E+02  0.35403073019E+02  0.17968412047E+04  0.17985496514E+04  0.47000000000E+01 0.  1.
         -5    1    5    5    0  503  0.39258462931E+02 -0.23202702875E+01  0.47098166563E+03  0.47264408378E+03  0.47000000000E+01 0.  1.
<mgrwt>
<rscale>  0 0.27437869E+03</rscale>
<asrwt>0</asrwt>
<pdfrwt beam="1">  1        2 0.56173732E+00 0.27437869E+03</pdfrwt>
<pdfrwt beam="2">  1       -2 0.79301387E-03 0.27437869E+03</pdfrwt>
<totfact> 0.23923978E+03</totfact>
</mgrwt>
</event>
<event>
 9    1  0.2114844E-002  0.2760383E+03  0.7818608E-02  0.1097873E+00
          3   -1    0    0  501    0  0.00000000000E+00  0.00000000000E+00  0.13435828048E+02  0.13435828048E+02  0.00000000000E+00 0.  1.
         -3   -1    0    0    0  501 -0.00000000000E+00 -0.00000000000E+00 -0.14177971996E+04  0.14177971996E+04  0.00000000000E+00 0.  1.
         36    2    1    2    0    0  0.00000000000E+00  0.00000000000E+00 -0.14043613716E+04  0.14312330277E+04  0.27603825373E+03 0.  0.
         25    2    3    3    0    0  0.55308372202E+02  0.55438748218E+01 -0.69193093598E+03  0.70509407817E+03  0.12369110038E+03 0.  0.
         25    2    3    3    0    0 -0.55308372202E+02 -0.55438748218E+01 -0.71243043557E+03  0.72613894948E+03  0.12896083841E+03 0.  0.
          5    1    4    4  502    0 -0.20854939851E+01 -0.45482605231E+02 -0.42003246191E+03  0.42251908326E+03  0.47000000000E+01 0. -1.
         -5    1    4    4    0  502  0.57393866187E+02  0.51026480052E+02 -0.27189847408E+03  0.28257499491E+03  0.47000000000E+01 0. -1.
          5    1    5    5  503    0 -0.49734416884E+02  0.34896385303E+02 -0.14582269228E+03  0.15804308752E+03  0.47000000000E+01 0. -1.
         -5    1    5    5    0  503 -0.55739553176E+01 -0.40440260125E+02 -0.56660774329E+03  0.56809586196E+03  0.47000000000E+01 0. -1.
<mgrwt>
<rscale>  0 0.27603825E+03</rscale>
<asrwt>0</asrwt>
<pdfrwt beam="1">  1        3 0.20670505E-02 0.27603825E+03</pdfrwt>
<pdfrwt beam="2">  1       -3 0.21812264E+00 0.27603825E+03</pdfrwt>
<totfact> 0.28518450E+02</totfact>
</mgrwt>
</event>
<event>
 9    1  0.2114844E-002  0.2708047E+03  0.7818608E-02  0.1100820E+00
          1   -1    0    0  501    0  0.00000000000E+00  0.00000000000E+00  0.15780874014E+03  0.15780874014E+03  0.00000000000E+00 0.  1.
         -1   -1    0    0    0  501 -0.00000000000E+00 -0.00000000000E+00 -0.11617733748E+03  0.11617733748E+03  0.00000000000E+00 0.  1.
         36    2    1    2    0    0  0.14210854715E-13  0.35527136788E-14  0.41631402668E+02  0.27398607762E+03  0.27080472123E+03 0.  0.
         25    2    3    3    0    0  0.58411287474E+02  0.18793986896E+02  0.97261818636E+01  0.13687657191E+03  0.12196517895E+03 0.  0.
         25    2    3    3    0    0 -0.58411287474E+02 -0.18793986896E+02  0.31905220804E+02  0.13710950571E+03  0.11838910842E+03 0.  0.
          5    1    4    4  502    0 -0.20639759823E+02  0.34894050615E+01 -0.37651648713E+02  0.43334885301E+02  0.47000000000E+01 0.  1.
         -5    1    4    4    0  502  0.79051047298E+02  0.15304581834E+02  0.47377830576E+02  0.93541686611E+02  0.47000000000E+01 0.  1.
          5    1    5    5  503    0 -0.62869789558E+02 -0.23919896400E+02  0.70549887742E+02  0.97591744237E+02  0.47000000000E+01 0. -1.
         -5    1    5    5    0  503  0.44585020840E+01  0.51259095044E+01 -0.38644666937E+02  0.39517761472E+02  0.47000000000E+01 0. -1.
<mgrwt>
<rscale>  0 0.27080472E+03</rscale>
<asrwt>0</asrwt>
<pdfrwt beam="1">  1        1 0.24278268E-01 0.27080472E+03</pdfrwt>
<pdfrwt beam="2">  1       -1 0.17873437E-01 0.27080472E+03</pdfrwt>
<totfact> 0.47770507E+03</totfact>
</mgrwt>
</event>
<event>
 9    1  0.2114844E-002  0.2748786E+03  0.7818608E-02  0.1098519E+00
          1   -1    0    0  501    0  0.00000000000E+00  0.00000000000E+00  0.12703071445E+03  0.12703071445E+03  0.00000000000E+00 0. -1.
         -1   -1    0    0    0  501 -0.00000000000E+00 -0.00000000000E+00 -0.14870071744E+03  0.14870071744E+03  0.00000000000E+00 0. -1.
         36    2    1    2    0    0  0.00000000000E+00 -0.14210854715E-13 -0.21670002989E+02  0.27573143189E+03  0.27487857956E+03 0.  0.
         25    2    3    3    0    0  0.25394978972E+02  0.48789225792E+02 -0.11641185588E+02  0.12632333184E+03  0.11312282464E+03 0.  0.
         25    2    3    3    0    0 -0.25394978972E+02 -0.48789225792E+02 -0.10028817401E+02  0.14940810005E+03  0.13855291289E+03 0.  0.
          5    1    4    4  502    0  0.48519923791E+01 -0.36362788829E+02  0.40640643524E+01  0.37207537684E+02  0.47000000000E+01 0. -1.
         -5    1    4    4    0  502  0.20542986593E+02  0.85152014621E+02 -0.15705249941E+02  0.89115794155E+02  0.47000000000E+01 0. -1.
          5    1    5    5  503    0 -0.78916186610E+02 -0.32370140549E+02 -0.28838492324E+02  0.90162847935E+02  0.47000000000E+01 0.  1.
         -5    1    5    5    0  503  0.53521207638E+02 -0.16419085243E+02  0.18809674924E+02  0.59245252114E+02  0.47000000000E+01 0.  1.
<mgrwt>
<rscale>  0 0.27487858E+03</rscale>
<asrwt>0</asrwt>
<pdfrwt beam="1">  1        1 0.19543187E-01 0.27487858E+03</pdfrwt>
<pdfrwt beam="2">  1       -1 0.22877033E-01 0.27487858E+03</pdfrwt>
<totfact> 0.42239089E+03</totfact>
</mgrwt>
</event>
<event>
 9    1  0.2114844E-002  0.2756087E+03  0.7818608E-02  0.1098112E+00
          1   -1    0    0  501    0  0.00000000000E+00  0.00000000000E+00  0.73792307977E+02  0.73792307977E+02  0.00000000000E+00 0. -1.
         -1   -1    0    0    0  501 -0.00000000000E+00 -0.00000000000E+00 -0.25734441555E+03  0.25734441555E+03  0.00000000000E+00 0. -1.
         36    2    1    2    0    0  0.00000000000E+00 -0.35527136788E-14 -0.18355210758E+03  0.33113672353E+03  0.27560869630E+03 0.  0.
         25    2    3    3    0    0 -0.32290096042E+02 -0.16287083896E+02 -0.15718653140E+03  0.20569256289E+03  0.12764758270E+03 0.  0.
         25    2    3    3    0    0  0.32290096042E+02  0.16287083896E+02 -0.26365576171E+02  0.12544416064E+03  0.11718862755E+03 0.  0.
          5    1    4    4  502    0  0.30841096365E+01 -0.43637201882E+02 -0.19115507785E+01  0.44039313650E+02  0.47000000000E+01 0.  1.
         -5    1    4    4    0  502 -0.35374205679E+02  0.27350117987E+02 -0.15527498063E+03  0.16165324924E+03  0.47000000000E+01 0.  1.
          5    1    5    5  503    0  0.15272506506E+02 -0.71258310303E+01 -0.70398964438E+02  0.72540548087E+02  0.47000000000E+01 0. -1.
         -5    1    5    5    0  503  0.17017589536E+02  0.23412914926E+02  0.44033388266E+02  0.52903612553E+02  0.47000000000E+01 0. -1.
<mgrwt>
<rscale>  0 0.27560870E+03</rscale>
<asrwt>0</asrwt>
<pdfrwt beam="1">  1        1 0.11352663E-01 0.27560870E+03</pdfrwt>
<pdfrwt beam="2">  1       -1 0.39591448E-01 0.27560870E+03</pdfrwt>
<totfact> 0.33841197E+03</totfact>
</mgrwt>
</event>
<event>
 9    1  0.2114844E-002  0.2744546E+03  0.7818608E-02  0.1098757E+00
         -2   -1    0    0    0  501 -0.00000000000E+00  0.00000000000E+00  0.11607528549E+02  0.11607528549E+02  0.00000000000E+00 0.  1.
          2   -1    0    0  501    0  0.00000000000E+00 -0.00000000000E+00 -0.16223378475E+04  0.16223378475E+04  0.00000000000E+00 0.  1.
         36    2    1    2    0    0  0.00000000000E+00  0.00000000000E+00 -0.16107303190E+04  0.16339453761E+04  0.27445460740E+03 0.  0.
         25    2    3    3    0    0  0.11886057715E+02  0.52215428484E+02 -0.10018996905E+04  0.10112320115E+04  0.12617234960E+03 0.  0.
         25    2    3    3    0    0 -0.11886057715E+02 -0.52215428484E+02 -0.60883062848E+03  0.62271336464E+03  0.11928734627E+03 0.  0.
          5    1    4    4  502    0  0.33536985354E+02 -0.25720535051E+00 -0.71757301507E+02  0.79347311617E+02  0.47000000000E+01 0. -1.
         -5    1    4    4    0  502 -0.21650927639E+02  0.52472633835E+02 -0.93014238901E+03  0.93188469984E+03  0.47000000000E+01 0. -1.
          5    1    5    5  503    0  0.49226199220E+02 -0.18031605744E+02 -0.37193037279E+03  0.37563632639E+03  0.47000000000E+01 0. -1.
         -5    1    5    5    0  503 -0.61112256934E+02 -0.34183822740E+02 -0.23690025569E+03  0.24707703825E+03  0.47000000000E+01 0. -1.
<mgrwt>
<rscale>  0 0.27445461E+03</rscale>
<asrwt>0</asrwt>
<pdfrwt beam="1">  1        2 0.24959039E+00 0.27445461E+03</pdfrwt>
<pdfrwt beam="2">  1       -2 0.17857740E-02 0.27445461E+03</pdfrwt>
<totfact> 0.10724941E+04</totfact>
</mgrwt>
</event>
<event>
 9    1  0.2114844E-002  0.2747364E+03  0.7818608E-02  0.1098599E+00
          2   -1    0    0  501    0  0.00000000000E+00  0.00000000000E+00  0.27750462365E+04  0.27750462365E+04  0.00000000000E+00 0. -1.
         -2   -1    0    0    0  501 -0.00000000000E+00 -0.00000000000E+00 -0.67998943188E+01  0.67998943188E+01  0.00000000000E+00 0. -1.
         36    2    1    2    0    0  0.35527136788E-14  0.00000000000E+00  0.27682463422E+04  0.27818461308E+04  0.27473639102E+03 0.  0.
         25    2    3    3    0    0 -0.10142686112E+02 -0.45258729842E+02  0.10629087513E+04  0.10712327652E+04  0.12495357912E+03 0.  0.
         25    2    3    3    0    0  0.10142686112E+02  0.45258729842E+02  0.17053375909E+04  0.17106133657E+04  0.12597841505E+03 0.  0.
          5    1    4    4  502    0  0.47949941687E+01 -0.81185589152E+02  0.89986832566E+03  0.90354810906E+03  0.47000000000E+01 0.  1.
         -5    1    4    4    0  502 -0.14937680280E+02  0.35926859309E+02  0.16304042562E+03  0.16768465612E+03  0.47000000000E+01 0.  1.
          5    1    5    5  503    0  0.51270147705E+02 -0.78428135290E+01  0.11548215928E+04  0.11559953023E+04  0.47000000000E+01 0. -1.
         -5    1    5    5    0  503 -0.41127461593E+02  0.53101543371E+02  0.55051599812E+03  0.55461806335E+03  0.47000000000E+01 0. -1.
<mgrwt>
<rscale>  0 0.27473639E+03</rscale>
<asrwt>0</asrwt>
<pdfrwt beam="1">  1        2 0.42692929E+00 0.27473639E+03</pdfrwt>
<pdfrwt beam="2">  1       -2 0.10461398E-02 0.27473639E+03</pdfrwt>
<totfact> 0.56217097E+03</totfact>
</mgrwt>
</event>
<event>
 9    1  0.2114844E-002  0.2748655E+03  0.7818608E-02  0.1098527E+00
         -1   -1    0    0    0  501 -0.00000000000E+00  0.00000000000E+00  0.52202360539E+03  0.52202360539E+03  0.00000000000E+00 0.  1.
          1   -1    0    0  501    0  0.00000000000E+00 -0.00000000000E+00 -0.36181814508E+02  0.36181814508E+02  0.00000000000E+00 0.  1.
         36    2    1    2    0    0  0.00000000000E+00  0.00000000000E+00  0.48584179088E+03  0.55820541989E+03  0.27486550354E+03 0.  0.
         25    2    3    3    0    0 -0.20043854476E+02 -0.89178223075E+01  0.22191882714E+03  0.26469842163E+03  0.14260436500E+03 0.  0.
         25    2    3    3    0    0  0.20043854476E+02  0.89178223075E+01  0.26392296374E+03  0.29350699826E+03  0.12652961545E+03 0.  0.
          5    1    4    4  502    0  0.18284887099E+02 -0.69595684625E+02  0.10335340984E+03  0.12602346504E+03  0.47000000000E+01 0. -1.
         -5    1    4    4    0  502 -0.38328741574E+02  0.60677862317E+02  0.11856541730E+03  0.13867495659E+03  0.47000000000E+01 0. -1.
          5    1    5    5  503    0  0.15441982976E+02 -0.39023499209E+02  0.23135512550E+03  0.23517774645E+03  0.47000000000E+01 0.  1.
         -5    1    5    5    0  503  0.46018714996E+01  0.47941321517E+02  0.32567838234E+02  0.58329251815E+02  0.47000000000E+01 0.  1.
<mgrwt>
<rscale>  0 0.27486550E+03</rscale>
<asrwt>0</asrwt>
<pdfrwt beam="1">  1        1 0.55664334E-02 0.27486550E+03</pdfrwt>
<pdfrwt beam="2">  1       -1 0.80311319E-01 0.27486550E+03</pdfrwt>
<totfact> 0.23156717E+03</totfact>
</mgrwt>
</event>
<event>
 9    1  0.2114844E-002  0.2750056E+03  0.7818608E-02  0.1098448E+00
         -1   -1    0    0    0  501 -0.00000000000E+00  0.00000000000E+00  0.24145029413E+02  0.24145029413E+02  0.00000000000E+00 0. -1.
          1   -1    0    0  501    0  0.00000000000E+00 -0.00000000000E+00 -0.78306064611E+03  0.78306064611E+03  0.00000000000E+00 0. -1.
         36    2    1    2    0    0  0.00000000000E+00  0.00000000000E+00 -0.75891561670E+03  0.80720567552E+03  0.27500561691E+03 0.  0.
         25    2    3    3    0    0  0.32393282826E+02 -0.11937049691E+02 -0.51131530679E+03  0.52746005528E+03  0.12481566021E+03 0.  0.
         25    2    3    3    0    0 -0.32393282826E+02  0.11937049691E+02 -0.24760030991E+03  0.27974562024E+03  0.12553836326E+03 0.  0.
          5    1    4    4  502    0  0.26972433716E+02  0.10435039162E+02 -0.19752915427E+02  0.35336523467E+02  0.47000000000E+01 0.  1.
         -5    1    4    4    0  502  0.54208491098E+01 -0.22372088852E+02 -0.49156239136E+03  0.49212353182E+03  0.47000000000E+01 0.  1.
          5    1    5    5  503    0  0.38452291575E+02  0.82517409033E+01 -0.26906222345E+02  0.47882196652E+02  0.47000000000E+01 0.  1.
         -5    1    5    5    0  503 -0.70845574401E+02  0.36853087875E+01 -0.22069408756E+03  0.23186342359E+03  0.47000000000E+01 0.  1.
<mgrwt>
<rscale>  0 0.27500562E+03</rscale>
<asrwt>0</asrwt>
<pdfrwt beam="1">  1        1 0.12047086E+00 0.27500562E+03</pdfrwt>
<pdfrwt beam="2">  1       -1 0.37146203E-02 0.27500562E+03</pdfrwt>
<totfact> 0.65273931E+03</totfact>
</mgrwt>
</event>
<event>
 9    1  0.2114844E-002  0.2767295E+03  0.7818608E-02  0.1097489E+00
         -3   -1    0    0    0  501 -0.00000000000E+00  0.00000000000E+00  0.45146100530E+03  0.45146100530E+03  0.00000000000E+00 0. -1.
          3   -1    0    0  501    0  0.00000000000E+00 -0.00000000000E+00 -0.42406342553E+02  0.42406342553E+02  0.00000000000E+00 0. -1.
         36    2    1    2    0    0  0.35527136788E-14  0.00000000000E+00  0.40905466275E+03  0.49386734786E+03  0.27672954335E+03 0.  0.
         25    2    3    3    0    0  0.59067369700E+01 -0.15372487264E+00  0.32626944942E+03  0.34922970787E+03  0.12439743592E+03 0.  0.
         25    2    3    3    0    0 -0.59067369700E+01  0.15372487264E+00  0.82785213336E+02  0.14463763999E+03  0.11845565492E+03 0.  0.
          5    1    4    4  502    0 -0.27990010094E+02 -0.51519642711E+02  0.20332294511E+03  0.21166016219E+03  0.47000000000E+01 0.  1.
         -5    1    4    4    0  502  0.33896747064E+02  0.51365917838E+02  0.12294650430E+03  0.13756954568E+03  0.47000000000E+01 0.  1.
          5    1    5    5  503    0 -0.15525722209E+02  0.54823696896E+02  0.19690387183E+02  0.60468893978E+02  0.47000000000E+01 0.  1.
         -5    1    5    5    0  503  0.96189852391E+01 -0.54669972024E+02  0.63094826153E+02  0.84168746013E+02  0.47000000000E+01 0.  1.
<mgrwt>
<rscale>  0 0.27672954E+03</rscale>
<asrwt>0</asrwt>
<pdfrwt beam="1">  1        3 0.65240530E-02 0.27672954E+03</pdfrwt>
<pdfrwt beam="2">  1       -3 0.69455536E-01 0.27672954E+03</pdfrwt>
<totfact> 0.76483965E+02</totfact>
</mgrwt>
</event>
<event>
 9    1  0.2114844E-002  0.2755714E+03  0.7818608E-02  0.1098133E+00
          2   -1    0    0  501    0  0.00000000000E+00  0.00000000000E+00  0.36959342745E+03  0.36959342745E+03  0.00000000000E+00 0.  1.
         -2   -1    0    0    0  501 -0.00000000000E+00 -0.00000000000E+00 -0.51366986031E+02  0.51366986031E+02  0.00000000000E+00 0.  1.
         36    2    1    2    0    0 -0.71054273576E-14 -0.71054273576E-14  0.31822644141E+03  0.42096041348E+03  0.27557140944E+03 0.  0.
         25    2    3    3    0    0  0.41030275198E+02  0.15375779699E+01  0.22136897958E+03  0.25825069340E+03  0.12650433942E+03 0.  0.
         25    2    3    3    0    0 -0.41030275198E+02 -0.15375779699E+01  0.96857461832E+02  0.16270972007E+03  0.12412589361E+03 0.  0.
          5    1    4    4  502    0  0.38864518386E+02  0.44536239169E+02  0.20251209551E+03  0.21101461138E+03  0.47000000000E+01 0. -1.
         -5    1    4    4    0  502  0.21657568118E+01 -0.42998661199E+02  0.18856884070E+02  0.47236082017E+02  0.47000000000E+01 0. -1.
          5    1    5    5  503    0 -0.73807311271E+01  0.44538264528E+02  0.95166313448E+02  0.10543647099E+03  0.47000000000E+01 0.  1.
         -5    1    5    5    0  503 -0.33649544071E+02 -0.46075842497E+02  0.16911483836E+01  0.57273249086E+02  0.47000000000E+01 0.  1.
<mgrwt>
<rscale>  0 0.27557141E+03</rscale>
<asrwt>0</asrwt>
<pdfrwt beam="1">  1        2 0.56860526E-01 0.27557141E+03</pdfrwt>
<pdfrwt beam="2">  1       -2 0.79026135E-02 0.27557141E+03</pdfrwt>
<totfact> 0.83352479E+03</totfact>
</mgrwt>
</event>
<event>
 9    1  0.2114844E-002  0.2755025E+03  0.7818608E-02  0.1098171E+00
          2   -1    0    0  501    0  0.00000000000E+00  0.00000000000E+00  0.22937168208E+04  0.22937168208E+04  0.00000000000E+00 0. -1.
         -2   -1    0    0    0  501 -0.00000000000E+00 -0.00000000000E+00 -0.82727784136E+01  0.82727784136E+01  0.00000000000E+00 0. -1.
         36    2    1    2    0    0 -0.71054273576E-14  0.00000000000E+00  0.22854440424E+04  0.23019895992E+04  0.27550252995E+03 0.  0.
         25    2    3    3    0    0 -0.35423906183E+02 -0.24904570874E+02  0.85404443650E+03  0.86418871241E+03  0.12472024837E+03 0.  0.
         25    2    3    3    0    0  0.35423906183E+02  0.24904570874E+02  0.14313996059E+04  0.14378008868E+04  0.12841910915E+03 0.  0.
          5    1    4    4  502    0  0.36190701615E+02 -0.36342031626E+02  0.50745322583E+03  0.51006016954E+03  0.47000000000E+01 0. -1.
         -5    1    4    4    0  502 -0.71614607798E+02  0.11437460752E+02  0.34659121067E+03  0.35412854287E+03  0.47000000000E+01 0. -1.
          5    1    5    5  503    0 -0.15261787142E+02  0.64756631568E+02  0.90331688479E+03  0.90577581544E+03  0.47000000000E+01 0.  1.
         -5    1    5    5    0  503  0.50685693325E+02 -0.39852060694E+02  0.52808272109E+03  0.53202507137E+03  0.47000000000E+01 0.  1.
<mgrwt>
<rscale>  0 0.27550253E+03</rscale>
<asrwt>0</asrwt>
<pdfrwt beam="1">  1        2 0.35287900E+00 0.27550253E+03</pdfrwt>
<pdfrwt beam="2">  1       -2 0.12727370E-02 0.27550253E+03</pdfrwt>
<totfact> 0.77844789E+03</totfact>
</mgrwt>
</event>
<event>
 9    1  0.2114844E-002  0.2736179E+03  0.7818608E-02  0.1099227E+00
          1   -1    0    0  501    0  0.00000000000E+00  0.00000000000E+00  0.20794640606E+03  0.20794640606E+03  0.00000000000E+00 0. -1.
         -1   -1    0    0    0  501 -0.00000000000E+00 -0.00000000000E+00 -0.90007300767E+02  0.90007300767E+02  0.00000000000E+00 0. -1.
         36    2    1    2    0    0  0.35527136788E-14  0.00000000000E+00  0.11793910529E+03  0.29795370682E+03  0.27361794322E+03 0.  0.
         25    2    3    3    0    0  0.13030647834E+02 -0.38188408305E+02  0.95878194693E+02  0.16251406078E+03  0.12486007937E+03 0.  0.
         25    2    3    3    0    0 -0.13030647834E+02  0.38188408305E+02  0.22060910598E+02  0.13543964605E+03  0.12739333433E+03 0.  0.
          5    1    4    4  502    0  0.44376113619E+02  0.75006201181E+01 -0.67873476448E+01  0.45756495169E+02  0.47000000000E+01 0.  1.
         -5    1    4    4    0  502 -0.31345465785E+02 -0.45689028423E+02  0.10266554234E+03  0.11675756561E+03  0.47000000000E+01 0.  1.
          5    1    5    5  503    0  0.41682740153E+01  0.18509072312E+02 -0.52643938967E+02  0.56155450102E+02  0.47000000000E+01 0.  1.
         -5    1    5    5    0  503 -0.17198921849E+02  0.19679335993E+02  0.74704849565E+02  0.79284195944E+02  0.47000000000E+01 0.  1.
<mgrwt>
<rscale>  0 0.27361794E+03</rscale>
<asrwt>0</asrwt>
<pdfrwt beam="1">  1        1 0.31991755E-01 0.27361794E+03</pdfrwt>
<pdfrwt beam="2">  1       -1 0.13847277E-01 0.27361794E+03</pdfrwt>
<totfact> 0.50598198E+03</totfact>
</mgrwt>
</event>
<event>
 9    1  0.2114844E-002  0.2734967E+03  0.7818608E-02  0.1099295E+00
         -3   -1    0    0    0  501 -0.00000000000E+00  0.00000000000E+00  0.90156171839E+02  0.90156171839E+02  0.00000000000E+00 0.  1.
          3   -1    0    0  501    0  0.00000000000E+00 -0.00000000000E+00 -0.20741915168E+03  0.20741915168E+03  0.00000000000E+00 0.  1.
         36    2    1    2    0    0 -0.71054273576E-14  0.71054273576E-14 -0.11726297984E+03  0.29757532352E+03  0.27349673988E+03 0.  0.
         25    2    3    3    0    0  0.35929947002E+02 -0.36999003110E+02 -0.80930526601E+02  0.15789149916E+03  0.12537977527E+03 0.  0.
         25    2    3    3    0    0 -0.35929947002E+02  0.36999003110E+02 -0.36332453242E+02  0.13968382436E+03  0.12462598568E+03 0.  0.
          5    1    4    4  502    0 -0.37687449596E+02  0.13972941363E+02 -0.57408555222E+01  0.40873394396E+02  0.47000000000E+01 0. -1.
         -5    1    4    4    0  502  0.73617396598E+02 -0.50971944473E+02 -0.75189671079E+02  0.11701810476E+03  0.47000000000E+01 0. -1.
          5    1    5    5  503    0 -0.56904382070E+02 -0.30002368581E+02 -0.16506517816E+02  0.66579320735E+02  0.47000000000E+01 0.  1.
         -5    1    5    5    0  503  0.20974435067E+02  0.67001371691E+02 -0.19825935426E+02  0.73104503626E+02  0.47000000000E+01 0.  1.
<mgrwt>
<rscale>  0 0.27349674E+03</rscale>
<asrwt>0</asrwt>
<pdfrwt beam="1">  1        3 0.31910639E-01 0.27349674E+03</pdfrwt>
<pdfrwt beam="2">  1       -3 0.13870180E-01 0.27349674E+03</pdfrwt>
<totfact> 0.10324176E+03</totfact>
</mgrwt>
</event>
<event>
 9    1  0.2114844E-002  0.2751707E+03  0.7818608E-02  0.1098356E+00
          1   -1    0    0  501    0  0.00000000000E+00  0.00000000000E+00  0.50227699939E+02  0.50227699939E+02  0.00000000000E+00 0. -1.
         -1   -1    0    0    0  501 -0.00000000000E+00 -0.00000000000E+00 -0.37687839452E+03  0.37687839452E+03  0.00000000000E+00 0. -1.
         36    2    1    2    0    0 -0.71054273576E-14  0.00000000000E+00 -0.32665069458E+03  0.42710609446E+03  0.27517074636E+03 0.  0.
         25    2    3    3    0    0 -0.35658530018E+02 -0.21011079760E+02 -0.19097574973E+03  0.23708610851E+03  0.13425754962E+03 0.  0.
         25    2    3    3    0    0  0.35658530018E+02  0.21011079760E+02 -0.13567494485E+03  0.19001998595E+03  0.12643934578E+03 0.  0.
          5    1    4    4  502    0 -0.63463813651E+02  0.10483331247E+02 -0.18304399222E+03  0.19407408113E+03  0.47000000000E+01 0. -1.
         -5    1    4    4    0  502  0.27805283633E+02 -0.31494411007E+02 -0.79317575053E+01  0.43012027384E+02  0.47000000000E+01 0. -1.
          5    1    5    5  503    0  0.73363577093E+02  0.44280341770E+02 -0.10644580032E+03  0.13673244501E+03  0.47000000000E+01 0.  1.
         -5    1    5    5    0  503 -0.37705047075E+02 -0.23269262010E+02 -0.29229144533E+02  0.53287540941E+02  0.47000000000E+01 0.  1.
<mgrwt>
<rscale>  0 0.27517075E+03</rscale>
<asrwt>0</asrwt>
<pdfrwt beam="1">  1        1 0.77273381E-02 0.27517075E+03</pdfrwt>
<pdfrwt beam="2">  1       -1 0.57981294E-01 0.27517075E+03</pdfrwt>
<totfact> 0.28219864E+03</totfact>
</mgrwt>
</event>
<event>
 9    1  0.2114844E-002  0.2752739E+03  0.7818608E-02  0.1098299E+00
         -2   -1    0    0    0  501 -0.00000000000E+00  0.00000000000E+00  0.12123533546E+02  0.12123533546E+02  0.00000000000E+00 0. -1.
          2   -1    0    0  501    0  0.00000000000E+00 -0.00000000000E+00 -0.15625747425E+04  0.15625747425E+04  0.00000000000E+00 0. -1.
         36    2    1    2    0    0  0.35527136788E-14 -0.35527136788E-14 -0.15504512090E+04  0.15746982761E+04  0.27527388041E+03 0.  0.
         25    2    3    3    0    0 -0.30688127788E+01 -0.12782233202E+02 -0.10083605065E+04  0.10173311761E+04  0.13416038052E+03 0.  0.
         25    2    3    3    0    0  0.30688127788E+01  0.12782233202E+02 -0.54209070247E+03  0.55736709996E+03  0.12893002488E+03 0.  0.
          5    1    4    4  502    0 -0.64012734873E+02  0.10975899142E+02 -0.62709402226E+03  0.63046578285E+03  0.47000000000E+01 0.  1.
         -5    1    4    4    0  502  0.60943922094E+02 -0.23758132344E+02 -0.38126648426E+03  0.38686539328E+03  0.47000000000E+01 0.  1.
          5    1    5    5  503    0  0.96058039334E+01 -0.23915610674E+02 -0.17664281354E+02  0.31596593786E+02  0.47000000000E+01 0.  1.
         -5    1    5    5    0  503 -0.65369911546E+01  0.36697843876E+02 -0.52442642111E+03  0.52577050617E+03  0.47000000000E+01 0.  1.
<mgrwt>
<rscale>  0 0.27527388E+03</rscale>
<asrwt>0</asrwt>
<pdfrwt beam="1">  1        2 0.24039596E+00 0.27527388E+03</pdfrwt>
<pdfrwt beam="2">  1       -2 0.18651602E-02 0.27527388E+03</pdfrwt>
<totfact> 0.10823767E+04</totfact>
</mgrwt>
</event>
<event>
 9    1  0.2114844E-002  0.2759694E+03  0.7818608E-02  0.1097911E+00
         -2   -1    0    0    0  501 -0.00000000000E+00  0.00000000000E+00  0.18401020479E+03  0.18401020479E+03  0.00000000000E+00 0.  1.
          2   -1    0    0  501    0  0.00000000000E+00 -0.00000000000E+00 -0.10347132673E+03  0.10347132673E+03  0.00000000000E+00 0.  1.
         36    2    1    2    0    0  0.00000000000E+00  0.00000000000E+00  0.80538878055E+02  0.28748153152E+03  0.27596941875E+03 0.  0.
         25    2    3    3    0    0  0.18814030959E+02 -0.50268863245E+02  0.34159034010E+02  0.13969734690E+03  0.12436873705E+03 0.  0.
         25    2    3    3    0    0 -0.18814030959E+02  0.50268863245E+02  0.46379844045E+02  0.14778418461E+03  0.12964624528E+03 0.  0.
          5    1    4    4  502    0  0.58605275293E+01 -0.87322669762E+02  0.45251323860E+02  0.98637552425E+02  0.47000000000E+01 0. -1.
         -5    1    4    4    0  502  0.12953503429E+02  0.37053806517E+02 -0.11092289850E+02  0.41059794478E+02  0.47000000000E+01 0. -1.
          5    1    5    5  503    0 -0.15495156412E+02 -0.16152306067E+01 -0.42053901263E+02  0.45092454508E+02  0.47000000000E+01 0.  1.
         -5    1    5    5    0  503 -0.33188745463E+01  0.51884093852E+02  0.88433745308E+02  0.10269173011E+03  0.47000000000E+01 0.  1.
<mgrwt>
<rscale>  0 0.27596942E+03</rscale>
<asrwt>0</asrwt>
<pdfrwt beam="1">  1        2 0.15918666E-01 0.27596942E+03</pdfrwt>
<pdfrwt beam="2">  1       -2 0.28309262E-01 0.27596942E+03</pdfrwt>
<totfact> 0.41036504E+03</totfact>
</mgrwt>
</event>
<event>
 9    1  0.2114844E-002  0.2739627E+03  0.7818608E-02  0.1099033E+00
         -1   -1    0    0    0  501 -0.00000000000E+00  0.00000000000E+00  0.50669218214E+01  0.50669218214E+01  0.00000000000E+00 0. -1.
          1   -1    0    0  501    0  0.00000000000E+00 -0.00000000000E+00 -0.37032127355E+04  0.37032127355E+04  0.00000000000E+00 0. -1.
         36    2    1    2    0    0  0.17763568394E-14  0.71054273576E-14 -0.36981458137E+04  0.37082796573E+04  0.27396269395E+03 0.  0.
         25    2    3    3    0    0  0.52752437417E+01  0.49802749283E+02 -0.19851337677E+04  0.19899433340E+04  0.12888077768E+03 0.  0.
         25    2    3    3    0    0 -0.52752437417E+01 -0.49802749283E+02 -0.17130120460E+04  0.17183363233E+04  0.12554404935E+03 0.  0.
          5    1    4    4  502    0  0.34974516459E+02  0.83340758962E+02 -0.11269663607E+04  0.11305946078E+04  0.47000000000E+01 0. -1.
         -5    1    4    4    0  502 -0.29699272717E+02 -0.33538009679E+02 -0.85816740697E+03  0.85934872624E+03  0.47000000000E+01 0. -1.
          5    1    5    5  503    0 -0.13916056428E+02 -0.57027417294E+02 -0.32634930577E+03  0.33161987625E+03  0.47000000000E+01 0.  1.
         -5    1    5    5    0  503  0.86408126863E+01  0.72246680110E+01 -0.13866627402E+04  0.13867164471E+04  0.47000000000E+01 0.  1.
<mgrwt>
<rscale>  0 0.27396269E+03</rscale>
<asrwt>0</asrwt>
<pdfrwt beam="1">  1        1 0.56972530E+00 0.27396269E+03</pdfrwt>
<pdfrwt beam="2">  1       -1 0.77952607E-03 0.27396269E+03</pdfrwt>
<totfact> 0.58979326E+02</totfact>
</mgrwt>
</event>
<event>
 9    1  0.2114844E-002  0.2743199E+03  0.7818608E-02  0.1098832E+00
         -1   -1    0    0    0  501 -0.00000000000E+00  0.00000000000E+00  0.47671224813E+02  0.47671224813E+02  0.00000000000E+00 0. -1.
          1   -1    0    0  501    0  0.00000000000E+00 -0.00000000000E+00 -0.39463740235E+03  0.39463740235E+03  0.00000000000E+00 0. -1.
         36    2    1    2    0    0  0.00000000000E+00 -0.71054273576E-14 -0.34696617754E+03  0.44230862716E+03  0.27431987407E+03 0.  0.
         25    2    3    3    0    0  0.37345979022E+02 -0.41891212929E+02 -0.17332656050E+03  0.22198042762E+03  0.12682120407E+03 0.  0.
         25    2    3    3    0    0 -0.37345979022E+02  0.41891212929E+02 -0.17363961703E+03  0.22032819954E+03  0.12346741692E+03 0.  0.
          5    1    4    4  502    0 -0.29935746475E+02  0.27979179982E+02 -0.58811302972E+02  0.71832045681E+02  0.47000000000E+01 0.  1.
         -5    1    4    4    0  502  0.67281725496E+02 -0.69870392911E+02 -0.11451525753E+03  0.15014838194E+03  0.47000000000E+01 0.  1.
          5    1    5    5  503    0  0.12020873011E+02  0.26835868139E+02 -0.16514895479E+03  0.16781219406E+03  0.47000000000E+01 0. -1.
         -5    1    5    5    0  503 -0.49366852033E+02  0.15055344791E+02 -0.84906622423E+01  0.52516005482E+02  0.47000000000E+01 0. -1.
<mgrwt>
<rscale>  0 0.27431987E+03</rscale>
<asrwt>0</asrwt>
<pdfrwt beam="1">  1        1 0.60713447E-01 0.27431987E+03</pdfrwt>
<pdfrwt beam="2">  1       -1 0.73340345E-02 0.27431987E+03</pdfrwt>
<totfact> 0.60303485E+03</totfact>
</mgrwt>
</event>
<event>
 9    1  0.2114844E-002  0.2754724E+03  0.7818608E-02  0.1098188E+00
         -2   -1    0    0    0  501 -0.00000000000E+00  0.00000000000E+00  0.48377295447E+02  0.48377295447E+02  0.00000000000E+00 0.  1.
          2   -1    0    0  501    0  0.00000000000E+00 -0.00000000000E+00 -0.39215221790E+03  0.39215221790E+03  0.00000000000E+00 0.  1.
         36    2    1    2    0    0  0.35527136788E-14  0.00000000000E+00 -0.34377492245E+03  0.44052951335E+03  0.27547242116E+03 0.  0.
         25    2    3    3    0    0  0.21253738144E+02  0.29104112338E+02 -0.10868730789E+03  0.16985617068E+03  0.12545683354E+03 0.  0.
         25    2    3    3    0    0 -0.21253738144E+02 -0.29104112338E+02 -0.23508761456E+03  0.27067334266E+03  0.12922500211E+03 0.  0.
          5    1    4    4  502    0  0.41568313257E+02 -0.33357223516E+02 -0.15414007527E+02  0.55680433329E+02  0.47000000000E+01 0.  1.
         -5    1    4    4    0  502 -0.20314575112E+02  0.62461335854E+02 -0.93273300367E+02  0.11417573735E+03  0.47000000000E+01 0.  1.
          5    1    5    5  503    0 -0.70722534945E+02 -0.74878199770E+00 -0.88969484322E+02  0.11375366704E+03  0.47000000000E+01 0. -1.
         -5    1    5    5    0  503  0.49468796801E+02 -0.28355330340E+02 -0.14611813024E+03  0.15691967563E+03  0.47000000000E+01 0. -1.
<mgrwt>
<rscale>  0 0.27547242E+03</rscale>
<asrwt>0</asrwt>
<pdfrwt beam="1">  1        2 0.60331109E-01 0.27547242E+03</pdfrwt>
<pdfrwt beam="2">  1       -2 0.74426610E-02 0.27547242E+03</pdfrwt>
<totfact> 0.85825400E+03</totfact>
</mgrwt>
</event>
<event>
 9    1  0.2114844E-002  0.2748756E+03  0.7818608E-02  0.1098521E+00
         -2   -1    0    0    0  501 -0.00000000000E+00  0.00000000000E+00  0.27863874515E+03  0.27863874515E+03  0.00000000000E+00 0.  1.
          2   -1    0    0  501    0  0.00000000000E+00 -0.00000000000E+00 -0.67790814530E+02  0.67790814530E+02  0.00000000000E+00 0.  1.
         36    2    1    2    0    0  0.00000000000E+00 -0.35527136788E-14  0.21084793062E+03  0.34642955968E+03  0.27487558999E+03 0.  0.
         25    2    3    3    0    0 -0.21619642378E+02  0.14108122217E+02  0.16682531241E+03  0.20989402468E+03  0.12473319000E+03 0.  0.
         25    2    3    3    0    0  0.21619642378E+02 -0.14108122217E+02  0.44022618218E+02  0.13653553500E+03  0.12663930415E+03 0.  0.
          5    1    4    4  502    0 -0.15685231843E+02 -0.34947505090E+02  0.15381246409E+03  0.15858032261E+03  0.47000000000E+01 0. -1.
         -5    1    4    4    0  502 -0.59344105357E+01  0.49055627307E+02  0.13012848319E+02  0.51313702071E+02  0.47000000000E+01 0. -1.
          5    1    5    5  503    0 -0.17028949489E+02  0.94176156178E+01 -0.37882081160E+02  0.42846454669E+02  0.47000000000E+01 0. -1.
         -5    1    5    5    0  503  0.38648591867E+02 -0.23525737835E+02  0.81904699378E+02  0.93689080336E+02  0.47000000000E+01 0. -1.
<mgrwt>
<rscale>  0 0.27487559E+03</rscale>
<asrwt>0</asrwt>
<pdfrwt beam="1">  1        2 0.10429356E-01 0.27487559E+03</pdfrwt>
<pdfrwt beam="2">  1       -2 0.42867499E-01 0.27487559E+03</pdfrwt>
<totfact> 0.31539392E+03</totfact>
</mgrwt>
</event>
<event>
 9    1  0.2114844E-002  0.2742967E+03  0.7818608E-02  0.1098845E+00
          1   -1    0    0  501    0  0.00000000000E+00  0.00000000000E+00  0.44265801543E+02  0.44265801543E+02  0.00000000000E+00 0.  1.
         -1   -1    0    0    0  501 -0.00000000000E+00 -0.00000000000E+00 -0.42492545038E+03  0.42492545038E+03  0.00000000000E+00 0.  1.
         36    2    1    2    0    0 -0.14210854715E-13 -0.71054273576E-14 -0.38065964883E+03  0.46919125192E+03  0.27429666901E+03 0.  0.
         25    2    3    3    0    0 -0.48010016294E+02 -0.12454489983E+02 -0.18082348078E+03  0.22586633345E+03  0.12593011317E+03 0.  0.
         25    2    3    3    0    0  0.48010016294E+02  0.12454489983E+02 -0.19983616805E+03  0.24332491847E+03  0.12966281617E+03 0.  0.
          5    1    4    4  502    0  0.27549118085E+02 -0.40556411796E+02 -0.10074686896E+03  0.11214186574E+03  0.47000000000E+01 0.  1.
         -5    1    4    4    0  502 -0.75559134380E+02  0.28101921813E+02 -0.80076611814E+02  0.11372446772E+03  0.47000000000E+01 0.  1.
          5    1    5    5  503    0  0.22742471318E+02 -0.58659100200E+02 -0.85845478407E+02  0.10653471829E+03  0.47000000000E+01 0. -1.
         -5    1    5    5    0  503  0.25267544976E+02  0.71113590183E+02 -0.11399068965E+03  0.13679020018E+03  0.47000000000E+01 0. -1.
<mgrwt>
<rscale>  0 0.27429667E+03</rscale>
<asrwt>0</asrwt>
<pdfrwt beam="1">  1        1 0.68101231E-02 0.27429667E+03</pdfrwt>
<pdfrwt beam="2">  1       -1 0.65373148E-01 0.27429667E+03</pdfrwt>
<totfact> 0.26580634E+03</totfact>
</mgrwt>
</event>
<event>
 9    1  0.2114844E-002  0.2748878E+03  0.7818608E-02  0.1098514E+00
         -2   -1    0    0    0  501 -0.00000000000E+00  0.00000000000E+00  0.87895748991E+01  0.87895748991E+01  0.00000000000E+00 0.  1.
          2   -1    0    0  501    0  0.00000000000E+00 -0.00000000000E+00 -0.21492309527E+04  0.21492309527E+04  0.00000000000E+00 0.  1.
         36    2    1    2    0    0  0.00000000000E+00  0.00000000000E+00 -0.21404413778E+04  0.21580205276E+04  0.27488780572E+03 0.  0.
         25    2    3    3    0    0 -0.40153336984E+02 -0.37211907015E+02 -0.12360735959E+04  0.12434262850E+04  0.12342599064E+03 0.  0.
         25    2    3    3    0    0  0.40153336984E+02  0.37211907015E+02 -0.90436778184E+03  0.91459424257E+03  0.12491808206E+03 0.  0.
          5    1    4    4  502    0 -0.17151220602E+02 -0.58382413989E+02 -0.26901440923E+03  0.27585052656E+03  0.47000000000E+01 0. -1.
         -5    1    4    4    0  502 -0.23002116382E+02  0.21170506974E+02 -0.96705918672E+03  0.96757575845E+03  0.47000000000E+01 0. -1.
          5    1    5    5  503    0  0.78726038964E+02  0.43947225609E+02 -0.74355890016E+03  0.74902007707E+03  0.47000000000E+01 0. -1.
         -5    1    5    5    0  503 -0.38572701979E+02 -0.67353185934E+01 -0.16080888168E+03  0.16557416550E+03  0.47000000000E+01 0. -1.
<mgrwt>
<rscale>  0 0.27488781E+03</rscale>
<asrwt>0</asrwt>
<pdfrwt beam="1">  1        2 0.33065118E+00 0.27488781E+03</pdfrwt>
<pdfrwt beam="2">  1       -2 0.13522412E-02 0.27488781E+03</pdfrwt>
<totfact> 0.85079341E+03</totfact>
</mgrwt>
</event>
<event>
 9    1  0.2114844E-002  0.2749504E+03  0.7818608E-02  0.1098479E+00
         -3   -1    0    0    0  501 -0.00000000000E+00  0.00000000000E+00  0.13947579946E+03  0.13947579946E+03  0.00000000000E+00 0.  1.
          3   -1    0    0  501    0  0.00000000000E+00 -0.00000000000E+00 -0.13550328348E+03  0.13550328348E+03  0.00000000000E+00 0.  1.
         36    2    1    2    0    0 -0.35527136788E-14  0.21316282073E-13  0.39725159840E+01  0.27497908294E+03  0.27495038675E+03 0.  0.
         25    2    3    3    0    0 -0.17590167992E+02  0.59166212012E+02 -0.15313135366E+02  0.14326910524E+03  0.12838025451E+03 0.  0.
         25    2    3    3    0    0  0.17590167992E+02 -0.59166212012E+02  0.19285651350E+02  0.13170997770E+03  0.11474113135E+03 0.  0.
          5    1    4    4  502    0 -0.28494908635E+02  0.95138096871E+02 -0.28046817284E+02  0.10330503983E+03  0.47000000000E+01 0. -1.
         -5    1    4    4    0  502  0.10904740642E+02 -0.35971884859E+02  0.12733681918E+02  0.39964065409E+02  0.47000000000E+01 0. -1.
          5    1    5    5  503    0 -0.25474506365E+02 -0.29315243211E+02 -0.37576177366E+02  0.54243829736E+02  0.47000000000E+01 0.  1.
         -5    1    5    5    0  503  0.43064674357E+02 -0.29850968801E+02  0.56861828716E+02  0.77466147966E+02  0.47000000000E+01 0.  1.
<mgrwt>
<rscale>  0 0.27495039E+03</rscale>
<asrwt>0</asrwt>
<pdfrwt beam="1">  1        3 0.20846659E-01 0.27495039E+03</pdfrwt>
<pdfrwt beam="2">  1       -3 0.21457815E-01 0.27495039E+03</pdfrwt>
<totfact> 0.10495061E+03</totfact>
</mgrwt>
</event>
<event>
 9    1  0.2114844E-002  0.2686377E+03  0.7818608E-02  0.1102062E+00
          1   -1    0    0  501    0  0.00000000000E+00  0.00000000000E+00  0.22968325815E+04  0.22968325815E+04  0.00000000000E+00 0. -1.
         -1   -1    0    0    0  501 -0.00000000000E+00 -0.00000000000E+00 -0.78549725594E+01  0.78549725594E+01  0.00000000000E+00 0. -1.
         36    2    1    2    0    0  0.14210854715E-13  0.00000000000E+00  0.22889776089E+04  0.23046875541E+04  0.26863772558E+03 0.  0.
         25    2    3    3    0    0 -0.44075108708E+02 -0.10326239984E+02  0.13040478076E+04  0.13106020191E+04  0.12283208745E+03 0.  0.
         25    2    3    3    0    0  0.44075108708E+02  0.10326239984E+02  0.98492980138E+03  0.99408553492E+03  0.12676786133E+03 0.  0.
          5    1    4    4  502    0 -0.85909430409E+02 -0.99897329947E+01  0.75769993622E+03  0.76263458376E+03  0.47000000000E+01 0. -1.
         -5    1    4    4    0  502  0.41834321700E+02 -0.33650698879E+00  0.54634787134E+03  0.54796743537E+03  0.47000000000E+01 0. -1.
          5    1    5    5  503    0 -0.33981657270E+02 -0.58119262618E+01  0.59756764866E+03  0.59857974928E+03  0.47000000000E+01 0.  1.
         -5    1    5    5    0  503  0.78056765979E+02  0.16138166245E+02  0.38736215271E+03  0.39550578564E+03  0.47000000000E+01 0.  1.
<mgrwt>
<rscale>  0 0.26863773E+03</rscale>
<asrwt>0</asrwt>
<pdfrwt beam="1">  1        1 0.35335832E+00 0.26863773E+03</pdfrwt>
<pdfrwt beam="2">  1       -1 0.12084592E-02 0.26863773E+03</pdfrwt>
<totfact> 0.30878661E+03</totfact>
</mgrwt>
</event>
<event>
 9    1  0.2114844E-002  0.2753356E+03  0.7818608E-02  0.1098264E+00
          1   -1    0    0  501    0  0.00000000000E+00  0.00000000000E+00  0.95713481866E+02  0.95713481866E+02  0.00000000000E+00 0. -1.
         -1   -1    0    0    0  501 -0.00000000000E+00 -0.00000000000E+00 -0.19801199798E+03  0.19801199798E+03  0.00000000000E+00 0. -1.
         36    2    1    2    0    0 -0.14210854715E-13  0.35527136788E-14 -0.10229851611E+03  0.29372547985E+03  0.27533556093E+03 0.  0.
         25    2    3    3    0    0  0.45705746692E+02  0.31794322659E+02 -0.57575264883E+02  0.14683188661E+03  0.12306420099E+03 0.  0.
         25    2    3    3    0    0 -0.45705746692E+02 -0.31794322659E+02 -0.44723251230E+02  0.14689359324E+03  0.12836535475E+03 0.  0.
          5    1    4    4  502    0 -0.32755350003E+02 -0.20561924434E+02 -0.66114712462E+01  0.39515911255E+02  0.47000000000E+01 0. -1.
         -5    1    4    4    0  502  0.78461096695E+02  0.52356247093E+02 -0.50963793637E+02  0.10731597535E+03  0.47000000000E+01 0. -1.
          5    1    5    5  503    0  0.14664467102E+02 -0.58925468381E+02  0.89387014308E+01  0.61556866413E+02  0.47000000000E+01 0. -1.
         -5    1    5    5    0  503 -0.60370213794E+02  0.27131145723E+02 -0.53661952661E+02  0.85336726825E+02  0.47000000000E+01 0. -1.
<mgrwt>
<rscale>  0 0.27533556E+03</rscale>
<asrwt>0</asrwt>
<pdfrwt beam="1">  1        1 0.14725151E-01 0.27533556E+03</pdfrwt>
<pdfrwt beam="2">  1       -1 0.30463384E-01 0.27533556E+03</pdfrwt>
<totfact> 0.37802284E+03</totfact>
</mgrwt>
</event>
<event>
 9    1  0.2114844E-002  0.2743701E+03  0.7818608E-02  0.1098804E+00
         -2   -1    0    0    0  501 -0.00000000000E+00  0.00000000000E+00  0.63676247424E+02  0.63676247424E+02  0.00000000000E+00 0.  1.
          2   -1    0    0  501    0  0.00000000000E+00 -0.00000000000E+00 -0.29555341374E+03  0.29555341374E+03  0.00000000000E+00 0.  1.
         36    2    1    2    0    0 -0.14210854715E-13  0.00000000000E+00 -0.23187716631E+03  0.35922966116E+03  0.27437005886E+03 0.  0.
         25    2    3    3    0    0  0.35791329732E+02 -0.43313849361E+02 -0.97109646420E+02  0.16679254132E+03  0.12341944572E+03 0.  0.
         25    2    3    3    0    0 -0.35791329732E+02  0.43313849361E+02 -0.13476751989E+03  0.19243711984E+03  0.12535011705E+03 0.  0.
          5    1    4    4  502    0 -0.38934504126E+02  0.75317847686E+01 -0.52295945612E+02  0.65799538910E+02  0.47000000000E+01 0.  1.
         -5    1    4    4    0  502  0.74725833858E+02 -0.50845634130E+02 -0.44813700808E+02  0.10099300241E+03  0.47000000000E+01 0.  1.
          5    1    5    5  503    0  0.13322960815E+02  0.20966685763E+02  0.17549622637E+02  0.30776329402E+02  0.47000000000E+01 0.  1.
         -5    1    5    5    0  503 -0.49114290547E+02  0.22347163598E+02 -0.15231714253E+03  0.16166079044E+03  0.47000000000E+01 0.  1.
<mgrwt>
<rscale>  0 0.27437006E+03</rscale>
<asrwt>0</asrwt>
<pdfrwt beam="1">  1        2 0.45469755E-01 0.27437006E+03</pdfrwt>
<pdfrwt beam="2">  1       -2 0.97963459E-02 0.27437006E+03</pdfrwt>
<totfact> 0.75628569E+03</totfact>
</mgrwt>
</event>
<event>
 9    1  0.2114844E-002  0.2761961E+03  0.7818608E-02  0.1097785E+00
         -2   -1    0    0    0  501 -0.00000000000E+00  0.00000000000E+00  0.17358157469E+03  0.17358157469E+03  0.00000000000E+00 0. -1.
          2   -1    0    0  501    0  0.00000000000E+00 -0.00000000000E+00 -0.10986807327E+03  0.10986807327E+03  0.00000000000E+00 0. -1.
         36    2    1    2    0    0 -0.14210854715E-13  0.17763568394E-14  0.63713501418E+02  0.28344964797E+03  0.27619611270E+03 0.  0.
         25    2    3    3    0    0 -0.55190750517E+02  0.15375740135E+00  0.71184322613E+02  0.15322413666E+03  0.12395315924E+03 0.  0.
         25    2    3    3    0    0  0.55190750517E+02 -0.15375740135E+00 -0.74708211951E+01  0.13022551131E+03  0.11771502895E+03 0.  0.
          5    1    4    4  502    0 -0.46780737305E+02  0.64887258485E+01 -0.26839070761E+02  0.54524917838E+02  0.47000000000E+01 0.  1.
         -5    1    4    4    0  502 -0.84100132122E+01 -0.63349684472E+01  0.98023393374E+02  0.98699218822E+02  0.47000000000E+01 0.  1.
          5    1    5    5  503    0 -0.28533842187E+02  0.17105095061E+02 -0.26176466224E+02  0.42591804505E+02  0.47000000000E+01 0. -1.
         -5    1    5    5    0  503  0.83724592704E+02 -0.17258852463E+02  0.18705645029E+02  0.87633706801E+02  0.47000000000E+01 0. -1.
<mgrwt>
<rscale>  0 0.27619611E+03</rscale>
<asrwt>0</asrwt>
<pdfrwt beam="1">  1        2 0.16902780E-01 0.27619611E+03</pdfrwt>
<pdfrwt beam="2">  1       -2 0.26704858E-01 0.27619611E+03</pdfrwt>
<totfact> 0.42462161E+03</totfact>
</mgrwt>
</event>
<event>
 9    1  0.2114844E-002  0.2753923E+03  0.7818608E-02  0.1098233E+00
          2   -1    0    0  501    0  0.00000000000E+00  0.00000000000E+00  0.34578187442E+03  0.34578187442E+03  0.00000000000E+00 0. -1.
         -2   -1    0    0    0  501 -0.00000000000E+00 -0.00000000000E+00 -0.54832915409E+02  0.54832915409E+02  0.00000000000E+00 0. -1.
         36    2    1    2    0    0  0.35527136788E-14  0.00000000000E+00  0.29094895901E+03  0.40061478983E+03  0.27539228944E+03 0.  0.
         25    2    3    3    0    0 -0.10267569178E+02 -0.38240913789E+02  0.20330694814E+03  0.24263883850E+03  0.12638077512E+03 0.  0.
         25    2    3    3    0    0  0.10267569178E+02  0.38240913789E+02  0.87642010871E+02  0.15797595133E+03  0.12532952033E+03 0.  0.
          5    1    4    4  502    0 -0.47161004153E+02 -0.26949560817E+02  0.24705887205E+02  0.59857413939E+02  0.47000000000E+01 0.  1.
         -5    1    4    4    0  502  0.36893434975E+02 -0.11291352973E+02  0.17860106094E+03  0.18278142456E+03  0.47000000000E+01 0.  1.
          5    1    5    5  503    0  0.26945314469E+02 -0.47257400794E+01 -0.24258586531E+02  0.36863960878E+02  0.47000000000E+01 0.  1.
         -5    1    5    5    0  503 -0.16677745291E+02  0.42966653869E+02  0.11190059740E+03  0.12111199045E+03  0.47000000000E+01 0.  1.
<mgrwt>
<rscale>  0 0.27539229E+03</rscale>
<asrwt>0</asrwt>
<pdfrwt beam="1">  1        2 0.53197210E-01 0.27539229E+03</pdfrwt>
<pdfrwt beam="2">  1       -2 0.84358334E-02 0.27539229E+03</pdfrwt>
<totfact> 0.80871287E+03</totfact>
</mgrwt>
</event>
<event>
 9    1  0.2114844E-002  0.2750250E+03  0.7818608E-02  0.1098438E+00
         -3   -1    0    0    0  501 -0.00000000000E+00  0.00000000000E+00  0.54536126891E+02  0.54536126891E+02  0.00000000000E+00 0.  1.
          3   -1    0    0  501    0  0.00000000000E+00 -0.00000000000E+00 -0.34673697652E+03  0.34673697652E+03  0.00000000000E+00 0.  1.
         36    2    1    2    0    0  0.00000000000E+00 -0.71054273576E-14 -0.29220084963E+03  0.40127310341E+03  0.27502502977E+03 0.  0.
         25    2    3    3    0    0  0.28556504963E+02  0.32200813550E+02 -0.16531609954E+03  0.21058544807E+03  0.12314402870E+03 0.  0.
         25    2    3    3    0    0 -0.28556504963E+02 -0.32200813550E+02 -0.12688475009E+03  0.19068765534E+03  0.13568226017E+03 0.  0.
          5    1    4    4  502    0  0.73254337136E+02  0.17779382439E+02 -0.13437716502E+03  0.15414803544E+03  0.47000000000E+01 0.  1.
         -5    1    4    4    0  502 -0.44697832173E+02  0.14421431111E+02 -0.30938934516E+02  0.56437412638E+02  0.47000000000E+01 0.  1.
          5    1    5    5  503    0  0.30391951129E+01 -0.76990726499E+02 -0.37719256025E+02  0.85916476585E+02  0.47000000000E+01 0. -1.
         -5    1    5    5    0  503 -0.31595700076E+02  0.44789912949E+02 -0.89165494068E+02  0.10477117875E+03  0.47000000000E+01 0. -1.
<mgrwt>
<rscale>  0 0.27502503E+03</rscale>
<asrwt>0</asrwt>
<pdfrwt beam="1">  1        3 0.53344153E-01 0.27502503E+03</pdfrwt>
<pdfrwt beam="2">  1       -3 0.83901729E-02 0.27502503E+03</pdfrwt>
<totfact> 0.87943176E+02</totfact>
</mgrwt>
</event>
<event>
 9    1  0.2114844E-002  0.2722863E+03  0.7818608E-02  0.1099978E+00
         -2   -1    0    0    0  501 -0.00000000000E+00  0.00000000000E+00  0.68618347649E+01  0.68618347649E+01  0.00000000000E+00 0.  1.
          2   -1    0    0  501    0  0.00000000000E+00 -0.00000000000E+00 -0.27011655217E+04  0.27011655217E+04  0.00000000000E+00 0.  1.
         36    2    1    2    0    0  0.00000000000E+00 -0.71054273576E-14 -0.26943036870E+04  0.27080273565E+04  0.27228625733E+03 0.  0.
         25    2    3    3    0    0  0.27884439007E+02 -0.35067706774E+02 -0.12128956217E+04  0.12204685895E+04  0.12814250930E+03 0.  0.
         25    2    3    3    0    0 -0.27884439007E+02  0.35067706774E+02 -0.14814080653E+04  0.14875587670E+04  0.12749095494E+03 0.  0.
          5    1    4    4  502    0 -0.24862192836E+02  0.33648940865E+02 -0.23577898437E+03  0.23950824480E+03  0.47000000000E+01 0. -1.
         -5    1    4    4    0  502  0.52746631843E+02 -0.68716647639E+02 -0.97711663735E+03  0.98096034467E+03  0.47000000000E+01 0. -1.
          5    1    5    5  503    0  0.58881147374E+01  0.76858841519E+02 -0.10409004828E+04  0.10437613982E+04  0.47000000000E+01 0. -1.
         -5    1    5    5    0  503 -0.33772553744E+02 -0.41791134745E+02 -0.44050758248E+03  0.44379736880E+03  0.47000000000E+01 0. -1.
<mgrwt>
<rscale>  0 0.27228626E+03</rscale>
<asrwt>0</asrwt>
<pdfrwt beam="1">  1        2 0.41556440E+00 0.27228626E+03</pdfrwt>
<pdfrwt beam="2">  1       -2 0.10556657E-02 0.27228626E+03</pdfrwt>
<totfact> 0.61100089E+03</totfact>
</mgrwt>
</event>
<event>
 9    1  0.2114844E-002  0.2763018E+03  0.7818608E-02  0.1097726E+00
         -1   -1    0    0    0  501 -0.00000000000E+00  0.00000000000E+00  0.78067672154E+02  0.78067672154E+02  0.00000000000E+00 0. -1.
          1   -1    0    0  501    0  0.00000000000E+00 -0.00000000000E+00 -0.24447601922E+03  0.24447601922E+03  0.00000000000E+00 0. -1.
         36    2    1    2    0    0  0.00000000000E+00  0.21316282073E-13 -0.16640834707E+03  0.32254369138E+03  0.27630181844E+03 0.  0.
         25    2    3    3    0    0 -0.47417991229E+02 -0.50044818492E+02 -0.43504080861E+02  0.13568418754E+03  0.10846494340E+03 0.  0.
         25    2    3    3    0    0  0.47417991229E+02  0.50044818492E+02 -0.12290426621E+03  0.18685950383E+03  0.12271131069E+03 0.  0.
          5    1    4    4  502    0  0.17562754928E+02  0.22577742413E+02 -0.20329995430E+02  0.35406263956E+02  0.47000000000E+01 0. -1.
         -5    1    4    4    0  502 -0.64980746157E+02 -0.72622560904E+02 -0.23174085431E+02  0.10027792359E+03  0.47000000000E+01 0. -1.
          5    1    5    5  503    0  0.62721392875E+02  0.17122519978E+02 -0.72956600056E+01  0.65593219692E+02  0.47000000000E+01 0. -1.
         -5    1    5    5    0  503 -0.15303401646E+02  0.32922298513E+02 -0.11560860620E+03  0.12126628414E+03  0.47000000000E+01 0. -1.
<mgrwt>
<rscale>  0 0.27630182E+03</rscale>
<asrwt>0</asrwt>
<pdfrwt beam="1">  1        1 0.37611694E-01 0.27630182E+03</pdfrwt>
<pdfrwt beam="2">  1       -1 0.12010411E-01 0.27630182E+03</pdfrwt>
<totfact> 0.51634110E+03</totfact>
</mgrwt>
</event>
<event>
 9    1  0.2114844E-002  0.2782008E+03  0.7818608E-02  0.1096676E+00
          2   -1    0    0  501    0  0.00000000000E+00  0.00000000000E+00  0.35426285577E+04  0.35426285577E+04  0.00000000000E+00 0. -1.
         -2   -1    0    0    0  501 -0.00000000000E+00 -0.00000000000E+00 -0.54617411875E+01  0.54617411875E+01  0.00000000000E+00 0. -1.
         36    2    1    2    0    0  0.71054273576E-14 -0.71054273576E-14  0.35371668165E+04  0.35480902988E+04  0.27820079299E+03 0.  0.
         25    2    3    3    0    0 -0.53032908630E+02 -0.63974203687E+01  0.21575069633E+04  0.21618661752E+04  0.12639480380E+03 0.  0.
         25    2    3    3    0    0  0.53032908630E+02  0.63974203687E+01  0.13796598531E+04  0.13862241236E+04  0.12370365445E+03 0.  0.
          5    1    4    4  502    0  0.62561292461E+01 -0.43205985871E+02  0.15013334146E+04  0.15019753687E+04  0.47000000000E+01 0.  1.
         -5    1    4    4    0  502 -0.59289037876E+02  0.36808565502E+02  0.65617354875E+03  0.65989080656E+03  0.47000000000E+01 0.  1.
          5    1    5    5  503    0  0.61815680610E+02 -0.44987920041E+02  0.10066163935E+04  0.10095264955E+04  0.47000000000E+01 0. -1.
         -5    1    5    5    0  503 -0.87827719800E+01  0.51385340410E+02  0.37304345961E+03  0.37669762815E+03  0.47000000000E+01 0. -1.
<mgrwt>
<rscale>  0 0.27820079E+03</rscale>
<asrwt>0</asrwt>
<pdfrwt beam="1">  1        2 0.54501794E+00 0.27820079E+03</pdfrwt>
<pdfrwt beam="2">  1       -2 0.84027071E-03 0.27820079E+03</pdfrwt>
<totfact> 0.26062922E+03</totfact>
</mgrwt>
</event>
<event>
 9    1  0.2114844E-002  0.2750938E+03  0.7818608E-02  0.1098399E+00
         -4   -1    0    0    0  501 -0.00000000000E+00  0.00000000000E+00  0.14617712899E+02  0.14617712899E+02  0.00000000000E+00 0. -1.
          4   -1    0    0  501    0  0.00000000000E+00 -0.00000000000E+00 -0.12942616174E+04  0.12942616174E+04  0.00000000000E+00 0. -1.
         36    2    1    2    0    0 -0.71054273576E-14  0.00000000000E+00 -0.12796439045E+04  0.13088793303E+04  0.27509376393E+03 0.  0.
         25    2    3    3    0    0  0.32954055445E+02  0.46925391411E+01 -0.40699868748E+03  0.42677243665E+03  0.12401125503E+03 0.  0.
         25    2    3    3    0    0 -0.32954055445E+02 -0.46925391411E+01 -0.87264521698E+03  0.88210689362E+03  0.12447854173E+03 0.  0.
          5    1    4    4  502    0  0.47822162741E+02 -0.49581853053E+02 -0.26774281416E+03  0.27650248450E+03  0.47000000000E+01 0. -1.
         -5    1    4    4    0  502 -0.14868107295E+02  0.54274392194E+02 -0.13925587332E+03  0.15026995214E+03  0.47000000000E+01 0. -1.
          5    1    5    5  503    0 -0.39537556544E+02 -0.58025619052E+02 -0.37493944594E+03  0.38148639420E+03  0.47000000000E+01 0. -1.
         -5    1    5    5    0  503  0.65835010984E+01  0.53333079911E+02 -0.49770577105E+03  0.50062049941E+03  0.47000000000E+01 0. -1.
<mgrwt>
<rscale>  0 0.27509376E+03</rscale>
<asrwt>0</asrwt>
<pdfrwt beam="1">  1        4 0.19911719E+00 0.27509376E+03</pdfrwt>
<pdfrwt beam="2">  1       -4 0.22488787E-02 0.27509376E+03</pdfrwt>
<totfact> 0.23101044E+02</totfact>
</mgrwt>
</event>
<event>
 9    1  0.2114844E-002  0.2752004E+03  0.7818608E-02  0.1098340E+00
         -1   -1    0    0    0  501 -0.00000000000E+00  0.00000000000E+00  0.20959350700E+02  0.20959350700E+02  0.00000000000E+00 0. -1.
          1   -1    0    0  501    0  0.00000000000E+00 -0.00000000000E+00 -0.90335881336E+03  0.90335881336E+03  0.00000000000E+00 0. -1.
         36    2    1    2    0    0  0.00000000000E+00  0.14210854715E-13 -0.88239946267E+03  0.92431816406E+03  0.27520039373E+03 0.  0.
         25    2    3    3    0    0  0.17848785562E+02  0.49744661508E+02 -0.36259575757E+03  0.38656824859E+03  0.12315119533E+03 0.  0.
         25    2    3    3    0    0 -0.17848785562E+02 -0.49744661508E+02 -0.51980370509E+03  0.53774991548E+03  0.12722409078E+03 0.  0.
          5    1    4    4  502    0 -0.49289009351E+02  0.42848910180E+02 -0.15627887107E+03  0.16944205820E+03  0.47000000000E+01 0.  1.
         -5    1    4    4    0  502  0.67137794913E+02  0.68957513279E+01 -0.20631688651E+03  0.21712619038E+03  0.47000000000E+01 0.  1.
          5    1    5    5  503    0 -0.18578933867E+02 -0.88783378968E+02 -0.26996309296E+03  0.28483298040E+03  0.47000000000E+01 0. -1.
         -5    1    5    5    0  503  0.73014830485E+00  0.39038717460E+02 -0.24984061214E+03  0.25291693508E+03  0.47000000000E+01 0. -1.
<mgrwt>
<rscale>  0 0.27520039E+03</rscale>
<asrwt>0</asrwt>
<pdfrwt beam="1">  1        1 0.13897829E+00 0.27520039E+03</pdfrwt>
<pdfrwt beam="2">  1       -1 0.32245151E-02 0.27520039E+03</pdfrwt>
<totfact> 0.64258042E+03</totfact>
</mgrwt>
</event>
<event>
 9    1  0.2114844E-002  0.2747819E+03  0.7818608E-02  0.1098574E+00
         -2   -1    0    0    0  501 -0.00000000000E+00  0.00000000000E+00  0.12192519892E+02  0.12192519892E+02  0.00000000000E+00 0. -1.
          2   -1    0    0  501    0  0.00000000000E+00 -0.00000000000E+00 -0.15481847070E+04  0.15481847070E+04  0.00000000000E+00 0. -1.
         36    2    1    2    0    0  0.00000000000E+00  0.00000000000E+00 -0.15359921871E+04  0.15603772269E+04  0.27478189778E+03 0.  0.
         25    2    3    3    0    0  0.15279538356E+02 -0.34374336103E+02 -0.86297799164E+03  0.87473139725E+03  0.13787292698E+03 0.  0.
         25    2    3    3    0    0 -0.15279538356E+02  0.34374336103E+02 -0.67301419549E+03  0.68564582967E+03  0.12548719910E+03 0.  0.
          5    1    4    4  502    0 -0.27548720749E+02 -0.62704349698E+02 -0.24006948501E+03  0.24969224081E+03  0.47000000000E+01 0. -1.
         -5    1    4    4    0  502  0.42828259105E+02  0.28330013595E+02 -0.62290850663E+03  0.62503915644E+03  0.47000000000E+01 0. -1.
          5    1    5    5  503    0  0.44163132287E+02  0.43769727734E+02 -0.46126312933E+03  0.46545884436E+03  0.47000000000E+01 0.  1.
         -5    1    5    5    0  503 -0.59442670643E+02 -0.93953916308E+01 -0.21175106616E+03  0.22018698530E+03  0.47000000000E+01 0.  1.
<mgrwt>
<rscale>  0 0.27478190E+03</rscale>
<asrwt>0</asrwt>
<pdfrwt beam="1">  1        2 0.23818231E+00 0.27478190E+03</pdfrwt>
<pdfrwt beam="2">  1       -2 0.18757719E-02 0.27478190E+03</pdfrwt>
<totfact> 0.10924449E+04</totfact>
</mgrwt>
</event>
<event>
 9    1  0.2114844E-002  0.2754201E+03  0.7818608E-02  0.1098217E+00
          1   -1    0    0  501    0  0.00000000000E+00  0.00000000000E+00  0.53064754445E+03  0.53064754445E+03  0.00000000000E+00 0. -1.
         -1   -1    0    0    0  501 -0.00000000000E+00 -0.00000000000E+00 -0.35737572837E+02  0.35737572837E+02  0.00000000000E+00 0. -1.
         36    2    1    2    0    0  0.17763568394E-14  0.00000000000E+00  0.49490997161E+03  0.56638511728E+03  0.27542008111E+03 0.  0.
         25    2    3    3    0    0 -0.15985929435E+02 -0.50180296184E+02  0.28975364232E+03  0.31931520391E+03  0.12341561547E+03 0.  0.
         25    2    3    3    0    0  0.15985929435E+02  0.50180296184E+02  0.20515632929E+03  0.24706991338E+03  0.12720381513E+03 0.  0.
          5    1    4    4  502    0 -0.27358113412E+02  0.36330787865E+02  0.81048733691E+02  0.93055788370E+02  0.47000000000E+01 0.  1.
         -5    1    4    4    0  502  0.11372183977E+02 -0.86511084049E+02  0.20870490863E+03  0.22625941554E+03  0.47000000000E+01 0.  1.
          5    1    5    5  503    0  0.62440069404E+02  0.51228624420E+01  0.55020690557E+02  0.83512707872E+02  0.47000000000E+01 0.  1.
         -5    1    5    5    0  503 -0.46454139969E+02  0.45057433742E+02  0.15013563873E+03  0.16355720550E+03  0.47000000000E+01 0.  1.
<mgrwt>
<rscale>  0 0.27542008E+03</rscale>
<asrwt>0</asrwt>
<pdfrwt beam="1">  1        1 0.81638078E-01 0.27542008E+03</pdfrwt>
<pdfrwt beam="2">  1       -1 0.54980885E-02 0.27542008E+03</pdfrwt>
<totfact> 0.63272626E+03</totfact>
</mgrwt>
</event>
<event>
 9    1  0.2114844E-002  0.2748247E+03  0.7818608E-02  0.1098550E+00
         -1   -1    0    0    0  501 -0.00000000000E+00  0.00000000000E+00  0.21737645010E+03  0.21737645010E+03  0.00000000000E+00 0. -1.
          1   -1    0    0  501    0  0.00000000000E+00 -0.00000000000E+00 -0.86863843070E+02  0.86863843070E+02  0.00000000000E+00 0. -1.
         36    2    1    2    0    0  0.17763568394E-14  0.00000000000E+00  0.13051260703E+03  0.30424029317E+03  0.27482469939E+03 0.  0.
         25    2    3    3    0    0  0.13481563645E+01 -0.12810715443E+02  0.13390974656E+03  0.18055312956E+03  0.12042292313E+03 0.  0.
         25    2    3    3    0    0 -0.13481563645E+01  0.12810715443E+02 -0.33971395260E+01  0.12368716361E+03  0.12296764587E+03 0.  0.
          5    1    4    4  502    0 -0.38355402179E+02  0.15261675574E+02  0.12390773625E+03  0.13068769154E+03  0.47000000000E+01 0.  1.
         -5    1    4    4    0  502  0.39703558543E+02 -0.28072391017E+02  0.10002010305E+02  0.49865438017E+02  0.47000000000E+01 0.  1.
          5    1    5    5  503    0 -0.97788935639E+01 -0.53990100215E+02 -0.96310606359E+01  0.55905321835E+02  0.47000000000E+01 0.  1.
         -5    1    5    5    0  503  0.84307371994E+01  0.66800815658E+02  0.62339211099E+01  0.67781841777E+02  0.47000000000E+01 0.  1.
<mgrwt>
<rscale>  0 0.27482470E+03</rscale>
<asrwt>0</asrwt>
<pdfrwt beam="1">  1        1 0.13363668E-01 0.27482470E+03</pdfrwt>
<pdfrwt beam="2">  1       -1 0.33442531E-01 0.27482470E+03</pdfrwt>
<totfact> 0.36601706E+03</totfact>
</mgrwt>
</event>
<event>
 9    1  0.2114844E-002  0.2749092E+03  0.7818608E-02  0.1098502E+00
          2   -1    0    0  501    0  0.00000000000E+00  0.00000000000E+00  0.20744864716E+04  0.20744864716E+04  0.00000000000E+00 0.  1.
         -2   -1    0    0    0  501 -0.00000000000E+00 -0.00000000000E+00 -0.91076855006E+01  0.91076855006E+01  0.00000000000E+00 0.  1.
         36    2    1    2    0    0  0.71054273576E-14  0.00000000000E+00  0.20653787861E+04  0.20835941571E+04  0.27490922399E+03 0.  0.
         25    2    3    3    0    0 -0.35076759545E+02  0.29595121285E+02  0.10576463825E+04  0.10657067099E+04  0.12250988103E+03 0.  0.
         25    2    3    3    0    0  0.35076759545E+02 -0.29595121285E+02  0.10077324037E+04  0.10178874472E+04  0.13588232977E+03 0.  0.
          5    1    4    4  502    0 -0.67686743824E+02  0.31644562457E+02  0.38273500087E+03  0.38998851843E+03  0.47000000000E+01 0.  1.
         -5    1    4    4    0  502  0.32609984279E+02 -0.20494411728E+01  0.67491138161E+03  0.67571819149E+03  0.47000000000E+01 0.  1.
          5    1    5    5  503    0  0.18012998446E+02 -0.84086936779E+02  0.60977712971E+03  0.61582896893E+03  0.47000000000E+01 0.  1.
         -5    1    5    5    0  503  0.17063761100E+02  0.54491815494E+02  0.39795527395E+03  0.40205847829E+03  0.47000000000E+01 0.  1.
<mgrwt>
<rscale>  0 0.27490922E+03</rscale>
<asrwt>0</asrwt>
<pdfrwt beam="1">  1        2 0.31915139E+00 0.27490922E+03</pdfrwt>
<pdfrwt beam="2">  1       -2 0.14011840E-02 0.27490922E+03</pdfrwt>
<totfact> 0.88471969E+03</totfact>
</mgrwt>
</event>
<event>
 9    1  0.2114844E-002  0.2751650E+03  0.7818608E-02  0.1098359E+00
          3   -1    0    0  501    0  0.00000000000E+00  0.00000000000E+00  0.45210332293E+03  0.45210332293E+03  0.00000000000E+00 0. -1.
         -3   -1    0    0    0  501 -0.00000000000E+00 -0.00000000000E+00 -0.41868626930E+02  0.41868626930E+02  0.00000000000E+00 0. -1.
         36    2    1    2    0    0  0.00000000000E+00  0.71054273576E-14  0.41023469600E+03  0.49397194986E+03  0.27516500767E+03 0.  0.
         25    2    3    3    0    0  0.92643899668E+01 -0.43377300841E+02  0.15328034334E+03  0.20511285984E+03  0.12887591889E+03 0.  0.
         25    2    3    3    0    0 -0.92643899668E+01  0.43377300841E+02  0.25695435266E+03  0.28885909002E+03  0.12428441327E+03 0.  0.
          5    1    4    4  502    0 -0.14557709013E+02 -0.20394055164E+02  0.16702847356E+03  0.16896285201E+03  0.47000000000E+01 0. -1.
         -5    1    4    4    0  502  0.23822098980E+02 -0.22983245677E+02 -0.13748130228E+02  0.36150007834E+02  0.47000000000E+01 0. -1.
          5    1    5    5  503    0  0.36529770416E+02 -0.27038029730E+02  0.11646920751E+03  0.12511053304E+03  0.47000000000E+01 0. -1.
         -5    1    5    5    0  503 -0.45794160383E+02  0.70415330571E+02  0.14048514515E+03  0.16374855698E+03  0.47000000000E+01 0. -1.
<mgrwt>
<rscale>  0 0.27516501E+03</rscale>
<asrwt>0</asrwt>
<pdfrwt beam="1">  1        3 0.69554354E-01 0.27516501E+03</pdfrwt>
<pdfrwt beam="2">  1       -3 0.64413275E-02 0.27516501E+03</pdfrwt>
<totfact> 0.77883580E+02</totfact>
</mgrwt>
</event>
<event>
 9    1  0.2114844E-002  0.2748257E+03  0.7818608E-02  0.1098549E+00
          1   -1    0    0  501    0  0.00000000000E+00  0.00000000000E+00  0.15779434424E+03  0.15779434424E+03  0.00000000000E+00 0. -1.
         -1   -1    0    0    0  501 -0.00000000000E+00 -0.00000000000E+00 -0.11966395165E+03  0.11966395165E+03  0.00000000000E+00 0. -1.
         36    2    1    2    0    0  0.00000000000E+00  0.00000000000E+00  0.38130392592E+02  0.27745829589E+03  0.27482572500E+03 0.  0.
         25    2    3    3    0    0  0.12025033595E+02 -0.38757726815E+02 -0.24929753977E+01  0.13112642513E+03  0.12466419542E+03 0.  0.
         25    2    3    3    0    0 -0.12025033595E+02  0.38757726815E+02  0.40623367990E+02  0.14633187076E+03  0.13459567434E+03 0.  0.
          5    1    4    4  502    0  0.11823242820E+02 -0.41932639320E+02 -0.59468088051E+02  0.73869336044E+02  0.47000000000E+01 0. -1.
         -5    1    4    4    0  502  0.20179077493E+00  0.31749125048E+01  0.56975112654E+02  0.57257089088E+02  0.47000000000E+01 0. -1.
          5    1    5    5  503    0  0.16992970264E+02  0.54755406246E+02 -0.32388311351E+02  0.66015212366E+02  0.47000000000E+01 0.  1.
         -5    1    5    5    0  503 -0.29018003859E+02 -0.15997679431E+02  0.73011679341E+02  0.80316658392E+02  0.47000000000E+01 0.  1.
<mgrwt>
<rscale>  0 0.27482572E+03</rscale>
<asrwt>0</asrwt>
<pdfrwt beam="1">  1        1 0.24276053E-01 0.27482572E+03</pdfrwt>
<pdfrwt beam="2">  1       -1 0.18409839E-01 0.27482572E+03</pdfrwt>
<totfact> 0.45575238E+03</totfact>
</mgrwt>
</event>
<event>
 9    1  0.2114844E-002  0.2754089E+03  0.7818608E-02  0.1098223E+00
         -2   -1    0    0    0  501 -0.00000000000E+00  0.00000000000E+00  0.29255689132E+02  0.29255689132E+02  0.00000000000E+00 0.  1.
          2   -1    0    0  501    0  0.00000000000E+00 -0.00000000000E+00 -0.64816504172E+03  0.64816504172E+03  0.00000000000E+00 0.  1.
         36    2    1    2    0    0  0.71054273576E-14  0.71054273576E-14 -0.61890935259E+03  0.67742073085E+03  0.27540889577E+03 0.  0.
         25    2    3    3    0    0  0.60851426108E+02  0.25395244977E+02 -0.29919006222E+03  0.32853980728E+03  0.11864188599E+03 0.  0.
         25    2    3    3    0    0 -0.60851426108E+02 -0.25395244977E+02 -0.31971929037E+03  0.34888092357E+03  0.12308395375E+03 0.  0.
          5    1    4    4  502    0 -0.15676672432E+02  0.44300432728E+02 -0.17588529165E+03  0.18211538160E+03  0.47000000000E+01 0.  1.
         -5    1    4    4    0  502  0.76528098540E+02 -0.18905187750E+02 -0.12330477057E+03  0.14642442568E+03  0.47000000000E+01 0.  1.
          5    1    5    5  503    0 -0.19658179231E+02  0.49683883985E+02 -0.11341454028E+03  0.12545867959E+03  0.47000000000E+01 0.  1.
         -5    1    5    5    0  503 -0.41193246877E+02 -0.75079128962E+02 -0.20630475009E+03  0.22342224398E+03  0.47000000000E+01 0.  1.
<mgrwt>
<rscale>  0 0.27540890E+03</rscale>
<asrwt>0</asrwt>
<pdfrwt beam="1">  1        2 0.99717704E-01 0.27540890E+03</pdfrwt>
<pdfrwt beam="2">  1       -2 0.45008750E-02 0.27540890E+03</pdfrwt>
<totfact> 0.10536135E+04</totfact>
</mgrwt>
</event>
<event>
 9    1  0.2114844E-002  0.2751708E+03  0.7818608E-02  0.1098356E+00
         -2   -1    0    0    0  501 -0.00000000000E+00  0.00000000000E+00  0.11886160815E+03  0.11886160815E+03  0.00000000000E+00 0. -1.
          2   -1    0    0  501    0  0.00000000000E+00 -0.00000000000E+00 -0.15925864579E+03  0.15925864579E+03  0.00000000000E+00 0. -1.
         36    2    1    2    0    0  0.71054273576E-14 -0.35527136788E-14 -0.40397037638E+02  0.27812025395E+03  0.27517077426E+03 0.  0.
         25    2    3    3    0    0 -0.56511457200E+02 -0.12691269782E+02 -0.16569182481E+02  0.13929419129E+03  0.12559347434E+03 0.  0.
         25    2    3    3    0    0  0.56511457200E+02  0.12691269782E+02 -0.23827855157E+02  0.13882606266E+03  0.12389631095E+03 0.  0.
          5    1    4    4  502    0 -0.13488856041E+02 -0.52537928559E+02  0.31872246220E+02  0.63088138771E+02  0.47000000000E+01 0. -1.
         -5    1    4    4    0  502 -0.43022601159E+02  0.39846658777E+02 -0.48441428701E+02  0.76206052520E+02  0.47000000000E+01 0. -1.
          5    1    5    5  503    0  0.51847764603E+02 -0.29532840716E+02 -0.58572700296E+02  0.83745033256E+02  0.47000000000E+01 0. -1.
         -5    1    5    5    0  503  0.46636925974E+01  0.42224110498E+02  0.34744845139E+02  0.55081029399E+02  0.47000000000E+01 0. -1.
<mgrwt>
<rscale>  0 0.27517077E+03</rscale>
<asrwt>0</asrwt>
<pdfrwt beam="1">  1        2 0.24501330E-01 0.27517077E+03</pdfrwt>
<pdfrwt beam="2">  1       -2 0.18286401E-01 0.27517077E+03</pdfrwt>
<totfact> 0.53564544E+03</totfact>
</mgrwt>
</event>
<event>
 9    1  0.2114844E-002  0.2754872E+03  0.7818608E-02  0.1098180E+00
          1   -1    0    0  501    0  0.00000000000E+00  0.00000000000E+00  0.56046613735E+03  0.56046613735E+03  0.00000000000E+00 0.  1.
         -1   -1    0    0    0  501 -0.00000000000E+00 -0.00000000000E+00 -0.33852710567E+02  0.33852710567E+02  0.00000000000E+00 0.  1.
         36    2    1    2    0    0  0.35527136788E-14 -0.35527136788E-14  0.52661342678E+03  0.59431884791E+03  0.27548718976E+03 0.  0.
         25    2    3    3    0    0  0.11420182481E+02 -0.88753206501E+01  0.37680930405E+03  0.39724460727E+03  0.12493532125E+03 0.  0.
         25    2    3    3    0    0 -0.11420182481E+02  0.88753206501E+01  0.14980412273E+03  0.19707424065E+03  0.12723124324E+03 0.  0.
          5    1    4    4  502    0  0.41535947512E+02 -0.55774900203E+02  0.19985519481E+03  0.21166072692E+03  0.47000000000E+01 0. -1.
         -5    1    4    4    0  502 -0.30115765031E+02  0.46899579553E+02  0.17695410924E+03  0.18558388034E+03  0.47000000000E+01 0. -1.
          5    1    5    5  503    0  0.42647818418E+02  0.32603343422E+02  0.26004434177E+02  0.59834229459E+02  0.47000000000E+01 0.  1.
         -5    1    5    5    0  503 -0.54068000899E+02 -0.23728022772E+02  0.12379968855E+03  0.13724001119E+03  0.47000000000E+01 0.  1.
<mgrwt>
<rscale>  0 0.27548719E+03</rscale>
<asrwt>0</asrwt>
<pdfrwt beam="1">  1        1 0.86225553E-01 0.27548719E+03</pdfrwt>
<pdfrwt beam="2">  1       -1 0.52081097E-02 0.27548719E+03</pdfrwt>
<totfact> 0.63737101E+03</totfact>
</mgrwt>
</event>
<event>
 9    1  0.2114844E-002  0.2745195E+03  0.7818608E-02  0.1098720E+00
         -4   -1    0    0    0  501 -0.00000000000E+00  0.00000000000E+00  0.19218401145E+03  0.19218401145E+03  0.00000000000E+00 0.  1.
          4   -1    0    0  501    0  0.00000000000E+00 -0.00000000000E+00 -0.98032307559E+02  0.98032307559E+02  0.00000000000E+00 0.  1.
         36    2    1    2    0    0  0.00000000000E+00  0.17763568394E-14  0.94151703894E+02  0.29021631901E+03  0.27451952294E+03 0.  0.
         25    2    3    3    0    0  0.52395924809E+02 -0.54146688155E+01  0.66324045284E+02  0.15051881589E+03  0.12442822582E+03 0.  0.
         25    2    3    3    0    0 -0.52395924809E+02  0.54146688155E+01  0.27827658610E+02  0.13969750312E+03  0.12635807144E+03 0.  0.
          5    1    4    4  502    0 -0.22648383203E+02 -0.39452295370E+01  0.71385334023E+02  0.75142997088E+02  0.47000000000E+01 0. -1.
         -5    1    4    4    0  502  0.75044308013E+02 -0.14694392784E+01 -0.50612887389E+01  0.75375818805E+02  0.47000000000E+01 0. -1.
          5    1    5    5  503    0 -0.21231925573E+02 -0.33879411904E+02 -0.38974061946E+02  0.56032818232E+02  0.47000000000E+01 0.  1.
         -5    1    5    5    0  503 -0.31163999237E+02  0.39294080719E+02  0.66801720556E+02  0.83664684887E+02  0.47000000000E+01 0.  1.
<mgrwt>
<rscale>  0 0.27451952E+03</rscale>
<asrwt>0</asrwt>
<pdfrwt beam="1">  1        4 0.15081894E-01 0.27451952E+03</pdfrwt>
<pdfrwt beam="2">  1       -4 0.29566771E-01 0.27451952E+03</pdfrwt>
<totfact> 0.76509829E+02</totfact>
</mgrwt>
</event>
<event>
 9    1  0.2114844E-002  0.2818654E+03  0.7818608E-02  0.1094674E+00
          2   -1    0    0  501    0  0.00000000000E+00  0.00000000000E+00  0.69056087593E+03  0.69056087593E+03  0.00000000000E+00 0.  1.
         -2   -1    0    0    0  501 -0.00000000000E+00 -0.00000000000E+00 -0.28762160472E+02  0.28762160472E+02  0.00000000000E+00 0.  1.
         36    2    1    2    0    0  0.71054273576E-14  0.00000000000E+00  0.66179871545E+03  0.71932303640E+03  0.28186537729E+03 0.  0.
         25    2    3    3    0    0 -0.39340129199E+02  0.52599859484E+02  0.35827132851E+03  0.38414091931E+03  0.12203077509E+03 0.  0.
         25    2    3    3    0    0  0.39340129199E+02 -0.52599859484E+02  0.30352738694E+03  0.33518211709E+03  0.12611021374E+03 0.  0.
          5    1    4    4  502    0 -0.20649150655E+02 -0.20049300693E+01  0.30410978194E+03  0.30485284424E+03  0.47000000000E+01 0.  1.
         -5    1    4    4    0  502 -0.18690978544E+02  0.54604789554E+02  0.54161546570E+02  0.79288075068E+02  0.47000000000E+01 0.  1.
          5    1    5    5  503    0  0.15220686224E+02 -0.16736277699E+02 -0.49721309582E+01  0.23634389491E+02  0.47000000000E+01 0.  1.
         -5    1    5    5    0  503  0.24119442975E+02 -0.35863581785E+02  0.30849951790E+03  0.31154772760E+03  0.47000000000E+01 0.  1.
<mgrwt>
<rscale>  0 0.28186538E+03</rscale>
<asrwt>0</asrwt>
<pdfrwt beam="1">  1        2 0.10624012E+00 0.28186538E+03</pdfrwt>
<pdfrwt beam="2">  1       -2 0.44249483E-02 0.28186538E+03</pdfrwt>
<totfact> 0.10029192E+04</totfact>
</mgrwt>
</event>
<event>
 9    1  0.2114844E-002  0.2662607E+03  0.7818608E-02  0.1103439E+00
          2   -1    0    0  501    0  0.00000000000E+00  0.00000000000E+00  0.27001320529E+03  0.27001320529E+03  0.00000000000E+00 0. -1.
         -2   -1    0    0    0  501 -0.00000000000E+00 -0.00000000000E+00 -0.65640077745E+02  0.65640077745E+02  0.00000000000E+00 0. -1.
         36    2    1    2    0    0  0.14210854715E-13  0.53290705182E-14  0.20437312755E+03  0.33565328304E+03  0.26626068270E+03 0.  0.
         25    2    3    3    0    0  0.39148998767E+02 -0.44599477547E+01  0.92955341202E+02  0.16300318130E+03  0.12797189698E+03 0.  0.
         25    2    3    3    0    0 -0.39148998767E+02  0.44599477547E+01  0.11141778634E+03  0.17265010174E+03  0.12586341517E+03 0.  0.
          5    1    4    4  502    0  0.82814237347E+02  0.49645099925E+01  0.36237993131E+02  0.90653882504E+02  0.47000000000E+01 0. -1.
         -5    1    4    4    0  502 -0.43665238580E+02 -0.94244577473E+01  0.56717348071E+02  0.72349298796E+02  0.47000000000E+01 0. -1.
          5    1    5    5  503    0  0.14166106358E+02 -0.46850281067E+02  0.75906645973E+02  0.90440788963E+02  0.47000000000E+01 0.  1.
         -5    1    5    5    0  503 -0.53315105126E+02  0.51310228822E+02  0.35511140371E+02  0.82209312774E+02  0.47000000000E+01 0.  1.
<mgrwt>
<rscale>  0 0.26626068E+03</rscale>
<asrwt>0</asrwt>
<pdfrwt beam="1">  1        2 0.41540493E-01 0.26626068E+03</pdfrwt>
<pdfrwt beam="2">  1       -2 0.10098474E-01 0.26626068E+03</pdfrwt>
<totfact> 0.79327783E+03</totfact>
</mgrwt>
</event>
<event>
 9    1  0.2114844E-002  0.2752054E+03  0.7818608E-02  0.1098337E+00
         -1   -1    0    0    0  501 -0.00000000000E+00  0.00000000000E+00  0.53346146138E+02  0.53346146138E+02  0.00000000000E+00 0. -1.
          1   -1    0    0  501    0  0.00000000000E+00 -0.00000000000E+00 -0.35493671507E+03  0.35493671507E+03  0.00000000000E+00 0. -1.
         36    2    1    2    0    0  0.14210854715E-13  0.71054273576E-14 -0.30159056893E+03  0.40828286121E+03  0.27520542053E+03 0.  0.
         25    2    3    3    0    0 -0.52462996994E+02 -0.26820069935E+02 -0.13088816976E+03  0.19086753190E+03  0.12580548297E+03 0.  0.
         25    2    3    3    0    0  0.52462996994E+02  0.26820069935E+02 -0.17070239917E+03  0.21741532930E+03  0.12107202043E+03 0.  0.
          5    1    4    4  502    0  0.27062451066E+02 -0.18360902049E+01  0.81307839543E+01  0.28704479313E+02  0.47000000000E+01 0.  1.
         -5    1    4    4    0  502 -0.79525448059E+02 -0.24983979730E+02 -0.13901895372E+03  0.16216305259E+03  0.47000000000E+01 0.  1.
          5    1    5    5  503    0  0.47318644926E+02  0.32222983479E+02 -0.12268849098E+02  0.58736611071E+02  0.47000000000E+01 0. -1.
         -5    1    5    5    0  503  0.51443520675E+01 -0.54029135446E+01 -0.15843355007E+03  0.15867871823E+03  0.47000000000E+01 0. -1.
<mgrwt>
<rscale>  0 0.27520542E+03</rscale>
<asrwt>0</asrwt>
<pdfrwt beam="1">  1        1 0.54605649E-01 0.27520542E+03</pdfrwt>
<pdfrwt beam="2">  1       -1 0.82070993E-02 0.27520542E+03</pdfrwt>
<totfact> 0.58154384E+03</totfact>
</mgrwt>
</event>
<event>
 9    1  0.2114844E-002  0.2755141E+03  0.7818608E-02  0.1098165E+00
         -1   -1    0    0    0  501 -0.00000000000E+00  0.00000000000E+00  0.59852722013E+02  0.59852722013E+02  0.00000000000E+00 0.  1.
          1   -1    0    0  501    0  0.00000000000E+00 -0.00000000000E+00 -0.31706162651E+03  0.31706162651E+03  0.00000000000E+00 0.  1.
         36    2    1    2    0    0  0.00000000000E+00  0.71054273576E-14 -0.25720890450E+03  0.37691434852E+03  0.27551407508E+03 0.  0.
         25    2    3    3    0    0 -0.39973946608E+01 -0.47083027721E+02 -0.14754934987E+03  0.19878833627E+03  0.12455200250E+03 0.  0.
         25    2    3    3    0    0  0.39973946608E+01  0.47083027721E+02 -0.10965955463E+03  0.17812601225E+03  0.13217740978E+03 0.  0.
          5    1    4    4  502    0 -0.37460803405E+02  0.14163637843E+02 -0.11455924917E+03  0.12144888637E+03  0.47000000000E+01 0.  1.
         -5    1    4    4    0  502  0.33463408744E+02 -0.61246665564E+02 -0.32990100695E+02  0.77339449903E+02  0.47000000000E+01 0.  1.
          5    1    5    5  503    0 -0.50418670608E+02  0.62654573624E+02 -0.45815061511E+02  0.92675497318E+02  0.47000000000E+01 0. -1.
         -5    1    5    5    0  503  0.54416065269E+02 -0.15571545903E+02 -0.63844493118E+02  0.85450514935E+02  0.47000000000E+01 0. -1.
<mgrwt>
<rscale>  0 0.27551408E+03</rscale>
<asrwt>0</asrwt>
<pdfrwt beam="1">  1        1 0.48778710E-01 0.27551408E+03</pdfrwt>
<pdfrwt beam="2">  1       -1 0.92081114E-02 0.27551408E+03</pdfrwt>
<totfact> 0.56223214E+03</totfact>
</mgrwt>
</event>
<event>
 9    1  0.2114844E-002  0.2750592E+03  0.7818608E-02  0.1098419E+00
          2   -1    0    0  501    0  0.00000000000E+00  0.00000000000E+00  0.70889833753E+03  0.70889833753E+03  0.00000000000E+00 0. -1.
         -2   -1    0    0    0  501 -0.00000000000E+00 -0.00000000000E+00 -0.26681387742E+02  0.26681387742E+02  0.00000000000E+00 0. -1.
         36    2    1    2    0    0  0.00000000000E+00  0.00000000000E+00  0.68221694979E+03  0.73557972527E+03  0.27505920390E+03 0.  0.
         25    2    3    3    0    0  0.99885620831E+01  0.40684656755E+02  0.22210268907E+03  0.25824025503E+03  0.12491361879E+03 0.  0.
         25    2    3    3    0    0 -0.99885620831E+01 -0.40684656755E+02  0.46011426073E+03  0.47733947025E+03  0.11997009738E+03 0.  0.
          5    1    4    4  502    0 -0.40639760129E+02  0.17138695094E+01  0.17229355065E+03  0.17709230657E+03  0.47000000000E+01 0.  1.
         -5    1    4    4    0  502  0.50628322212E+02  0.38970787246E+02  0.49809138416E+02  0.81147948454E+02  0.47000000000E+01 0.  1.
          5    1    5    5  503    0  0.52356011901E+02 -0.20501552838E+02  0.14811267869E+03  0.15849580827E+03  0.47000000000E+01 0.  1.
         -5    1    5    5    0  503 -0.62344573984E+02 -0.20183103917E+02  0.31200158204E+03  0.31884366198E+03  0.47000000000E+01 0.  1.
<mgrwt>
<rscale>  0 0.27505920E+03</rscale>
<asrwt>0</asrwt>
<pdfrwt beam="1">  1        2 0.10906127E+00 0.27505920E+03</pdfrwt>
<pdfrwt beam="2">  1       -2 0.41048294E-02 0.27505920E+03</pdfrwt>
<totfact> 0.10871301E+04</totfact>
</mgrwt>
</event>
<event>
 9    1  0.2114844E-002  0.2745570E+03  0.7818608E-02  0.1098699E+00
          2   -1    0    0  501    0  0.00000000000E+00  0.00000000000E+00  0.33008466823E+03  0.33008466823E+03  0.00000000000E+00 0.  1.
         -2   -1    0    0    0  501 -0.00000000000E+00 -0.00000000000E+00 -0.57092580203E+02  0.57092580203E+02  0.00000000000E+00 0.  1.
         36    2    1    2    0    0  0.00000000000E+00  0.71054273576E-14  0.27299208803E+03  0.38717724843E+03  0.27455699150E+03 0.  0.
         25    2    3    3    0    0  0.49933014747E+02  0.11551551183E+02  0.85803649976E+02  0.15801213941E+03  0.12238801230E+03 0.  0.
         25    2    3    3    0    0 -0.49933014747E+02 -0.11551551183E+02  0.18718843805E+03  0.22916510903E+03  0.12186218264E+03 0.  0.
          5    1    4    4  502    0 -0.49698734436E+01 -0.45659222472E+02  0.80627970256E+01  0.46867504037E+02  0.47000000000E+01 0. -1.
         -5    1    4    4    0  502  0.54902888190E+02  0.57210773655E+02  0.77740852951E+02  0.11114463537E+03  0.47000000000E+01 0. -1.
          5    1    5    5  503    0 -0.47387482907E+01 -0.36700264541E+02  0.25804742487E+01  0.37391362640E+02  0.47000000000E+01 0.  1.
         -5    1    5    5    0  503 -0.45194266456E+02  0.25148713358E+02  0.18460796380E+03  0.19177374639E+03  0.47000000000E+01 0.  1.
<mgrwt>
<rscale>  0 0.27455699E+03</rscale>
<asrwt>0</asrwt>
<pdfrwt beam="1">  1        2 0.50782255E-01 0.27455699E+03</pdfrwt>
<pdfrwt beam="2">  1       -2 0.87834741E-02 0.27455699E+03</pdfrwt>
<totfact> 0.79790023E+03</totfact>
</mgrwt>
</event>
<event>
 9    1  0.2114844E-002  0.2795512E+03  0.7818608E-02  0.1095934E+00
         -3   -1    0    0    0  501 -0.00000000000E+00  0.00000000000E+00  0.16874503814E+04  0.16874503814E+04  0.00000000000E+00 0. -1.
          3   -1    0    0  501    0  0.00000000000E+00 -0.00000000000E+00 -0.11577953694E+02  0.11577953694E+02  0.00000000000E+00 0. -1.
         36    2    1    2    0    0 -0.35527136788E-14 -0.71054273576E-14  0.16758724277E+04  0.16990283351E+04  0.27955122877E+03 0.  0.
         25    2    3    3    0    0 -0.58556287299E+01  0.40635395450E+02  0.11025157628E+04  0.11107957202E+04  0.12899845335E+03 0.  0.
         25    2    3    3    0    0  0.58556287299E+01 -0.40635395450E+02  0.57335666488E+03  0.58823261490E+03  0.12487682059E+03 0.  0.
          5    1    4    4  502    0  0.13426937445E+02  0.42463721356E+02  0.10791717617E+04  0.10801005655E+04  0.47000000000E+01 0.  1.
         -5    1    4    4    0  502 -0.19282566175E+02 -0.18283259055E+01  0.23344001063E+02  0.30695154659E+02  0.47000000000E+01 0.  1.
          5    1    5    5  503    0 -0.49980082315E+02  0.11902923473E+02  0.29476020842E+03  0.29924130511E+03  0.47000000000E+01 0. -1.
         -5    1    5    5    0  503  0.55835711045E+02 -0.52538318924E+02  0.27859645646E+03  0.28899130979E+03  0.47000000000E+01 0. -1.
<mgrwt>
<rscale>  0 0.27955123E+03</rscale>
<asrwt>0</asrwt>
<pdfrwt beam="1">  1        3 0.17812250E-02 0.27955123E+03</pdfrwt>
<pdfrwt beam="2">  1       -3 0.25960756E+00 0.27955123E+03</pdfrwt>
<totfact> 0.20904011E+02</totfact>
</mgrwt>
</event>
<event>
 9    1  0.2114844E-002  0.2755716E+03  0.7818608E-02  0.1098133E+00
         -1   -1    0    0    0  501 -0.00000000000E+00  0.00000000000E+00  0.86298400211E+02  0.86298400211E+02  0.00000000000E+00 0.  1.
          1   -1    0    0  501    0  0.00000000000E+00 -0.00000000000E+00 -0.21999160974E+03  0.21999160974E+03  0.00000000000E+00 0.  1.
         36    2    1    2    0    0  0.00000000000E+00 -0.71054273576E-14 -0.13369320953E+03  0.30629000995E+03  0.27557158039E+03 0.  0.
         25    2    3    3    0    0  0.55464325294E+02 -0.29385862206E+01 -0.63076835587E+02  0.15300505936E+03  0.12785513026E+03 0.  0.
         25    2    3    3    0    0 -0.55464325294E+02  0.29385862206E+01 -0.70616373941E+02  0.15328495059E+03  0.12419612369E+03 0.  0.
          5    1    4    4  502    0  0.47111593407E+02  0.36779584385E+02  0.17675998342E+02  0.62504167687E+02  0.47000000000E+01 0. -1.
         -5    1    4    4    0  502  0.83527318873E+01 -0.39718170606E+02 -0.80752833929E+02  0.90500891674E+02  0.47000000000E+01 0. -1.
          5    1    5    5  503    0 -0.46333572065E+01 -0.37195976017E+02  0.19261072290E+02  0.42403862284E+02  0.47000000000E+01 0.  1.
         -5    1    5    5    0  503 -0.50830968087E+02  0.40134562237E+02 -0.89877446230E+02  0.11088108830E+03  0.47000000000E+01 0.  1.
<mgrwt>
<rscale>  0 0.27557158E+03</rscale>
<asrwt>0</asrwt>
<pdfrwt beam="1">  1        1 0.33844863E-01 0.27557158E+03</pdfrwt>
<pdfrwt beam="2">  1       -1 0.13276677E-01 0.27557158E+03</pdfrwt>
<totfact> 0.50379107E+03</totfact>
</mgrwt>
</event>
<event>
 9    1  0.2114844E-002  0.2751765E+03  0.7818608E-02  0.1098353E+00
          2   -1    0    0  501    0  0.00000000000E+00  0.00000000000E+00  0.42402620929E+03  0.42402620929E+03  0.00000000000E+00 0. -1.
         -2   -1    0    0    0  501 -0.00000000000E+00 -0.00000000000E+00 -0.44644720855E+02  0.44644720855E+02  0.00000000000E+00 0. -1.
         36    2    1    2    0    0  0.00000000000E+00  0.00000000000E+00  0.37938148843E+03  0.46867093014E+03  0.27517653787E+03 0.  0.
         25    2    3    3    0    0  0.29947548772E+02  0.51701579431E+02  0.16405641394E+03  0.21407027554E+03  0.12386148279E+03 0.  0.
         25    2    3    3    0    0 -0.29947548772E+02 -0.51701579431E+02  0.21532507449E+03  0.25460065460E+03  0.12201105126E+03 0.  0.
          5    1    4    4  502    0 -0.41332696430E+01 -0.19205057148E+02 -0.10340417082E+02  0.22692121176E+02  0.47000000000E+01 0. -1.
         -5    1    4    4    0  502  0.34080818415E+02  0.70906636580E+02  0.17439683103E+03  0.19137815436E+03  0.47000000000E+01 0. -1.
          5    1    5    5  503    0  0.12797924911E+01 -0.34795808540E+02  0.21593611204E+03  0.21877586851E+03  0.47000000000E+01 0.  1.
         -5    1    5    5    0  503 -0.31227341263E+02 -0.16905770891E+02 -0.61103755080E+00  0.35824786093E+02  0.47000000000E+01 0.  1.
<mgrwt>
<rscale>  0 0.27517654E+03</rscale>
<asrwt>0</asrwt>
<pdfrwt beam="1">  1        2 0.65234799E-01 0.27517654E+03</pdfrwt>
<pdfrwt beam="2">  1       -2 0.68684189E-02 0.27517654E+03</pdfrwt>
<totfact> 0.89271689E+03</totfact>
</mgrwt>
</event>
<event>
 9    1  0.2114844E-002  0.2747050E+03  0.7818608E-02  0.1098617E+00
         -1   -1    0    0    0  501 -0.00000000000E+00  0.00000000000E+00  0.20270782433E+03  0.20270782433E+03  0.00000000000E+00 0. -1.
          1   -1    0    0  501    0  0.00000000000E+00 -0.00000000000E+00 -0.93068496121E+02  0.93068496121E+02  0.00000000000E+00 0. -1.
         36    2    1    2    0    0  0.00000000000E+00  0.71054273576E-14  0.10963932821E+03  0.29577632045E+03  0.27470502261E+03 0.  0.
         25    2    3    3    0    0  0.41995522506E+02  0.23904624315E+02  0.21933254254E+02  0.13614209986E+03  0.12537363653E+03 0.  0.
         25    2    3    3    0    0 -0.41995522506E+02 -0.23904624315E+02  0.87706073958E+02  0.15963422060E+03  0.12432085104E+03 0.  0.
          5    1    4    4  502    0  0.76293792890E+00  0.59335404546E+02  0.47239137921E+02  0.75992752670E+02  0.47000000000E+01 0.  1.
         -5    1    4    4    0  502  0.41232584577E+02 -0.35430780230E+02 -0.25305883668E+02  0.60149347185E+02  0.47000000000E+01 0.  1.
          5    1    5    5  503    0  0.43793013768E+02 -0.16866043840E+02  0.32105256481E+02  0.57053737682E+02  0.47000000000E+01 0.  1.
         -5    1    5    5    0  503 -0.85788536274E+02 -0.70385804756E+01  0.55600817476E+02  0.10258048292E+03  0.47000000000E+01 0.  1.
<mgrwt>
<rscale>  0 0.27470502E+03</rscale>
<asrwt>0</asrwt>
<pdfrwt beam="1">  1        1 0.14318230E-01 0.27470502E+03</pdfrwt>
<pdfrwt beam="2">  1       -1 0.31185819E-01 0.27470502E+03</pdfrwt>
<totfact> 0.37680140E+03</totfact>
</mgrwt>
</event>
<event>
 9    1  0.2114844E-002  0.2754266E+03  0.7818608E-02  0.1098213E+00
          4   -1    0    0  501    0  0.00000000000E+00  0.00000000000E+00  0.60282084124E+03  0.60282084124E+03  0.00000000000E+00 0. -1.
         -4   -1    0    0    0  501 -0.00000000000E+00 -0.00000000000E+00 -0.31460337951E+02  0.31460337951E+02  0.00000000000E+00 0. -1.
         36    2    1    2    0    0  0.10658141036E-13  0.88817841970E-15  0.57136050329E+03  0.63428117919E+03  0.27542655928E+03 0.  0.
         25    2    3    3    0    0  0.21964941457E+02  0.37432241077E+01  0.42471056433E+03  0.44187844015E+03  0.11992089907E+03 0.  0.
         25    2    3    3    0    0 -0.21964941457E+02 -0.37432241077E+01  0.14664993896E+03  0.19240273904E+03  0.12254035668E+03 0.  0.
          5    1    4    4  502    0 -0.49520734782E+02  0.10146265665E+01  0.15413032218E+03  0.16196165860E+03  0.47000000000E+01 0.  1.
         -5    1    4    4    0  502  0.71485676239E+02  0.27285975412E+01  0.27058024215E+03  0.27991678155E+03  0.47000000000E+01 0.  1.
          5    1    5    5  503    0 -0.44045114731E+02  0.26998887631E+02  0.14525120110E+03  0.15423655043E+03  0.47000000000E+01 0.  1.
         -5    1    5    5    0  503  0.22080173274E+02 -0.30742111739E+02  0.13987378546E+01  0.38166188617E+02  0.47000000000E+01 0.  1.
<mgrwt>
<rscale>  0 0.27542656E+03</rscale>
<asrwt>0</asrwt>
<pdfrwt beam="1">  1        4 0.92741659E-01 0.27542656E+03</pdfrwt>
<pdfrwt beam="2">  1       -4 0.48400525E-02 0.27542656E+03</pdfrwt>
<totfact> 0.47936429E+02</totfact>
</mgrwt>
</event>
<event>
 9    1  0.2114844E-002  0.2745005E+03  0.7818608E-02  0.1098731E+00
         -1   -1    0    0    0  501 -0.00000000000E+00  0.00000000000E+00  0.13784166695E+02  0.13784166695E+02  0.00000000000E+00 0.  1.
          1   -1    0    0  501    0  0.00000000000E+00 -0.00000000000E+00 -0.13666135629E+04  0.13666135629E+04  0.00000000000E+00 0.  1.
         36    2    1    2    0    0  0.35527136788E-14  0.14210854715E-13 -0.13528293962E+04  0.13803977296E+04  0.27450048567E+03 0.  0.
         25    2    3    3    0    0  0.17225957942E+02  0.52636803752E+02 -0.63901756635E+03  0.65266158508E+03  0.12064960755E+03 0.  0.
         25    2    3    3    0    0 -0.17225957942E+02 -0.52636803752E+02 -0.71381182986E+03  0.72773614452E+03  0.13040399094E+03 0.  0.
          5    1    4    4  502    0  0.31529451728E+02 -0.32789384083E+02 -0.24116951787E+03  0.24546705764E+03  0.47000000000E+01 0. -1.
         -5    1    4    4    0  502 -0.14303493786E+02  0.85426187835E+02 -0.39784804848E+03  0.40719452745E+03  0.47000000000E+01 0. -1.
          5    1    5    5  503    0  0.36430030119E+02 -0.70746586179E+02 -0.31663746707E+03  0.32651738408E+03  0.47000000000E+01 0.  1.
         -5    1    5    5    0  503 -0.53655988061E+02  0.18109782427E+02 -0.39717436279E+03  0.40121876044E+03  0.47000000000E+01 0.  1.
<mgrwt>
<rscale>  0 0.27450049E+03</rscale>
<asrwt>0</asrwt>
<pdfrwt beam="1">  1        1 0.21024823E+00 0.27450049E+03</pdfrwt>
<pdfrwt beam="2">  1       -1 0.21206412E-02 0.27450049E+03</pdfrwt>
<totfact> 0.55312261E+03</totfact>
</mgrwt>
</event>
<event>
 8    1  0.2114844E-002  0.2236888E+03  0.7818608E-02  0.1131162E+00
         -1   -1    0    0    0  501 -0.00000000000E+00  0.00000000000E+00  0.20812863605E+02  0.20812863605E+02  0.00000000000E+00 0.  1.
          1   -1    0    0  501    0  0.00000000000E+00 -0.00000000000E+00 -0.60103073872E+03  0.60103073872E+03  0.00000000000E+00 0.  1.
         25    2    1    2    0    0  0.39900840629E+01 -0.13530006349E+02 -0.28521764591E+03  0.29948790991E+03  0.90249214949E+02 0.  0.
         25    2    1    2    0    0 -0.39900840629E+01  0.13530006349E+02 -0.29500022920E+03  0.32235569241E+03  0.12918620422E+03 0.  0.
          5    1    3    3  502    0  0.38770232884E+02 -0.22704729129E+02 -0.87533718728E+02  0.98503185720E+02  0.47000000000E+01 0. -1.
         -5    1    3    3    0  502 -0.34780148821E+02  0.91747227798E+01 -0.19768392718E+03  0.20098472419E+03  0.47000000000E+01 0. -1.
          5    1    4    4  503    0 -0.17500504492E+02  0.64404789343E+02 -0.22443325093E+03  0.23419354959E+03  0.47000000000E+01 0. -1.
         -5    1    4    4    0  503  0.13510420429E+02 -0.50874782994E+02 -0.70566978272E+02  0.88162142824E+02  0.47000000000E+01 0. -1.
<mgrwt>
<rscale>  0 0.22368881E+03</rscale>
<asrwt>0</asrwt>
<pdfrwt beam="1">  1        1 0.92466270E-01 0.22368881E+03</pdfrwt>
<pdfrwt beam="2">  1       -1 0.32019789E-02 0.22368881E+03</pdfrwt>
<totfact> 0.11831463E+04</totfact>
</mgrwt>
</event>
<event>
 9    1  0.2114844E-002  0.2751379E+03  0.7818608E-02  0.1098375E+00
         -1   -1    0    0    0  501 -0.00000000000E+00  0.00000000000E+00  0.25386419575E+03  0.25386419575E+03  0.00000000000E+00 0. -1.
          1   -1    0    0  501    0  0.00000000000E+00 -0.00000000000E+00 -0.74548561126E+02  0.74548561126E+02  0.00000000000E+00 0. -1.
         36    2    1    2    0    0  0.35527136788E-14 -0.35527136788E-14  0.17931563462E+03  0.32841275687E+03  0.27513786010E+03 0.  0.
         25    2    3    3    0    0 -0.93989480292E+01  0.27482468859E+02  0.29173624876E+02  0.13191982049E+03  0.12533200841E+03 0.  0.
         25    2    3    3    0    0  0.93989480292E+01 -0.27482468859E+02  0.15014200974E+03  0.19649293638E+03  0.12338243245E+03 0.  0.
          5    1    4    4  502    0  0.49823618378E+02  0.39468934987E+02 -0.19982200119E+01  0.63767332236E+02  0.47000000000E+01 0.  1.
         -5    1    4    4    0  502 -0.59222566407E+02 -0.11986466127E+02  0.31171844888E+02  0.68152488259E+02  0.47000000000E+01 0.  1.
          5    1    5    5  503    0 -0.30209823738E+02  0.33091542848E+02  0.24151022366E+02  0.51117957115E+02  0.47000000000E+01 0.  1.
         -5    1    5    5    0  503  0.39608771767E+02 -0.60574011707E+02  0.12599098738E+03  0.14537497926E+03  0.47000000000E+01 0.  1.
<mgrwt>
<rscale>  0 0.27513786E+03</rscale>
<asrwt>0</asrwt>
<pdfrwt beam="1">  1        1 0.11469010E-01 0.27513786E+03</pdfrwt>
<pdfrwt beam="2">  1       -1 0.39056030E-01 0.27513786E+03</pdfrwt>
<totfact> 0.34196597E+03</totfact>
</mgrwt>
</event>
<event>
 9    1  0.2114844E-002  0.2750148E+03  0.7818608E-02  0.1098443E+00
          2   -1    0    0  501    0  0.00000000000E+00  0.00000000000E+00  0.19584278379E+03  0.19584278379E+03  0.00000000000E+00 0.  1.
         -2   -1    0    0    0  501 -0.00000000000E+00 -0.00000000000E+00 -0.96548289969E+02  0.96548289969E+02  0.00000000000E+00 0.  1.
         36    2    1    2    0    0  0.35527136788E-14 -0.35527136788E-14  0.99294493817E+02  0.29239107376E+03  0.27501480598E+03 0.  0.
         25    2    3    3    0    0 -0.16023723056E+02 -0.17534157321E+02 -0.28733273387E+00  0.12597770779E+03  0.12371779956E+03 0.  0.
         25    2    3    3    0    0  0.16023723056E+02  0.17534157321E+02  0.99581826551E+02  0.16641336596E+03  0.13119703434E+03 0.  0.
          5    1    4    4  502    0  0.48342717215E+02 -0.31939537417E+02 -0.10487360850E+02  0.59069680004E+02  0.47000000000E+01 0. -1.
         -5    1    4    4    0  502 -0.64366440272E+02  0.14405380095E+02  0.10200028116E+02  0.66908027788E+02  0.47000000000E+01 0. -1.
          5    1    5    5  503    0  0.14673484425E+02  0.42849417732E+02 -0.15790163723E+02  0.48195466753E+02  0.47000000000E+01 0. -1.
         -5    1    5    5    0  503  0.13502386314E+01 -0.25315260410E+02  0.11537199027E+03  0.11821789921E+03  0.47000000000E+01 0. -1.
<mgrwt>
<rscale>  0 0.27501481E+03</rscale>
<asrwt>0</asrwt>
<pdfrwt beam="1">  1        2 0.30129659E-01 0.27501481E+03</pdfrwt>
<pdfrwt beam="2">  1       -2 0.14853583E-01 0.27501481E+03</pdfrwt>
<totfact> 0.60275828E+03</totfact>
</mgrwt>
</event>
<event>
 9    1  0.2114844E-002  0.2731643E+03  0.7818608E-02  0.1099482E+00
         -1   -1    0    0    0  501 -0.00000000000E+00  0.00000000000E+00  0.17358083379E+03  0.17358083379E+03  0.00000000000E+00 0.  1.
          1   -1    0    0  501    0  0.00000000000E+00 -0.00000000000E+00 -0.10746971320E+03  0.10746971320E+03  0.00000000000E+00 0.  1.
         36    2    1    2    0    0 -0.71054273576E-14  0.00000000000E+00  0.66111120594E+02  0.28105054700E+03  0.27316429068E+03 0.  0.
         25    2    3    3    0    0  0.34120856926E+02  0.27929916094E+02  0.31901004800E+02  0.14383916314E+03  0.13314547553E+03 0.  0.
         25    2    3    3    0    0 -0.34120856926E+02 -0.27929916094E+02  0.34210115795E+02  0.13721138385E+03  0.12534878837E+03 0.  0.
          5    1    4    4  502    0 -0.38008887316E+02  0.44607289682E+02  0.37026699159E+02  0.69480589077E+02  0.47000000000E+01 0. -1.
         -5    1    4    4    0  502  0.72129744242E+02 -0.16677373588E+02 -0.51256943595E+01  0.74358574064E+02  0.47000000000E+01 0. -1.
          5    1    5    5  503    0 -0.54153239223E+02  0.27496826820E+02 -0.12105656120E+02  0.62107050434E+02  0.47000000000E+01 0. -1.
         -5    1    5    5    0  503  0.20032382297E+02 -0.55426742914E+02  0.46315771915E+02  0.75104333421E+02  0.47000000000E+01 0. -1.
<mgrwt>
<rscale>  0 0.27316429E+03</rscale>
<asrwt>0</asrwt>
<pdfrwt beam="1">  1        1 0.16533802E-01 0.27316429E+03</pdfrwt>
<pdfrwt beam="2">  1       -1 0.26704744E-01 0.27316429E+03</pdfrwt>
<totfact> 0.40571843E+03</totfact>
</mgrwt>
</event>
<event>
 9    1  0.2114844E-002  0.2747074E+03  0.7818608E-02  0.1098615E+00
         -2   -1    0    0    0  501 -0.00000000000E+00  0.00000000000E+00  0.17291788180E+03  0.17291788180E+03  0.00000000000E+00 0. -1.
          2   -1    0    0  501    0  0.00000000000E+00 -0.00000000000E+00 -0.10910403696E+03  0.10910403696E+03  0.00000000000E+00 0. -1.
         36    2    1    2    0    0  0.00000000000E+00  0.00000000000E+00  0.63813844843E+02  0.28202191875E+03  0.27470740045E+03 0.  0.
         25    2    3    3    0    0  0.15980421858E+02  0.17548343149E+02 -0.25045237855E+02  0.12482972555E+03  0.11996615444E+03 0.  0.
         25    2    3    3    0    0 -0.15980421858E+02 -0.17548343149E+02  0.88859082698E+02  0.15719219320E+03  0.12747600086E+03 0.  0.
          5    1    4    4  502    0  0.67257352351E+02  0.16761445973E+01 -0.21683705835E+02  0.70842317895E+02  0.47000000000E+01 0.  1.
         -5    1    4    4    0  502 -0.51276930494E+02  0.15872198552E+02 -0.33615320207E+01  0.53987407655E+02  0.47000000000E+01 0.  1.
          5    1    5    5  503    0  0.47100864790E+02  0.23999073160E+02  0.27558390000E+02  0.59799680902E+02  0.47000000000E+01 0. -1.
         -5    1    5    5    0  503 -0.63081286648E+02 -0.41547416310E+02  0.61300692698E+02  0.97392512302E+02  0.47000000000E+01 0. -1.
<mgrwt>
<rscale>  0 0.27470740E+03</rscale>
<asrwt>0</asrwt>
<pdfrwt beam="1">  1        2 0.16785236E-01 0.27470740E+03</pdfrwt>
<pdfrwt beam="2">  1       -2 0.26602751E-01 0.27470740E+03</pdfrwt>
<totfact> 0.43095513E+03</totfact>
</mgrwt>
</event>
<event>
 9    1  0.2114844E-002  0.2757882E+03  0.7818608E-02  0.1098012E+00
         -1   -1    0    0    0  501 -0.00000000000E+00  0.00000000000E+00  0.77927358131E+01  0.77927358131E+01  0.00000000000E+00 0. -1.
          1   -1    0    0  501    0  0.00000000000E+00 -0.00000000000E+00 -0.24400649129E+04  0.24400649129E+04  0.00000000000E+00 0. -1.
         36    2    1    2    0    0  0.71054273576E-14  0.00000000000E+00 -0.24322721770E+04  0.24478576487E+04  0.27578818853E+03 0.  0.
         25    2    3    3    0    0 -0.98501877764E+01 -0.38517799518E+02 -0.13698380080E+04  0.13771843317E+04  0.13638133397E+03 0.  0.
         25    2    3    3    0    0  0.98501877764E+01  0.38517799518E+02 -0.10624341690E+04  0.10706733169E+04  0.12646873538E+03 0.  0.
          5    1    4    4  502    0 -0.67471464816E+02 -0.19331897653E+02 -0.98972156924E+03  0.99221821968E+03  0.47000000000E+01 0.  1.
         -5    1    4    4    0  502  0.57621277040E+02 -0.19185901864E+02 -0.38011643878E+03  0.38496611205E+03  0.47000000000E+01 0.  1.
          5    1    5    5  503    0 -0.24761517698E+02 -0.25978544521E+02 -0.11876859721E+03  0.12416153679E+03  0.47000000000E+01 0.  1.
         -5    1    5    5    0  503  0.34611705475E+02  0.64496344039E+02 -0.94366557181E+03  0.94651178016E+03  0.47000000000E+01 0.  1.
<mgrwt>
<rscale>  0 0.27578819E+03</rscale>
<asrwt>0</asrwt>
<pdfrwt beam="1">  1        1 0.37539488E+00 0.27578819E+03</pdfrwt>
<pdfrwt beam="2">  1       -1 0.11988815E-02 0.27578819E+03</pdfrwt>
<totfact> 0.25127595E+03</totfact>
</mgrwt>
</event>
<event>
 9    1  0.2114844E-002  0.2742996E+03  0.7818608E-02  0.1098844E+00
         -2   -1    0    0    0  501 -0.00000000000E+00  0.00000000000E+00  0.58407840199E+02  0.58407840199E+02  0.00000000000E+00 0. -1.
          2   -1    0    0  501    0  0.00000000000E+00 -0.00000000000E+00 -0.32204685907E+03  0.32204685907E+03  0.00000000000E+00 0. -1.
         36    2    1    2    0    0  0.00000000000E+00  0.00000000000E+00 -0.26363901888E+03  0.38045469927E+03  0.27429955509E+03 0.  0.
         25    2    3    3    0    0  0.37046022964E+02  0.33467088898E+02 -0.16991566829E+03  0.21581677493E+03  0.12334136433E+03 0.  0.
         25    2    3    3    0    0 -0.37046022964E+02 -0.33467088898E+02 -0.93723350586E+02  0.16463792434E+03  0.12581385389E+03 0.  0.
          5    1    4    4  502    0 -0.24135538592E+02  0.46271383706E+02 -0.25272532001E+02  0.58175218495E+02  0.47000000000E+01 0. -1.
         -5    1    4    4    0  502  0.61181561556E+02 -0.12804294808E+02 -0.14464313629E+03  0.15764155643E+03  0.47000000000E+01 0. -1.
          5    1    5    5  503    0 -0.25095510041E+02 -0.81327689473E+02 -0.66397846078E+02  0.10804971848E+03  0.47000000000E+01 0.  1.
         -5    1    5    5    0  503 -0.11950512922E+02  0.47860600575E+02 -0.27325504508E+02  0.56588205866E+02  0.47000000000E+01 0.  1.
<mgrwt>
<rscale>  0 0.27429956E+03</rscale>
<asrwt>0</asrwt>
<pdfrwt beam="1">  1        2 0.49545672E-01 0.27429956E+03</pdfrwt>
<pdfrwt beam="2">  1       -2 0.89858213E-02 0.27429956E+03</pdfrwt>
<totfact> 0.79047354E+03</totfact>
</mgrwt>
</event>
<event>
 9    1  0.2114844E-002  0.2740390E+03  0.7818608E-02  0.1098990E+00
         -2   -1    0    0    0  501 -0.00000000000E+00  0.00000000000E+00  0.18031521197E+02  0.18031521197E+02  0.00000000000E+00 0. -1.
          2   -1    0    0  501    0  0.00000000000E+00 -0.00000000000E+00 -0.10411954485E+04  0.10411954485E+04  0.00000000000E+00 0. -1.
         36    2    1    2    0    0  0.00000000000E+00  0.00000000000E+00 -0.10231639273E+04  0.10592269697E+04  0.27403895927E+03 0.  0.
         25    2    3    3    0    0  0.29889616792E+02  0.35468031450E+02 -0.39169991819E+03  0.41389620964E+03  0.12541880243E+03 0.  0.
         25    2    3    3    0    0 -0.29889616792E+02 -0.35468031450E+02 -0.63146400909E+03  0.64533076003E+03  0.12471417167E+03 0.  0.
          5    1    4    4  502    0  0.35558991741E+02  0.38536988938E+02 -0.39937241080E+03  0.40282744931E+03  0.47000000000E+01 0.  1.
         -5    1    4    4    0  502 -0.56693749488E+01 -0.30689574883E+01  0.76724926142E+01  0.11068760332E+02  0.47000000000E+01 0.  1.
          5    1    5    5  503    0 -0.38620350290E+01 -0.78422828940E+02 -0.30435781876E+03  0.31435780133E+03  0.47000000000E+01 0.  1.
         -5    1    5    5    0  503 -0.26027581763E+02  0.42954797490E+02 -0.32710619033E+03  0.33097295870E+03  0.47000000000E+01 0.  1.
<mgrwt>
<rscale>  0 0.27403896E+03</rscale>
<asrwt>0</asrwt>
<pdfrwt beam="1">  1        2 0.16018389E+00 0.27403896E+03</pdfrwt>
<pdfrwt beam="2">  1       -2 0.27740806E-02 0.27403896E+03</pdfrwt>
<totfact> 0.11766446E+04</totfact>
</mgrwt>
</event>
<event>
 9    1  0.2114844E-002  0.2760123E+03  0.7818608E-02  0.1097887E+00
         -2   -1    0    0    0  501 -0.00000000000E+00  0.00000000000E+00  0.60404266486E+02  0.60404266486E+02  0.00000000000E+00 0. -1.
          2   -1    0    0  501    0  0.00000000000E+00 -0.00000000000E+00 -0.31530376095E+03  0.31530376095E+03  0.00000000000E+00 0. -1.
         36    2    1    2    0    0 -0.71054273576E-14  0.00000000000E+00 -0.25489949447E+03  0.37570802744E+03  0.27601226350E+03 0.  0.
         25    2    3    3    0    0  0.23905730773E+01 -0.25269103948E+02 -0.60186829905E+02  0.14360754579E+03  0.12789226036E+03 0.  0.
         25    2    3    3    0    0 -0.23905730773E+01  0.25269103948E+02 -0.19471266456E+03  0.23210048164E+03  0.12374719950E+03 0.  0.
          5    1    4    4  502    0  0.36136265061E+02  0.26888982764E+02  0.13363526098E+02  0.47217802537E+02  0.47000000000E+01 0. -1.
         -5    1    4    4    0  502 -0.33745691983E+02 -0.52158086712E+02 -0.73550356003E+02  0.96389743257E+02  0.47000000000E+01 0. -1.
          5    1    5    5  503    0 -0.45102544780E+02 -0.13048286508E+02 -0.26087835646E+02  0.53918109158E+02  0.47000000000E+01 0.  1.
         -5    1    5    5    0  503  0.42711971703E+02  0.38317390456E+02 -0.16862482892E+03  0.17818237249E+03  0.47000000000E+01 0.  1.
<mgrwt>
<rscale>  0 0.27601226E+03</rscale>
<asrwt>0</asrwt>
<pdfrwt beam="1">  1        2 0.48508270E-01 0.27601226E+03</pdfrwt>
<pdfrwt beam="2">  1       -2 0.92929643E-02 0.27601226E+03</pdfrwt>
<totfact> 0.76708962E+03</totfact>
</mgrwt>
</event>
<event>
 9    1  0.2114844E-002  0.2723888E+03  0.7818608E-02  0.1099920E+00
         -1   -1    0    0    0  501 -0.00000000000E+00  0.00000000000E+00  0.31916947739E+02  0.31916947739E+02  0.00000000000E+00 0. -1.
          1   -1    0    0  501    0  0.00000000000E+00 -0.00000000000E+00 -0.58116191471E+03  0.58116191471E+03  0.00000000000E+00 0. -1.
         36    2    1    2    0    0 -0.35527136788E-14  0.71054273576E-14 -0.54924496697E+03  0.61307886245E+03  0.27238879903E+03 0.  0.
         25    2    3    3    0    0 -0.89962476772E+01 -0.63064679016E+01 -0.17343088734E+03  0.21680818732E+03  0.12964109455E+03 0.  0.
         25    2    3    3    0    0  0.89962476772E+01  0.63064679016E+01 -0.37581407963E+03  0.39627067513E+03  0.12519393559E+03 0.  0.
          5    1    4    4  502    0  0.21155335171E+02 -0.57472973646E+02 -0.48019553006E+02  0.77965751307E+02  0.47000000000E+01 0.  1.
         -5    1    4    4    0  502 -0.30151582849E+02  0.51166505745E+02 -0.12541133433E+03  0.13884243601E+03  0.47000000000E+01 0.  1.
          5    1    5    5  503    0  0.63802569986E+02 -0.15998231479E+02 -0.21294168383E+03  0.22291918280E+03  0.47000000000E+01 0.  1.
         -5    1    5    5    0  503 -0.54806322309E+02  0.22304699381E+02 -0.16287239580E+03  0.17335149233E+03  0.47000000000E+01 0.  1.
<mgrwt>
<rscale>  0 0.27238880E+03</rscale>
<asrwt>0</asrwt>
<pdfrwt beam="1">  1        1 0.89409522E-01 0.27238880E+03</pdfrwt>
<pdfrwt beam="2">  1       -1 0.49102999E-02 0.27238880E+03</pdfrwt>
<totfact> 0.66220696E+03</totfact>
</mgrwt>
</event>
<event>
 9    1  0.2114844E-002  0.2747933E+03  0.7818608E-02  0.1098567E+00
          1   -1    0    0  501    0  0.00000000000E+00  0.00000000000E+00  0.10025142468E+04  0.10025142468E+04  0.00000000000E+00 0. -1.
         -1   -1    0    0    0  501 -0.00000000000E+00 -0.00000000000E+00 -0.18830491273E+02  0.18830491273E+02  0.00000000000E+00 0. -1.
         36    2    1    2    0    0  0.35527136788E-14  0.00000000000E+00  0.98368375549E+03  0.10213447380E+04  0.27479327338E+03 0.  0.
         25    2    3    3    0    0 -0.43166100690E+01  0.54611070123E+02  0.59501824578E+03  0.60959921607E+03  0.12067928286E+03 0.  0.
         25    2    3    3    0    0  0.43166100690E+01 -0.54611070123E+02  0.38866550970E+03  0.41174552197E+03  0.12438848147E+03 0.  0.
          5    1    4    4  502    0  0.45495903292E+02  0.38365614078E+02  0.47261768865E+03  0.47637313860E+03  0.47000000000E+01 0.  1.
         -5    1    4    4    0  502 -0.49812513361E+02  0.16245456045E+02  0.12240055714E+03  0.13322607747E+03  0.47000000000E+01 0.  1.
          5    1    5    5  503    0  0.14615957147E+02 -0.51734426183E+02  0.39485540024E+03  0.39852597676E+03  0.47000000000E+01 0.  1.
         -5    1    5    5    0  503 -0.10299347078E+02 -0.28766439406E+01 -0.61898905342E+01  0.13219545205E+02  0.47000000000E+01 0.  1.
<mgrwt>
<rscale>  0 0.27479327E+03</rscale>
<asrwt>0</asrwt>
<pdfrwt beam="1">  1        1 0.15423292E+00 0.27479327E+03</pdfrwt>
<pdfrwt beam="2">  1       -1 0.28969994E-02 0.27479327E+03</pdfrwt>
<totfact> 0.63199749E+03</totfact>
</mgrwt>
</event>
<event>
 9    1  0.2114844E-002  0.2744332E+03  0.7818608E-02  0.1098769E+00
          2   -1    0    0  501    0  0.00000000000E+00  0.00000000000E+00  0.49941977644E+03  0.49941977644E+03  0.00000000000E+00 0.  1.
         -2   -1    0    0    0  501 -0.00000000000E+00 -0.00000000000E+00 -0.37700534185E+02  0.37700534185E+02  0.00000000000E+00 0.  1.
         36    2    1    2    0    0 -0.14210854715E-13  0.00000000000E+00  0.46171924226E+03  0.53712031063E+03  0.27443317842E+03 0.  0.
         25    2    3    3    0    0 -0.35409894351E+02  0.32077566612E+02  0.29624701985E+03  0.32615841813E+03  0.12780526614E+03 0.  0.
         25    2    3    3    0    0  0.35409894351E+02 -0.32077566612E+02  0.16547222241E+03  0.21096189249E+03  0.12182377764E+03 0.  0.
          5    1    4    4  502    0  0.17424987591E+02 -0.27410753672E+02  0.19277461441E+03  0.19554825893E+03  0.47000000000E+01 0. -1.
         -5    1    4    4    0  502 -0.52834881941E+02  0.59488320284E+02  0.10347240544E+03  0.13061015920E+03  0.47000000000E+01 0. -1.
          5    1    5    5  503    0  0.66954503612E+02 -0.58796206007E+02  0.11466177681E+03  0.14529044172E+03  0.47000000000E+01 0. -1.
         -5    1    5    5    0  503 -0.31544609261E+02  0.26718639395E+02  0.50810445598E+02  0.65671450771E+02  0.47000000000E+01 0. -1.
<mgrwt>
<rscale>  0 0.27443318E+03</rscale>
<asrwt>0</asrwt>
<pdfrwt beam="1">  1        2 0.76833807E-01 0.27443318E+03</pdfrwt>
<pdfrwt beam="2">  1       -2 0.58000825E-02 0.27443318E+03</pdfrwt>
<totfact> 0.96632939E+03</totfact>
</mgrwt>
</event>
<event>
 9    1  0.2114844E-002  0.2759653E+03  0.7818608E-02  0.1097913E+00
         -2   -1    0    0    0  501 -0.00000000000E+00  0.00000000000E+00  0.61227385391E+01  0.61227385391E+01  0.00000000000E+00 0.  1.
          2   -1    0    0  501    0  0.00000000000E+00 -0.00000000000E+00 -0.31095905093E+04  0.31095905093E+04  0.00000000000E+00 0.  1.
         36    2    1    2    0    0  0.00000000000E+00 -0.35527136788E-14 -0.31034677708E+04  0.31157132479E+04  0.27596528515E+03 0.  0.
         25    2    3    3    0    0  0.33801573605E+02  0.11210139596E+01 -0.10774917195E+04  0.10858072100E+04  0.12978863078E+03 0.  0.
         25    2    3    3    0    0 -0.33801573605E+02 -0.11210139596E+01 -0.20259760513E+04  0.20299060379E+04  0.12163781920E+03 0.  0.
          5    1    4    4  502    0  0.34705908636E+02  0.26198663863E+02 -0.10371103973E+04  0.10380322424E+04  0.47000000000E+01 0.  1.
         -5    1    4    4    0  502 -0.90433503081E+00 -0.25077649904E+02 -0.40381322123E+02  0.47774967534E+02  0.47000000000E+01 0.  1.
          5    1    5    5  503    0 -0.36133029351E+02 -0.31356881168E+02 -0.18856932553E+04  0.18863059118E+04  0.47000000000E+01 0.  1.
         -5    1    5    5    0  503  0.23314557456E+01  0.30235867208E+02 -0.14028279600E+03  0.14360012607E+03  0.47000000000E+01 0.  1.
<mgrwt>
<rscale>  0 0.27596529E+03</rscale>
<asrwt>0</asrwt>
<pdfrwt beam="1">  1        2 0.47839829E+00 0.27596529E+03</pdfrwt>
<pdfrwt beam="2">  1       -2 0.94196027E-03 0.27596529E+03</pdfrwt>
<totfact> 0.41651698E+03</totfact>
</mgrwt>
</event>
<event>
 9    1  0.2114844E-002  0.2718684E+03  0.7818608E-02  0.1100215E+00
         -1   -1    0    0    0  501 -0.00000000000E+00  0.00000000000E+00  0.17585626282E+02  0.17585626282E+02  0.00000000000E+00 0.  1.
          1   -1    0    0  501    0  0.00000000000E+00 -0.00000000000E+00 -0.10507508902E+04  0.10507508902E+04  0.00000000000E+00 0.  1.
         36    2    1    2    0    0 -0.71054273576E-14  0.00000000000E+00 -0.10331652640E+04  0.10683365165E+04  0.27186844224E+03 0.  0.
         25    2    3    3    0    0 -0.26061534214E+02  0.36300498871E+02 -0.39729797432E+03  0.41844827522E+03  0.12351659342E+03 0.  0.
         25    2    3    3    0    0  0.26061534214E+02 -0.36300498871E+02 -0.63586728964E+03  0.64988824130E+03  0.12661195192E+03 0.  0.
          5    1    4    4  502    0 -0.51878696610E+02  0.26372168374E+01 -0.64619754335E+02  0.83043101610E+02  0.47000000000E+01 0.  1.
         -5    1    4    4    0  502  0.25817162396E+02  0.33663282034E+02 -0.33267821998E+03  0.33540517361E+03  0.47000000000E+01 0.  1.
          5    1    5    5  503    0 -0.21795889482E+02 -0.47896117775E+02 -0.53440443127E+03  0.53700957632E+03  0.47000000000E+01 0.  1.
         -5    1    5    5    0  503  0.47857423696E+02  0.11595618904E+02 -0.10146285837E+03  0.11287866498E+03  0.47000000000E+01 0.  1.
<mgrwt>
<rscale>  0 0.27186844E+03</rscale>
<asrwt>0</asrwt>
<pdfrwt beam="1">  1        1 0.16165401E+00 0.27186844E+03</pdfrwt>
<pdfrwt beam="2">  1       -1 0.27054805E-02 0.27186844E+03</pdfrwt>
<totfact> 0.64364836E+03</totfact>
</mgrwt>
</event>
<event>
 9    1  0.2114844E-002  0.2771573E+03  0.7818608E-02  0.1097252E+00
          1   -1    0    0  501    0  0.00000000000E+00  0.00000000000E+00  0.21986216826E+04  0.21986216826E+04  0.00000000000E+00 0.  1.
         -1   -1    0    0    0  501 -0.00000000000E+00 -0.00000000000E+00 -0.87345834464E+01  0.87345834464E+01  0.00000000000E+00 0.  1.
         36    2    1    2    0    0  0.00000000000E+00  0.10658141036E-13  0.21898870991E+04  0.22073562660E+04  0.27715731672E+03 0.  0.
         25    2    3    3    0    0  0.31166140571E+02  0.51667406197E+01  0.94956403151E+03  0.96101616223E+03  0.14450671476E+03 0.  0.
         25    2    3    3    0    0 -0.31166140571E+02 -0.51667406197E+01  0.12403230676E+04  0.12463401038E+04  0.11817071851E+03 0.  0.
          5    1    4    4  502    0  0.17585984078E+02  0.70372913222E+02  0.65273199714E+03  0.65676690221E+03  0.47000000000E+01 0. -1.
         -5    1    4    4    0  502  0.13580156494E+02 -0.65206172602E+02  0.29683203437E+03  0.30424926002E+03  0.47000000000E+01 0. -1.
          5    1    5    5  503    0 -0.64587431636E+02  0.50165302134E+01  0.10902098934E+04  0.10921430325E+04  0.47000000000E+01 0. -1.
         -5    1    5    5    0  503  0.33421291065E+02 -0.10183270833E+02  0.15011317425E+03  0.15419707126E+03  0.47000000000E+01 0. -1.
<mgrwt>
<rscale>  0 0.27715732E+03</rscale>
<asrwt>0</asrwt>
<pdfrwt beam="1">  1        1 0.33824905E+00 0.27715732E+03</pdfrwt>
<pdfrwt beam="2">  1       -1 0.13437838E-02 0.27715732E+03</pdfrwt>
<totfact> 0.30681234E+03</totfact>
</mgrwt>
</event>
<event>
 9    1  0.2114844E-002  0.2744565E+03  0.7818608E-02  0.1098756E+00
         -2   -1    0    0    0  501 -0.00000000000E+00  0.00000000000E+00  0.74429270844E+03  0.74429270844E+03  0.00000000000E+00 0.  1.
          2   -1    0    0  501    0  0.00000000000E+00 -0.00000000000E+00 -0.25301319147E+02  0.25301319147E+02  0.00000000000E+00 0.  1.
         36    2    1    2    0    0  0.00000000000E+00  0.00000000000E+00  0.71899138930E+03  0.76959402759E+03  0.27445646180E+03 0.  0.
         25    2    3    3    0    0  0.17634390651E+02  0.69636063134E+01  0.18749466404E+03  0.22684373419E+03  0.12627100678E+03 0.  0.
         25    2    3    3    0    0 -0.17634390651E+02 -0.69636063134E+01  0.53149672526E+03  0.54275029340E+03  0.10830350169E+03 0.  0.
          5    1    4    4  502    0 -0.47277105914E+00 -0.37108507265E+02  0.44861250374E+01  0.37675988929E+02  0.47000000000E+01 0.  1.
         -5    1    4    4    0  502  0.18107161710E+02  0.44072113579E+02  0.18300853900E+03  0.18916774526E+03  0.47000000000E+01 0.  1.
          5    1    5    5  503    0 -0.12857197067E+02  0.36046661876E+02  0.76421167353E+02  0.85597629456E+02  0.47000000000E+01 0. -1.
         -5    1    5    5    0  503 -0.47771935840E+01 -0.43010268189E+02  0.45507555790E+03  0.45715266394E+03  0.47000000000E+01 0. -1.
<mgrwt>
<rscale>  0 0.27445646E+03</rscale>
<asrwt>0</asrwt>
<pdfrwt beam="1">  1        2 0.38925112E-02 0.27445646E+03</pdfrwt>
<pdfrwt beam="2">  1       -2 0.11450655E+00 0.27445646E+03</pdfrwt>
<totfact> 0.13671102E+03</totfact>
</mgrwt>
</event>
<event>
 9    1  0.2114844E-002  0.2745537E+03  0.7818608E-02  0.1098701E+00
         -1   -1    0    0    0  501 -0.00000000000E+00  0.00000000000E+00  0.12776044815E+03  0.12776044815E+03  0.00000000000E+00 0.  1.
          1   -1    0    0  501    0  0.00000000000E+00 -0.00000000000E+00 -0.14750204966E+03  0.14750204966E+03  0.00000000000E+00 0.  1.
         36    2    1    2    0    0  0.71054273576E-14  0.00000000000E+00 -0.19741601515E+02  0.27526249781E+03  0.27455365936E+03 0.  0.
         25    2    3    3    0    0 -0.38527745953E+02 -0.27718622060E+01  0.32746064251E+02  0.13355122930E+03  0.12357813599E+03 0.  0.
         25    2    3    3    0    0  0.38527745953E+02  0.27718622060E+01 -0.52487665766E+02  0.14171126851E+03  0.12583742741E+03 0.  0.
          5    1    4    4  502    0 -0.53374569381E+01  0.24721186461E+02  0.71135370423E+02  0.75643614614E+02  0.47000000000E+01 0. -1.
         -5    1    4    4    0  502 -0.33190289015E+02 -0.27493048667E+02 -0.38389306172E+02  0.57907614683E+02  0.47000000000E+01 0. -1.
          5    1    5    5  503    0 -0.26181310849E+02  0.45923947507E+02 -0.14451504080E+02  0.55003690445E+02  0.47000000000E+01 0. -1.
         -5    1    5    5    0  503  0.64709056801E+02 -0.43152085300E+02 -0.38036161685E+02  0.86707578064E+02  0.47000000000E+01 0. -1.
<mgrwt>
<rscale>  0 0.27455366E+03</rscale>
<asrwt>0</asrwt>
<pdfrwt beam="1">  1        1 0.22692623E-01 0.27455366E+03</pdfrwt>
<pdfrwt beam="2">  1       -1 0.19655454E-01 0.27455366E+03</pdfrwt>
<totfact> 0.44679792E+03</totfact>
</mgrwt>
</event>
<event>
 9    1  0.2114844E-002  0.2739592E+03  0.7818608E-02  0.1099035E+00
         -2   -1    0    0    0  501 -0.00000000000E+00  0.00000000000E+00  0.11388116586E+02  0.11388116586E+02  0.00000000000E+00 0.  1.
          2   -1    0    0  501    0  0.00000000000E+00 -0.00000000000E+00 -0.16476307382E+04  0.16476307382E+04  0.00000000000E+00 0.  1.
         36    2    1    2    0    0  0.35527136788E-14  0.00000000000E+00 -0.16362426216E+04  0.16590188548E+04  0.27395920088E+03 0.  0.
         25    2    3    3    0    0  0.90262977452E+01 -0.24699930033E+01 -0.48159433471E+03  0.49757321974E+03  0.12473343922E+03 0.  0.
         25    2    3    3    0    0 -0.90262977452E+01  0.24699930033E+01 -0.11546482869E+04  0.11614456350E+04  0.12512282687E+03 0.  0.
          5    1    4    4  502    0  0.24860819598E+01  0.60103519491E+02 -0.27591017584E+03  0.28243075044E+03  0.47000000000E+01 0.  1.
         -5    1    4    4    0  502  0.65402157855E+01 -0.62573512494E+02 -0.20568415887E+03  0.21514246930E+03  0.47000000000E+01 0.  1.
          5    1    5    5  503    0  0.32183583189E+02  0.19622184530E+02 -0.12097784069E+03  0.12680118726E+03  0.47000000000E+01 0. -1.
         -5    1    5    5    0  503 -0.41209880934E+02 -0.17152191527E+02 -0.10336704462E+04  0.10346444478E+04  0.47000000000E+01 0. -1.
<mgrwt>
<rscale>  0 0.27395920E+03</rscale>
<asrwt>0</asrwt>
<pdfrwt beam="1">  1        2 0.25348173E+00 0.27395920E+03</pdfrwt>
<pdfrwt beam="2">  1       -2 0.17520174E-02 0.27395920E+03</pdfrwt>
<totfact> 0.10694802E+04</totfact>
</mgrwt>
</event>
<event>
 9    1  0.2114844E-002  0.2750564E+03  0.7818608E-02  0.1098420E+00
          3   -1    0    0  501    0  0.00000000000E+00  0.00000000000E+00  0.69881668835E+02  0.69881668835E+02  0.00000000000E+00 0.  1.
         -3   -1    0    0    0  501 -0.00000000000E+00 -0.00000000000E+00 -0.27065755133E+03  0.27065755133E+03  0.00000000000E+00 0.  1.
         36    2    1    2    0    0 -0.71054273576E-14  0.17763568394E-14 -0.20077588249E+03  0.34053922016E+03  0.27505636782E+03 0.  0.
         25    2    3    3    0    0 -0.63790906996E+02  0.82202378782E+01 -0.97301046668E+02  0.16933951089E+03  0.12276613596E+03 0.  0.
         25    2    3    3    0    0  0.63790906996E+02 -0.82202378782E+01 -0.10347483582E+03  0.17119970927E+03  0.12027238536E+03 0.  0.
          5    1    4    4  502    0 -0.74396568204E+02  0.14337146725E+02 -0.12065886278E+03  0.14255193546E+03  0.47000000000E+01 0.  1.
         -5    1    4    4    0  502  0.10605661207E+02 -0.61169088464E+01  0.23357816114E+02  0.26787575424E+02  0.47000000000E+01 0.  1.
          5    1    5    5  503    0 -0.33859010389E+02  0.11369014111E+02 -0.35131653722E+02  0.50319083454E+02  0.47000000000E+01 0.  1.
         -5    1    5    5    0  503  0.97649917385E+02 -0.19589251989E+02 -0.68343182100E+02  0.12088062582E+03  0.47000000000E+01 0.  1.
<mgrwt>
<rscale>  0 0.27505637E+03</rscale>
<asrwt>0</asrwt>
<pdfrwt beam="1">  1        3 0.10751026E-01 0.27505637E+03</pdfrwt>
<pdfrwt beam="2">  1       -3 0.41639623E-01 0.27505637E+03</pdfrwt>
<totfact> 0.95452148E+02</totfact>
</mgrwt>
</event>
<event>
 9    1  0.2114844E-002  0.2752234E+03  0.7818608E-02  0.1098327E+00
         -2   -1    0    0    0  501 -0.00000000000E+00  0.00000000000E+00  0.92728400344E+01  0.92728400344E+01  0.00000000000E+00 0. -1.
          2   -1    0    0  501    0  0.00000000000E+00 -0.00000000000E+00 -0.20421991351E+04  0.20421991351E+04  0.00000000000E+00 0. -1.
         36    2    1    2    0    0  0.00000000000E+00  0.00000000000E+00 -0.20329262951E+04  0.20514719752E+04  0.27522344303E+03 0.  0.
         25    2    3    3    0    0 -0.42073778569E+02 -0.50191371502E+02 -0.11859426447E+04  0.11945323147E+04  0.12711458532E+03 0.  0.
         25    2    3    3    0    0  0.42073778569E+02  0.50191371502E+02 -0.84698365041E+03  0.85693966045E+03  0.11258286269E+03 0.  0.
          5    1    4    4  502    0  0.37944312957E+02  0.63543398099E+01 -0.19993215635E+03  0.20365437796E+03  0.47000000000E+01 0.  1.
         -5    1    4    4    0  502 -0.80018091526E+02 -0.56545711312E+02 -0.98601048832E+03  0.99087793674E+03  0.47000000000E+01 0.  1.
          5    1    5    5  503    0  0.34700774639E+02  0.85235664661E+02 -0.67008650254E+03  0.67639283939E+03  0.47000000000E+01 0.  1.
         -5    1    5    5    0  503  0.73730039296E+01 -0.35044293159E+02 -0.17689714787E+03  0.18054682106E+03  0.47000000000E+01 0.  1.
<mgrwt>
<rscale>  0 0.27522344E+03</rscale>
<asrwt>0</asrwt>
<pdfrwt beam="1">  1        2 0.31418482E+00 0.27522344E+03</pdfrwt>
<pdfrwt beam="2">  1       -2 0.14265892E-02 0.27522344E+03</pdfrwt>
<totfact> 0.89625580E+03</totfact>
</mgrwt>
</event>
<event>
 9    1  0.2114844E-002  0.2669173E+03  0.7818608E-02  0.1103057E+00
         -1   -1    0    0    0  501 -0.00000000000E+00  0.00000000000E+00  0.41239997167E+02  0.41239997167E+02  0.00000000000E+00 0. -1.
          1   -1    0    0  501    0  0.00000000000E+00 -0.00000000000E+00 -0.43189162777E+03  0.43189162777E+03  0.00000000000E+00 0. -1.
         36    2    1    2    0    0  0.71054273576E-14  0.00000000000E+00 -0.39065163060E+03  0.47313162494E+03  0.26691728686E+03 0.  0.
         25    2    3    3    0    0 -0.41667249659E+02  0.29190775713E+02 -0.18227142786E+03  0.22569368986E+03  0.12298986602E+03 0.  0.
         25    2    3    3    0    0  0.41667249659E+02 -0.29190775713E+02 -0.20838020274E+03  0.24743793508E+03  0.12334894301E+03 0.  0.
          5    1    4    4  502    0  0.23254140952E+02  0.56221558409E+02 -0.10210437129E+03  0.11894961681E+03  0.47000000000E+01 0.  1.
         -5    1    4    4    0  502 -0.64921390612E+02 -0.27030782696E+02 -0.80167056571E+02  0.10674407305E+03  0.47000000000E+01 0.  1.
          5    1    5    5  503    0 -0.40407612036E+02 -0.14805118249E+02 -0.37532665408E+02  0.57295354170E+02  0.47000000000E+01 0. -1.
         -5    1    5    5    0  503  0.82074861696E+02 -0.14385657464E+02 -0.17084753733E+03  0.19014258091E+03  0.47000000000E+01 0. -1.
<mgrwt>
<rscale>  0 0.26691729E+03</rscale>
<asrwt>0</asrwt>
<pdfrwt beam="1">  1        1 0.66444865E-01 0.26691729E+03</pdfrwt>
<pdfrwt beam="2">  1       -1 0.63446150E-02 0.26691729E+03</pdfrwt>
<totfact> 0.66823854E+03</totfact>
</mgrwt>
</event>
<event>
 9    1  0.2114844E-002  0.2748073E+03  0.7818608E-02  0.1098559E+00
         -2   -1    0    0    0  501 -0.00000000000E+00  0.00000000000E+00  0.28985056667E+02  0.28985056667E+02  0.00000000000E+00 0.  1.
          2   -1    0    0  501    0  0.00000000000E+00 -0.00000000000E+00 -0.65136215143E+03  0.65136215143E+03  0.00000000000E+00 0.  1.
         36    2    1    2    0    0  0.00000000000E+00  0.00000000000E+00 -0.62237709476E+03  0.68034720810E+03  0.27480734248E+03 0.  0.
         25    2    3    3    0    0 -0.22199888716E+02  0.52680658004E+02 -0.31816405981E+03  0.34589103768E+03  0.12306158705E+03 0.  0.
         25    2    3    3    0    0  0.22199888716E+02 -0.52680658004E+02 -0.30421303496E+03  0.33445617042E+03  0.12667782958E+03 0.  0.
          5    1    4    4  502    0 -0.49158616804E+01 -0.56939460041E+01 -0.26435592495E+03  0.26450469140E+03  0.47000000000E+01 0.  1.
         -5    1    4    4    0  502 -0.17284027035E+02  0.58374604008E+02 -0.53808134854E+02  0.81386346276E+02  0.47000000000E+01 0.  1.
          5    1    5    5  503    0 -0.37700016625E+02 -0.37955322826E+02 -0.23741418624E+03  0.24341216817E+03  0.47000000000E+01 0.  1.
         -5    1    5    5    0  503  0.59899905341E+02 -0.14725335178E+02 -0.66798848719E+02  0.91044002252E+02  0.47000000000E+01 0.  1.
<mgrwt>
<rscale>  0 0.27480734E+03</rscale>
<asrwt>0</asrwt>
<pdfrwt beam="1">  1        2 0.10020956E+00 0.27480734E+03</pdfrwt>
<pdfrwt beam="2">  1       -2 0.44592396E-02 0.27480734E+03</pdfrwt>
<totfact> 0.10622156E+04</totfact>
</mgrwt>
</event>
<event>
 9    1  0.2114844E-002  0.2748976E+03  0.7818608E-02  0.1098509E+00
          1   -1    0    0  501    0  0.00000000000E+00  0.00000000000E+00  0.47643789194E+03  0.47643789194E+03  0.00000000000E+00 0.  1.
         -1   -1    0    0    0  501 -0.00000000000E+00 -0.00000000000E+00 -0.39652962936E+02  0.39652962936E+02  0.00000000000E+00 0.  1.
         36    2    1    2    0    0 -0.17763568394E-14  0.00000000000E+00  0.43678492900E+03  0.51609085487E+03  0.27489761054E+03 0.  0.
         25    2    3    3    0    0  0.95594203577E+01 -0.44438843750E+02  0.16454717831E+03  0.21311648266E+03  0.12758004524E+03 0.  0.
         25    2    3    3    0    0 -0.95594203577E+01  0.44438843750E+02  0.27223775069E+03  0.30297437221E+03  0.12495552793E+03 0.  0.
          5    1    4    4  502    0  0.13471941065E+02 -0.87325294308E+02  0.13208287079E+03  0.15898168127E+03  0.47000000000E+01 0.  1.
         -5    1    4    4    0  502 -0.39125207078E+01  0.42886450559E+02  0.32464307514E+02  0.54134801396E+02  0.47000000000E+01 0.  1.
          5    1    5    5  503    0 -0.19430322973E+02  0.17361404393E+02 -0.25863110815E+01  0.26603285856E+02  0.47000000000E+01 0. -1.
         -5    1    5    5    0  503  0.98709026158E+01  0.27077439357E+02  0.27482406177E+03  0.27637108635E+03  0.47000000000E+01 0. -1.
<mgrwt>
<rscale>  0 0.27489761E+03</rscale>
<asrwt>0</asrwt>
<pdfrwt beam="1">  1        1 0.73298133E-01 0.27489761E+03</pdfrwt>
<pdfrwt beam="2">  1       -1 0.61004562E-02 0.27489761E+03</pdfrwt>
<totfact> 0.62438174E+03</totfact>
</mgrwt>
</event>
<event>
 9    1  0.2114844E-002  0.2760903E+03  0.7818608E-02  0.1097844E+00
         -1   -1    0    0    0  501 -0.00000000000E+00  0.00000000000E+00  0.12832902044E+03  0.12832902044E+03  0.00000000000E+00 0. -1.
          1   -1    0    0  501    0  0.00000000000E+00 -0.00000000000E+00 -0.14849695708E+03  0.14849695708E+03  0.00000000000E+00 0. -1.
         36    2    1    2    0    0  0.00000000000E+00 -0.71054273576E-14 -0.20167936641E+02  0.27682597753E+03  0.27609034059E+03 0.  0.
         25    2    3    3    0    0  0.93164111045E+00 -0.32279822565E+02 -0.45348800935E+02  0.14534660211E+03  0.13426193093E+03 0.  0.
         25    2    3    3    0    0 -0.93164111045E+00  0.32279822565E+02  0.25180864294E+02  0.13147937542E+03  0.12493956673E+03 0.  0.
          5    1    4    4  502    0 -0.16542634030E+02 -0.10892292176E+02 -0.90197888227E+02  0.92466479387E+02  0.47000000000E+01 0.  1.
         -5    1    4    4    0  502  0.17474275140E+02 -0.21387530389E+02  0.44849087292E+02  0.52880122718E+02  0.47000000000E+01 0.  1.
          5    1    5    5  503    0 -0.22905970855E+02 -0.25018321157E+02 -0.32439163107E+02  0.47169791153E+02  0.47000000000E+01 0.  1.
         -5    1    5    5    0  503  0.21974329745E+02  0.57298143722E+02  0.57620027401E+02  0.84309584268E+02  0.47000000000E+01 0.  1.
<mgrwt>
<rscale>  0 0.27609034E+03</rscale>
<asrwt>0</asrwt>
<pdfrwt beam="1">  1        1 0.22845686E-01 0.27609034E+03</pdfrwt>
<pdfrwt beam="2">  1       -1 0.19742926E-01 0.27609034E+03</pdfrwt>
<totfact> 0.43986655E+03</totfact>
</mgrwt>
</event>
<event>
 9    1  0.2114844E-002  0.2736603E+03  0.7818608E-02  0.1099203E+00
          1   -1    0    0  501    0  0.00000000000E+00  0.00000000000E+00  0.57594017027E+03  0.57594017027E+03  0.00000000000E+00 0.  1.
         -1   -1    0    0    0  501 -0.00000000000E+00 -0.00000000000E+00 -0.32507699480E+02  0.32507699480E+02  0.00000000000E+00 0.  1.
         36    2    1    2    0    0  0.00000000000E+00  0.00000000000E+00  0.54343247080E+03  0.60844786975E+03  0.27366030018E+03 0.  0.
         25    2    3    3    0    0 -0.45327720841E+02 -0.20766773054E+02  0.27410117872E+03  0.30654997451E+03  0.12788889536E+03 0.  0.
         25    2    3    3    0    0  0.45327720841E+02  0.20766773054E+02  0.26933129208E+03  0.30189789525E+03  0.12695327142E+03 0.  0.
          5    1    4    4  502    0  0.14761034613E+02 -0.24296132483E+02  0.22996257706E+03  0.23176079704E+03  0.47000000000E+01 0. -1.
         -5    1    4    4    0  502 -0.60088755454E+02  0.35293594288E+01  0.44138601660E+02  0.74789177469E+02  0.47000000000E+01 0. -1.
          5    1    5    5  503    0  0.92902445396E+01  0.72312516401E+02  0.13512585843E+03  0.15361151092E+03  0.47000000000E+01 0.  1.
         -5    1    5    5    0  503  0.36037476302E+02 -0.51545743347E+02  0.13420543365E+03  0.14828638432E+03  0.47000000000E+01 0.  1.
<mgrwt>
<rscale>  0 0.27366030E+03</rscale>
<asrwt>0</asrwt>
<pdfrwt beam="1">  1        1 0.88606173E-01 0.27366030E+03</pdfrwt>
<pdfrwt beam="2">  1       -1 0.50011850E-02 0.27366030E+03</pdfrwt>
<totfact> 0.65240303E+03</totfact>
</mgrwt>
</event>
<event>
 9    1  0.2114844E-002  0.2749806E+03  0.7818608E-02  0.1098462E+00
         -2   -1    0    0    0  501 -0.00000000000E+00  0.00000000000E+00  0.27981759872E+02  0.27981759872E+02  0.00000000000E+00 0. -1.
          2   -1    0    0  501    0  0.00000000000E+00 -0.00000000000E+00 -0.67556795677E+03  0.67556795677E+03  0.00000000000E+00 0. -1.
         36    2    1    2    0    0  0.00000000000E+00  0.00000000000E+00 -0.64758619690E+03  0.70354971664E+03  0.27498058363E+03 0.  0.
         25    2    3    3    0    0 -0.56314108559E+01 -0.52959998050E+02 -0.36095659540E+03  0.38597550774E+03  0.12590057437E+03 0.  0.
         25    2    3    3    0    0  0.56314108559E+01  0.52959998050E+02 -0.28662960150E+03  0.31757420891E+03  0.12593798286E+03 0.  0.
          5    1    4    4  502    0  0.16664899502E+02 -0.31383928105E+02 -0.15424658345E+02  0.39021531284E+02  0.47000000000E+01 0. -1.
         -5    1    4    4    0  502 -0.22296310358E+02 -0.21576069945E+02 -0.34553193706E+03  0.34695397645E+03  0.47000000000E+01 0. -1.
          5    1    5    5  503    0 -0.52411142558E+02  0.27631418135E+02 -0.20896450053E+03  0.21725256181E+03  0.47000000000E+01 0.  1.
         -5    1    5    5    0  503  0.58042553414E+02  0.25328579915E+02 -0.77665100969E+02  0.10032164709E+03  0.47000000000E+01 0.  1.
<mgrwt>
<rscale>  0 0.27498058E+03</rscale>
<asrwt>0</asrwt>
<pdfrwt beam="1">  1        2 0.10393353E+00 0.27498058E+03</pdfrwt>
<pdfrwt beam="2">  1       -2 0.43048863E-02 0.27498058E+03</pdfrwt>
<totfact> 0.10725407E+04</totfact>
</mgrwt>
</event>
<event>
 9    1  0.2114844E-002  0.2746776E+03  0.7818608E-02  0.1098632E+00
          2   -1    0    0  501    0  0.00000000000E+00  0.00000000000E+00  0.32815689546E+03  0.32815689546E+03  0.00000000000E+00 0.  1.
         -2   -1    0    0    0  501 -0.00000000000E+00 -0.00000000000E+00 -0.57478425431E+02  0.57478425431E+02  0.00000000000E+00 0.  1.
         36    2    1    2    0    0  0.35527136788E-14 -0.71054273576E-14  0.27067847003E+03  0.38563532089E+03  0.27467756840E+03 0.  0.
         25    2    3    3    0    0 -0.15612707718E+02  0.49389468159E+02  0.89041705337E+02  0.15929475836E+03  0.12150439722E+03 0.  0.
         25    2    3    3    0    0  0.15612707718E+02 -0.49389468159E+02  0.18163676469E+03  0.22634056253E+03  0.12471992524E+03 0.  0.
          5    1    4    4  502    0  0.24121408032E+01 -0.39888007057E+02  0.34699114327E+02  0.53131817824E+02  0.47000000000E+01 0.  1.
         -5    1    4    4    0  502 -0.18024848522E+02  0.89277475216E+02  0.54342591010E+02  0.10616294053E+03  0.47000000000E+01 0.  1.
          5    1    5    5  503    0  0.50347211325E+02 -0.63660496940E+02  0.16704796004E+03  0.18578108492E+03  0.47000000000E+01 0.  1.
         -5    1    5    5    0  503 -0.34734503607E+02  0.14271028781E+02  0.14588804648E+02  0.40559477614E+02  0.47000000000E+01 0.  1.
<mgrwt>
<rscale>  0 0.27467757E+03</rscale>
<asrwt>0</asrwt>
<pdfrwt beam="1">  1        2 0.50485675E-01 0.27467757E+03</pdfrwt>
<pdfrwt beam="2">  1       -2 0.88428349E-02 0.27467757E+03</pdfrwt>
<totfact> 0.79449952E+03</totfact>
</mgrwt>
</event>
<event>
 9    1  0.2114844E-002  0.2750508E+03  0.7818608E-02  0.1098423E+00
         -1   -1    0    0    0  501 -0.00000000000E+00  0.00000000000E+00  0.27646936302E+03  0.27646936302E+03  0.00000000000E+00 0. -1.
          1   -1    0    0  501    0  0.00000000000E+00 -0.00000000000E+00 -0.68409895013E+02  0.68409895013E+02  0.00000000000E+00 0. -1.
         36    2    1    2    0    0 -0.71054273576E-14  0.17763568394E-14  0.20805946800E+03  0.34487925803E+03  0.27505083238E+03 0.  0.
         25    2    3    3    0    0  0.38485749365E+02 -0.85160617713E+01  0.42587190676E+02  0.13785659177E+03  0.12504837013E+03 0.  0.
         25    2    3    3    0    0 -0.38485749365E+02  0.85160617713E+01  0.16547227733E+03  0.20702266626E+03  0.11799844732E+03 0.  0.
          5    1    4    4  502    0  0.32410768550E+02 -0.19773426865E+02  0.85051371703E+02  0.93259166608E+02  0.47000000000E+01 0. -1.
         -5    1    4    4    0  502  0.60749808151E+01  0.11257365094E+02 -0.42464181027E+02  0.44597425161E+02  0.47000000000E+01 0. -1.
          5    1    5    5  503    0  0.38212930635E+02 -0.11952729780E+02  0.31231704955E+02  0.50996129376E+02  0.47000000000E+01 0.  1.
         -5    1    5    5    0  503 -0.76698680000E+02  0.20468791551E+02  0.13424057237E+03  0.15602653688E+03  0.47000000000E+01 0.  1.
<mgrwt>
<rscale>  0 0.27505083E+03</rscale>
<asrwt>0</asrwt>
<pdfrwt beam="1">  1        1 0.10524599E-01 0.27505083E+03</pdfrwt>
<pdfrwt beam="2">  1       -1 0.42533748E-01 0.27505083E+03</pdfrwt>
<totfact> 0.32952767E+03</totfact>
</mgrwt>
</event>
<event>
 9    1  0.2114844E-002  0.2750199E+03  0.7818608E-02  0.1098440E+00
         -1   -1    0    0    0  501 -0.00000000000E+00  0.00000000000E+00  0.17892237669E+02  0.17892237669E+02  0.00000000000E+00 0.  1.
          1   -1    0    0  501    0  0.00000000000E+00 -0.00000000000E+00 -0.10568261780E+04  0.10568261780E+04  0.00000000000E+00 0.  1.
         36    2    1    2    0    0  0.17763568394E-14  0.53290705182E-14 -0.10389339403E+04  0.10747184156E+04  0.27501989129E+03 0.  0.
         25    2    3    3    0    0  0.12032470635E+02  0.13367133405E+02 -0.32740494792E+03  0.35253796093E+03  0.12948186504E+03 0.  0.
         25    2    3    3    0    0 -0.12032470635E+02 -0.13367133405E+02 -0.71152899238E+03  0.72218045470E+03  0.12226054780E+03 0.  0.
          5    1    4    4  502    0  0.61079044144E+02  0.10031971767E+02 -0.26892252223E+03  0.27599402721E+03  0.47000000000E+01 0. -1.
         -5    1    4    4    0  502 -0.49046573510E+02  0.33351616385E+01 -0.58482425685E+02  0.76543933726E+02  0.47000000000E+01 0. -1.
          5    1    5    5  503    0 -0.15143855439E+02  0.47554918595E+02 -0.48330945359E+03  0.48590217592E+03  0.47000000000E+01 0.  1.
         -5    1    5    5    0  503  0.31113848042E+01 -0.60922052000E+02 -0.22821953879E+03  0.23627827878E+03  0.47000000000E+01 0.  1.
<mgrwt>
<rscale>  0 0.27501989E+03</rscale>
<asrwt>0</asrwt>
<pdfrwt beam="1">  1        1 0.16258865E+00 0.27501989E+03</pdfrwt>
<pdfrwt beam="2">  1       -1 0.27526518E-02 0.27501989E+03</pdfrwt>
<totfact> 0.62122691E+03</totfact>
</mgrwt>
</event>
<event>
 9    1  0.2114844E-002  0.2704146E+03  0.7818608E-02  0.1101043E+00
         -2   -1    0    0    0  501 -0.00000000000E+00  0.00000000000E+00  0.10439676390E+02  0.10439676390E+02  0.00000000000E+00 0.  1.
          2   -1    0    0  501    0  0.00000000000E+00 -0.00000000000E+00 -0.17511092851E+04  0.17511092851E+04  0.00000000000E+00 0.  1.
         36    2    1    2    0    0 -0.53290705182E-14  0.71054273576E-14 -0.17406696088E+04  0.17615489615E+04  0.27041460212E+03 0.  0.
         25    2    3    3    0    0 -0.15094409905E+02  0.33201633341E+02 -0.94452343828E+03  0.95478806937E+03  0.13477960639E+03 0.  0.
         25    2    3    3    0    0  0.15094409905E+02 -0.33201633341E+02 -0.79614617048E+03  0.80676089216E+03  0.12523666669E+03 0.  0.
          5    1    4    4  502    0  0.52502122042E+02 -0.16295420387E+02 -0.33434690814E+03  0.33886864494E+03  0.47000000000E+01 0. -1.
         -5    1    4    4    0  502 -0.67596531947E+02  0.49497053728E+02 -0.61017653014E+03  0.61591942443E+03  0.47000000000E+01 0. -1.
          5    1    5    5  503    0  0.93324283664E+01  0.28719083323E+00 -0.74559954272E+03  0.74567281351E+03  0.47000000000E+01 0.  1.
         -5    1    5    5    0  503  0.57619815384E+01 -0.33488824174E+02 -0.50546627756E+02  0.61088078651E+02  0.47000000000E+01 0.  1.
<mgrwt>
<rscale>  0 0.27041460E+03</rscale>
<asrwt>0</asrwt>
<pdfrwt beam="1">  1        2 0.26940154E+00 0.27041460E+03</pdfrwt>
<pdfrwt beam="2">  1       -2 0.16061034E-02 0.27041460E+03</pdfrwt>
<totfact> 0.10713471E+04</totfact>
</mgrwt>
</event>
<event>
 8    1  0.2114844E-002  0.3003743E+03  0.7818608E-02  0.1085054E+00
          2   -1    0    0  501    0  0.00000000000E+00  0.00000000000E+00  0.18401656472E+03  0.18401656472E+03  0.00000000000E+00 0.  1.
         -2   -1    0    0    0  501 -0.00000000000E+00 -0.00000000000E+00 -0.12257691579E+03  0.12257691579E+03  0.00000000000E+00 0.  1.
         25    2    1    2    0    0 -0.23188339305E+02 -0.65607016560E+02 -0.64725608281E+01  0.14767728504E+03  0.13009499134E+03 0.  0.
         25    2    1    2    0    0  0.23188339305E+02  0.65607016560E+02  0.67912209757E+02  0.15891619546E+03  0.12569928100E+03 0.  0.
          5    1    3    3  502    0 -0.15918290002E+02  0.12971744387E+02  0.47496139584E+02  0.51957977101E+02  0.47000000000E+01 0. -1.
         -5    1    3    3    0  502 -0.72700493030E+01 -0.78578760947E+02 -0.53968700412E+02  0.95719307943E+02  0.47000000000E+01 0. -1.
          5    1    4    4  503    0  0.54272797258E+02  0.38752017613E+02  0.89942455541E+02  0.11206690279E+03  0.47000000000E+01 0.  1.
         -5    1    4    4    0  503 -0.31084457953E+02  0.26854998947E+02 -0.22030245785E+02  0.46849292673E+02  0.47000000000E+01 0.  1.
<mgrwt>
<rscale>  0 0.30037432E+03</rscale>
<asrwt>0</asrwt>
<pdfrwt beam="1">  1        2 0.28310241E-01 0.30037432E+03</pdfrwt>
<pdfrwt beam="2">  1       -2 0.18857987E-01 0.30037432E+03</pdfrwt>
<totfact> 0.43405338E+03</totfact>
</mgrwt>
</event>
<event>
 9    1  0.2114844E-002  0.2750917E+03  0.7818608E-02  0.1098400E+00
         -2   -1    0    0    0  501 -0.00000000000E+00  0.00000000000E+00  0.14170025791E+03  0.14170025791E+03  0.00000000000E+00 0. -1.
          2   -1    0    0  501    0  0.00000000000E+00 -0.00000000000E+00 -0.13351326523E+03  0.13351326523E+03  0.00000000000E+00 0. -1.
         36    2    1    2    0    0  0.14210854715E-13  0.71054273576E-14  0.81869926772E+01  0.27521352313E+03  0.27509172373E+03 0.  0.
         25    2    3    3    0    0  0.76902740907E+02  0.49693956715E+02  0.52834424837E+01  0.15501112382E+03  0.12496804732E+03 0.  0.
         25    2    3    3    0    0 -0.76902740907E+02 -0.49693956715E+02  0.29035501935E+01  0.12020239931E+03  0.77824580329E+02 0.  0.
          5    1    4    4  502    0 -0.13987280153E+02  0.38345070435E+02  0.39620701382E+02  0.57077827663E+02  0.47000000000E+01 0.  1.
         -5    1    4    4    0  502  0.90890021060E+02  0.11348886280E+02 -0.34337258898E+02  0.97933296160E+02  0.47000000000E+01 0.  1.
          5    1    5    5  503    0 -0.36520637734E+02 -0.49886840728E+02 -0.29069841730E+02  0.68480650964E+02  0.47000000000E+01 0. -1.
         -5    1    5    5    0  503 -0.40382103173E+02  0.19288401273E+00  0.31973391923E+02  0.51721748347E+02  0.47000000000E+01 0. -1.
<mgrwt>
<rscale>  0 0.27509172E+03</rscale>
<asrwt>0</asrwt>
<pdfrwt beam="1">  1        2 0.20540502E-01 0.27509172E+03</pdfrwt>
<pdfrwt beam="2">  1       -2 0.21800040E-01 0.27509172E+03</pdfrwt>
<totfact> 0.48405664E+03</totfact>
</mgrwt>
</event>
<event>
 9    1  0.2114844E-002  0.2752130E+03  0.7818608E-02  0.1098333E+00
          1   -1    0    0  501    0  0.00000000000E+00  0.00000000000E+00  0.90304985796E+02  0.90304985796E+02  0.00000000000E+00 0.  1.
         -1   -1    0    0    0  501 -0.00000000000E+00 -0.00000000000E+00 -0.20968447870E+03  0.20968447870E+03  0.00000000000E+00 0.  1.
         36    2    1    2    0    0  0.00000000000E+00 -0.35527136788E-14 -0.11937949290E+03  0.29998946450E+03  0.27521303654E+03 0.  0.
         25    2    3    3    0    0  0.24909997018E+02  0.17188923320E+02  0.42545405661E+00  0.12901170004E+03  0.12541080775E+03 0.  0.
         25    2    3    3    0    0 -0.24909997018E+02 -0.17188923320E+02 -0.11980494696E+03  0.17097776445E+03  0.11817023138E+03 0.  0.
          5    1    4    4  502    0  0.11010467271E+02 -0.24688806961E+02 -0.52927786067E+02  0.59617179710E+02  0.47000000000E+01 0.  1.
         -5    1    4    4    0  502  0.13899529747E+02  0.41877730280E+02  0.53353240124E+02  0.69394520334E+02  0.47000000000E+01 0.  1.
          5    1    5    5  503    0 -0.13287602143E+02 -0.48037037796E+02 -0.12734899986E+03  0.13683557701E+03  0.47000000000E+01 0. -1.
         -5    1    5    5    0  503 -0.11622394875E+02  0.30848114476E+02  0.75440528953E+01  0.34142187444E+02  0.47000000000E+01 0. -1.
<mgrwt>
<rscale>  0 0.27521304E+03</rscale>
<asrwt>0</asrwt>
<pdfrwt beam="1">  1        1 0.13893075E-01 0.27521304E+03</pdfrwt>
<pdfrwt beam="2">  1       -1 0.32259150E-01 0.27521304E+03</pdfrwt>
<totfact> 0.36999215E+03</totfact>
</mgrwt>
</event>
<event>
 9    1  0.2114844E-002  0.2755799E+03  0.7818608E-02  0.1098128E+00
          2   -1    0    0  501    0  0.00000000000E+00  0.00000000000E+00  0.16663010157E+04  0.16663010157E+04  0.00000000000E+00 0. -1.
         -2   -1    0    0    0  501 -0.00000000000E+00 -0.00000000000E+00 -0.11394141362E+02  0.11394141362E+02  0.00000000000E+00 0. -1.
         36    2    1    2    0    0  0.00000000000E+00  0.00000000000E+00  0.16549068743E+04  0.16776951570E+04  0.27557989276E+03 0.  0.
         25    2    3    3    0    0  0.19834720035E+01  0.18822175072E+02  0.47880427139E+03  0.49516159421E+03  0.12479289100E+03 0.  0.
         25    2    3    3    0    0 -0.19834720035E+01 -0.18822175072E+02  0.11761026029E+04  0.11825335628E+04  0.12169669746E+03 0.  0.
          5    1    4    4  502    0  0.58125147807E+02 -0.82915637280E+01  0.16522579932E+03  0.17541076819E+03  0.47000000000E+01 0.  1.
         -5    1    4    4    0  502 -0.56141675803E+02  0.27113738800E+02  0.31357847206E+03  0.31975082601E+03  0.47000000000E+01 0.  1.
          5    1    5    5  503    0 -0.18546217034E+02 -0.39739638444E+02  0.11128458890E+04  0.11137195624E+04  0.47000000000E+01 0.  1.
         -5    1    5    5    0  503  0.16562745031E+02  0.20917463372E+02  0.63256713909E+02  0.68814000403E+02  0.47000000000E+01 0.  1.
<mgrwt>
<rscale>  0 0.27557989E+03</rscale>
<asrwt>0</asrwt>
<pdfrwt beam="1">  1        2 0.25635381E+00 0.27557989E+03</pdfrwt>
<pdfrwt beam="2">  1       -2 0.17529461E-02 0.27557989E+03</pdfrwt>
<totfact> 0.10447834E+04</totfact>
</mgrwt>
</event>
<event>
 9    1  0.2114844E-002  0.2747348E+03  0.7818608E-02  0.1098600E+00
         -2   -1    0    0    0  501 -0.00000000000E+00  0.00000000000E+00  0.46313241885E+02  0.46313241885E+02  0.00000000000E+00 0. -1.
          2   -1    0    0  501    0  0.00000000000E+00 -0.00000000000E+00 -0.40743849682E+03  0.40743849682E+03  0.00000000000E+00 0. -1.
         36    2    1    2    0    0  0.71054273576E-14 -0.71054273576E-14 -0.36112525494E+03  0.45375173871E+03  0.27473476414E+03 0.  0.
         25    2    3    3    0    0  0.35338191412E+02 -0.41491341611E+02 -0.16598039837E+03  0.21453264433E+03  0.12451684079E+03 0.  0.
         25    2    3    3    0    0 -0.35338191412E+02  0.41491341611E+02 -0.19514485657E+03  0.23921909438E+03  0.12717680948E+03 0.  0.
          5    1    4    4  502    0  0.12720993607E+02 -0.57172189615E+02 -0.17546799364E+03  0.18504483169E+03  0.47000000000E+01 0.  1.
         -5    1    4    4    0  502  0.22617197805E+02  0.15680848003E+02  0.94875952637E+01  0.29487812644E+02  0.47000000000E+01 0.  1.
          5    1    5    5  503    0 -0.58507702974E+02 -0.27844018971E+02 -0.86323384033E+02  0.10803822162E+03  0.47000000000E+01 0. -1.
         -5    1    5    5    0  503  0.23169511562E+02  0.69335360583E+02 -0.10882147253E+03  0.13118087276E+03  0.47000000000E+01 0. -1.
<mgrwt>
<rscale>  0 0.27473476E+03</rscale>
<asrwt>0</asrwt>
<pdfrwt beam="1">  1        2 0.62682842E-01 0.27473476E+03</pdfrwt>
<pdfrwt beam="2">  1       -2 0.71251145E-02 0.27473476E+03</pdfrwt>
<totfact> 0.88088310E+03</totfact>
</mgrwt>
</event>
<event>
 9    1  0.2114844E-002  0.2753811E+03  0.7818608E-02  0.1098239E+00
         -2   -1    0    0    0  501 -0.00000000000E+00  0.00000000000E+00  0.26920322006E+03  0.26920322006E+03  0.00000000000E+00 0.  1.
          2   -1    0    0  501    0  0.00000000000E+00 -0.00000000000E+00 -0.70425185251E+02  0.70425185251E+02  0.00000000000E+00 0.  1.
         36    2    1    2    0    0 -0.71054273576E-14  0.00000000000E+00  0.19877803481E+03  0.33962840531E+03  0.27538109335E+03 0.  0.
         25    2    3    3    0    0 -0.25606447682E+02  0.35387301510E+02  0.54075045612E+02  0.14324014911E+03  0.12524247877E+03 0.  0.
         25    2    3    3    0    0  0.25606447682E+02 -0.35387301510E+02  0.14470298920E+03  0.19638825620E+03  0.12538516986E+03 0.  0.
          5    1    4    4  502    0 -0.23029966668E+02  0.81843446612E+02  0.27662059558E+02  0.89532165489E+02  0.47000000000E+01 0. -1.
         -5    1    4    4    0  502 -0.25764810134E+01 -0.46456145102E+02  0.26412986054E+02  0.53707983619E+02  0.47000000000E+01 0. -1.
          5    1    5    5  503    0 -0.32982203260E+01  0.29523860408E+02  0.11561858520E+03  0.11946666411E+03  0.47000000000E+01 0.  1.
         -5    1    5    5    0  503  0.28904668008E+02 -0.64911161919E+02  0.29084404001E+02  0.76921592095E+02  0.47000000000E+01 0.  1.
<mgrwt>
<rscale>  0 0.27538109E+03</rscale>
<asrwt>0</asrwt>
<pdfrwt beam="1">  1        2 0.10834644E-01 0.27538109E+03</pdfrwt>
<pdfrwt beam="2">  1       -2 0.41415879E-01 0.27538109E+03</pdfrwt>
<totfact> 0.32159132E+03</totfact>
</mgrwt>
</event>
<event>
 9    1  0.2114844E-002  0.2750196E+03  0.7818608E-02  0.1098441E+00
          2   -1    0    0  501    0  0.00000000000E+00  0.00000000000E+00  0.25054307669E+03  0.25054307669E+03  0.00000000000E+00 0.  1.
         -2   -1    0    0    0  501 -0.00000000000E+00 -0.00000000000E+00 -0.75471854219E+02  0.75471854219E+02  0.00000000000E+00 0.  1.
         36    2    1    2    0    0  0.00000000000E+00 -0.71054273576E-14  0.17507122248E+03  0.32601493091E+03  0.27501963973E+03 0.  0.
         25    2    3    3    0    0 -0.35709621507E+02  0.40019410201E+02  0.11880688488E+03  0.18038088992E+03  0.12468143123E+03 0.  0.
         25    2    3    3    0    0  0.35709621507E+02 -0.40019410201E+02  0.56264337593E+02  0.14563404099E+03  0.12315383855E+03 0.  0.
          5    1    4    4  502    0 -0.37003097794E+02 -0.12570916844E+02  0.12127965819E+03  0.12750726524E+03  0.47000000000E+01 0.  1.
         -5    1    4    4    0  502  0.12934762866E+01  0.52590327046E+02 -0.24727733104E+01  0.52873624687E+02  0.47000000000E+01 0.  1.
          5    1    5    5  503    0  0.10342949832E+02 -0.51213577737E+02 -0.26105941593E+02  0.58595369632E+02  0.47000000000E+01 0. -1.
         -5    1    5    5    0  503  0.25366671675E+02  0.11194167535E+02  0.82370279186E+02  0.87038671359E+02  0.47000000000E+01 0. -1.
<mgrwt>
<rscale>  0 0.27501964E+03</rscale>
<asrwt>0</asrwt>
<pdfrwt beam="1">  1        2 0.38545088E-01 0.27501964E+03</pdfrwt>
<pdfrwt beam="2">  1       -2 0.11611055E-01 0.27501964E+03</pdfrwt>
<totfact> 0.68871946E+03</totfact>
</mgrwt>
</event>
<event>
 9    1  0.2114844E-002  0.2705790E+03  0.7818608E-02  0.1100949E+00
          2   -1    0    0  501    0  0.00000000000E+00  0.00000000000E+00  0.11546252540E+04  0.11546252540E+04  0.00000000000E+00 0. -1.
         -2   -1    0    0    0  501 -0.00000000000E+00 -0.00000000000E+00 -0.15852109018E+02  0.15852109018E+02  0.00000000000E+00 0. -1.
         36    2    1    2    0    0 -0.17763568394E-14  0.00000000000E+00  0.11387731449E+04  0.11704773630E+04  0.27057897480E+03 0.  0.
         25    2    3    3    0    0 -0.49576799114E+01  0.98886038338E+01  0.80887026882E+03  0.81877398999E+03  0.12648071724E+03 0.  0.
         25    2    3    3    0    0  0.49576799114E+01 -0.98886038338E+01  0.32990287613E+03  0.35170337300E+03  0.12139601237E+03 0.  0.
          5    1    4    4  502    0 -0.43181681347E+02 -0.31793953594E+02  0.59743443464E+03  0.59985457136E+03  0.47000000000E+01 0. -1.
         -5    1    4    4    0  502  0.38224001436E+02  0.41682557427E+02  0.21143583418E+03  0.21891941863E+03  0.47000000000E+01 0. -1.
          5    1    5    5  503    0  0.14132409460E+02 -0.22328621602E+01  0.33679409120E+03  0.33713062830E+03  0.47000000000E+01 0. -1.
         -5    1    5    5    0  503 -0.91747295489E+01 -0.76557416737E+01 -0.68912150668E+01  0.14572744696E+02  0.47000000000E+01 0. -1.
<mgrwt>
<rscale>  0 0.27057897E+03</rscale>
<asrwt>0</asrwt>
<pdfrwt beam="1">  1        2 0.17763459E+00 0.27057897E+03</pdfrwt>
<pdfrwt beam="2">  1       -2 0.24387869E-02 0.27057897E+03</pdfrwt>
<totfact> 0.12208331E+04</totfact>
</mgrwt>
</event>
<event>
 9    1  0.2114844E-002  0.2773755E+03  0.7818608E-02  0.1097131E+00
          2   -1    0    0  501    0  0.00000000000E+00  0.00000000000E+00  0.78525060034E+02  0.78525060034E+02  0.00000000000E+00 0. -1.
         -2   -1    0    0    0  501 -0.00000000000E+00 -0.00000000000E+00 -0.24494461263E+03  0.24494461263E+03  0.00000000000E+00 0. -1.
         36    2    1    2    0    0  0.00000000000E+00  0.14210854715E-13 -0.16641955260E+03  0.32346967267E+03  0.27737548855E+03 0.  0.
         25    2    3    3    0    0  0.28053622176E+02  0.42455516165E+02 -0.14388845926E+03  0.18906290252E+03  0.11158591234E+03 0.  0.
         25    2    3    3    0    0 -0.28053622176E+02 -0.42455516165E+02 -0.22531093342E+02  0.13440677015E+03  0.12234399505E+03 0.  0.
          5    1    4    4  502    0  0.56316998896E+02  0.44509629452E+02 -0.42211665119E+02  0.83406391546E+02  0.47000000000E+01 0.  1.
         -5    1    4    4    0  502 -0.28263376720E+02 -0.20541132874E+01 -0.10167679414E+03  0.10565651097E+03  0.47000000000E+01 0.  1.
          5    1    5    5  503    0  0.89459848771E+01 -0.74652577987E+02 -0.35759812934E+02  0.83390000999E+02  0.47000000000E+01 0.  1.
         -5    1    5    5    0  503 -0.36999607054E+02  0.32197061822E+02  0.13228719593E+02  0.51016769147E+02  0.47000000000E+01 0.  1.
<mgrwt>
<rscale>  0 0.27737549E+03</rscale>
<asrwt>0</asrwt>
<pdfrwt beam="1">  1        2 0.12080778E-01 0.27737549E+03</pdfrwt>
<pdfrwt beam="2">  1       -2 0.37683787E-01 0.27737549E+03</pdfrwt>
<totfact> 0.33704341E+03</totfact>
</mgrwt>
</event>
<event>
 9    1  0.2114844E-002  0.2750658E+03  0.7818608E-02  0.1098415E+00
         -4   -1    0    0    0  501 -0.00000000000E+00  0.00000000000E+00  0.13753044371E+03  0.13753044371E+03  0.00000000000E+00 0. -1.
          4   -1    0    0  501    0  0.00000000000E+00 -0.00000000000E+00 -0.13753536780E+03  0.13753536780E+03  0.00000000000E+00 0. -1.
         36    2    1    2    0    0  0.00000000000E+00  0.00000000000E+00 -0.49240906162E-02  0.27506581151E+03  0.27506581147E+03 0.  0.
         25    2    3    3    0    0 -0.65704627653E+02  0.76845794652E+01  0.33983396555E+02  0.12859024967E+03  0.10490200290E+03 0.  0.
         25    2    3    3    0    0  0.65704627653E+02 -0.76845794652E+01 -0.33988320646E+02  0.14647556184E+03  0.12618927616E+03 0.  0.
          5    1    4    4  502    0 -0.53757651431E+02 -0.16171733744E+02 -0.26545690737E+02  0.62274984997E+02  0.47000000000E+01 0.  1.
         -5    1    4    4    0  502 -0.11946976222E+02  0.23856313209E+02  0.60529087293E+02  0.66315264677E+02  0.47000000000E+01 0.  1.
          5    1    5    5  503    0  0.37060161666E+02 -0.66103247178E+02 -0.28160928885E+02  0.80982854888E+02  0.47000000000E+01 0. -1.
         -5    1    5    5    0  503  0.28644465988E+02  0.58418667712E+02 -0.58273917610E+01  0.65492706951E+02  0.47000000000E+01 0. -1.
<mgrwt>
<rscale>  0 0.27506581E+03</rscale>
<asrwt>0</asrwt>
<pdfrwt beam="1">  1        4 0.21159287E-01 0.27506581E+03</pdfrwt>
<pdfrwt beam="2">  1       -4 0.21158530E-01 0.27506581E+03</pdfrwt>
<totfact> 0.77797830E+02</totfact>
</mgrwt>
</event>
<event>
 9    1  0.2114844E-002  0.2759760E+03  0.7818608E-02  0.1097907E+00
         -2   -1    0    0    0  501 -0.00000000000E+00  0.00000000000E+00  0.21657315157E+03  0.21657315157E+03  0.00000000000E+00 0. -1.
          2   -1    0    0  501    0  0.00000000000E+00 -0.00000000000E+00 -0.87918070381E+02  0.87918070381E+02  0.00000000000E+00 0. -1.
         36    2    1    2    0    0 -0.35527136788E-14  0.00000000000E+00  0.12865508119E+03  0.30449122195E+03  0.27597603941E+03 0.  0.
         25    2    3    3    0    0  0.17457915599E+02 -0.55352291599E+02  0.28340054757E+02  0.14110144435E+03  0.12545040411E+03 0.  0.
         25    2    3    3    0    0 -0.17457915599E+02  0.55352291599E+02  0.10031502643E+03  0.16338977761E+03  0.11517143698E+03 0.  0.
          5    1    4    4  502    0 -0.35268003613E+02 -0.38588499386E+02 -0.30085843820E+02  0.60499193070E+02  0.47000000000E+01 0. -1.
         -5    1    4    4    0  502  0.52725919212E+02 -0.16763792213E+02  0.58425898577E+02  0.80602251276E+02  0.47000000000E+01 0. -1.
          5    1    5    5  503    0 -0.88046133921E+00 -0.15295721034E+02  0.88229843773E+02  0.89673461104E+02  0.47000000000E+01 0.  1.
         -5    1    5    5    0  503 -0.16577454260E+02  0.70648012633E+02  0.12085182660E+02  0.73716316502E+02  0.47000000000E+01 0.  1.
<mgrwt>
<rscale>  0 0.27597604E+03</rscale>
<asrwt>0</asrwt>
<pdfrwt beam="1">  1        2 0.13525857E-01 0.27597604E+03</pdfrwt>
<pdfrwt beam="2">  1       -2 0.33318946E-01 0.27597604E+03</pdfrwt>
<totfact> 0.37001652E+03</totfact>
</mgrwt>
</event>
<event>
 9    1  0.2114844E-002  0.2751304E+03  0.7818608E-02  0.1098379E+00
         -2   -1    0    0    0  501 -0.00000000000E+00  0.00000000000E+00  0.19690891263E+03  0.19690891263E+03  0.00000000000E+00 0. -1.
          2   -1    0    0  501    0  0.00000000000E+00 -0.00000000000E+00 -0.96106264460E+02  0.96106264460E+02  0.00000000000E+00 0. -1.
         36    2    1    2    0    0  0.14210854715E-13 -0.35527136788E-14  0.10080264817E+03  0.29301517709E+03  0.27513036933E+03 0.  0.
         25    2    3    3    0    0  0.57014741799E+02 -0.88474072136E+01  0.52326655432E+02  0.14757661429E+03  0.12534680219E+03 0.  0.
         25    2    3    3    0    0 -0.57014741799E+02  0.88474072136E+01  0.48475992734E+02  0.14543856280E+03  0.12439250894E+03 0.  0.
          5    1    4    4  502    0  0.38287556882E+02 -0.33423335490E+02 -0.30216869751E+02  0.59314463538E+02  0.47000000000E+01 0.  1.
         -5    1    4    4    0  502  0.18727184916E+02  0.24575928277E+02  0.82543525183E+02  0.88262150751E+02  0.47000000000E+01 0.  1.
          5    1    5    5  503    0  0.36700817150E+02 -0.65963170826E+01 -0.22655752204E+01  0.37652147476E+02  0.47000000000E+01 0.  1.
         -5    1    5    5    0  503 -0.93715558948E+02  0.15443724296E+02  0.50741567955E+02  0.10778641532E+03  0.47000000000E+01 0.  1.
<mgrwt>
<rscale>  0 0.27513037E+03</rscale>
<asrwt>0</asrwt>
<pdfrwt beam="1">  1        2 0.14785579E-01 0.27513037E+03</pdfrwt>
<pdfrwt beam="2">  1       -2 0.30293679E-01 0.27513037E+03</pdfrwt>
<totfact> 0.39610506E+03</totfact>
</mgrwt>
</event>
<event>
 9    1  0.2114844E-002  0.2756569E+03  0.7818608E-02  0.1098085E+00
         -1   -1    0    0    0  501 -0.00000000000E+00  0.00000000000E+00  0.74373349963E+02  0.74373349963E+02  0.00000000000E+00 0. -1.
          1   -1    0    0  501    0  0.00000000000E+00 -0.00000000000E+00 -0.25542327840E+03  0.25542327840E+03  0.00000000000E+00 0. -1.
         36    2    1    2    0    0  0.00000000000E+00  0.00000000000E+00 -0.18104992844E+03  0.32979662836E+03  0.27565692354E+03 0.  0.
         25    2    3    3    0    0 -0.98470724638E+01 -0.52224294687E+02 -0.11579167347E+03  0.17906355741E+03  0.12582410005E+03 0.  0.
         25    2    3    3    0    0  0.98470724638E+01  0.52224294687E+02 -0.65258254963E+02  0.15073307096E+03  0.12504989823E+03 0.  0.
          5    1    4    4  502    0  0.46819929607E+02 -0.29455126679E+02 -0.10222819399E+03  0.11632886117E+03  0.47000000000E+01 0.  1.
         -5    1    4    4    0  502 -0.56667002071E+02 -0.22769168009E+02 -0.13563479486E+02  0.62734696232E+02  0.47000000000E+01 0.  1.
          5    1    5    5  503    0 -0.35153923217E+02 -0.15307006174E+02 -0.57234455333E+02  0.69050529562E+02  0.47000000000E+01 0. -1.
         -5    1    5    5    0  503  0.45000995681E+02  0.67531300862E+02 -0.80237996303E+01  0.81682541395E+02  0.47000000000E+01 0. -1.
<mgrwt>
<rscale>  0 0.27565692E+03</rscale>
<asrwt>0</asrwt>
<pdfrwt beam="1">  1        1 0.39295890E-01 0.27565692E+03</pdfrwt>
<pdfrwt beam="2">  1       -1 0.11442054E-01 0.27565692E+03</pdfrwt>
<totfact> 0.52705841E+03</totfact>
</mgrwt>
</event>
<event>
 9    1  0.2114844E-002  0.2747703E+03  0.7818608E-02  0.1098580E+00
         -2   -1    0    0    0  501 -0.00000000000E+00  0.00000000000E+00  0.26072799293E+02  0.26072799293E+02  0.00000000000E+00 0.  1.
          2   -1    0    0  501    0  0.00000000000E+00 -0.00000000000E+00 -0.72392205386E+03  0.72392205386E+03  0.00000000000E+00 0.  1.
         36    2    1    2    0    0  0.71054273576E-14  0.00000000000E+00 -0.69784925457E+03  0.74999485315E+03  0.27477026341E+03 0.  0.
         25    2    3    3    0    0 -0.55196730456E+02 -0.10025564999E+00 -0.35144965799E+03  0.37697735566E+03  0.12469312522E+03 0.  0.
         25    2    3    3    0    0  0.55196730456E+02  0.10025564999E+00 -0.34639959657E+03  0.37301749749E+03  0.12689635071E+03 0.  0.
          5    1    4    4  502    0 -0.82843709866E+02 -0.27907426103E+02 -0.16929486514E+03  0.19059051933E+03  0.47000000000E+01 0.  1.
         -5    1    4    4    0  502  0.27646979410E+02  0.27807170453E+02 -0.18215479285E+03  0.18638683633E+03  0.47000000000E+01 0.  1.
          5    1    5    5  503    0  0.16621731288E+02 -0.32830925043E+02 -0.30535862682E+03  0.30760385655E+03  0.47000000000E+01 0. -1.
         -5    1    5    5    0  503  0.38574999167E+02  0.32931180693E+02 -0.41040969750E+02  0.65413640936E+02  0.47000000000E+01 0. -1.
<mgrwt>
<rscale>  0 0.27477026E+03</rscale>
<asrwt>0</asrwt>
<pdfrwt beam="1">  1        2 0.11137260E+00 0.27477026E+03</pdfrwt>
<pdfrwt beam="2">  1       -2 0.40112007E-02 0.27477026E+03</pdfrwt>
<totfact> 0.10970097E+04</totfact>
</mgrwt>
</event>
<event>
 9    1  0.2114844E-002  0.2752707E+03  0.7818608E-02  0.1098300E+00
          2   -1    0    0  501    0  0.00000000000E+00  0.00000000000E+00  0.19067001669E+03  0.19067001669E+03  0.00000000000E+00 0.  1.
         -2   -1    0    0    0  501 -0.00000000000E+00 -0.00000000000E+00 -0.99352202803E+02  0.99352202803E+02  0.00000000000E+00 0.  1.
         36    2    1    2    0    0  0.71054273576E-14  0.71054273576E-14  0.91317813891E+02  0.29002221950E+03  0.27527067528E+03 0.  0.
         25    2    3    3    0    0  0.36286940937E+02 -0.75154708065E+01  0.11899030262E+02  0.13763884057E+03  0.13202135861E+03 0.  0.
         25    2    3    3    0    0 -0.36286940937E+02  0.75154708065E+01  0.79418783629E+02  0.15238337893E+03  0.12466004411E+03 0.  0.
          5    1    4    4  502    0 -0.62822955347E+01  0.19387922050E+02  0.62613848212E+02  0.66014716136E+02  0.47000000000E+01 0. -1.
         -5    1    4    4    0  502  0.42569236471E+02 -0.26903392857E+02 -0.50714817950E+02  0.71624124432E+02  0.47000000000E+01 0. -1.
          5    1    5    5  503    0 -0.37312717164E+02  0.61154083629E+02  0.25526978187E+02  0.76195652251E+02  0.47000000000E+01 0. -1.
         -5    1    5    5    0  503  0.10257762273E+01 -0.53638612823E+02  0.53891805442E+02  0.76187726677E+02  0.47000000000E+01 0. -1.
<mgrwt>
<rscale>  0 0.27527068E+03</rscale>
<asrwt>0</asrwt>
<pdfrwt beam="1">  1        2 0.29333849E-01 0.27527068E+03</pdfrwt>
<pdfrwt beam="2">  1       -2 0.15284954E-01 0.27527068E+03</pdfrwt>
<totfact> 0.59207338E+03</totfact>
</mgrwt>
</event>
<event>
 9    1  0.2114844E-002  0.2741044E+03  0.7818608E-02  0.1098953E+00
          2   -1    0    0  501    0  0.00000000000E+00  0.00000000000E+00  0.12203826816E+04  0.12203826816E+04  0.00000000000E+00 0. -1.
         -2   -1    0    0    0  501 -0.00000000000E+00 -0.00000000000E+00 -0.15391328367E+02  0.15391328367E+02  0.00000000000E+00 0. -1.
         36    2    1    2    0    0  0.00000000000E+00  0.00000000000E+00  0.12049913532E+04  0.12357740100E+04  0.27410443693E+03 0.  0.
         25    2    3    3    0    0  0.10992130744E+02 -0.54284619392E+02  0.62776122845E+03  0.64240223603E+03  0.12461471050E+03 0.  0.
         25    2    3    3    0    0 -0.10992130744E+02  0.54284619392E+02  0.57723012478E+03  0.59337177393E+03  0.12580857803E+03 0.  0.
          5    1    4    4  502    0  0.12643433291E+02 -0.30998766015E+02  0.61393804187E+03  0.61486810712E+03  0.47000000000E+01 0.  1.
         -5    1    4    4    0  502 -0.16513025465E+01 -0.23285853377E+02  0.13823186580E+02  0.27534128910E+02  0.47000000000E+01 0.  1.
          5    1    5    5  503    0 -0.32692233246E+02 -0.59661010600E+01  0.39552706491E+02  0.51873722319E+02  0.47000000000E+01 0.  1.
         -5    1    5    5    0  503  0.21700102502E+02  0.60250720452E+02  0.53767741829E+03  0.54149805161E+03  0.47000000000E+01 0.  1.
<mgrwt>
<rscale>  0 0.27410444E+03</rscale>
<asrwt>0</asrwt>
<pdfrwt beam="1">  1        2 0.18775111E+00 0.27410444E+03</pdfrwt>
<pdfrwt beam="2">  1       -2 0.23678976E-02 0.27410444E+03</pdfrwt>
<totfact> 0.11701824E+04</totfact>
</mgrwt>
</event>
<event>
 9    1  0.2114844E-002  0.2756840E+03  0.7818608E-02  0.1098070E+00
         -2   -1    0    0    0  501 -0.00000000000E+00  0.00000000000E+00  0.22111642323E+02  0.22111642323E+02  0.00000000000E+00 0. -1.
          2   -1    0    0  501    0  0.00000000000E+00 -0.00000000000E+00 -0.85929470142E+03  0.85929470142E+03  0.00000000000E+00 0. -1.
         36    2    1    2    0    0  0.00000000000E+00 -0.71054273576E-14 -0.83718305910E+03  0.88140634375E+03  0.27568400090E+03 0.  0.
         25    2    3    3    0    0  0.14026708853E+02 -0.53967891857E+02 -0.40110492776E+03  0.42426755959E+03  0.12652476885E+03 0.  0.
         25    2    3    3    0    0 -0.14026708853E+02  0.53967891857E+02 -0.43607813134E+03  0.45713878416E+03  0.12530941479E+03 0.  0.
          5    1    4    4  502    0 -0.37188372225E+02 -0.32355555290E+02 -0.33095840257E+03  0.33464221375E+03  0.47000000000E+01 0.  1.
         -5    1    4    4    0  502  0.51215081078E+02 -0.21612336567E+02 -0.70146525184E+02  0.89625345840E+02  0.47000000000E+01 0.  1.
          5    1    5    5  503    0 -0.57654828217E+02 -0.90867936119E+01 -0.22575616004E+03  0.23322646254E+03  0.47000000000E+01 0. -1.
         -5    1    5    5    0  503  0.43628119364E+02  0.63054685469E+02 -0.21032197130E+03  0.22391232162E+03  0.47000000000E+01 0. -1.
<mgrwt>
<rscale>  0 0.27568400E+03</rscale>
<asrwt>0</asrwt>
<pdfrwt beam="1">  1        2 0.13219918E+00 0.27568400E+03</pdfrwt>
<pdfrwt beam="2">  1       -2 0.34017912E-02 0.27568400E+03</pdfrwt>
<totfact> 0.11304454E+04</totfact>
</mgrwt>
</event>
<event>
 9    1  0.2114844E-002  0.2743269E+03  0.7818608E-02  0.1098828E+00
         -1   -1    0    0    0  501 -0.00000000000E+00  0.00000000000E+00  0.13602601887E+03  0.13602601887E+03  0.00000000000E+00 0. -1.
          1   -1    0    0  501    0  0.00000000000E+00 -0.00000000000E+00 -0.13831039955E+03  0.13831039955E+03  0.00000000000E+00 0. -1.
         36    2    1    2    0    0 -0.71054273576E-14 -0.71054273576E-14 -0.22843806755E+01  0.27433641842E+03  0.27432690731E+03 0.  0.
         25    2    3    3    0    0 -0.20452756637E+02  0.15885182701E+01 -0.47874926367E+02  0.14129754134E+03  0.13134743229E+03 0.  0.
         25    2    3    3    0    0  0.20452756637E+02 -0.15885182701E+01  0.45590545692E+02  0.13303887708E+03  0.12328830567E+03 0.  0.
          5    1    4    4  502    0  0.46851663095E+02  0.33414080482E+02 -0.14242879266E+02  0.59468720510E+02  0.47000000000E+01 0.  1.
         -5    1    4    4    0  502 -0.67304419732E+02 -0.31825562212E+02 -0.33632047101E+02  0.81828820826E+02  0.47000000000E+01 0.  1.
          5    1    5    5  503    0  0.16277407886E+02 -0.53999454747E+02  0.55571473087E+02  0.79316919642E+02  0.47000000000E+01 0. -1.
         -5    1    5    5    0  503  0.41753487514E+01  0.52410936477E+02 -0.99809273956E+01  0.53721957441E+02  0.47000000000E+01 0. -1.
<mgrwt>
<rscale>  0 0.27432691E+03</rscale>
<asrwt>0</asrwt>
<pdfrwt beam="1">  1        1 0.21278523E-01 0.27432691E+03</pdfrwt>
<pdfrwt beam="2">  1       -1 0.20927080E-01 0.27432691E+03</pdfrwt>
<totfact> 0.43811633E+03</totfact>
</mgrwt>
</event>
<event>
 9    1  0.2114844E-002  0.2735553E+03  0.7818608E-02  0.1099262E+00
          2   -1    0    0  501    0  0.00000000000E+00  0.00000000000E+00  0.10624814021E+04  0.10624814021E+04  0.00000000000E+00 0. -1.
         -2   -1    0    0    0  501 -0.00000000000E+00 -0.00000000000E+00 -0.17607958412E+02  0.17607958412E+02  0.00000000000E+00 0. -1.
         36    2    1    2    0    0 -0.71054273576E-14  0.71054273576E-14  0.10448734437E+04  0.10800893605E+04  0.27355532049E+03 0.  0.
         25    2    3    3    0    0 -0.21478900459E+02 -0.36773834801E+02  0.38308900038E+03  0.40527588039E+03  0.12521061827E+03 0.  0.
         25    2    3    3    0    0  0.21478900459E+02  0.36773834801E+02  0.66178444329E+03  0.67481348010E+03  0.12490366468E+03 0.  0.
          5    1    4    4  502    0  0.46757114993E+02  0.38091094927E+01  0.90169451974E+02  0.10175144808E+03  0.47000000000E+01 0.  1.
         -5    1    4    4    0  502 -0.68236015452E+02 -0.40582944294E+02  0.29291954840E+03  0.30352443231E+03  0.47000000000E+01 0.  1.
          5    1    5    5  503    0  0.62768242545E+02  0.55485297187E+02  0.48752611104E+03  0.49469411703E+03  0.47000000000E+01 0. -1.
         -5    1    5    5    0  503 -0.41289342086E+02 -0.18711462386E+02  0.17425833225E+03  0.18011936307E+03  0.47000000000E+01 0. -1.
<mgrwt>
<rscale>  0 0.27355532E+03</rscale>
<asrwt>0</asrwt>
<pdfrwt beam="1">  1        2 0.16345863E+00 0.27355532E+03</pdfrwt>
<pdfrwt beam="2">  1       -2 0.27089175E-02 0.27355532E+03</pdfrwt>
<totfact> 0.11835807E+04</totfact>
</mgrwt>
</event>
<event>
 9    1  0.2114844E-002  0.2711740E+03  0.7818608E-02  0.1100610E+00
         -2   -1    0    0    0  501 -0.00000000000E+00  0.00000000000E+00  0.90807086505E+01  0.90807086505E+01  0.00000000000E+00 0. -1.
          2   -1    0    0  501    0  0.00000000000E+00 -0.00000000000E+00 -0.20244935738E+04  0.20244935738E+04  0.00000000000E+00 0. -1.
         36    2    1    2    0    0  0.00000000000E+00  0.00000000000E+00 -0.20154128652E+04  0.20335742825E+04  0.27117401283E+03 0.  0.
         25    2    3    3    0    0 -0.43706054833E+02 -0.27900464494E+02 -0.83195036883E+03  0.84241732172E+03  0.12180670176E+03 0.  0.
         25    2    3    3    0    0  0.43706054833E+02  0.27900464494E+02 -0.11834624963E+04  0.11911569607E+04  0.12483096470E+03 0.  0.
          5    1    4    4  502    0 -0.50261227593E+02 -0.43962375041E+02 -0.81489467421E+03  0.81763946912E+03  0.47000000000E+01 0. -1.
         -5    1    4    4    0  502  0.65551727599E+01  0.16061910547E+02 -0.17055694624E+02  0.24777852599E+02  0.47000000000E+01 0. -1.
          5    1    5    5  503    0  0.55787309688E+02  0.40232680380E+02 -0.31265999198E+03  0.32017066242E+03  0.47000000000E+01 0. -1.
         -5    1    5    5    0  503 -0.12081254854E+02 -0.12332215885E+02 -0.87080250436E+03  0.87098629832E+03  0.47000000000E+01 0. -1.
<mgrwt>
<rscale>  0 0.27117401E+03</rscale>
<asrwt>0</asrwt>
<pdfrwt beam="1">  1        2 0.31146083E+00 0.27117401E+03</pdfrwt>
<pdfrwt beam="2">  1       -2 0.13970308E-02 0.27117401E+03</pdfrwt>
<totfact> 0.94402681E+03</totfact>
</mgrwt>
</event>
<event>
 9    1  0.2114844E-002  0.2752995E+03  0.7818608E-02  0.1098284E+00
          1   -1    0    0  501    0  0.00000000000E+00  0.00000000000E+00  0.87778596557E+03  0.87778596557E+03  0.00000000000E+00 0. -1.
         -1   -1    0    0    0  501 -0.00000000000E+00 -0.00000000000E+00 -0.21585509798E+02  0.21585509798E+02  0.00000000000E+00 0. -1.
         36    2    1    2    0    0  0.71054273576E-14  0.71054273576E-14  0.85620045578E+03  0.89937147537E+03  0.27529952822E+03 0.  0.
         25    2    3    3    0    0  0.32690296001E+02  0.58768582329E+02  0.43449144956E+03  0.45545876044E+03  0.11890105547E+03 0.  0.
         25    2    3    3    0    0 -0.32690296001E+02 -0.58768582329E+02  0.42170900621E+03  0.44391271493E+03  0.12123370339E+03 0.  0.
          5    1    4    4  502    0  0.72498020248E+02  0.48947248739E+02  0.35780502772E+03  0.36837253421E+03  0.47000000000E+01 0. -1.
         -5    1    4    4    0  502 -0.39807724246E+02  0.98213335905E+01  0.76686421848E+02  0.87086226230E+02  0.47000000000E+01 0. -1.
          5    1    5    5  503    0 -0.28269847546E+02 -0.80261130082E+02  0.40968260231E+03  0.41845305342E+03  0.47000000000E+01 0.  1.
         -5    1    5    5    0  503 -0.44204484555E+01  0.21492547753E+02  0.12026403900E+02  0.25459661511E+02  0.47000000000E+01 0.  1.
<mgrwt>
<rscale>  0 0.27529953E+03</rscale>
<asrwt>0</asrwt>
<pdfrwt beam="1">  1        1 0.13504397E+00 0.27529953E+03</pdfrwt>
<pdfrwt beam="2">  1       -1 0.33208483E-02 0.27529953E+03</pdfrwt>
<totfact> 0.64449925E+03</totfact>
</mgrwt>
</event>
<event>
 9    1  0.2114844E-002  0.2743726E+03  0.7818608E-02  0.1098803E+00
          2   -1    0    0  501    0  0.00000000000E+00  0.00000000000E+00  0.57978800551E+02  0.57978800551E+02  0.00000000000E+00 0.  1.
         -2   -1    0    0    0  501 -0.00000000000E+00 -0.00000000000E+00 -0.32460269109E+03  0.32460269109E+03  0.00000000000E+00 0.  1.
         36    2    1    2    0    0  0.00000000000E+00  0.00000000000E+00 -0.26662389054E+03  0.38258149164E+03  0.27437255464E+03 0.  0.
         25    2    3    3    0    0 -0.47043203680E+02  0.28541117904E+02 -0.13109661851E+03  0.19019850334E+03  0.12633878607E+03 0.  0.
         25    2    3    3    0    0  0.47043203680E+02 -0.28541117904E+02 -0.13552727203E+03  0.19238298830E+03  0.12496365192E+03 0.  0.
          5    1    4    4  502    0  0.17720642349E+02 -0.34284249545E+02 -0.73212297744E+02  0.82894882069E+02  0.47000000000E+01 0. -1.
         -5    1    4    4    0  502 -0.64763846029E+02  0.62825367450E+02 -0.57884320763E+02  0.10730362127E+03  0.47000000000E+01 0. -1.
          5    1    5    5  503    0  0.68005844968E+02  0.29778893031E+02 -0.73338067770E+02  0.10446118707E+03  0.47000000000E+01 0. -1.
         -5    1    5    5    0  503 -0.20962641289E+02 -0.58320010935E+02 -0.62189204264E+02  0.87921801234E+02  0.47000000000E+01 0. -1.
<mgrwt>
<rscale>  0 0.27437255E+03</rscale>
<asrwt>0</asrwt>
<pdfrwt beam="1">  1        2 0.89198155E-02 0.27437255E+03</pdfrwt>
<pdfrwt beam="2">  1       -2 0.49938875E-01 0.27437255E+03</pdfrwt>
<totfact> 0.28395123E+03</totfact>
</mgrwt>
</event>
<event>
 9    1  0.2114844E-002  0.2744161E+03  0.7818608E-02  0.1098778E+00
          1   -1    0    0  501    0  0.00000000000E+00  0.00000000000E+00  0.89987686901E+03  0.89987686901E+03  0.00000000000E+00 0.  1.
         -1   -1    0    0    0  501 -0.00000000000E+00 -0.00000000000E+00 -0.20920698495E+02  0.20920698495E+02  0.00000000000E+00 0.  1.
         36    2    1    2    0    0 -0.71054273576E-14 -0.14210854715E-13  0.87895617052E+03  0.92079756751E+03  0.27441612678E+03 0.  0.
         25    2    3    3    0    0  0.13703048488E+02  0.34733437933E+02  0.58081806819E+03  0.59501887106E+03  0.12370789520E+03 0.  0.
         25    2    3    3    0    0 -0.13703048488E+02 -0.34733437933E+02  0.29813810233E+03  0.32577869645E+03  0.12590173053E+03 0.  0.
          5    1    4    4  502    0  0.19375218851E+02  0.69809358363E+02  0.51484552144E+03  0.51993917583E+03  0.47000000000E+01 0.  1.
         -5    1    4    4    0  502 -0.56721703634E+01 -0.35075920430E+02  0.65972546754E+02  0.75079695230E+02  0.47000000000E+01 0.  1.
          5    1    5    5  503    0  0.30898397005E+02  0.30093769881E+02  0.54239197653E+02  0.69457371711E+02  0.47000000000E+01 0. -1.
         -5    1    5    5    0  503 -0.44601445493E+02 -0.64827207813E+02  0.24389890467E+03  0.25632132474E+03  0.47000000000E+01 0. -1.
<mgrwt>
<rscale>  0 0.27441613E+03</rscale>
<asrwt>0</asrwt>
<pdfrwt beam="1">  1        1 0.13844256E+00 0.27441613E+03</pdfrwt>
<pdfrwt beam="2">  1       -1 0.32185697E-02 0.27441613E+03</pdfrwt>
<totfact> 0.64836187E+03</totfact>
</mgrwt>
</event>
<event>
 9    1  0.2114844E-002  0.2752474E+03  0.7818608E-02  0.1098313E+00
         -2   -1    0    0    0  501 -0.00000000000E+00  0.00000000000E+00  0.34952863101E+02  0.34952863101E+02  0.00000000000E+00 0. -1.
          2   -1    0    0  501    0  0.00000000000E+00 -0.00000000000E+00 -0.54188065580E+03  0.54188065580E+03  0.00000000000E+00 0. -1.
         36    2    1    2    0    0 -0.35527136788E-14  0.71054273576E-14 -0.50692779270E+03  0.57683351890E+03  0.27524738240E+03 0.  0.
         25    2    3    3    0    0  0.11914127330E+02  0.42411687175E+02 -0.34050350772E+03  0.36573168442E+03  0.12600130390E+03 0.  0.
         25    2    3    3    0    0 -0.11914127330E+02 -0.42411687175E+02 -0.16642428498E+03  0.21110183448E+03  0.12217300950E+03 0.  0.
          5    1    4    4  502    0 -0.25461377205E+02 -0.37222208311E+02 -0.12022095045E+03  0.12848712561E+03  0.47000000000E+01 0.  1.
         -5    1    4    4    0  502  0.37375504535E+02  0.79633895486E+02 -0.22028255727E+03  0.23724455881E+03  0.47000000000E+01 0.  1.
          5    1    5    5  503    0  0.43345480244E+02  0.13843835996E+02 -0.91148110299E+02  0.10198308911E+03  0.47000000000E+01 0. -1.
         -5    1    5    5    0  503 -0.55259607574E+02 -0.56255523171E+02 -0.75276174681E+02  0.10911874537E+03  0.47000000000E+01 0. -1.
<mgrwt>
<rscale>  0 0.27524738E+03</rscale>
<asrwt>0</asrwt>
<pdfrwt beam="1">  1        2 0.83366248E-01 0.27524738E+03</pdfrwt>
<pdfrwt beam="2">  1       -2 0.53773640E-02 0.27524738E+03</pdfrwt>
<totfact> 0.98961276E+03</totfact>
</mgrwt>
</event>
<event>
 9    1  0.2114844E-002  0.2749662E+03  0.7818608E-02  0.1098470E+00
          1   -1    0    0  501    0  0.00000000000E+00  0.00000000000E+00  0.40464578539E+03  0.40464578539E+03  0.00000000000E+00 0. -1.
         -1   -1    0    0    0  501 -0.00000000000E+00 -0.00000000000E+00 -0.46711484748E+02  0.46711484748E+02  0.00000000000E+00 0. -1.
         36    2    1    2    0    0  0.00000000000E+00  0.00000000000E+00  0.35793430064E+03  0.45135727014E+03  0.27496621925E+03 0.  0.
         25    2    3    3    0    0 -0.32676315858E+02  0.33160432911E+02  0.11275302288E+03  0.17216926816E+03  0.12149755883E+03 0.  0.
         25    2    3    3    0    0  0.32676315858E+02 -0.33160432911E+02  0.24518127777E+03  0.27918800198E+03  0.12515880135E+03 0.  0.
          5    1    4    4  502    0 -0.30635551803E+02  0.19985780733E+02  0.13821280187E+03  0.14304837317E+03  0.47000000000E+01 0.  1.
         -5    1    4    4    0  502 -0.20407640559E+01  0.13174652178E+02 -0.25459778998E+02  0.29120894982E+02  0.47000000000E+01 0.  1.
          5    1    5    5  503    0  0.21732049956E+02 -0.46255363008E+01 -0.80355801421E+01  0.24090208168E+02  0.47000000000E+01 0.  1.
         -5    1    5    5    0  503  0.10944265902E+02 -0.28534896610E+02  0.25321685791E+03  0.25509779382E+03  0.47000000000E+01 0.  1.
<mgrwt>
<rscale>  0 0.27496622E+03</rscale>
<asrwt>0</asrwt>
<pdfrwt beam="1">  1        1 0.62253195E-01 0.27496622E+03</pdfrwt>
<pdfrwt beam="2">  1       -1 0.71863825E-02 0.27496622E+03</pdfrwt>
<totfact> 0.60235782E+03</totfact>
</mgrwt>
</event>
<event>
 9    1  0.2114844E-002  0.2744625E+03  0.7818608E-02  0.1098752E+00
         -2   -1    0    0    0  501 -0.00000000000E+00  0.00000000000E+00  0.10424865088E+02  0.10424865088E+02  0.00000000000E+00 0.  1.
          2   -1    0    0  501    0  0.00000000000E+00 -0.00000000000E+00 -0.18064900582E+04  0.18064900582E+04  0.00000000000E+00 0.  1.
         36    2    1    2    0    0  0.00000000000E+00  0.00000000000E+00 -0.17960651931E+04  0.18169149233E+04  0.27446249390E+03 0.  0.
         25    2    3    3    0    0 -0.48325937657E+01 -0.41353743893E+00 -0.13097040646E+04  0.13156548955E+04  0.12489812716E+03 0.  0.
         25    2    3    3    0    0  0.48325937657E+01  0.41353743893E+00 -0.48636112848E+03  0.50126002778E+03  0.12120620110E+03 0.  0.
          5    1    4    4  502    0  0.46869905370E+02 -0.35130189879E+02 -0.47569257475E+03  0.47930828696E+03  0.47000000000E+01 0.  1.
         -5    1    4    4    0  502 -0.51702499136E+02  0.34716652440E+02 -0.83401148988E+03  0.83634660855E+03  0.47000000000E+01 0.  1.
          5    1    5    5  503    0 -0.36631083196E+02 -0.34539910532E+02 -0.36190362761E+03  0.36541916665E+03  0.47000000000E+01 0. -1.
         -5    1    5    5    0  503  0.41463676962E+02  0.34953447971E+02 -0.12445750086E+03  0.13584086113E+03  0.47000000000E+01 0. -1.
<mgrwt>
<rscale>  0 0.27446249E+03</rscale>
<asrwt>0</asrwt>
<pdfrwt beam="1">  1        2 0.27792137E+00 0.27446249E+03</pdfrwt>
<pdfrwt beam="2">  1       -2 0.16038264E-02 0.27446249E+03</pdfrwt>
<totfact> 0.10042781E+04</totfact>
</mgrwt>
</event>
<event>
 9    1  0.2114844E-002  0.2760551E+03  0.7818608E-02  0.1097863E+00
          2   -1    0    0  501    0  0.00000000000E+00  0.00000000000E+00  0.15670697087E+04  0.15670697087E+04  0.00000000000E+00 0. -1.
         -2   -1    0    0    0  501 -0.00000000000E+00 -0.00000000000E+00 -0.12157467950E+02  0.12157467950E+02  0.00000000000E+00 0. -1.
         36    2    1    2    0    0 -0.71054273576E-14 -0.71054273576E-14  0.15549122408E+04  0.15792271767E+04  0.27605506523E+03 0.  0.
         25    2    3    3    0    0 -0.46345484934E+02 -0.43943238918E+02  0.77251784046E+03  0.78493279699E+03  0.12351829718E+03 0.  0.
         25    2    3    3    0    0  0.46345484934E+02  0.43943238918E+02  0.78239440031E+03  0.79429437968E+03  0.12117611868E+03 0.  0.
          5    1    4    4  502    0 -0.73203287418E+02 -0.61483588833E+02  0.41252768041E+03  0.42348569053E+03  0.47000000000E+01 0.  1.
         -5    1    4    4    0  502  0.26857802484E+02  0.17540349915E+02  0.35999016005E+03  0.36144710645E+03  0.47000000000E+01 0.  1.
          5    1    5    5  503    0 -0.36842736535E+01 -0.37311223575E+02  0.31327833072E+03  0.31554889285E+03  0.47000000000E+01 0. -1.
         -5    1    5    5    0  503  0.50029758587E+02  0.81254462493E+02  0.46911606958E+03  0.47874548683E+03  0.47000000000E+01 0. -1.
<mgrwt>
<rscale>  0 0.27605507E+03</rscale>
<asrwt>0</asrwt>
<pdfrwt beam="1">  1        2 0.24108749E+00 0.27605507E+03</pdfrwt>
<pdfrwt beam="2">  1       -2 0.18703809E-02 0.27605507E+03</pdfrwt>
<totfact> 0.10720849E+04</totfact>
</mgrwt>
</event>
<event>
 9    1  0.2114844E-002  0.2756407E+03  0.7818608E-02  0.1098094E+00
          2   -1    0    0  501    0  0.00000000000E+00  0.00000000000E+00  0.94946283147E+03  0.94946283147E+03  0.00000000000E+00 0.  1.
         -2   -1    0    0    0  501 -0.00000000000E+00 -0.00000000000E+00 -0.20005474981E+02  0.20005474981E+02  0.00000000000E+00 0.  1.
         36    2    1    2    0    0  0.17763568394E-14  0.00000000000E+00  0.92945735649E+03  0.96946830645E+03  0.27564074387E+03 0.  0.
         25    2    3    3    0    0 -0.40517055439E+00  0.31096170283E+02  0.31801674257E+03  0.34431160065E+03  0.12825246126E+03 0.  0.
         25    2    3    3    0    0  0.40517055439E+00 -0.31096170283E+02  0.61144061392E+03  0.62515670579E+03  0.12646796624E+03 0.  0.
          5    1    4    4  502    0  0.70479180901E+01 -0.30483374869E+02  0.25056358778E+03  0.25255318413E+03  0.47000000000E+01 0. -1.
         -5    1    4    4    0  502 -0.74530886445E+01  0.61579545153E+02  0.67453154788E+02  0.91758416521E+02  0.47000000000E+01 0. -1.
          5    1    5    5  503    0 -0.41042407959E+02  0.22255080259E+02  0.40912916714E+03  0.41181128355E+03  0.47000000000E+01 0.  1.
         -5    1    5    5    0  503  0.41447578513E+02 -0.53351250543E+02  0.20231144677E+03  0.21334542225E+03  0.47000000000E+01 0.  1.
<mgrwt>
<rscale>  0 0.27564074E+03</rscale>
<asrwt>0</asrwt>
<pdfrwt beam="1">  1        2 0.14607117E+00 0.27564074E+03</pdfrwt>
<pdfrwt beam="2">  1       -2 0.30777661E-02 0.27564074E+03</pdfrwt>
<totfact> 0.11481047E+04</totfact>
</mgrwt>
</event>
<event>
 9    1  0.2114844E-002  0.2752478E+03  0.7818608E-02  0.1098313E+00
          1   -1    0    0  501    0  0.00000000000E+00  0.00000000000E+00  0.11061850812E+03  0.11061850812E+03  0.00000000000E+00 0. -1.
         -1   -1    0    0    0  501 -0.00000000000E+00 -0.00000000000E+00 -0.17122216704E+03  0.17122216704E+03  0.00000000000E+00 0. -1.
         36    2    1    2    0    0  0.00000000000E+00 -0.14210854715E-13 -0.60603658915E+02  0.28184067516E+03  0.27524782052E+03 0.  0.
         25    2    3    3    0    0 -0.48619685378E+02 -0.37647454327E+02 -0.34136267010E+02  0.14401631376E+03  0.12567501454E+03 0.  0.
         25    2    3    3    0    0  0.48619685378E+02  0.37647454327E+02 -0.26467391905E+02  0.13782436140E+03  0.12047334617E+03 0.  0.
          5    1    4    4  502    0  0.32842327415E+02  0.21141584847E+02 -0.99256869737E+01  0.40573320566E+02  0.47000000000E+01 0.  1.
         -5    1    4    4    0  502 -0.81462012793E+02 -0.58789039174E+02 -0.24210580037E+02  0.10344299319E+03  0.47000000000E+01 0.  1.
          5    1    5    5  503    0  0.53771558776E+01 -0.37494781305E+02  0.15737792000E+02  0.41286081523E+02  0.47000000000E+01 0. -1.
         -5    1    5    5    0  503  0.43242529501E+02  0.75142235632E+02 -0.42205183905E+02  0.96538279878E+02  0.47000000000E+01 0. -1.
<mgrwt>
<rscale>  0 0.27524782E+03</rscale>
<asrwt>0</asrwt>
<pdfrwt beam="1">  1        1 0.17018232E-01 0.27524782E+03</pdfrwt>
<pdfrwt beam="2">  1       -1 0.26341872E-01 0.27524782E+03</pdfrwt>
<totfact> 0.39988227E+03</totfact>
</mgrwt>
</event>
<event>
 9    1  0.2114844E-002  0.2741520E+03  0.7818608E-02  0.1098927E+00
         -1   -1    0    0    0  501 -0.00000000000E+00  0.00000000000E+00  0.19910950152E+03  0.19910950152E+03  0.00000000000E+00 0. -1.
          1   -1    0    0  501    0  0.00000000000E+00 -0.00000000000E+00 -0.94369340894E+02  0.94369340894E+02  0.00000000000E+00 0. -1.
         36    2    1    2    0    0 -0.71054273576E-14  0.71054273576E-14  0.10474016062E+03  0.29347884241E+03  0.27415201932E+03 0.  0.
         25    2    3    3    0    0  0.41776173421E+02 -0.34980253690E+02  0.61328968556E+02  0.14652945174E+03  0.12141157700E+03 0.  0.
         25    2    3    3    0    0 -0.41776173421E+02  0.34980253690E+02  0.43411192068E+02  0.14694939067E+03  0.12938595367E+03 0.  0.
          5    1    4    4  502    0  0.14851688734E+02 -0.70047764182E+02  0.71089288709E+02  0.10101009303E+03  0.47000000000E+01 0.  1.
         -5    1    4    4    0  502  0.26924484687E+02  0.35067510492E+02 -0.97603201537E+01  0.45519358709E+02  0.47000000000E+01 0.  1.
          5    1    5    5  503    0 -0.34262566922E+02  0.27952676580E+02  0.89261534172E+02  0.99724556167E+02  0.47000000000E+01 0. -1.
         -5    1    5    5    0  503 -0.75136064994E+01  0.70275771100E+01 -0.45850342104E+02  0.47224834502E+02  0.47000000000E+01 0. -1.
<mgrwt>
<rscale>  0 0.27415202E+03</rscale>
<asrwt>0</asrwt>
<pdfrwt beam="1">  1        1 0.14518360E-01 0.27415202E+03</pdfrwt>
<pdfrwt beam="2">  1       -1 0.30632231E-01 0.27415202E+03</pdfrwt>
<totfact> 0.38145390E+03</totfact>
</mgrwt>
</event>
<event>
 9    1  0.2114844E-002  0.2750444E+03  0.7818608E-02  0.1098427E+00
          2   -1    0    0  501    0  0.00000000000E+00  0.00000000000E+00  0.13001513986E+04  0.13001513986E+04  0.00000000000E+00 0.  1.
         -2   -1    0    0    0  501 -0.00000000000E+00 -0.00000000000E+00 -0.14546276110E+02  0.14546276110E+02  0.00000000000E+00 0.  1.
         36    2    1    2    0    0  0.00000000000E+00 -0.71054273576E-14  0.12856051225E+04  0.13146976747E+04  0.27504444172E+03 0.  0.
         25    2    3    3    0    0  0.85169288678E+01  0.51923122428E+02  0.63130969646E+03  0.64622100513E+03  0.12759743692E+03 0.  0.
         25    2    3    3    0    0 -0.85169288678E+01 -0.51923122428E+02  0.65429542607E+03  0.66847666962E+03  0.12645158967E+03 0.  0.
          5    1    4    4  502    0 -0.12163406877E+02 -0.22797590248E+02  0.42441707722E+03  0.42522890780E+03  0.47000000000E+01 0. -1.
         -5    1    4    4    0  502  0.20680335745E+02  0.74720712676E+02  0.20689261923E+03  0.22099209733E+03  0.47000000000E+01 0. -1.
          5    1    5    5  503    0  0.23498296944E+02 -0.30235648867E+01  0.19674608548E+02  0.31152722601E+02  0.47000000000E+01 0. -1.
         -5    1    5    5    0  503 -0.32015225812E+02 -0.48899557541E+02  0.63462081752E+03  0.63732394702E+03  0.47000000000E+01 0. -1.
<mgrwt>
<rscale>  0 0.27504444E+03</rscale>
<asrwt>0</asrwt>
<pdfrwt beam="1">  1        2 0.20002320E+00 0.27504444E+03</pdfrwt>
<pdfrwt beam="2">  1       -2 0.22378897E-02 0.27504444E+03</pdfrwt>
<totfact> 0.11478937E+04</totfact>
</mgrwt>
</event>
<event>
 9    1  0.2114844E-002  0.2746056E+03  0.7818608E-02  0.1098672E+00
         -2   -1    0    0    0  501 -0.00000000000E+00  0.00000000000E+00  0.12294719125E+02  0.12294719125E+02  0.00000000000E+00 0.  1.
          2   -1    0    0  501    0  0.00000000000E+00 -0.00000000000E+00 -0.15333456476E+04  0.15333456476E+04  0.00000000000E+00 0.  1.
         36    2    1    2    0    0  0.26645352591E-14  0.00000000000E+00 -0.15210509285E+04  0.15456403667E+04  0.27460556483E+03 0.  0.
         25    2    3    3    0    0 -0.69852804540E+01 -0.12138064270E+02 -0.42425160259E+03  0.44199983000E+03  0.12320024623E+03 0.  0.
         25    2    3    3    0    0  0.69852804540E+01  0.12138064270E+02 -0.10967993259E+04  0.11036405367E+04  0.12189153497E+03 0.  0.
          5    1    4    4  502    0 -0.36203557092E+02  0.21365683730E+02 -0.51807838810E+02  0.66882973540E+02  0.47000000000E+01 0.  1.
         -5    1    4    4    0  502  0.29218276638E+02 -0.33503748001E+02 -0.37244376378E+03  0.37511685646E+03  0.47000000000E+01 0.  1.
          5    1    5    5  503    0  0.81414433987E+01 -0.28630897703E+02 -0.72429038105E+02  0.78447861441E+02  0.47000000000E+01 0. -1.
         -5    1    5    5    0  503 -0.11561629447E+01  0.40768961974E+02 -0.10243702878E+04  0.10251926753E+04  0.47000000000E+01 0. -1.
<mgrwt>
<rscale>  0 0.27460556E+03</rscale>
<asrwt>0</asrwt>
<pdfrwt beam="1">  1        2 0.23589946E+00 0.27460556E+03</pdfrwt>
<pdfrwt beam="2">  1       -2 0.18914942E-02 0.27460556E+03</pdfrwt>
<totfact> 0.10989414E+04</totfact>
</mgrwt>
</event>
<event>
 9    1  0.2114844E-002  0.2753920E+03  0.7818608E-02  0.1098233E+00
          1   -1    0    0  501    0  0.00000000000E+00  0.00000000000E+00  0.98337742494E+03  0.98337742494E+03  0.00000000000E+00 0.  1.
         -1   -1    0    0    0  501 -0.00000000000E+00 -0.00000000000E+00 -0.19280679417E+02  0.19280679417E+02  0.00000000000E+00 0.  1.
         36    2    1    2    0    0  0.35527136788E-14  0.00000000000E+00  0.96409674553E+03  0.10026581044E+04  0.27539197429E+03 0.  0.
         25    2    3    3    0    0 -0.82807371732E+01 -0.55662966413E+02  0.55744017701E+03  0.57398431578E+03  0.12470568299E+03 0.  0.
         25    2    3    3    0    0  0.82807371732E+01  0.55662966413E+02  0.40665656851E+03  0.42867378859E+03  0.12338847542E+03 0.  0.
          5    1    4    4  502    0 -0.99629274012E+01  0.14022973730E+02  0.41450481042E+03  0.41488821575E+03  0.47000000000E+01 0.  1.
         -5    1    4    4    0  502  0.16821902280E+01 -0.69685940143E+02  0.14293536660E+03  0.15909610002E+03  0.47000000000E+01 0.  1.
          5    1    5    5  503    0  0.23350006676E+02  0.14062013832E+02  0.98208405269E+01  0.29351353520E+02  0.47000000000E+01 0.  1.
         -5    1    5    5    0  503 -0.15069269503E+02  0.41600952581E+02  0.39683572799E+03  0.39932243507E+03  0.47000000000E+01 0.  1.
<mgrwt>
<rscale>  0 0.27539197E+03</rscale>
<asrwt>0</asrwt>
<pdfrwt beam="1">  1        1 0.15128880E+00 0.27539197E+03</pdfrwt>
<pdfrwt beam="2">  1       -1 0.29662591E-02 0.27539197E+03</pdfrwt>
<totfact> 0.63091726E+03</totfact>
</mgrwt>
</event>
<event>
 9    1  0.2114844E-002  0.2771534E+03  0.7818608E-02  0.1097254E+00
          1   -1    0    0  501    0  0.00000000000E+00  0.00000000000E+00  0.81542785304E+03  0.81542785304E+03  0.00000000000E+00 0.  1.
         -1   -1    0    0    0  501 -0.00000000000E+00 -0.00000000000E+00 -0.23550210900E+02  0.23550210900E+02  0.00000000000E+00 0.  1.
         36    2    1    2    0    0  0.00000000000E+00  0.35527136788E-14  0.79187764214E+03  0.83897806394E+03  0.27715337207E+03 0.  0.
         25    2    3    3    0    0  0.26712555915E+02 -0.25627982869E+02  0.25481859846E+03  0.28646235304E+03  0.12553010570E+03 0.  0.
         25    2    3    3    0    0 -0.26712555915E+02  0.25627982869E+02  0.53705904368E+03  0.55251571090E+03  0.12438183245E+03 0.  0.
          5    1    4    4  502    0 -0.30494249933E+01 -0.28133470406E+02  0.25461604707E+03  0.25622687715E+03  0.47000000000E+01 0. -1.
         -5    1    4    4    0  502  0.29761980908E+02  0.25054875367E+01  0.20255139684E+00  0.30235475892E+02  0.47000000000E+01 0. -1.
          5    1    5    5  503    0 -0.33569704947E+02  0.33657541024E+01  0.31492442922E+02  0.46390918854E+02  0.47000000000E+01 0.  1.
         -5    1    5    5    0  503  0.68571490325E+01  0.22262228767E+02  0.50556660076E+03  0.50612479204E+03  0.47000000000E+01 0.  1.
<mgrwt>
<rscale>  0 0.27715337E+03</rscale>
<asrwt>0</asrwt>
<pdfrwt beam="1">  1        1 0.12545042E+00 0.27715337E+03</pdfrwt>
<pdfrwt beam="2">  1       -1 0.36231100E-02 0.27715337E+03</pdfrwt>
<totfact> 0.63652296E+03</totfact>
</mgrwt>
</event>
<event>
 9    1  0.2114844E-002  0.2748810E+03  0.7818608E-02  0.1098518E+00
          1   -1    0    0  501    0  0.00000000000E+00  0.00000000000E+00  0.10525463029E+03  0.10525463029E+03  0.00000000000E+00 0.  1.
         -1   -1    0    0    0  501 -0.00000000000E+00 -0.00000000000E+00 -0.17946846016E+03  0.17946846016E+03  0.00000000000E+00 0.  1.
         36    2    1    2    0    0 -0.71054273576E-14  0.71054273576E-14 -0.74213829876E+02  0.28472309045E+03  0.27488096640E+03 0.  0.
         25    2    3    3    0    0  0.52602511538E+02 -0.12497538211E+02 -0.20475432599E+02  0.13904431665E+03  0.12645499583E+03 0.  0.
         25    2    3    3    0    0 -0.52602511538E+02  0.12497538211E+02 -0.53738397277E+02  0.14567877380E+03  0.12414216493E+03 0.  0.
          5    1    4    4  502    0  0.12785028036E+02  0.42187638320E+02 -0.48468284565E+02  0.65684993550E+02  0.47000000000E+01 0.  1.
         -5    1    4    4    0  502  0.39817483502E+02 -0.54685176531E+02  0.27992851966E+02  0.73359323101E+02  0.47000000000E+01 0.  1.
          5    1    5    5  503    0 -0.68244169278E+02  0.55674554904E+02 -0.43725419092E+02  0.98442495798E+02  0.47000000000E+01 0.  1.
         -5    1    5    5    0  503  0.15641657740E+02 -0.43177016692E+02 -0.10012978185E+02  0.47236278002E+02  0.47000000000E+01 0.  1.
<mgrwt>
<rscale>  0 0.27488097E+03</rscale>
<asrwt>0</asrwt>
<pdfrwt beam="1">  1        1 0.16193020E-01 0.27488097E+03</pdfrwt>
<pdfrwt beam="2">  1       -1 0.27610532E-01 0.27488097E+03</pdfrwt>
<totfact> 0.39425646E+03</totfact>
</mgrwt>
</event>
<event>
 9    1  0.2114844E-002  0.2750917E+03  0.7818608E-02  0.1098400E+00
          2   -1    0    0  501    0  0.00000000000E+00  0.00000000000E+00  0.10265098821E+04  0.10265098821E+04  0.00000000000E+00 0. -1.
         -2   -1    0    0    0  501 -0.00000000000E+00 -0.00000000000E+00 -0.18430276721E+02  0.18430276721E+02  0.00000000000E+00 0. -1.
         36    2    1    2    0    0 -0.35527136788E-14  0.71054273576E-14  0.10080796054E+04  0.10449401589E+04  0.27509170242E+03 0.  0.
         25    2    3    3    0    0  0.18086121535E+02 -0.42947940884E+02  0.38711834430E+03  0.40979505400E+03  0.12609417264E+03 0.  0.
         25    2    3    3    0    0 -0.18086121535E+02  0.42947940884E+02  0.62096126113E+03  0.63514510487E+03  0.12507910696E+03 0.  0.
          5    1    4    4  502    0  0.17508014715E+02 -0.80127853903E+02  0.33894340789E+03  0.34875740465E+03  0.47000000000E+01 0.  1.
         -5    1    4    4    0  502  0.57810682046E+00  0.37179913019E+02  0.48174936410E+02  0.61037649346E+02  0.47000000000E+01 0.  1.
          5    1    5    5  503    0 -0.15833486462E+02  0.73034552264E+02  0.20819505683E+03  0.22125102668E+03  0.47000000000E+01 0. -1.
         -5    1    5    5    0  503 -0.22526350733E+01 -0.30086611380E+02  0.41276620430E+03  0.41389407819E+03  0.47000000000E+01 0. -1.
<mgrwt>
<rscale>  0 0.27509170E+03</rscale>
<asrwt>0</asrwt>
<pdfrwt beam="1">  1        2 0.15792455E+00 0.27509170E+03</pdfrwt>
<pdfrwt beam="2">  1       -2 0.28354280E-02 0.27509170E+03</pdfrwt>
<totfact> 0.11626531E+04</totfact>
</mgrwt>
</event>
<event>
 9    1  0.2114844E-002  0.2774860E+03  0.7818608E-02  0.1097070E+00
         -1   -1    0    0    0  501 -0.00000000000E+00  0.00000000000E+00  0.43879014270E+02  0.43879014270E+02  0.00000000000E+00 0.  1.
          1   -1    0    0  501    0  0.00000000000E+00 -0.00000000000E+00 -0.43869779199E+03  0.43869779199E+03  0.00000000000E+00 0.  1.
         36    2    1    2    0    0 -0.35527136788E-14  0.71054273576E-14 -0.39481877772E+03  0.48257680626E+03  0.27748604775E+03 0.  0.
         25    2    3    3    0    0 -0.94393535683E+01  0.46034996369E+02 -0.22901871477E+03  0.26505974535E+03  0.12489505435E+03 0.  0.
         25    2    3    3    0    0  0.94393535683E+01 -0.46034996369E+02 -0.16580006294E+03  0.21751706091E+03  0.13272410718E+03 0.  0.
          5    1    4    4  502    0 -0.22615013788E+02 -0.41297263698E+01  0.60983220993E+01  0.24244030625E+02  0.47000000000E+01 0. -1.
         -5    1    4    4    0  502  0.13175660220E+02  0.50164722739E+02 -0.23511703687E+03  0.24081571472E+03  0.47000000000E+01 0. -1.
          5    1    5    5  503    0 -0.29411695684E+02  0.23425729821E+02 -0.52419729215E+01  0.38254162398E+02  0.47000000000E+01 0. -1.
         -5    1    5    5    0  503  0.38851049252E+02 -0.69460726190E+02 -0.16055809002E+03  0.17926289851E+03  0.47000000000E+01 0. -1.
<mgrwt>
<rscale>  0 0.27748605E+03</rscale>
<asrwt>0</asrwt>
<pdfrwt beam="1">  1        1 0.67491966E-01 0.27748605E+03</pdfrwt>
<pdfrwt beam="2">  1       -1 0.67506178E-02 0.27748605E+03</pdfrwt>
<totfact> 0.59689690E+03</totfact>
</mgrwt>
</event>
<event>
 9    1  0.2114844E-002  0.2749563E+03  0.7818608E-02  0.1098476E+00
          1   -1    0    0  501    0  0.00000000000E+00  0.00000000000E+00  0.36797198393E+02  0.36797198393E+02  0.00000000000E+00 0.  1.
         -1   -1    0    0    0  501 -0.00000000000E+00 -0.00000000000E+00 -0.51363247721E+03  0.51363247721E+03  0.00000000000E+00 0.  1.
         36    2    1    2    0    0  0.00000000000E+00 -0.14210854715E-13 -0.47683527882E+03  0.55042967560E+03  0.27495625954E+03 0.  0.
         25    2    3    3    0    0 -0.23216686256E+02 -0.37455744816E+02 -0.31272546224E+03  0.33931452098E+03  0.12407732296E+03 0.  0.
         25    2    3    3    0    0  0.23216686256E+02  0.37455744816E+02 -0.16410981658E+03  0.21111515463E+03  0.12528219856E+03 0.  0.
          5    1    4    4  502    0 -0.51548849536E+02  0.26718656251E+02 -0.10587510647E+03  0.12084204008E+03  0.47000000000E+01 0.  1.
         -5    1    4    4    0  502  0.28332163280E+02 -0.64174401067E+02 -0.20685035577E+03  0.21847248090E+03  0.47000000000E+01 0.  1.
          5    1    5    5  503    0 -0.24796502512E+02 -0.33124794915E+02 -0.27316153252E+02  0.49803421603E+02  0.47000000000E+01 0.  1.
         -5    1    5    5    0  503  0.48013188767E+02  0.70580539731E+02 -0.13679366333E+03  0.16131173302E+03  0.47000000000E+01 0.  1.
<mgrwt>
<rscale>  0 0.27495626E+03</rscale>
<asrwt>0</asrwt>
<pdfrwt beam="1">  1        1 0.56611077E-02 0.27495626E+03</pdfrwt>
<pdfrwt beam="2">  1       -1 0.79020377E-01 0.27495626E+03</pdfrwt>
<totfact> 0.23396143E+03</totfact>
</mgrwt>
</event>
<event>
 9    1  0.2114844E-002  0.2748711E+03  0.7818608E-02  0.1098524E+00
         -2   -1    0    0    0  501 -0.00000000000E+00  0.00000000000E+00  0.15902102875E+02  0.15902102875E+02  0.00000000000E+00 0. -1.
          2   -1    0    0  501    0  0.00000000000E+00 -0.00000000000E+00 -0.11878006265E+04  0.11878006265E+04  0.00000000000E+00 0. -1.
         36    2    1    2    0    0 -0.35527136788E-14  0.35527136788E-14 -0.11718985236E+04  0.12037027293E+04  0.27487108074E+03 0.  0.
         25    2    3    3    0    0  0.25507659987E+02  0.15524940939E+02 -0.35784418594E+03  0.38095287851E+03  0.12720444067E+03 0.  0.
         25    2    3    3    0    0 -0.25507659987E+02 -0.15524940939E+02 -0.81405433764E+03  0.82274985082E+03  0.11550406002E+03 0.  0.
          5    1    4    4  502    0  0.88465906487E+01 -0.22661293367E+01  0.87661665993E+01  0.13503080579E+02  0.47000000000E+01 0. -1.
         -5    1    4    4    0  502  0.16661069339E+02  0.17791070275E+02 -0.36661035254E+03  0.36744979793E+03  0.47000000000E+01 0. -1.
          5    1    5    5  503    0 -0.31613678081E+02  0.13145091793E+02 -0.69636446693E+02  0.77740226319E+02  0.47000000000E+01 0.  1.
         -5    1    5    5    0  503  0.61060180934E+01 -0.28670032732E+02 -0.74441789095E+03  0.74500962450E+03  0.47000000000E+01 0.  1.
<mgrwt>
<rscale>  0 0.27487108E+03</rscale>
<asrwt>0</asrwt>
<pdfrwt beam="1">  1        2 0.18273852E+00 0.27487108E+03</pdfrwt>
<pdfrwt beam="2">  1       -2 0.24464778E-02 0.27487108E+03</pdfrwt>
<totfact> 0.11636443E+04</totfact>
</mgrwt>
</event>
<event>
 9    1  0.2114844E-002  0.2747708E+03  0.7818608E-02  0.1098580E+00
         -2   -1    0    0    0  501 -0.00000000000E+00  0.00000000000E+00  0.59445849296E+01  0.59445849296E+01  0.00000000000E+00 0. -1.
          2   -1    0    0  501    0  0.00000000000E+00 -0.00000000000E+00 -0.31751158607E+04  0.31751158607E+04  0.00000000000E+00 0. -1.
         36    2    1    2    0    0  0.71054273576E-14  0.00000000000E+00 -0.31691712758E+04  0.31810604457E+04  0.27477078371E+03 0.  0.
         25    2    3    3    0    0  0.43749025435E+02 -0.60253016445E+02 -0.15686806813E+04  0.15754767966E+04  0.12579210472E+03 0.  0.
         25    2    3    3    0    0 -0.43749025435E+02  0.60253016445E+02 -0.16004905945E+04  0.16055836490E+04  0.10384752158E+03 0.  0.
          5    1    4    4  502    0  0.75828514947E+02 -0.32826186340E+02 -0.13601667865E+04  0.13626823912E+04  0.47000000000E+01 0.  1.
         -5    1    4    4    0  502 -0.32079489512E+02 -0.27426830105E+02 -0.20851389485E+03  0.21279440547E+03  0.47000000000E+01 0.  1.
          5    1    5    5  503    0  0.68959941951E+01 -0.17595436344E+01 -0.96681552707E+03  0.96685314506E+03  0.47000000000E+01 0.  1.
         -5    1    5    5    0  503 -0.50645019630E+02  0.62012560079E+02 -0.63367506742E+03  0.63873050396E+03  0.47000000000E+01 0.  1.
<mgrwt>
<rscale>  0 0.27477078E+03</rscale>
<asrwt>0</asrwt>
<pdfrwt beam="1">  1        2 0.48847923E+00 0.27477078E+03</pdfrwt>
<pdfrwt beam="2">  1       -2 0.91455178E-03 0.27477078E+03</pdfrwt>
<totfact> 0.39657474E+03</totfact>
</mgrwt>
</event>
<event>
 9    1  0.2114844E-002  0.2685050E+03  0.7818608E-02  0.1102138E+00
          1   -1    0    0  501    0  0.00000000000E+00  0.00000000000E+00  0.23251129108E+03  0.23251129108E+03  0.00000000000E+00 0. -1.
         -1   -1    0    0    0  501 -0.00000000000E+00 -0.00000000000E+00 -0.77517694392E+02  0.77517694392E+02  0.00000000000E+00 0. -1.
         36    2    1    2    0    0  0.00000000000E+00  0.71054273576E-14  0.15499359668E+03  0.31002898547E+03  0.26850504058E+03 0.  0.
         25    2    3    3    0    0  0.40603787176E+02  0.30254407027E+02  0.70116807241E+02  0.15244992441E+03  0.12554129248E+03 0.  0.
         25    2    3    3    0    0 -0.40603787176E+02 -0.30254407027E+02  0.84876789443E+02  0.15757906106E+03  0.12273179874E+03 0.  0.
          5    1    4    4  502    0  0.48804927853E+02  0.10114584536E+02 -0.24156929072E+02  0.55586626317E+02  0.47000000000E+01 0.  1.
         -5    1    4    4    0  502 -0.82011406774E+01  0.20139822491E+02  0.94273736313E+02  0.96863298090E+02  0.47000000000E+01 0.  1.
          5    1    5    5  503    0 -0.49052823371E+02 -0.15599563778E+02 -0.16837248629E+02  0.54360912540E+02  0.47000000000E+01 0.  1.
         -5    1    5    5    0  503  0.84490361952E+01 -0.14654843249E+02  0.10171403807E+03  0.10321814852E+03  0.47000000000E+01 0.  1.
<mgrwt>
<rscale>  0 0.26850504E+03</rscale>
<asrwt>0</asrwt>
<pdfrwt beam="1">  1        1 0.35770967E-01 0.26850504E+03</pdfrwt>
<pdfrwt beam="2">  1       -1 0.11925799E-01 0.26850504E+03</pdfrwt>
<totfact> 0.55549752E+03</totfact>
</mgrwt>
</event>
<event>
 9    1  0.2114844E-002  0.2768409E+03  0.7818608E-02  0.1097427E+00
         -2   -1    0    0    0  501 -0.00000000000E+00  0.00000000000E+00  0.45279059750E+03  0.45279059750E+03  0.00000000000E+00 0. -1.
          2   -1    0    0  501    0  0.00000000000E+00 -0.00000000000E+00 -0.42315848482E+02  0.42315848482E+02  0.00000000000E+00 0. -1.
         36    2    1    2    0    0  0.00000000000E+00  0.00000000000E+00  0.41047474902E+03  0.49510644598E+03  0.27684088078E+03 0.  0.
         25    2    3    3    0    0  0.12885902730E+02  0.19536321630E+02  0.31101233643E+03  0.33799748344E+03  0.13025325735E+03 0.  0.
         25    2    3    3    0    0 -0.12885902730E+02 -0.19536321630E+02  0.99462412588E+02  0.15710896254E+03  0.11934295220E+03 0.  0.
          5    1    4    4  502    0  0.43171890299E+02  0.54481968590E+02  0.99689581151E+02  0.12162318695E+03  0.47000000000E+01 0. -1.
         -5    1    4    4    0  502 -0.30285987569E+02 -0.34945646960E+02  0.21132275528E+03  0.21637429650E+03  0.47000000000E+01 0. -1.
          5    1    5    5  503    0 -0.13129910244E+02 -0.69167697325E+02  0.68972511512E+02  0.98670472992E+02  0.47000000000E+01 0.  1.
         -5    1    5    5    0  503  0.24400751337E+00  0.49631375694E+02  0.30489901076E+02  0.58438489547E+02  0.47000000000E+01 0.  1.
<mgrwt>
<rscale>  0 0.27684088E+03</rscale>
<asrwt>0</asrwt>
<pdfrwt beam="1">  1        2 0.65101309E-02 0.27684088E+03</pdfrwt>
<pdfrwt beam="2">  1       -2 0.69660088E-01 0.27684088E+03</pdfrwt>
<totfact> 0.21356036E+03</totfact>
</mgrwt>
</event>
<event>
 9    1  0.2114844E-002  0.2753448E+03  0.7818608E-02  0.1098259E+00
          2   -1    0    0  501    0  0.00000000000E+00  0.00000000000E+00  0.13466413137E+04  0.13466413137E+04  0.00000000000E+00 0.  1.
         -2   -1    0    0    0  501 -0.00000000000E+00 -0.00000000000E+00 -0.14074782743E+02  0.14074782743E+02  0.00000000000E+00 0.  1.
         36    2    1    2    0    0  0.00000000000E+00  0.00000000000E+00  0.13325665310E+04  0.13607160964E+04  0.27534475788E+03 0.  0.
         25    2    3    3    0    0 -0.18336482269E+02  0.52868299187E+02  0.64914456733E+03  0.66367529100E+03  0.12627327089E+03 0.  0.
         25    2    3    3    0    0  0.18336482269E+02 -0.52868299187E+02  0.68342196362E+03  0.69704080544E+03  0.12517595796E+03 0.  0.
          5    1    4    4  502    0  0.36282769104E+02  0.21318395514E+01  0.63741146089E+02  0.73525558675E+02  0.47000000000E+01 0. -1.
         -5    1    4    4    0  502 -0.54619251373E+02  0.50736459636E+02  0.58540342124E+03  0.59014973232E+03  0.47000000000E+01 0. -1.
          5    1    5    5  503    0  0.25705159759E+02 -0.92045773943E+02  0.52244451999E+03  0.53113420734E+03  0.47000000000E+01 0.  1.
         -5    1    5    5    0  503 -0.73686774897E+01  0.39177474756E+02  0.16097744364E+03  0.16590659811E+03  0.47000000000E+01 0.  1.
<mgrwt>
<rscale>  0 0.27534476E+03</rscale>
<asrwt>0</asrwt>
<pdfrwt beam="1">  1        2 0.20717548E+00 0.27534476E+03</pdfrwt>
<pdfrwt beam="2">  1       -2 0.21653523E-02 0.27534476E+03</pdfrwt>
<totfact> 0.11360584E+04</totfact>
</mgrwt>
</event>
<event>
 9    1  0.2114844E-002  0.2753359E+03  0.7818608E-02  0.1098264E+00
          2   -1    0    0  501    0  0.00000000000E+00  0.00000000000E+00  0.98633415043E+03  0.98633415043E+03  0.00000000000E+00 0. -1.
         -2   -1    0    0    0  501 -0.00000000000E+00 -0.00000000000E+00 -0.19215053883E+02  0.19215053883E+02  0.00000000000E+00 0. -1.
         36    2    1    2    0    0 -0.71054273576E-14  0.00000000000E+00  0.96711909654E+03  0.10055492043E+04  0.27533589557E+03 0.  0.
         25    2    3    3    0    0  0.44222421773E+02  0.11907855212E+02  0.57997434082E+03  0.59588182880E+03  0.12887008298E+03 0.  0.
         25    2    3    3    0    0 -0.44222421773E+02 -0.11907855212E+02  0.38714475573E+03  0.40966737551E+03  0.12589232330E+03 0.  0.
          5    1    4    4  502    0  0.28082808377E+02 -0.24570836330E+02  0.41872039100E+02  0.56282570861E+02  0.47000000000E+01 0. -1.
         -5    1    4    4    0  502  0.16139613396E+02  0.36478691542E+02  0.53810230172E+03  0.53959925794E+03  0.47000000000E+01 0. -1.
          5    1    5    5  503    0  0.30195096898E+02 -0.12086026515E+02  0.28954427400E+02  0.43797999722E+02  0.47000000000E+01 0. -1.
         -5    1    5    5    0  503 -0.74417518672E+02  0.17817130381E+00  0.35819032833E+03  0.36586937579E+03  0.47000000000E+01 0. -1.
<mgrwt>
<rscale>  0 0.27533590E+03</rscale>
<asrwt>0</asrwt>
<pdfrwt beam="1">  1        2 0.15174368E+00 0.27533590E+03</pdfrwt>
<pdfrwt beam="2">  1       -2 0.29561629E-02 0.27533590E+03</pdfrwt>
<totfact> 0.11563291E+04</totfact>
</mgrwt>
</event>
<event>
 9    1  0.2114844E-002  0.2755339E+03  0.7818608E-02  0.1098154E+00
          2   -1    0    0  501    0  0.00000000000E+00  0.00000000000E+00  0.53645376991E+03  0.53645376991E+03  0.00000000000E+00 0. -1.
         -2   -1    0    0    0  501 -0.00000000000E+00 -0.00000000000E+00 -0.35379994629E+02  0.35379994629E+02  0.00000000000E+00 0. -1.
         36    2    1    2    0    0  0.00000000000E+00 -0.71054273576E-14  0.50107377528E+03  0.57183376454E+03  0.27553389264E+03 0.  0.
         25    2    3    3    0    0  0.60348306982E+01  0.47048072179E+02  0.33395551725E+03  0.36128904526E+03  0.12943549144E+03 0.  0.
         25    2    3    3    0    0 -0.60348306982E+01 -0.47048072179E+02  0.16711825803E+03  0.21054471928E+03  0.11895640534E+03 0.  0.
          5    1    4    4  502    0  0.59915584682E+02  0.51809804331E+02  0.23996251578E+03  0.25274143327E+03  0.47000000000E+01 0. -1.
         -5    1    4    4    0  502 -0.53880753984E+02 -0.47617321521E+01  0.93993001472E+02  0.10854761199E+03  0.47000000000E+01 0. -1.
          5    1    5    5  503    0 -0.37500646141E+02 -0.15282061799E+01  0.14650103089E+03  0.15130524091E+03  0.47000000000E+01 0.  1.
         -5    1    5    5    0  503  0.31465815443E+02 -0.45519865999E+02  0.20617227135E+02  0.59239478364E+02  0.47000000000E+01 0.  1.
<mgrwt>
<rscale>  0 0.27553389E+03</rscale>
<asrwt>0</asrwt>
<pdfrwt beam="1">  1        2 0.82531343E-01 0.27553389E+03</pdfrwt>
<pdfrwt beam="2">  1       -2 0.54430765E-02 0.27553389E+03</pdfrwt>
<totfact> 0.98263679E+03</totfact>
</mgrwt>
</event>
<event>
 9    1  0.2114844E-002  0.2700433E+03  0.7818608E-02  0.1101255E+00
          2   -1    0    0  501    0  0.00000000000E+00  0.00000000000E+00  0.17752030173E+04  0.17752030173E+04  0.00000000000E+00 0. -1.
         -2   -1    0    0    0  501 -0.00000000000E+00 -0.00000000000E+00 -0.10269726635E+02  0.10269726635E+02  0.00000000000E+00 0. -1.
         36    2    1    2    0    0  0.00000000000E+00  0.00000000000E+00  0.17649332907E+04  0.17854727440E+04  0.27004332770E+03 0.  0.
         25    2    3    3    0    0 -0.41281515552E+02 -0.35687229493E+02  0.84686434320E+03  0.85785727633E+03  0.12554739702E+03 0.  0.
         25    2    3    3    0    0  0.41281515552E+02  0.35687229493E+02  0.91806894751E+03  0.92761546764E+03  0.12100463446E+03 0.  0.
          5    1    4    4  502    0 -0.77856604821E+01  0.43124843709E+02  0.17164506896E+03  0.17721311564E+03  0.47000000000E+01 0. -1.
         -5    1    4    4    0  502 -0.33495855070E+02 -0.78812073202E+02  0.67521927424E+03  0.68064416070E+03  0.47000000000E+01 0. -1.
          5    1    5    5  503    0  0.17742824158E+02  0.62476667051E+02  0.24252973847E+03  0.25111930586E+03  0.47000000000E+01 0.  1.
         -5    1    5    5    0  503  0.23538691394E+02 -0.26789437558E+02  0.67553920904E+03  0.67649616178E+03  0.47000000000E+01 0.  1.
<mgrwt>
<rscale>  0 0.27004333E+03</rscale>
<asrwt>0</asrwt>
<pdfrwt beam="1">  1        2 0.27310791E+00 0.27004333E+03</pdfrwt>
<pdfrwt beam="2">  1       -2 0.15799594E-02 0.27004333E+03</pdfrwt>
<totfact> 0.10658661E+04</totfact>
</mgrwt>
</event>
<event>
 9    1  0.2114844E-002  0.2740706E+03  0.7818608E-02  0.1098972E+00
          2   -1    0    0  501    0  0.00000000000E+00  0.00000000000E+00  0.32070079093E+03  0.32070079093E+03  0.00000000000E+00 0.  1.
         -2   -1    0    0    0  501 -0.00000000000E+00 -0.00000000000E+00 -0.58555102943E+02  0.58555102943E+02  0.00000000000E+00 0.  1.
         36    2    1    2    0    0  0.00000000000E+00  0.00000000000E+00  0.26214568799E+03  0.37925589387E+03  0.27407055899E+03 0.  0.
         25    2    3    3    0    0 -0.35198363303E+02  0.11470415570E+02  0.18180177507E+03  0.22237976385E+03  0.12259844509E+03 0.  0.
         25    2    3    3    0    0  0.35198363303E+02 -0.11470415570E+02  0.80343912916E+02  0.15687613002E+03  0.12955493281E+03 0.  0.
          5    1    4    4  502    0 -0.16072591436E+02  0.50446304702E+02  0.23412807727E+02  0.58081041823E+02  0.47000000000E+01 0. -1.
         -5    1    4    4    0  502 -0.19125771866E+02 -0.38975889132E+02  0.15838896734E+03  0.16429872203E+03  0.47000000000E+01 0. -1.
          5    1    5    5  503    0 -0.35824474333E+01  0.32708396716E+02 -0.21218735844E+02  0.39433461631E+02  0.47000000000E+01 0.  1.
         -5    1    5    5    0  503  0.38780810736E+02 -0.44178812286E+02  0.10156264876E+03  0.11744266839E+03  0.47000000000E+01 0.  1.
<mgrwt>
<rscale>  0 0.27407056E+03</rscale>
<asrwt>0</asrwt>
<pdfrwt beam="1">  1        2 0.49338583E-01 0.27407056E+03</pdfrwt>
<pdfrwt beam="2">  1       -2 0.90084775E-02 0.27407056E+03</pdfrwt>
<totfact> 0.79087411E+03</totfact>
</mgrwt>
</event>
<event>
 9    1  0.2114844E-002  0.2747153E+03  0.7818608E-02  0.1098611E+00
         -1   -1    0    0    0  501 -0.00000000000E+00  0.00000000000E+00  0.33491978576E+02  0.33491978576E+02  0.00000000000E+00 0.  1.
          1   -1    0    0  501    0  0.00000000000E+00 -0.00000000000E+00 -0.56333267109E+03  0.56333267109E+03  0.00000000000E+00 0.  1.
         36    2    1    2    0    0  0.71054273576E-14  0.00000000000E+00 -0.52984069251E+03  0.59682464966E+03  0.27471531265E+03 0.  0.
         25    2    3    3    0    0 -0.42688300391E+02 -0.30686273195E+02 -0.23741736161E+03  0.27154575207E+03  0.12085592050E+03 0.  0.
         25    2    3    3    0    0  0.42688300391E+02  0.30686273195E+02 -0.29242333090E+03  0.32527889759E+03  0.13240475223E+03 0.  0.
          5    1    4    4  502    0 -0.14789470009E+02 -0.45747299414E+02 -0.20842653613E+02  0.52612261275E+02  0.47000000000E+01 0.  1.
         -5    1    4    4    0  502 -0.27898830381E+02  0.15061026220E+02 -0.21657470800E+03  0.21893349080E+03  0.47000000000E+01 0.  1.
          5    1    5    5  503    0  0.84278652160E+02  0.25810631000E+02 -0.25149838864E+03  0.26653819496E+03  0.47000000000E+01 0. -1.
         -5    1    5    5    0  503 -0.41590351769E+02  0.48756421949E+01 -0.40924942258E+02  0.58740702634E+02  0.47000000000E+01 0. -1.
<mgrwt>
<rscale>  0 0.27471531E+03</rscale>
<asrwt>0</asrwt>
<pdfrwt beam="1">  1        1 0.86666555E-01 0.27471531E+03</pdfrwt>
<pdfrwt beam="2">  1       -1 0.51526127E-02 0.27471531E+03</pdfrwt>
<totfact> 0.64314900E+03</totfact>
</mgrwt>
</event>
<event>
 8    1  0.2114844E-002  0.3899373E+03  0.7818608E-02  0.1047321E+00
         -2   -1    0    0    0  501 -0.00000000000E+00  0.00000000000E+00  0.38458174272E+02  0.38458174272E+02  0.00000000000E+00 0.  1.
          2   -1    0    0  501    0  0.00000000000E+00 -0.00000000000E+00 -0.98841867465E+03  0.98841867465E+03  0.00000000000E+00 0.  1.
         25    2    1    2    0    0  0.74483591542E+02 -0.34030866681E+02 -0.21920261473E+03  0.28131700713E+03  0.15615238359E+03 0.  0.
         25    2    1    2    0    0 -0.74483591542E+02  0.34030866681E+02 -0.73075788565E+03  0.74555984179E+03  0.12307105655E+03 0.  0.
          5    1    3    3  502    0  0.28923825533E+02 -0.44021772048E+02 -0.22762551011E+03  0.23368775524E+03  0.47000000000E+01 0. -1.
         -5    1    3    3    0  502  0.45559766009E+02  0.99909053670E+01  0.84228953793E+01  0.47629251888E+02  0.47000000000E+01 0. -1.
          5    1    4    4  503    0 -0.58342770601E+02  0.77890173339E+02 -0.41224142014E+03  0.42359867382E+03  0.47000000000E+01 0. -1.
         -5    1    4    4    0  503 -0.16140820941E+02 -0.43859306658E+02 -0.31851646551E+03  0.32196116797E+03  0.47000000000E+01 0. -1.
<mgrwt>
<rscale>  0 0.38993732E+03</rscale>
<asrwt>0</asrwt>
<pdfrwt beam="1">  1        2 0.15206442E+00 0.38993732E+03</pdfrwt>
<pdfrwt beam="2">  1       -2 0.59166419E-02 0.38993732E+03</pdfrwt>
<totfact> 0.40545580E+03</totfact>
</mgrwt>
</event>
<event>
 9    1  0.2114844E-002  0.2746630E+03  0.7818608E-02  0.1098640E+00
         -3   -1    0    0    0  501 -0.00000000000E+00  0.00000000000E+00  0.11789536427E+02  0.11789536427E+02  0.00000000000E+00 0.  1.
          3   -1    0    0  501    0  0.00000000000E+00 -0.00000000000E+00 -0.15997181369E+04  0.15997181369E+04  0.00000000000E+00 0.  1.
         36    2    1    2    0    0  0.71054273576E-14  0.71054273576E-14 -0.15879286005E+04  0.16115076733E+04  0.27466295890E+03 0.  0.
         25    2    3    3    0    0  0.20895671828E+02  0.48563159894E+02 -0.83788654424E+03  0.84891363893E+03  0.12571990994E+03 0.  0.
         25    2    3    3    0    0 -0.20895671828E+02 -0.48563159894E+02 -0.75004205625E+03  0.76259403441E+03  0.12724608273E+03 0.  0.
          5    1    4    4  502    0  0.45856962063E+02  0.67338569816E+02 -0.32618420976E+03  0.33623737546E+03  0.47000000000E+01 0. -1.
         -5    1    4    4    0  502 -0.24961290235E+02 -0.18775409922E+02 -0.51170233447E+03  0.51267626348E+03  0.47000000000E+01 0. -1.
          5    1    5    5  503    0 -0.31158327124E+01 -0.76934392104E+02 -0.25534393295E+03  0.26674186622E+03  0.47000000000E+01 0. -1.
         -5    1    5    5    0  503 -0.17779839116E+02  0.28371232211E+02 -0.49469812330E+03  0.49585216819E+03  0.47000000000E+01 0. -1.
<mgrwt>
<rscale>  0 0.27466296E+03</rscale>
<asrwt>0</asrwt>
<pdfrwt beam="1">  1        3 0.24611057E+00 0.27466296E+03</pdfrwt>
<pdfrwt beam="2">  1       -3 0.18137742E-02 0.27466296E+03</pdfrwt>
<totfact> 0.24366749E+02</totfact>
</mgrwt>
</event>
<event>
 9    1  0.2114844E-002  0.2744750E+03  0.7818608E-02  0.1098745E+00
          2   -1    0    0  501    0  0.00000000000E+00  0.00000000000E+00  0.61947507860E+02  0.61947507860E+02  0.00000000000E+00 0. -1.
         -2   -1    0    0    0  501 -0.00000000000E+00 -0.00000000000E+00 -0.30403367038E+03  0.30403367038E+03  0.00000000000E+00 0. -1.
         36    2    1    2    0    0 -0.35527136788E-14  0.71054273576E-14 -0.24208616252E+03  0.36598117824E+03  0.27447497653E+03 0.  0.
         25    2    3    3    0    0 -0.10614893778E+02  0.43244926636E+02 -0.89792860834E+02  0.15800316113E+03  0.12214516536E+03 0.  0.
         25    2    3    3    0    0  0.10614893778E+02 -0.43244926636E+02 -0.15229330169E+03  0.20797801711E+03  0.13445745131E+03 0.  0.
          5    1    4    4  502    0  0.22404689915E+02 -0.35291584197E+02 -0.45132412855E+02  0.61696764383E+02  0.47000000000E+01 0. -1.
         -5    1    4    4    0  502 -0.33019583692E+02  0.78536510832E+02 -0.44660447980E+02  0.96306396748E+02  0.47000000000E+01 0. -1.
          5    1    5    5  503    0 -0.27769122663E+02 -0.48903763438E+01 -0.15080692112E+03  0.15349220636E+03  0.47000000000E+01 0. -1.
         -5    1    5    5    0  503  0.38384016441E+02 -0.38354550292E+02 -0.14863805661E+01  0.54485810753E+02  0.47000000000E+01 0. -1.
<mgrwt>
<rscale>  0 0.27447498E+03</rscale>
<asrwt>0</asrwt>
<pdfrwt beam="1">  1        2 0.95303858E-02 0.27447498E+03</pdfrwt>
<pdfrwt beam="2">  1       -2 0.46774411E-01 0.27447498E+03</pdfrwt>
<totfact> 0.29754322E+03</totfact>
</mgrwt>
</event>
<event>
 9    1  0.2114844E-002  0.2765949E+03  0.7818608E-02  0.1097563E+00
         -1   -1    0    0    0  501 -0.00000000000E+00  0.00000000000E+00  0.95899667059E+01  0.95899667059E+01  0.00000000000E+00 0.  1.
          1   -1    0    0  501    0  0.00000000000E+00 -0.00000000000E+00 -0.19943957690E+04  0.19943957690E+04  0.00000000000E+00 0.  1.
         36    2    1    2    0    0  0.71054273576E-14 -0.71054273576E-14 -0.19848058023E+04  0.20039857357E+04  0.27659493143E+03 0.  0.
         25    2    3    3    0    0 -0.20908482398E+02 -0.45821036220E+02 -0.11913089061E+04  0.11988879071E+04  0.12481415000E+03 0.  0.
         25    2    3    3    0    0  0.20908482398E+02  0.45821036220E+02 -0.79349689614E+03  0.80509782855E+03  0.12652453264E+03 0.  0.
          5    1    4    4  502    0  0.51698633273E+02 -0.18837240152E+02 -0.59340340719E+03  0.59596751922E+03  0.47000000000E+01 0.  1.
         -5    1    4    4    0  502 -0.72607115672E+02 -0.26983796068E+02 -0.59790549894E+03  0.60292038791E+03  0.47000000000E+01 0.  1.
          5    1    5    5  503    0  0.21897512770E+02  0.60266224688E+02 -0.17537724854E+03  0.18679076051E+03  0.47000000000E+01 0.  1.
         -5    1    5    5    0  503 -0.98903037149E+00 -0.14445188468E+02 -0.61811964759E+03  0.61830706804E+03  0.47000000000E+01 0.  1.
<mgrwt>
<rscale>  0 0.27659493E+03</rscale>
<asrwt>0</asrwt>
<pdfrwt beam="1">  1        1 0.30683021E+00 0.27659493E+03</pdfrwt>
<pdfrwt beam="2">  1       -1 0.14753791E-02 0.27659493E+03</pdfrwt>
<totfact> 0.36375322E+03</totfact>
</mgrwt>
</event>
<event>
 9    1  0.2114844E-002  0.2757472E+03  0.7818608E-02  0.1098035E+00
          2   -1    0    0  501    0  0.00000000000E+00  0.00000000000E+00  0.14524350086E+04  0.14524350086E+04  0.00000000000E+00 0. -1.
         -2   -1    0    0    0  501 -0.00000000000E+00 -0.00000000000E+00 -0.13087770679E+02  0.13087770679E+02  0.00000000000E+00 0. -1.
         36    2    1    2    0    0  0.00000000000E+00  0.00000000000E+00  0.14393472379E+04  0.14655227793E+04  0.27574724890E+03 0.  0.
         25    2    3    3    0    0 -0.57838551195E+02 -0.22935390622E+02  0.88801265698E+03  0.89801154449E+03  0.11826633046E+03 0.  0.
         25    2    3    3    0    0  0.57838551195E+02  0.22935390622E+02  0.55133458093E+03  0.56751123478E+03  0.11928055722E+03 0.  0.
          5    1    4    4  502    0 -0.92717899827E+01  0.38075092499E+02  0.12680119510E+03  0.13280177649E+03  0.47000000000E+01 0.  1.
         -5    1    4    4    0  502 -0.48566761213E+02 -0.61010483121E+02  0.76121146188E+03  0.76520976800E+03  0.47000000000E+01 0.  1.
          5    1    5    5  503    0  0.40274927669E+02  0.60840600294E+02  0.18742175793E+03  0.20117816429E+03  0.47000000000E+01 0. -1.
         -5    1    5    5    0  503  0.17563623526E+02 -0.37905209673E+02  0.36391282300E+03  0.36633307049E+03  0.47000000000E+01 0. -1.
<mgrwt>
<rscale>  0 0.27574725E+03</rscale>
<asrwt>0</asrwt>
<pdfrwt beam="1">  1        2 0.22345141E+00 0.27574725E+03</pdfrwt>
<pdfrwt beam="2">  1       -2 0.20135043E-02 0.27574725E+03</pdfrwt>
<totfact> 0.11077728E+04</totfact>
</mgrwt>
</event>
<event>
 9    1  0.2114844E-002  0.2758020E+03  0.7818608E-02  0.1098004E+00
         -1   -1    0    0    0  501 -0.00000000000E+00  0.00000000000E+00  0.19310664113E+02  0.19310664113E+02  0.00000000000E+00 0. -1.
          1   -1    0    0  501    0  0.00000000000E+00 -0.00000000000E+00 -0.98477621471E+03  0.98477621471E+03  0.00000000000E+00 0. -1.
         36    2    1    2    0    0  0.00000000000E+00  0.00000000000E+00 -0.96546555060E+03  0.10040868788E+04  0.27580197758E+03 0.  0.
         25    2    3    3    0    0  0.26886996327E+02 -0.43869412875E+02 -0.33877383830E+03  0.36319886073E+03  0.12040873292E+03 0.  0.
         25    2    3    3    0    0 -0.26886996327E+02  0.43869412875E+02 -0.62669171230E+03  0.64088801810E+03  0.12388508189E+03 0.  0.
          5    1    4    4  502    0  0.57902982597E+02 -0.64835531266E+02 -0.28116444280E+03  0.29433303485E+03  0.47000000000E+01 0.  1.
         -5    1    4    4    0  502 -0.31015986270E+02  0.20966118391E+02 -0.57609395497E+02  0.68865825880E+02  0.47000000000E+01 0.  1.
          5    1    5    5  503    0 -0.42947276156E+01  0.35223420511E+02 -0.61017116445E+03  0.61122015179E+03  0.47000000000E+01 0.  1.
         -5    1    5    5    0  503 -0.22592268711E+02  0.86459923644E+01 -0.16520547857E+02  0.29667866303E+02  0.47000000000E+01 0.  1.
<mgrwt>
<rscale>  0 0.27580198E+03</rscale>
<asrwt>0</asrwt>
<pdfrwt beam="1">  1        1 0.15150403E+00 0.27580198E+03</pdfrwt>
<pdfrwt beam="2">  1       -1 0.29708715E-02 0.27580198E+03</pdfrwt>
<totfact> 0.62796570E+03</totfact>
</mgrwt>
</event>
<event>
 9    1  0.2114844E-002  0.2752215E+03  0.7818608E-02  0.1098328E+00
         -2   -1    0    0    0  501 -0.00000000000E+00  0.00000000000E+00  0.16847466345E+02  0.16847466345E+02  0.00000000000E+00 0. -1.
          2   -1    0    0  501    0  0.00000000000E+00 -0.00000000000E+00 -0.11240096674E+04  0.11240096674E+04  0.00000000000E+00 0. -1.
         36    2    1    2    0    0  0.00000000000E+00  0.00000000000E+00 -0.11071622011E+04  0.11408571338E+04  0.27522147476E+03 0.  0.
         25    2    3    3    0    0 -0.36006459182E+02  0.22348281173E+02 -0.38659719297E+03  0.40848430152E+03  0.12492447399E+03 0.  0.
         25    2    3    3    0    0  0.36006459182E+02 -0.22348281173E+02 -0.72056500811E+03  0.73237283225E+03  0.12393596625E+03 0.  0.
          5    1    4    4  502    0 -0.72587457414E+02 -0.86255608722E-01 -0.32640771089E+03  0.33441445864E+03  0.47000000000E+01 0.  1.
         -5    1    4    4    0  502  0.36580998232E+02  0.22434536782E+02 -0.60189482076E+02  0.74069842884E+02  0.47000000000E+01 0.  1.
          5    1    5    5  503    0 -0.44171658168E+02  0.17188070578E+01 -0.18383455341E+03  0.18913308201E+03  0.47000000000E+01 0.  1.
         -5    1    5    5    0  503  0.80178117350E+02 -0.24067088231E+02 -0.53673045470E+03  0.54323975024E+03  0.47000000000E+01 0.  1.
<mgrwt>
<rscale>  0 0.27522147E+03</rscale>
<asrwt>0</asrwt>
<pdfrwt beam="1">  1        2 0.17292458E+00 0.27522147E+03</pdfrwt>
<pdfrwt beam="2">  1       -2 0.25919176E-02 0.27522147E+03</pdfrwt>
<totfact> 0.11626894E+04</totfact>
</mgrwt>
</event>
<event>
 9    1  0.2114844E-002  0.2735369E+03  0.7818608E-02  0.1099272E+00
         -3   -1    0    0    0  501 -0.00000000000E+00  0.00000000000E+00  0.11548840503E+03  0.11548840503E+03  0.00000000000E+00 0. -1.
          3   -1    0    0  501    0  0.00000000000E+00 -0.00000000000E+00 -0.16196961419E+03  0.16196961419E+03  0.00000000000E+00 0. -1.
         36    2    1    2    0    0  0.00000000000E+00  0.35527136788E-14 -0.46481209158E+02  0.27745801923E+03  0.27353692553E+03 0.  0.
         25    2    3    3    0    0 -0.63734224083E+00 -0.18836023743E+02 -0.73310499083E+02  0.14616042830E+03  0.12503295377E+03 0.  0.
         25    2    3    3    0    0  0.63734224083E+00  0.18836023743E+02  0.26829289925E+02  0.13129759093E+03  0.12713789596E+03 0.  0.
          5    1    4    4  502    0  0.33759702098E+02 -0.61633690407E+02 -0.49736093221E+02  0.86221796826E+02  0.47000000000E+01 0.  1.
         -5    1    4    4    0  502 -0.34397044339E+02  0.42797666664E+02 -0.23574405862E+02  0.59938631473E+02  0.47000000000E+01 0.  1.
          5    1    5    5  503    0  0.31040907072E+02  0.41239848798E+02  0.61073006303E+02  0.80101592616E+02  0.47000000000E+01 0.  1.
         -5    1    5    5    0  503 -0.30403564831E+02 -0.22403825055E+02 -0.34243716379E+02  0.51195998310E+02  0.47000000000E+01 0.  1.
<mgrwt>
<rscale>  0 0.27353693E+03</rscale>
<asrwt>0</asrwt>
<pdfrwt beam="1">  1        3 0.24918402E-01 0.27353693E+03</pdfrwt>
<pdfrwt beam="2">  1       -3 0.17767447E-01 0.27353693E+03</pdfrwt>
<totfact> 0.10624326E+03</totfact>
</mgrwt>
</event>
<event>
 9    1  0.2114844E-002  0.2744355E+03  0.7818608E-02  0.1098768E+00
          1   -1    0    0  501    0  0.00000000000E+00  0.00000000000E+00  0.45766267986E+03  0.45766267986E+03  0.00000000000E+00 0.  1.
         -1   -1    0    0    0  501 -0.00000000000E+00 -0.00000000000E+00 -0.41141022130E+02  0.41141022130E+02  0.00000000000E+00 0.  1.
         36    2    1    2    0    0  0.00000000000E+00  0.00000000000E+00  0.41652165773E+03  0.49880370199E+03  0.27443549654E+03 0.  0.
         25    2    3    3    0    0 -0.20329896560E+02  0.42391749248E+02  0.21882452139E+03  0.25737644541E+03  0.12707516827E+03 0.  0.
         25    2    3    3    0    0  0.20329896560E+02 -0.42391749248E+02  0.19769713635E+03  0.24142725659E+03  0.13035565736E+03 0.  0.
          5    1    4    4  502    0 -0.55254650477E+02 -0.21118301246E+02  0.69945508332E+02  0.91725259240E+02  0.47000000000E+01 0.  1.
         -5    1    4    4    0  502  0.34924753917E+02  0.63510050494E+02  0.14887901306E+03  0.16565118617E+03  0.47000000000E+01 0.  1.
          5    1    5    5  503    0  0.21526081977E+02  0.32640597346E+02  0.14332995947E+03  0.14864167680E+03  0.47000000000E+01 0.  1.
         -5    1    5    5    0  503 -0.11961854174E+01 -0.75032346594E+02  0.54367176879E+02  0.92785579789E+02  0.47000000000E+01 0.  1.
<mgrwt>
<rscale>  0 0.27443550E+03</rscale>
<asrwt>0</asrwt>
<pdfrwt beam="1">  1        1 0.70409639E-01 0.27443550E+03</pdfrwt>
<pdfrwt beam="2">  1       -1 0.63293884E-02 0.27443550E+03</pdfrwt>
<totfact> 0.62253381E+03</totfact>
</mgrwt>
</event>
<event>
 9    1  0.2114844E-002  0.2752013E+03  0.7818608E-02  0.1098339E+00
          2   -1    0    0  501    0  0.00000000000E+00  0.00000000000E+00  0.53398806564E+02  0.53398806564E+02  0.00000000000E+00 0. -1.
         -2   -1    0    0    0  501 -0.00000000000E+00 -0.00000000000E+00 -0.35457602550E+03  0.35457602550E+03  0.00000000000E+00 0. -1.
         36    2    1    2    0    0 -0.71054273576E-14  0.00000000000E+00 -0.30117721894E+03  0.40797483207E+03  0.27520128341E+03 0.  0.
         25    2    3    3    0    0 -0.24379539197E+02  0.16470755038E+02 -0.23261551967E+03  0.26639044261E+03  0.12644461325E+03 0.  0.
         25    2    3    3    0    0  0.24379539197E+02 -0.16470755038E+02 -0.68561699269E+02  0.14158438946E+03  0.12033197841E+03 0.  0.
          5    1    4    4  502    0  0.46505689795E+02  0.27039902892E+02 -0.68336540798E+02  0.87097120159E+02  0.47000000000E+01 0.  1.
         -5    1    4    4    0  502 -0.70885228992E+02 -0.10569147855E+02 -0.16427897887E+03  0.17929332245E+03  0.47000000000E+01 0.  1.
          5    1    5    5  503    0 -0.23724528255E+02 -0.26883510400E+02  0.19133686460E+02  0.40911664961E+02  0.47000000000E+01 0.  1.
         -5    1    5    5    0  503  0.48104067452E+02  0.10412755362E+02 -0.87695385729E+02  0.10067272450E+03  0.47000000000E+01 0.  1.
<mgrwt>
<rscale>  0 0.27520128E+03</rscale>
<asrwt>0</asrwt>
<pdfrwt beam="1">  1        2 0.82152009E-02 0.27520128E+03</pdfrwt>
<pdfrwt beam="2">  1       -2 0.54550158E-01 0.27520128E+03</pdfrwt>
<totfact> 0.26376061E+03</totfact>
</mgrwt>
</event>
<event>
 9    1  0.2114844E-002  0.2763363E+03  0.7818608E-02  0.1097707E+00
         -1   -1    0    0    0  501 -0.00000000000E+00  0.00000000000E+00  0.10249374070E+02  0.10249374070E+02  0.00000000000E+00 0.  1.
          1   -1    0    0  501    0  0.00000000000E+00 -0.00000000000E+00 -0.18625952422E+04  0.18625952422E+04  0.00000000000E+00 0.  1.
         36    2    1    2    0    0 -0.14210854715E-13  0.00000000000E+00 -0.18523458681E+04  0.18728446162E+04  0.27633628338E+03 0.  0.
         25    2    3    3    0    0 -0.47178528548E+02 -0.31413928788E+01 -0.11092489279E+04  0.11174209968E+04  0.12633613147E+03 0.  0.
         25    2    3    3    0    0  0.47178528548E+02  0.31413928788E+01 -0.74309694019E+03  0.75542361944E+03  0.12742095740E+03 0.  0.
          5    1    4    4  502    0  0.23815476643E+02 -0.10793925978E+02 -0.78147848352E+03  0.78192991756E+03  0.47000000000E+01 0.  1.
         -5    1    4    4    0  502 -0.70994005191E+02  0.76525330996E+01 -0.32777044439E+03  0.33549107925E+03  0.47000000000E+01 0.  1.
          5    1    5    5  503    0  0.67269338564E+02  0.14278897691E+01 -0.72437958364E+03  0.72751293732E+03  0.47000000000E+01 0. -1.
         -5    1    5    5    0  503 -0.20090810016E+02  0.17135031096E+01 -0.18717356551E+02  0.27910682118E+02  0.47000000000E+01 0. -1.
<mgrwt>
<rscale>  0 0.27633628E+03</rscale>
<asrwt>0</asrwt>
<pdfrwt beam="1">  1        1 0.28655305E+00 0.27633628E+03</pdfrwt>
<pdfrwt beam="2">  1       -1 0.15768271E-02 0.27633628E+03</pdfrwt>
<totfact> 0.40209134E+03</totfact>
</mgrwt>
</event>
<event>
 9    1  0.2114844E-002  0.2744023E+03  0.7818608E-02  0.1098786E+00
         -2   -1    0    0    0  501 -0.00000000000E+00  0.00000000000E+00  0.25626319845E+02  0.25626319845E+02  0.00000000000E+00 0. -1.
          2   -1    0    0  501    0  0.00000000000E+00 -0.00000000000E+00 -0.73456337023E+03  0.73456337023E+03  0.00000000000E+00 0. -1.
         36    2    1    2    0    0  0.14210854715E-13  0.17763568394E-14 -0.70893705038E+03  0.76018969007E+03  0.27440230226E+03 0.  0.
         25    2    3    3    0    0  0.56242826743E+02 -0.25846336190E+01 -0.24903389007E+03  0.28006881731E+03  0.11511180710E+03 0.  0.
         25    2    3    3    0    0 -0.56242826743E+02  0.25846336190E+01 -0.45990316031E+03  0.48012087276E+03  0.12583798992E+03 0.  0.
          5    1    4    4  502    0  0.87585727878E+02  0.13393796210E+02 -0.14339246387E+03  0.16862426337E+03  0.47000000000E+01 0. -1.
         -5    1    4    4    0  502 -0.31342901135E+02 -0.15978429829E+02 -0.10564142620E+03  0.11144455394E+03  0.47000000000E+01 0. -1.
          5    1    5    5  503    0 -0.28080251084E+02 -0.61357599655E+02 -0.23858982438E+03  0.24799284230E+03  0.47000000000E+01 0.  1.
         -5    1    5    5    0  503 -0.28162575659E+02  0.63942233274E+02 -0.22131333593E+03  0.23212803046E+03  0.47000000000E+01 0.  1.
<mgrwt>
<rscale>  0 0.27440230E+03</rscale>
<asrwt>0</asrwt>
<pdfrwt beam="1">  1        2 0.11300974E+00 0.27440230E+03</pdfrwt>
<pdfrwt beam="2">  1       -2 0.39425112E-02 0.27440230E+03</pdfrwt>
<totfact> 0.11057951E+04</totfact>
</mgrwt>
</event>
<event>
 9    1  0.2114844E-002  0.2748884E+03  0.7818608E-02  0.1098514E+00
         -1   -1    0    0    0  501 -0.00000000000E+00  0.00000000000E+00  0.59551555003E+01  0.59551555003E+01  0.00000000000E+00 0.  1.
          1   -1    0    0  501    0  0.00000000000E+00 -0.00000000000E+00 -0.31721941343E+04  0.31721941343E+04  0.00000000000E+00 0.  1.
         36    2    1    2    0    0  0.00000000000E+00 -0.71054273576E-14 -0.31662389788E+04  0.31781492898E+04  0.27488840897E+03 0.  0.
         25    2    3    3    0    0 -0.10369203836E+02  0.51547078839E+02 -0.16479674855E+04  0.16537880435E+04  0.12827095527E+03 0.  0.
         25    2    3    3    0    0  0.10369203836E+02 -0.51547078839E+02 -0.15182714934E+04  0.15243612463E+04  0.12555580436E+03 0.  0.
          5    1    4    4  502    0 -0.23614645938E+02 -0.39092236113E+02 -0.46034247280E+03  0.46262634673E+03  0.47000000000E+01 0. -1.
         -5    1    4    4    0  502  0.13245442102E+02  0.90639314952E+02 -0.11876250127E+04  0.11911616968E+04  0.47000000000E+01 0. -1.
          5    1    5    5  503    0 -0.48437771562E+02 -0.43694222842E+02 -0.48674825782E+03  0.49112255020E+03  0.47000000000E+01 0. -1.
         -5    1    5    5    0  503  0.58806975399E+02 -0.78528559978E+01 -0.10315232355E+04  0.10332386961E+04  0.47000000000E+01 0. -1.
<mgrwt>
<rscale>  0 0.27488841E+03</rscale>
<asrwt>0</asrwt>
<pdfrwt beam="1">  1        1 0.48802976E+00 0.27488841E+03</pdfrwt>
<pdfrwt beam="2">  1       -1 0.91617796E-03 0.27488841E+03</pdfrwt>
<totfact> 0.11669628E+03</totfact>
</mgrwt>
</event>
<event>
 9    1  0.2114844E-002  0.2744090E+03  0.7818608E-02  0.1098782E+00
         -2   -1    0    0    0  501 -0.00000000000E+00  0.00000000000E+00  0.83589281865E+02  0.83589281865E+02  0.00000000000E+00 0. -1.
          2   -1    0    0  501    0  0.00000000000E+00 -0.00000000000E+00 -0.22520921833E+03  0.22520921833E+03  0.00000000000E+00 0. -1.
         36    2    1    2    0    0 -0.17763568394E-14 -0.35527136788E-14 -0.14161993646E+03  0.30879850019E+03  0.27440901464E+03 0.  0.
         25    2    3    3    0    0  0.32143527278E+01  0.21165503049E+02 -0.20891314950E+02  0.13521399454E+03  0.13186381876E+03 0.  0.
         25    2    3    3    0    0 -0.32143527278E+01 -0.21165503049E+02 -0.12072862151E+03  0.17358450565E+03  0.12287338999E+03 0.  0.
          5    1    4    4  502    0 -0.64056170955E+02  0.13693990224E+02 -0.12482367147E+02  0.66847721691E+02  0.47000000000E+01 0.  1.
         -5    1    4    4    0  502  0.67270523682E+02  0.74715128245E+01 -0.84089478036E+01  0.68366272851E+02  0.47000000000E+01 0.  1.
          5    1    5    5  503    0  0.84991902939E+01  0.44991875985E+02 -0.86619207755E+02  0.98089154815E+02  0.47000000000E+01 0. -1.
         -5    1    5    5    0  503 -0.11713543022E+02 -0.66157379034E+02 -0.34109413755E+02  0.75495350834E+02  0.47000000000E+01 0. -1.
<mgrwt>
<rscale>  0 0.27440901E+03</rscale>
<asrwt>0</asrwt>
<pdfrwt beam="1">  1        2 0.34647571E-01 0.27440901E+03</pdfrwt>
<pdfrwt beam="2">  1       -2 0.12859890E-01 0.27440901E+03</pdfrwt>
<totfact> 0.65524591E+03</totfact>
</mgrwt>
</event>
<event>
 9    1  0.2114844E-002  0.2749942E+03  0.7818608E-02  0.1098455E+00
         -2   -1    0    0    0  501 -0.00000000000E+00  0.00000000000E+00  0.21858521454E+03  0.21858521454E+03  0.00000000000E+00 0.  1.
          2   -1    0    0  501    0  0.00000000000E+00 -0.00000000000E+00 -0.86490084947E+02  0.86490084947E+02  0.00000000000E+00 0.  1.
         36    2    1    2    0    0 -0.71054273576E-14  0.35527136788E-14  0.13209512959E+03  0.30507529949E+03  0.27499420920E+03 0.  0.
         25    2    3    3    0    0 -0.50695597541E+02 -0.26891010832E+02  0.61428320190E+02  0.14969722907E+03  0.12386545845E+03 0.  0.
         25    2    3    3    0    0  0.50695597541E+02  0.26891010832E+02  0.70666809403E+02  0.15537807042E+03  0.12591813508E+03 0.  0.
          5    1    4    4  502    0 -0.75445361279E+02 -0.41670255302E+02  0.77809090087E+02  0.11620997038E+03  0.47000000000E+01 0. -1.
         -5    1    4    4    0  502  0.24749763738E+02  0.14779244470E+02 -0.16380769897E+02  0.33487258691E+02  0.47000000000E+01 0. -1.
          5    1    5    5  503    0 -0.95572007050E+01 -0.19261107817E+02  0.76024896808E+02  0.79146732683E+02  0.47000000000E+01 0.  1.
         -5    1    5    5    0  503  0.60252798246E+02  0.46152118648E+02 -0.53580874050E+01  0.76231337735E+02  0.47000000000E+01 0.  1.
<mgrwt>
<rscale>  0 0.27499421E+03</rscale>
<asrwt>0</asrwt>
<pdfrwt beam="1">  1        2 0.13306167E-01 0.27499421E+03</pdfrwt>
<pdfrwt beam="2">  1       -2 0.33628494E-01 0.27499421E+03</pdfrwt>
<totfact> 0.37092492E+03</totfact>
</mgrwt>
</event>
<event>
 9    1  0.2114844E-002  0.2752780E+03  0.7818608E-02  0.1098296E+00
          2   -1    0    0  501    0  0.00000000000E+00  0.00000000000E+00  0.12426826295E+04  0.12426826295E+04  0.00000000000E+00 0. -1.
         -2   -1    0    0    0  501 -0.00000000000E+00 -0.00000000000E+00 -0.15244839109E+02  0.15244839109E+02  0.00000000000E+00 0. -1.
         36    2    1    2    0    0 -0.71054273576E-14 -0.35527136788E-14  0.12274377904E+04  0.12579274686E+04  0.27527801765E+03 0.  0.
         25    2    3    3    0    0  0.48765981587E+02  0.26873387143E+02  0.70704637547E+03  0.71991004911E+03  0.12351356947E+03 0.  0.
         25    2    3    3    0    0 -0.48765981587E+02 -0.26873387143E+02  0.52039141491E+03  0.53801741949E+03  0.12472056393E+03 0.  0.
          5    1    4    4  502    0  0.83235357717E+02 -0.76961441039E+01  0.51154389973E+03  0.51834988836E+03  0.47000000000E+01 0.  1.
         -5    1    4    4    0  502 -0.34469376129E+02  0.34569531247E+02  0.19550247574E+03  0.20156016075E+03  0.47000000000E+01 0.  1.
          5    1    5    5  503    0  0.40847221530E+02 -0.39580485057E+01  0.21334057991E+03  0.21730267990E+03  0.47000000000E+01 0.  1.
         -5    1    5    5    0  503 -0.89613203117E+02 -0.22915338637E+02  0.30705083501E+03  0.32071473960E+03  0.47000000000E+01 0.  1.
<mgrwt>
<rscale>  0 0.27527802E+03</rscale>
<asrwt>0</asrwt>
<pdfrwt beam="1">  1        2 0.19118186E+00 0.27527802E+03</pdfrwt>
<pdfrwt beam="2">  1       -2 0.23453608E-02 0.27527802E+03</pdfrwt>
<totfact> 0.11531324E+04</totfact>
</mgrwt>
</event>
<event>
 9    1  0.2114844E-002  0.2755100E+03  0.7818608E-02  0.1098167E+00
         -1   -1    0    0    0  501 -0.00000000000E+00  0.00000000000E+00  0.67509901140E+01  0.67509901140E+01  0.00000000000E+00 0.  1.
          1   -1    0    0  501    0  0.00000000000E+00 -0.00000000000E+00 -0.28109118587E+04  0.28109118587E+04  0.00000000000E+00 0.  1.
         36    2    1    2    0    0  0.00000000000E+00  0.35527136788E-14 -0.28041608686E+04  0.28176628488E+04  0.27550998653E+03 0.  0.
         25    2    3    3    0    0 -0.15817971182E+02 -0.31944155533E+02 -0.17804206307E+04  0.17857991239E+04  0.13382918699E+03 0.  0.
         25    2    3    3    0    0  0.15817971182E+02  0.31944155533E+02 -0.10237402379E+04  0.10318637250E+04  0.12420964099E+03 0.  0.
          5    1    4    4  502    0  0.32158737109E+02 -0.76660375318E+01 -0.12162699439E+03  0.12612758726E+03  0.47000000000E+01 0.  1.
         -5    1    4    4    0  502 -0.47976708291E+02 -0.24278118002E+02 -0.16587936363E+04  0.16596715366E+04  0.47000000000E+01 0.  1.
          5    1    5    5  503    0  0.62819050932E+02  0.46709192327E+02 -0.69677395001E+03  0.70117330898E+03  0.47000000000E+01 0. -1.
         -5    1    5    5    0  503 -0.47001079750E+02 -0.14765036793E+02 -0.32696628792E+03  0.33069041602E+03  0.47000000000E+01 0. -1.
<mgrwt>
<rscale>  0 0.27550999E+03</rscale>
<asrwt>0</asrwt>
<pdfrwt beam="1">  1        1 0.43244799E+00 0.27550999E+03</pdfrwt>
<pdfrwt beam="2">  1       -1 0.10386138E-02 0.27550999E+03</pdfrwt>
<totfact> 0.17419884E+03</totfact>
</mgrwt>
</event>
<event>
 9    1  0.2114844E-002  0.2729735E+03  0.7818608E-02  0.1099590E+00
         -2   -1    0    0    0  501 -0.00000000000E+00  0.00000000000E+00  0.13904807210E+02  0.13904807210E+02  0.00000000000E+00 0. -1.
          2   -1    0    0  501    0  0.00000000000E+00 -0.00000000000E+00 -0.13397264004E+04  0.13397264004E+04  0.00000000000E+00 0. -1.
         36    2    1    2    0    0  0.00000000000E+00  0.00000000000E+00 -0.13258215931E+04  0.13536312076E+04  0.27297353213E+03 0.  0.
         25    2    3    3    0    0  0.37850506918E+02 -0.36474545904E+02 -0.75578177998E+03  0.76748959330E+03  0.12276450425E+03 0.  0.
         25    2    3    3    0    0 -0.37850506918E+02  0.36474545904E+02 -0.57003981316E+03  0.58614161426E+03  0.12591088121E+03 0.  0.
          5    1    4    4  502    0 -0.45059626069E+02 -0.11377537222E+02 -0.27740274464E+03  0.28130800022E+03  0.47000000000E+01 0. -1.
         -5    1    4    4    0  502  0.82910132987E+02 -0.25097008682E+02 -0.47837903534E+03  0.48618159308E+03  0.47000000000E+01 0. -1.
          5    1    5    5  503    0 -0.33975393408E+02 -0.10169447089E+02 -0.38618435672E+02  0.52642364927E+02  0.47000000000E+01 0.  1.
         -5    1    5    5    0  503 -0.38751135098E+01  0.46643992993E+02 -0.53142137749E+03  0.53349924933E+03  0.47000000000E+01 0.  1.
<mgrwt>
<rscale>  0 0.27297353E+03</rscale>
<asrwt>0</asrwt>
<pdfrwt beam="1">  1        2 0.20611171E+00 0.27297353E+03</pdfrwt>
<pdfrwt beam="2">  1       -2 0.21392016E-02 0.27297353E+03</pdfrwt>
<totfact> 0.11664863E+04</totfact>
</mgrwt>
</event>
<event>
 9    1  0.2114844E-002  0.2751028E+03  0.7818608E-02  0.1098394E+00
          1   -1    0    0  501    0  0.00000000000E+00  0.00000000000E+00  0.17228795985E+03  0.17228795985E+03  0.00000000000E+00 0.  1.
         -1   -1    0    0    0  501 -0.00000000000E+00 -0.00000000000E+00 -0.10981842650E+03  0.10981842650E+03  0.00000000000E+00 0.  1.
         36    2    1    2    0    0 -0.71054273576E-14  0.00000000000E+00  0.62469533341E+02  0.28210638635E+03  0.27510283645E+03 0.  0.
         25    2    3    3    0    0  0.49657632734E+02  0.81170937693E+02  0.44610853740E+02  0.13628375614E+03  0.86767115320E+02 0.  0.
         25    2    3    3    0    0 -0.49657632734E+02 -0.81170937693E+02  0.17858679601E+02  0.14582263021E+03  0.10904451123E+03 0.  0.
          5    1    4    4  502    0 -0.11855959254E+02  0.43037149652E+02  0.45273172501E+02  0.63753511028E+02  0.47000000000E+01 0.  1.
         -5    1    4    4    0  502  0.61513591988E+02  0.38133788040E+02 -0.66231876127E+00  0.72530245110E+02  0.47000000000E+01 0.  1.
          5    1    5    5  503    0 -0.54153260939E+01 -0.53569646889E+02 -0.40411893110E+02  0.67485138580E+02  0.47000000000E+01 0. -1.
         -5    1    5    5    0  503 -0.44242306640E+02 -0.27601290804E+02  0.58270572712E+02  0.78337491631E+02  0.47000000000E+01 0. -1.
<mgrwt>
<rscale>  0 0.27510284E+03</rscale>
<asrwt>0</asrwt>
<pdfrwt beam="1">  1        1 0.26505840E-01 0.27510284E+03</pdfrwt>
<pdfrwt beam="2">  1       -1 0.16895143E-01 0.27510284E+03</pdfrwt>
<totfact> 0.46787853E+03</totfact>
</mgrwt>
</event>
<event>
 9    1  0.2114844E-002  0.2798891E+03  0.7818608E-02  0.1095750E+00
          1   -1    0    0  501    0  0.00000000000E+00  0.00000000000E+00  0.26854951243E+04  0.26854951243E+04  0.00000000000E+00 0. -1.
         -1   -1    0    0    0  501 -0.00000000000E+00 -0.00000000000E+00 -0.72926864975E+01  0.72926864975E+01  0.00000000000E+00 0. -1.
         36    2    1    2    0    0  0.28421709430E-13 -0.71054273576E-14  0.26782024378E+04  0.26927878108E+04  0.27988907826E+03 0.  0.
         25    2    3    3    0    0  0.65186682471E+02  0.26297663892E+01  0.13028599127E+04  0.13103399359E+04  0.12365506913E+03 0.  0.
         25    2    3    3    0    0 -0.65186682471E+02 -0.26297663892E+01  0.13753425251E+04  0.13824478749E+04  0.12385009627E+03 0.  0.
          5    1    4    4  502    0 -0.16776252157E+02 -0.37503488222E+02  0.62227174370E+03  0.62364426340E+03  0.47000000000E+01 0.  1.
         -5    1    4    4    0  502  0.81962934628E+02  0.40133254611E+02  0.68058816902E+03  0.68669567247E+03  0.47000000000E+01 0.  1.
          5    1    5    5  503    0  0.13710510591E+01  0.48791104839E+02  0.31841140691E+03  0.32216512186E+03  0.47000000000E+01 0. -1.
         -5    1    5    5    0  503 -0.66557733530E+02 -0.51420871228E+02  0.10569311181E+04  0.10602827530E+04  0.47000000000E+01 0. -1.
<mgrwt>
<rscale>  0 0.27988908E+03</rscale>
<asrwt>0</asrwt>
<pdfrwt beam="1">  1        1 0.41315231E+00 0.27988908E+03</pdfrwt>
<pdfrwt beam="2">  1       -1 0.11219539E-02 0.27988908E+03</pdfrwt>
<totfact> 0.18951095E+03</totfact>
</mgrwt>
</event>
<event>
 9    1  0.2114844E-002  0.2750905E+03  0.7818608E-02  0.1098401E+00
         -2   -1    0    0    0  501 -0.00000000000E+00  0.00000000000E+00  0.13989705575E+03  0.13989705575E+03  0.00000000000E+00 0. -1.
          2   -1    0    0  501    0  0.00000000000E+00 -0.00000000000E+00 -0.13523301036E+03  0.13523301036E+03  0.00000000000E+00 0. -1.
         36    2    1    2    0    0  0.17763568394E-14  0.00000000000E+00  0.46640453869E+01  0.27513006612E+03  0.27509053048E+03 0.  0.
         25    2    3    3    0    0 -0.60428657777E+01 -0.52876436914E+02 -0.18588823075E+02  0.13734909777E+03  0.12524694211E+03 0.  0.
         25    2    3    3    0    0  0.60428657777E+01  0.52876436914E+02  0.23252868462E+02  0.13778096835E+03  0.12494184863E+03 0.  0.
          5    1    4    4  502    0  0.29073478889E+01 -0.22949862957E+02  0.53591180115E+02  0.58559828105E+02  0.47000000000E+01 0. -1.
         -5    1    4    4    0  502 -0.89502136666E+01 -0.29926573957E+02 -0.72180003190E+02  0.78789269663E+02  0.47000000000E+01 0. -1.
          5    1    5    5  503    0  0.40878389203E+02 -0.25484356962E+02 -0.14276994067E+01  0.48421312242E+02  0.47000000000E+01 0.  1.
         -5    1    5    5    0  503 -0.34835523425E+02  0.78360793876E+02  0.24680567869E+02  0.89359656107E+02  0.47000000000E+01 0.  1.
<mgrwt>
<rscale>  0 0.27509053E+03</rscale>
<asrwt>0</asrwt>
<pdfrwt beam="1">  1        2 0.20805078E-01 0.27509053E+03</pdfrwt>
<pdfrwt beam="2">  1       -2 0.21522624E-01 0.27509053E+03</pdfrwt>
<totfact> 0.48772166E+03</totfact>
</mgrwt>
</event>
<event>
 9    1  0.2114844E-002  0.2742159E+03  0.7818608E-02  0.1098891E+00
         -1   -1    0    0    0  501 -0.00000000000E+00  0.00000000000E+00  0.57336460923E+02  0.57336460923E+02  0.00000000000E+00 0.  1.
          1   -1    0    0  501    0  0.00000000000E+00 -0.00000000000E+00 -0.32786440038E+03  0.32786440038E+03  0.00000000000E+00 0.  1.
         36    2    1    2    0    0  0.00000000000E+00  0.00000000000E+00 -0.27052793945E+03  0.38520086130E+03  0.27421585935E+03 0.  0.
         25    2    3    3    0    0 -0.57083184834E+02  0.71811351142E+01 -0.13963955506E+03  0.19641096659E+03  0.12557071222E+03 0.  0.
         25    2    3    3    0    0  0.57083184834E+02 -0.71811351142E+01 -0.13088838439E+03  0.18878989470E+03  0.12328745468E+03 0.  0.
          5    1    4    4  502    0  0.15307099910E+02  0.27433320832E+02 -0.11161912514E+03  0.11605090907E+03  0.47000000000E+01 0. -1.
         -5    1    4    4    0  502 -0.72390284744E+02 -0.20252185718E+02 -0.28020429923E+02  0.80360057521E+02  0.47000000000E+01 0. -1.
          5    1    5    5  503    0 -0.45085429345E+01  0.24507120194E+02 -0.11474438385E+03  0.11751293344E+03  0.47000000000E+01 0. -1.
         -5    1    5    5    0  503  0.61591727768E+02 -0.31688255308E+02 -0.16144000536E+02  0.71276961265E+02  0.47000000000E+01 0. -1.
<mgrwt>
<rscale>  0 0.27421586E+03</rscale>
<asrwt>0</asrwt>
<pdfrwt beam="1">  1        1 0.50440677E-01 0.27421586E+03</pdfrwt>
<pdfrwt beam="2">  1       -1 0.88209940E-02 0.27421586E+03</pdfrwt>
<totfact> 0.57564745E+03</totfact>
</mgrwt>
</event>
<event>
 9    1  0.2114844E-002  0.2752598E+03  0.7818608E-02  0.1098306E+00
         -2   -1    0    0    0  501 -0.00000000000E+00  0.00000000000E+00  0.25731338655E+02  0.25731338655E+02  0.00000000000E+00 0.  1.
          2   -1    0    0  501    0  0.00000000000E+00 -0.00000000000E+00 -0.73614448064E+03  0.73614448064E+03  0.00000000000E+00 0.  1.
         36    2    1    2    0    0  0.71054273576E-14 -0.14210854715E-13 -0.71041314199E+03  0.76187581930E+03  0.27525975318E+03 0.  0.
         25    2    3    3    0    0  0.16350604954E+02 -0.53275197067E+02 -0.29835214988E+03  0.32787060503E+03  0.12401427096E+03 0.  0.
         25    2    3    3    0    0 -0.16350604954E+02  0.53275197067E+02 -0.41206099211E+03  0.43400521427E+03  0.12434096625E+03 0.  0.
          5    1    4    4  502    0 -0.33574790316E+02  0.21712676482E+02 -0.53689624746E+02  0.67107173016E+02  0.47000000000E+01 0. -1.
         -5    1    4    4    0  502  0.49925395270E+02 -0.74987873549E+02 -0.24466252513E+03  0.26076343202E+03  0.47000000000E+01 0. -1.
          5    1    5    5  503    0  0.37280785995E+01 -0.28147256053E+02 -0.25586326883E+02  0.38508657685E+02  0.47000000000E+01 0.  1.
         -5    1    5    5    0  503 -0.20078683553E+02  0.81422453120E+02 -0.38647466523E+03  0.39549655658E+03  0.47000000000E+01 0.  1.
<mgrwt>
<rscale>  0 0.27525975E+03</rscale>
<asrwt>0</asrwt>
<pdfrwt beam="1">  1        2 0.11325298E+00 0.27525975E+03</pdfrwt>
<pdfrwt beam="2">  1       -2 0.39586681E-02 0.27525975E+03</pdfrwt>
<totfact> 0.10962294E+04</totfact>
</mgrwt>
</event>
<event>
 9    1  0.2114844E-002  0.2756091E+03  0.7818608E-02  0.1098112E+00
          2   -1    0    0  501    0  0.00000000000E+00  0.00000000000E+00  0.28026776379E+03  0.28026776379E+03  0.00000000000E+00 0.  1.
         -2   -1    0    0    0  501 -0.00000000000E+00 -0.00000000000E+00 -0.67756982871E+02  0.67756982871E+02  0.00000000000E+00 0.  1.
         36    2    1    2    0    0 -0.71054273576E-14 -0.71054273576E-14  0.21251078092E+03  0.34802474666E+03  0.27560912953E+03 0.  0.
         25    2    3    3    0    0 -0.26911104098E+02 -0.53972515177E+02  0.11605637931E+03  0.18045216329E+03  0.12432481708E+03 0.  0.
         25    2    3    3    0    0  0.26911104098E+02  0.53972515177E+02  0.96454401612E+02  0.16757258337E+03  0.12304421639E+03 0.  0.
          5    1    4    4  502    0 -0.61756362856E+01 -0.34995895682E+02  0.13919909290E+03  0.14374049069E+03  0.47000000000E+01 0.  1.
         -5    1    4    4    0  502 -0.20735467812E+02 -0.18976619495E+02 -0.23142713598E+02  0.36711672606E+02  0.47000000000E+01 0.  1.
          5    1    5    5  503    0 -0.16993038511E+02  0.74154562724E+02  0.23169345347E+02  0.79665369480E+02  0.47000000000E+01 0.  1.
         -5    1    5    5    0  503  0.43904142608E+02 -0.20182047547E+02  0.73285056265E+02  0.87907213886E+02  0.47000000000E+01 0.  1.
<mgrwt>
<rscale>  0 0.27560913E+03</rscale>
<asrwt>0</asrwt>
<pdfrwt beam="1">  1        2 0.43118117E-01 0.27560913E+03</pdfrwt>
<pdfrwt beam="2">  1       -2 0.10424151E-01 0.27560913E+03</pdfrwt>
<totfact> 0.72552115E+03</totfact>
</mgrwt>
</event>
<event>
 9    1  0.2114844E-002  0.2746892E+03  0.7818608E-02  0.1098625E+00
         -2   -1    0    0    0  501 -0.00000000000E+00  0.00000000000E+00  0.14719427068E+02  0.14719427068E+02  0.00000000000E+00 0. -1.
          2   -1    0    0  501    0  0.00000000000E+00 -0.00000000000E+00 -0.12815401105E+04  0.12815401105E+04  0.00000000000E+00 0. -1.
         36    2    1    2    0    0  0.00000000000E+00  0.00000000000E+00 -0.12668206834E+04  0.12962595376E+04  0.27468917846E+03 0.  0.
         25    2    3    3    0    0  0.50243235872E+02 -0.16160213495E+02 -0.79476602336E+03  0.80524805033E+03  0.11826180886E+03 0.  0.
         25    2    3    3    0    0 -0.50243235872E+02  0.16160213495E+02 -0.47205466007E+03  0.49101148723E+03  0.12438305047E+03 0.  0.
          5    1    4    4  502    0  0.75572490845E+02 -0.85794063275E+01 -0.29245827651E+03  0.30222299893E+03  0.47000000000E+01 0.  1.
         -5    1    4    4    0  502 -0.25329254972E+02 -0.75808071671E+01 -0.50230774685E+03  0.50302505140E+03  0.47000000000E+01 0.  1.
          5    1    5    5  503    0  0.41737303903E+02  0.35431724988E+01 -0.14946197912E+03  0.15529175706E+03  0.47000000000E+01 0.  1.
         -5    1    5    5    0  503 -0.91980539776E+02  0.12617040996E+02 -0.32259268096E+03  0.33571973017E+03  0.47000000000E+01 0.  1.
<mgrwt>
<rscale>  0 0.27468918E+03</rscale>
<asrwt>0</asrwt>
<pdfrwt beam="1">  1        2 0.19715997E+00 0.27468918E+03</pdfrwt>
<pdfrwt beam="2">  1       -2 0.22645277E-02 0.27468918E+03</pdfrwt>
<totfact> 0.11551333E+04</totfact>
</mgrwt>
</event>
<event>
 9    1  0.2114844E-002  0.2821150E+03  0.7818608E-02  0.1094539E+00
          2   -1    0    0  501    0  0.00000000000E+00  0.00000000000E+00  0.45728063710E+02  0.45728063710E+02  0.00000000000E+00 0.  1.
         -2   -1    0    0    0  501 -0.00000000000E+00 -0.00000000000E+00 -0.43512044939E+03  0.43512044939E+03  0.00000000000E+00 0.  1.
         36    2    1    2    0    0  0.71054273576E-14  0.35527136788E-14 -0.38939238568E+03  0.48084851310E+03  0.28211498104E+03 0.  0.
         25    2    3    3    0    0  0.25473381247E+02  0.17395158918E+02 -0.29287995080E+03  0.31931992663E+03  0.12343040654E+03 0.  0.
         25    2    3    3    0    0 -0.25473381247E+02 -0.17395158918E+02 -0.96512434879E+02  0.16152858647E+03  0.12579884520E+03 0.  0.
          5    1    4    4  502    0  0.75162682999E+02  0.17294424493E+02 -0.17375281894E+03  0.19015955964E+03  0.47000000000E+01 0. -1.
         -5    1    4    4    0  502 -0.49689301752E+02  0.10073442501E+00 -0.11912713186E+03  0.12916036699E+03  0.47000000000E+01 0. -1.
          5    1    5    5  503    0 -0.16142102205E+02  0.50236268539E+02 -0.70797451173E+02  0.88422956481E+02  0.47000000000E+01 0.  1.
         -5    1    5    5    0  503 -0.93312790416E+01 -0.67631427457E+02 -0.25714983706E+02  0.73105629984E+02  0.47000000000E+01 0.  1.
<mgrwt>
<rscale>  0 0.28211498E+03</rscale>
<asrwt>0</asrwt>
<pdfrwt beam="1">  1        2 0.70350868E-02 0.28211498E+03</pdfrwt>
<pdfrwt beam="2">  1       -2 0.66941607E-01 0.28211498E+03</pdfrwt>
<totfact> 0.21041473E+03</totfact>
</mgrwt>
</event>
<event>
 9    1  0.2114844E-002  0.2751826E+03  0.7818608E-02  0.1098350E+00
          1   -1    0    0  501    0  0.00000000000E+00  0.00000000000E+00  0.23620239110E+02  0.23620239110E+02  0.00000000000E+00 0.  1.
         -1   -1    0    0    0  501 -0.00000000000E+00 -0.00000000000E+00 -0.80148898991E+03  0.80148898991E+03  0.00000000000E+00 0.  1.
         36    2    1    2    0    0  0.00000000000E+00  0.00000000000E+00 -0.77786875080E+03  0.82510922902E+03  0.27518256911E+03 0.  0.
         25    2    3    3    0    0  0.33649464892E+01  0.12484692246E+02 -0.20699019402E+03  0.24103511931E+03  0.12282425621E+03 0.  0.
         25    2    3    3    0    0 -0.33649464892E+01 -0.12484692246E+02 -0.57087855678E+03  0.58407410971E+03  0.12277234476E+03 0.  0.
          5    1    4    4  502    0 -0.10358900645E+02 -0.46336168935E+02 -0.36415165438E+02  0.60020843446E+02  0.47000000000E+01 0. -1.
         -5    1    4    4    0  502  0.13723847135E+02  0.58820861181E+02 -0.17057502858E+03  0.18101427586E+03  0.47000000000E+01 0. -1.
          5    1    5    5  503    0 -0.10698302209E+01  0.39803486305E+02 -0.45586045746E+03  0.45762026696E+03  0.47000000000E+01 0. -1.
         -5    1    5    5    0  503 -0.22951162683E+01 -0.52288178551E+02 -0.11501809932E+03  0.12645384275E+03  0.47000000000E+01 0. -1.
<mgrwt>
<rscale>  0 0.27518257E+03</rscale>
<asrwt>0</asrwt>
<pdfrwt beam="1">  1        1 0.36338829E-02 0.27518257E+03</pdfrwt>
<pdfrwt beam="2">  1       -1 0.12330600E+00 0.27518257E+03</pdfrwt>
<totfact> 0.16109138E+03</totfact>
</mgrwt>
</event>
<event>
 9    1  0.2114844E-002  0.2753055E+03  0.7818608E-02  0.1098281E+00
         -1   -1    0    0    0  501 -0.00000000000E+00  0.00000000000E+00  0.18837385851E+02  0.18837385851E+02  0.00000000000E+00 0.  1.
          1   -1    0    0  501    0  0.00000000000E+00 -0.00000000000E+00 -0.10058871381E+04  0.10058871381E+04  0.00000000000E+00 0.  1.
         36    2    1    2    0    0 -0.28421709430E-13 -0.35527136788E-14 -0.98704975228E+03  0.10247245240E+04  0.27530553313E+03 0.  0.
         25    2    3    3    0    0 -0.64537277715E+02 -0.14126532346E+02 -0.64585023023E+03  0.66112615181E+03  0.12490256042E+03 0.  0.
         25    2    3    3    0    0  0.64537277715E+02  0.14126532346E+02 -0.34119952206E+03  0.36359837217E+03  0.10687395970E+03 0.  0.
          5    1    4    4  502    0 -0.95184886384E+02  0.17172481960E+02 -0.41996794909E+03  0.43098749982E+03  0.47000000000E+01 0.  1.
         -5    1    4    4    0  502  0.30647608669E+02 -0.31299014305E+02 -0.22588228113E+03  0.23013865200E+03  0.47000000000E+01 0.  1.
          5    1    5    5  503    0 -0.64054211643E+01 -0.24289043091E+02 -0.20177527328E+02  0.32560860609E+02  0.47000000000E+01 0. -1.
         -5    1    5    5    0  503  0.70942698879E+02  0.38415575436E+02 -0.32102199473E+03  0.33103751156E+03  0.47000000000E+01 0. -1.
<mgrwt>
<rscale>  0 0.27530553E+03</rscale>
<asrwt>0</asrwt>
<pdfrwt beam="1">  1        1 0.15475187E+00 0.27530553E+03</pdfrwt>
<pdfrwt beam="2">  1       -1 0.28980594E-02 0.27530553E+03</pdfrwt>
<totfact> 0.62802587E+03</totfact>
</mgrwt>
</event>
<event>
 9    1  0.2114844E-002  0.2753745E+03  0.7818608E-02  0.1098242E+00
         -1   -1    0    0    0  501 -0.00000000000E+00  0.00000000000E+00  0.31452278974E+02  0.31452278974E+02  0.00000000000E+00 0. -1.
          1   -1    0    0  501    0  0.00000000000E+00 -0.00000000000E+00 -0.60274727228E+03  0.60274727228E+03  0.00000000000E+00 0. -1.
         36    2    1    2    0    0 -0.71054273576E-14  0.14210854715E-13 -0.57129499331E+03  0.63419955126E+03  0.27537447491E+03 0.  0.
         25    2    3    3    0    0 -0.43034758988E+02  0.65386917203E+02 -0.25768586383E+03  0.29112194043E+03  0.11055559851E+03 0.  0.
         25    2    3    3    0    0  0.43034758988E+02 -0.65386917203E+02 -0.31360912948E+03  0.34307761082E+03  0.11499618051E+03 0.  0.
          5    1    4    4  502    0 -0.46935070257E+02  0.11125078384E+02 -0.30040360445E+02  0.57019132269E+02  0.47000000000E+01 0.  1.
         -5    1    4    4    0  502  0.39003112688E+01  0.54261838819E+02 -0.22764550338E+03  0.23410280816E+03  0.47000000000E+01 0.  1.
          5    1    5    5  503    0 -0.43732904411E+01  0.15323865518E+02 -0.91438503754E+00  0.16639489887E+02  0.47000000000E+01 0.  1.
         -5    1    5    5    0  503  0.47408049429E+02 -0.80710782721E+02 -0.31269474444E+03  0.32643812094E+03  0.47000000000E+01 0.  1.
<mgrwt>
<rscale>  0 0.27537447E+03</rscale>
<asrwt>0</asrwt>
<pdfrwt beam="1">  1        1 0.92730353E-01 0.27537447E+03</pdfrwt>
<pdfrwt beam="2">  1       -1 0.48388120E-02 0.27537447E+03</pdfrwt>
<totfact> 0.64380748E+03</totfact>
</mgrwt>
</event>
<event>
 9    1  0.2114844E-002  0.2742622E+03  0.7818608E-02  0.1098865E+00
         -2   -1    0    0    0  501 -0.00000000000E+00  0.00000000000E+00  0.56742358933E+01  0.56742358933E+01  0.00000000000E+00 0.  1.
          2   -1    0    0  501    0  0.00000000000E+00 -0.00000000000E+00 -0.33140912453E+04  0.33140912453E+04  0.00000000000E+00 0.  1.
         36    2    1    2    0    0  0.71054273576E-14  0.35527136788E-14 -0.33084170094E+04  0.33197654812E+04  0.27426217747E+03 0.  0.
         25    2    3    3    0    0 -0.47226189883E+02  0.21198497183E+02 -0.15407723089E+04  0.15468359101E+04  0.12665834200E+03 0.  0.
         25    2    3    3    0    0  0.47226189883E+02 -0.21198497183E+02 -0.17676447005E+04  0.17729295711E+04  0.12661669537E+03 0.  0.
          5    1    4    4  502    0 -0.75752399672E+02  0.37226626539E+02 -0.13858601361E+04  0.13884360463E+04  0.47000000000E+01 0. -1.
         -5    1    4    4    0  502  0.28526209790E+02 -0.16028129355E+02 -0.15491217283E+03  0.15839986384E+03  0.47000000000E+01 0. -1.
          5    1    5    5  503    0  0.10882255481E+02 -0.23481423362E+02 -0.68326927047E+02  0.73215160228E+02  0.47000000000E+01 0. -1.
         -5    1    5    5    0  503  0.36343934402E+02  0.22829261790E+01 -0.16993177735E+04  0.16997144109E+04  0.47000000000E+01 0. -1.
<mgrwt>
<rscale>  0 0.27426218E+03</rscale>
<asrwt>0</asrwt>
<pdfrwt beam="1">  1        2 0.50985919E+00 0.27426218E+03</pdfrwt>
<pdfrwt beam="2">  1       -2 0.87296109E-03 0.27426218E+03</pdfrwt>
<totfact> 0.34755251E+03</totfact>
</mgrwt>
</event>
<event>
 9    1  0.2114844E-002  0.2749177E+03  0.7818608E-02  0.1098498E+00
         -2   -1    0    0    0  501 -0.00000000000E+00  0.00000000000E+00  0.94353119536E+01  0.94353119536E+01  0.00000000000E+00 0. -1.
          2   -1    0    0  501    0  0.00000000000E+00 -0.00000000000E+00 -0.20025771329E+04  0.20025771329E+04  0.00000000000E+00 0. -1.
         36    2    1    2    0    0  0.00000000000E+00  0.14210854715E-13 -0.19931418209E+04  0.20120124448E+04  0.27491773286E+03 0.  0.
         25    2    3    3    0    0 -0.77533242927E+01  0.70122105407E+02 -0.12237493127E+04  0.12322080288E+04  0.12568620494E+03 0.  0.
         25    2    3    3    0    0  0.77533242927E+01 -0.70122105407E+02 -0.76939250817E+03  0.77980441602E+03  0.10560715839E+03 0.  0.
          5    1    4    4  502    0 -0.26773182887E+02 -0.33363690906E+01 -0.86771199631E+03  0.86814407400E+03  0.47000000000E+01 0.  1.
         -5    1    4    4    0  502  0.19019858594E+02  0.73458474497E+02 -0.35603731642E+03  0.36406395480E+03  0.47000000000E+01 0.  1.
          5    1    5    5  503    0  0.27907324922E+02  0.10336094280E+02 -0.40239374698E+03  0.40352010017E+03  0.47000000000E+01 0.  1.
         -5    1    5    5    0  503 -0.20154000630E+02 -0.80458199687E+02 -0.36699876119E+03  0.37628431585E+03  0.47000000000E+01 0.  1.
<mgrwt>
<rscale>  0 0.27491773E+03</rscale>
<asrwt>0</asrwt>
<pdfrwt beam="1">  1        2 0.30808866E+00 0.27491773E+03</pdfrwt>
<pdfrwt beam="2">  1       -2 0.14515871E-02 0.27491773E+03</pdfrwt>
<totfact> 0.91678141E+03</totfact>
</mgrwt>
</event>
<event>
 9    1  0.2114844E-002  0.2745565E+03  0.7818608E-02  0.1098700E+00
          2   -1    0    0  501    0  0.00000000000E+00  0.00000000000E+00  0.58989612705E+02  0.58989612705E+02  0.00000000000E+00 0.  1.
         -2   -1    0    0    0  501 -0.00000000000E+00 -0.00000000000E+00 -0.31946852545E+03  0.31946852545E+03  0.00000000000E+00 0.  1.
         36    2    1    2    0    0  0.00000000000E+00  0.71054273576E-14 -0.26047891274E+03  0.37845813815E+03  0.27455654855E+03 0.  0.
         25    2    3    3    0    0 -0.40677906634E+02 -0.43839290275E+02 -0.12147659277E+03  0.18114159626E+03  0.12032929754E+03 0.  0.
         25    2    3    3    0    0  0.40677906634E+02  0.43839290275E+02 -0.13900231998E+03  0.19731654189E+03  0.12663173886E+03 0.  0.
          5    1    4    4  502    0 -0.61994342959E+02 -0.70807241694E+02 -0.10944289803E+03  0.14441884214E+03  0.47000000000E+01 0.  1.
         -5    1    4    4    0  502  0.21316436325E+02  0.26967951418E+02 -0.12033694735E+02  0.36722754122E+02  0.47000000000E+01 0.  1.
          5    1    5    5  503    0  0.13022977895E+02  0.17882549161E+02  0.22172988660E+02  0.31671989894E+02  0.47000000000E+01 0.  1.
         -5    1    5    5    0  503  0.27654928739E+02  0.25956741115E+02 -0.16117530864E+03  0.16564455200E+03  0.47000000000E+01 0.  1.
<mgrwt>
<rscale>  0 0.27455655E+03</rscale>
<asrwt>0</asrwt>
<pdfrwt beam="1">  1        2 0.90753253E-02 0.27455655E+03</pdfrwt>
<pdfrwt beam="2">  1       -2 0.49149003E-01 0.27455655E+03</pdfrwt>
<totfact> 0.28682070E+03</totfact>
</mgrwt>
</event>
<event>
 9    1  0.2114844E-002  0.2739812E+03  0.7818608E-02  0.1099022E+00
          1   -1    0    0  501    0  0.00000000000E+00  0.00000000000E+00  0.11322652735E+03  0.11322652735E+03  0.00000000000E+00 0.  1.
         -1   -1    0    0    0  501 -0.00000000000E+00 -0.00000000000E+00 -0.16574231578E+03  0.16574231578E+03  0.00000000000E+00 0.  1.
         36    2    1    2    0    0  0.00000000000E+00 -0.71054273576E-14 -0.52515788435E+02  0.27896884313E+03  0.27398121725E+03 0.  0.
         25    2    3    3    0    0 -0.58676904576E+02  0.16031916288E+02 -0.39636197413E+02  0.14115253607E+03  0.12104961306E+03 0.  0.
         25    2    3    3    0    0  0.58676904576E+02 -0.16031916288E+02 -0.12879591023E+02  0.13781630706E+03  0.12299369560E+03 0.  0.
          5    1    4    4  502    0 -0.77563560196E+02  0.51900602202E+02 -0.18740804857E+02  0.95305226226E+02  0.47000000000E+01 0.  1.
         -5    1    4    4    0  502  0.18886655621E+02 -0.35868685914E+02 -0.20895392555E+02  0.45847309842E+02  0.47000000000E+01 0.  1.
          5    1    5    5  503    0 -0.49402269478E+01 -0.54510598700E+01  0.48130116212E+02  0.48915416615E+02  0.47000000000E+01 0. -1.
         -5    1    5    5    0  503  0.63617131524E+02 -0.10580856418E+02 -0.61009707235E+02  0.88900890449E+02  0.47000000000E+01 0. -1.
<mgrwt>
<rscale>  0 0.27398122E+03</rscale>
<asrwt>0</asrwt>
<pdfrwt beam="1">  1        1 0.17419466E-01 0.27398122E+03</pdfrwt>
<pdfrwt beam="2">  1       -1 0.25498818E-01 0.27398122E+03</pdfrwt>
<totfact> 0.40954276E+03</totfact>
</mgrwt>
</event>
<event>
 9    1  0.2114844E-002  0.2757562E+03  0.7818608E-02  0.1098030E+00
          2   -1    0    0  501    0  0.00000000000E+00  0.00000000000E+00  0.57490085398E+02  0.57490085398E+02  0.00000000000E+00 0.  1.
         -2   -1    0    0    0  501 -0.00000000000E+00 -0.00000000000E+00 -0.33067209839E+03  0.33067209839E+03  0.00000000000E+00 0.  1.
         36    2    1    2    0    0  0.00000000000E+00  0.35527136788E-14 -0.27318201299E+03  0.38816218379E+03  0.27575617618E+03 0.  0.
         25    2    3    3    0    0 -0.48535643395E+02 -0.81654169404E+01 -0.98699328119E+02  0.16789453969E+03  0.12658845276E+03 0.  0.
         25    2    3    3    0    0  0.48535643395E+02  0.81654169404E+01 -0.17448268487E+03  0.22026764410E+03  0.12510493596E+03 0.  0.
          5    1    4    4  502    0  0.12221657004E+02 -0.15043476710E+02  0.23709899608E+02  0.30982647254E+02  0.47000000000E+01 0.  1.
         -5    1    4    4    0  502 -0.60757300399E+02  0.68780597698E+01 -0.12240922773E+03  0.13691189244E+03  0.47000000000E+01 0.  1.
          5    1    5    5  503    0  0.75244949521E+02 -0.33213827330E+02 -0.87366851281E+02  0.12008337711E+03  0.47000000000E+01 0. -1.
         -5    1    5    5    0  503 -0.26709306126E+02  0.41379244270E+02 -0.87115833593E+02  0.10018426699E+03  0.47000000000E+01 0. -1.
<mgrwt>
<rscale>  0 0.27575618E+03</rscale>
<asrwt>0</asrwt>
<pdfrwt beam="1">  1        2 0.88446285E-02 0.27575618E+03</pdfrwt>
<pdfrwt beam="2">  1       -2 0.50872630E-01 0.27575618E+03</pdfrwt>
<totfact> 0.27660266E+03</totfact>
</mgrwt>
</event>
<event>
 9    1  0.2114844E-002  0.2754242E+03  0.7818608E-02  0.1098215E+00
         -2   -1    0    0    0  501 -0.00000000000E+00  0.00000000000E+00  0.95528912257E+01  0.95528912257E+01  0.00000000000E+00 0.  1.
          2   -1    0    0  501    0  0.00000000000E+00 -0.00000000000E+00 -0.19852232571E+04  0.19852232571E+04  0.00000000000E+00 0.  1.
         36    2    1    2    0    0  0.00000000000E+00  0.00000000000E+00 -0.19756703659E+04  0.19947761484E+04  0.27542419526E+03 0.  0.
         25    2    3    3    0    0 -0.31215405674E+02  0.44753404228E+02 -0.11707965140E+04  0.11785723728E+04  0.12365715512E+03 0.  0.
         25    2    3    3    0    0  0.31215405674E+02 -0.44753404228E+02 -0.80487385187E+03  0.81620377551E+03  0.12405408899E+03 0.  0.
          5    1    4    4  502    0  0.24701732044E+02  0.54218275889E+02 -0.29865530481E+03  0.30457655540E+03  0.47000000000E+01 0.  1.
         -5    1    4    4    0  502 -0.55917137718E+02 -0.94648716614E+01 -0.87214120923E+03  0.87399581745E+03  0.47000000000E+01 0.  1.
          5    1    5    5  503    0 -0.14114860660E+02 -0.64824130514E+02 -0.23714025693E+03  0.24629045585E+03  0.47000000000E+01 0. -1.
         -5    1    5    5    0  503  0.45330266334E+02  0.20070726286E+02 -0.56773359494E+03  0.56991331966E+03  0.47000000000E+01 0. -1.
<mgrwt>
<rscale>  0 0.27542420E+03</rscale>
<asrwt>0</asrwt>
<pdfrwt beam="1">  1        2 0.30541880E+00 0.27542420E+03</pdfrwt>
<pdfrwt beam="2">  1       -2 0.14696764E-02 0.27542420E+03</pdfrwt>
<totfact> 0.91946995E+03</totfact>
</mgrwt>
</event>
<event>
 9    1  0.2114844E-002  0.2750506E+03  0.7818608E-02  0.1098423E+00
          2   -1    0    0  501    0  0.00000000000E+00  0.00000000000E+00  0.76651617181E+03  0.76651617181E+03  0.00000000000E+00 0. -1.
         -2   -1    0    0    0  501 -0.00000000000E+00 -0.00000000000E+00 -0.24674250450E+02  0.24674250450E+02  0.00000000000E+00 0. -1.
         36    2    1    2    0    0  0.00000000000E+00 -0.35527136788E-14  0.74184192136E+03  0.79119042226E+03  0.27505062805E+03 0.  0.
         25    2    3    3    0    0  0.35809165475E+02  0.30745463148E+02  0.27958353511E+03  0.30998916510E+03  0.12529465088E+03 0.  0.
         25    2    3    3    0    0 -0.35809165475E+02 -0.30745463148E+02  0.46225838625E+03  0.48120125716E+03  0.12507699387E+03 0.  0.
          5    1    4    4  502    0  0.59669517674E+02  0.27492230865E+02  0.60182500765E+02  0.89220499303E+02  0.47000000000E+01 0.  1.
         -5    1    4    4    0  502 -0.23860352199E+02  0.32532322830E+01  0.21940103434E+03  0.22076866580E+03  0.47000000000E+01 0.  1.
          5    1    5    5  503    0  0.20289885937E+02 -0.22340478806E+02  0.22907881331E+02  0.38179018998E+02  0.47000000000E+01 0. -1.
         -5    1    5    5    0  503 -0.56099051412E+02 -0.84049843424E+01  0.43935050492E+03  0.44302223816E+03  0.47000000000E+01 0. -1.
<mgrwt>
<rscale>  0 0.27505063E+03</rscale>
<asrwt>0</asrwt>
<pdfrwt beam="1">  1        2 0.11792555E+00 0.27505063E+03</pdfrwt>
<pdfrwt beam="2">  1       -2 0.37960391E-02 0.27505063E+03</pdfrwt>
<totfact> 0.11102852E+04</totfact>
</mgrwt>
</event>
<event>
 9    1  0.2114844E-002  0.2760947E+03  0.7818608E-02  0.1097841E+00
          2   -1    0    0  501    0  0.00000000000E+00  0.00000000000E+00  0.15651778727E+04  0.15651778727E+04  0.00000000000E+00 0.  1.
         -2   -1    0    0    0  501 -0.00000000000E+00 -0.00000000000E+00 -0.12175660978E+02  0.12175660978E+02  0.00000000000E+00 0.  1.
         36    2    1    2    0    0  0.53290705182E-14  0.35527136788E-14  0.15530022117E+04  0.15773535336E+04  0.27609473119E+03 0.  0.
         25    2    3    3    0    0  0.10102618596E+02 -0.15034518978E+02  0.42293439847E+03  0.44047018537E+03  0.12170611790E+03 0.  0.
         25    2    3    3    0    0 -0.10102618596E+02  0.15034518978E+02  0.11300678132E+04  0.11368833483E+04  0.12297310857E+03 0.  0.
          5    1    4    4  502    0 -0.10381505071E+02  0.45963157644E+02  0.93841133550E+02  0.10511249143E+03  0.47000000000E+01 0. -1.
         -5    1    4    4    0  502  0.20484123667E+02 -0.60997676622E+02  0.32909326492E+03  0.33535769395E+03  0.47000000000E+01 0. -1.
          5    1    5    5  503    0 -0.47922559315E+02  0.46799411128E+02  0.83291521261E+03  0.83561749501E+03  0.47000000000E+01 0.  1.
         -5    1    5    5    0  503  0.37819940719E+02 -0.31764892150E+02  0.29715260061E+03  0.30126585325E+03  0.47000000000E+01 0.  1.
<mgrwt>
<rscale>  0 0.27609473E+03</rscale>
<asrwt>0</asrwt>
<pdfrwt beam="1">  1        2 0.24079644E+00 0.27609473E+03</pdfrwt>
<pdfrwt beam="2">  1       -2 0.18731798E-02 0.27609473E+03</pdfrwt>
<totfact> 0.10722153E+04</totfact>
</mgrwt>
</event>
<event>
 9    1  0.2114844E-002  0.2742495E+03  0.7818608E-02  0.1098872E+00
          1   -1    0    0  501    0  0.00000000000E+00  0.00000000000E+00  0.10720436263E+03  0.10720436263E+03  0.00000000000E+00 0. -1.
         -1   -1    0    0    0  501 -0.00000000000E+00 -0.00000000000E+00 -0.17539576668E+03  0.17539576668E+03  0.00000000000E+00 0. -1.
         36    2    1    2    0    0  0.00000000000E+00  0.00000000000E+00 -0.68191404058E+02  0.28260012931E+03  0.27424945852E+03 0.  0.
         25    2    3    3    0    0 -0.19949122969E+02  0.58768109597E+02 -0.40273922388E+02  0.13896607099E+03  0.11763469662E+03 0.  0.
         25    2    3    3    0    0  0.19949122969E+02 -0.58768109597E+02 -0.27917481670E+02  0.14363405832E+03  0.12648991546E+03 0.  0.
          5    1    4    4  502    0  0.23105696526E+02  0.48280625074E+02  0.25534463409E+02  0.59489417471E+02  0.47000000000E+01 0.  1.
         -5    1    4    4    0  502 -0.43054819495E+02  0.10487484523E+02 -0.65808385798E+02  0.79476653520E+02  0.47000000000E+01 0.  1.
          5    1    5    5  503    0 -0.24359213463E+02 -0.84136821910E+02 -0.28887029482E+02  0.92352187597E+02  0.47000000000E+01 0.  1.
         -5    1    5    5    0  503  0.44308336432E+02  0.25368712314E+02  0.96954781263E+00  0.51281870722E+02  0.47000000000E+01 0.  1.
<mgrwt>
<rscale>  0 0.27424946E+03</rscale>
<asrwt>0</asrwt>
<pdfrwt beam="1">  1        1 0.16492979E-01 0.27424946E+03</pdfrwt>
<pdfrwt beam="2">  1       -1 0.26983964E-01 0.27424946E+03</pdfrwt>
<totfact> 0.40003849E+03</totfact>
</mgrwt>
</event>
<event>
 9    1  0.2114844E-002  0.2749174E+03  0.7818608E-02  0.1098498E+00
          2   -1    0    0  501    0  0.00000000000E+00  0.00000000000E+00  0.71073246312E+02  0.71073246312E+02  0.00000000000E+00 0. -1.
         -2   -1    0    0    0  501 -0.00000000000E+00 -0.00000000000E+00 -0.26585106689E+03  0.26585106689E+03  0.00000000000E+00 0. -1.
         36    2    1    2    0    0  0.00000000000E+00  0.00000000000E+00 -0.19477782058E+03  0.33692431320E+03  0.27491743022E+03 0.  0.
         25    2    3    3    0    0 -0.48757087090E+02 -0.19095495475E+02 -0.13531418697E+03  0.19109052303E+03  0.12435339684E+03 0.  0.
         25    2    3    3    0    0  0.48757087090E+02  0.19095495475E+02 -0.59463633609E+02  0.14583379017E+03  0.12243234518E+03 0.  0.
          5    1    4    4  502    0  0.32571057606E+02 -0.35094023270E+02 -0.72389963518E+02  0.86918703862E+02  0.47000000000E+01 0. -1.
         -5    1    4    4    0  502 -0.81328144696E+02  0.15998527795E+02 -0.62924223448E+02  0.10417181916E+03  0.47000000000E+01 0. -1.
          5    1    5    5  503    0 -0.30480533373E+02 -0.13323483656E+02  0.10469039806E+02  0.35189045538E+02  0.47000000000E+01 0.  1.
         -5    1    5    5    0  503  0.79237620463E+02  0.32418979131E+02 -0.69932673415E+02  0.11064474464E+03  0.47000000000E+01 0.  1.
<mgrwt>
<rscale>  0 0.27491743E+03</rscale>
<asrwt>0</asrwt>
<pdfrwt beam="1">  1        2 0.10934346E-01 0.27491743E+03</pdfrwt>
<pdfrwt beam="2">  1       -2 0.40900163E-01 0.27491743E+03</pdfrwt>
<totfact> 0.32571349E+03</totfact>
</mgrwt>
</event>
<event>
 9    1  0.2114844E-002  0.2751833E+03  0.7818608E-02  0.1098349E+00
          2   -1    0    0  501    0  0.00000000000E+00  0.00000000000E+00  0.41124647199E+03  0.41124647199E+03  0.00000000000E+00 0.  1.
         -2   -1    0    0    0  501 -0.00000000000E+00 -0.00000000000E+00 -0.46034359968E+02  0.46034359968E+02  0.00000000000E+00 0.  1.
         36    2    1    2    0    0  0.35527136788E-14 -0.14210854715E-13  0.36521211202E+03  0.45728083196E+03  0.27518334344E+03 0.  0.
         25    2    3    3    0    0 -0.90237868894E+01  0.48104323407E+02  0.18851684957E+03  0.23165198221E+03  0.12541365009E+03 0.  0.
         25    2    3    3    0    0  0.90237868894E+01 -0.48104323407E+02  0.17669526245E+03  0.22562884975E+03  0.13149793689E+03 0.  0.
          5    1    4    4  502    0 -0.61484274487E+02  0.50605696732E+02  0.92811564586E+02  0.12238189846E+03  0.47000000000E+01 0.  1.
         -5    1    4    4    0  502  0.52460487598E+02 -0.25013733253E+01  0.95705284985E+02  0.10927008374E+03  0.47000000000E+01 0.  1.
          5    1    5    5  503    0 -0.53459601533E+01  0.64284550417E+01  0.16811959742E+03  0.16839297301E+03  0.47000000000E+01 0. -1.
         -5    1    5    5    0  503  0.14369747043E+02 -0.54532778448E+02  0.85756650366E+01  0.57235876740E+02  0.47000000000E+01 0. -1.
<mgrwt>
<rscale>  0 0.27518334E+03</rscale>
<asrwt>0</asrwt>
<pdfrwt beam="1">  1        2 0.63268685E-01 0.27518334E+03</pdfrwt>
<pdfrwt beam="2">  1       -2 0.70822095E-02 0.27518334E+03</pdfrwt>
<totfact> 0.88025928E+03</totfact>
</mgrwt>
</event>
<event>
 9    1  0.2114844E-002  0.2743228E+03  0.7818608E-02  0.1098831E+00
         -2   -1    0    0    0  501 -0.00000000000E+00  0.00000000000E+00  0.30252532386E+03  0.30252532386E+03  0.00000000000E+00 0. -1.
          2   -1    0    0  501    0  0.00000000000E+00 -0.00000000000E+00 -0.62187351407E+02  0.62187351407E+02  0.00000000000E+00 0. -1.
         36    2    1    2    0    0  0.00000000000E+00 -0.71054273576E-14  0.24033797245E+03  0.36471267526E+03  0.27432279252E+03 0.  0.
         25    2    3    3    0    0 -0.53069590542E+02 -0.14748273725E+02  0.12513946282E+03  0.18553599038E+03  0.12541860130E+03 0.  0.
         25    2    3    3    0    0  0.53069590542E+02  0.14748273725E+02  0.11519850963E+03  0.17917668488E+03  0.12569683674E+03 0.  0.
          5    1    4    4  502    0 -0.55323559470E+02  0.40604999535E+02  0.10671760725E+03  0.12696534928E+03  0.47000000000E+01 0. -1.
         -5    1    4    4    0  502  0.22539689278E+01 -0.55353273260E+02  0.18421855569E+02  0.58570641103E+02  0.47000000000E+01 0. -1.
          5    1    5    5  503    0 -0.11815240315E+02 -0.41794919133E+02  0.13201104334E+02  0.45637422414E+02  0.47000000000E+01 0. -1.
         -5    1    5    5    0  503  0.64884830857E+02  0.56543192858E+02  0.10199740530E+03  0.13353926247E+03  0.47000000000E+01 0. -1.
<mgrwt>
<rscale>  0 0.27432279E+03</rscale>
<asrwt>0</asrwt>
<pdfrwt beam="1">  1        2 0.95672850E-02 0.27432279E+03</pdfrwt>
<pdfrwt beam="2">  1       -2 0.46542357E-01 0.27432279E+03</pdfrwt>
<totfact> 0.29901798E+03</totfact>
</mgrwt>
</event>
<event>
 9    1  0.2114844E-002  0.2748913E+03  0.7818608E-02  0.1098512E+00
          4   -1    0    0  501    0  0.00000000000E+00  0.00000000000E+00  0.34156471033E+03  0.34156471033E+03  0.00000000000E+00 0.  1.
         -4   -1    0    0    0  501 -0.00000000000E+00 -0.00000000000E+00 -0.55308132874E+02  0.55308132874E+02  0.00000000000E+00 0.  1.
         36    2    1    2    0    0 -0.17763568394E-14  0.71054273576E-14  0.28625657745E+03  0.39687284320E+03  0.27489129767E+03 0.  0.
         25    2    3    3    0    0  0.89945167319E+01  0.26965423101E+02  0.76871719713E+02  0.15135256605E+03  0.12724111986E+03 0.  0.
         25    2    3    3    0    0 -0.89945167319E+01 -0.26965423101E+02  0.20938485774E+03  0.24552027715E+03  0.12502060817E+03 0.  0.
          5    1    4    4  502    0 -0.53573367129E+02  0.29115614376E+02  0.61471736927E+02  0.86710374851E+02  0.47000000000E+01 0.  1.
         -5    1    4    4    0  502  0.62567883861E+02 -0.21501912747E+01  0.15399982786E+02  0.64642191200E+02  0.47000000000E+01 0.  1.
          5    1    5    5  503    0 -0.11377507205E+02  0.48201285849E+02  0.11063478077E+03  0.12130521978E+03  0.47000000000E+01 0.  1.
         -5    1    5    5    0  503  0.23829904730E+01 -0.75166708950E+02  0.98750076964E+02  0.12421505737E+03  0.47000000000E+01 0.  1.
<mgrwt>
<rscale>  0 0.27489130E+03</rscale>
<asrwt>0</asrwt>
<pdfrwt beam="1">  1        4 0.52548416E-01 0.27489130E+03</pdfrwt>
<pdfrwt beam="2">  1       -4 0.85089437E-02 0.27489130E+03</pdfrwt>
<totfact> 0.65363686E+02</totfact>
</mgrwt>
</event>
<event>
 9    1  0.2114844E-002  0.2751814E+03  0.7818608E-02  0.1098350E+00
         -2   -1    0    0    0  501 -0.00000000000E+00  0.00000000000E+00  0.19190593957E+02  0.19190593957E+02  0.00000000000E+00 0. -1.
          2   -1    0    0  501    0  0.00000000000E+00 -0.00000000000E+00 -0.98648354672E+03  0.98648354672E+03  0.00000000000E+00 0. -1.
         36    2    1    2    0    0 -0.14210854715E-13 -0.35527136788E-14 -0.96729295276E+03  0.10056741407E+04  0.27518143244E+03 0.  0.
         25    2    3    3    0    0  0.32004551920E+02 -0.10256541369E+02 -0.66736876634E+03  0.68029420668E+03  0.12763091072E+03 0.  0.
         25    2    3    3    0    0 -0.32004551920E+02  0.10256541369E+02 -0.29992418642E+03  0.32537993399E+03  0.12160631506E+03 0.  0.
          5    1    4    4  502    0 -0.10227075321E+02 -0.60316432746E+02 -0.23087335228E+03  0.23888754660E+03  0.47000000000E+01 0.  1.
         -5    1    4    4    0  502  0.42231627240E+02  0.50059891377E+02 -0.43649541406E+03  0.44140666008E+03  0.47000000000E+01 0.  1.
          5    1    5    5  503    0  0.33667884507E+02 -0.30810963743E+02 -0.14538874321E+03  0.15245595622E+03  0.47000000000E+01 0.  1.
         -5    1    5    5    0  503 -0.65672436426E+02  0.41067505112E+02 -0.15453544321E+03  0.17292397777E+03  0.47000000000E+01 0.  1.
<mgrwt>
<rscale>  0 0.27518143E+03</rscale>
<asrwt>0</asrwt>
<pdfrwt beam="1">  1        2 0.15176672E+00 0.27518143E+03</pdfrwt>
<pdfrwt beam="2">  1       -2 0.29523987E-02 0.27518143E+03</pdfrwt>
<totfact> 0.11582560E+04</totfact>
</mgrwt>
</event>
<event>
 9    1  0.2114844E-002  0.2779359E+03  0.7818608E-02  0.1096822E+00
          2   -1    0    0  501    0  0.00000000000E+00  0.00000000000E+00  0.58231123045E+03  0.58231123045E+03  0.00000000000E+00 0.  1.
         -2   -1    0    0    0  501 -0.00000000000E+00 -0.00000000000E+00 -0.33164551096E+02  0.33164551096E+02  0.00000000000E+00 0.  1.
         36    2    1    2    0    0  0.00000000000E+00 -0.71054273576E-14  0.54914667935E+03  0.61547578155E+03  0.27793589589E+03 0.  0.
         25    2    3    3    0    0 -0.37667989771E+02  0.94645517373E+01  0.15679799798E+03  0.20303283898E+03  0.12299701761E+03 0.  0.
         25    2    3    3    0    0  0.37667989771E+02 -0.94645517373E+01  0.39234868137E+03  0.41244294256E+03  0.12109185729E+03 0.  0.
          5    1    4    4  502    0 -0.35185692510E+02  0.57477345305E+02  0.44797594913E+02  0.81059192512E+02  0.47000000000E+01 0. -1.
         -5    1    4    4    0  502 -0.24822972612E+01 -0.48012793568E+02  0.11200040307E+03  0.12197364647E+03  0.47000000000E+01 0. -1.
          5    1    5    5  503    0  0.51738652820E+02 -0.55665941264E+02  0.27766611411E+03  0.28791690839E+03  0.47000000000E+01 0. -1.
         -5    1    5    5    0  503 -0.14070663049E+02  0.46201389527E+02  0.11468256726E+03  0.12452603417E+03  0.47000000000E+01 0. -1.
<mgrwt>
<rscale>  0 0.27793590E+03</rscale>
<asrwt>0</asrwt>
<pdfrwt beam="1">  1        2 0.89586336E-01 0.27793590E+03</pdfrwt>
<pdfrwt beam="2">  1       -2 0.51022391E-02 0.27793590E+03</pdfrwt>
<totfact> 0.98767882E+03</totfact>
</mgrwt>
</event>
<event>
 9    1  0.2114844E-002  0.2666958E+03  0.7818608E-02  0.1103186E+00
         -3   -1    0    0    0  501 -0.00000000000E+00  0.00000000000E+00  0.16418317675E+02  0.16418317675E+02  0.00000000000E+00 0.  1.
          3   -1    0    0  501    0  0.00000000000E+00 -0.00000000000E+00 -0.10830378991E+04  0.10830378991E+04  0.00000000000E+00 0.  1.
         36    2    1    2    0    0  0.00000000000E+00  0.00000000000E+00 -0.10666195814E+04  0.10994562167E+04  0.26669578385E+03 0.  0.
         25    2    3    3    0    0  0.38334073282E+02  0.20928504201E+02 -0.50801434986E+03  0.52534701451E+03  0.12650455536E+03 0.  0.
         25    2    3    3    0    0 -0.38334073282E+02 -0.20928504201E+02 -0.55860523152E+03  0.57410920223E+03  0.12511621770E+03 0.  0.
          5    1    4    4  502    0  0.78694126742E+02  0.75843058792E+01 -0.42106756095E+03  0.42845101023E+03  0.47000000000E+01 0.  1.
         -5    1    4    4    0  502 -0.40360053460E+02  0.13344198322E+02 -0.86946788911E+02  0.96896004284E+02  0.47000000000E+01 0.  1.
          5    1    5    5  503    0 -0.13852015009E+02  0.45058697260E+02 -0.36485575363E+03  0.36791843590E+03  0.47000000000E+01 0.  1.
         -5    1    5    5    0  503 -0.24482058273E+02 -0.65987201461E+02 -0.19374947789E+03  0.20619076633E+03  0.47000000000E+01 0.  1.
<mgrwt>
<rscale>  0 0.26669578E+03</rscale>
<asrwt>0</asrwt>
<pdfrwt beam="1">  1        3 0.16662127E+00 0.26669578E+03</pdfrwt>
<pdfrwt beam="2">  1       -3 0.25258942E-02 0.26669578E+03</pdfrwt>
<totfact> 0.44125713E+02</totfact>
</mgrwt>
</event>
<event>
 9    1  0.2114844E-002  0.2750184E+03  0.7818608E-02  0.1098441E+00
          1   -1    0    0  501    0  0.00000000000E+00  0.00000000000E+00  0.28738844960E+04  0.28738844960E+04  0.00000000000E+00 0.  1.
         -1   -1    0    0    0  501 -0.00000000000E+00 -0.00000000000E+00 -0.65795191297E+01  0.65795191297E+01  0.00000000000E+00 0.  1.
         36    2    1    2    0    0 -0.88817841970E-15  0.00000000000E+00  0.28673049769E+04  0.28804640151E+04  0.27501838497E+03 0.  0.
         25    2    3    3    0    0  0.38406825356E+01  0.38144698081E+02  0.96054422824E+03  0.96937732416E+03  0.12480950826E+03 0.  0.
         25    2    3    3    0    0 -0.38406825356E+01 -0.38144698081E+02  0.19067607486E+04  0.19110866910E+04  0.12266221529E+03 0.  0.
          5    1    4    4  502    0 -0.54697804807E+02  0.30337530702E+02  0.66514234369E+03  0.66809328914E+03  0.47000000000E+01 0. -1.
         -5    1    4    4    0  502  0.58538487343E+02  0.78071673795E+01  0.29540188455E+03  0.30128403502E+03  0.47000000000E+01 0. -1.
          5    1    5    5  503    0  0.31886571997E+01 -0.65143641514E+02  0.52774127937E+03  0.53177702988E+03  0.47000000000E+01 0. -1.
         -5    1    5    5    0  503 -0.70293397354E+01  0.26998943433E+02  0.13790194693E+04  0.13793096611E+04  0.47000000000E+01 0. -1.
<mgrwt>
<rscale>  0 0.27501838E+03</rscale>
<asrwt>0</asrwt>
<pdfrwt beam="1">  1        1 0.44213507E+00 0.27501838E+03</pdfrwt>
<pdfrwt beam="2">  1       -1 0.10122360E-02 0.27501838E+03</pdfrwt>
<totfact> 0.16367296E+03</totfact>
</mgrwt>
</event>
<event>
 9    1  0.2114844E-002  0.2751340E+03  0.7818608E-02  0.1098377E+00
          2   -1    0    0  501    0  0.00000000000E+00  0.00000000000E+00  0.26127852956E+04  0.26127852956E+04  0.00000000000E+00 0.  1.
         -2   -1    0    0    0  501 -0.00000000000E+00 -0.00000000000E+00 -0.72431064492E+01  0.72431064492E+01  0.00000000000E+00 0.  1.
         36    2    1    2    0    0  0.00000000000E+00  0.17763568394E-14  0.26055421891E+04  0.26200284020E+04  0.27513401843E+03 0.  0.
         25    2    3    3    0    0  0.32023262385E+02 -0.11554637658E+02  0.10829000568E+04  0.10910011165E+04  0.12826497636E+03 0.  0.
         25    2    3    3    0    0 -0.32023262385E+02  0.11554637658E+02  0.15226421323E+04  0.15290272855E+04  0.13537495269E+03 0.  0.
          5    1    4    4  502    0 -0.95105444584E+01  0.16835420185E+01  0.43957103660E+01  0.11605905361E+02  0.47000000000E+01 0.  1.
         -5    1    4    4    0  502  0.41533806844E+02 -0.13238179676E+02  0.10785043465E+04  0.10793952111E+04  0.47000000000E+01 0.  1.
          5    1    5    5  503    0 -0.49364195535E+02 -0.32905660602E+02  0.12960972916E+04  0.12974628648E+04  0.47000000000E+01 0.  1.
         -5    1    5    5    0  503  0.17340933150E+02  0.44460298260E+02  0.22654484068E+03  0.23156442068E+03  0.47000000000E+01 0.  1.
<mgrwt>
<rscale>  0 0.27513402E+03</rscale>
<asrwt>0</asrwt>
<pdfrwt beam="1">  1        2 0.40196622E+00 0.27513402E+03</pdfrwt>
<pdfrwt beam="2">  1       -2 0.11143261E-02 0.27513402E+03</pdfrwt>
<totfact> 0.63285873E+03</totfact>
</mgrwt>
</event>
<event>
 9    1  0.2114844E-002  0.2753668E+03  0.7818608E-02  0.1098247E+00
         -1   -1    0    0    0  501 -0.00000000000E+00  0.00000000000E+00  0.43832702179E+03  0.43832702179E+03  0.00000000000E+00 0. -1.
          1   -1    0    0  501    0  0.00000000000E+00 -0.00000000000E+00 -0.43247881897E+02  0.43247881897E+02  0.00000000000E+00 0. -1.
         36    2    1    2    0    0  0.00000000000E+00  0.00000000000E+00  0.39507913990E+03  0.48157490369E+03  0.27536677556E+03 0.  0.
         25    2    3    3    0    0 -0.40638457386E+02 -0.87282240226E+01  0.11377178970E+03  0.17159140461E+03  0.12153980373E+03 0.  0.
         25    2    3    3    0    0  0.40638457386E+02  0.87282240226E+01  0.28130735020E+03  0.30998349909E+03  0.12340291048E+03 0.  0.
          5    1    4    4  502    0 -0.65206603452E+02 -0.15416243867E+02  0.14128065541E+02  0.68638574757E+02  0.47000000000E+01 0.  1.
         -5    1    4    4    0  502  0.24568146066E+02  0.66880198447E+01  0.99643724155E+02  0.10295282985E+03  0.47000000000E+01 0.  1.
          5    1    5    5  503    0 -0.79971168954E+01 -0.49834130225E+02  0.79945925562E+02  0.94661689336E+02  0.47000000000E+01 0.  1.
         -5    1    5    5    0  503  0.48635574281E+02  0.58562354248E+02  0.20136142464E+03  0.21532180975E+03  0.47000000000E+01 0.  1.
<mgrwt>
<rscale>  0 0.27536678E+03</rscale>
<asrwt>0</asrwt>
<pdfrwt beam="1">  1        1 0.66535206E-02 0.27536678E+03</pdfrwt>
<pdfrwt beam="2">  1       -1 0.67434924E-01 0.27536678E+03</pdfrwt>
<totfact> 0.25814276E+03</totfact>
</mgrwt>
</event>
<event>
 9    1  0.2114844E-002  0.2754575E+03  0.7818608E-02  0.1098196E+00
         -2   -1    0    0    0  501 -0.00000000000E+00  0.00000000000E+00  0.11425963979E+02  0.11425963979E+02  0.00000000000E+00 0.  1.
          2   -1    0    0  501    0  0.00000000000E+00 -0.00000000000E+00 -0.16601840624E+04  0.16601840624E+04  0.00000000000E+00 0.  1.
         36    2    1    2    0    0 -0.35527136788E-14  0.00000000000E+00 -0.16487580984E+04  0.16716100264E+04  0.27545746165E+03 0.  0.
         25    2    3    3    0    0  0.21087933006E+02 -0.48571621903E+02 -0.87943494038E+03  0.88984140132E+03  0.12493198857E+03 0.  0.
         25    2    3    3    0    0 -0.21087933006E+02  0.48571621903E+02 -0.76932315805E+03  0.78176862507E+03  0.12845294180E+03 0.  0.
          5    1    4    4  502    0 -0.44345207356E+01 -0.48210155483E+02 -0.11371020945E+03  0.12367694126E+03  0.47000000000E+01 0.  1.
         -5    1    4    4    0  502  0.25522453741E+02 -0.36146641989E+00 -0.76572473093E+03  0.76616446006E+03  0.47000000000E+01 0.  1.
          5    1    5    5  503    0  0.56812208774E+01 -0.35602897742E+02 -0.41429999100E+03  0.41589231195E+03  0.47000000000E+01 0.  1.
         -5    1    5    5    0  503 -0.26769153883E+02  0.84174519645E+02 -0.35502316705E+03  0.36587631312E+03  0.47000000000E+01 0.  1.
<mgrwt>
<rscale>  0 0.27545746E+03</rscale>
<asrwt>0</asrwt>
<pdfrwt beam="1">  1        2 0.25541273E+00 0.27545746E+03</pdfrwt>
<pdfrwt beam="2">  1       -2 0.17578420E-02 0.27545746E+03</pdfrwt>
<totfact> 0.10482713E+04</totfact>
</mgrwt>
</event>
<event>
 9    1  0.2114844E-002  0.2787161E+03  0.7818608E-02  0.1096392E+00
         -2   -1    0    0    0  501 -0.00000000000E+00  0.00000000000E+00  0.99021789629E+01  0.99021789629E+01  0.00000000000E+00 0. -1.
          2   -1    0    0  501    0  0.00000000000E+00 -0.00000000000E+00 -0.19612520697E+04  0.19612520697E+04  0.00000000000E+00 0. -1.
         36    2    1    2    0    0  0.14210854715E-13  0.00000000000E+00 -0.19513498908E+04  0.19711542487E+04  0.27871612071E+03 0.  0.
         25    2    3    3    0    0 -0.38244363776E+02  0.34749951166E+02 -0.11788664072E+04  0.11865122020E+04  0.12415719434E+03 0.  0.
         25    2    3    3    0    0  0.38244363776E+02 -0.34749951166E+02 -0.77248348355E+03  0.78464204672E+03  0.12752340433E+03 0.  0.
          5    1    4    4  502    0 -0.72346732749E+02  0.58073075689E+02 -0.82073474516E+03  0.82597466291E+03  0.47000000000E+01 0. -1.
         -5    1    4    4    0  502  0.34102368972E+02 -0.23323124524E+02 -0.35813166207E+03  0.36053753908E+03  0.47000000000E+01 0. -1.
          5    1    5    5  503    0 -0.18808345470E+02 -0.63175624189E+02 -0.52053260133E+03  0.52471057965E+03  0.47000000000E+01 0. -1.
         -5    1    5    5    0  503  0.57052709246E+02  0.28425673023E+02 -0.25195088223E+03  0.25993146707E+03  0.47000000000E+01 0. -1.
<mgrwt>
<rscale>  0 0.27871612E+03</rscale>
<asrwt>0</asrwt>
<pdfrwt beam="1">  1        2 0.30173101E+00 0.27871612E+03</pdfrwt>
<pdfrwt beam="2">  1       -2 0.15234125E-02 0.27871612E+03</pdfrwt>
<totfact> 0.89819748E+03</totfact>
</mgrwt>
</event>
<event>
 9    1  0.2114844E-002  0.2761655E+03  0.7818608E-02  0.1097802E+00
          2   -1    0    0  501    0  0.00000000000E+00  0.00000000000E+00  0.24001016168E+04  0.24001016168E+04  0.00000000000E+00 0. -1.
         -2   -1    0    0    0  501 -0.00000000000E+00 -0.00000000000E+00 -0.79441855198E+01  0.79441855198E+01  0.00000000000E+00 0. -1.
         36    2    1    2    0    0  0.00000000000E+00 -0.35527136788E-14  0.23921574313E+04  0.24080458023E+04  0.27616554825E+03 0.  0.
         25    2    3    3    0    0 -0.26087170343E+02  0.11518335893E+02  0.16382504034E+04  0.16433665469E+04  0.12639624527E+03 0.  0.
         25    2    3    3    0    0  0.26087170343E+02 -0.11518335893E+02  0.75390702785E+03  0.76467925535E+03  0.12468097054E+03 0.  0.
          5    1    4    4  502    0  0.45032416421E+02  0.29713862551E+02  0.56119481516E+03  0.56380186477E+03  0.47000000000E+01 0.  1.
         -5    1    4    4    0  502 -0.71119586764E+02 -0.18195526658E+02  0.10770555883E+04  0.10795646822E+04  0.47000000000E+01 0.  1.
          5    1    5    5  503    0  0.17483121237E+02 -0.41092748827E+02  0.70665103280E+03  0.70807629934E+03  0.47000000000E+01 0.  1.
         -5    1    5    5    0  503  0.86040491057E+01  0.29574412934E+02  0.47255995050E+02  0.56602956014E+02  0.47000000000E+01 0.  1.
<mgrwt>
<rscale>  0 0.27616555E+03</rscale>
<asrwt>0</asrwt>
<pdfrwt beam="1">  1        2 0.36924582E+00 0.27616555E+03</pdfrwt>
<pdfrwt beam="2">  1       -2 0.12221843E-02 0.27616555E+03</pdfrwt>
<totfact> 0.72370557E+03</totfact>
</mgrwt>
</event>
<event>
 9    1  0.2114844E-002  0.2754778E+03  0.7818608E-02  0.1098185E+00
          1   -1    0    0  501    0  0.00000000000E+00  0.00000000000E+00  0.31823533217E+04  0.31823533217E+04  0.00000000000E+00 0. -1.
         -1   -1    0    0    0  501 -0.00000000000E+00 -0.00000000000E+00 -0.59616284573E+01  0.59616284573E+01  0.00000000000E+00 0. -1.
         36    2    1    2    0    0  0.71054273576E-14  0.71054273576E-14  0.31763916932E+04  0.31883149501E+04  0.27547782578E+03 0.  0.
         25    2    3    3    0    0 -0.30164625451E+02 -0.27671935826E+02  0.20596840650E+04  0.20638892091E+04  0.12515821662E+03 0.  0.
         25    2    3    3    0    0  0.30164625451E+02  0.27671935826E+02  0.11167076282E+04  0.11244257410E+04  0.12498671730E+03 0.  0.
          5    1    4    4  502    0 -0.52234735115E+02  0.16479544134E+02  0.16901076369E+04  0.16910014658E+04  0.47000000000E+01 0. -1.
         -5    1    4    4    0  502  0.22070109665E+02 -0.44151479960E+02  0.36957642809E+03  0.37288774333E+03  0.47000000000E+01 0. -1.
          5    1    5    5  503    0  0.73524152690E+02  0.35974444671E+02  0.86078083261E+03  0.86467664100E+03  0.47000000000E+01 0. -1.
         -5    1    5    5    0  503 -0.43359527240E+02 -0.83025088457E+01  0.25592679560E+03  0.25974910002E+03  0.47000000000E+01 0. -1.
<mgrwt>
<rscale>  0 0.27547783E+03</rscale>
<asrwt>0</asrwt>
<pdfrwt beam="1">  1        1 0.48959146E+00 0.27547783E+03</pdfrwt>
<pdfrwt beam="2">  1       -1 0.91717615E-03 0.27547783E+03</pdfrwt>
<totfact> 0.11456652E+03</totfact>
</mgrwt>
</event>
<event>
 9    1  0.2114844E-002  0.2755991E+03  0.7818608E-02  0.1098117E+00
          1   -1    0    0  501    0  0.00000000000E+00  0.00000000000E+00  0.29936456784E+03  0.29936456784E+03  0.00000000000E+00 0.  1.
         -1   -1    0    0    0  501 -0.00000000000E+00 -0.00000000000E+00 -0.63430092053E+02  0.63430092053E+02  0.00000000000E+00 0.  1.
         36    2    1    2    0    0  0.00000000000E+00  0.00000000000E+00  0.23593447579E+03  0.36279465989E+03  0.27559914438E+03 0.  0.
         25    2    3    3    0    0 -0.47933618762E+02 -0.40635291719E+02  0.10618543604E+03  0.17302568955E+03  0.12129997394E+03 0.  0.
         25    2    3    3    0    0  0.47933618762E+02  0.40635291719E+02  0.12974903975E+03  0.18976897034E+03  0.12340417354E+03 0.  0.
          5    1    4    4  502    0 -0.24516890779E+02 -0.57964959049E+02  0.12358649881E+03  0.13876860992E+03  0.47000000000E+01 0. -1.
         -5    1    4    4    0  502 -0.23416727984E+02  0.17329667331E+02 -0.17401062774E+02  0.34257079632E+02  0.47000000000E+01 0. -1.
          5    1    5    5  503    0  0.65999661794E+02  0.72251246870E+02  0.11257216498E+03  0.14923397857E+03  0.47000000000E+01 0.  1.
         -5    1    5    5    0  503 -0.18066043032E+02 -0.31615955151E+02  0.17176874768E+02  0.40534991769E+02  0.47000000000E+01 0.  1.
<mgrwt>
<rscale>  0 0.27559914E+03</rscale>
<asrwt>0</asrwt>
<pdfrwt beam="1">  1        1 0.46056087E-01 0.27559914E+03</pdfrwt>
<pdfrwt beam="2">  1       -1 0.97584759E-02 0.27559914E+03</pdfrwt>
<totfact> 0.55267993E+03</totfact>
</mgrwt>
</event>
<event>
 9    1  0.2114844E-002  0.2748179E+03  0.7818608E-02  0.1098553E+00
          1   -1    0    0  501    0  0.00000000000E+00  0.00000000000E+00  0.68949325600E+03  0.68949325600E+03  0.00000000000E+00 0.  1.
         -1   -1    0    0    0  501 -0.00000000000E+00 -0.00000000000E+00 -0.27384202607E+02  0.27384202607E+02  0.00000000000E+00 0.  1.
         36    2    1    2    0    0  0.00000000000E+00 -0.71054273576E-14  0.66210905339E+03  0.71687745861E+03  0.27481792531E+03 0.  0.
         25    2    3    3    0    0  0.25758654244E+02 -0.20608345555E+02  0.31834090583E+03  0.34975090887E+03  0.14105514438E+03 0.  0.
         25    2    3    3    0    0 -0.25758654244E+02  0.20608345555E+02  0.34376814757E+03  0.36712654974E+03  0.12456786129E+03 0.  0.
          5    1    4    4  502    0 -0.17327100999E+02 -0.69139791417E+02  0.22425590603E+03  0.23535789890E+03  0.47000000000E+01 0. -1.
         -5    1    4    4    0  502  0.43085755244E+02  0.48531445863E+02  0.94084999801E+02  0.11439300997E+03  0.47000000000E+01 0. -1.
          5    1    5    5  503    0 -0.72069888305E+02 -0.88590628523E+01  0.17260390943E+03  0.18731457857E+03  0.47000000000E+01 0.  1.
         -5    1    5    5    0  503  0.46311234061E+02  0.29467408407E+02  0.17116423814E+03  0.17981197117E+03  0.47000000000E+01 0.  1.
<mgrwt>
<rscale>  0 0.27481793E+03</rscale>
<asrwt>0</asrwt>
<pdfrwt beam="1">  1        1 0.10607587E+00 0.27481793E+03</pdfrwt>
<pdfrwt beam="2">  1       -1 0.42129548E-02 0.27481793E+03</pdfrwt>
<totfact> 0.65406876E+03</totfact>
</mgrwt>
</event>
<event>
 9    1  0.2114844E-002  0.2727849E+03  0.7818608E-02  0.1099696E+00
         -2   -1    0    0    0  501 -0.00000000000E+00  0.00000000000E+00  0.48514152867E+02  0.48514152867E+02  0.00000000000E+00 0. -1.
          2   -1    0    0  501    0  0.00000000000E+00 -0.00000000000E+00 -0.38345316373E+03  0.38345316373E+03  0.00000000000E+00 0. -1.
         36    2    1    2    0    0  0.00000000000E+00  0.00000000000E+00 -0.33493901086E+03  0.43196731660E+03  0.27278493655E+03 0.  0.
         25    2    3    3    0    0  0.14998012566E+02  0.49689967379E+02 -0.14573819468E+03  0.20032719323E+03  0.12726873033E+03 0.  0.
         25    2    3    3    0    0 -0.14998012566E+02 -0.49689967379E+02 -0.18920081619E+03  0.23164012337E+03  0.12315098323E+03 0.  0.
          5    1    4    4  502    0  0.63959231410E+02  0.98883349659E+00 -0.94489845266E+02  0.11420237271E+03  0.47000000000E+01 0. -1.
         -5    1    4    4    0  502 -0.48961218844E+02  0.48701133882E+02 -0.51248349411E+02  0.86124820519E+02  0.47000000000E+01 0. -1.
          5    1    5    5  503    0  0.49376125646E+02 -0.30341230772E+02 -0.48807304983E+02  0.75913339330E+02  0.47000000000E+01 0. -1.
         -5    1    5    5    0  503 -0.64374138212E+02 -0.19348736606E+02 -0.14039351120E+03  0.15572678404E+03  0.47000000000E+01 0. -1.
<mgrwt>
<rscale>  0 0.27278494E+03</rscale>
<asrwt>0</asrwt>
<pdfrwt beam="1">  1        2 0.58992797E-01 0.27278494E+03</pdfrwt>
<pdfrwt beam="2">  1       -2 0.74637155E-02 0.27278494E+03</pdfrwt>
<totfact> 0.87519409E+03</totfact>
</mgrwt>
</event>
<event>
 9    1  0.2114844E-002  0.2742383E+03  0.7818608E-02  0.1098878E+00
          2   -1    0    0  501    0  0.00000000000E+00  0.00000000000E+00  0.29077562412E+04  0.29077562412E+04  0.00000000000E+00 0. -1.
         -2   -1    0    0    0  501 -0.00000000000E+00 -0.00000000000E+00 -0.64660383467E+01  0.64660383467E+01  0.00000000000E+00 0. -1.
         36    2    1    2    0    0  0.00000000000E+00  0.00000000000E+00  0.29012902029E+04  0.29142222796E+04  0.27423831504E+03 0.  0.
         25    2    3    3    0    0 -0.55785468333E+02 -0.10695244312E+02  0.17830577230E+04  0.17875580612E+04  0.11332507177E+03 0.  0.
         25    2    3    3    0    0  0.55785468333E+02  0.10695244312E+02  0.11182324798E+04  0.11266642183E+04  0.12530752240E+03 0.  0.
          5    1    4    4  502    0 -0.38746278649E+02  0.41215371742E+02  0.13272883554E+04  0.13285015805E+04  0.47000000000E+01 0.  1.
         -5    1    4    4    0  502 -0.17039189684E+02 -0.51910616054E+02  0.45576936766E+03  0.45905648078E+03  0.47000000000E+01 0.  1.
          5    1    5    5  503    0 -0.11713670243E+02 -0.41236061302E+02  0.59156020264E+03  0.59312999096E+03  0.47000000000E+01 0.  1.
         -5    1    5    5    0  503  0.67499138576E+02  0.51931305614E+02  0.52667227719E+03  0.53353422736E+03  0.47000000000E+01 0.  1.
<mgrwt>
<rscale>  0 0.27423832E+03</rscale>
<asrwt>0</asrwt>
<pdfrwt beam="1">  1        2 0.44734607E+00 0.27423832E+03</pdfrwt>
<pdfrwt beam="2">  1       -2 0.99477745E-03 0.27423832E+03</pdfrwt>
<totfact> 0.50720284E+03</totfact>
</mgrwt>
</event>
<event>
 9    1  0.2114844E-002  0.2732396E+03  0.7818608E-02  0.1099440E+00
         -2   -1    0    0    0  501 -0.00000000000E+00  0.00000000000E+00  0.13809693125E+02  0.13809693125E+02  0.00000000000E+00 0.  1.
          2   -1    0    0  501    0  0.00000000000E+00 -0.00000000000E+00 -0.13515848403E+04  0.13515848403E+04  0.00000000000E+00 0.  1.
         36    2    1    2    0    0  0.00000000000E+00  0.00000000000E+00 -0.13377751472E+04  0.13653945334E+04  0.27323961556E+03 0.  0.
         25    2    3    3    0    0  0.42680341021E+02 -0.18954408082E+02 -0.77616172967E+03  0.78780820397E+03  0.12662485749E+03 0.  0.
         25    2    3    3    0    0 -0.42680341021E+02  0.18954408082E+02 -0.56161341750E+03  0.57758632946E+03  0.12655218751E+03 0.  0.
          5    1    4    4  502    0  0.61342171981E+01  0.39364979222E+02 -0.54748556504E+03  0.54895333512E+03  0.47000000000E+01 0. -1.
         -5    1    4    4    0  502  0.36546123823E+02 -0.58319387304E+02 -0.22867616463E+03  0.23885486885E+03  0.47000000000E+01 0. -1.
          5    1    5    5  503    0 -0.40552731580E+01 -0.37332069612E+02 -0.40389457642E+03  0.40566371236E+03  0.47000000000E+01 0.  1.
         -5    1    5    5    0  503 -0.38625067863E+02  0.56286477694E+02 -0.15771884108E+03  0.17192261710E+03  0.47000000000E+01 0.  1.
<mgrwt>
<rscale>  0 0.27323962E+03</rscale>
<asrwt>0</asrwt>
<pdfrwt beam="1">  1        2 0.20793625E+00 0.27323962E+03</pdfrwt>
<pdfrwt beam="2">  1       -2 0.21245670E-02 0.27323962E+03</pdfrwt>
<totfact> 0.11608590E+04</totfact>
</mgrwt>
</event>
<event>
 9    1  0.2114844E-002  0.2751031E+03  0.7818608E-02  0.1098394E+00
          3   -1    0    0  501    0  0.00000000000E+00  0.00000000000E+00  0.31568378197E+03  0.31568378197E+03  0.00000000000E+00 0. -1.
         -3   -1    0    0    0  501 -0.00000000000E+00 -0.00000000000E+00 -0.59934749073E+02  0.59934749073E+02  0.00000000000E+00 0. -1.
         36    2    1    2    0    0  0.00000000000E+00 -0.35527136788E-14  0.25574903289E+03  0.37561853104E+03  0.27510309528E+03 0.  0.
         25    2    3    3    0    0 -0.51167502883E+02 -0.20486646523E+02  0.14429310357E+03  0.20335518375E+03  0.13226872263E+03 0.  0.
         25    2    3    3    0    0  0.51167502883E+02  0.20486646523E+02  0.11145592933E+03  0.17226334729E+03  0.11922424501E+03 0.  0.
          5    1    4    4  502    0 -0.70306260773E+02  0.21673370066E+02  0.29351162311E+02  0.79349139900E+02  0.47000000000E+01 0. -1.
         -5    1    4    4    0  502  0.19138757890E+02 -0.42160016589E+02  0.11494194126E+03  0.12400604385E+03  0.47000000000E+01 0. -1.
          5    1    5    5  503    0 -0.38270666792E+02  0.93285622259E+01  0.46168847998E+02  0.60871327695E+02  0.47000000000E+01 0. -1.
         -5    1    5    5    0  503  0.89438169676E+02  0.11158084297E+02  0.65287081329E+02  0.11139201959E+03  0.47000000000E+01 0. -1.
<mgrwt>
<rscale>  0 0.27510310E+03</rscale>
<asrwt>0</asrwt>
<pdfrwt beam="1">  1        3 0.48566735E-01 0.27510310E+03</pdfrwt>
<pdfrwt beam="2">  1       -3 0.92207308E-02 0.27510310E+03</pdfrwt>
<totfact> 0.90950808E+02</totfact>
</mgrwt>
</event>
<event>
 9    1  0.2114844E-002  0.2750581E+03  0.7818608E-02  0.1098419E+00
          1   -1    0    0  501    0  0.00000000000E+00  0.00000000000E+00  0.39739160777E+03  0.39739160777E+03  0.00000000000E+00 0.  1.
         -1   -1    0    0    0  501 -0.00000000000E+00 -0.00000000000E+00 -0.47595968618E+02  0.47595968618E+02  0.00000000000E+00 0.  1.
         36    2    1    2    0    0 -0.35527136788E-14  0.71054273576E-14  0.34979563916E+03  0.44498757639E+03  0.27505809199E+03 0.  0.
         25    2    3    3    0    0 -0.27628645340E+01 -0.42084322623E+02  0.11037063192E+03  0.16964517365E+03  0.12173366387E+03 0.  0.
         25    2    3    3    0    0  0.27628645340E+01  0.42084322623E+02  0.23942500724E+03  0.27534240275E+03  0.12926863900E+03 0.  0.
          5    1    4    4  502    0  0.23705293138E+02  0.37510711909E+02  0.33852858799E+02  0.56009824849E+02  0.47000000000E+01 0. -1.
         -5    1    4    4    0  502 -0.26468157672E+02 -0.79595034532E+02  0.76517773121E+02  0.11363534880E+03  0.47000000000E+01 0. -1.
          5    1    5    5  503    0  0.47578260080E+02  0.33799739632E+02  0.40459878290E+02  0.71170253496E+02  0.47000000000E+01 0.  1.
         -5    1    5    5    0  503 -0.44815395546E+02  0.82845829914E+01  0.19896512895E+03  0.20417214925E+03  0.47000000000E+01 0.  1.
<mgrwt>
<rscale>  0 0.27505809E+03</rscale>
<asrwt>0</asrwt>
<pdfrwt beam="1">  1        1 0.61137168E-01 0.27505809E+03</pdfrwt>
<pdfrwt beam="2">  1       -1 0.73224570E-02 0.27505809E+03</pdfrwt>
<totfact> 0.59917448E+03</totfact>
</mgrwt>
</event>
<event>
 9    1  0.2114844E-002  0.2753993E+03  0.7818608E-02  0.1098229E+00
         -1   -1    0    0    0  501 -0.00000000000E+00  0.00000000000E+00  0.51471974030E+03  0.51471974030E+03  0.00000000000E+00 0.  1.
          1   -1    0    0  501    0  0.00000000000E+00 -0.00000000000E+00 -0.36837888626E+02  0.36837888626E+02  0.00000000000E+00 0.  1.
         36    2    1    2    0    0 -0.35527136788E-14  0.00000000000E+00  0.47788185167E+03  0.55155762892E+03  0.27539926265E+03 0.  0.
         25    2    3    3    0    0 -0.86712508183E+01 -0.63210951234E+01  0.12584109154E+03  0.17595136472E+03  0.12250614512E+03 0.  0.
         25    2    3    3    0    0  0.86712508183E+01  0.63210951234E+01  0.35204076013E+03  0.37560626421E+03  0.13050755566E+03 0.  0.
          5    1    4    4  502    0  0.25819167776E+02 -0.55304031775E+02  0.77930670658E+02  0.99098157321E+02  0.47000000000E+01 0.  1.
         -5    1    4    4    0  502 -0.34490418594E+02  0.48982936652E+02  0.47910420887E+02  0.76853207398E+02  0.47000000000E+01 0.  1.
          5    1    5    5  503    0 -0.53339975810E+02 -0.27330630564E+02  0.16979345832E+03  0.18012224980E+03  0.47000000000E+01 0.  1.
         -5    1    5    5    0  503  0.62011226628E+02  0.33651725687E+02  0.18224730181E+03  0.19548401440E+03  0.47000000000E+01 0.  1.
<mgrwt>
<rscale>  0 0.27539926E+03</rscale>
<asrwt>0</asrwt>
<pdfrwt beam="1">  1        1 0.56673678E-02 0.27539926E+03</pdfrwt>
<pdfrwt beam="2">  1       -1 0.79187648E-01 0.27539926E+03</pdfrwt>
<totfact> 0.23259476E+03</totfact>
</mgrwt>
</event>
<event>
 9    1  0.2114844E-002  0.2749802E+03  0.7818608E-02  0.1098463E+00
         -4   -1    0    0    0  501 -0.00000000000E+00  0.00000000000E+00  0.24200755513E+02  0.24200755513E+02  0.00000000000E+00 0. -1.
          4   -1    0    0  501    0  0.00000000000E+00 -0.00000000000E+00 -0.78111313584E+03  0.78111313584E+03  0.00000000000E+00 0. -1.
         36    2    1    2    0    0 -0.71054273576E-14  0.14210854715E-13 -0.75691238033E+03  0.80531389136E+03  0.27498020313E+03 0.  0.
         25    2    3    3    0    0  0.64642970291E+01 -0.55732472640E+02 -0.44991508150E+03  0.46831856337E+03  0.11726380766E+03 0.  0.
         25    2    3    3    0    0 -0.64642970291E+01  0.55732472640E+02 -0.30699729883E+03  0.33699532799E+03  0.12716372894E+03 0.  0.
          5    1    4    4  502    0 -0.23032811339E+02 -0.77767631136E+02 -0.20340461425E+03  0.21902931756E+03  0.47000000000E+01 0. -1.
         -5    1    4    4    0  502  0.29497108368E+02  0.22035158496E+02 -0.24651046725E+03  0.24928924581E+03  0.47000000000E+01 0. -1.
          5    1    5    5  503    0 -0.39744737166E+02 -0.13138644170E+02 -0.36128687968E+02  0.55494506010E+02  0.47000000000E+01 0. -1.
         -5    1    5    5    0  503  0.33280440137E+02  0.68871116809E+02 -0.27086861086E+03  0.28150082198E+03  0.47000000000E+01 0. -1.
<mgrwt>
<rscale>  0 0.27498020E+03</rscale>
<asrwt>0</asrwt>
<pdfrwt beam="1">  1        4 0.12017126E+00 0.27498020E+03</pdfrwt>
<pdfrwt beam="2">  1       -4 0.37231928E-02 0.27498020E+03</pdfrwt>
<totfact> 0.39552052E+02</totfact>
</mgrwt>
</event>
<event>
 9    1  0.2114844E-002  0.2732956E+03  0.7818608E-02  0.1099408E+00
          2   -1    0    0  501    0  0.00000000000E+00  0.00000000000E+00  0.23883610020E+03  0.23883610020E+03  0.00000000000E+00 0. -1.
         -2   -1    0    0    0  501 -0.00000000000E+00 -0.00000000000E+00 -0.78181755716E+02  0.78181755716E+02  0.00000000000E+00 0. -1.
         36    2    1    2    0    0  0.35527136788E-14  0.35527136788E-14  0.16065434449E+03  0.31701785592E+03  0.27329563218E+03 0.  0.
         25    2    3    3    0    0  0.26873650448E+02 -0.33392775545E+01  0.13889955370E+03  0.18967864147E+03  0.12629947406E+03 0.  0.
         25    2    3    3    0    0 -0.26873650448E+02  0.33392775545E+01  0.21754790787E+02  0.12733921445E+03  0.12250983941E+03 0.  0.
          5    1    4    4  502    0  0.21149635755E+02  0.29774001464E+02  0.14962741394E+03  0.15409169756E+03  0.47000000000E+01 0.  1.
         -5    1    4    4    0  502  0.57240146930E+01 -0.33113279018E+02 -0.10727860237E+02  0.35586943909E+02  0.47000000000E+01 0.  1.
          5    1    5    5  503    0  0.38352825164E+02 -0.20756154845E+02  0.35348286104E+02  0.56332481682E+02  0.47000000000E+01 0.  1.
         -5    1    5    5    0  503 -0.65226475612E+02  0.24095432399E+02 -0.13593495318E+02  0.71006732767E+02  0.47000000000E+01 0.  1.
<mgrwt>
<rscale>  0 0.27329563E+03</rscale>
<asrwt>0</asrwt>
<pdfrwt beam="1">  1        2 0.36744015E-01 0.27329563E+03</pdfrwt>
<pdfrwt beam="2">  1       -2 0.12027963E-01 0.27329563E+03</pdfrwt>
<totfact> 0.68504675E+03</totfact>
</mgrwt>
</event>
<event>
 9    1  0.2114844E-002  0.2734209E+03  0.7818608E-02  0.1099338E+00
         -2   -1    0    0    0  501 -0.00000000000E+00  0.00000000000E+00  0.91165944112E+01  0.91165944112E+01  0.00000000000E+00 0.  1.
          2   -1    0    0  501    0  0.00000000000E+00 -0.00000000000E+00 -0.20500798107E+04  0.20500798107E+04  0.00000000000E+00 0.  1.
         36    2    1    2    0    0  0.35527136788E-14  0.00000000000E+00 -0.20409632163E+04  0.20591964052E+04  0.27342089273E+03 0.  0.
         25    2    3    3    0    0 -0.14440040233E+02 -0.78088380621E+01 -0.63238138427E+03  0.64481157377E+03  0.12492500863E+03 0.  0.
         25    2    3    3    0    0  0.14440040233E+02  0.78088380621E+01 -0.14085818321E+04  0.14143848314E+04  0.12693376589E+03 0.  0.
          5    1    4    4  502    0  0.45779042019E+02 -0.36350589425E+02 -0.26581425457E+03  0.27220652816E+03  0.47000000000E+01 0.  1.
         -5    1    4    4    0  502 -0.60219082251E+02  0.28541751363E+02 -0.36656712970E+03  0.37260504561E+03  0.47000000000E+01 0.  1.
          5    1    5    5  503    0  0.35750517424E+02  0.57679853077E+02 -0.57133586623E+03  0.57537103419E+03  0.47000000000E+01 0. -1.
         -5    1    5    5    0  503 -0.21310477191E+02 -0.49871015015E+02 -0.83724596583E+03  0.83901379719E+03  0.47000000000E+01 0. -1.
<mgrwt>
<rscale>  0 0.27342089E+03</rscale>
<asrwt>0</asrwt>
<pdfrwt beam="1">  1        2 0.31539696E+00 0.27342089E+03</pdfrwt>
<pdfrwt beam="2">  1       -2 0.14025527E-02 0.27342089E+03</pdfrwt>
<totfact> 0.90999552E+03</totfact>
</mgrwt>
</event>
<event>
 9    1  0.2114844E-002  0.2744694E+03  0.7818608E-02  0.1098749E+00
         -2   -1    0    0    0  501 -0.00000000000E+00  0.00000000000E+00  0.36887332542E+02  0.36887332542E+02  0.00000000000E+00 0. -1.
          2   -1    0    0  501    0  0.00000000000E+00 -0.00000000000E+00 -0.51056439790E+03  0.51056439790E+03  0.00000000000E+00 0. -1.
         36    2    1    2    0    0 -0.15543122345E-14  0.71054273576E-14 -0.47367706536E+03  0.54745173044E+03  0.27446936973E+03 0.  0.
         25    2    3    3    0    0  0.66957557972E+00 -0.45599810030E+02 -0.28892122118E+03  0.31843004690E+03  0.12586672203E+03 0.  0.
         25    2    3    3    0    0 -0.66957557972E+00  0.45599810030E+02 -0.18475584418E+03  0.22902168354E+03  0.12742220594E+03 0.  0.
          5    1    4    4  502    0 -0.75111511190E+00 -0.69757361136E+02 -0.28502113053E+03  0.29347195514E+03  0.47000000000E+01 0.  1.
         -5    1    4    4    0  502  0.14206906916E+01  0.24157551106E+02 -0.39000906573E+01  0.24958091766E+02  0.47000000000E+01 0.  1.
          5    1    5    5  503    0 -0.37750450674E+02 -0.28647916225E+02 -0.97499735368E+02  0.10850846984E+03  0.47000000000E+01 0. -1.
         -5    1    5    5    0  503  0.37080875094E+02  0.74247726255E+02 -0.87256108810E+02  0.12051321370E+03  0.47000000000E+01 0. -1.
<mgrwt>
<rscale>  0 0.27446937E+03</rscale>
<asrwt>0</asrwt>
<pdfrwt beam="1">  1        2 0.78548369E-01 0.27446937E+03</pdfrwt>
<pdfrwt beam="2">  1       -2 0.56749742E-02 0.27446937E+03</pdfrwt>
<totfact> 0.97471666E+03</totfact>
</mgrwt>
</event>
<event>
 9    1  0.2114844E-002  0.2775024E+03  0.7818608E-02  0.1097061E+00
         -2   -1    0    0    0  501 -0.00000000000E+00  0.00000000000E+00  0.10378101788E+02  0.10378101788E+02  0.00000000000E+00 0.  1.
          2   -1    0    0  501    0  0.00000000000E+00 -0.00000000000E+00 -0.18550496752E+04  0.18550496752E+04  0.00000000000E+00 0.  1.
         36    2    1    2    0    0  0.00000000000E+00  0.35527136788E-14 -0.18446715734E+04  0.18654277770E+04  0.27750239171E+03 0.  0.
         25    2    3    3    0    0 -0.41606404693E+02  0.77094281304E+01 -0.67171315243E+03  0.68478672178E+03  0.12626863025E+03 0.  0.
         25    2    3    3    0    0  0.41606404693E+02 -0.77094281304E+01 -0.11729584210E+04  0.11806410552E+04  0.12763743846E+03 0.  0.
          5    1    4    4  502    0 -0.50175551078E+02  0.47639190223E+02 -0.20802010026E+03  0.21927501108E+03  0.47000000000E+01 0.  1.
         -5    1    4    4    0  502  0.85691463854E+01 -0.39929762092E+02 -0.46369305217E+03  0.46551171070E+03  0.47000000000E+01 0.  1.
          5    1    5    5  503    0  0.37138560557E+02 -0.18738858512E+02 -0.11646135110E+04  0.11653656669E+04  0.47000000000E+01 0. -1.
         -5    1    5    5    0  503  0.44678441359E+01  0.11029430382E+02 -0.83449099304E+01  0.15275388293E+02  0.47000000000E+01 0. -1.
<mgrwt>
<rscale>  0 0.27750239E+03</rscale>
<asrwt>0</asrwt>
<pdfrwt beam="1">  1        2 0.28539230E+00 0.27750239E+03</pdfrwt>
<pdfrwt beam="2">  1       -2 0.15966308E-02 0.27750239E+03</pdfrwt>
<totfact> 0.95342022E+03</totfact>
</mgrwt>
</event>
<event>
 9    1  0.2114844E-002  0.2742132E+03  0.7818608E-02  0.1098892E+00
         -2   -1    0    0    0  501 -0.00000000000E+00  0.00000000000E+00  0.16710328445E+02  0.16710328445E+02  0.00000000000E+00 0.  1.
          2   -1    0    0  501    0  0.00000000000E+00 -0.00000000000E+00 -0.11249462228E+04  0.11249462228E+04  0.00000000000E+00 0.  1.
         36    2    1    2    0    0 -0.71054273576E-14  0.00000000000E+00 -0.11082358944E+04  0.11416565513E+04  0.27421320804E+03 0.  0.
         25    2    3    3    0    0  0.35272243548E+02 -0.82970454335E+01 -0.70269040982E+03  0.71526994641E+03  0.12854692550E+03 0.  0.
         25    2    3    3    0    0 -0.35272243548E+02  0.82970454335E+01 -0.40554548457E+03  0.42638660487E+03  0.12659156619E+03 0.  0.
          5    1    4    4  502    0 -0.37406196846E+02  0.30001785744E+02 -0.18976498721E+03  0.19578603393E+03  0.47000000000E+01 0. -1.
         -5    1    4    4    0  502  0.72678440394E+02 -0.38298831177E+02 -0.51292542261E+03  0.51948391248E+03  0.47000000000E+01 0. -1.
          5    1    5    5  503    0 -0.40051041693E+02 -0.54239584179E+02 -0.23854632197E+03  0.24793639539E+03  0.47000000000E+01 0. -1.
         -5    1    5    5    0  503  0.47787981455E+01  0.62536629613E+02 -0.16699916259E+03  0.17845020948E+03  0.47000000000E+01 0. -1.
<mgrwt>
<rscale>  0 0.27421321E+03</rscale>
<asrwt>0</asrwt>
<pdfrwt beam="1">  1        2 0.17306864E+00 0.27421321E+03</pdfrwt>
<pdfrwt beam="2">  1       -2 0.25708199E-02 0.27421321E+03</pdfrwt>
<totfact> 0.11752481E+04</totfact>
</mgrwt>
</event>
<event>
 9    1  0.2114844E-002  0.2755300E+03  0.7818608E-02  0.1098156E+00
          1   -1    0    0  501    0  0.00000000000E+00  0.00000000000E+00  0.10042143155E+03  0.10042143155E+03  0.00000000000E+00 0.  1.
         -1   -1    0    0    0  501 -0.00000000000E+00 -0.00000000000E+00 -0.18899539828E+03  0.18899539828E+03  0.00000000000E+00 0.  1.
         36    2    1    2    0    0  0.00000000000E+00  0.00000000000E+00 -0.88573966732E+02  0.28941682983E+03  0.27552995083E+03 0.  0.
         25    2    3    3    0    0  0.38241103794E+02 -0.47623433441E+01 -0.23095935253E+01  0.13131908327E+03  0.12551615623E+03 0.  0.
         25    2    3    3    0    0 -0.38241103794E+02  0.47623433441E+01 -0.86264373206E+02  0.15809774656E+03  0.12676077252E+03 0.  0.
          5    1    4    4  502    0  0.46423574632E+02  0.54156679133E+02  0.17962308433E+01  0.71508115774E+02  0.47000000000E+01 0.  1.
         -5    1    4    4    0  502 -0.81824708381E+01 -0.58919022477E+02 -0.41058243686E+01  0.59810967493E+02  0.47000000000E+01 0.  1.
          5    1    5    5  503    0 -0.11483335394E+02  0.36900388923E+02  0.20026370338E+02  0.43779575185E+02  0.47000000000E+01 0. -1.
         -5    1    5    5    0  503 -0.26757768400E+02 -0.32138045579E+02 -0.10629074354E+03  0.11431817138E+03  0.47000000000E+01 0. -1.
<mgrwt>
<rscale>  0 0.27552995E+03</rscale>
<asrwt>0</asrwt>
<pdfrwt beam="1">  1        1 0.15449451E-01 0.27552995E+03</pdfrwt>
<pdfrwt beam="2">  1       -1 0.29076215E-01 0.27552995E+03</pdfrwt>
<totfact> 0.38421199E+03</totfact>
</mgrwt>
</event>
<event>
 9    1  0.2114844E-002  0.2749989E+03  0.7818608E-02  0.1098452E+00
         -2   -1    0    0    0  501 -0.00000000000E+00  0.00000000000E+00  0.45628903200E+02  0.45628903200E+02  0.00000000000E+00 0.  1.
          2   -1    0    0  501    0  0.00000000000E+00 -0.00000000000E+00 -0.41434469693E+03  0.41434469693E+03  0.00000000000E+00 0.  1.
         36    2    1    2    0    0 -0.71054273576E-14  0.71054273576E-14 -0.36871579373E+03  0.45997360013E+03  0.27499886595E+03 0.  0.
         25    2    3    3    0    0  0.44913701272E+02 -0.11334004099E+02 -0.22847458414E+03  0.26506260998E+03  0.12614218724E+03 0.  0.
         25    2    3    3    0    0 -0.44913701272E+02  0.11334004099E+02 -0.14024120959E+03  0.19491099015E+03  0.12718882421E+03 0.  0.
          5    1    4    4  502    0  0.32169157924E+02  0.53175901374E+02 -0.71769317620E+02  0.95055016491E+02  0.47000000000E+01 0.  1.
         -5    1    4    4    0  502  0.12744543347E+02 -0.64509905473E+02 -0.15670526652E+03  0.17000759349E+03  0.47000000000E+01 0.  1.
          5    1    5    5  503    0 -0.83208269211E+02  0.33297949917E+02 -0.10569737922E+03  0.13865927848E+03  0.47000000000E+01 0. -1.
         -5    1    5    5    0  503  0.38294567939E+02 -0.21963945818E+02 -0.34543830374E+02  0.56251711676E+02  0.47000000000E+01 0. -1.
<mgrwt>
<rscale>  0 0.27499887E+03</rscale>
<asrwt>0</asrwt>
<pdfrwt beam="1">  1        2 0.63745339E-01 0.27499887E+03</pdfrwt>
<pdfrwt beam="2">  1       -2 0.70198311E-02 0.27499887E+03</pdfrwt>
<totfact> 0.88511208E+03</totfact>
</mgrwt>
</event>
<event>
 9    1  0.2114844E-002  0.2757332E+03  0.7818608E-02  0.1098042E+00
         -1   -1    0    0    0  501 -0.00000000000E+00  0.00000000000E+00  0.73537383004E+02  0.73537383004E+02  0.00000000000E+00 0.  1.
          1   -1    0    0  501    0  0.00000000000E+00 -0.00000000000E+00 -0.25846995731E+03  0.25846995731E+03  0.00000000000E+00 0.  1.
         36    2    1    2    0    0  0.35527136788E-14  0.00000000000E+00 -0.18493257431E+03  0.33200734032E+03  0.27573323518E+03 0.  0.
         25    2    3    3    0    0 -0.20724366406E+02  0.47132672794E+02 -0.79466279487E+02  0.16063221084E+03  0.12975680859E+03 0.  0.
         25    2    3    3    0    0  0.20724366406E+02 -0.47132672794E+02 -0.10546629482E+03  0.17137512948E+03  0.12488117333E+03 0.  0.
          5    1    4    4  502    0 -0.62209332977E+02  0.53136864804E+01 -0.12781429011E+01  0.62625554072E+02  0.47000000000E+01 0.  1.
         -5    1    4    4    0  502  0.41484966572E+02  0.41818986313E+02 -0.78188136586E+02  0.98006656766E+02  0.47000000000E+01 0.  1.
          5    1    5    5  503    0  0.17327561601E+02  0.22492534449E+02  0.14743981191E+02  0.32336256405E+02  0.47000000000E+01 0.  1.
         -5    1    5    5    0  503  0.33968048048E+01 -0.69625207242E+02 -0.12021027601E+03  0.13903887307E+03  0.47000000000E+01 0.  1.
<mgrwt>
<rscale>  0 0.27573324E+03</rscale>
<asrwt>0</asrwt>
<pdfrwt beam="1">  1        1 0.39764609E-01 0.27573324E+03</pdfrwt>
<pdfrwt beam="2">  1       -1 0.11313443E-01 0.27573324E+03</pdfrwt>
<totfact> 0.52850054E+03</totfact>
</mgrwt>
</event>
<event>
 9    1  0.2114844E-002  0.2748351E+03  0.7818608E-02  0.1098544E+00
          1   -1    0    0  501    0  0.00000000000E+00  0.00000000000E+00  0.13951208976E+03  0.13951208976E+03  0.00000000000E+00 0. -1.
         -1   -1    0    0    0  501 -0.00000000000E+00 -0.00000000000E+00 -0.13535445320E+03  0.13535445320E+03  0.00000000000E+00 0. -1.
         36    2    1    2    0    0  0.71054273576E-14  0.00000000000E+00  0.41576365628E+01  0.27486654296E+03  0.27483509691E+03 0.  0.
         25    2    3    3    0    0  0.17413224827E+01 -0.45794843485E+02 -0.22639143873E+02  0.13970577023E+03  0.13001911977E+03 0.  0.
         25    2    3    3    0    0 -0.17413224827E+01  0.45794843485E+02  0.26796780436E+02  0.13516077273E+03  0.12429870132E+03 0.  0.
          5    1    4    4  502    0 -0.49840383365E+02 -0.65266882522E+02 -0.17806424753E+02  0.84160492694E+02  0.47000000000E+01 0. -1.
         -5    1    4    4    0  502  0.51581705847E+02  0.19472039037E+02 -0.48327191203E+01  0.55545277535E+02  0.47000000000E+01 0. -1.
          5    1    5    5  503    0  0.30294504487E+02 -0.31505460281E+02 -0.75223518589E+01  0.44598506781E+02  0.47000000000E+01 0.  1.
         -5    1    5    5    0  503 -0.32035826970E+02  0.77300303766E+02  0.34319132295E+02  0.90562265947E+02  0.47000000000E+01 0.  1.
<mgrwt>
<rscale>  0 0.27483510E+03</rscale>
<asrwt>0</asrwt>
<pdfrwt beam="1">  1        1 0.21463398E-01 0.27483510E+03</pdfrwt>
<pdfrwt beam="2">  1       -1 0.20823762E-01 0.27483510E+03</pdfrwt>
<totfact> 0.43681817E+03</totfact>
</mgrwt>
</event>
<event>
 9    1  0.2114844E-002  0.2750271E+03  0.7818608E-02  0.1098436E+00
         -1   -1    0    0    0  501 -0.00000000000E+00  0.00000000000E+00  0.54323038555E+02  0.54323038555E+02  0.00000000000E+00 0.  1.
          1   -1    0    0  501    0  0.00000000000E+00 -0.00000000000E+00 -0.34810243715E+03  0.34810243715E+03  0.00000000000E+00 0.  1.
         36    2    1    2    0    0  0.00000000000E+00  0.00000000000E+00 -0.29377939860E+03  0.40242547571E+03  0.27502714131E+03 0.  0.
         25    2    3    3    0    0 -0.22612634373E+02 -0.35402045068E+02 -0.20395458074E+03  0.24261468782E+03  0.12449811128E+03 0.  0.
         25    2    3    3    0    0  0.22612634373E+02  0.35402045068E+02 -0.89824817859E+02  0.15981078789E+03  0.12532499349E+03 0.  0.
          5    1    4    4  502    0  0.50738735905E+02 -0.66196512998E+01 -0.95900435736E+02  0.10879900128E+03  0.47000000000E+01 0.  1.
         -5    1    4    4    0  502 -0.73351370278E+02 -0.28782393768E+02 -0.10805414500E+03  0.13381568654E+03  0.47000000000E+01 0.  1.
          5    1    5    5  503    0  0.33504031073E+02 -0.32905785242E+02 -0.75467228681E+02  0.89009569178E+02  0.47000000000E+01 0.  1.
         -5    1    5    5    0  503 -0.10891396700E+02  0.68307830310E+02 -0.14357589178E+02  0.70801218709E+02  0.47000000000E+01 0.  1.
<mgrwt>
<rscale>  0 0.27502714E+03</rscale>
<asrwt>0</asrwt>
<pdfrwt beam="1">  1        1 0.53554220E-01 0.27502714E+03</pdfrwt>
<pdfrwt beam="2">  1       -1 0.83573907E-02 0.27502714E+03</pdfrwt>
<totfact> 0.57973187E+03</totfact>
</mgrwt>
</event>
<event>
 9    1  0.2114844E-002  0.2751306E+03  0.7818608E-02  0.1098379E+00
         -1   -1    0    0    0  501 -0.00000000000E+00  0.00000000000E+00  0.21455778660E+03  0.21455778660E+03  0.00000000000E+00 0.  1.
          1   -1    0    0  501    0  0.00000000000E+00 -0.00000000000E+00 -0.88201005799E+02  0.88201005799E+02  0.00000000000E+00 0.  1.
         36    2    1    2    0    0 -0.71054273576E-14  0.35527136788E-14  0.12635678080E+03  0.30275879240E+03  0.27513060593E+03 0.  0.
         25    2    3    3    0    0  0.56727233861E+02  0.37882712511E+01  0.73371062290E+02  0.15524385096E+03  0.12443878181E+03 0.  0.
         25    2    3    3    0    0 -0.56727233861E+02 -0.37882712511E+01  0.52985718512E+02  0.14751494144E+03  0.12538278001E+03 0.  0.
          5    1    4    4  502    0  0.62180305627E+01  0.34768214803E+02 -0.22717354232E+02  0.42257080447E+02  0.47000000000E+01 0. -1.
         -5    1    4    4    0  502  0.50509203298E+02 -0.30979943552E+02  0.96088416521E+02  0.11298677051E+03  0.47000000000E+01 0. -1.
          5    1    5    5  503    0 -0.17951244569E+02 -0.59177475282E+02  0.50015657489E+02  0.79673563723E+02  0.47000000000E+01 0. -1.
         -5    1    5    5    0  503 -0.38775989291E+02  0.55389204031E+02  0.29700610236E+01  0.67841377722E+02  0.47000000000E+01 0. -1.
<mgrwt>
<rscale>  0 0.27513061E+03</rscale>
<asrwt>0</asrwt>
<pdfrwt beam="1">  1        1 0.13569386E-01 0.27513061E+03</pdfrwt>
<pdfrwt beam="2">  1       -1 0.33008890E-01 0.27513061E+03</pdfrwt>
<totfact> 0.36688399E+03</totfact>
</mgrwt>
</event>
<event>
 9    1  0.2114844E-002  0.2755025E+03  0.7818608E-02  0.1098171E+00
         -2   -1    0    0    0  501 -0.00000000000E+00  0.00000000000E+00  0.23495866472E+02  0.23495866472E+02  0.00000000000E+00 0. -1.
          2   -1    0    0  501    0  0.00000000000E+00 -0.00000000000E+00 -0.80760641764E+03  0.80760641764E+03  0.00000000000E+00 0. -1.
         36    2    1    2    0    0  0.00000000000E+00  0.14210854715E-13 -0.78411055117E+03  0.83110228411E+03  0.27550254119E+03 0.  0.
         25    2    3    3    0    0 -0.37453846332E+02 -0.38930932714E+02 -0.44748272596E+03  0.46711713396E+03  0.12263449222E+03 0.  0.
         25    2    3    3    0    0  0.37453846332E+02  0.38930932714E+02 -0.33662782521E+03  0.36398515015E+03  0.12746955989E+03 0.  0.
          5    1    4    4  502    0  0.12285047497E+02 -0.34612278437E+02 -0.38602420505E+03  0.38779596323E+03  0.47000000000E+01 0. -1.
         -5    1    4    4    0  502 -0.49738893829E+02 -0.43186542769E+01 -0.61458520903E+02  0.79321170728E+02  0.47000000000E+01 0. -1.
          5    1    5    5  503    0  0.31891541789E+01 -0.71239727624E+01  0.94620855289E+01  0.13135553085E+02  0.47000000000E+01 0.  1.
         -5    1    5    5    0  503  0.34264692153E+02  0.46054905476E+02 -0.34608991074E+03  0.35084959707E+03  0.47000000000E+01 0.  1.
<mgrwt>
<rscale>  0 0.27550254E+03</rscale>
<asrwt>0</asrwt>
<pdfrwt beam="1">  1        2 0.12424713E+00 0.27550254E+03</pdfrwt>
<pdfrwt beam="2">  1       -2 0.36147489E-02 0.27550254E+03</pdfrwt>
<totfact> 0.11185236E+04</totfact>
</mgrwt>
</event>
<event>
 9    1  0.2114844E-002  0.2727987E+03  0.7818608E-02  0.1099688E+00
          2   -1    0    0  501    0  0.00000000000E+00  0.00000000000E+00  0.21908204991E+04  0.21908204991E+04  0.00000000000E+00 0. -1.
         -2   -1    0    0    0  501 -0.00000000000E+00 -0.00000000000E+00 -0.84921513805E+01  0.84921513805E+01  0.00000000000E+00 0. -1.
         36    2    1    2    0    0  0.35527136788E-14  0.71054273576E-14  0.21823283477E+04  0.21993126505E+04  0.27279867541E+03 0.  0.
         25    2    3    3    0    0 -0.10301558210E+02  0.39782177391E+02  0.14604250234E+04  0.14652377645E+04  0.11131807480E+03 0.  0.
         25    2    3    3    0    0  0.10301558210E+02 -0.39782177391E+02  0.72190332429E+03  0.73407488596E+03  0.12662063354E+03 0.  0.
          5    1    4    4  502    0  0.16860416967E+02  0.57111373794E+02  0.41204068206E+03  0.41634792704E+03  0.47000000000E+01 0. -1.
         -5    1    4    4    0  502 -0.27161975178E+02 -0.17329196403E+02  0.10483843414E+04  0.10488898375E+04  0.47000000000E+01 0. -1.
          5    1    5    5  503    0 -0.15196108021E+02  0.84153972711E+01  0.11048389179E+02  0.21116285508E+02  0.47000000000E+01 0.  1.
         -5    1    5    5    0  503  0.25497666231E+02 -0.48197574662E+02  0.71085493512E+03  0.71295860046E+03  0.47000000000E+01 0.  1.
<mgrwt>
<rscale>  0 0.27279868E+03</rscale>
<asrwt>0</asrwt>
<pdfrwt beam="1">  1        2 0.33704886E+00 0.27279868E+03</pdfrwt>
<pdfrwt beam="2">  1       -2 0.13064866E-02 0.27279868E+03</pdfrwt>
<totfact> 0.85026148E+03</totfact>
</mgrwt>
</event>
<event>
 9    1  0.2114844E-002  0.2748502E+03  0.7818608E-02  0.1098535E+00
         -2   -1    0    0    0  501 -0.00000000000E+00  0.00000000000E+00  0.23445035934E+02  0.23445035934E+02  0.00000000000E+00 0. -1.
          2   -1    0    0  501    0  0.00000000000E+00 -0.00000000000E+00 -0.80552914247E+03  0.80552914247E+03  0.00000000000E+00 0. -1.
         36    2    1    2    0    0  0.35527136788E-14  0.35527136788E-14 -0.78208410653E+03  0.82897417840E+03  0.27485021150E+03 0.  0.
         25    2    3    3    0    0 -0.17333199195E+02  0.99752145313E+01 -0.56152937909E+03  0.57683091730E+03  0.13045581196E+03 0.  0.
         25    2    3    3    0    0  0.17333199195E+02 -0.99752145313E+01 -0.22055472744E+03  0.25214326110E+03  0.12054829580E+03 0.  0.
          5    1    4    4  502    0  0.43735852800E+02  0.55424032470E+01 -0.80534486183E+02  0.91931694854E+02  0.47000000000E+01 0.  1.
         -5    1    4    4    0  502 -0.61069051995E+02  0.44328112843E+01 -0.48099489291E+03  0.48489922245E+03  0.47000000000E+01 0.  1.
          5    1    5    5  503    0  0.44528026207E+00  0.40499911491E+02 -0.21607439290E+02  0.46145558160E+02  0.47000000000E+01 0. -1.
         -5    1    5    5    0  503  0.16887918933E+02 -0.50475126022E+02 -0.19894728815E+03  0.20599770293E+03  0.47000000000E+01 0. -1.
<mgrwt>
<rscale>  0 0.27485021E+03</rscale>
<asrwt>0</asrwt>
<pdfrwt beam="1">  1        2 0.12392751E+00 0.27485021E+03</pdfrwt>
<pdfrwt beam="2">  1       -2 0.36069301E-02 0.27485021E+03</pdfrwt>
<totfact> 0.11257624E+04</totfact>
</mgrwt>
</event>
<event>
 9    1  0.2114844E-002  0.2727942E+03  0.7818608E-02  0.1099691E+00
          1   -1    0    0  501    0  0.00000000000E+00  0.00000000000E+00  0.19938547584E+03  0.19938547584E+03  0.00000000000E+00 0.  1.
         -1   -1    0    0    0  501 -0.00000000000E+00 -0.00000000000E+00 -0.93307555166E+02  0.93307555166E+02  0.00000000000E+00 0.  1.
         36    2    1    2    0    0  0.71054273576E-14  0.00000000000E+00  0.10607792067E+03  0.29269303100E+03  0.27279421758E+03 0.  0.
         25    2    3    3    0    0  0.38985382435E+02 -0.38887448993E+02  0.82698020541E+02  0.15217508995E+03  0.11526578706E+03 0.  0.
         25    2    3    3    0    0 -0.38985382435E+02  0.38887448993E+02  0.23379900130E+02  0.14051794106E+03  0.12714785997E+03 0.  0.
          5    1    4    4  502    0  0.72242572978E+02  0.19083655752E+01  0.32821545842E+02  0.79510848827E+02  0.47000000000E+01 0.  1.
         -5    1    4    4    0  502 -0.33257190543E+02 -0.40795814569E+02  0.49876474698E+02  0.72664241120E+02  0.47000000000E+01 0.  1.
          5    1    5    5  503    0  0.69754539368E+01  0.25547662673E+01 -0.47575596861E+02  0.48380897109E+02  0.47000000000E+01 0.  1.
         -5    1    5    5    0  503 -0.45960836372E+02  0.36332682726E+02  0.70955496991E+02  0.92137043947E+02  0.47000000000E+01 0.  1.
<mgrwt>
<rscale>  0 0.27279422E+03</rscale>
<asrwt>0</asrwt>
<pdfrwt beam="1">  1        1 0.30674688E-01 0.27279422E+03</pdfrwt>
<pdfrwt beam="2">  1       -1 0.14355009E-01 0.27279422E+03</pdfrwt>
<totfact> 0.50395809E+03</totfact>
</mgrwt>
</event>
<event>
 9    1  0.2114844E-002  0.2771056E+03  0.7818608E-02  0.1097280E+00
          2   -1    0    0  501    0  0.00000000000E+00  0.00000000000E+00  0.11338984093E+04  0.11338984093E+04  0.00000000000E+00 0. -1.
         -2   -1    0    0    0  501 -0.00000000000E+00 -0.00000000000E+00 -0.16929980702E+02  0.16929980702E+02  0.00000000000E+00 0. -1.
         36    2    1    2    0    0  0.00000000000E+00  0.14210854715E-13  0.11169684286E+04  0.11508283900E+04  0.27710559855E+03 0.  0.
         25    2    3    3    0    0 -0.17852319624E+02  0.50919892032E+02  0.47976099778E+03  0.49879320588E+03  0.12534953740E+03 0.  0.
         25    2    3    3    0    0  0.17852319624E+02 -0.50919892032E+02  0.63720743081E+03  0.65203518411E+03  0.12729898159E+03 0.  0.
          5    1    4    4  502    0  0.13226582571E+02  0.43251209764E+02  0.49111717950E+02  0.66930265744E+02  0.47000000000E+01 0.  1.
         -5    1    4    4    0  502 -0.31078902195E+02  0.76686822683E+01  0.43064927983E+03  0.43186294014E+03  0.47000000000E+01 0.  1.
          5    1    5    5  503    0 -0.55061104393E+01 -0.40242327049E+02  0.51554821666E+02  0.65800849353E+02  0.47000000000E+01 0.  1.
         -5    1    5    5    0  503  0.23358430063E+02 -0.10677564983E+02  0.58565260914E+03  0.58623433475E+03  0.47000000000E+01 0.  1.
<mgrwt>
<rscale>  0 0.27710560E+03</rscale>
<asrwt>0</asrwt>
<pdfrwt beam="1">  1        2 0.17444585E+00 0.27710560E+03</pdfrwt>
<pdfrwt beam="2">  1       -2 0.26046133E-02 0.27710560E+03</pdfrwt>
<totfact> 0.11393465E+04</totfact>
</mgrwt>
</event>
<event>
 9    1  0.2114844E-002  0.2751156E+03  0.7818608E-02  0.1098387E+00
          1   -1    0    0  501    0  0.00000000000E+00  0.00000000000E+00  0.13909999843E+03  0.13909999843E+03  0.00000000000E+00 0. -1.
         -1   -1    0    0    0  501 -0.00000000000E+00 -0.00000000000E+00 -0.13603265543E+03  0.13603265543E+03  0.00000000000E+00 0. -1.
         36    2    1    2    0    0  0.00000000000E+00  0.00000000000E+00  0.30673430077E+01  0.27513265386E+03  0.27511555504E+03 0.  0.
         25    2    3    3    0    0  0.41813845443E+02 -0.51467950933E+01  0.58948396118E+02  0.13175294039E+03  0.11004106836E+03 0.  0.
         25    2    3    3    0    0 -0.41813845443E+02  0.51467950933E+01 -0.55881053111E+02  0.14337971347E+03  0.12514057283E+03 0.  0.
          5    1    4    4  502    0  0.67089735233E+01  0.41145633567E+02 -0.82931989040E+01  0.42764946340E+02  0.47000000000E+01 0.  1.
         -5    1    4    4    0  502  0.35104871919E+02 -0.46292428661E+02  0.67241595022E+02  0.88987994049E+02  0.47000000000E+01 0.  1.
          5    1    5    5  503    0 -0.93514199957E+01 -0.49282828681E+02  0.10520516506E+02  0.51468607192E+02  0.47000000000E+01 0. -1.
         -5    1    5    5    0  503 -0.32462425447E+02  0.54429623774E+02 -0.66401569616E+02  0.91911106280E+02  0.47000000000E+01 0. -1.
<mgrwt>
<rscale>  0 0.27511556E+03</rscale>
<asrwt>0</asrwt>
<pdfrwt beam="1">  1        1 0.21400000E-01 0.27511556E+03</pdfrwt>
<pdfrwt beam="2">  1       -1 0.20928101E-01 0.27511556E+03</pdfrwt>
<totfact> 0.43493033E+03</totfact>
</mgrwt>
</event>
<event>
 9    1  0.2114844E-002  0.2744948E+03  0.7818608E-02  0.1098734E+00
          4   -1    0    0  501    0  0.00000000000E+00  0.00000000000E+00  0.34207478992E+03  0.34207478992E+03  0.00000000000E+00 0.  1.
         -4   -1    0    0    0  501 -0.00000000000E+00 -0.00000000000E+00 -0.55066452324E+02  0.55066452324E+02  0.00000000000E+00 0.  1.
         36    2    1    2    0    0  0.71054273576E-14 -0.35527136788E-14  0.28700833760E+03  0.39714124224E+03  0.27449477307E+03 0.  0.
         25    2    3    3    0    0 -0.36075489973E+02 -0.27230219487E+01  0.84030216705E+02  0.15432924643E+03  0.12428830661E+03 0.  0.
         25    2    3    3    0    0  0.36075489973E+02  0.27230219487E+01  0.20297812089E+03  0.24281199581E+03  0.12825245387E+03 0.  0.
          5    1    4    4  502    0  0.16061135826E+02  0.23885622040E+02 -0.19655261388E+02  0.35169622183E+02  0.47000000000E+01 0.  1.
         -5    1    4    4    0  502 -0.52136625799E+02 -0.26608643988E+02  0.10368547809E+03  0.11915962425E+03  0.47000000000E+01 0.  1.
          5    1    5    5  503    0  0.22435650784E+02  0.62339763998E+02  0.70708361405E+02  0.97012200130E+02  0.47000000000E+01 0. -1.
         -5    1    5    5    0  503  0.13639839189E+02 -0.59616742049E+02  0.13226975949E+03  0.14579979568E+03  0.47000000000E+01 0. -1.
<mgrwt>
<rscale>  0 0.27449477E+03</rscale>
<asrwt>0</asrwt>
<pdfrwt beam="1">  1        4 0.52626890E-01 0.27449477E+03</pdfrwt>
<pdfrwt beam="2">  1       -4 0.84717621E-02 0.27449477E+03</pdfrwt>
<totfact> 0.65629321E+02</totfact>
</mgrwt>
</event>
<event>
 9    1  0.2114844E-002  0.2741392E+03  0.7818608E-02  0.1098934E+00
          1   -1    0    0  501    0  0.00000000000E+00  0.00000000000E+00  0.77482827447E+03  0.77482827447E+03  0.00000000000E+00 0.  1.
         -1   -1    0    0    0  501 -0.00000000000E+00 -0.00000000000E+00 -0.24248047865E+02  0.24248047865E+02  0.00000000000E+00 0.  1.
         36    2    1    2    0    0  0.71054273576E-14  0.00000000000E+00  0.75058022660E+03  0.79907632233E+03  0.27413918426E+03 0.  0.
         25    2    3    3    0    0 -0.92117857015E+01 -0.44746249196E+02  0.27549808304E+03  0.30653558310E+03  0.12640326789E+03 0.  0.
         25    2    3    3    0    0  0.92117857015E+01  0.44746249196E+02  0.47508214356E+03  0.49254073924E+03  0.12168094699E+03 0.  0.
          5    1    4    4  502    0 -0.43308891409E+02 -0.68793940887E+02  0.11683399484E+03  0.14240975643E+03  0.47000000000E+01 0.  1.
         -5    1    4    4    0  502  0.34097105708E+02  0.24047691691E+02  0.15866408820E+03  0.16412582666E+03  0.47000000000E+01 0.  1.
          5    1    5    5  503    0 -0.29995837044E+02  0.69770724570E+02  0.36661067673E+03  0.37442380071E+03  0.47000000000E+01 0.  1.
         -5    1    5    5    0  503  0.39207622746E+02 -0.25024475374E+02  0.10847146684E+03  0.11811693853E+03  0.47000000000E+01 0.  1.
<mgrwt>
<rscale>  0 0.27413918E+03</rscale>
<asrwt>0</asrwt>
<pdfrwt beam="1">  1        1 0.11920433E+00 0.27413918E+03</pdfrwt>
<pdfrwt beam="2">  1       -1 0.37304695E-02 0.27413918E+03</pdfrwt>
<totfact> 0.65909589E+03</totfact>
</mgrwt>
</event>
<event>
 9    1  0.2114844E-002  0.2752440E+03  0.7818608E-02  0.1098315E+00
         -2   -1    0    0    0  501 -0.00000000000E+00  0.00000000000E+00  0.27242470470E+02  0.27242470470E+02  0.00000000000E+00 0.  1.
          2   -1    0    0  501    0  0.00000000000E+00 -0.00000000000E+00 -0.69523130734E+03  0.69523130734E+03  0.00000000000E+00 0.  1.
         36    2    1    2    0    0  0.00000000000E+00 -0.71054273576E-14 -0.66798883687E+03  0.72247377781E+03  0.27524402526E+03 0.  0.
         25    2    3    3    0    0  0.12527639178E+02 -0.33658226822E+02 -0.31861569251E+03  0.34821712240E+03  0.13582851999E+03 0.  0.
         25    2    3    3    0    0 -0.12527639178E+02  0.33658226822E+02 -0.34937314436E+03  0.37425665541E+03  0.12929281551E+03 0.  0.
          5    1    4    4  502    0  0.16525214859E+02  0.50606962932E+02 -0.15702383137E+03  0.16586959047E+03  0.47000000000E+01 0. -1.
         -5    1    4    4    0  502 -0.39975756810E+01 -0.84265189753E+02 -0.16159186114E+03  0.18234753193E+03  0.47000000000E+01 0. -1.
          5    1    5    5  503    0 -0.65159095891E+02  0.40473318531E+02 -0.15947225826E+03  0.17702341214E+03  0.47000000000E+01 0.  1.
         -5    1    5    5    0  503  0.52631456713E+02 -0.68150917094E+01 -0.18990088611E+03  0.19723324328E+03  0.47000000000E+01 0.  1.
<mgrwt>
<rscale>  0 0.27524403E+03</rscale>
<asrwt>0</asrwt>
<pdfrwt beam="1">  1        2 0.10695866E+00 0.27524403E+03</pdfrwt>
<pdfrwt beam="2">  1       -2 0.41911494E-02 0.27524403E+03</pdfrwt>
<totfact> 0.10788135E+04</totfact>
</mgrwt>
</event>
<event>
 9    1  0.2114844E-002  0.2752578E+03  0.7818608E-02  0.1098308E+00
         -2   -1    0    0    0  501 -0.00000000000E+00  0.00000000000E+00  0.48367384182E+02  0.48367384182E+02  0.00000000000E+00 0. -1.
          2   -1    0    0  501    0  0.00000000000E+00 -0.00000000000E+00 -0.39162164646E+03  0.39162164646E+03  0.00000000000E+00 0. -1.
         36    2    1    2    0    0  0.00000000000E+00  0.00000000000E+00 -0.34325426228E+03  0.43998903064E+03  0.27525780373E+03 0.  0.
         25    2    3    3    0    0  0.36092292625E+02  0.27162693967E+02 -0.11296813232E+03  0.17406614264E+03  0.12448597336E+03 0.  0.
         25    2    3    3    0    0 -0.36092292625E+02 -0.27162693967E+02 -0.23028612995E+03  0.26592288800E+03  0.12507124043E+03 0.  0.
          5    1    4    4  502    0  0.29783919846E+02 -0.36133002608E+02 -0.32724274090E+01  0.47174935506E+02  0.47000000000E+01 0.  1.
         -5    1    4    4    0  502  0.63083727790E+01  0.63295696574E+02 -0.10969570491E+03  0.12689120714E+03  0.47000000000E+01 0.  1.
          5    1    5    5  503    0 -0.39405681495E+02 -0.51402852550E+02 -0.23203271289E+03  0.24094881372E+03  0.47000000000E+01 0. -1.
         -5    1    5    5    0  503  0.33133888704E+01  0.24240158583E+02  0.17465829354E+01  0.24974074275E+02  0.47000000000E+01 0. -1.
<mgrwt>
<rscale>  0 0.27525780E+03</rscale>
<asrwt>0</asrwt>
<pdfrwt beam="1">  1        2 0.60249484E-01 0.27525780E+03</pdfrwt>
<pdfrwt beam="2">  1       -2 0.74411360E-02 0.27525780E+03</pdfrwt>
<totfact> 0.85976384E+03</totfact>
</mgrwt>
</event>
<event>
 9    1  0.2114844E-002  0.2753058E+03  0.7818608E-02  0.1098281E+00
         -1   -1    0    0    0  501 -0.00000000000E+00  0.00000000000E+00  0.40982091637E+02  0.40982091637E+02  0.00000000000E+00 0. -1.
          1   -1    0    0  501    0  0.00000000000E+00 -0.00000000000E+00 -0.46235604065E+03  0.46235604065E+03  0.00000000000E+00 0. -1.
         36    2    1    2    0    0  0.35527136788E-14 -0.71054273576E-14 -0.42137394901E+03  0.50333813229E+03  0.27530577638E+03 0.  0.
         25    2    3    3    0    0  0.10231136658E+02 -0.55185763756E+02 -0.17424071977E+03  0.22108697377E+03  0.12397369424E+03 0.  0.
         25    2    3    3    0    0 -0.10231136658E+02  0.55185763756E+02 -0.24713322924E+03  0.28225115852E+03  0.12426076941E+03 0.  0.
          5    1    4    4  502    0 -0.88712622939E+01 -0.71981749931E+02 -0.37236443553E+02  0.81662196556E+02  0.47000000000E+01 0. -1.
         -5    1    4    4    0  502  0.19102398952E+02  0.16795986176E+02 -0.13700427622E+03  0.13942477721E+03  0.47000000000E+01 0. -1.
          5    1    5    5  503    0  0.38725635951E+02 -0.12811978271E+02 -0.34406702166E+02  0.53569887260E+02  0.47000000000E+01 0. -1.
         -5    1    5    5    0  503 -0.48956772610E+02  0.67997742027E+02 -0.21272652707E+03  0.22868127126E+03  0.47000000000E+01 0. -1.
<mgrwt>
<rscale>  0 0.27530578E+03</rscale>
<asrwt>0</asrwt>
<pdfrwt beam="1">  1        1 0.71131698E-01 0.27530578E+03</pdfrwt>
<pdfrwt beam="2">  1       -1 0.63049372E-02 0.27530578E+03</pdfrwt>
<totfact> 0.61794453E+03</totfact>
</mgrwt>
</event>
<event>
 9    1  0.2114844E-002  0.2751443E+03  0.7818608E-02  0.1098371E+00
         -1   -1    0    0    0  501 -0.00000000000E+00  0.00000000000E+00  0.95845265938E+02  0.95845265938E+02  0.00000000000E+00 0.  1.
          1   -1    0    0  501    0  0.00000000000E+00 -0.00000000000E+00 -0.19746516608E+03  0.19746516608E+03  0.00000000000E+00 0.  1.
         36    2    1    2    0    0 -0.35527136788E-14 -0.71054273576E-14 -0.10161990014E+03  0.29331043202E+03  0.27514433562E+03 0.  0.
         25    2    3    3    0    0  0.60319037596E+01 -0.33446374054E+02  0.37396781222E+01  0.12831169785E+03  0.12367240117E+03 0.  0.
         25    2    3    3    0    0 -0.60319037596E+01  0.33446374054E+02 -0.10535957826E+03  0.16499873417E+03  0.12234744683E+03 0.  0.
          5    1    4    4  502    0  0.55830210397E+02 -0.20794114440E+02 -0.29793664882E+02  0.66776942543E+02  0.47000000000E+01 0.  1.
         -5    1    4    4    0  502 -0.49798306638E+02 -0.12652259614E+02  0.33533343004E+02  0.61534755304E+02  0.47000000000E+01 0.  1.
          5    1    5    5  503    0 -0.30717863089E+01 -0.12566220549E+02 -0.11651773530E+03  0.11732782453E+03  0.47000000000E+01 0. -1.
         -5    1    5    5    0  503 -0.29601174507E+01  0.46012594603E+02  0.11158157034E+02  0.47670909640E+02  0.47000000000E+01 0. -1.
<mgrwt>
<rscale>  0 0.27514434E+03</rscale>
<asrwt>0</asrwt>
<pdfrwt beam="1">  1        1 0.30379256E-01 0.27514434E+03</pdfrwt>
<pdfrwt beam="2">  1       -1 0.14745426E-01 0.27514434E+03</pdfrwt>
<totfact> 0.48906507E+03</totfact>
</mgrwt>
</event>
<event>
 9    1  0.2114844E-002  0.2749422E+03  0.7818608E-02  0.1098484E+00
         -1   -1    0    0    0  501 -0.00000000000E+00  0.00000000000E+00  0.93191049767E+02  0.93191049767E+02  0.00000000000E+00 0.  1.
          1   -1    0    0  501    0  0.00000000000E+00 -0.00000000000E+00 -0.20279100364E+03  0.20279100364E+03  0.00000000000E+00 0.  1.
         36    2    1    2    0    0  0.00000000000E+00 -0.71054273576E-14 -0.10959995388E+03  0.29598205341E+03  0.27494222312E+03 0.  0.
         25    2    3    3    0    0  0.99905503672E+00  0.22457299058E+02  0.85652226384E-01  0.12583670864E+03  0.12381252567E+03 0.  0.
         25    2    3    3    0    0 -0.99905503672E+00 -0.22457299058E+02 -0.10968560610E+03  0.17014534478E+03  0.12811392497E+03 0.  0.
          5    1    4    4  502    0  0.10191834950E+02 -0.46109802279E+02 -0.23024851323E+02  0.52746764302E+02  0.47000000000E+01 0. -1.
         -5    1    4    4    0  502 -0.91927799135E+01  0.68567101337E+02  0.23110503550E+02  0.73089944333E+02  0.47000000000E+01 0. -1.
          5    1    5    5  503    0 -0.15253256027E+02  0.27569318090E+02  0.14815251350E+02  0.35132759526E+02  0.47000000000E+01 0.  1.
         -5    1    5    5    0  503  0.14254200990E+02 -0.50026617148E+02 -0.12450085745E+03  0.13501258525E+03  0.47000000000E+01 0.  1.
<mgrwt>
<rscale>  0 0.27494222E+03</rscale>
<asrwt>0</asrwt>
<pdfrwt beam="1">  1        1 0.31198616E-01 0.27494222E+03</pdfrwt>
<pdfrwt beam="2">  1       -1 0.14337085E-01 0.27494222E+03</pdfrwt>
<totfact> 0.49441638E+03</totfact>
</mgrwt>
</event>
<event>
 9    1  0.2114844E-002  0.2739540E+03  0.7818608E-02  0.1099038E+00
         -2   -1    0    0    0  501 -0.00000000000E+00  0.00000000000E+00  0.60634564647E+01  0.60634564647E+01  0.00000000000E+00 0.  1.
          2   -1    0    0  501    0  0.00000000000E+00 -0.00000000000E+00 -0.30943891704E+04  0.30943891704E+04  0.00000000000E+00 0.  1.
         36    2    1    2    0    0  0.71054273576E-14  0.00000000000E+00 -0.30883257139E+04  0.31004526268E+04  0.27395396708E+03 0.  0.
         25    2    3    3    0    0  0.18596371791E+02 -0.34691189431E+02 -0.19721678801E+04  0.19760057551E+04  0.11663315711E+03 0.  0.
         25    2    3    3    0    0 -0.18596371791E+02  0.34691189431E+02 -0.11161578339E+04  0.11244468718E+04  0.13047280811E+03 0.  0.
          5    1    4    4  502    0  0.55223531167E+02  0.11984448801E+02 -0.63933178751E+03  0.64184148349E+03  0.47000000000E+01 0.  1.
         -5    1    4    4    0  502 -0.36627159376E+02 -0.46675638232E+02 -0.13328360925E+04  0.13341642716E+04  0.47000000000E+01 0.  1.
          5    1    5    5  503    0 -0.41696143766E+01 -0.39638848420E+02 -0.14875005103E+03  0.15406911329E+03  0.47000000000E+01 0.  1.
         -5    1    5    5    0  503 -0.14426757415E+02  0.74330037851E+02 -0.96740778283E+03  0.97037775847E+03  0.47000000000E+01 0.  1.
<mgrwt>
<rscale>  0 0.27395397E+03</rscale>
<asrwt>0</asrwt>
<pdfrwt beam="1">  1        2 0.47605932E+00 0.27395397E+03</pdfrwt>
<pdfrwt beam="2">  1       -2 0.93284054E-03 0.27395397E+03</pdfrwt>
<totfact> 0.43155800E+03</totfact>
</mgrwt>
</event>
<event>
 9    1  0.2114844E-002  0.2708397E+03  0.7818608E-02  0.1100800E+00
         -2   -1    0    0    0  501 -0.00000000000E+00  0.00000000000E+00  0.44595166616E+02  0.44595166616E+02  0.00000000000E+00 0. -1.
          2   -1    0    0  501    0  0.00000000000E+00 -0.00000000000E+00 -0.41122251380E+03  0.41122251380E+03  0.00000000000E+00 0. -1.
         36    2    1    2    0    0 -0.35527136788E-14  0.71054273576E-14 -0.36662734718E+03  0.45581768042E+03  0.27083970550E+03 0.  0.
         25    2    3    3    0    0 -0.17989136229E+02 -0.44997773962E+02 -0.19936325743E+03  0.23994597014E+03  0.12441845317E+03 0.  0.
         25    2    3    3    0    0  0.17989136229E+02  0.44997773962E+02 -0.16726408975E+03  0.21587171028E+03  0.12757315899E+03 0.  0.
          5    1    4    4  502    0 -0.42940033682E+02 -0.15517804818E+02 -0.10457684219E+02  0.47075491694E+02  0.47000000000E+01 0.  1.
         -5    1    4    4    0  502  0.24950897454E+02 -0.29479969144E+02 -0.18890557321E+03  0.19287047845E+03  0.47000000000E+01 0.  1.
          5    1    5    5  503    0 -0.79093666051E+01  0.71366177699E+02 -0.16324218254E+03  0.17839784068E+03  0.47000000000E+01 0. -1.
         -5    1    5    5    0  503  0.25898502834E+02 -0.26368403737E+02 -0.40219072094E+01  0.37473869593E+02  0.47000000000E+01 0. -1.
<mgrwt>
<rscale>  0 0.27083971E+03</rscale>
<asrwt>0</asrwt>
<pdfrwt beam="1">  1        2 0.63265002E-01 0.27083971E+03</pdfrwt>
<pdfrwt beam="2">  1       -2 0.68607949E-02 0.27083971E+03</pdfrwt>
<totfact> 0.92410194E+03</totfact>
</mgrwt>
</event>
<event>
 9    1  0.2114844E-002  0.2764523E+03  0.7818608E-02  0.1097643E+00
         -2   -1    0    0    0  501 -0.00000000000E+00  0.00000000000E+00  0.38160950088E+02  0.38160950088E+02  0.00000000000E+00 0.  1.
          2   -1    0    0  501    0  0.00000000000E+00 -0.00000000000E+00 -0.50068100712E+03  0.50068100712E+03  0.00000000000E+00 0.  1.
         36    2    1    2    0    0 -0.21316282073E-13  0.00000000000E+00 -0.46252005704E+03  0.53884195721E+03  0.27645225934E+03 0.  0.
         25    2    3    3    0    0  0.54338204372E+02 -0.14801239694E+02 -0.23212356865E+03  0.26901958126E+03  0.12376779399E+03 0.  0.
         25    2    3    3    0    0 -0.54338204372E+02  0.14801239694E+02 -0.23039648838E+03  0.26982237595E+03  0.12864624189E+03 0.  0.
          5    1    4    4  502    0  0.57241888422E+02 -0.39888721726E+02 -0.52176209770E+02  0.87247869756E+02  0.47000000000E+01 0.  1.
         -5    1    4    4    0  502 -0.29036840497E+01  0.25087482032E+02 -0.17994735888E+03  0.18177171151E+03  0.47000000000E+01 0.  1.
          5    1    5    5  503    0  0.39638588698E+02 -0.17867354411E+00 -0.10502310071E+03  0.11235297647E+03  0.47000000000E+01 0. -1.
         -5    1    5    5    0  503 -0.93976793070E+02  0.14979913238E+02 -0.12537338767E+03  0.15746939948E+03  0.47000000000E+01 0. -1.
<mgrwt>
<rscale>  0 0.27645226E+03</rscale>
<asrwt>0</asrwt>
<pdfrwt beam="1">  1        2 0.77027842E-01 0.27645226E+03</pdfrwt>
<pdfrwt beam="2">  1       -2 0.58709158E-02 0.27645226E+03</pdfrwt>
<totfact> 0.94612099E+03</totfact>
</mgrwt>
</event>
<event>
 9    1  0.2114844E-002  0.2746870E+03  0.7818608E-02  0.1098627E+00
         -2   -1    0    0    0  501 -0.00000000000E+00  0.00000000000E+00  0.13939866981E+02  0.13939866981E+02  0.00000000000E+00 0.  1.
          2   -1    0    0  501    0  0.00000000000E+00 -0.00000000000E+00 -0.13531863617E+04  0.13531863617E+04  0.00000000000E+00 0.  1.
         36    2    1    2    0    0  0.00000000000E+00  0.00000000000E+00 -0.13392464947E+04  0.13671262287E+04  0.27468700649E+03 0.  0.
         25    2    3    3    0    0  0.18684189759E+01  0.26290552459E+01 -0.43017979776E+03  0.44922559259E+03  0.12937763220E+03 0.  0.
         25    2    3    3    0    0 -0.18684189759E+01 -0.26290552459E+01 -0.90906669698E+03  0.91790063612E+03  0.12699966655E+03 0.  0.
          5    1    4    4  502    0  0.62076095581E+02  0.21945631835E+02 -0.21759692048E+03  0.22738857095E+03  0.47000000000E+01 0.  1.
         -5    1    4    4    0  502 -0.60207676605E+02 -0.19316576589E+02 -0.21258287728E+03  0.22183702163E+03  0.47000000000E+01 0.  1.
          5    1    5    5  503    0 -0.31568538143E+02  0.25427675853E+02 -0.80454155254E+03  0.80557578108E+03  0.47000000000E+01 0.  1.
         -5    1    5    5    0  503  0.29700119167E+02 -0.28056731099E+02 -0.10452514444E+03  0.11232485503E+03  0.47000000000E+01 0.  1.
<mgrwt>
<rscale>  0 0.27468701E+03</rscale>
<asrwt>0</asrwt>
<pdfrwt beam="1">  1        2 0.20818256E+00 0.27468701E+03</pdfrwt>
<pdfrwt beam="2">  1       -2 0.21445945E-02 0.27468701E+03</pdfrwt>
<totfact> 0.11427584E+04</totfact>
</mgrwt>
</event>
<event>
 9    1  0.2114844E-002  0.2746948E+03  0.7818608E-02  0.1098622E+00
         -2   -1    0    0    0  501 -0.00000000000E+00  0.00000000000E+00  0.23394929273E+02  0.23394929273E+02  0.00000000000E+00 0. -1.
          2   -1    0    0  501    0  0.00000000000E+00 -0.00000000000E+00 -0.80634193389E+03  0.80634193389E+03  0.00000000000E+00 0. -1.
         36    2    1    2    0    0  0.00000000000E+00  0.00000000000E+00 -0.78294700462E+03  0.82973686316E+03  0.27469483077E+03 0.  0.
         25    2    3    3    0    0  0.42124947428E+01  0.52758574959E+02 -0.50858456614E+03  0.52665072915E+03  0.12610121830E+03 0.  0.
         25    2    3    3    0    0 -0.42124947428E+01 -0.52758574959E+02 -0.27436243848E+03  0.30308613402E+03  0.11741058146E+03 0.  0.
          5    1    4    4  502    0 -0.37148166717E+02 -0.68128815309E+01 -0.52678238756E+02  0.64988371911E+02  0.47000000000E+01 0.  1.
         -5    1    4    4    0  502  0.41360661460E+02  0.59571456490E+02 -0.45590632738E+03  0.46166235724E+03  0.47000000000E+01 0.  1.
          5    1    5    5  503    0 -0.39341009346E+02 -0.76141137248E+02 -0.19570921634E+03  0.21370394278E+03  0.47000000000E+01 0. -1.
         -5    1    5    5    0  503  0.35128514604E+02  0.23382562288E+02 -0.78653222142E+02  0.89382191239E+02  0.47000000000E+01 0. -1.
<mgrwt>
<rscale>  0 0.27469483E+03</rscale>
<asrwt>0</asrwt>
<pdfrwt beam="1">  1        2 0.12405259E+00 0.27469483E+03</pdfrwt>
<pdfrwt beam="2">  1       -2 0.35992203E-02 0.27469483E+03</pdfrwt>
<totfact> 0.11279007E+04</totfact>
</mgrwt>
</event>
<event>
 9    1  0.2114844E-002  0.2748861E+03  0.7818608E-02  0.1098515E+00
          2   -1    0    0  501    0  0.00000000000E+00  0.00000000000E+00  0.41600788324E+03  0.41600788324E+03  0.00000000000E+00 0.  1.
         -2   -1    0    0    0  501 -0.00000000000E+00 -0.00000000000E+00 -0.45409199943E+02  0.45409199943E+02  0.00000000000E+00 0.  1.
         36    2    1    2    0    0 -0.17763568394E-14  0.35527136788E-14  0.37059868329E+03  0.46141708318E+03  0.27488605019E+03 0.  0.
         25    2    3    3    0    0 -0.84674219791E+01  0.46708939839E+01  0.28225287484E+03  0.30887544392E+03  0.12507533737E+03 0.  0.
         25    2    3    3    0    0  0.84674219791E+01 -0.46708939839E+01  0.88345808454E+02  0.15254163926E+03  0.12397764052E+03 0.  0.
          5    1    4    4  502    0 -0.19133386930E+02  0.62292611258E+02  0.17077484995E+03  0.18284582382E+03  0.47000000000E+01 0.  1.
         -5    1    4    4    0  502  0.10665964951E+02 -0.57621717274E+02  0.11147802489E+03  0.12602962010E+03  0.47000000000E+01 0.  1.
          5    1    5    5  503    0 -0.55067199700E+02 -0.99185738464E+01  0.21707855262E+02  0.60200461543E+02  0.47000000000E+01 0.  1.
         -5    1    5    5    0  503  0.63534621679E+02  0.52476798625E+01  0.66637953192E+02  0.92341177713E+02  0.47000000000E+01 0.  1.
<mgrwt>
<rscale>  0 0.27488605E+03</rscale>
<asrwt>0</asrwt>
<pdfrwt beam="1">  1        2 0.64001210E-01 0.27488605E+03</pdfrwt>
<pdfrwt beam="2">  1       -2 0.69860310E-02 0.27488605E+03</pdfrwt>
<totfact> 0.88785033E+03</totfact>
</mgrwt>
</event>
<event>
 9    1  0.2114844E-002  0.2742726E+03  0.7818608E-02  0.1098859E+00
         -2   -1    0    0    0  501 -0.00000000000E+00  0.00000000000E+00  0.12977470980E+02  0.12977470980E+02  0.00000000000E+00 0. -1.
          2   -1    0    0  501    0  0.00000000000E+00 -0.00000000000E+00 -0.14491544501E+04  0.14491544501E+04  0.00000000000E+00 0. -1.
         36    2    1    2    0    0  0.00000000000E+00  0.00000000000E+00 -0.14361769792E+04  0.14621319211E+04  0.27427256386E+03 0.  0.
         25    2    3    3    0    0  0.27082293272E+02  0.14570170672E+02 -0.65419435559E+03  0.66960537821E+03  0.13948249770E+03 0.  0.
         25    2    3    3    0    0 -0.27082293272E+02 -0.14570170672E+02 -0.78198262357E+03  0.79252654291E+03  0.12512296817E+03 0.  0.
          5    1    4    4  502    0  0.19366798692E+02  0.50894953196E+02 -0.98474406232E+02  0.11262623067E+03  0.47000000000E+01 0. -1.
         -5    1    4    4    0  502  0.77154945798E+01 -0.36324782525E+02 -0.55571994936E+03  0.55697914754E+03  0.47000000000E+01 0. -1.
          5    1    5    5  503    0  0.76321430261E+01 -0.46211555191E+01 -0.39615761350E+00  0.10092156675E+02  0.47000000000E+01 0. -1.
         -5    1    5    5    0  503 -0.34714436298E+02 -0.99490151525E+01 -0.78158646596E+03  0.78243438623E+03  0.47000000000E+01 0. -1.
<mgrwt>
<rscale>  0 0.27427256E+03</rscale>
<asrwt>0</asrwt>
<pdfrwt beam="1">  1        2 0.22294693E+00 0.27427256E+03</pdfrwt>
<pdfrwt beam="2">  1       -2 0.19965332E-02 0.27427256E+03</pdfrwt>
<totfact> 0.11260944E+04</totfact>
</mgrwt>
</event>
<event>
 9    1  0.2114844E-002  0.2748758E+03  0.7818608E-02  0.1098521E+00
         -2   -1    0    0    0  501 -0.00000000000E+00  0.00000000000E+00  0.83700546336E+01  0.83700546336E+01  0.00000000000E+00 0.  1.
          2   -1    0    0  501    0  0.00000000000E+00 -0.00000000000E+00 -0.22567561303E+04  0.22567561303E+04  0.00000000000E+00 0.  1.
         36    2    1    2    0    0  0.35527136788E-14  0.00000000000E+00 -0.22483860756E+04  0.22651261849E+04  0.27487576907E+03 0.  0.
         25    2    3    3    0    0  0.30743311787E+02  0.20516535075E+02 -0.99146294723E+03  0.10020527855E+04  0.14051665295E+03 0.  0.
         25    2    3    3    0    0 -0.30743311787E+02 -0.20516535075E+02 -0.12569231284E+04  0.12630733994E+04  0.11888053726E+03 0.  0.
          5    1    4    4  502    0 -0.29127389188E+02  0.16742805970E+02 -0.81321141880E+03  0.81391868637E+03  0.47000000000E+01 0. -1.
         -5    1    4    4    0  502  0.59870700975E+02  0.37737291045E+01 -0.17825152843E+03  0.18813409912E+03  0.47000000000E+01 0. -1.
          5    1    5    5  503    0 -0.12945020520E+02 -0.61171278582E+01 -0.12148608257E+04  0.12149542826E+04  0.47000000000E+01 0.  1.
         -5    1    5    5    0  503 -0.17798291267E+02 -0.14399407217E+02 -0.42062302682E+02  0.48119116857E+02  0.47000000000E+01 0.  1.
<mgrwt>
<rscale>  0 0.27487577E+03</rscale>
<asrwt>0</asrwt>
<pdfrwt beam="1">  1        2 0.34719380E+00 0.27487577E+03</pdfrwt>
<pdfrwt beam="2">  1       -2 0.12876987E-02 0.27487577E+03</pdfrwt>
<totfact> 0.80094659E+03</totfact>
</mgrwt>
</event>
<event>
 9    1  0.2114844E-002  0.2763221E+03  0.7818608E-02  0.1097715E+00
          1   -1    0    0  501    0  0.00000000000E+00  0.00000000000E+00  0.15460198440E+03  0.15460198440E+03  0.00000000000E+00 0.  1.
         -1   -1    0    0    0  501 -0.00000000000E+00 -0.00000000000E+00 -0.12346853099E+03  0.12346853099E+03  0.00000000000E+00 0.  1.
         36    2    1    2    0    0 -0.71054273576E-14  0.00000000000E+00  0.31133453409E+02  0.27807051538E+03  0.27632213014E+03 0.  0.
         25    2    3    3    0    0 -0.22710447924E+02  0.44590466873E+02  0.31948235483E+02  0.14371391433E+03  0.13087752000E+03 0.  0.
         25    2    3    3    0    0  0.22710447924E+02 -0.44590466873E+02 -0.81478207452E+00  0.13435660105E+03  0.12468744201E+03 0.  0.
          5    1    4    4  502    0  0.31887176364E+02  0.13594161868E+01 -0.34577518222E+02  0.47289901620E+02  0.47000000000E+01 0.  1.
         -5    1    4    4    0  502 -0.54597624288E+02  0.43231050686E+02  0.66525753705E+02  0.96424012711E+02  0.47000000000E+01 0.  1.
          5    1    5    5  503    0 -0.21266402460E+02 -0.49996838828E+02 -0.45670342281E+02  0.71132369077E+02  0.47000000000E+01 0.  1.
         -5    1    5    5    0  503  0.43976850384E+02  0.54063719555E+01  0.44855560207E+02  0.63224231975E+02  0.47000000000E+01 0.  1.
<mgrwt>
<rscale>  0 0.27632213E+03</rscale>
<asrwt>0</asrwt>
<pdfrwt beam="1">  1        1 0.23784921E-01 0.27632213E+03</pdfrwt>
<pdfrwt beam="2">  1       -1 0.18995159E-01 0.27632213E+03</pdfrwt>
<totfact> 0.44479708E+03</totfact>
</mgrwt>
</event>
<event>
 9    1  0.2114844E-002  0.2753248E+03  0.7818608E-02  0.1098270E+00
          4   -1    0    0  501    0  0.00000000000E+00  0.00000000000E+00  0.45468618601E+02  0.45468618601E+02  0.00000000000E+00 0. -1.
         -4   -1    0    0    0  501 -0.00000000000E+00 -0.00000000000E+00 -0.41679158927E+03  0.41679158927E+03  0.00000000000E+00 0. -1.
         36    2    1    2    0    0  0.71054273576E-14 -0.71054273576E-14 -0.37132297067E+03  0.46226020787E+03  0.27532481042E+03 0.  0.
         25    2    3    3    0    0  0.32262245608E+02 -0.71767934834E+01 -0.26127372126E+03  0.29156191876E+03  0.12510809805E+03 0.  0.
         25    2    3    3    0    0 -0.32262245608E+02  0.71767934834E+01 -0.11004924941E+03  0.17069828911E+03  0.12623276022E+03 0.  0.
          5    1    4    4  502    0  0.45968600622E+02  0.41991656767E+02 -0.71206971244E+02  0.94704457313E+02  0.47000000000E+01 0. -1.
         -5    1    4    4    0  502 -0.13706355015E+02 -0.49168450250E+02 -0.19006675001E+03  0.19685746145E+03  0.47000000000E+01 0. -1.
          5    1    5    5  503    0 -0.51648597011E+01  0.37892469707E+02 -0.12186391793E+03  0.12781009166E+03  0.47000000000E+01 0. -1.
         -5    1    5    5    0  503 -0.27097385906E+02 -0.30715676223E+02  0.11814668514E+02  0.42888197455E+02  0.47000000000E+01 0. -1.
<mgrwt>
<rscale>  0 0.27532481E+03</rscale>
<asrwt>0</asrwt>
<pdfrwt beam="1">  1        4 0.69951720E-02 0.27532481E+03</pdfrwt>
<pdfrwt beam="2">  1       -4 0.64121784E-01 0.27532481E+03</pdfrwt>
<totfact> 0.59550786E+02</totfact>
</mgrwt>
</event>
<event>
 9    1  0.2114844E-002  0.2750169E+03  0.7818608E-02  0.1098442E+00
          2   -1    0    0  501    0  0.00000000000E+00  0.00000000000E+00  0.27528988943E+04  0.27528988943E+04  0.00000000000E+00 0.  1.
         -2   -1    0    0    0  501 -0.00000000000E+00 -0.00000000000E+00 -0.68686034127E+01  0.68686034127E+01  0.00000000000E+00 0.  1.
         36    2    1    2    0    0  0.00000000000E+00  0.00000000000E+00  0.27460302909E+04  0.27597674977E+04  0.27501687759E+03 0.  0.
         25    2    3    3    0    0 -0.29655440011E+02  0.18287912468E+02  0.72032329691E+03  0.72988462261E+03  0.11248118680E+03 0.  0.
         25    2    3    3    0    0  0.29655440011E+02 -0.18287912468E+02  0.20257069940E+04  0.20298828751E+04  0.12538647587E+03 0.  0.
          5    1    4    4  502    0 -0.59542918431E+02  0.28472686966E+02  0.64058970894E+03  0.64399791788E+03  0.47000000000E+01 0.  1.
         -5    1    4    4    0  502  0.29887478419E+02 -0.10184774498E+02  0.79733587971E+02  0.85886704725E+02  0.47000000000E+01 0.  1.
          5    1    5    5  503    0  0.38580804753E+02 -0.32121521220E+02  0.30871693139E+03  0.31280745571E+03  0.47000000000E+01 0.  1.
         -5    1    5    5    0  503 -0.89253647417E+01  0.13833608753E+02  0.17169900626E+04  0.17170754194E+04  0.47000000000E+01 0.  1.
<mgrwt>
<rscale>  0 0.27501688E+03</rscale>
<asrwt>0</asrwt>
<pdfrwt beam="1">  1        2 0.42352203E+00 0.27501688E+03</pdfrwt>
<pdfrwt beam="2">  1       -2 0.10567104E-02 0.27501688E+03</pdfrwt>
<totfact> 0.57031425E+03</totfact>
</mgrwt>
</event>
<event>
 9    1  0.2114844E-002  0.2799044E+03  0.7818608E-02  0.1095741E+00
          1   -1    0    0  501    0  0.00000000000E+00  0.00000000000E+00  0.48713002408E+03  0.48713002408E+03  0.00000000000E+00 0. -1.
         -1   -1    0    0    0  501 -0.00000000000E+00 -0.00000000000E+00 -0.40208204976E+02  0.40208204976E+02  0.00000000000E+00 0. -1.
         36    2    1    2    0    0 -0.71054273576E-14  0.35527136788E-14  0.44692181910E+03  0.52733822905E+03  0.27990443982E+03 0.  0.
         25    2    3    3    0    0  0.44550784014E+02 -0.24396385768E+02  0.28189430074E+03  0.31377171033E+03  0.12809501715E+03 0.  0.
         25    2    3    3    0    0 -0.44550784014E+02  0.24396385768E+02  0.16502751837E+03  0.21356651873E+03  0.12568460569E+03 0.  0.
          5    1    4    4  502    0  0.67582792739E+02  0.22235828086E+02  0.89576057410E+02  0.11448941430E+03  0.47000000000E+01 0.  1.
         -5    1    4    4    0  502 -0.23032008725E+02 -0.46632213854E+02  0.19231824333E+03  0.19928229603E+03  0.47000000000E+01 0.  1.
          5    1    5    5  503    0 -0.60036935829E+02  0.61971516091E+02  0.73998487886E+02  0.11376628973E+03  0.47000000000E+01 0.  1.
         -5    1    5    5    0  503  0.15486151816E+02 -0.37575130323E+02  0.91029030480E+02  0.99800228992E+02  0.47000000000E+01 0.  1.
<mgrwt>
<rscale>  0 0.27990444E+03</rscale>
<asrwt>0</asrwt>
<pdfrwt beam="1">  1        1 0.74943076E-01 0.27990444E+03</pdfrwt>
<pdfrwt beam="2">  1       -1 0.61858780E-02 0.27990444E+03</pdfrwt>
<totfact> 0.59408662E+03</totfact>
</mgrwt>
</event>
<event>
 9    1  0.2114844E-002  0.2741289E+03  0.7818608E-02  0.1098940E+00
         -2   -1    0    0    0  501 -0.00000000000E+00  0.00000000000E+00  0.85939347921E+03  0.85939347921E+03  0.00000000000E+00 0. -1.
          2   -1    0    0  501    0  0.00000000000E+00 -0.00000000000E+00 -0.21860367028E+02  0.21860367028E+02  0.00000000000E+00 0. -1.
         36    2    1    2    0    0  0.00000000000E+00  0.00000000000E+00  0.83753311219E+03  0.88125384624E+03  0.27412885202E+03 0.  0.
         25    2    3    3    0    0 -0.38575927644E+02  0.24103060729E+02  0.28769664103E+03  0.31466279170E+03  0.11905568232E+03 0.  0.
         25    2    3    3    0    0  0.38575927644E+02 -0.24103060729E+02  0.54983647116E+03  0.56659105454E+03  0.12898146510E+03 0.  0.
          5    1    4    4  502    0  0.30323474396E+02  0.38484840933E+02  0.17429234161E+03  0.18110910089E+03  0.47000000000E+01 0. -1.
         -5    1    4    4    0  502 -0.68899402039E+02 -0.14381780205E+02  0.11340429942E+03  0.13355369082E+03  0.47000000000E+01 0. -1.
          5    1    5    5  503    0  0.84101238981E+02 -0.51523425752E+01  0.39907686321E+03  0.40790194629E+03  0.47000000000E+01 0. -1.
         -5    1    5    5    0  503 -0.45525311338E+02 -0.18950718153E+02  0.15075960794E+03  0.15868910825E+03  0.47000000000E+01 0. -1.
<mgrwt>
<rscale>  0 0.27412885E+03</rscale>
<asrwt>0</asrwt>
<pdfrwt beam="1">  1        2 0.33631340E-02 0.27412885E+03</pdfrwt>
<pdfrwt beam="2">  1       -2 0.13221436E+00 0.27412885E+03</pdfrwt>
<totfact> 0.11718776E+03</totfact>
</mgrwt>
</event>
<event>
 9    1  0.2114844E-002  0.2611318E+03  0.7818608E-02  0.1106465E+00
         -2   -1    0    0    0  501 -0.00000000000E+00  0.00000000000E+00  0.54792070787E+02  0.54792070787E+02  0.00000000000E+00 0. -1.
          2   -1    0    0  501    0  0.00000000000E+00 -0.00000000000E+00 -0.31113001066E+03  0.31113001066E+03  0.00000000000E+00 0. -1.
         36    2    1    2    0    0 -0.35527136788E-14 -0.71054273576E-14 -0.25633793988E+03  0.36592208145E+03  0.26113182547E+03 0.  0.
         25    2    3    3    0    0  0.14178553274E+02  0.34165647871E+02 -0.10748639605E+03  0.17159257162E+03  0.12853934196E+03 0.  0.
         25    2    3    3    0    0 -0.14178553274E+02 -0.34165647871E+02 -0.14885154383E+03  0.19432950984E+03  0.11932666686E+03 0.  0.
          5    1    4    4  502    0  0.53546388531E+02 -0.22906551962E+02 -0.24514867532E+02  0.63363984863E+02  0.47000000000E+01 0.  1.
         -5    1    4    4    0  502 -0.39367835258E+02  0.57072199833E+02 -0.82971528514E+02  0.10822858675E+03  0.47000000000E+01 0.  1.
          5    1    5    5  503    0 -0.21334480543E+02  0.42392979626E+02 -0.62340810949E+02  0.78490709586E+02  0.47000000000E+01 0.  1.
         -5    1    5    5    0  503  0.71559272693E+01 -0.76558627497E+02 -0.86510732882E+02  0.11583880025E+03  0.47000000000E+01 0.  1.
<mgrwt>
<rscale>  0 0.26113183E+03</rscale>
<asrwt>0</asrwt>
<pdfrwt beam="1">  1        2 0.47866155E-01 0.26113183E+03</pdfrwt>
<pdfrwt beam="2">  1       -2 0.84295494E-02 0.26113183E+03</pdfrwt>
<totfact> 0.90515967E+03</totfact>
</mgrwt>
</event>
<event>
 9    1  0.2114844E-002  0.2750318E+03  0.7818608E-02  0.1098434E+00
         -2   -1    0    0    0  501 -0.00000000000E+00  0.00000000000E+00  0.44009268581E+02  0.44009268581E+02  0.00000000000E+00 0. -1.
          2   -1    0    0  501    0  0.00000000000E+00 -0.00000000000E+00 -0.42969645769E+03  0.42969645769E+03  0.00000000000E+00 0. -1.
         36    2    1    2    0    0  0.00000000000E+00  0.00000000000E+00 -0.38568718911E+03  0.47370572627E+03  0.27503182954E+03 0.  0.
         25    2    3    3    0    0 -0.35600939555E+02 -0.29565608403E+02 -0.12622685548E+03  0.18367415635E+03  0.12514561347E+03 0.  0.
         25    2    3    3    0    0  0.35600939555E+02  0.29565608403E+02 -0.25946033363E+03  0.29003156992E+03  0.12106648886E+03 0.  0.
          5    1    4    4  502    0 -0.23570573118E+02 -0.74677837103E+02 -0.46593460493E+02  0.91243585157E+02  0.47000000000E+01 0. -1.
         -5    1    4    4    0  502 -0.12030366437E+02  0.45112228700E+02 -0.79633394987E+02  0.92430571198E+02  0.47000000000E+01 0. -1.
          5    1    5    5  503    0 -0.82514853607E+01 -0.34469677184E+02 -0.26686760133E+02  0.44615230832E+02  0.47000000000E+01 0.  1.
         -5    1    5    5    0  503  0.43852424916E+02  0.64035285587E+02 -0.23277357350E+03  0.24541633908E+03  0.47000000000E+01 0.  1.
<mgrwt>
<rscale>  0 0.27503183E+03</rscale>
<asrwt>0</asrwt>
<pdfrwt beam="1">  1        2 0.66107150E-01 0.27503183E+03</pdfrwt>
<pdfrwt beam="2">  1       -2 0.67706564E-02 0.27503183E+03</pdfrwt>
<totfact> 0.89953688E+03</totfact>
</mgrwt>
</event>
<event>
 9    1  0.2114844E-002  0.2746625E+03  0.7818608E-02  0.1098640E+00
          1   -1    0    0  501    0  0.00000000000E+00  0.00000000000E+00  0.70049272961E+02  0.70049272961E+02  0.00000000000E+00 0. -1.
         -1   -1    0    0    0  501 -0.00000000000E+00 -0.00000000000E+00 -0.26923723784E+03  0.26923723784E+03  0.00000000000E+00 0. -1.
         36    2    1    2    0    0  0.00000000000E+00 -0.71054273576E-14 -0.19918796488E+03  0.33928651080E+03  0.27466250392E+03 0.  0.
         25    2    3    3    0    0 -0.38460926036E+02 -0.45626043726E+01 -0.15139743795E+03  0.20098355369E+03  0.12638490592E+03 0.  0.
         25    2    3    3    0    0  0.38460926036E+02  0.45626043726E+01 -0.47790526928E+02  0.13830295711E+03  0.12386974324E+03 0.  0.
          5    1    4    4  502    0 -0.44978233844E+02  0.38128799320E+02 -0.19762483274E+02  0.62365796736E+02  0.47000000000E+01 0. -1.
         -5    1    4    4    0  502  0.65173078076E+01 -0.42691403693E+02 -0.13163495467E+03  0.13861775695E+03  0.47000000000E+01 0. -1.
          5    1    5    5  503    0  0.38545192305E+02 -0.41228918350E+02  0.16720332897E+02  0.59052646768E+02  0.47000000000E+01 0. -1.
         -5    1    5    5    0  503 -0.84266269130E-01  0.45791522722E+02 -0.64510859825E+02  0.79250310342E+02  0.47000000000E+01 0. -1.
<mgrwt>
<rscale>  0 0.27466250E+03</rscale>
<asrwt>0</asrwt>
<pdfrwt beam="1">  1        1 0.10776811E-01 0.27466250E+03</pdfrwt>
<pdfrwt beam="2">  1       -1 0.41421113E-01 0.27466250E+03</pdfrwt>
<totfact> 0.33474050E+03</totfact>
</mgrwt>
</event>
<event>
 9    1  0.2114844E-002  0.2745552E+03  0.7818608E-02  0.1098701E+00
         -2   -1    0    0    0  501 -0.00000000000E+00  0.00000000000E+00  0.99182717194E+02  0.99182717194E+02  0.00000000000E+00 0.  1.
          2   -1    0    0  501    0  0.00000000000E+00 -0.00000000000E+00 -0.19000422656E+03  0.19000422656E+03  0.00000000000E+00 0.  1.
         36    2    1    2    0    0 -0.71054273576E-14  0.13322676296E-14 -0.90821509362E+02  0.28918694375E+03  0.27455517091E+03 0.  0.
         25    2    3    3    0    0 -0.21950016743E+02  0.37409598990E+01  0.89218164671E+01  0.12609758352E+03  0.12379500695E+03 0.  0.
         25    2    3    3    0    0  0.21950016743E+02 -0.37409598990E+01 -0.99743325830E+02  0.16308936023E+03  0.12709685424E+03 0.  0.
          5    1    4    4  502    0  0.17239750970E+01  0.62177290023E+02  0.10738153200E+01  0.62387743700E+02  0.47000000000E+01 0. -1.
         -5    1    4    4    0  502 -0.23673991840E+02 -0.58436330124E+02  0.78480011471E+01  0.63709839820E+02  0.47000000000E+01 0. -1.
          5    1    5    5  503    0 -0.30252427507E+02 -0.52443589553E+01  0.16785562994E+02  0.35306625383E+02  0.47000000000E+01 0.  1.
         -5    1    5    5    0  503  0.52202444250E+02  0.15033990564E+01 -0.11652888882E+03  0.12778273485E+03  0.47000000000E+01 0.  1.
<mgrwt>
<rscale>  0 0.27455517E+03</rscale>
<asrwt>0</asrwt>
<pdfrwt beam="1">  1        2 0.29231419E-01 0.27455517E+03</pdfrwt>
<pdfrwt beam="2">  1       -2 0.15258880E-01 0.27455517E+03</pdfrwt>
<totfact> 0.59598115E+03</totfact>
</mgrwt>
</event>
<event>
 9    1  0.2114844E-002  0.2751936E+03  0.7818608E-02  0.1098343E+00
          2   -1    0    0  501    0  0.00000000000E+00  0.00000000000E+00  0.99877099617E+03  0.99877099617E+03  0.00000000000E+00 0.  1.
         -2   -1    0    0    0  501 -0.00000000000E+00 -0.00000000000E+00 -0.18956178624E+02  0.18956178624E+02  0.00000000000E+00 0.  1.
         36    2    1    2    0    0  0.71054273576E-14 -0.35527136788E-14  0.97981481755E+03  0.10177271748E+04  0.27519361481E+03 0.  0.
         25    2    3    3    0    0 -0.39598463988E+02  0.21706007477E+02  0.35452550361E+03  0.37902046972E+03  0.12621012101E+03 0.  0.
         25    2    3    3    0    0  0.39598463988E+02 -0.21706007477E+02  0.62528931394E+03  0.63870670508E+03  0.12214884311E+03 0.  0.
          5    1    4    4  502    0 -0.53752672039E+02 -0.16465467518E+02  0.32143275344E+03  0.32634577729E+03  0.47000000000E+01 0. -1.
         -5    1    4    4    0  502  0.14154208051E+02  0.38171474994E+02  0.33092750174E+02  0.52674692433E+02  0.47000000000E+01 0. -1.
          5    1    5    5  503    0 -0.44049140573E+02 -0.72298113644E+01  0.19516089988E+03  0.20025599567E+03  0.47000000000E+01 0. -1.
         -5    1    5    5    0  503  0.83647604561E+02 -0.14476196112E+02  0.43012841406E+03  0.43845070941E+03  0.47000000000E+01 0. -1.
<mgrwt>
<rscale>  0 0.27519361E+03</rscale>
<asrwt>0</asrwt>
<pdfrwt beam="1">  1        2 0.15365704E+00 0.27519361E+03</pdfrwt>
<pdfrwt beam="2">  1       -2 0.29163359E-02 0.27519361E+03</pdfrwt>
<totfact> 0.11592850E+04</totfact>
</mgrwt>
</event>
<event>
 9    1  0.2114844E-002  0.2753705E+03  0.7818608E-02  0.1098245E+00
         -2   -1    0    0    0  501 -0.00000000000E+00  0.00000000000E+00  0.94550186564E+02  0.94550186564E+02  0.00000000000E+00 0. -1.
          2   -1    0    0  501    0  0.00000000000E+00 -0.00000000000E+00 -0.20049907169E+03  0.20049907169E+03  0.00000000000E+00 0. -1.
         36    2    1    2    0    0  0.00000000000E+00  0.00000000000E+00 -0.10594888512E+03  0.29504925825E+03  0.27537047506E+03 0.  0.
         25    2    3    3    0    0  0.34188127330E+02 -0.12117284047E+02 -0.10935049403E+03  0.16967161469E+03  0.12456030533E+03 0.  0.
         25    2    3    3    0    0 -0.34188127330E+02  0.12117284047E+02  0.34016089107E+01  0.12537764356E+03  0.11996802048E+03 0.  0.
          5    1    4    4  502    0 -0.24568819213E+01  0.47023988139E+02 -0.82183088588E+02  0.94833758647E+02  0.47000000000E+01 0. -1.
         -5    1    4    4    0  502  0.36645009251E+02 -0.59141272185E+02 -0.27167405446E+02  0.74837856045E+02  0.47000000000E+01 0. -1.
          5    1    5    5  503    0 -0.68693452222E+02  0.18114622143E+01 -0.30836958250E+02  0.75465752284E+02  0.47000000000E+01 0. -1.
         -5    1    5    5    0  503  0.34505324892E+02  0.10305821832E+02  0.34238567161E+02  0.49911891277E+02  0.47000000000E+01 0. -1.
<mgrwt>
<rscale>  0 0.27537048E+03</rscale>
<asrwt>0</asrwt>
<pdfrwt beam="1">  1        2 0.30846011E-01 0.27537048E+03</pdfrwt>
<pdfrwt beam="2">  1       -2 0.14546183E-01 0.27537048E+03</pdfrwt>
<totfact> 0.60806533E+03</totfact>
</mgrwt>
</event>
<event>
 9    1  0.2114844E-002  0.2760764E+03  0.7818608E-02  0.1097851E+00
          4   -1    0    0  501    0  0.00000000000E+00  0.00000000000E+00  0.37099893202E+03  0.37099893202E+03  0.00000000000E+00 0.  1.
         -4   -1    0    0    0  501 -0.00000000000E+00 -0.00000000000E+00 -0.51360103291E+02  0.51360103291E+02  0.00000000000E+00 0.  1.
         36    2    1    2    0    0  0.00000000000E+00  0.00000000000E+00  0.31963882873E+03  0.42235903531E+03  0.27607639138E+03 0.  0.
         25    2    3    3    0    0 -0.45432974151E+02 -0.29245233623E+02  0.18130719346E+03  0.22696143942E+03  0.12537845810E+03 0.  0.
         25    2    3    3    0    0  0.45432974151E+02  0.29245233623E+02  0.13833163527E+03  0.19539759589E+03  0.12698480355E+03 0.  0.
          5    1    4    4  502    0 -0.43722003970E+02 -0.39509609048E+02  0.15976497717E+02  0.61236927729E+02  0.47000000000E+01 0. -1.
         -5    1    4    4    0  502 -0.17109701808E+01  0.10264375425E+02  0.16533069574E+03  0.16572451169E+03  0.47000000000E+01 0. -1.
          5    1    5    5  503    0  0.47121574678E+02  0.71391106423E+02  0.12377348127E+03  0.15052939096E+03  0.47000000000E+01 0. -1.
         -5    1    5    5    0  503 -0.16886005264E+01 -0.42145872799E+02  0.14558153999E+02  0.44868204930E+02  0.47000000000E+01 0. -1.
<mgrwt>
<rscale>  0 0.27607639E+03</rscale>
<asrwt>0</asrwt>
<pdfrwt beam="1">  1        4 0.57076757E-01 0.27607639E+03</pdfrwt>
<pdfrwt beam="2">  1       -4 0.79015546E-02 0.27607639E+03</pdfrwt>
<totfact> 0.62296221E+02</totfact>
</mgrwt>
</event>
<event>
 9    1  0.2114844E-002  0.2764734E+03  0.7818608E-02  0.1097631E+00
         -1   -1    0    0    0  501 -0.00000000000E+00  0.00000000000E+00  0.84855718649E+02  0.84855718649E+02  0.00000000000E+00 0. -1.
          1   -1    0    0  501    0  0.00000000000E+00 -0.00000000000E+00 -0.22519857232E+03  0.22519857232E+03  0.00000000000E+00 0. -1.
         36    2    1    2    0    0 -0.71054273576E-14  0.00000000000E+00 -0.14034285367E+03  0.31005429097E+03  0.27647341061E+03 0.  0.
         25    2    3    3    0    0  0.27675521070E+02  0.31710614580E+02 -0.24835924818E+02  0.13397553714E+03  0.12474423372E+03 0.  0.
         25    2    3    3    0    0 -0.27675521070E+02 -0.31710614580E+02 -0.11550692886E+03  0.17607875383E+03  0.12605704817E+03 0.  0.
          5    1    4    4  502    0  0.16921996001E+02 -0.46460380301E+02 -0.23425367296E+02  0.54915924096E+02  0.47000000000E+01 0. -1.
         -5    1    4    4    0  502  0.10753525068E+02  0.78170994881E+02 -0.14105575219E+01  0.79059613043E+02  0.47000000000E+01 0. -1.
          5    1    5    5  503    0 -0.70516849216E+02  0.11158206826E+02 -0.54355219957E+02  0.89853834306E+02  0.47000000000E+01 0.  1.
         -5    1    5    5    0  503  0.42841328146E+02 -0.42868821406E+02 -0.61151708899E+02  0.86224919526E+02  0.47000000000E+01 0.  1.
<mgrwt>
<rscale>  0 0.27647341E+03</rscale>
<asrwt>0</asrwt>
<pdfrwt beam="1">  1        1 0.34645933E-01 0.27647341E+03</pdfrwt>
<pdfrwt beam="2">  1       -1 0.13054726E-01 0.27647341E+03</pdfrwt>
<totfact> 0.50238049E+03</totfact>
</mgrwt>
</event>
<event>
 9    1  0.2114844E-002  0.2756807E+03  0.7818608E-02  0.1098072E+00
          3   -1    0    0  501    0  0.00000000000E+00  0.00000000000E+00  0.84485386611E+02  0.84485386611E+02  0.00000000000E+00 0. -1.
         -3   -1    0    0    0  501 -0.00000000000E+00 -0.00000000000E+00 -0.22489058031E+03  0.22489058031E+03  0.00000000000E+00 0. -1.
         36    2    1    2    0    0 -0.71054273576E-14  0.14210854715E-13 -0.14040519369E+03  0.30937596692E+03  0.27568074015E+03 0.  0.
         25    2    3    3    0    0 -0.21240797661E+02 -0.58067002167E+02 -0.70490285452E+02  0.15472525650E+03  0.12307752203E+03 0.  0.
         25    2    3    3    0    0  0.21240797661E+02  0.58067002167E+02 -0.69914908242E+02  0.15465071042E+03  0.12331179835E+03 0.  0.
          5    1    4    4  502    0 -0.30441485105E+02  0.27432486558E+02 -0.52465315286E+02  0.66737730275E+02  0.47000000000E+01 0. -1.
         -5    1    4    4    0  502  0.92006874441E+01 -0.85499488726E+02 -0.18024970167E+02  0.87987526226E+02  0.47000000000E+01 0. -1.
          5    1    5    5  503    0  0.40495923953E+02  0.84453361293E+01 -0.88721293155E+02  0.98004088784E+02  0.47000000000E+01 0. -1.
         -5    1    5    5    0  503 -0.19255126292E+02  0.49621666038E+02  0.18806384913E+02  0.56646621633E+02  0.47000000000E+01 0. -1.
<mgrwt>
<rscale>  0 0.27568074E+03</rscale>
<asrwt>0</asrwt>
<pdfrwt beam="1">  1        3 0.12997752E-01 0.27568074E+03</pdfrwt>
<pdfrwt beam="2">  1       -3 0.34598551E-01 0.27568074E+03</pdfrwt>
<totfact> 0.99051369E+02</totfact>
</mgrwt>
</event>
<event>
 9    1  0.2114844E-002  0.2744583E+03  0.7818608E-02  0.1098755E+00
          2   -1    0    0  501    0  0.00000000000E+00  0.00000000000E+00  0.77017479663E+03  0.77017479663E+03  0.00000000000E+00 0. -1.
         -2   -1    0    0    0  501 -0.00000000000E+00 -0.00000000000E+00 -0.24451386040E+02  0.24451386040E+02  0.00000000000E+00 0. -1.
         36    2    1    2    0    0  0.00000000000E+00  0.00000000000E+00  0.74572341059E+03  0.79462618267E+03  0.27445831210E+03 0.  0.
         25    2    3    3    0    0  0.20217716024E+02  0.19121048761E+01  0.23514930349E+03  0.26823858583E+03  0.12745325343E+03 0.  0.
         25    2    3    3    0    0 -0.20217716024E+02 -0.19121048761E+01  0.51057410710E+03  0.52638759684E+03  0.12643405822E+03 0.  0.
          5    1    4    4  502    0  0.44880144618E+02 -0.51506604073E+02  0.14680713432E+03  0.16199253789E+03  0.47000000000E+01 0.  1.
         -5    1    4    4    0  502 -0.24662428594E+02  0.53418708949E+02  0.88342169169E+02  0.10624604794E+03  0.47000000000E+01 0.  1.
          5    1    5    5  503    0 -0.39973656665E+02  0.50943219064E+02  0.18833463801E+03  0.19921127145E+03  0.47000000000E+01 0.  1.
         -5    1    5    5    0  503  0.19755940641E+02 -0.52855323941E+02  0.32223946909E+03  0.32717632539E+03  0.47000000000E+01 0.  1.
<mgrwt>
<rscale>  0 0.27445831E+03</rscale>
<asrwt>0</asrwt>
<pdfrwt beam="1">  1        2 0.11848841E+00 0.27445831E+03</pdfrwt>
<pdfrwt beam="2">  1       -2 0.37617523E-02 0.27445831E+03</pdfrwt>
<totfact> 0.11187245E+04</totfact>
</mgrwt>
</event>
<event>
 9    1  0.2114844E-002  0.2742927E+03  0.7818608E-02  0.1098848E+00
          1   -1    0    0  501    0  0.00000000000E+00  0.00000000000E+00  0.49921456065E+02  0.49921456065E+02  0.00000000000E+00 0. -1.
         -1   -1    0    0    0  501 -0.00000000000E+00 -0.00000000000E+00 -0.37677440407E+03  0.37677440407E+03  0.00000000000E+00 0. -1.
         36    2    1    2    0    0 -0.71054273576E-14  0.00000000000E+00 -0.32685294801E+03  0.42669586014E+03  0.27429274040E+03 0.  0.
         25    2    3    3    0    0  0.32950576580E+02 -0.41496108664E+02 -0.13760246485E+03  0.19468343409E+03  0.12712015437E+03 0.  0.
         25    2    3    3    0    0 -0.32950576580E+02  0.41496108664E+02 -0.18925048316E+03  0.23201242605E+03  0.12331404191E+03 0.  0.
          5    1    4    4  502    0  0.71447244265E+02 -0.42102524908E+02 -0.13132891908E+03  0.15539210502E+03  0.47000000000E+01 0.  1.
         -5    1    4    4    0  502 -0.38496667685E+02  0.60641624387E+00 -0.62735457662E+01  0.39291329069E+02  0.47000000000E+01 0.  1.
          5    1    5    5  503    0 -0.15879295545E+02  0.70517336479E+02 -0.48401097396E+02  0.87118327579E+02  0.47000000000E+01 0. -1.
         -5    1    5    5    0  503 -0.17071281036E+02 -0.29021227814E+02 -0.14084938577E+03  0.14489409847E+03  0.47000000000E+01 0. -1.
<mgrwt>
<rscale>  0 0.27429274E+03</rscale>
<asrwt>0</asrwt>
<pdfrwt beam="1">  1        1 0.76802241E-02 0.27429274E+03</pdfrwt>
<pdfrwt beam="2">  1       -1 0.57965292E-01 0.27429274E+03</pdfrwt>
<totfact> 0.28468598E+03</totfact>
</mgrwt>
</event>
<event>
 9    1  0.2114844E-002  0.2702478E+03  0.7818608E-02  0.1101138E+00
          2   -1    0    0  501    0  0.00000000000E+00  0.00000000000E+00  0.21730078428E+03  0.21730078428E+03  0.00000000000E+00 0. -1.
         -2   -1    0    0    0  501 -0.00000000000E+00 -0.00000000000E+00 -0.84023962039E+02  0.84023962039E+02  0.00000000000E+00 0. -1.
         36    2    1    2    0    0  0.35527136788E-14  0.00000000000E+00  0.13327682224E+03  0.30132474632E+03  0.27024783329E+03 0.  0.
         25    2    3    3    0    0  0.86172495144E+01  0.41852439091E+02  0.28294344436E+02  0.13445072645E+03  0.12430021830E+03 0.  0.
         25    2    3    3    0    0 -0.86172495144E+01 -0.41852439091E+02  0.10498247781E+03  0.16687401988E+03  0.12247340207E+03 0.  0.
          5    1    4    4  502    0  0.38077884843E+02  0.61407860698E+02 -0.19334363013E+02  0.74945034943E+02  0.47000000000E+01 0.  1.
         -5    1    4    4    0  502 -0.29460635328E+02 -0.19555421607E+02  0.47628707449E+02  0.59505691504E+02  0.47000000000E+01 0.  1.
          5    1    5    5  503    0  0.30153232935E+02 -0.69875614827E+02  0.86668212552E+02  0.11543521157E+03  0.47000000000E+01 0. -1.
         -5    1    5    5    0  503 -0.38770482450E+02  0.28023175736E+02  0.18314265257E+02  0.51438808303E+02  0.47000000000E+01 0. -1.
<mgrwt>
<rscale>  0 0.27024783E+03</rscale>
<asrwt>0</asrwt>
<pdfrwt beam="1">  1        2 0.33430890E-01 0.27024783E+03</pdfrwt>
<pdfrwt beam="2">  1       -2 0.12926763E-01 0.27024783E+03</pdfrwt>
<totfact> 0.67510898E+03</totfact>
</mgrwt>
</event>
<event>
 9    1  0.2114844E-002  0.2771589E+03  0.7818608E-02  0.1097251E+00
         -2   -1    0    0    0  501 -0.00000000000E+00  0.00000000000E+00  0.11015407581E+03  0.11015407581E+03  0.00000000000E+00 0.  1.
          2   -1    0    0  501    0  0.00000000000E+00 -0.00000000000E+00 -0.17434004268E+03  0.17434004268E+03  0.00000000000E+00 0.  1.
         36    2    1    2    0    0  0.71054273576E-14 -0.71054273576E-14 -0.64185966869E+02  0.28449411849E+03  0.27715891672E+03 0.  0.
         25    2    3    3    0    0  0.54143197386E+02  0.73053766550E+00 -0.31849364251E+02  0.13760096283E+03  0.12242394970E+03 0.  0.
         25    2    3    3    0    0 -0.54143197386E+02 -0.73053766550E+00 -0.32336602619E+02  0.14689315567E+03  0.13266470444E+03 0.  0.
          5    1    4    4  502    0  0.64761118656E+02  0.49592854876E+02 -0.82802630028E+01  0.82122509093E+02  0.47000000000E+01 0. -1.
         -5    1    4    4    0  502 -0.10617921270E+02 -0.48862317210E+02 -0.23569101248E+02  0.55478453735E+02  0.47000000000E+01 0. -1.
          5    1    5    5  503    0 -0.65857288620E+02  0.40213972251E+02  0.19413847496E+02  0.79707800768E+02  0.47000000000E+01 0.  1.
         -5    1    5    5    0  503  0.11714091234E+02 -0.40944509916E+02 -0.51750450115E+02  0.67185354899E+02  0.47000000000E+01 0.  1.
<mgrwt>
<rscale>  0 0.27715892E+03</rscale>
<asrwt>0</asrwt>
<pdfrwt beam="1">  1        2 0.26821545E-01 0.27715892E+03</pdfrwt>
<pdfrwt beam="2">  1       -2 0.16946781E-01 0.27715892E+03</pdfrwt>
<totfact> 0.55052834E+03</totfact>
</mgrwt>
</event>
<event>
 9    1  0.2114844E-002  0.2750532E+03  0.7818608E-02  0.1098422E+00
          2   -1    0    0  501    0  0.00000000000E+00  0.00000000000E+00  0.11345828129E+04  0.11345828129E+04  0.00000000000E+00 0.  1.
         -2   -1    0    0    0  501 -0.00000000000E+00 -0.00000000000E+00 -0.16670064938E+02  0.16670064938E+02  0.00000000000E+00 0.  1.
         36    2    1    2    0    0  0.35527136788E-14  0.00000000000E+00  0.11179127479E+04  0.11512528778E+04  0.27505322516E+03 0.  0.
         25    2    3    3    0    0 -0.19683140685E+02 -0.24973111274E+02  0.73402705820E+03  0.74539098157E+03  0.12570167426E+03 0.  0.
         25    2    3    3    0    0  0.19683140685E+02  0.24973111274E+02  0.38388568974E+03  0.40586189625E+03  0.12784589837E+03 0.  0.
          5    1    4    4  502    0 -0.35235342191E+02 -0.36991478096E+02  0.71736979803E+03  0.71920192986E+03  0.47000000000E+01 0. -1.
         -5    1    4    4    0  502  0.15552201507E+02  0.12018366822E+02  0.16657260179E+02  0.26189051709E+02  0.47000000000E+01 0. -1.
          5    1    5    5  503    0  0.16444470970E+02  0.61170024619E+02  0.35076022454E+03  0.35646460927E+03  0.47000000000E+01 0.  1.
         -5    1    5    5    0  503  0.32386697150E+01 -0.36196913345E+02  0.33125465195E+02  0.49397286986E+02  0.47000000000E+01 0.  1.
<mgrwt>
<rscale>  0 0.27505323E+03</rscale>
<asrwt>0</asrwt>
<pdfrwt beam="1">  1        2 0.17455114E+00 0.27505323E+03</pdfrwt>
<pdfrwt beam="2">  1       -2 0.25646263E-02 0.27505323E+03</pdfrwt>
<totfact> 0.11644484E+04</totfact>
</mgrwt>
</event>
<event>
 9    1  0.2114844E-002  0.2745380E+03  0.7818608E-02  0.1098710E+00
          3   -1    0    0  501    0  0.00000000000E+00  0.00000000000E+00  0.40812316191E+02  0.40812316191E+02  0.00000000000E+00 0. -1.
         -3   -1    0    0    0  501 -0.00000000000E+00 -0.00000000000E+00 -0.46169356445E+03  0.46169356445E+03  0.00000000000E+00 0. -1.
         36    2    1    2    0    0 -0.10658141036E-13  0.00000000000E+00 -0.42088124826E+03  0.50250588065E+03  0.27453803916E+03 0.  0.
         25    2    3    3    0    0  0.28284128598E+02  0.61153704553E+01 -0.29229202148E+03  0.32011051375E+03  0.12727421383E+03 0.  0.
         25    2    3    3    0    0 -0.28284128598E+02 -0.61153704553E+01 -0.12858922678E+03  0.18239536690E+03  0.12607732125E+03 0.  0.
          5    1    4    4  502    0 -0.43120351480E+01 -0.46609215331E+02 -0.21904455252E+03  0.22403932376E+03  0.47000000000E+01 0.  1.
         -5    1    4    4    0  502  0.32596163746E+02  0.52724585786E+02 -0.73247468958E+02  0.96071189990E+02  0.47000000000E+01 0.  1.
          5    1    5    5  503    0  0.36130604249E+02 -0.40037456706E+02 -0.38279736557E+02  0.66301181994E+02  0.47000000000E+01 0. -1.
         -5    1    5    5    0  503 -0.64414732847E+02  0.33922086251E+02 -0.90309490226E+02  0.11609418490E+03  0.47000000000E+01 0. -1.
<mgrwt>
<rscale>  0 0.27453804E+03</rscale>
<asrwt>0</asrwt>
<pdfrwt beam="1">  1        3 0.62788177E-02 0.27453804E+03</pdfrwt>
<pdfrwt beam="2">  1       -3 0.71029782E-01 0.27453804E+03</pdfrwt>
<totfact> 0.77503724E+02</totfact>
</mgrwt>
</event>
<event>
 9    1  0.2114844E-002  0.2763179E+03  0.7818608E-02  0.1097717E+00
         -2   -1    0    0    0  501 -0.00000000000E+00  0.00000000000E+00  0.98643743020E+01  0.98643743020E+01  0.00000000000E+00 0. -1.
          2   -1    0    0  501    0  0.00000000000E+00 -0.00000000000E+00 -0.19350339023E+04  0.19350339023E+04  0.00000000000E+00 0. -1.
         36    2    1    2    0    0  0.71054273576E-14 -0.71054273576E-14 -0.19251695280E+04  0.19448982766E+04  0.27631792341E+03 0.  0.
         25    2    3    3    0    0  0.33911640515E+02  0.57496776369E+00 -0.71893255603E+03  0.73138675342E+03  0.13004704150E+03 0.  0.
         25    2    3    3    0    0 -0.33911640515E+02 -0.57496776369E+00 -0.12062369720E+04  0.12135115232E+04  0.12826634169E+03 0.  0.
          5    1    4    4  502    0 -0.37373692853E+02  0.35245235274E+02 -0.20693949647E+03  0.21327227838E+03  0.47000000000E+01 0.  1.
         -5    1    4    4    0  502  0.71285333368E+02 -0.34670267511E+02 -0.51199305957E+03  0.51811447504E+03  0.47000000000E+01 0.  1.
          5    1    5    5  503    0 -0.49617778136E+02  0.53442887083E+02 -0.80724570579E+03  0.81054659681E+03  0.47000000000E+01 0. -1.
         -5    1    5    5    0  503  0.15706137621E+02 -0.54017854847E+02 -0.39899126622E+03  0.40296492641E+03  0.47000000000E+01 0. -1.
<mgrwt>
<rscale>  0 0.27631792E+03</rscale>
<asrwt>0</asrwt>
<pdfrwt beam="1">  1        2 0.29769741E+00 0.27631792E+03</pdfrwt>
<pdfrwt beam="2">  1       -2 0.15175966E-02 0.27631792E+03</pdfrwt>
<totfact> 0.93227953E+03</totfact>
</mgrwt>
</event>
<event>
 9    1  0.2114844E-002  0.2752181E+03  0.7818608E-02  0.1098330E+00
          2   -1    0    0  501    0  0.00000000000E+00  0.00000000000E+00  0.18045417971E+04  0.18045417971E+04  0.00000000000E+00 0.  1.
         -2   -1    0    0    0  501 -0.00000000000E+00 -0.00000000000E+00 -0.10493661855E+02  0.10493661855E+02  0.00000000000E+00 0.  1.
         36    2    1    2    0    0  0.00000000000E+00  0.71054273576E-14  0.17940481352E+04  0.18150354589E+04  0.27521810566E+03 0.  0.
         25    2    3    3    0    0  0.30306227221E+02 -0.47288068607E+02  0.97541850384E+03  0.98472002543E+03  0.12279105021E+03 0.  0.
         25    2    3    3    0    0 -0.30306227221E+02  0.47288068607E+02  0.81862963138E+03  0.83031543350E+03  0.12694336095E+03 0.  0.
          5    1    4    4  502    0  0.78124601779E+02 -0.28081406509E+02  0.57999213761E+03  0.58592233997E+03  0.47000000000E+01 0.  1.
         -5    1    4    4    0  502 -0.47818374559E+02 -0.19206662099E+02  0.39542636623E+03  0.39879768545E+03  0.47000000000E+01 0.  1.
          5    1    5    5  503    0  0.17455393203E+02 -0.31043803449E+02  0.40586159332E+03  0.40744831748E+03  0.47000000000E+01 0. -1.
         -5    1    5    5    0  503 -0.47761620424E+02  0.78331872056E+02  0.41276803806E+03  0.42286711601E+03  0.47000000000E+01 0. -1.
<mgrwt>
<rscale>  0 0.27521811E+03</rscale>
<asrwt>0</asrwt>
<pdfrwt beam="1">  1        2 0.27762157E+00 0.27521811E+03</pdfrwt>
<pdfrwt beam="2">  1       -2 0.16144110E-02 0.27521811E+03</pdfrwt>
<totfact> 0.99703356E+03</totfact>
</mgrwt>
</event>
<event>
 9    1  0.2114844E-002  0.2670059E+03  0.7818608E-02  0.1103006E+00
          2   -1    0    0  501    0  0.00000000000E+00  0.00000000000E+00  0.35750963087E+03  0.35750963087E+03  0.00000000000E+00 0. -1.
         -2   -1    0    0    0  501 -0.00000000000E+00 -0.00000000000E+00 -0.49853325311E+02  0.49853325311E+02  0.00000000000E+00 0. -1.
         36    2    1    2    0    0  0.17763568394E-14  0.00000000000E+00  0.30765630556E+03  0.40736295618E+03  0.26700594697E+03 0.  0.
         25    2    3    3    0    0  0.15549988155E+02 -0.21433610177E+02  0.20803729671E+03  0.24442795963E+03  0.12555599886E+03 0.  0.
         25    2    3    3    0    0 -0.15549988155E+02  0.21433610177E+02  0.99619008850E+02  0.16293499655E+03  0.12618504032E+03 0.  0.
          5    1    4    4  502    0 -0.20468048381E+02 -0.56688446740E+02  0.49902927157E+02  0.78389496345E+02  0.47000000000E+01 0. -1.
         -5    1    4    4    0  502  0.36018036537E+02  0.35254836563E+02  0.15813436955E+03  0.16603846328E+03  0.47000000000E+01 0. -1.
          5    1    5    5  503    0 -0.20778065780E+02 -0.25674198122E+02  0.10934632205E+03  0.11432235395E+03  0.47000000000E+01 0. -1.
         -5    1    5    5    0  503  0.52280776245E+01  0.47107808299E+02 -0.97273132004E+01  0.48612642599E+02  0.47000000000E+01 0. -1.
<mgrwt>
<rscale>  0 0.26700595E+03</rscale>
<asrwt>0</asrwt>
<pdfrwt beam="1">  1        2 0.55001480E-01 0.26700595E+03</pdfrwt>
<pdfrwt beam="2">  1       -2 0.76697426E-02 0.26700595E+03</pdfrwt>
<totfact> 0.90413137E+03</totfact>
</mgrwt>
</event>
<event>
 9    1  0.2114844E-002  0.2745132E+03  0.7818608E-02  0.1098724E+00
         -2   -1    0    0    0  501 -0.00000000000E+00  0.00000000000E+00  0.28451435497E+03  0.28451435497E+03  0.00000000000E+00 0. -1.
          2   -1    0    0  501    0  0.00000000000E+00 -0.00000000000E+00 -0.66215914677E+02  0.66215914677E+02  0.00000000000E+00 0. -1.
         36    2    1    2    0    0  0.00000000000E+00  0.44408920985E-14  0.21829844029E+03  0.35073026964E+03  0.27451322921E+03 0.  0.
         25    2    3    3    0    0  0.53266919679E+02 -0.48110854753E+01  0.84652486575E+02  0.15997457506E+03  0.12476101117E+03 0.  0.
         25    2    3    3    0    0 -0.53266919679E+02  0.48110854753E+01  0.13364595372E+03  0.19075569458E+03  0.12516382383E+03 0.  0.
          5    1    4    4  502    0  0.85992734993E+01 -0.62054555660E+02  0.43073668230E+02  0.76171820759E+02  0.47000000000E+01 0. -1.
         -5    1    4    4    0  502  0.44667646179E+02  0.57243470185E+02  0.41578818345E+02  0.83802754304E+02  0.47000000000E+01 0. -1.
          5    1    5    5  503    0  0.40113794871E+02 -0.35332951943E+01  0.54790953794E+02  0.68159660588E+02  0.47000000000E+01 0.  1.
         -5    1    5    5    0  503 -0.93380714549E+02  0.83443806696E+01  0.78854999921E+02  0.12259603399E+03  0.47000000000E+01 0.  1.
<mgrwt>
<rscale>  0 0.27451323E+03</rscale>
<asrwt>0</asrwt>
<pdfrwt beam="1">  1        2 0.10187064E-01 0.27451323E+03</pdfrwt>
<pdfrwt beam="2">  1       -2 0.43771438E-01 0.27451323E+03</pdfrwt>
<totfact> 0.31181885E+03</totfact>
</mgrwt>
</event>
<event>
 9    1  0.2114844E-002  0.2738914E+03  0.7818608E-02  0.1099073E+00
          2   -1    0    0  501    0  0.00000000000E+00  0.00000000000E+00  0.46674001588E+03  0.46674001588E+03  0.00000000000E+00 0. -1.
         -2   -1    0    0    0  501 -0.00000000000E+00 -0.00000000000E+00 -0.40181083541E+02  0.40181083541E+02  0.00000000000E+00 0. -1.
         36    2    1    2    0    0  0.00000000000E+00 -0.71054273576E-14  0.42655893234E+03  0.50692109942E+03  0.27389136219E+03 0.  0.
         25    2    3    3    0    0 -0.26355830452E+01  0.32636701383E+02  0.11525262533E+03  0.16819524140E+03  0.11804393678E+03 0.  0.
         25    2    3    3    0    0  0.26355830452E+01 -0.32636701383E+02  0.31130630701E+03  0.33872585802E+03  0.12942754548E+03 0.  0.
          5    1    4    4  502    0 -0.23570481312E+02 -0.15120297761E+02 -0.11822016783E+02  0.30757780714E+02  0.47000000000E+01 0.  1.
         -5    1    4    4    0  502  0.20934898267E+02  0.47756999144E+02  0.12707464211E+03  0.13743746069E+03  0.47000000000E+01 0.  1.
          5    1    5    5  503    0 -0.22214295126E+02  0.39621884446E+02  0.56392141954E+02  0.72563987687E+02  0.47000000000E+01 0.  1.
         -5    1    5    5    0  503  0.24849878171E+02 -0.72258585829E+02  0.25491416506E+03  0.26616187033E+03  0.47000000000E+01 0.  1.
<mgrwt>
<rscale>  0 0.27389136E+03</rscale>
<asrwt>0</asrwt>
<pdfrwt beam="1">  1        2 0.71806152E-01 0.27389136E+03</pdfrwt>
<pdfrwt beam="2">  1       -2 0.61817055E-02 0.27389136E+03</pdfrwt>
<totfact> 0.94479178E+03</totfact>
</mgrwt>
</event>
<event>
 9    1  0.2114844E-002  0.2714542E+03  0.7818608E-02  0.1100450E+00
         -1   -1    0    0    0  501 -0.00000000000E+00  0.00000000000E+00  0.55806974222E+02  0.55806974222E+02  0.00000000000E+00 0.  1.
          1   -1    0    0  501    0  0.00000000000E+00 -0.00000000000E+00 -0.33009946582E+03  0.33009946582E+03  0.00000000000E+00 0.  1.
         36    2    1    2    0    0  0.71054273576E-14  0.00000000000E+00 -0.27429249160E+03  0.38590644004E+03  0.27145424940E+03 0.  0.
         25    2    3    3    0    0  0.29902323164E+02 -0.35492020504E+02 -0.13436861517E+03  0.19291273981E+03  0.13040923276E+03 0.  0.
         25    2    3    3    0    0 -0.29902323164E+02  0.35492020504E+02 -0.13992387642E+03  0.19299370023E+03  0.12455538802E+03 0.  0.
          5    1    4    4  502    0 -0.20312765537E+02  0.39179630109E+02 -0.24077927985E+02  0.50492459589E+02  0.47000000000E+01 0.  1.
         -5    1    4    4    0  502  0.50215088701E+02 -0.74671650614E+02 -0.11029068719E+03  0.14242028022E+03  0.47000000000E+01 0.  1.
          5    1    5    5  503    0 -0.13050457989E+02 -0.24903812099E+02  0.10166062578E+02  0.30264717727E+02  0.47000000000E+01 0.  1.
         -5    1    5    5    0  503 -0.16851865175E+02  0.60395832603E+02 -0.15008993900E+03  0.16272898250E+03  0.47000000000E+01 0.  1.
<mgrwt>
<rscale>  0 0.27145425E+03</rscale>
<asrwt>0</asrwt>
<pdfrwt beam="1">  1        1 0.50784534E-01 0.27145425E+03</pdfrwt>
<pdfrwt beam="2">  1       -1 0.85856882E-02 0.27145425E+03</pdfrwt>
<totfact> 0.59469222E+03</totfact>
</mgrwt>
</event>
<event>
 9    1  0.2114844E-002  0.2738825E+03  0.7818608E-02  0.1099078E+00
          4   -1    0    0  501    0  0.00000000000E+00  0.00000000000E+00  0.52967352961E+03  0.52967352961E+03  0.00000000000E+00 0. -1.
         -4   -1    0    0    0  501 -0.00000000000E+00 -0.00000000000E+00 -0.35404645759E+02  0.35404645759E+02  0.00000000000E+00 0. -1.
         36    2    1    2    0    0  0.00000000000E+00  0.00000000000E+00  0.49426888386E+03  0.56507817537E+03  0.27388248344E+03 0.  0.
         25    2    3    3    0    0 -0.33350007757E+02  0.47980363613E+02  0.22696304099E+03  0.26634999935E+03  0.12655339531E+03 0.  0.
         25    2    3    3    0    0  0.33350007757E+02 -0.47980363613E+02  0.26730584286E+03  0.29872817603E+03  0.11988232236E+03 0.  0.
          5    1    4    4  502    0 -0.67614750573E+02  0.60596929126E+02  0.20298301755E+03  0.22241388835E+03  0.47000000000E+01 0. -1.
         -5    1    4    4    0  502  0.34264742816E+02 -0.12616565513E+02  0.23980023442E+02  0.43936111000E+02  0.47000000000E+01 0. -1.
          5    1    5    5  503    0 -0.21990968303E+02 -0.36143294952E+02  0.23967658590E+02  0.48851602995E+02  0.47000000000E+01 0.  1.
         -5    1    5    5    0  503  0.55340976060E+02 -0.11837068661E+02  0.24333818427E+03  0.24987657303E+03  0.47000000000E+01 0.  1.
<mgrwt>
<rscale>  0 0.27388248E+03</rscale>
<asrwt>0</asrwt>
<pdfrwt beam="1">  1        4 0.81488229E-01 0.27388248E+03</pdfrwt>
<pdfrwt beam="2">  1       -4 0.54468690E-02 0.27388248E+03</pdfrwt>
<totfact> 0.53045718E+02</totfact>
</mgrwt>
</event>
<event>
 9    1  0.2114844E-002  0.2770535E+03  0.7818608E-02  0.1097309E+00
         -1   -1    0    0    0  501 -0.00000000000E+00  0.00000000000E+00  0.12607996098E+03  0.12607996098E+03  0.00000000000E+00 0.  1.
          1   -1    0    0  501    0  0.00000000000E+00 -0.00000000000E+00 -0.15220225801E+03  0.15220225801E+03  0.00000000000E+00 0.  1.
         36    2    1    2    0    0  0.00000000000E+00 -0.88817841970E-15 -0.26122297033E+02  0.27828221900E+03  0.27705345875E+03 0.  0.
         25    2    3    3    0    0  0.31708216053E+02  0.43571960825E+01  0.14064631837E+02  0.13189736986E+03  0.12717981830E+03 0.  0.
         25    2    3    3    0    0 -0.31708216053E+02 -0.43571960825E+01 -0.40186928870E+02  0.14638484914E+03  0.13707347914E+03 0.  0.
          5    1    4    4  502    0 -0.45848528447E+02  0.10156673065E+02  0.24686983518E+02  0.53261456267E+02  0.47000000000E+01 0.  1.
         -5    1    4    4    0  502  0.77556744499E+02 -0.57994769823E+01 -0.10622351681E+02  0.78635913588E+02  0.47000000000E+01 0.  1.
          5    1    5    5  503    0 -0.43491140583E+02 -0.55828810658E+01  0.43375526095E+02  0.61856075968E+02  0.47000000000E+01 0.  1.
         -5    1    5    5    0  503  0.11782924530E+02  0.12256849833E+01 -0.83562454965E+02  0.84528773171E+02  0.47000000000E+01 0.  1.
<mgrwt>
<rscale>  0 0.27705346E+03</rscale>
<asrwt>0</asrwt>
<pdfrwt beam="1">  1        1 0.23415732E-01 0.27705346E+03</pdfrwt>
<pdfrwt beam="2">  1       -1 0.19396917E-01 0.27705346E+03</pdfrwt>
<totfact> 0.43867942E+03</totfact>
</mgrwt>
</event>
<event>
 9    1  0.2114844E-002  0.2764828E+03  0.7818608E-02  0.1097626E+00
         -1   -1    0    0    0  501 -0.00000000000E+00  0.00000000000E+00  0.37957186367E+02  0.37957186367E+02  0.00000000000E+00 0.  1.
          1   -1    0    0  501    0  0.00000000000E+00 -0.00000000000E+00 -0.50348018349E+03  0.50348018349E+03  0.00000000000E+00 0.  1.
         36    2    1    2    0    0 -0.35527136788E-14  0.00000000000E+00 -0.46552299713E+03  0.54143736986E+03  0.27648284690E+03 0.  0.
         25    2    3    3    0    0 -0.60443992662E+01 -0.58595314093E+02 -0.20697277549E+03  0.24934385241E+03  0.12595507670E+03 0.  0.
         25    2    3    3    0    0  0.60443992662E+01  0.58595314093E+02 -0.25855022164E+03  0.29209351745E+03  0.12247636601E+03 0.  0.
          5    1    4    4  502    0  0.35389391442E+02 -0.83210008736E+02 -0.13074932728E+03  0.15904021870E+03  0.47000000000E+01 0.  1.
         -5    1    4    4    0  502 -0.41433790708E+02  0.24614694643E+02 -0.76223448210E+02  0.90303633713E+02  0.47000000000E+01 0.  1.
          5    1    5    5  503    0  0.36158348993E+02  0.86041829477E+02 -0.15904829373E+03  0.18446970580E+03  0.47000000000E+01 0.  1.
         -5    1    5    5    0  503 -0.30113949727E+02 -0.27446515384E+02 -0.99501927910E+02  0.10762381164E+03  0.47000000000E+01 0.  1.
<mgrwt>
<rscale>  0 0.27648285E+03</rscale>
<asrwt>0</asrwt>
<pdfrwt beam="1">  1        1 0.77458487E-01 0.27648285E+03</pdfrwt>
<pdfrwt beam="2">  1       -1 0.58395674E-02 0.27648285E+03</pdfrwt>
<totfact> 0.62004208E+03</totfact>
</mgrwt>
</event>
<event>
 9    1  0.2114844E-002  0.2761710E+03  0.7818608E-02  0.1097799E+00
          2   -1    0    0  501    0  0.00000000000E+00  0.00000000000E+00  0.20280206915E+03  0.20280206915E+03  0.00000000000E+00 0.  1.
         -2   -1    0    0    0  501 -0.00000000000E+00 -0.00000000000E+00 -0.94020766900E+02  0.94020766900E+02  0.00000000000E+00 0.  1.
         36    2    1    2    0    0  0.14210854715E-13  0.00000000000E+00  0.10878130225E+03  0.29682283605E+03  0.27617100551E+03 0.  0.
         25    2    3    3    0    0 -0.46089401749E+02  0.37588567669E+02  0.60066276129E+02  0.15077834864E+03  0.12485599512E+03 0.  0.
         25    2    3    3    0    0  0.46089401749E+02 -0.37588567669E+02  0.48715026125E+02  0.14604448742E+03  0.12417207883E+03 0.  0.
          5    1    4    4  502    0 -0.36396193260E+02 -0.29209869328E+02  0.68048772557E+02  0.82647594015E+02  0.47000000000E+01 0.  1.
         -5    1    4    4    0  502 -0.96932084888E+01  0.66798436997E+02 -0.79824964280E+01  0.68130754621E+02  0.47000000000E+01 0.  1.
          5    1    5    5  503    0 -0.87772115515E+01 -0.35231681967E+02  0.76136754629E+02  0.84481987798E+02  0.47000000000E+01 0. -1.
         -5    1    5    5    0  503  0.54866613300E+02 -0.23568857018E+01 -0.27421728504E+02  0.61562499619E+02  0.47000000000E+01 0. -1.
<mgrwt>
<rscale>  0 0.27617101E+03</rscale>
<asrwt>0</asrwt>
<pdfrwt beam="1">  1        2 0.31200318E-01 0.27617101E+03</pdfrwt>
<pdfrwt beam="2">  1       -2 0.14464733E-01 0.27617101E+03</pdfrwt>
<totfact> 0.60615120E+03</totfact>
</mgrwt>
</event>
<event>
 9    1  0.2114844E-002  0.2743742E+03  0.7818608E-02  0.1098802E+00
          2   -1    0    0  501    0  0.00000000000E+00  0.00000000000E+00  0.60711565465E+03  0.60711565465E+03  0.00000000000E+00 0. -1.
         -2   -1    0    0    0  501 -0.00000000000E+00 -0.00000000000E+00 -0.30999526272E+02  0.30999526272E+02  0.00000000000E+00 0. -1.
         36    2    1    2    0    0 -0.71054273576E-14  0.00000000000E+00  0.57611612838E+03  0.63811518092E+03  0.27437418017E+03 0.  0.
         25    2    3    3    0    0  0.24782096558E+02 -0.44167682903E+01  0.17737278494E+03  0.21945607730E+03  0.12675253400E+03 0.  0.
         25    2    3    3    0    0 -0.24782096558E+02  0.44167682903E+01  0.39874334343E+03  0.41865910362E+03  0.12508209687E+03 0.  0.
          5    1    4    4  502    0  0.26174543905E+02 -0.62323783757E+02  0.70368290250E+02  0.97689032358E+02  0.47000000000E+01 0.  1.
         -5    1    4    4    0  502 -0.13924473469E+01  0.57907015467E+02  0.10700449469E+03  0.12176704494E+03  0.47000000000E+01 0.  1.
          5    1    5    5  503    0 -0.69133917777E+02 -0.23477500217E+02  0.19624332094E+03  0.20943787293E+03  0.47000000000E+01 0.  1.
         -5    1    5    5    0  503  0.44351821219E+02  0.27894268508E+02  0.20250002250E+03  0.20922123069E+03  0.47000000000E+01 0.  1.
<mgrwt>
<rscale>  0 0.27437418E+03</rscale>
<asrwt>0</asrwt>
<pdfrwt beam="1">  1        2 0.93402399E-01 0.27437418E+03</pdfrwt>
<pdfrwt beam="2">  1       -2 0.47691583E-02 0.27437418E+03</pdfrwt>
<totfact> 0.10421640E+04</totfact>
</mgrwt>
</event>
<event>
 9    1  0.2114844E-002  0.2751831E+03  0.7818608E-02  0.1098349E+00
         -2   -1    0    0    0  501 -0.00000000000E+00  0.00000000000E+00  0.32942947992E+03  0.32942947992E+03  0.00000000000E+00 0. -1.
          2   -1    0    0  501    0  0.00000000000E+00 -0.00000000000E+00 -0.57467356180E+02  0.57467356180E+02  0.00000000000E+00 0. -1.
         36    2    1    2    0    0  0.71054273576E-14 -0.71054273576E-14  0.27196212374E+03  0.38689683610E+03  0.27518314817E+03 0.  0.
         25    2    3    3    0    0 -0.32744560501E+02  0.25214095656E+02  0.20173247398E+03  0.24109320856E+03  0.12538734901E+03 0.  0.
         25    2    3    3    0    0  0.32744560501E+02 -0.25214095656E+02  0.70229649762E+02  0.14580362755E+03  0.12090714304E+03 0.  0.
          5    1    4    4  502    0  0.32476858051E+02 -0.20063388224E+02  0.21435675640E+02  0.44032533950E+02  0.47000000000E+01 0.  1.
         -5    1    4    4    0  502 -0.65221418552E+02  0.45277483880E+02  0.18029679834E+03  0.19706067461E+03  0.47000000000E+01 0.  1.
          5    1    5    5  503    0 -0.18201716638E+02  0.30717171177E+02 -0.79812818929E+01  0.36886826298E+02  0.47000000000E+01 0.  1.
         -5    1    5    5    0  503  0.50946277139E+02 -0.55931266832E+02  0.78210931655E+02  0.10891680125E+03  0.47000000000E+01 0.  1.
<mgrwt>
<rscale>  0 0.27518315E+03</rscale>
<asrwt>0</asrwt>
<pdfrwt beam="1">  1        2 0.88411320E-02 0.27518315E+03</pdfrwt>
<pdfrwt beam="2">  1       -2 0.50681457E-01 0.27518315E+03</pdfrwt>
<totfact> 0.27881631E+03</totfact>
</mgrwt>
</event>
<event>
 9    1  0.2114844E-002  0.2749662E+03  0.7818608E-02  0.1098470E+00
          1   -1    0    0  501    0  0.00000000000E+00  0.00000000000E+00  0.16086829199E+03  0.16086829199E+03  0.00000000000E+00 0.  1.
         -1   -1    0    0    0  501 -0.00000000000E+00 -0.00000000000E+00 -0.11749740960E+03  0.11749740960E+03  0.00000000000E+00 0.  1.
         36    2    1    2    0    0  0.35527136788E-14  0.71054273576E-14  0.43370882387E+02  0.27836570160E+03  0.27496623499E+03 0.  0.
         25    2    3    3    0    0 -0.30735701663E+02 -0.38667490226E+02  0.32710786080E+02  0.14147249460E+03  0.12847028079E+03 0.  0.
         25    2    3    3    0    0  0.30735701663E+02  0.38667490226E+02  0.10660096308E+02  0.13689320699E+03  0.12722521099E+03 0.  0.
          5    1    4    4  502    0  0.32805618731E+01  0.26568440433E+02  0.57577030935E+02  0.63669840620E+02  0.47000000000E+01 0.  1.
         -5    1    4    4    0  502 -0.34016263536E+02 -0.65235930659E+02 -0.24866244855E+02  0.77802653985E+02  0.47000000000E+01 0.  1.
          5    1    5    5  503    0 -0.64222871713E-01 -0.32676624527E+02 -0.33795405246E+02  0.47243891995E+02  0.47000000000E+01 0. -1.
         -5    1    5    5    0  503  0.30799924535E+02  0.71344114753E+02  0.44455501554E+02  0.89649314998E+02  0.47000000000E+01 0. -1.
<mgrwt>
<rscale>  0 0.27496623E+03</rscale>
<asrwt>0</asrwt>
<pdfrwt beam="1">  1        1 0.24748968E-01 0.27496623E+03</pdfrwt>
<pdfrwt beam="2">  1       -1 0.18076525E-01 0.27496623E+03</pdfrwt>
<totfact> 0.45798437E+03</totfact>
</mgrwt>
</event>
<event>
 9    1  0.2114844E-002  0.2735487E+03  0.7818608E-02  0.1099266E+00
          1   -1    0    0  501    0  0.00000000000E+00  0.00000000000E+00  0.47626312142E+03  0.47626312142E+03  0.00000000000E+00 0.  1.
         -1   -1    0    0    0  501 -0.00000000000E+00 -0.00000000000E+00 -0.39279173735E+02  0.39279173735E+02  0.00000000000E+00 0.  1.
         36    2    1    2    0    0  0.00000000000E+00  0.00000000000E+00  0.43698394768E+03  0.51554229515E+03  0.27354869321E+03 0.  0.
         25    2    3    3    0    0 -0.25236529976E+02  0.39356965227E+02  0.27055482065E+03  0.30241794792E+03  0.12677086056E+03 0.  0.
         25    2    3    3    0    0  0.25236529976E+02 -0.39356965227E+02  0.16642912703E+03  0.21312434723E+03  0.12464942801E+03 0.  0.
          5    1    4    4  502    0 -0.38381798091E+02  0.17359186169E+02  0.27298056054E+03  0.27625166100E+03  0.47000000000E+01 0.  1.
         -5    1    4    4    0  502  0.13145268115E+02  0.21997779058E+02 -0.24257398905E+01  0.26166286923E+02  0.47000000000E+01 0.  1.
          5    1    5    5  503    0 -0.13934651616E+02 -0.67611748209E+02  0.14380044284E+03  0.15958126573E+03  0.47000000000E+01 0. -1.
         -5    1    5    5    0  503  0.39171181592E+02  0.28254782982E+02  0.22628684194E+02  0.53543081505E+02  0.47000000000E+01 0. -1.
<mgrwt>
<rscale>  0 0.27354869E+03</rscale>
<asrwt>0</asrwt>
<pdfrwt beam="1">  1        1 0.73271246E-01 0.27354869E+03</pdfrwt>
<pdfrwt beam="2">  1       -1 0.60429501E-02 0.27354869E+03</pdfrwt>
<totfact> 0.63357743E+03</totfact>
</mgrwt>
</event>
<event>
 9    1  0.2114844E-002  0.2746213E+03  0.7818608E-02  0.1098663E+00
         -1   -1    0    0    0  501 -0.00000000000E+00  0.00000000000E+00  0.11315791418E+02  0.11315791418E+02  0.00000000000E+00 0.  1.
          1   -1    0    0  501    0  0.00000000000E+00 -0.00000000000E+00 -0.16661855534E+04  0.16661855534E+04  0.00000000000E+00 0.  1.
         36    2    1    2    0    0  0.00000000000E+00  0.17763568394E-14 -0.16548697620E+04  0.16775013448E+04  0.27462125326E+03 0.  0.
         25    2    3    3    0    0 -0.36397334229E+02 -0.13788214337E+02 -0.10859839661E+04  0.10937591294E+04  0.12422953670E+03 0.  0.
         25    2    3    3    0    0  0.36397334229E+02  0.13788214337E+02 -0.56888579590E+03  0.58374221541E+03  0.12493616161E+03 0.  0.
          5    1    4    4  502    0 -0.77276346852E+02 -0.10274010955E+02 -0.47467707575E+03  0.48105883770E+03  0.47000000000E+01 0. -1.
         -5    1    4    4    0  502  0.40879012623E+02 -0.35142033822E+01 -0.61130689031E+03  0.61270029169E+03  0.47000000000E+01 0. -1.
          5    1    5    5  503    0 -0.10423270516E+02  0.33340219001E+02 -0.43942660578E+02  0.56331715667E+02  0.47000000000E+01 0. -1.
         -5    1    5    5    0  503  0.46820604745E+02 -0.19552004664E+02 -0.52494313532E+03  0.52741049974E+03  0.47000000000E+01 0. -1.
<mgrwt>
<rscale>  0 0.27462125E+03</rscale>
<asrwt>0</asrwt>
<pdfrwt beam="1">  1        1 0.25633626E+00 0.27462125E+03</pdfrwt>
<pdfrwt beam="2">  1       -1 0.17408908E-02 0.27462125E+03</pdfrwt>
<totfact> 0.46722864E+03</totfact>
</mgrwt>
</event>
<event>
 9    1  0.2114844E-002  0.2751244E+03  0.7818608E-02  0.1098382E+00
          1   -1    0    0  501    0  0.00000000000E+00  0.00000000000E+00  0.12921777352E+03  0.12921777352E+03  0.00000000000E+00 0. -1.
         -1   -1    0    0    0  501 -0.00000000000E+00 -0.00000000000E+00 -0.14644546291E+03  0.14644546291E+03  0.00000000000E+00 0. -1.
         36    2    1    2    0    0  0.00000000000E+00  0.35527136788E-14 -0.17227689395E+02  0.27566323643E+03  0.27512438394E+03 0.  0.
         25    2    3    3    0    0 -0.40020248045E+02  0.21976127715E+02 -0.42623948986E+02  0.13935809713E+03  0.12457651371E+03 0.  0.
         25    2    3    3    0    0  0.40020248045E+02 -0.21976127715E+02  0.25396259591E+02  0.13630513930E+03  0.12589499813E+03 0.  0.
          5    1    4    4  502    0 -0.55833078660E+02  0.15658789496E+02 -0.79474294540E+02  0.98492557352E+02  0.47000000000E+01 0. -1.
         -5    1    4    4    0  502  0.15812830615E+02  0.63173382190E+01  0.36850345554E+02  0.40865539782E+02  0.47000000000E+01 0. -1.
          5    1    5    5  503    0  0.70166296528E+02 -0.43498573351E+02 -0.11888064764E+02  0.83539518408E+02  0.47000000000E+01 0.  1.
         -5    1    5    5    0  503 -0.30146048483E+02  0.21522445636E+02  0.37284324355E+02  0.52765620890E+02  0.47000000000E+01 0.  1.
<mgrwt>
<rscale>  0 0.27512438E+03</rscale>
<asrwt>0</asrwt>
<pdfrwt beam="1">  1        1 0.19879658E-01 0.27512438E+03</pdfrwt>
<pdfrwt beam="2">  1       -1 0.22530071E-01 0.27512438E+03</pdfrwt>
<totfact> 0.42373179E+03</totfact>
</mgrwt>
</event>
<event>
 9    1  0.2114844E-002  0.2746052E+03  0.7818608E-02  0.1098672E+00
         -1   -1    0    0    0  501 -0.00000000000E+00  0.00000000000E+00  0.87308238735E+02  0.87308238735E+02  0.00000000000E+00 0.  1.
          1   -1    0    0  501    0  0.00000000000E+00 -0.00000000000E+00 -0.21592466398E+03  0.21592466398E+03  0.00000000000E+00 0.  1.
         36    2    1    2    0    0  0.00000000000E+00  0.35527136788E-14 -0.12861642525E+03  0.30323290272E+03  0.27460518649E+03 0.  0.
         25    2    3    3    0    0  0.27016195997E+02 -0.18036855337E+02 -0.12384827260E+03  0.17990027504E+03  0.12637448847E+03 0.  0.
         25    2    3    3    0    0 -0.27016195997E+02  0.18036855337E+02 -0.47681526429E+01  0.12333262767E+03  0.11888228957E+03 0.  0.
          5    1    4    4  502    0  0.20991899325E+02  0.22388565693E+02  0.15431201463E+02  0.34671597737E+02  0.47000000000E+01 0.  1.
         -5    1    4    4    0  502  0.60242966723E+01 -0.40425421030E+02 -0.13927947407E+03  0.14522867731E+03  0.47000000000E+01 0.  1.
          5    1    5    5  503    0 -0.22110212136E+02 -0.33878816039E+02 -0.42447243809E+02  0.58825965048E+02  0.47000000000E+01 0. -1.
         -5    1    5    5    0  503 -0.49059838612E+01  0.51915671375E+02  0.37679091166E+02  0.64506662626E+02  0.47000000000E+01 0. -1.
<mgrwt>
<rscale>  0 0.27460519E+03</rscale>
<asrwt>0</asrwt>
<pdfrwt beam="1">  1        1 0.33219179E-01 0.27460519E+03</pdfrwt>
<pdfrwt beam="2">  1       -1 0.13432037E-01 0.27460519E+03</pdfrwt>
<totfact> 0.50634155E+03</totfact>
</mgrwt>
</event>
<event>
 9    1  0.2114844E-002  0.2758360E+03  0.7818608E-02  0.1097985E+00
          1   -1    0    0  501    0  0.00000000000E+00  0.00000000000E+00  0.14577979657E+02  0.14577979657E+02  0.00000000000E+00 0.  1.
         -1   -1    0    0    0  501 -0.00000000000E+00 -0.00000000000E+00 -0.13048018413E+04  0.13048018413E+04  0.00000000000E+00 0.  1.
         36    2    1    2    0    0  0.00000000000E+00 -0.71054273576E-14 -0.12902238616E+04  0.13193798209E+04  0.27583599981E+03 0.  0.
         25    2    3    3    0    0 -0.18989878967E+02  0.43796323824E+02 -0.43752035409E+03  0.45590276387E+03  0.11893080498E+03 0.  0.
         25    2    3    3    0    0  0.18989878967E+02 -0.43796323824E+02 -0.85270350753E+03  0.86347705707E+03  0.12732094425E+03 0.  0.
          5    1    4    4  502    0  0.25549985308E+02 -0.14952757300E+02 -0.32547840616E+02  0.44247470311E+02  0.47000000000E+01 0. -1.
         -5    1    4    4    0  502 -0.44539864275E+02  0.58749081124E+02 -0.40497251348E+03  0.41165529356E+03  0.47000000000E+01 0. -1.
          5    1    5    5  503    0  0.57707518252E+02 -0.65161251477E+02 -0.45325528803E+03  0.46156103874E+03  0.47000000000E+01 0.  1.
         -5    1    5    5    0  503 -0.38717639285E+02  0.21364927652E+02 -0.39944821950E+03  0.40191601833E+03  0.47000000000E+01 0.  1.
<mgrwt>
<rscale>  0 0.27583600E+03</rscale>
<asrwt>0</asrwt>
<pdfrwt beam="1">  1        1 0.22427660E-02 0.27583600E+03</pdfrwt>
<pdfrwt beam="2">  1       -1 0.20073875E+00 0.27583600E+03</pdfrwt>
<totfact> 0.84900090E+02</totfact>
</mgrwt>
</event>
<event>
 9    1  0.2114844E-002  0.2755447E+03  0.7818608E-02  0.1098148E+00
         -2   -1    0    0    0  501 -0.00000000000E+00  0.00000000000E+00  0.16484588386E+02  0.16484588386E+02  0.00000000000E+00 0. -1.
          2   -1    0    0  501    0  0.00000000000E+00 -0.00000000000E+00 -0.11514524193E+04  0.11514524193E+04  0.00000000000E+00 0. -1.
         36    2    1    2    0    0  0.00000000000E+00  0.00000000000E+00 -0.11349678309E+04  0.11679370076E+04  0.27554469095E+03 0.  0.
         25    2    3    3    0    0  0.57171063973E+02 -0.34518093055E+02 -0.68182926315E+03  0.69341253816E+03  0.10709703397E+03 0.  0.
         25    2    3    3    0    0 -0.57171063973E+02  0.34518093055E+02 -0.45313856771E+03  0.47452446947E+03  0.12401161751E+03 0.  0.
          5    1    4    4  502    0  0.29486089560E+02  0.15946596733E+02 -0.52825650530E+03  0.52933991803E+03  0.47000000000E+01 0.  1.
         -5    1    4    4    0  502  0.27684974413E+02 -0.50464689787E+02 -0.15357275785E+03  0.16407262014E+03  0.47000000000E+01 0.  1.
          5    1    5    5  503    0 -0.56406284360E+02  0.59065714588E+02 -0.15433364124E+03  0.17467509947E+03  0.47000000000E+01 0. -1.
         -5    1    5    5    0  503 -0.76477961291E+00 -0.24547621534E+02 -0.29880492647E+03  0.29984937001E+03  0.47000000000E+01 0. -1.
<mgrwt>
<rscale>  0 0.27554469E+03</rscale>
<asrwt>0</asrwt>
<pdfrwt beam="1">  1        2 0.17714651E+00 0.27554469E+03</pdfrwt>
<pdfrwt beam="2">  1       -2 0.25360907E-02 0.27554469E+03</pdfrwt>
<totfact> 0.11576534E+04</totfact>
</mgrwt>
</event>
<event>
 9    1  0.2114844E-002  0.2741704E+03  0.7818608E-02  0.1098916E+00
         -1   -1    0    0    0  501 -0.00000000000E+00  0.00000000000E+00  0.29677159780E+02  0.29677159780E+02  0.00000000000E+00 0.  1.
          1   -1    0    0  501    0  0.00000000000E+00 -0.00000000000E+00 -0.63322620781E+03  0.63322620781E+03  0.00000000000E+00 0.  1.
         36    2    1    2    0    0  0.00000000000E+00 -0.71054273576E-14 -0.60354904803E+03  0.66290336759E+03  0.27417042398E+03 0.  0.
         25    2    3    3    0    0 -0.60409888461E+02 -0.55262520121E+01 -0.34383953321E+03  0.36880413382E+03  0.11878960576E+03 0.  0.
         25    2    3    3    0    0  0.60409888461E+02  0.55262520121E+01 -0.25970951482E+03  0.29409923377E+03  0.12395738434E+03 0.  0.
          5    1    4    4  502    0 -0.74740718859E+01  0.36449329213E+02 -0.30819894685E+02  0.48542468613E+02  0.47000000000E+01 0.  1.
         -5    1    4    4    0  502 -0.52935816575E+02 -0.41975581225E+02 -0.31301963853E+03  0.32026166520E+03  0.47000000000E+01 0.  1.
          5    1    5    5  503    0  0.75667963523E+02 -0.41566952965E+02 -0.18689479493E+03  0.20592524531E+03  0.47000000000E+01 0. -1.
         -5    1    5    5    0  503 -0.15258075062E+02  0.47093204977E+02 -0.72814719886E+02  0.88173988464E+02  0.47000000000E+01 0. -1.
<mgrwt>
<rscale>  0 0.27417042E+03</rscale>
<asrwt>0</asrwt>
<pdfrwt beam="1">  1        1 0.97419417E-01 0.27417042E+03</pdfrwt>
<pdfrwt beam="2">  1       -1 0.45657169E-02 0.27417042E+03</pdfrwt>
<totfact> 0.65525892E+03</totfact>
</mgrwt>
</event>
<event>
 9    1  0.2114844E-002  0.2751033E+03  0.7818608E-02  0.1098394E+00
         -2   -1    0    0    0  501 -0.00000000000E+00  0.00000000000E+00  0.11702008410E+02  0.11702008410E+02  0.00000000000E+00 0. -1.
          2   -1    0    0  501    0  0.00000000000E+00 -0.00000000000E+00 -0.16168550994E+04  0.16168550994E+04  0.00000000000E+00 0. -1.
         36    2    1    2    0    0  0.35527136788E-14  0.00000000000E+00 -0.16051530910E+04  0.16285571078E+04  0.27510326767E+03 0.  0.
         25    2    3    3    0    0 -0.57432854320E+01 -0.39737968077E+02 -0.96425133928E+03  0.97304385871E+03  0.12418379223E+03 0.  0.
         25    2    3    3    0    0  0.57432854320E+01  0.39737968077E+02 -0.64090175174E+03  0.65551324912E+03  0.13164525421E+03 0.  0.
          5    1    4    4  502    0  0.11379193017E+02 -0.41713935149E+02 -0.94767588990E+03  0.94867340045E+03  0.47000000000E+01 0.  1.
         -5    1    4    4    0  502 -0.17122478449E+02  0.19759670713E+01 -0.16575449376E+02  0.24370458267E+02  0.47000000000E+01 0.  1.
          5    1    5    5  503    0 -0.36085485102E+02  0.52703742754E+02 -0.15628507913E+03  0.16889926789E+03  0.47000000000E+01 0.  1.
         -5    1    5    5    0  503  0.41828770534E+02 -0.12965774677E+02 -0.48461667260E+03  0.48661398122E+03  0.47000000000E+01 0.  1.
<mgrwt>
<rscale>  0 0.27510327E+03</rscale>
<asrwt>0</asrwt>
<pdfrwt beam="1">  1        2 0.24874669E+00 0.27510327E+03</pdfrwt>
<pdfrwt beam="2">  1       -2 0.18003108E-02 0.27510327E+03</pdfrwt>
<totfact> 0.10669591E+04</totfact>
</mgrwt>
</event>
<event>
 9    1  0.2114844E-002  0.2744537E+03  0.7818608E-02  0.1098757E+00
         -1   -1    0    0    0  501 -0.00000000000E+00  0.00000000000E+00  0.69996293730E+03  0.69996293730E+03  0.00000000000E+00 0.  1.
          1   -1    0    0  501    0  0.00000000000E+00 -0.00000000000E+00 -0.26903156813E+02  0.26903156813E+02  0.00000000000E+00 0.  1.
         36    2    1    2    0    0  0.88817841970E-15  0.00000000000E+00  0.67305978048E+03  0.72686609411E+03  0.27445373137E+03 0.  0.
         25    2    3    3    0    0 -0.61507329688E+01  0.54817406188E+02  0.29016224268E+03  0.32036734946E+03  0.12409001567E+03 0.  0.
         25    2    3    3    0    0  0.61507329688E+01 -0.54817406188E+02  0.38289753781E+03  0.40649874465E+03  0.12485161354E+03 0.  0.
          5    1    4    4  502    0  0.25029891349E+01 -0.33434287316E+02  0.15493252842E+03  0.15858844500E+03  0.47000000000E+01 0. -1.
         -5    1    4    4    0  502 -0.86537221037E+01  0.88251693505E+02  0.13522971425E+03  0.16177890446E+03  0.47000000000E+01 0. -1.
          5    1    5    5  503    0 -0.38099779424E+02 -0.58604897009E+01  0.34719828665E+02  0.52091218399E+02  0.47000000000E+01 0. -1.
         -5    1    5    5    0  503  0.44250512393E+02 -0.48956916488E+02  0.34817770914E+03  0.35440752625E+03  0.47000000000E+01 0. -1.
<mgrwt>
<rscale>  0 0.27445373E+03</rscale>
<asrwt>0</asrwt>
<pdfrwt beam="1">  1        1 0.41389477E-02 0.27445373E+03</pdfrwt>
<pdfrwt beam="2">  1       -1 0.10768659E+00 0.27445373E+03</pdfrwt>
<totfact> 0.18451769E+03</totfact>
</mgrwt>
</event>
<event>
 9    1  0.2114844E-002  0.2748233E+03  0.7818608E-02  0.1098550E+00
         -2   -1    0    0    0  501 -0.00000000000E+00  0.00000000000E+00  0.15292152957E+02  0.15292152957E+02  0.00000000000E+00 0. -1.
          2   -1    0    0  501    0  0.00000000000E+00 -0.00000000000E+00 -0.12347487720E+04  0.12347487720E+04  0.00000000000E+00 0. -1.
         36    2    1    2    0    0 -0.35527136788E-14  0.00000000000E+00 -0.12194566191E+04  0.12500409250E+04  0.27482334025E+03 0.  0.
         25    2    3    3    0    0 -0.16825538785E+02  0.37654092847E+01 -0.41979031132E+03  0.44053665532E+03  0.13248155396E+03 0.  0.
         25    2    3    3    0    0  0.16825538785E+02 -0.37654092847E+01 -0.79966630777E+03  0.80950426968E+03  0.12463419191E+03 0.  0.
          5    1    4    4  502    0 -0.71445784438E+01 -0.29626883197E+02 -0.39809369291E+03  0.39928620756E+03  0.47000000000E+01 0. -1.
         -5    1    4    4    0  502 -0.96809603416E+01  0.33392292482E+02 -0.21696618410E+02  0.41250447764E+02  0.47000000000E+01 0. -1.
          5    1    5    5  503    0 -0.47054452942E+02  0.20148146365E+02 -0.47134934838E+03  0.47414382582E+03  0.47000000000E+01 0. -1.
         -5    1    5    5    0  503  0.63879991727E+02 -0.23913555650E+02 -0.32831695939E+03  0.33536044386E+03  0.47000000000E+01 0. -1.
<mgrwt>
<rscale>  0 0.27482334E+03</rscale>
<asrwt>0</asrwt>
<pdfrwt beam="1">  1        2 0.18996139E+00 0.27482334E+03</pdfrwt>
<pdfrwt beam="2">  1       -2 0.23526384E-02 0.27482334E+03</pdfrwt>
<totfact> 0.11596640E+04</totfact>
</mgrwt>
</event>
<event>
 9    1  0.2114844E-002  0.2750669E+03  0.7818608E-02  0.1098414E+00
          2   -1    0    0  501    0  0.00000000000E+00  0.00000000000E+00  0.18025346224E+04  0.18025346224E+04  0.00000000000E+00 0.  1.
         -2   -1    0    0    0  501 -0.00000000000E+00 -0.00000000000E+00 -0.10493807157E+02  0.10493807157E+02  0.00000000000E+00 0.  1.
         36    2    1    2    0    0 -0.71054273576E-14  0.00000000000E+00  0.17920408152E+04  0.18130284295E+04  0.27506690619E+03 0.  0.
         25    2    3    3    0    0  0.31612795537E+02  0.56748406318E+02  0.81913879402E+03  0.83082652482E+03  0.12273793229E+03 0.  0.
         25    2    3    3    0    0 -0.31612795537E+02 -0.56748406318E+02  0.97290202119E+03  0.98220190470E+03  0.11816297347E+03 0.  0.
          5    1    4    4  502    0  0.34951586548E+02  0.32990239365E+02  0.97793668631E+02  0.10906723119E+03  0.47000000000E+01 0. -1.
         -5    1    4    4    0  502 -0.33387910111E+01  0.23758166953E+02  0.72134512538E+03  0.72175929363E+03  0.47000000000E+01 0. -1.
          5    1    5    5  503    0  0.22088593847E+02 -0.32385371395E+01  0.38751149193E+02  0.44968162790E+02  0.47000000000E+01 0. -1.
         -5    1    5    5    0  503 -0.53701389383E+02 -0.53509869178E+02  0.93415087200E+03  0.93723374191E+03  0.47000000000E+01 0. -1.
<mgrwt>
<rscale>  0 0.27506691E+03</rscale>
<asrwt>0</asrwt>
<pdfrwt beam="1">  1        2 0.27731277E+00 0.27506691E+03</pdfrwt>
<pdfrwt beam="2">  1       -2 0.16144333E-02 0.27506691E+03</pdfrwt>
<totfact> 0.99942790E+03</totfact>
</mgrwt>
</event>
<event>
 9    1  0.2114844E-002  0.2737513E+03  0.7818608E-02  0.1099152E+00
          2   -1    0    0  501    0  0.00000000000E+00  0.00000000000E+00  0.54012287080E+03  0.54012287080E+03  0.00000000000E+00 0.  1.
         -2   -1    0    0    0  501 -0.00000000000E+00 -0.00000000000E+00 -0.34686448542E+02  0.34686448542E+02  0.00000000000E+00 0.  1.
         36    2    1    2    0    0  0.00000000000E+00 -0.71054273576E-14  0.50543642226E+03  0.57480931934E+03  0.27375130440E+03 0.  0.
         25    2    3    3    0    0  0.29089267642E+02  0.46836721235E+02  0.27931221113E+03  0.31108323352E+03  0.12536986456E+03 0.  0.
         25    2    3    3    0    0 -0.29089267642E+02 -0.46836721235E+02  0.22612421112E+03  0.26372608582E+03  0.12401381189E+03 0.  0.
          5    1    4    4  502    0 -0.45683734543E+02  0.32815421094E+02  0.15835214879E+03  0.16811111947E+03  0.47000000000E+01 0. -1.
         -5    1    4    4    0  502  0.74773002185E+02  0.14021300141E+02  0.12096006234E+03  0.14297211405E+03  0.47000000000E+01 0. -1.
          5    1    5    5  503    0 -0.24518479709E+01  0.21404909189E+02  0.16973367880E+03  0.17116013968E+03  0.47000000000E+01 0.  1.
         -5    1    5    5    0  503 -0.26637419671E+02 -0.68241630424E+02  0.56390532322E+02  0.92565946142E+02  0.47000000000E+01 0.  1.
<mgrwt>
<rscale>  0 0.27375130E+03</rscale>
<asrwt>0</asrwt>
<pdfrwt beam="1">  1        2 0.83095820E-01 0.27375130E+03</pdfrwt>
<pdfrwt beam="2">  1       -2 0.53363771E-02 0.27375130E+03</pdfrwt>
<totfact> 0.10047130E+04</totfact>
</mgrwt>
</event>
<event>
 9    1  0.2114844E-002  0.2758942E+03  0.7818608E-02  0.1097953E+00
         -2   -1    0    0    0  501 -0.00000000000E+00  0.00000000000E+00  0.14532800787E+02  0.14532800787E+02  0.00000000000E+00 0.  1.
          2   -1    0    0  501    0  0.00000000000E+00 -0.00000000000E+00 -0.13094101310E+04  0.13094101310E+04  0.00000000000E+00 0.  1.
         36    2    1    2    0    0  0.71054273576E-14  0.00000000000E+00 -0.12948773302E+04  0.13239429317E+04  0.27589415783E+03 0.  0.
         25    2    3    3    0    0 -0.47345455976E+02  0.14737765634E+02 -0.53661101320E+03  0.55365360614E+03  0.12697299775E+03 0.  0.
         25    2    3    3    0    0  0.47345455976E+02 -0.14737765634E+02 -0.75826631696E+03  0.77028932561E+03  0.12617069296E+03 0.  0.
          5    1    4    4  502    0  0.79304793321E+01 -0.92884286104E+01 -0.43656132878E+03  0.43675742833E+03  0.47000000000E+01 0. -1.
         -5    1    4    4    0  502 -0.55275935308E+02  0.24026194244E+02 -0.10004968442E+03  0.11689617781E+03  0.47000000000E+01 0. -1.
          5    1    5    5  503    0 -0.41872322381E+02  0.66990617722E+00 -0.17395491704E+03  0.17898643334E+03  0.47000000000E+01 0. -1.
         -5    1    5    5    0  503  0.89217778357E+02 -0.15407671811E+02 -0.58431139992E+03  0.59130289227E+03  0.47000000000E+01 0. -1.
<mgrwt>
<rscale>  0 0.27589416E+03</rscale>
<asrwt>0</asrwt>
<pdfrwt beam="1">  1        2 0.20144777E+00 0.27589416E+03</pdfrwt>
<pdfrwt beam="2">  1       -2 0.22358149E-02 0.27589416E+03</pdfrwt>
<totfact> 0.11360742E+04</totfact>
</mgrwt>
</event>
<event>
 9    1  0.2114844E-002  0.2757737E+03  0.7818608E-02  0.1098020E+00
          2   -1    0    0  501    0  0.00000000000E+00  0.00000000000E+00  0.24571850024E+03  0.24571850024E+03  0.00000000000E+00 0.  1.
         -2   -1    0    0    0  501 -0.00000000000E+00 -0.00000000000E+00 -0.77376306922E+02  0.77376306922E+02  0.00000000000E+00 0.  1.
         36    2    1    2    0    0 -0.53290705182E-14  0.00000000000E+00  0.16834219331E+03  0.32309480716E+03  0.27577374850E+03 0.  0.
         25    2    3    3    0    0 -0.84844505801E+01  0.66660251138E+02  0.77845019282E+02  0.16021635841E+03  0.12285706936E+03 0.  0.
         25    2    3    3    0    0  0.84844505801E+01 -0.66660251138E+02  0.90497174032E+02  0.16287844875E+03  0.11757582905E+03 0.  0.
          5    1    4    4  502    0 -0.58516511143E+02  0.49353220530E+02  0.15417833143E+02  0.78228652244E+02  0.47000000000E+01 0.  1.
         -5    1    4    4    0  502  0.50032060563E+02  0.17307030608E+02  0.62427186139E+02  0.81987706163E+02  0.47000000000E+01 0.  1.
          5    1    5    5  503    0  0.15300254184E+02 -0.73135517529E+02  0.11442670976E+03  0.13674232559E+03  0.47000000000E+01 0.  1.
         -5    1    5    5    0  503 -0.68158036036E+01  0.64752663915E+01 -0.23929535727E+02  0.26136123158E+02  0.47000000000E+01 0.  1.
<mgrwt>
<rscale>  0 0.27577375E+03</rscale>
<asrwt>0</asrwt>
<pdfrwt beam="1">  1        2 0.37802846E-01 0.27577375E+03</pdfrwt>
<pdfrwt beam="2">  1       -2 0.11904047E-01 0.27577375E+03</pdfrwt>
<totfact> 0.67573089E+03</totfact>
</mgrwt>
</event>
<event>
 9    1  0.2114844E-002  0.2742853E+03  0.7818608E-02  0.1098852E+00
         -2   -1    0    0    0  501 -0.00000000000E+00  0.00000000000E+00  0.26218000654E+02  0.26218000654E+02  0.00000000000E+00 0. -1.
          2   -1    0    0  501    0  0.00000000000E+00 -0.00000000000E+00 -0.71737392834E+03  0.71737392834E+03  0.00000000000E+00 0. -1.
         36    2    1    2    0    0 -0.71054273576E-14  0.00000000000E+00 -0.69115592768E+03  0.74359192899E+03  0.27428532678E+03 0.  0.
         25    2    3    3    0    0 -0.37198417020E+02 -0.11215424443E+02 -0.46521749442E+03  0.48258968384E+03  0.12229463543E+03 0.  0.
         25    2    3    3    0    0  0.37198417020E+02  0.11215424443E+02 -0.22593843326E+03  0.26100224516E+03  0.12475771871E+03 0.  0.
          5    1    4    4  502    0 -0.60023790924E+02 -0.30287778641E+02 -0.43404833205E+03  0.43924964379E+03  0.47000000000E+01 0.  1.
         -5    1    4    4    0  502  0.22825373904E+02  0.19072354199E+02 -0.31169162371E+02  0.43340040049E+02  0.47000000000E+01 0.  1.
          5    1    5    5  503    0  0.60106644491E+02 -0.12737340251E+01 -0.38163644684E+02  0.71365151762E+02  0.47000000000E+01 0.  1.
         -5    1    5    5    0  503 -0.22908227471E+02  0.12489158468E+02 -0.18777478858E+03  0.18963709339E+03  0.47000000000E+01 0.  1.
<mgrwt>
<rscale>  0 0.27428533E+03</rscale>
<asrwt>0</asrwt>
<pdfrwt beam="1">  1        2 0.11036521E+00 0.27428533E+03</pdfrwt>
<pdfrwt beam="2">  1       -2 0.40335387E-02 0.27428533E+03</pdfrwt>
<totfact> 0.10999889E+04</totfact>
</mgrwt>
</event>
<event>
 9    1  0.2114844E-002  0.2759950E+03  0.7818608E-02  0.1097897E+00
         -2   -1    0    0    0  501 -0.00000000000E+00  0.00000000000E+00  0.63508919058E+01  0.63508919058E+01  0.00000000000E+00 0.  1.
          2   -1    0    0  501    0  0.00000000000E+00 -0.00000000000E+00 -0.29985256215E+04  0.29985256215E+04  0.00000000000E+00 0.  1.
         36    2    1    2    0    0  0.35527136788E-14 -0.35527136788E-14 -0.29921747296E+04  0.30048765134E+04  0.27599501517E+03 0.  0.
         25    2    3    3    0    0 -0.23521749781E+02  0.71014056551E+01 -0.95455187580E+03  0.96351323218E+03  0.12878184003E+03 0.  0.
         25    2    3    3    0    0  0.23521749781E+02 -0.71014056551E+01 -0.20376228538E+04  0.20413632812E+04  0.12105143101E+03 0.  0.
          5    1    4    4  502    0  0.31062306024E+02 -0.10018961674E+02 -0.75888680372E+03  0.75960286815E+03  0.47000000000E+01 0. -1.
         -5    1    4    4    0  502 -0.54584055805E+02  0.17120367329E+02 -0.19566507208E+03  0.20391036403E+03  0.47000000000E+01 0. -1.
          5    1    5    5  503    0  0.53003338326E+02 -0.46637718216E+02 -0.14173775250E+04  0.14191425471E+04  0.47000000000E+01 0.  1.
         -5    1    5    5    0  503 -0.29481588545E+02  0.39536312561E+02 -0.62024532878E+03  0.62222073411E+03  0.47000000000E+01 0.  1.
<mgrwt>
<rscale>  0 0.27599502E+03</rscale>
<asrwt>0</asrwt>
<pdfrwt beam="1">  1        2 0.46131236E+00 0.27599502E+03</pdfrwt>
<pdfrwt beam="2">  1       -2 0.97705875E-03 0.27599502E+03</pdfrwt>
<totfact> 0.46037274E+03</totfact>
</mgrwt>
</event>
<event>
 9    1  0.2114844E-002  0.2750165E+03  0.7818608E-02  0.1098442E+00
          1   -1    0    0  501    0  0.00000000000E+00  0.00000000000E+00  0.17840214113E+02  0.17840214113E+02  0.00000000000E+00 0. -1.
         -1   -1    0    0    0  501 -0.00000000000E+00 -0.00000000000E+00 -0.10598821382E+04  0.10598821382E+04  0.00000000000E+00 0. -1.
         36    2    1    2    0    0  0.00000000000E+00  0.35527136788E-14 -0.10420419240E+04  0.10777223523E+04  0.27501653971E+03 0.  0.
         25    2    3    3    0    0  0.53228528673E+02 -0.37119011612E+01 -0.53350251458E+03  0.55095654669E+03  0.12681139067E+03 0.  0.
         25    2    3    3    0    0 -0.53228528673E+02  0.37119011612E+01 -0.50853940947E+03  0.52676580559E+03  0.12658131171E+03 0.  0.
          5    1    4    4  502    0  0.44072978671E+02 -0.28752174322E+02 -0.75469260844E+02  0.92123907372E+02  0.47000000000E+01 0.  1.
         -5    1    4    4    0  502  0.91555500017E+01  0.25040273160E+02 -0.45803325373E+03  0.45883263932E+03  0.47000000000E+01 0.  1.
          5    1    5    5  503    0 -0.47196357782E+02 -0.49141089269E+02 -0.15725795315E+03  0.17144823321E+03  0.47000000000E+01 0. -1.
         -5    1    5    5    0  503 -0.60321708912E+01  0.52852990430E+02 -0.35128145632E+03  0.35531757237E+03  0.47000000000E+01 0. -1.
<mgrwt>
<rscale>  0 0.27501654E+03</rscale>
<asrwt>0</asrwt>
<pdfrwt beam="1">  1        1 0.27446478E-02 0.27501654E+03</pdfrwt>
<pdfrwt beam="2">  1       -1 0.16305882E+00 0.27501654E+03</pdfrwt>
<totfact> 0.11672822E+03</totfact>
</mgrwt>
</event>
<event>
 9    1  0.2114844E-002  0.2746661E+03  0.7818608E-02  0.1098638E+00
          2   -1    0    0  501    0  0.00000000000E+00  0.00000000000E+00  0.34720362599E+03  0.34720362599E+03  0.00000000000E+00 0. -1.
         -2   -1    0    0    0  501 -0.00000000000E+00 -0.00000000000E+00 -0.54320752808E+02  0.54320752808E+02  0.00000000000E+00 0. -1.
         36    2    1    2    0    0 -0.14210854715E-13  0.00000000000E+00  0.29288287318E+03  0.40152437879E+03  0.27466606883E+03 0.  0.
         25    2    3    3    0    0 -0.32737593031E+02 -0.39662696687E+02  0.18152968579E+03  0.22567998626E+03  0.12382871181E+03 0.  0.
         25    2    3    3    0    0  0.32737593031E+02  0.39662696687E+02  0.11135318739E+03  0.17584439253E+03  0.12600332749E+03 0.  0.
          5    1    4    4  502    0 -0.66316305070E+02 -0.62000321742E+02  0.14456116990E+03  0.17076859798E+03  0.47000000000E+01 0.  1.
         -5    1    4    4    0  502  0.33578712039E+02  0.22337625055E+02  0.36968515892E+02  0.54911388278E+02  0.47000000000E+01 0.  1.
          5    1    5    5  503    0 -0.16133383617E+02  0.57250238710E+02  0.81589472977E+01  0.60220713382E+02  0.47000000000E+01 0.  1.
         -5    1    5    5    0  503  0.48870976648E+02 -0.17587542023E+02  0.10319424009E+03  0.11562367915E+03  0.47000000000E+01 0.  1.
<mgrwt>
<rscale>  0 0.27466607E+03</rscale>
<asrwt>0</asrwt>
<pdfrwt beam="1">  1        2 0.53415941E-01 0.27466607E+03</pdfrwt>
<pdfrwt beam="2">  1       -2 0.83570391E-02 0.27466607E+03</pdfrwt>
<totfact> 0.81698932E+03</totfact>
</mgrwt>
</event>
<event>
 9    1  0.2114844E-002  0.2745293E+03  0.7818608E-02  0.1098715E+00
          3   -1    0    0  501    0  0.00000000000E+00  0.00000000000E+00  0.35173902369E+03  0.35173902369E+03  0.00000000000E+00 0. -1.
         -3   -1    0    0    0  501 -0.00000000000E+00 -0.00000000000E+00 -0.53566934228E+02  0.53566934228E+02  0.00000000000E+00 0. -1.
         36    2    1    2    0    0  0.00000000000E+00  0.00000000000E+00  0.29817208946E+03  0.40530595791E+03  0.27452927820E+03 0.  0.
         25    2    3    3    0    0 -0.23540566066E+02 -0.51625543331E+02  0.10725967698E+03  0.17014344363E+03  0.11926775814E+03 0.  0.
         25    2    3    3    0    0  0.23540566066E+02  0.51625543331E+02  0.19091241248E+03  0.23516251428E+03  0.12503800986E+03 0.  0.
          5    1    4    4  502    0  0.10623072516E+01  0.19311723098E+02 -0.16136501328E+02  0.25623189122E+02  0.47000000000E+01 0. -1.
         -5    1    4    4    0  502 -0.24602873317E+02 -0.70937266429E+02  0.12339617831E+03  0.14452025451E+03  0.47000000000E+01 0. -1.
          5    1    5    5  503    0  0.30883305353E+02 -0.33437743346E+02  0.10205381896E+03  0.11184334220E+03  0.47000000000E+01 0.  1.
         -5    1    5    5    0  503 -0.73427392878E+01  0.85063286677E+02  0.88858593516E+02  0.12331917208E+03  0.47000000000E+01 0.  1.
<mgrwt>
<rscale>  0 0.27452928E+03</rscale>
<asrwt>0</asrwt>
<pdfrwt beam="1">  1        3 0.54113694E-01 0.27452928E+03</pdfrwt>
<pdfrwt beam="2">  1       -3 0.82410670E-02 0.27452928E+03</pdfrwt>
<totfact> 0.87953978E+02</totfact>
</mgrwt>
</event>
<event>
 9    1  0.2114844E-002  0.2752306E+03  0.7818608E-02  0.1098323E+00
         -1   -1    0    0    0  501 -0.00000000000E+00  0.00000000000E+00  0.82189061372E+03  0.82189061372E+03  0.00000000000E+00 0. -1.
          1   -1    0    0  501    0  0.00000000000E+00 -0.00000000000E+00 -0.23041954899E+02  0.23041954899E+02  0.00000000000E+00 0. -1.
         36    2    1    2    0    0 -0.14210854715E-13 -0.66613381478E-15  0.79884865882E+03  0.84493256861E+03  0.27523056845E+03 0.  0.
         25    2    3    3    0    0  0.52386583205E+02  0.17967413789E+01  0.47286938589E+03  0.49184768085E+03  0.12474414882E+03 0.  0.
         25    2    3    3    0    0 -0.52386583205E+02 -0.17967413789E+01  0.32597927293E+03  0.35308488776E+03  0.12513540351E+03 0.  0.
          5    1    4    4  502    0  0.84919359219E+02  0.24548599320E+02  0.24507348595E+03  0.26057059468E+03  0.47000000000E+01 0.  1.
         -5    1    4    4    0  502 -0.32532776014E+02 -0.22751857941E+02  0.22779589994E+03  0.23127708617E+03  0.47000000000E+01 0.  1.
          5    1    5    5  503    0  0.36337436054E+02 -0.29545959694E+01  0.16662661344E+03  0.17063310700E+03  0.47000000000E+01 0. -1.
         -5    1    5    5    0  503 -0.88724019259E+02  0.11578545905E+01  0.15935265948E+03  0.18245178077E+03  0.47000000000E+01 0. -1.
<mgrwt>
<rscale>  0 0.27523057E+03</rscale>
<asrwt>0</asrwt>
<pdfrwt beam="1">  1        1 0.35449168E-02 0.27523057E+03</pdfrwt>
<pdfrwt beam="2">  1       -1 0.12644469E+00 0.27523057E+03</pdfrwt>
<totfact> 0.15692529E+03</totfact>
</mgrwt>
</event>
<event>
 9    1  0.2114844E-002  0.2747119E+03  0.7818608E-02  0.1098613E+00
         -1   -1    0    0    0  501 -0.00000000000E+00  0.00000000000E+00  0.26132175251E+02  0.26132175251E+02  0.00000000000E+00 0.  1.
          1   -1    0    0  501    0  0.00000000000E+00 -0.00000000000E+00 -0.72197056093E+03  0.72197056093E+03  0.00000000000E+00 0.  1.
         36    2    1    2    0    0 -0.71054273576E-14  0.00000000000E+00 -0.69583838568E+03  0.74810273618E+03  0.27471193075E+03 0.  0.
         25    2    3    3    0    0  0.23049312450E+02  0.40405601029E+02 -0.26441842724E+03  0.29632941161E+03  0.12541982348E+03 0.  0.
         25    2    3    3    0    0 -0.23049312450E+02 -0.40405601029E+02 -0.43141995845E+03  0.45177332458E+03  0.12574606497E+03 0.  0.
          5    1    4    4  502    0  0.16713980452E+02 -0.35573394504E+02 -0.17166722826E+03  0.17617193533E+03  0.47000000000E+01 0. -1.
         -5    1    4    4    0  502  0.63353319972E+01  0.75978995533E+02 -0.92751198976E+02  0.12015747628E+03  0.47000000000E+01 0. -1.
          5    1    5    5  503    0  0.32901532936E+02 -0.51142699075E+02 -0.11443281421E+03  0.12967284028E+03  0.47000000000E+01 0. -1.
         -5    1    5    5    0  503 -0.55950845386E+02  0.10737098046E+02 -0.31698714424E+03  0.32210048430E+03  0.47000000000E+01 0. -1.
<mgrwt>
<rscale>  0 0.27471193E+03</rscale>
<asrwt>0</asrwt>
<pdfrwt beam="1">  1        1 0.11107238E+00 0.27471193E+03</pdfrwt>
<pdfrwt beam="2">  1       -1 0.40203352E-02 0.27471193E+03</pdfrwt>
<totfact> 0.65555669E+03</totfact>
</mgrwt>
</event>
<event>
 9    1  0.2114844E-002  0.2738696E+03  0.7818608E-02  0.1099085E+00
          1   -1    0    0  501    0  0.00000000000E+00  0.00000000000E+00  0.53900958935E+03  0.53900958935E+03  0.00000000000E+00 0.  1.
         -1   -1    0    0    0  501 -0.00000000000E+00 -0.00000000000E+00 -0.34788127877E+02  0.34788127877E+02  0.00000000000E+00 0.  1.
         36    2    1    2    0    0  0.00000000000E+00 -0.14210854715E-13  0.50422146147E+03  0.57379771723E+03  0.27386956400E+03 0.  0.
         25    2    3    3    0    0 -0.20993114346E+01  0.50990307197E+02  0.21730997617E+03  0.25547208322E+03  0.12424951117E+03 0.  0.
         25    2    3    3    0    0  0.20993114346E+01 -0.50990307197E+02  0.28691148530E+03  0.31832563400E+03  0.12809601996E+03 0.  0.
          5    1    4    4  502    0 -0.22712807775E+02 -0.20336590723E+02  0.15614184113E+03  0.15915970944E+03  0.47000000000E+01 0. -1.
         -5    1    4    4    0  502  0.20613496341E+02  0.71326897920E+02  0.61168135048E+02  0.96312373782E+02  0.47000000000E+01 0. -1.
          5    1    5    5  503    0  0.53303394064E+02 -0.47892532856E+02  0.91928416197E+02  0.11665277633E+03  0.47000000000E+01 0.  1.
         -5    1    5    5    0  503 -0.51204082629E+02 -0.30977743409E+01  0.19498306910E+03  0.20167285767E+03  0.47000000000E+01 0.  1.
<mgrwt>
<rscale>  0 0.27386956E+03</rscale>
<asrwt>0</asrwt>
<pdfrwt beam="1">  1        1 0.82924546E-01 0.27386956E+03</pdfrwt>
<pdfrwt beam="2">  1       -1 0.53520201E-02 0.27386956E+03</pdfrwt>
<totfact> 0.64499683E+03</totfact>
</mgrwt>
</event>
<event>
 9    1  0.2114844E-002  0.2735700E+03  0.7818608E-02  0.1099254E+00
         -2   -1    0    0    0  501 -0.00000000000E+00  0.00000000000E+00  0.41150594556E+02  0.41150594556E+02  0.00000000000E+00 0. -1.
          2   -1    0    0  501    0  0.00000000000E+00 -0.00000000000E+00 -0.45467462215E+03  0.45467462215E+03  0.00000000000E+00 0. -1.
         36    2    1    2    0    0  0.17763568394E-14  0.71054273576E-14 -0.41352402760E+03  0.49582521671E+03  0.27356996203E+03 0.  0.
         25    2    3    3    0    0  0.35156612970E+01 -0.54811646803E+02 -0.15108034743E+03  0.19947747573E+03  0.11810722013E+03 0.  0.
         25    2    3    3    0    0 -0.35156612970E+01  0.54811646803E+02 -0.26244368017E+03  0.29634774098E+03  0.12620864400E+03 0.  0.
          5    1    4    4  502    0 -0.75461549422E+01 -0.38355049362E+02  0.70854113229E+01  0.40004341259E+02  0.47000000000E+01 0. -1.
         -5    1    4    4    0  502  0.11061816239E+02 -0.16456597441E+02 -0.15816575875E+03  0.15947313447E+03  0.47000000000E+01 0. -1.
          5    1    5    5  503    0 -0.36707267938E+02  0.32304555525E+02 -0.24299457156E+02  0.54804757505E+02  0.47000000000E+01 0.  1.
         -5    1    5    5    0  503  0.33191606641E+02  0.22507091278E+02 -0.23814422302E+03  0.24154298347E+03  0.47000000000E+01 0.  1.
<mgrwt>
<rscale>  0 0.27356996E+03</rscale>
<asrwt>0</asrwt>
<pdfrwt beam="1">  1        2 0.69949939E-01 0.27356996E+03</pdfrwt>
<pdfrwt beam="2">  1       -2 0.63308609E-02 0.27356996E+03</pdfrwt>
<totfact> 0.93746264E+03</totfact>
</mgrwt>
</event>
<event>
 9    1  0.2114844E-002  0.2753636E+03  0.7818608E-02  0.1098249E+00
          2   -1    0    0  501    0  0.00000000000E+00  0.00000000000E+00  0.21365656039E+04  0.21365656039E+04  0.00000000000E+00 0. -1.
         -2   -1    0    0    0  501 -0.00000000000E+00 -0.00000000000E+00 -0.88723118337E+01  0.88723118337E+01  0.00000000000E+00 0. -1.
         36    2    1    2    0    0  0.71054273576E-14  0.00000000000E+00  0.21276932921E+04  0.21454379158E+04  0.27536358722E+03 0.  0.
         25    2    3    3    0    0 -0.42370248757E+02 -0.29769416521E+02  0.12798917403E+04  0.12870166378E+04  0.12492999260E+03 0.  0.
         25    2    3    3    0    0  0.42370248757E+02  0.29769416521E+02  0.84780155183E+03  0.85842127796E+03  0.12425040452E+03 0.  0.
          5    1    4    4  502    0 -0.91632140220E+01 -0.61419705759E+02  0.10833071882E+04  0.10850958016E+04  0.47000000000E+01 0.  1.
         -5    1    4    4    0  502 -0.33207034735E+02  0.31650289238E+02  0.19658455209E+03  0.20192083619E+03  0.47000000000E+01 0.  1.
          5    1    5    5  503    0  0.76329480210E+01  0.25526237789E+02  0.79150811691E+03  0.79197035288E+03  0.47000000000E+01 0. -1.
         -5    1    5    5    0  503  0.34737300736E+02  0.42431787328E+01  0.56293434929E+02  0.66450925082E+02  0.47000000000E+01 0. -1.
<mgrwt>
<rscale>  0 0.27536359E+03</rscale>
<asrwt>0</asrwt>
<pdfrwt beam="1">  1        2 0.32870199E+00 0.27536359E+03</pdfrwt>
<pdfrwt beam="2">  1       -2 0.13649728E-02 0.27536359E+03</pdfrwt>
<totfact> 0.85231307E+03</totfact>
</mgrwt>
</event>
<event>
 9    1  0.2114844E-002  0.2756017E+03  0.7818608E-02  0.1098116E+00
         -1   -1    0    0    0  501 -0.00000000000E+00  0.00000000000E+00  0.47501660133E+02  0.47501660133E+02  0.00000000000E+00 0.  1.
          1   -1    0    0  501    0  0.00000000000E+00 -0.00000000000E+00 -0.39975596927E+03  0.39975596927E+03  0.00000000000E+00 0.  1.
         36    2    1    2    0    0  0.00000000000E+00  0.14210854715E-13 -0.35225430914E+03  0.44725762941E+03  0.27560168496E+03 0.  0.
         25    2    3    3    0    0  0.29140282612E+02 -0.34426763538E+02 -0.11516218926E+03  0.17521981057E+03  0.12411806501E+03 0.  0.
         25    2    3    3    0    0 -0.29140282612E+02  0.34426763538E+02 -0.23709211988E+03  0.27203781884E+03  0.12552905422E+03 0.  0.
          5    1    4    4  502    0  0.46401661035E+02  0.35658049526E+02 -0.62489291571E+02  0.85741543046E+02  0.47000000000E+01 0.  1.
         -5    1    4    4    0  502 -0.17261378424E+02 -0.70084813064E+02 -0.52672897691E+02  0.89478267521E+02  0.47000000000E+01 0.  1.
          5    1    5    5  503    0 -0.16557930303E+00 -0.38036510468E+02 -0.15080476238E+03  0.15559874646E+03  0.47000000000E+01 0.  1.
         -5    1    5    5    0  503 -0.28974703309E+02  0.72463274006E+02 -0.86287357499E+02  0.11643907238E+03  0.47000000000E+01 0.  1.
<mgrwt>
<rscale>  0 0.27560168E+03</rscale>
<asrwt>0</asrwt>
<pdfrwt beam="1">  1        1 0.61500917E-01 0.27560168E+03</pdfrwt>
<pdfrwt beam="2">  1       -1 0.73079479E-02 0.27560168E+03</pdfrwt>
<totfact> 0.59646803E+03</totfact>
</mgrwt>
</event>
<event>
 9    1  0.2114844E-002  0.2753516E+03  0.7818608E-02  0.1098255E+00
          2   -1    0    0  501    0  0.00000000000E+00  0.00000000000E+00  0.29392014752E+03  0.29392014752E+03  0.00000000000E+00 0. -1.
         -2   -1    0    0    0  501 -0.00000000000E+00 -0.00000000000E+00 -0.64489010250E+02  0.64489010250E+02  0.00000000000E+00 0. -1.
         36    2    1    2    0    0  0.26645352591E-14  0.00000000000E+00  0.22943113727E+03  0.35840915777E+03  0.27535155279E+03 0.  0.
         25    2    3    3    0    0  0.79714184435E+01  0.41557869011E+02  0.75784497172E+02  0.15545320755E+03  0.12896437391E+03 0.  0.
         25    2    3    3    0    0 -0.79714184435E+01 -0.41557869011E+02  0.15364664009E+03  0.20295595021E+03  0.12567110935E+03 0.  0.
          5    1    4    4  502    0 -0.43151969191E+02  0.41149172848E+02  0.84349102265E+02  0.10340313305E+03  0.47000000000E+01 0.  1.
         -5    1    4    4    0  502  0.51123387635E+02  0.40869616294E+00 -0.85646050923E+01  0.52050074507E+02  0.47000000000E+01 0.  1.
          5    1    5    5  503    0 -0.11806159459E+02 -0.16003866062E+02 -0.19250973897E+02  0.28074884258E+02  0.47000000000E+01 0.  1.
         -5    1    5    5    0  503  0.38347410158E+01 -0.25554002949E+02  0.17289761399E+03  0.17488106595E+03  0.47000000000E+01 0.  1.
<mgrwt>
<rscale>  0 0.27535155E+03</rscale>
<asrwt>0</asrwt>
<pdfrwt beam="1">  1        2 0.45218483E-01 0.27535155E+03</pdfrwt>
<pdfrwt beam="2">  1       -2 0.99213864E-02 0.27535155E+03</pdfrwt>
<totfact> 0.74574188E+03</totfact>
</mgrwt>
</event>
<event>
 9    1  0.2114844E-002  0.2766005E+03  0.7818608E-02  0.1097560E+00
          1   -1    0    0  501    0  0.00000000000E+00  0.00000000000E+00  0.12527549726E+04  0.12527549726E+04  0.00000000000E+00 0. -1.
         -1   -1    0    0    0  501 -0.00000000000E+00 -0.00000000000E+00 -0.15267917812E+02  0.15267917812E+02  0.00000000000E+00 0. -1.
         36    2    1    2    0    0  0.17763568394E-14  0.00000000000E+00  0.12374870548E+04  0.12680228904E+04  0.27660050586E+03 0.  0.
         25    2    3    3    0    0 -0.11560570689E+01 -0.45743136319E+02  0.66814199783E+03  0.68169616268E+03  0.12728769763E+03 0.  0.
         25    2    3    3    0    0  0.11560570689E+01  0.45743136319E+02  0.56934505699E+03  0.58632672775E+03  0.13240644537E+03 0.  0.
          5    1    4    4  502    0 -0.54834284669E+02 -0.31529358079E+02  0.18976687607E+03  0.20008612258E+03  0.47000000000E+01 0.  1.
         -5    1    4    4    0  502  0.53678227600E+02 -0.14213778241E+02  0.47837512176E+03  0.48161004010E+03  0.47000000000E+01 0.  1.
          5    1    5    5  503    0  0.15043010255E+02 -0.40621780933E+02  0.10318844510E+03  0.11201056399E+03  0.47000000000E+01 0.  1.
         -5    1    5    5    0  503 -0.13886953186E+02  0.86364917253E+02  0.46615661189E+03  0.47431616376E+03  0.47000000000E+01 0.  1.
<mgrwt>
<rscale>  0 0.27660051E+03</rscale>
<asrwt>0</asrwt>
<pdfrwt beam="1">  1        1 0.19273145E+00 0.27660051E+03</pdfrwt>
<pdfrwt beam="2">  1       -1 0.23489114E-02 0.27660051E+03</pdfrwt>
<totfact> 0.56953435E+03</totfact>
</mgrwt>
</event>
<event>
 9    1  0.2114844E-002  0.2755962E+03  0.7818608E-02  0.1098119E+00
          3   -1    0    0  501    0  0.00000000000E+00  0.00000000000E+00  0.15193439984E+03  0.15193439984E+03  0.00000000000E+00 0.  1.
         -3   -1    0    0    0  501 -0.00000000000E+00 -0.00000000000E+00 -0.12497706808E+03  0.12497706808E+03  0.00000000000E+00 0.  1.
         36    2    1    2    0    0  0.71054273576E-14  0.00000000000E+00  0.26957331756E+02  0.27691146792E+03  0.27559619614E+03 0.  0.
         25    2    3    3    0    0  0.72398435125E+01  0.56492020878E+02  0.50744026483E+02  0.14729775091E+03  0.12600756899E+03 0.  0.
         25    2    3    3    0    0 -0.72398435125E+01 -0.56492020878E+02 -0.23786694727E+02  0.12961371700E+03  0.11397431742E+03 0.  0.
          5    1    4    4  502    0 -0.41513732216E+02 -0.86760964129E+01 -0.12113310273E+02  0.44356362534E+02  0.47000000000E+01 0. -1.
         -5    1    4    4    0  502  0.48753575729E+02  0.65168117290E+02  0.62857336757E+02  0.10294138838E+03  0.47000000000E+01 0. -1.
          5    1    5    5  503    0  0.52712568973E+02 -0.31714538117E+02 -0.18240546735E+02  0.64336882120E+02  0.47000000000E+01 0.  1.
         -5    1    5    5    0  503 -0.59952412486E+02 -0.24777482761E+02 -0.55461479921E+01  0.65276834883E+02  0.47000000000E+01 0.  1.
<mgrwt>
<rscale>  0 0.27559620E+03</rscale>
<asrwt>0</asrwt>
<pdfrwt beam="1">  1        3 0.23374523E-01 0.27559620E+03</pdfrwt>
<pdfrwt beam="2">  1       -3 0.19227241E-01 0.27559620E+03</pdfrwt>
<totfact> 0.10390776E+03</totfact>
</mgrwt>
</event>
<event>
 9    1  0.2114844E-002  0.2733659E+03  0.7818608E-02  0.1099369E+00
          2   -1    0    0  501    0  0.00000000000E+00  0.00000000000E+00  0.18846294985E+04  0.18846294985E+04  0.00000000000E+00 0. -1.
         -2   -1    0    0    0  501 -0.00000000000E+00 -0.00000000000E+00 -0.99129417184E+01  0.99129417184E+01  0.00000000000E+00 0. -1.
         36    2    1    2    0    0  0.00000000000E+00 -0.71054273576E-14  0.18747165568E+04  0.18945424403E+04  0.27336585288E+03 0.  0.
         25    2    3    3    0    0 -0.18159973761E+02  0.45783875049E+02  0.82693497634E+03  0.83762598466E+03  0.12397534930E+03 0.  0.
         25    2    3    3    0    0  0.18159973761E+02 -0.45783875049E+02  0.10477815805E+04  0.10569164556E+04  0.12961560802E+03 0.  0.
          5    1    4    4  502    0  0.46260066480E+02  0.79589743571E+01  0.16945376948E+03  0.17589772317E+03  0.47000000000E+01 0. -1.
         -5    1    4    4    0  502 -0.64420040241E+02  0.37824900692E+02  0.65748120685E+03  0.66172826150E+03  0.47000000000E+01 0. -1.
          5    1    5    5  503    0 -0.48197533721E+02 -0.52806728634E+02  0.52028873443E+03  0.52519901944E+03  0.47000000000E+01 0. -1.
         -5    1    5    5    0  503  0.66357507482E+02  0.70228535844E+01  0.52749284605E+03  0.53171743615E+03  0.47000000000E+01 0. -1.
<mgrwt>
<rscale>  0 0.27336585E+03</rscale>
<asrwt>0</asrwt>
<pdfrwt beam="1">  1        2 0.28994272E+00 0.27336585E+03</pdfrwt>
<pdfrwt beam="2">  1       -2 0.15250695E-02 0.27336585E+03</pdfrwt>
<totfact> 0.98363509E+03</totfact>
</mgrwt>
</event>
<event>
 9    1  0.2114844E-002  0.2766024E+03  0.7818608E-02  0.1097559E+00
          1   -1    0    0  501    0  0.00000000000E+00  0.00000000000E+00  0.32686947927E+03  0.32686947927E+03  0.00000000000E+00 0. -1.
         -1   -1    0    0    0  501 -0.00000000000E+00 -0.00000000000E+00 -0.58516397335E+02  0.58516397335E+02  0.00000000000E+00 0. -1.
         36    2    1    2    0    0  0.00000000000E+00  0.71054273576E-14  0.26835308194E+03  0.38538587661E+03  0.27660241738E+03 0.  0.
         25    2    3    3    0    0  0.47908289157E+02  0.33670864779E+02  0.15380134688E+03  0.20667071999E+03  0.12501600255E+03 0.  0.
         25    2    3    3    0    0 -0.47908289157E+02 -0.33670864779E+02  0.11455173506E+03  0.17871515662E+03  0.12404868357E+03 0.  0.
          5    1    4    4  502    0  0.42885302208E+02  0.50454973610E+02  0.16990580994E+03  0.18241416546E+03  0.47000000000E+01 0. -1.
         -5    1    4    4    0  502  0.50229869492E+01 -0.16784108831E+02 -0.16104463063E+02  0.24256554530E+02  0.47000000000E+01 0. -1.
          5    1    5    5  503    0 -0.15255037927E+02 -0.38745438964E+02 -0.15324117977E+02  0.44618872851E+02  0.47000000000E+01 0. -1.
         -5    1    5    5    0  503 -0.32653251230E+02  0.50745741852E+01  0.12987585304E+03  0.13409628377E+03  0.47000000000E+01 0. -1.
<mgrwt>
<rscale>  0 0.27660242E+03</rscale>
<asrwt>0</asrwt>
<pdfrwt beam="1">  1        1 0.50287611E-01 0.27660242E+03</pdfrwt>
<pdfrwt beam="2">  1       -1 0.90025229E-02 0.27660242E+03</pdfrwt>
<totfact> 0.56021942E+03</totfact>
</mgrwt>
</event>
<event>
 9    1  0.2114844E-002  0.2749526E+03  0.7818608E-02  0.1098478E+00
          1   -1    0    0  501    0  0.00000000000E+00  0.00000000000E+00  0.23791878327E+04  0.23791878327E+04  0.00000000000E+00 0.  1.
         -1   -1    0    0    0  501 -0.00000000000E+00 -0.00000000000E+00 -0.79437733331E+01  0.79437733331E+01  0.00000000000E+00 0.  1.
         36    2    1    2    0    0  0.00000000000E+00 -0.71054273576E-14  0.23712440594E+04  0.23871316060E+04  0.27495256944E+03 0.  0.
         25    2    3    3    0    0  0.34854816735E+02 -0.35865590070E+02  0.13113087649E+04  0.13181981969E+04  0.12495843493E+03 0.  0.
         25    2    3    3    0    0 -0.34854816735E+02  0.35865590070E+02  0.10599352944E+04  0.10689334092E+04  0.12905272574E+03 0.  0.
          5    1    4    4  502    0  0.15861291247E+02 -0.81214658818E+02  0.93406785704E+03  0.93773783806E+03  0.47000000000E+01 0. -1.
         -5    1    4    4    0  502  0.18993525488E+02  0.45349068748E+02  0.37724090788E+03  0.38046035881E+03  0.47000000000E+01 0. -1.
          5    1    5    5  503    0 -0.55200029823E+02  0.68602215121E+02  0.50494299666E+03  0.51258445849E+03  0.47000000000E+01 0. -1.
         -5    1    5    5    0  503  0.20345213088E+02 -0.32736625051E+02  0.55499229778E+03  0.55634895066E+03  0.47000000000E+01 0. -1.
<mgrwt>
<rscale>  0 0.27495257E+03</rscale>
<asrwt>0</asrwt>
<pdfrwt beam="1">  1        1 0.36602833E+00 0.27495257E+03</pdfrwt>
<pdfrwt beam="2">  1       -1 0.12221209E-02 0.27495257E+03</pdfrwt>
<totfact> 0.26810468E+03</totfact>
</mgrwt>
</event>
<event>
 9    1  0.2114844E-002  0.2751857E+03  0.7818608E-02  0.1098348E+00
         -2   -1    0    0    0  501 -0.00000000000E+00  0.00000000000E+00  0.94262725232E+01  0.94262725232E+01  0.00000000000E+00 0.  1.
          2   -1    0    0  501    0  0.00000000000E+00 -0.00000000000E+00 -0.20084066585E+04  0.20084066585E+04  0.00000000000E+00 0.  1.
         36    2    1    2    0    0  0.00000000000E+00  0.00000000000E+00 -0.19989803859E+04  0.20178329310E+04  0.27518567187E+03 0.  0.
         25    2    3    3    0    0  0.18126996384E+02 -0.43055089611E+02 -0.12563983490E+04  0.12632559580E+04  0.12286771437E+03 0.  0.
         25    2    3    3    0    0 -0.18126996384E+02  0.43055089611E+02 -0.74258203692E+03  0.75457697300E+03  0.12560253932E+03 0.  0.
          5    1    4    4  502    0  0.41149976308E+02  0.12765873945E+01 -0.14713879810E+03  0.15286224560E+03  0.47000000000E+01 0. -1.
         -5    1    4    4    0  502 -0.23022979924E+02 -0.44331677005E+02 -0.11092595509E+04  0.11103937124E+04  0.47000000000E+01 0. -1.
          5    1    5    5  503    0  0.45765392878E+02 -0.12319123209E+02 -0.32754192755E+03  0.33098645937E+03  0.47000000000E+01 0. -1.
         -5    1    5    5    0  503 -0.63892389262E+02  0.55374212820E+02 -0.41504010937E+03  0.42359051363E+03  0.47000000000E+01 0. -1.
<mgrwt>
<rscale>  0 0.27518567E+03</rscale>
<asrwt>0</asrwt>
<pdfrwt beam="1">  1        2 0.30898561E+00 0.27518567E+03</pdfrwt>
<pdfrwt beam="2">  1       -2 0.14501959E-02 0.27518567E+03</pdfrwt>
<totfact> 0.91161279E+03</totfact>
</mgrwt>
</event>
<event>
 9    1  0.2114844E-002  0.2784026E+03  0.7818608E-02  0.1096565E+00
         -1   -1    0    0    0  501 -0.00000000000E+00  0.00000000000E+00  0.61832894241E+02  0.61832894241E+02  0.00000000000E+00 0. -1.
          1   -1    0    0  501    0  0.00000000000E+00 -0.00000000000E+00 -0.31337682027E+03  0.31337682027E+03  0.00000000000E+00 0. -1.
         36    2    1    2    0    0 -0.71054273576E-14 -0.71054273576E-14 -0.25154392603E+03  0.37520971452E+03  0.27840255592E+03 0.  0.
         25    2    3    3    0    0 -0.41308109927E+02 -0.17220262096E+02 -0.75013047645E+02  0.15307732492E+03  0.12570923878E+03 0.  0.
         25    2    3    3    0    0  0.41308109927E+02  0.17220262096E+02 -0.17653087839E+03  0.22213238960E+03  0.12718785363E+03 0.  0.
          5    1    4    4  502    0 -0.28506631667E+01  0.28429757602E+02  0.23838457800E+02  0.37506525673E+02  0.47000000000E+01 0. -1.
         -5    1    4    4    0  502 -0.38457446760E+02 -0.45650019699E+02 -0.98851505444E+02  0.11557079925E+03  0.47000000000E+01 0. -1.
          5    1    5    5  503    0  0.64629766104E+01 -0.48590425968E+02 -0.29902302394E+02  0.57611086180E+02  0.47000000000E+01 0.  1.
         -5    1    5    5    0  503  0.34845133317E+02  0.65810688064E+02 -0.14662857599E+03  0.16452130342E+03  0.47000000000E+01 0.  1.
<mgrwt>
<rscale>  0 0.27840256E+03</rscale>
<asrwt>0</asrwt>
<pdfrwt beam="1">  1        1 0.48211820E-01 0.27840256E+03</pdfrwt>
<pdfrwt beam="2">  1       -1 0.95127528E-02 0.27840256E+03</pdfrwt>
<totfact> 0.54286193E+03</totfact>
</mgrwt>
</event>
<event>
 9    1  0.2114844E-002  0.2753619E+03  0.7818608E-02  0.1098249E+00
          2   -1    0    0  501    0  0.00000000000E+00  0.00000000000E+00  0.46969028633E+03  0.46969028633E+03  0.00000000000E+00 0. -1.
         -2   -1    0    0    0  501 -0.00000000000E+00 -0.00000000000E+00 -0.40358595953E+02  0.40358595953E+02  0.00000000000E+00 0. -1.
         36    2    1    2    0    0  0.71054273576E-14  0.00000000000E+00  0.42933169037E+03  0.51004888228E+03  0.27536187455E+03 0.  0.
         25    2    3    3    0    0  0.51767491833E+02  0.10493826815E+02  0.26718067196E+03  0.29878703790E+03  0.12287468795E+03 0.  0.
         25    2    3    3    0    0 -0.51767491833E+02 -0.10493826815E+02  0.16215101841E+03  0.21126184438E+03  0.12469410774E+03 0.  0.
          5    1    4    4  502    0  0.76484741464E+02 -0.31926192173E+02  0.18784624326E+03  0.20537161082E+03  0.47000000000E+01 0. -1.
         -5    1    4    4    0  502 -0.24717249631E+02  0.42420018988E+02  0.79334428700E+02  0.93415427085E+02  0.47000000000E+01 0. -1.
          5    1    5    5  503    0  0.98018811272E+01  0.26601778195E+02  0.12864599712E+03  0.13181659247E+03  0.47000000000E+01 0. -1.
         -5    1    5    5    0  503 -0.61569372960E+02 -0.37095605010E+02  0.33505021295E+02  0.79445251902E+02  0.47000000000E+01 0. -1.
<mgrwt>
<rscale>  0 0.27536187E+03</rscale>
<asrwt>0</asrwt>
<pdfrwt beam="1">  1        2 0.72260040E-01 0.27536187E+03</pdfrwt>
<pdfrwt beam="2">  1       -2 0.62090151E-02 0.27536187E+03</pdfrwt>
<totfact> 0.93208059E+03</totfact>
</mgrwt>
</event>
<event>
 9    1  0.2114844E-002  0.2753117E+03  0.7818608E-02  0.1098278E+00
          1   -1    0    0  501    0  0.00000000000E+00  0.00000000000E+00  0.11013494413E+03  0.11013494413E+03  0.00000000000E+00 0.  1.
         -1   -1    0    0    0  501 -0.00000000000E+00 -0.00000000000E+00 -0.17205372481E+03  0.17205372481E+03  0.00000000000E+00 0.  1.
         36    2    1    2    0    0  0.00000000000E+00 -0.71054273576E-14 -0.61918780682E+02  0.28218866894E+03  0.27531165881E+03 0.  0.
         25    2    3    3    0    0 -0.61917709670E+02 -0.20575690715E+02 -0.60340085495E+02  0.15100097155E+03  0.12207868640E+03 0.  0.
         25    2    3    3    0    0  0.61917709670E+02  0.20575690715E+02 -0.15786951873E+01  0.13118769739E+03  0.11380051779E+03 0.  0.
          5    1    4    4  502    0  0.59466219552E+00  0.23976651191E+02  0.25790409876E+02  0.35531235090E+02  0.47000000000E+01 0. -1.
         -5    1    4    4    0  502 -0.62512371866E+02 -0.44552341905E+02 -0.86130495371E+02  0.11546973646E+03  0.47000000000E+01 0. -1.
          5    1    5    5  503    0  0.19085869158E+02 -0.49428190106E+01  0.53222710800E+02  0.56951284500E+02  0.47000000000E+01 0. -1.
         -5    1    5    5    0  503  0.42831840512E+02  0.25518509725E+02 -0.54801405987E+02  0.74236412888E+02  0.47000000000E+01 0. -1.
<mgrwt>
<rscale>  0 0.27531166E+03</rscale>
<asrwt>0</asrwt>
<pdfrwt beam="1">  1        1 0.16943838E-01 0.27531166E+03</pdfrwt>
<pdfrwt beam="2">  1       -1 0.26469804E-01 0.27531166E+03</pdfrwt>
<totfact> 0.39892452E+03</totfact>
</mgrwt>
</event>
<event>
 9    1  0.2114844E-002  0.2758594E+03  0.7818608E-02  0.1097972E+00
          2   -1    0    0  501    0  0.00000000000E+00  0.00000000000E+00  0.27940294892E+03  0.27940294892E+03  0.00000000000E+00 0. -1.
         -2   -1    0    0    0  501 -0.00000000000E+00 -0.00000000000E+00 -0.68090182561E+02  0.68090182561E+02  0.00000000000E+00 0. -1.
         36    2    1    2    0    0  0.00000000000E+00  0.00000000000E+00  0.21131276636E+03  0.34749313148E+03  0.27585936852E+03 0.  0.
         25    2    3    3    0    0 -0.26535651044E+02  0.12691027600E+02  0.46191262861E+02  0.13864723408E+03  0.12737432942E+03 0.  0.
         25    2    3    3    0    0  0.26535651044E+02 -0.12691027600E+02  0.16512150350E+03  0.20884589740E+03  0.12444394315E+03 0.  0.
          5    1    4    4  502    0  0.12827855715E+02 -0.73943019359E+01 -0.39319899773E+02  0.42277347381E+02  0.47000000000E+01 0. -1.
         -5    1    4    4    0  502 -0.39363506759E+02  0.20085329536E+02  0.85511162635E+02  0.96369886697E+02  0.47000000000E+01 0. -1.
          5    1    5    5  503    0  0.14487053053E+02 -0.29689098325E+02 -0.80802534721E+01  0.34332168031E+02  0.47000000000E+01 0.  1.
         -5    1    5    5    0  503  0.12048597991E+02  0.16998070725E+02  0.17320175697E+03  0.17451372937E+03  0.47000000000E+01 0.  1.
<mgrwt>
<rscale>  0 0.27585937E+03</rscale>
<asrwt>0</asrwt>
<pdfrwt beam="1">  1        2 0.42985068E-01 0.27585937E+03</pdfrwt>
<pdfrwt beam="2">  1       -2 0.10475413E-01 0.27585937E+03</pdfrwt>
<totfact> 0.72228782E+03</totfact>
</mgrwt>
</event>
<event>
 9    1  0.2114844E-002  0.2747126E+03  0.7818608E-02  0.1098612E+00
          2   -1    0    0  501    0  0.00000000000E+00  0.00000000000E+00  0.10551938366E+04  0.10551938366E+04  0.00000000000E+00 0.  1.
         -2   -1    0    0    0  501 -0.00000000000E+00 -0.00000000000E+00 -0.17879892404E+02  0.17879892404E+02  0.00000000000E+00 0.  1.
         36    2    1    2    0    0 -0.35527136788E-14  0.00000000000E+00  0.10373139442E+04  0.10730737290E+04  0.27471259355E+03 0.  0.
         25    2    3    3    0    0 -0.15373427160E+02 -0.48196321708E+02  0.36853898434E+03  0.39084618031E+03  0.11991883085E+03 0.  0.
         25    2    3    3    0    0  0.15373427160E+02  0.48196321708E+02  0.66877495987E+03  0.68222754872E+03  0.12496100825E+03 0.  0.
          5    1    4    4  502    0 -0.40235861017E+02  0.19840464506E+02  0.67537816047E+02  0.81215855226E+02  0.47000000000E+01 0.  1.
         -5    1    4    4    0  502  0.24862433857E+02 -0.68036786215E+02  0.30100116830E+03  0.30963032509E+03  0.47000000000E+01 0.  1.
          5    1    5    5  503    0 -0.27753718056E+02 -0.70190553906E+00  0.50648708169E+03  0.50726917456E+03  0.47000000000E+01 0.  1.
         -5    1    5    5    0  503  0.43127145216E+02  0.48898227247E+02  0.16228787818E+03  0.17495837415E+03  0.47000000000E+01 0.  1.
<mgrwt>
<rscale>  0 0.27471259E+03</rscale>
<asrwt>0</asrwt>
<pdfrwt beam="1">  1        2 0.16233746E+00 0.27471259E+03</pdfrwt>
<pdfrwt beam="2">  1       -2 0.27507535E-02 0.27471259E+03</pdfrwt>
<totfact> 0.11687704E+04</totfact>
</mgrwt>
</event>
<event>
 9    1  0.2114844E-002  0.2798065E+03  0.7818608E-02  0.1095795E+00
          2   -1    0    0  501    0  0.00000000000E+00  0.00000000000E+00  0.11874706624E+04  0.11874706624E+04  0.00000000000E+00 0. -1.
         -2   -1    0    0    0  501 -0.00000000000E+00 -0.00000000000E+00 -0.16482870120E+02  0.16482870120E+02  0.00000000000E+00 0. -1.
         36    2    1    2    0    0 -0.35527136788E-14  0.71054273576E-14  0.11709877922E+04  0.12039535325E+04  0.27980653816E+03 0.  0.
         25    2    3    3    0    0  0.20955666032E+01  0.61782228957E+02  0.42074435342E+03  0.44088342144E+03  0.11632259088E+03 0.  0.
         25    2    3    3    0    0 -0.20955666032E+01 -0.61782228957E+02  0.75024343882E+03  0.76307011104E+03  0.12485728516E+03 0.  0.
          5    1    4    4  502    0 -0.18896150467E+02 -0.28730778640E+02  0.16830251462E+03  0.17184396577E+03  0.47000000000E+01 0.  1.
         -5    1    4    4    0  502  0.20991717070E+02  0.90513007597E+02  0.25244183880E+03  0.26903945567E+03  0.47000000000E+01 0.  1.
          5    1    5    5  503    0  0.45785431494E+02  0.11762215107E+02  0.18331154093E+03  0.18936701529E+03  0.47000000000E+01 0. -1.
         -5    1    5    5    0  503 -0.47880998097E+02 -0.73544444064E+02  0.56693189788E+03  0.57370309574E+03  0.47000000000E+01 0. -1.
<mgrwt>
<rscale>  0 0.27980654E+03</rscale>
<asrwt>0</asrwt>
<pdfrwt beam="1">  1        2 0.18268773E+00 0.27980654E+03</pdfrwt>
<pdfrwt beam="2">  1       -2 0.25358271E-02 0.27980654E+03</pdfrwt>
<totfact> 0.11044899E+04</totfact>
</mgrwt>
</event>
<event>
 9    1  0.2114844E-002  0.2744459E+03  0.7818608E-02  0.1098762E+00
         -1   -1    0    0    0  501 -0.00000000000E+00  0.00000000000E+00  0.40714527787E+02  0.40714527787E+02  0.00000000000E+00 0.  1.
          1   -1    0    0  501    0  0.00000000000E+00 -0.00000000000E+00 -0.46249193747E+03  0.46249193747E+03  0.00000000000E+00 0.  1.
         36    2    1    2    0    0  0.35527136788E-14  0.00000000000E+00 -0.42177740968E+03  0.50320646525E+03  0.27444592064E+03 0.  0.
         25    2    3    3    0    0  0.21813767103E+02  0.70791678267E+02 -0.18299035851E+03  0.23353906864E+03  0.12477068215E+03 0.  0.
         25    2    3    3    0    0 -0.21813767103E+02 -0.70791678267E+02 -0.23878705117E+03  0.26966739662E+03  0.10106407298E+03 0.  0.
          5    1    4    4  502    0  0.88103005957E+00  0.22902379446E+02  0.15608206036E+02  0.28124745224E+02  0.47000000000E+01 0. -1.
         -5    1    4    4    0  502  0.20932737043E+02  0.47889298821E+02 -0.19859856455E+03  0.20541432341E+03  0.47000000000E+01 0. -1.
          5    1    5    5  503    0 -0.58822748838E+02 -0.22479547590E+02 -0.13935417689E+03  0.15299386411E+03  0.47000000000E+01 0. -1.
         -5    1    5    5    0  503  0.37008981735E+02 -0.48312130677E+02 -0.99432874280E+02  0.11667353251E+03  0.47000000000E+01 0. -1.
<mgrwt>
<rscale>  0 0.27444592E+03</rscale>
<asrwt>0</asrwt>
<pdfrwt beam="1">  1        1 0.71152604E-01 0.27444592E+03</pdfrwt>
<pdfrwt beam="2">  1       -1 0.62637737E-02 0.27444592E+03</pdfrwt>
<totfact> 0.62379120E+03</totfact>
</mgrwt>
</event>
<event>
 9    1  0.2114844E-002  0.2757455E+03  0.7818608E-02  0.1098036E+00
          2   -1    0    0  501    0  0.00000000000E+00  0.00000000000E+00  0.27703315605E+03  0.27703315605E+03  0.00000000000E+00 0.  1.
         -2   -1    0    0    0  501 -0.00000000000E+00 -0.00000000000E+00 -0.68615960750E+02  0.68615960750E+02  0.00000000000E+00 0.  1.
         36    2    1    2    0    0  0.00000000000E+00  0.00000000000E+00  0.20841719530E+03  0.34564911680E+03  0.27574550703E+03 0.  0.
         25    2    3    3    0    0  0.35959238298E+02  0.42673528081E+02  0.92104763990E+02  0.16646806424E+03  0.12694184513E+03 0.  0.
         25    2    3    3    0    0 -0.35959238298E+02 -0.42673528081E+02  0.11631243131E+03  0.17918105256E+03  0.12435099960E+03 0.  0.
          5    1    4    4  502    0 -0.78171643506E+01  0.89968879120E+01  0.10803619062E+03  0.10879320077E+03  0.47000000000E+01 0. -1.
         -5    1    4    4    0  502  0.43776402648E+02  0.33676640169E+02 -0.15931426629E+02  0.57674863470E+02  0.47000000000E+01 0. -1.
          5    1    5    5  503    0  0.25731515081E+02 -0.58852601822E+01  0.10242115031E+03  0.10587223047E+03  0.47000000000E+01 0.  1.
         -5    1    5    5    0  503 -0.61690753378E+02 -0.36788267899E+02  0.13891281003E+02  0.73308822083E+02  0.47000000000E+01 0.  1.
<mgrwt>
<rscale>  0 0.27574551E+03</rscale>
<asrwt>0</asrwt>
<pdfrwt beam="1">  1        2 0.42620485E-01 0.27574551E+03</pdfrwt>
<pdfrwt beam="2">  1       -2 0.10556302E-01 0.27574551E+03</pdfrwt>
<totfact> 0.72003150E+03</totfact>
</mgrwt>
</event>
<event>
 9    1  0.2114844E-002  0.2746018E+03  0.7818608E-02  0.1098674E+00
          2   -1    0    0  501    0  0.00000000000E+00  0.00000000000E+00  0.71631767041E+03  0.71631767041E+03  0.00000000000E+00 0.  1.
         -2   -1    0    0    0  501 -0.00000000000E+00 -0.00000000000E+00 -0.26317288354E+02  0.26317288354E+02  0.00000000000E+00 0.  1.
         36    2    1    2    0    0  0.00000000000E+00  0.00000000000E+00  0.69000038206E+03  0.74263495877E+03  0.27460181125E+03 0.  0.
         25    2    3    3    0    0  0.56846311120E+02  0.21589724502E+02  0.30380093257E+03  0.33187281409E+03  0.11894090469E+03 0.  0.
         25    2    3    3    0    0 -0.56846311120E+02 -0.21589724502E+02  0.38619944949E+03  0.41076214468E+03  0.12600756097E+03 0.  0.
          5    1    4    4  502    0  0.16642246284E+02  0.39161835219E+00  0.27966097219E+03  0.28019540877E+03  0.47000000000E+01 0. -1.
         -5    1    4    4    0  502  0.40204064836E+02  0.21198106150E+02  0.24139960375E+02  0.51677405319E+02  0.47000000000E+01 0. -1.
          5    1    5    5  503    0 -0.35446330856E+02 -0.32363090260E+01  0.37977410560E+03  0.38146740011E+03  0.47000000000E+01 0.  1.
         -5    1    5    5    0  503 -0.21399980264E+02 -0.18353415476E+02  0.64253438914E+01  0.29294744564E+02  0.47000000000E+01 0.  1.
<mgrwt>
<rscale>  0 0.27460181E+03</rscale>
<asrwt>0</asrwt>
<pdfrwt beam="1">  1        2 0.11020270E+00 0.27460181E+03</pdfrwt>
<pdfrwt beam="2">  1       -2 0.40488141E-02 0.27460181E+03</pdfrwt>
<totfact> 0.10957689E+04</totfact>
</mgrwt>
</event>
<event>
 9    1  0.2114844E-002  0.2747501E+03  0.7818608E-02  0.1098591E+00
          1   -1    0    0  501    0  0.00000000000E+00  0.00000000000E+00  0.97421295804E+02  0.97421295804E+02  0.00000000000E+00 0. -1.
         -1   -1    0    0    0  501 -0.00000000000E+00 -0.00000000000E+00 -0.19371437520E+03  0.19371437520E+03  0.00000000000E+00 0. -1.
         36    2    1    2    0    0 -0.35527136788E-14  0.00000000000E+00 -0.96293079399E+02  0.29113567101E+03  0.27475010790E+03 0.  0.
         25    2    3    3    0    0 -0.68290235402E+01  0.48727452287E+01 -0.10937766386E+03  0.16671319278E+03  0.12553659262E+03 0.  0.
         25    2    3    3    0    0  0.68290235402E+01 -0.48727452287E+01  0.13084584458E+02  0.12442247823E+03  0.12344783323E+03 0.  0.
          5    1    4    4  502    0 -0.30271374693E+02 -0.16723213310E+02  0.15177378886E+02  0.38058702278E+02  0.47000000000E+01 0. -1.
         -5    1    4    4    0  502  0.23442351153E+02  0.21595958538E+02 -0.12455504274E+03  0.12865449050E+03  0.47000000000E+01 0. -1.
          5    1    5    5  503    0  0.29627353014E+02 -0.38795078008E+02 -0.35661570437E+02  0.60635597880E+02  0.47000000000E+01 0.  1.
         -5    1    5    5    0  503 -0.22798329474E+02  0.33922332779E+02  0.48746154895E+02  0.63786880352E+02  0.47000000000E+01 0.  1.
<mgrwt>
<rscale>  0 0.27475011E+03</rscale>
<asrwt>0</asrwt>
<pdfrwt beam="1">  1        1 0.14987892E-01 0.27475011E+03</pdfrwt>
<pdfrwt beam="2">  1       -1 0.29802211E-01 0.27475011E+03</pdfrwt>
<totfact> 0.38337830E+03</totfact>
</mgrwt>
</event>
<event>
 9    1  0.2114844E-002  0.2819005E+03  0.7818608E-02  0.1094655E+00
         -2   -1    0    0    0  501 -0.00000000000E+00  0.00000000000E+00  0.71390035882E+02  0.71390035882E+02  0.00000000000E+00 0.  1.
          2   -1    0    0  501    0  0.00000000000E+00 -0.00000000000E+00 -0.27828776731E+03  0.27828776731E+03  0.00000000000E+00 0.  1.
         36    2    1    2    0    0  0.71054273576E-14 -0.71054273576E-14 -0.20689773142E+03  0.34967780319E+03  0.28190050510E+03 0.  0.
         25    2    3    3    0    0  0.14092533073E+02 -0.40561615680E+02 -0.49727628776E+02  0.14475936108E+03  0.12899066400E+03 0.  0.
         25    2    3    3    0    0 -0.14092533073E+02  0.40561615680E+02 -0.15717010265E+03  0.20491844211E+03  0.12427905132E+03 0.  0.
          5    1    4    4  502    0  0.70573354936E+02 -0.16313644378E+02 -0.15405756754E+02  0.74203509088E+02  0.47000000000E+01 0.  1.
         -5    1    4    4    0  502 -0.56480821863E+02 -0.24247971302E+02 -0.34321872022E+02  0.70555851987E+02  0.47000000000E+01 0.  1.
          5    1    5    5  503    0 -0.21463899762E+02  0.75306352230E+02 -0.52774889315E+02  0.94546415170E+02  0.47000000000E+01 0.  1.
         -5    1    5    5    0  503  0.73713666890E+01 -0.34744736550E+02 -0.10439521333E+03  0.11037202694E+03  0.47000000000E+01 0.  1.
<mgrwt>
<rscale>  0 0.28190051E+03</rscale>
<asrwt>0</asrwt>
<pdfrwt beam="1">  1        2 0.42813503E-01 0.28190051E+03</pdfrwt>
<pdfrwt beam="2">  1       -2 0.10983082E-01 0.28190051E+03</pdfrwt>
<totfact> 0.67306340E+03</totfact>
</mgrwt>
</event>
<event>
 9    1  0.2114844E-002  0.2751034E+03  0.7818608E-02  0.1098394E+00
         -1   -1    0    0    0  501 -0.00000000000E+00  0.00000000000E+00  0.76947950385E+03  0.76947950385E+03  0.00000000000E+00 0. -1.
          1   -1    0    0  501    0  0.00000000000E+00 -0.00000000000E+00 -0.24588654731E+02  0.24588654731E+02  0.00000000000E+00 0. -1.
         36    2    1    2    0    0  0.14210854715E-13  0.35527136788E-14  0.74489084911E+03  0.79406815858E+03  0.27510336852E+03 0.  0.
         25    2    3    3    0    0  0.74567923123E+02  0.11701236829E+02  0.34690990580E+03  0.37008545610E+03  0.10449625818E+03 0.  0.
         25    2    3    3    0    0 -0.74567923123E+02 -0.11701236829E+02  0.39798094331E+03  0.42398270248E+03  0.12520066555E+03 0.  0.
          5    1    4    4  502    0 -0.10861937938E+02  0.37132694924E+02  0.12354790192E+03  0.12954919065E+03  0.47000000000E+01 0. -1.
         -5    1    4    4    0  502  0.85429861062E+02 -0.25431458095E+02  0.22336200388E+03  0.24053626546E+03  0.47000000000E+01 0. -1.
          5    1    5    5  503    0 -0.48086494821E+02 -0.77893546792E+01  0.39338629400E+03  0.39641878278E+03  0.47000000000E+01 0.  1.
         -5    1    5    5    0  503 -0.26481428302E+02 -0.39118821500E+01  0.45946493136E+01  0.27563919699E+02  0.47000000000E+01 0.  1.
<mgrwt>
<rscale>  0 0.27510337E+03</rscale>
<asrwt>0</asrwt>
<pdfrwt beam="1">  1        1 0.37828705E-02 0.27510337E+03</pdfrwt>
<pdfrwt beam="2">  1       -1 0.11838144E+00 0.27510337E+03</pdfrwt>
<totfact> 0.16788733E+03</totfact>
</mgrwt>
</event>
<event>
 9    1  0.2114844E-002  0.2844394E+03  0.7818608E-02  0.1093289E+00
         -2   -1    0    0    0  501 -0.00000000000E+00  0.00000000000E+00  0.13721522102E+03  0.13721522102E+03  0.00000000000E+00 0.  1.
          2   -1    0    0  501    0  0.00000000000E+00 -0.00000000000E+00 -0.14740671042E+03  0.14740671042E+03  0.00000000000E+00 0.  1.
         36    2    1    2    0    0  0.00000000000E+00  0.00000000000E+00 -0.10191489407E+02  0.28462193144E+03  0.28443940901E+03 0.  0.
         25    2    3    3    0    0 -0.36075145894E+02 -0.31062630563E+01 -0.54349443069E+02  0.14585441742E+03  0.13041696246E+03 0.  0.
         25    2    3    3    0    0  0.36075145894E+02  0.31062630563E+01  0.44157953663E+02  0.13876751402E+03  0.12647305268E+03 0.  0.
          5    1    4    4  502    0 -0.69525049609E+01 -0.53778162301E+02 -0.66541686729E+02  0.85966936309E+02  0.47000000000E+01 0. -1.
         -5    1    4    4    0  502 -0.29122640933E+02  0.50671899244E+02  0.12192243660E+02  0.59887481107E+02  0.47000000000E+01 0. -1.
          5    1    5    5  503    0  0.75705555265E+02  0.31958271172E+02  0.27627144708E+02  0.86821721470E+02  0.47000000000E+01 0. -1.
         -5    1    5    5    0  503 -0.39630409372E+02 -0.28852008115E+02  0.16530808954E+02  0.51945792553E+02  0.47000000000E+01 0. -1.
<mgrwt>
<rscale>  0 0.28443941E+03</rscale>
<asrwt>0</asrwt>
<pdfrwt beam="1">  1        2 0.22677955E-01 0.28443941E+03</pdfrwt>
<pdfrwt beam="2">  1       -2 0.21110034E-01 0.28443941E+03</pdfrwt>
<totfact> 0.45779077E+03</totfact>
</mgrwt>
</event>
<event>
 9    1  0.2114844E-002  0.2746812E+03  0.7818608E-02  0.1098630E+00
          2   -1    0    0  501    0  0.00000000000E+00  0.00000000000E+00  0.47479145044E+03  0.47479145044E+03  0.00000000000E+00 0. -1.
         -2   -1    0    0    0  501 -0.00000000000E+00 -0.00000000000E+00 -0.39727853137E+02  0.39727853137E+02  0.00000000000E+00 0. -1.
         36    2    1    2    0    0  0.00000000000E+00  0.00000000000E+00  0.43506359731E+03  0.51451930358E+03  0.27468123353E+03 0.  0.
         25    2    3    3    0    0 -0.36269787553E+02 -0.44569472804E+02  0.25866415961E+03  0.29320275383E+03  0.12553394757E+03 0.  0.
         25    2    3    3    0    0  0.36269787553E+02  0.44569472804E+02  0.17639943769E+03  0.22131654975E+03  0.12067443051E+03 0.  0.
          5    1    4    4  502    0 -0.11326520966E+02  0.20113849169E+02 -0.18033253624E+01  0.23626235162E+02  0.47000000000E+01 0. -1.
         -5    1    4    4    0  502 -0.24943266587E+02 -0.64683321973E+02  0.26046748498E+03  0.26957651867E+03  0.47000000000E+01 0. -1.
          5    1    5    5  503    0 -0.22590274742E+02 -0.23356292854E+02  0.92956616964E+02  0.98584276465E+02  0.47000000000E+01 0. -1.
         -5    1    5    5    0  503  0.58860062295E+02  0.67925765658E+02  0.83442820730E+02  0.12273227328E+03  0.47000000000E+01 0. -1.
<mgrwt>
<rscale>  0 0.27468123E+03</rscale>
<asrwt>0</asrwt>
<pdfrwt beam="1">  1        2 0.73044834E-01 0.27468123E+03</pdfrwt>
<pdfrwt beam="2">  1       -2 0.61119777E-02 0.27468123E+03</pdfrwt>
<totfact> 0.94346006E+03</totfact>
</mgrwt>
</event>
<event>
 9    1  0.2114844E-002  0.2753317E+03  0.7818608E-02  0.1098266E+00
          1   -1    0    0  501    0  0.00000000000E+00  0.00000000000E+00  0.22694318560E+04  0.22694318560E+04  0.00000000000E+00 0.  1.
         -1   -1    0    0    0  501 -0.00000000000E+00 -0.00000000000E+00 -0.83509408915E+01  0.83509408915E+01  0.00000000000E+00 0.  1.
         36    2    1    2    0    0  0.00000000000E+00  0.00000000000E+00  0.22610809151E+04  0.22777827969E+04  0.27533173654E+03 0.  0.
         25    2    3    3    0    0  0.18214204646E+02  0.59019786472E+02  0.11876585432E+04  0.11959097395E+04  0.12590550937E+03 0.  0.
         25    2    3    3    0    0 -0.18214204646E+02 -0.59019786472E+02  0.10734223719E+04  0.10818730574E+04  0.11999429738E+03 0.  0.
          5    1    4    4  502    0 -0.10260895434E+02  0.41499323742E+02  0.11593839890E+03  0.12365792407E+03  0.47000000000E+01 0. -1.
         -5    1    4    4    0  502  0.28475100080E+02  0.17520462730E+02  0.10717201443E+04  0.10722518154E+04  0.47000000000E+01 0. -1.
          5    1    5    5  503    0 -0.39231744143E+02 -0.42674496851E+02  0.20661429531E+03  0.21464342397E+03  0.47000000000E+01 0.  1.
         -5    1    5    5    0  503  0.21017539497E+02 -0.16345289621E+02  0.86680807660E+03  0.86722963344E+03  0.47000000000E+01 0.  1.
<mgrwt>
<rscale>  0 0.27533174E+03</rscale>
<asrwt>0</asrwt>
<pdfrwt beam="1">  1        1 0.34914287E+00 0.27533174E+03</pdfrwt>
<pdfrwt beam="2">  1       -1 0.12847619E-02 0.27533174E+03</pdfrwt>
<totfact> 0.29438846E+03</totfact>
</mgrwt>
</event>
<event>
 9    1  0.2114844E-002  0.2754958E+03  0.7818608E-02  0.1098175E+00
         -1   -1    0    0    0  501 -0.00000000000E+00  0.00000000000E+00  0.32876081446E+03  0.32876081446E+03  0.00000000000E+00 0.  1.
          1   -1    0    0  501    0  0.00000000000E+00 -0.00000000000E+00 -0.57715166824E+02  0.57715166824E+02  0.00000000000E+00 0.  1.
         36    2    1    2    0    0  0.00000000000E+00  0.53290705182E-14  0.27104564764E+03  0.38647598129E+03  0.27549580942E+03 0.  0.
         25    2    3    3    0    0  0.31922439966E+02  0.14299062952E+02  0.20292627598E+03  0.24001706647E+03  0.12331104306E+03 0.  0.
         25    2    3    3    0    0 -0.31922439966E+02 -0.14299062952E+02  0.68119371660E+02  0.14645891481E+03  0.12484574305E+03 0.  0.
          5    1    4    4  502    0  0.45406389299E+00 -0.22979364913E+02  0.18702639896E+03  0.18849196612E+03  0.47000000000E+01 0.  1.
         -5    1    4    4    0  502  0.31468376073E+02  0.37278427865E+02  0.15899877020E+02  0.51525100349E+02  0.47000000000E+01 0.  1.
          5    1    5    5  503    0  0.33479794140E+02 -0.17535038941E+02  0.71189292140E+02  0.80736481975E+02  0.47000000000E+01 0. -1.
         -5    1    5    5    0  503 -0.65402234105E+02  0.32359759891E+01 -0.30699204800E+01  0.65722432839E+02  0.47000000000E+01 0. -1.
<mgrwt>
<rscale>  0 0.27549581E+03</rscale>
<asrwt>0</asrwt>
<pdfrwt beam="1">  1        1 0.88792566E-02 0.27549581E+03</pdfrwt>
<pdfrwt beam="2">  1       -1 0.50578586E-01 0.27549581E+03</pdfrwt>
<totfact> 0.30211979E+03</totfact>
</mgrwt>
</event>
<event>
 9    1  0.2114844E-002  0.2738374E+03  0.7818608E-02  0.1099103E+00
         -2   -1    0    0    0  501 -0.00000000000E+00  0.00000000000E+00  0.16086205744E+03  0.16086205744E+03  0.00000000000E+00 0. -1.
          2   -1    0    0  501    0  0.00000000000E+00 -0.00000000000E+00 -0.11653916692E+03  0.11653916692E+03  0.00000000000E+00 0. -1.
         36    2    1    2    0    0  0.00000000000E+00  0.00000000000E+00  0.44322890521E+02  0.27740122436E+03  0.27383739820E+03 0.  0.
         25    2    3    3    0    0 -0.18108787631E+00  0.58957013173E+02  0.26545373825E+02  0.13927557326E+03  0.12335747338E+03 0.  0.
         25    2    3    3    0    0  0.18108787631E+00 -0.58957013173E+02  0.17777516696E+02  0.13812565111E+03  0.12363936751E+03 0.  0.
          5    1    4    4  502    0 -0.29791607295E+02 -0.22719789825E+02  0.35478519879E+02  0.51812586190E+02  0.47000000000E+01 0. -1.
         -5    1    4    4    0  502  0.29610519419E+02  0.81676802999E+02 -0.89331460537E+01  0.87462987068E+02  0.47000000000E+01 0. -1.
          5    1    5    5  503    0  0.18059539133E+02 -0.72318234755E+02 -0.33611799100E+02  0.81901874646E+02  0.47000000000E+01 0.  1.
         -5    1    5    5    0  503 -0.17878451257E+02  0.13361221581E+02  0.51389315796E+02  0.56223776461E+02  0.47000000000E+01 0.  1.
<mgrwt>
<rscale>  0 0.27383740E+03</rscale>
<asrwt>0</asrwt>
<pdfrwt beam="1">  1        2 0.17929103E-01 0.27383740E+03</pdfrwt>
<pdfrwt beam="2">  1       -2 0.24748009E-01 0.27383740E+03</pdfrwt>
<totfact> 0.45354554E+03</totfact>
</mgrwt>
</event>
<event>
 9    1  0.2114844E-002  0.2761229E+03  0.7818608E-02  0.1097826E+00
          3   -1    0    0  501    0  0.00000000000E+00  0.00000000000E+00  0.40305231687E+03  0.40305231687E+03  0.00000000000E+00 0. -1.
         -3   -1    0    0    0  501 -0.00000000000E+00 -0.00000000000E+00 -0.47291550733E+02  0.47291550733E+02  0.00000000000E+00 0. -1.
         36    2    1    2    0    0  0.71054273576E-14  0.35527136788E-14  0.35576076613E+03  0.45034386760E+03  0.27612293705E+03 0.  0.
         25    2    3    3    0    0  0.65361040212E+01  0.12809708745E+02  0.24546806220E+03  0.28246889835E+03  0.13902265886E+03 0.  0.
         25    2    3    3    0    0 -0.65361040212E+01 -0.12809708745E+02  0.11029270393E+03  0.16787496925E+03  0.12574066752E+03 0.  0.
          5    1    4    4  502    0  0.42774542871E+02  0.37006548838E+02  0.22854712692E+03  0.23548890716E+03  0.47000000000E+01 0.  1.
         -5    1    4    4    0  502 -0.36238438850E+02 -0.24196840093E+02  0.16920935288E+02  0.46979991186E+02  0.47000000000E+01 0.  1.
          5    1    5    5  503    0  0.57544044687E+02 -0.18517382271E+02  0.40933984481E+02  0.73156623832E+02  0.47000000000E+01 0.  1.
         -5    1    5    5    0  503 -0.64080148708E+02  0.57076735259E+01  0.69358719450E+02  0.94718345421E+02  0.47000000000E+01 0.  1.
<mgrwt>
<rscale>  0 0.27612294E+03</rscale>
<asrwt>0</asrwt>
<pdfrwt beam="1">  1        3 0.62008046E-01 0.27612294E+03</pdfrwt>
<pdfrwt beam="2">  1       -3 0.72756235E-02 0.27612294E+03</pdfrwt>
<totfact> 0.81467938E+02</totfact>
</mgrwt>
</event>
<event>
 9    1  0.2114844E-002  0.2752120E+03  0.7818608E-02  0.1098333E+00
         -1   -1    0    0    0  501 -0.00000000000E+00  0.00000000000E+00  0.51924422666E+02  0.51924422666E+02  0.00000000000E+00 0. -1.
          1   -1    0    0  501    0  0.00000000000E+00 -0.00000000000E+00 -0.36467252523E+03  0.36467252523E+03  0.00000000000E+00 0. -1.
         36    2    1    2    0    0  0.00000000000E+00 -0.71054273576E-14 -0.31274810256E+03  0.41659694790E+03  0.27521199345E+03 0.  0.
         25    2    3    3    0    0 -0.63204170237E+02  0.32836807920E+01 -0.12318248436E+03  0.18073126169E+03  0.11612198243E+03 0.  0.
         25    2    3    3    0    0  0.63204170237E+02 -0.32836807920E+01 -0.18956561820E+03  0.23586568620E+03  0.12526750828E+03 0.  0.
          5    1    4    4  502    0 -0.45429645699E+02 -0.54372295683E+02 -0.75862569997E+02  0.10391062878E+03  0.47000000000E+01 0.  1.
         -5    1    4    4    0  502 -0.17774524538E+02  0.57655976475E+02 -0.47319914368E+02  0.76820632916E+02  0.47000000000E+01 0.  1.
          5    1    5    5  503    0  0.14587328301E+02 -0.36323735524E+02 -0.16880704309E+03  0.17334968044E+03  0.47000000000E+01 0.  1.
         -5    1    5    5    0  503  0.48616841936E+02  0.33040054732E+02 -0.20758575103E+02  0.62516005765E+02  0.47000000000E+01 0.  1.
<mgrwt>
<rscale>  0 0.27521199E+03</rscale>
<asrwt>0</asrwt>
<pdfrwt beam="1">  1        1 0.56103468E-01 0.27521199E+03</pdfrwt>
<pdfrwt beam="2">  1       -1 0.79883723E-02 0.27521199E+03</pdfrwt>
<totfact> 0.58556670E+03</totfact>
</mgrwt>
</event>
<event>
 9    1  0.2114844E-002  0.2752957E+03  0.7818608E-02  0.1098286E+00
          3   -1    0    0  501    0  0.00000000000E+00  0.00000000000E+00  0.10406545342E+04  0.10406545342E+04  0.00000000000E+00 0. -1.
         -3   -1    0    0    0  501 -0.00000000000E+00 -0.00000000000E+00 -0.18206746178E+02  0.18206746178E+02  0.00000000000E+00 0. -1.
         36    2    1    2    0    0  0.35527136788E-14  0.00000000000E+00  0.10224477880E+04  0.10588612804E+04  0.27529571710E+03 0.  0.
         25    2    3    3    0    0  0.29545425508E+02  0.32234407003E+02  0.57916622879E+03  0.60031774476E+03  0.15177577192E+03 0.  0.
         25    2    3    3    0    0 -0.29545425508E+02 -0.32234407003E+02  0.44328155926E+03  0.45854353564E+03  0.10886525680E+03 0.  0.
          5    1    4    4  502    0  0.15735593466E+02 -0.58945144873E+02  0.16494800888E+03  0.17593201709E+03  0.47000000000E+01 0.  1.
         -5    1    4    4    0  502  0.13809832041E+02  0.91179551876E+02  0.41421821991E+03  0.42438572767E+03  0.47000000000E+01 0.  1.
          5    1    5    5  503    0  0.11800018690E+02  0.20858642127E+02  0.29059786015E+03  0.29162223803E+03  0.47000000000E+01 0.  1.
         -5    1    5    5    0  503 -0.41345444197E+02 -0.53093049130E+02  0.15268369911E+03  0.16692129761E+03  0.47000000000E+01 0.  1.
<mgrwt>
<rscale>  0 0.27529572E+03</rscale>
<asrwt>0</asrwt>
<pdfrwt beam="1">  1        3 0.16010065E+00 0.27529572E+03</pdfrwt>
<pdfrwt beam="2">  1       -3 0.28010387E-02 0.27529572E+03</pdfrwt>
<totfact> 0.41797238E+02</totfact>
</mgrwt>
</event>
<event>
 9    1  0.2114844E-002  0.2755108E+03  0.7818608E-02  0.1098166E+00
          2   -1    0    0  501    0  0.00000000000E+00  0.00000000000E+00  0.15207547735E+04  0.15207547735E+04  0.00000000000E+00 0.  1.
         -2   -1    0    0    0  501 -0.00000000000E+00 -0.00000000000E+00 -0.12478371886E+02  0.12478371886E+02  0.00000000000E+00 0.  1.
         36    2    1    2    0    0 -0.14210854715E-13  0.00000000000E+00  0.15082764016E+04  0.15332331454E+04  0.27551075196E+03 0.  0.
         25    2    3    3    0    0  0.44776752279E+02 -0.35268436389E+02  0.79436874704E+03  0.80594006890E+03  0.12356726200E+03 0.  0.
         25    2    3    3    0    0 -0.44776752279E+02  0.35268436389E+02  0.71390765460E+03  0.72729307651E+03  0.12665804235E+03 0.  0.
          5    1    4    4  502    0 -0.22011738836E+02  0.15739137707E+02  0.51932235839E+02  0.58747631626E+02  0.47000000000E+01 0. -1.
         -5    1    4    4    0  502  0.66788491115E+02 -0.51007574096E+02  0.74243651120E+03  0.74719243727E+03  0.47000000000E+01 0. -1.
          5    1    5    5  503    0 -0.31411520428E+02 -0.31565902127E+02  0.99662849264E+02  0.10926052954E+03  0.47000000000E+01 0.  1.
         -5    1    5    5    0  503 -0.13365231851E+02  0.66834338516E+02  0.61424480534E+03  0.61803254697E+03  0.47000000000E+01 0.  1.
<mgrwt>
<rscale>  0 0.27551075E+03</rscale>
<asrwt>0</asrwt>
<pdfrwt beam="1">  1        2 0.23396213E+00 0.27551075E+03</pdfrwt>
<pdfrwt beam="2">  1       -2 0.19197507E-02 0.27551075E+03</pdfrwt>
<totfact> 0.10920925E+04</totfact>
</mgrwt>
</event>
<event>
 9    1  0.2114844E-002  0.2762533E+03  0.7818608E-02  0.1097753E+00
          2   -1    0    0  501    0  0.00000000000E+00  0.00000000000E+00  0.92130302171E+02  0.92130302171E+02  0.00000000000E+00 0.  1.
         -2   -1    0    0    0  501 -0.00000000000E+00 -0.00000000000E+00 -0.20708684375E+03  0.20708684375E+03  0.00000000000E+00 0.  1.
         36    2    1    2    0    0  0.00000000000E+00 -0.71054273576E-14 -0.11495654158E+03  0.29921714592E+03  0.27625331484E+03 0.  0.
         25    2    3    3    0    0 -0.36411373140E+02  0.42254227499E+02 -0.64137647288E+02  0.15175105734E+03  0.12571212260E+03 0.  0.
         25    2    3    3    0    0  0.36411373140E+02 -0.42254227499E+02 -0.50818894291E+02  0.14746608859E+03  0.12669837975E+03 0.  0.
          5    1    4    4  502    0  0.80156396572E+01  0.70405712059E+02 -0.31587636156E+01  0.71086444258E+02  0.47000000000E+01 0. -1.
         -5    1    4    4    0  502 -0.44427012797E+02 -0.28151484560E+02 -0.60978883672E+02  0.80664613077E+02  0.47000000000E+01 0. -1.
          5    1    5    5  503    0  0.57983699302E+02 -0.38411436400E+02  0.20537419904E+02  0.72673402613E+02  0.47000000000E+01 0.  1.
         -5    1    5    5    0  503 -0.21572326162E+02 -0.38427910998E+01 -0.71356314196E+02  0.74792685973E+02  0.47000000000E+01 0.  1.
<mgrwt>
<rscale>  0 0.27625331E+03</rscale>
<asrwt>0</asrwt>
<pdfrwt beam="1">  1        2 0.14173893E-01 0.27625331E+03</pdfrwt>
<pdfrwt beam="2">  1       -2 0.31859514E-01 0.27625331E+03</pdfrwt>
<totfact> 0.37995281E+03</totfact>
</mgrwt>
</event>
<event>
 9    1  0.2114844E-002  0.2752146E+03  0.7818608E-02  0.1098332E+00
          2   -1    0    0  501    0  0.00000000000E+00  0.00000000000E+00  0.16644674822E+04  0.16644674822E+04  0.00000000000E+00 0.  1.
         -2   -1    0    0    0  501 -0.00000000000E+00 -0.00000000000E+00 -0.11376469054E+02  0.11376469054E+02  0.00000000000E+00 0.  1.
         36    2    1    2    0    0 -0.35527136788E-14  0.71054273576E-14  0.16530910132E+04  0.16758439513E+04  0.27521455487E+03 0.  0.
         25    2    3    3    0    0  0.20601313298E+02 -0.44781493930E+02  0.63517801943E+03  0.64900907605E+03  0.12382192096E+03 0.  0.
         25    2    3    3    0    0 -0.20601313298E+02  0.44781493930E+02  0.10179129938E+04  0.10268348753E+04  0.12575055414E+03 0.  0.
          5    1    4    4  502    0 -0.49995583069E+02 -0.32338106553E+02  0.34064068199E+03  0.34583735438E+03  0.47000000000E+01 0.  1.
         -5    1    4    4    0  502  0.70596896366E+02 -0.12443387377E+02  0.29453733745E+03  0.30317172166E+03  0.47000000000E+01 0.  1.
          5    1    5    5  503    0 -0.18035282737E+02  0.79195609276E+02  0.41401020059E+03  0.42192861024E+03  0.47000000000E+01 0. -1.
         -5    1    5    5    0  503 -0.25660305604E+01 -0.34414115346E+02  0.60390279317E+03  0.60490626501E+03  0.47000000000E+01 0. -1.
<mgrwt>
<rscale>  0 0.27521455E+03</rscale>
<asrwt>0</asrwt>
<pdfrwt beam="1">  1        2 0.25607173E+00 0.27521455E+03</pdfrwt>
<pdfrwt beam="2">  1       -2 0.17502273E-02 0.27521455E+03</pdfrwt>
<totfact> 0.10494766E+04</totfact>
</mgrwt>
</event>
<event>
 9    1  0.2114844E-002  0.2751106E+03  0.7818608E-02  0.1098390E+00
          1   -1    0    0  501    0  0.00000000000E+00  0.00000000000E+00  0.72240070330E+02  0.72240070330E+02  0.00000000000E+00 0.  1.
         -1   -1    0    0    0  501 -0.00000000000E+00 -0.00000000000E+00 -0.26192465502E+03  0.26192465502E+03  0.00000000000E+00 0.  1.
         36    2    1    2    0    0  0.00000000000E+00 -0.14210854715E-13 -0.18968458469E+03  0.33416472535E+03  0.27511056323E+03 0.  0.
         25    2    3    3    0    0 -0.47236566285E+02 -0.29640519308E+02 -0.12819046074E+03  0.18697109939E+03  0.12415935004E+03 0.  0.
         25    2    3    3    0    0  0.47236566285E+02  0.29640519308E+02 -0.61494123950E+02  0.14719362597E+03  0.12155074111E+03 0.  0.
          5    1    4    4  502    0 -0.54731234496E+01 -0.52456892269E+02 -0.12867884366E+03  0.13914745931E+03  0.47000000000E+01 0.  1.
         -5    1    4    4    0  502 -0.41763442836E+02  0.22816372962E+02  0.48838291393E+00  0.47823640080E+02  0.47000000000E+01 0.  1.
          5    1    5    5  503    0 -0.72584383214E+01 -0.40485198656E+02 -0.35507248079E+02  0.54539810261E+02  0.47000000000E+01 0.  1.
         -5    1    5    5    0  503  0.54495004607E+02  0.70125717964E+02 -0.25986875871E+02  0.92653815705E+02  0.47000000000E+01 0.  1.
<mgrwt>
<rscale>  0 0.27511056E+03</rscale>
<asrwt>0</asrwt>
<pdfrwt beam="1">  1        1 0.11113857E-01 0.27511056E+03</pdfrwt>
<pdfrwt beam="2">  1       -1 0.40296101E-01 0.27511056E+03</pdfrwt>
<totfact> 0.33740524E+03</totfact>
</mgrwt>
</event>
<event>
 9    1  0.2114844E-002  0.2744359E+03  0.7818608E-02  0.1098767E+00
         -2   -1    0    0    0  501 -0.00000000000E+00  0.00000000000E+00  0.40562524691E+02  0.40562524691E+02  0.00000000000E+00 0.  1.
          2   -1    0    0  501    0  0.00000000000E+00 -0.00000000000E+00 -0.46419108252E+03  0.46419108252E+03  0.00000000000E+00 0.  1.
         36    2    1    2    0    0 -0.35527136788E-14 -0.35527136788E-14 -0.42362855783E+03  0.50475360721E+03  0.27443587408E+03 0.  0.
         25    2    3    3    0    0 -0.72706887690E+01  0.22816430636E+02 -0.29958905661E+03  0.32515779419E+03  0.12409889548E+03 0.  0.
         25    2    3    3    0    0  0.72706887690E+01 -0.22816430636E+02 -0.12403950122E+03  0.17959581302E+03  0.12765345969E+03 0.  0.
          5    1    4    4  502    0 -0.38624430071E+02  0.62417600331E+02 -0.20547388733E+03  0.21824163627E+03  0.47000000000E+01 0.  1.
         -5    1    4    4    0  502  0.31353741302E+02 -0.39601169695E+02 -0.94115169281E+02  0.10691615792E+03  0.47000000000E+01 0.  1.
          5    1    5    5  503    0 -0.49148538109E+02  0.17213769720E+02 -0.23164143320E+02  0.57188811860E+02  0.47000000000E+01 0. -1.
         -5    1    5    5    0  503  0.56419226878E+02 -0.40030200356E+02 -0.10087535790E+03  0.12240700116E+03  0.47000000000E+01 0. -1.
<mgrwt>
<rscale>  0 0.27443587E+03</rscale>
<asrwt>0</asrwt>
<pdfrwt beam="1">  1        2 0.71414012E-01 0.27443587E+03</pdfrwt>
<pdfrwt beam="2">  1       -2 0.62403885E-02 0.27443587E+03</pdfrwt>
<totfact> 0.93689704E+03</totfact>
</mgrwt>
</event>
<event>
 9    1  0.2114844E-002  0.2751516E+03  0.7818608E-02  0.1098367E+00
         -2   -1    0    0    0  501 -0.00000000000E+00  0.00000000000E+00  0.83232818361E+01  0.83232818361E+01  0.00000000000E+00 0. -1.
          2   -1    0    0  501    0  0.00000000000E+00 -0.00000000000E+00 -0.22739953142E+04  0.22739953142E+04  0.00000000000E+00 0. -1.
         36    2    1    2    0    0  0.00000000000E+00  0.71054273576E-14 -0.22656720324E+04  0.22823185960E+04  0.27515162289E+03 0.  0.
         25    2    3    3    0    0  0.51563603839E+02  0.26180386603E+02 -0.10628789517E+04  0.10715441495E+04  0.12308931925E+03 0.  0.
         25    2    3    3    0    0 -0.51563603839E+02 -0.26180386603E+02 -0.12027930807E+04  0.12107744466E+04  0.12617189690E+03 0.  0.
          5    1    4    4  502    0  0.27298307214E+02 -0.40488702085E+02 -0.20772158538E+03  0.21343589109E+03  0.47000000000E+01 0.  1.
         -5    1    4    4    0  502  0.24265296625E+02  0.66669088688E+02 -0.85515736627E+03  0.85810825837E+03  0.47000000000E+01 0.  1.
          5    1    5    5  503    0 -0.63603291841E+02  0.35740788038E+02 -0.75582134148E+03  0.75934891380E+03  0.47000000000E+01 0. -1.
         -5    1    5    5    0  503  0.12039688002E+02 -0.61921174640E+02 -0.44697173924E+03  0.45142553277E+03  0.47000000000E+01 0. -1.
<mgrwt>
<rscale>  0 0.27515162E+03</rscale>
<asrwt>0</asrwt>
<pdfrwt beam="1">  1        2 0.34984591E+00 0.27515162E+03</pdfrwt>
<pdfrwt beam="2">  1       -2 0.12805031E-02 0.27515162E+03</pdfrwt>
<totfact> 0.79056163E+03</totfact>
</mgrwt>
</event>
<event>
 9    1  0.2114844E-002  0.2740047E+03  0.7818608E-02  0.1099009E+00
         -4   -1    0    0    0  501 -0.00000000000E+00  0.00000000000E+00  0.46017722019E+02  0.46017722019E+02  0.00000000000E+00 0. -1.
          4   -1    0    0  501    0  0.00000000000E+00 -0.00000000000E+00 -0.40787861417E+03  0.40787861417E+03  0.00000000000E+00 0. -1.
         36    2    1    2    0    0  0.71054273576E-14 -0.71054273576E-14 -0.36186089215E+03  0.45389633619E+03  0.27400470568E+03 0.  0.
         25    2    3    3    0    0  0.16963220350E+02  0.50121947465E+02 -0.19773975482E+03  0.24030085891E+03  0.12587109157E+03 0.  0.
         25    2    3    3    0    0 -0.16963220350E+02 -0.50121947465E+02 -0.16412113733E+03  0.21359547728E+03  0.12604491158E+03 0.  0.
          5    1    4    4  502    0  0.39175670539E+02  0.75973178679E+02 -0.78339641228E+02  0.11604243374E+03  0.47000000000E+01 0. -1.
         -5    1    4    4    0  502 -0.22212450188E+02 -0.25851231215E+02 -0.11940011360E+03  0.12425842517E+03  0.47000000000E+01 0. -1.
          5    1    5    5  503    0 -0.24042248161E+02  0.54220845310E+01 -0.15457752416E+03  0.15660054174E+03  0.47000000000E+01 0.  1.
         -5    1    5    5    0  503  0.70790278106E+01 -0.55544031996E+02 -0.95436131681E+01  0.56994935541E+02  0.47000000000E+01 0.  1.
<mgrwt>
<rscale>  0 0.27400471E+03</rscale>
<asrwt>0</asrwt>
<pdfrwt beam="1">  1        4 0.62750555E-01 0.27400471E+03</pdfrwt>
<pdfrwt beam="2">  1       -4 0.70796497E-02 0.27400471E+03</pdfrwt>
<totfact> 0.61105415E+02</totfact>
</mgrwt>
</event>
<event>
 9    1  0.2114844E-002  0.2752771E+03  0.7818608E-02  0.1098297E+00
          1   -1    0    0  501    0  0.00000000000E+00  0.00000000000E+00  0.21730447978E+02  0.21730447978E+02  0.00000000000E+00 0. -1.
         -1   -1    0    0    0  501 -0.00000000000E+00 -0.00000000000E+00 -0.87178908889E+03  0.87178908889E+03  0.00000000000E+00 0. -1.
         36    2    1    2    0    0  0.00000000000E+00  0.00000000000E+00 -0.85005864091E+03  0.89351953687E+03  0.27527707819E+03 0.  0.
         25    2    3    3    0    0  0.82023244374E+01  0.18973965996E+02 -0.46851902349E+03  0.48530243717E+03  0.12482423898E+03 0.  0.
         25    2    3    3    0    0 -0.82023244374E+01 -0.18973965996E+02 -0.38153961742E+03  0.40821709970E+03  0.14367126126E+03 0.  0.
          5    1    4    4  502    0 -0.18194471686E+02 -0.28314454992E+02 -0.36476708892E+02  0.49853660378E+02  0.47000000000E+01 0.  1.
         -5    1    4    4    0  502  0.26396796124E+02  0.47288420988E+02 -0.43204231460E+03  0.43544877679E+03  0.47000000000E+01 0.  1.
          5    1    5    5  503    0  0.62139000074E+02  0.14914484948E+02 -0.21263025049E+03  0.22207523638E+03  0.47000000000E+01 0. -1.
         -5    1    5    5    0  503 -0.70341324511E+02 -0.33888450944E+02 -0.16890936693E+03  0.18614186332E+03  0.47000000000E+01 0. -1.
<mgrwt>
<rscale>  0 0.27527708E+03</rscale>
<asrwt>0</asrwt>
<pdfrwt beam="1">  1        1 0.33431456E-02 0.27527708E+03</pdfrwt>
<pdfrwt beam="2">  1       -1 0.13412141E+00 0.27527708E+03</pdfrwt>
<totfact> 0.14734281E+03</totfact>
</mgrwt>
</event>
<event>
 9    1  0.2114844E-002  0.2746320E+03  0.7818608E-02  0.1098657E+00
         -1   -1    0    0    0  501 -0.00000000000E+00  0.00000000000E+00  0.46472321039E+02  0.46472321039E+02  0.00000000000E+00 0. -1.
          1   -1    0    0  501    0  0.00000000000E+00 -0.00000000000E+00 -0.40574013969E+03  0.40574013969E+03  0.00000000000E+00 0. -1.
         36    2    1    2    0    0  0.71054273576E-14  0.00000000000E+00 -0.35926781865E+03  0.45221246073E+03  0.27463201583E+03 0.  0.
         25    2    3    3    0    0 -0.18076075219E+02  0.34821897234E+02 -0.13102340706E+03  0.18781762973E+03  0.12872070470E+03 0.  0.
         25    2    3    3    0    0  0.18076075219E+02 -0.34821897234E+02 -0.22824441159E+03  0.26439483100E+03  0.12755315054E+03 0.  0.
          5    1    4    4  502    0  0.50589782681E+02  0.35297037033E+01 -0.85629955239E+02  0.99631140484E+02  0.47000000000E+01 0.  1.
         -5    1    4    4    0  502 -0.68665857900E+02  0.31292193531E+02 -0.45393451817E+02  0.88186489243E+02  0.47000000000E+01 0.  1.
          5    1    5    5  503    0  0.66758501333E+02 -0.16483039230E+02 -0.72094622507E+02  0.99740225972E+02  0.47000000000E+01 0.  1.
         -5    1    5    5    0  503 -0.48682426114E+02 -0.18338858004E+02 -0.15614978908E+03  0.16465460503E+03  0.47000000000E+01 0.  1.
<mgrwt>
<rscale>  0 0.27463202E+03</rscale>
<asrwt>0</asrwt>
<pdfrwt beam="1">  1        1 0.62421559E-01 0.27463202E+03</pdfrwt>
<pdfrwt beam="2">  1       -1 0.71495880E-02 0.27463202E+03</pdfrwt>
<totfact> 0.60494893E+03</totfact>
</mgrwt>
</event>
<event>
 8    1  0.2114844E-002  0.3137669E+03  0.7818608E-02  0.1078554E+00
          1   -1    0    0  501    0  0.00000000000E+00  0.00000000000E+00  0.57830588084E+02  0.57830588084E+02  0.00000000000E+00 0. -1.
         -1   -1    0    0    0  501 -0.00000000000E+00 -0.00000000000E+00 -0.42559519569E+03  0.42559519569E+03  0.00000000000E+00 0. -1.
         25    2    1    2    0    0  0.75264990095E+02 -0.49137001496E+02 -0.23342503932E+03  0.27910066011E+03  0.12381706603E+03 0.  0.
         25    2    1    2    0    0 -0.75264990095E+02  0.49137001496E+02 -0.13433956828E+03  0.20432512366E+03  0.12498949117E+03 0.  0.
          5    1    3    3  502    0  0.97823581209E+01  0.31129650257E+02 -0.12879888268E+02  0.35393942664E+02  0.47000000000E+01 0.  1.
         -5    1    3    3    0  502  0.65482631974E+02 -0.80266651754E+02 -0.22054515105E+03  0.24370671744E+03  0.47000000000E+01 0.  1.
          5    1    4    4  503    0 -0.80749821386E+02  0.84773435566E+02 -0.10875566548E+03  0.15986542404E+03  0.47000000000E+01 0. -1.
         -5    1    4    4    0  503  0.54848312914E+01 -0.35636434069E+02 -0.25583902807E+02  0.44459699620E+02  0.47000000000E+01 0. -1.
<mgrwt>
<rscale>  0 0.31376692E+03</rscale>
<asrwt>0</asrwt>
<pdfrwt beam="1">  1        1 0.88970136E-02 0.31376692E+03</pdfrwt>
<pdfrwt beam="2">  1       -1 0.65476184E-01 0.31376692E+03</pdfrwt>
<totfact> 0.18448846E+03</totfact>
</mgrwt>
</event>
<event>
 9    1  0.2114844E-002  0.2761238E+03  0.7818608E-02  0.1097825E+00
         -1   -1    0    0    0  501 -0.00000000000E+00  0.00000000000E+00  0.15705466110E+02  0.15705466110E+02  0.00000000000E+00 0.  1.
          1   -1    0    0  501    0  0.00000000000E+00 -0.00000000000E+00 -0.12136591768E+04  0.12136591768E+04  0.00000000000E+00 0.  1.
         36    2    1    2    0    0  0.00000000000E+00  0.00000000000E+00 -0.11979537107E+04  0.12293646430E+04  0.27612376262E+03 0.  0.
         25    2    3    3    0    0 -0.61089490075E+02  0.70656524731E+00 -0.62773422226E+03  0.64309565456E+03  0.12565564886E+03 0.  0.
         25    2    3    3    0    0  0.61089490075E+02 -0.70656524731E+00 -0.57021948847E+03  0.58626898839E+03  0.12177288976E+03 0.  0.
          5    1    4    4  502    0 -0.95088951346E+02  0.24057482905E+02 -0.44468962978E+03  0.45540270968E+03  0.47000000000E+01 0.  1.
         -5    1    4    4    0  502  0.33999461271E+02 -0.23350917658E+02 -0.18304459248E+03  0.18769294488E+03  0.47000000000E+01 0.  1.
          5    1    5    5  503    0  0.31292300822E+02  0.58604531428E+02 -0.22309807666E+03  0.23282727720E+03  0.47000000000E+01 0. -1.
         -5    1    5    5    0  503  0.29797189254E+02 -0.59311096675E+02 -0.34712141181E+03  0.35344171120E+03  0.47000000000E+01 0. -1.
<mgrwt>
<rscale>  0 0.27612376E+03</rscale>
<asrwt>0</asrwt>
<pdfrwt beam="1">  1        1 0.18671682E+00 0.27612376E+03</pdfrwt>
<pdfrwt beam="2">  1       -1 0.24162252E-02 0.27612376E+03</pdfrwt>
<totfact> 0.58161179E+03</totfact>
</mgrwt>
</event>
<event>
 9    1  0.2114844E-002  0.2758783E+03  0.7818608E-02  0.1097962E+00
          2   -1    0    0  501    0  0.00000000000E+00  0.00000000000E+00  0.20040450156E+03  0.20040450156E+03  0.00000000000E+00 0.  1.
         -2   -1    0    0    0  501 -0.00000000000E+00 -0.00000000000E+00 -0.94944025783E+02  0.94944025783E+02  0.00000000000E+00 0.  1.
         36    2    1    2    0    0  0.00000000000E+00  0.00000000000E+00  0.10546047577E+03  0.29534852734E+03  0.27587830769E+03 0.  0.
         25    2    3    3    0    0  0.66362773953E+01  0.37552017392E+02 -0.21564321070E+02  0.11291932342E+03  0.10407477826E+03 0.  0.
         25    2    3    3    0    0 -0.66362773953E+01 -0.37552017392E+02  0.12702479684E+03  0.18242920392E+03  0.12526340744E+03 0.  0.
          5    1    4    4  502    0 -0.33641854177E+02 -0.30604278956E+01 -0.40068391941E+02  0.52618500588E+02  0.47000000000E+01 0.  1.
         -5    1    4    4    0  502  0.40278131572E+02  0.40612445287E+02  0.18504070871E+02  0.60300822830E+02  0.47000000000E+01 0.  1.
          5    1    5    5  503    0 -0.63639706955E+02 -0.12333519038E+02  0.43931486470E+02  0.78448667908E+02  0.47000000000E+01 0. -1.
         -5    1    5    5    0  503  0.57003429559E+02 -0.25218498354E+02  0.83093310373E+02  0.10398053601E+03  0.47000000000E+01 0. -1.
<mgrwt>
<rscale>  0 0.27587831E+03</rscale>
<asrwt>0</asrwt>
<pdfrwt beam="1">  1        2 0.30831462E-01 0.27587831E+03</pdfrwt>
<pdfrwt beam="2">  1       -2 0.14606773E-01 0.27587831E+03</pdfrwt>
<totfact> 0.60426894E+03</totfact>
</mgrwt>
</event>
<event>
 9    1  0.2114844E-002  0.2759966E+03  0.7818608E-02  0.1097896E+00
         -2   -1    0    0    0  501 -0.00000000000E+00  0.00000000000E+00  0.17312021010E+02  0.17312021010E+02  0.00000000000E+00 0. -1.
          2   -1    0    0  501    0  0.00000000000E+00 -0.00000000000E+00 -0.11000176465E+04  0.11000176465E+04  0.00000000000E+00 0. -1.
         36    2    1    2    0    0  0.00000000000E+00  0.35527136788E-14 -0.10827056254E+04  0.11173296675E+04  0.27599658409E+03 0.  0.
         25    2    3    3    0    0 -0.52121069870E+02  0.25394449545E+02 -0.56184470507E+03  0.57844912484E+03  0.12478955651E+03 0.  0.
         25    2    3    3    0    0  0.52121069870E+02 -0.25394449545E+02 -0.52086092037E+03  0.53888054263E+03  0.12543786056E+03 0.  0.
          5    1    4    4  502    0  0.11867150418E+02  0.51759445577E+02 -0.12159039296E+03  0.13276363630E+03  0.47000000000E+01 0.  1.
         -5    1    4    4    0  502 -0.63988220288E+02 -0.26364996033E+02 -0.44025431212E+03  0.44568548853E+03  0.47000000000E+01 0.  1.
          5    1    5    5  503    0  0.18010095799E+02  0.51036942774E+02 -0.21067881995E+03  0.21757019156E+03  0.47000000000E+01 0.  1.
         -5    1    5    5    0  503  0.34110974070E+02 -0.76431392319E+02 -0.31018210042E+03  0.32131035107E+03  0.47000000000E+01 0.  1.
<mgrwt>
<rscale>  0 0.27599658E+03</rscale>
<asrwt>0</asrwt>
<pdfrwt beam="1">  1        2 0.16923342E+00 0.27599658E+03</pdfrwt>
<pdfrwt beam="2">  1       -2 0.26633888E-02 0.27599658E+03</pdfrwt>
<totfact> 0.11535158E+04</totfact>
</mgrwt>
</event>
<event>
 9    1  0.2114844E-002  0.2746009E+03  0.7818608E-02  0.1098675E+00
          2   -1    0    0  501    0  0.00000000000E+00  0.00000000000E+00  0.69771027400E+03  0.69771027400E+03  0.00000000000E+00 0.  1.
         -2   -1    0    0    0  501 -0.00000000000E+00 -0.00000000000E+00 -0.27018973971E+02  0.27018973971E+02  0.00000000000E+00 0.  1.
         36    2    1    2    0    0  0.00000000000E+00  0.71054273576E-14  0.67069130003E+03  0.72472924797E+03  0.27460091575E+03 0.  0.
         25    2    3    3    0    0 -0.81203818537E+01  0.52824523715E+02  0.37406715217E+03  0.39842195350E+03  0.12632279203E+03 0.  0.
         25    2    3    3    0    0  0.81203818537E+01 -0.52824523715E+02  0.29662414786E+03  0.32630729447E+03  0.12503677230E+03 0.  0.
          5    1    4    4  502    0 -0.36514190489E+02 -0.31183499658E+02  0.13957823042E+03  0.14768164804E+03  0.47000000000E+01 0. -1.
         -5    1    4    4    0  502  0.28393808635E+02  0.84008023373E+02  0.23448892175E+03  0.25074030546E+03  0.47000000000E+01 0. -1.
          5    1    5    5  503    0 -0.52438822335E+02 -0.36106411593E+01  0.16482549178E+03  0.17306761557E+03  0.47000000000E+01 0.  1.
         -5    1    5    5    0  503  0.60559204188E+02 -0.49213882556E+02  0.13179865608E+03  0.15323967891E+03  0.47000000000E+01 0.  1.
<mgrwt>
<rscale>  0 0.27460092E+03</rscale>
<asrwt>0</asrwt>
<pdfrwt beam="1">  1        2 0.10734003E+00 0.27460092E+03</pdfrwt>
<pdfrwt beam="2">  1       -2 0.41567658E-02 0.27460092E+03</pdfrwt>
<totfact> 0.10874950E+04</totfact>
</mgrwt>
</event>
<event>
 9    1  0.2114844E-002  0.2710625E+03  0.7818608E-02  0.1100673E+00
          2   -1    0    0  501    0  0.00000000000E+00  0.00000000000E+00  0.36097240163E+03  0.36097240163E+03  0.00000000000E+00 0.  1.
         -2   -1    0    0    0  501 -0.00000000000E+00 -0.00000000000E+00 -0.50886760225E+02  0.50886760225E+02  0.00000000000E+00 0.  1.
         36    2    1    2    0    0 -0.71054273576E-14  0.35527136788E-14  0.31008564140E+03  0.41185916185E+03  0.27106247287E+03 0.  0.
         25    2    3    3    0    0 -0.42130349581E+02  0.28775787365E+01  0.29929082253E+03  0.32735941618E+03  0.12572169303E+03 0.  0.
         25    2    3    3    0    0  0.42130349581E+02 -0.28775787365E+01  0.10794818876E+02  0.84499745671E+02  0.72390828761E+02 0.  0.
          5    1    4    4  502    0 -0.60143908237E+02 -0.42715952161E+02  0.23513984265E+03  0.24648484308E+03  0.47000000000E+01 0.  1.
         -5    1    4    4    0  502  0.18013558657E+02  0.45593530897E+02  0.64150979881E+02  0.80874573105E+02  0.47000000000E+01 0.  1.
          5    1    5    5  503    0 -0.18416906313E+02  0.96871447062E+01  0.66499432916E+01  0.22345804002E+02  0.47000000000E+01 0.  1.
         -5    1    5    5    0  503  0.60547255893E+02 -0.12564723443E+02  0.41448755844E+01  0.62153941669E+02  0.47000000000E+01 0.  1.
<mgrwt>
<rscale>  0 0.27106247E+03</rscale>
<asrwt>0</asrwt>
<pdfrwt beam="1">  1        2 0.55534214E-01 0.27106247E+03</pdfrwt>
<pdfrwt beam="2">  1       -2 0.78287326E-02 0.27106247E+03</pdfrwt>
<totfact> 0.86714070E+03</totfact>
</mgrwt>
</event>
<event>
 9    1  0.2114844E-002  0.2749997E+03  0.7818608E-02  0.1098452E+00
          2   -1    0    0  501    0  0.00000000000E+00  0.00000000000E+00  0.17249874904E+04  0.17249874904E+04  0.00000000000E+00 0.  1.
         -2   -1    0    0    0  501 -0.00000000000E+00 -0.00000000000E+00 -0.10960199610E+02  0.10960199610E+02  0.00000000000E+00 0.  1.
         36    2    1    2    0    0  0.00000000000E+00  0.00000000000E+00  0.17140272908E+04  0.17359476900E+04  0.27499968887E+03 0.  0.
         25    2    3    3    0    0  0.35337299883E+02  0.30345844582E+02  0.66022915336E+03  0.67351142122E+03  0.12468161261E+03 0.  0.
         25    2    3    3    0    0 -0.35337299883E+02 -0.30345844582E+02  0.10537981374E+04  0.10624362688E+04  0.12692799431E+03 0.  0.
          5    1    4    4  502    0  0.31840984603E+02  0.71691867729E+02  0.55093228573E+03  0.55650880107E+03  0.47000000000E+01 0. -1.
         -5    1    4    4    0  502  0.34963152798E+01 -0.41346023147E+02  0.10929686763E+03  0.11700262016E+03  0.47000000000E+01 0. -1.
          5    1    5    5  503    0 -0.21301619886E+02 -0.48264764858E+02  0.10202495606E+04  0.10216234642E+04  0.47000000000E+01 0. -1.
         -5    1    5    5    0  503 -0.14035679997E+02  0.17918920276E+02  0.33548576780E+02  0.40812804618E+02  0.47000000000E+01 0. -1.
<mgrwt>
<rscale>  0 0.27499969E+03</rscale>
<asrwt>0</asrwt>
<pdfrwt beam="1">  1        2 0.26538247E+00 0.27499969E+03</pdfrwt>
<pdfrwt beam="2">  1       -2 0.16861859E-02 0.27499969E+03</pdfrwt>
<totfact> 0.10299711E+04</totfact>
</mgrwt>
</event>
<event>
 9    1  0.2114844E-002  0.2744599E+03  0.7818608E-02  0.1098754E+00
         -1   -1    0    0    0  501 -0.00000000000E+00  0.00000000000E+00  0.12175661018E+04  0.12175661018E+04  0.00000000000E+00 0. -1.
          1   -1    0    0  501    0  0.00000000000E+00 -0.00000000000E+00 -0.15466967520E+02  0.15466967520E+02  0.00000000000E+00 0. -1.
         36    2    1    2    0    0  0.00000000000E+00 -0.71054273576E-14  0.12020991343E+04  0.12330330694E+04  0.27445987212E+03 0.  0.
         25    2    3    3    0    0 -0.28771040374E+02  0.18956235204E+02  0.75187661771E+03  0.76269929680E+03  0.12330716711E+03 0.  0.
         25    2    3    3    0    0  0.28771040374E+02 -0.18956235204E+02  0.45022251661E+03  0.47033377256E+03  0.13162990364E+03 0.  0.
          5    1    4    4  502    0 -0.26217495016E+02 -0.47421332986E+02  0.46629307509E+03  0.46945442989E+03  0.47000000000E+01 0.  1.
         -5    1    4    4    0  502 -0.25535453584E+01  0.66377568190E+02  0.28558354262E+03  0.29324486691E+03  0.47000000000E+01 0.  1.
          5    1    5    5  503    0  0.78398292168E+02 -0.24588340424E+02  0.22464725047E+03  0.23924747823E+03  0.47000000000E+01 0. -1.
         -5    1    5    5    0  503 -0.49627251794E+02  0.56321052207E+01  0.22557526614E+03  0.23108629433E+03  0.47000000000E+01 0. -1.
<mgrwt>
<rscale>  0 0.27445987E+03</rscale>
<asrwt>0</asrwt>
<pdfrwt beam="1">  1        1 0.23795344E-02 0.27445987E+03</pdfrwt>
<pdfrwt beam="2">  1       -1 0.18731779E+00 0.27445987E+03</pdfrwt>
<totfact> 0.96233718E+02</totfact>
</mgrwt>
</event>
<event>
 9    1  0.2114844E-002  0.2703891E+03  0.7818608E-02  0.1101057E+00
          1   -1    0    0  501    0  0.00000000000E+00  0.00000000000E+00  0.70780946350E+03  0.70780946350E+03  0.00000000000E+00 0. -1.
         -1   -1    0    0    0  501 -0.00000000000E+00 -0.00000000000E+00 -0.25822719633E+02  0.25822719633E+02  0.00000000000E+00 0. -1.
         36    2    1    2    0    0  0.00000000000E+00  0.00000000000E+00  0.68198674387E+03  0.73363218313E+03  0.27038909245E+03 0.  0.
         25    2    3    3    0    0 -0.67738025371E+01  0.46783078630E+02  0.25710046648E+03  0.28682169832E+03  0.11803175809E+03 0.  0.
         25    2    3    3    0    0  0.67738025371E+01 -0.46783078630E+02  0.42488627738E+03  0.44681048481E+03  0.12991042983E+03 0.  0.
          5    1    4    4  502    0 -0.77938746605E+01  0.27959939211E+02  0.26442809049E+03  0.26605790295E+03  0.47000000000E+01 0. -1.
         -5    1    4    4    0  502  0.10200721235E+01  0.18823139419E+02 -0.73276240065E+01  0.20763795373E+02  0.47000000000E+01 0. -1.
          5    1    5    5  503    0  0.35762695666E+02  0.31660944689E+02  0.22539291374E+03  0.23044617893E+03  0.47000000000E+01 0.  1.
         -5    1    5    5    0  503 -0.28988893129E+02 -0.78444023319E+02  0.19949336364E+03  0.21636430588E+03  0.47000000000E+01 0.  1.
<mgrwt>
<rscale>  0 0.27038909E+03</rscale>
<asrwt>0</asrwt>
<pdfrwt beam="1">  1        1 0.10889375E+00 0.27038909E+03</pdfrwt>
<pdfrwt beam="2">  1       -1 0.39727266E-02 0.27038909E+03</pdfrwt>
<totfact> 0.68668929E+03</totfact>
</mgrwt>
</event>
<event>
 9    1  0.2114844E-002  0.2746691E+03  0.7818608E-02  0.1098637E+00
         -1   -1    0    0    0  501 -0.00000000000E+00  0.00000000000E+00  0.11996272509E+03  0.11996272509E+03  0.00000000000E+00 0. -1.
          1   -1    0    0  501    0  0.00000000000E+00 -0.00000000000E+00 -0.15722199462E+03  0.15722199462E+03  0.00000000000E+00 0. -1.
         36    2    1    2    0    0 -0.71054273576E-14 -0.14210854715E-13 -0.37259269536E+02  0.27718471971E+03  0.27466910215E+03 0.  0.
         25    2    3    3    0    0  0.43379812038E+02  0.48463188662E+02 -0.51775148138E+01  0.13419528397E+03  0.11726499406E+03 0.  0.
         25    2    3    3    0    0 -0.43379812038E+02 -0.48463188662E+02 -0.32081754723E+02  0.14298943574E+03  0.12323250788E+03 0.  0.
          5    1    4    4  502    0  0.37264947227E+02 -0.92200476072E+01 -0.48217932766E+02  0.61812172021E+02  0.47000000000E+01 0.  1.
         -5    1    4    4    0  502  0.61148648101E+01  0.57683236270E+02  0.43040417952E+02  0.72383111951E+02  0.47000000000E+01 0.  1.
          5    1    5    5  503    0 -0.53059514382E+02  0.23006081085E+02  0.10700508629E+02  0.59001548439E+02  0.47000000000E+01 0. -1.
         -5    1    5    5    0  503  0.96797023444E+01 -0.71469269747E+02 -0.42782263351E+02  0.83987887300E+02  0.47000000000E+01 0. -1.
<mgrwt>
<rscale>  0 0.27466910E+03</rscale>
<asrwt>0</asrwt>
<pdfrwt beam="1">  1        1 0.24187999E-01 0.27466910E+03</pdfrwt>
<pdfrwt beam="2">  1       -1 0.18455804E-01 0.27466910E+03</pdfrwt>
<totfact> 0.45602201E+03</totfact>
</mgrwt>
</event>
<event>
 9    1  0.2114844E-002  0.2725400E+03  0.7818608E-02  0.1099835E+00
         -1   -1    0    0    0  501 -0.00000000000E+00  0.00000000000E+00  0.80564769159E+02  0.80564769159E+02  0.00000000000E+00 0. -1.
          1   -1    0    0  501    0  0.00000000000E+00 -0.00000000000E+00 -0.23049178196E+03  0.23049178196E+03  0.00000000000E+00 0. -1.
         36    2    1    2    0    0  0.71054273576E-14  0.00000000000E+00 -0.14992701281E+03  0.31105655112E+03  0.27254003161E+03 0.  0.
         25    2    3    3    0    0 -0.24707374970E+02  0.39434833344E+01 -0.64752578527E+02  0.14449565851E+03  0.12672842405E+03 0.  0.
         25    2    3    3    0    0  0.24707374970E+02 -0.39434833344E+01 -0.85174434278E+02  0.16656089262E+03  0.14093204481E+03 0.  0.
          5    1    4    4  502    0 -0.19518833690E+02  0.59738908755E+02 -0.62209652669E+01  0.63328607254E+02  0.47000000000E+01 0. -1.
         -5    1    4    4    0  502 -0.51885412792E+01 -0.55795425421E+02 -0.58531613260E+02  0.81167051254E+02  0.47000000000E+01 0. -1.
          5    1    5    5  503    0 -0.32647737173E+02 -0.88220052173E+01 -0.10105193848E+03  0.10666436513E+03  0.47000000000E+01 0.  1.
         -5    1    5    5    0  503  0.57355112143E+02  0.48785218829E+01  0.15877504203E+02  0.59896527482E+02  0.47000000000E+01 0.  1.
<mgrwt>
<rscale>  0 0.27254003E+03</rscale>
<asrwt>0</asrwt>
<pdfrwt beam="1">  1        1 0.35460274E-01 0.27254003E+03</pdfrwt>
<pdfrwt beam="2">  1       -1 0.12394580E-01 0.27254003E+03</pdfrwt>
<totfact> 0.52904037E+03</totfact>
</mgrwt>
</event>
<event>
 9    1  0.2114844E-002  0.2752011E+03  0.7818608E-02  0.1098339E+00
         -2   -1    0    0    0  501 -0.00000000000E+00  0.00000000000E+00  0.44936371213E+02  0.44936371213E+02  0.00000000000E+00 0. -1.
          2   -1    0    0  501    0  0.00000000000E+00 -0.00000000000E+00 -0.42134947062E+03  0.42134947062E+03  0.00000000000E+00 0. -1.
         36    2    1    2    0    0 -0.71054273576E-14  0.00000000000E+00 -0.37641309941E+03  0.46628584183E+03  0.27520113533E+03 0.  0.
         25    2    3    3    0    0 -0.34183339964E+02  0.13271535722E+01 -0.14821535685E+03  0.20437137517E+03  0.13649031070E+03 0.  0.
         25    2    3    3    0    0  0.34183339964E+02 -0.13271535722E+01 -0.22819774255E+03  0.26191446666E+03  0.12391414799E+03 0.  0.
          5    1    4    4  502    0  0.12081313907E+02  0.50858193653E+02 -0.14603362429E+02  0.54478089188E+02  0.47000000000E+01 0.  1.
         -5    1    4    4    0  502 -0.46264653871E+02 -0.49531040081E+02 -0.13361199442E+03  0.14989328599E+03  0.47000000000E+01 0.  1.
          5    1    5    5  503    0  0.49999610538E+02 -0.22201947807E+02 -0.31252454995E+02  0.63179850297E+02  0.47000000000E+01 0.  1.
         -5    1    5    5    0  503 -0.15816270575E+02  0.20874794235E+02 -0.19694528756E+03  0.19873461636E+03  0.47000000000E+01 0.  1.
<mgrwt>
<rscale>  0 0.27520114E+03</rscale>
<asrwt>0</asrwt>
<pdfrwt beam="1">  1        2 0.64822995E-01 0.27520114E+03</pdfrwt>
<pdfrwt beam="2">  1       -2 0.69132879E-02 0.27520114E+03</pdfrwt>
<totfact> 0.88990989E+03</totfact>
</mgrwt>
</event>
<event>
 9    1  0.2114844E-002  0.2751827E+03  0.7818608E-02  0.1098350E+00
         -1   -1    0    0    0  501 -0.00000000000E+00  0.00000000000E+00  0.13179221966E+03  0.13179221966E+03  0.00000000000E+00 0.  1.
          1   -1    0    0  501    0  0.00000000000E+00 -0.00000000000E+00 -0.14364567737E+03  0.14364567737E+03  0.00000000000E+00 0.  1.
         36    2    1    2    0    0 -0.71054273576E-14 -0.71054273576E-14 -0.11853457712E+02  0.27543789703E+03  0.27518272232E+03 0.  0.
         25    2    3    3    0    0  0.29816652905E+02  0.39373217668E+02 -0.38610551970E+02  0.14007006888E+03  0.12525799940E+03 0.  0.
         25    2    3    3    0    0 -0.29816652905E+02 -0.39373217668E+02  0.26757094258E+02  0.13536782815E+03  0.12316340262E+03 0.  0.
          5    1    4    4  502    0  0.16953748774E+02  0.76272002235E+02 -0.56800186881E+02  0.96711939037E+02  0.47000000000E+01 0. -1.
         -5    1    4    4    0  502  0.12862904131E+02 -0.36898784567E+02  0.18189634912E+02  0.43358129843E+02  0.47000000000E+01 0. -1.
          5    1    5    5  503    0 -0.33575598585E+01  0.26207073348E+02 -0.33091739321E+02  0.42605599550E+02  0.47000000000E+01 0. -1.
         -5    1    5    5    0  503 -0.26459093046E+02 -0.65580291016E+02  0.59848833579E+02  0.92762228603E+02  0.47000000000E+01 0. -1.
<mgrwt>
<rscale>  0 0.27518272E+03</rscale>
<asrwt>0</asrwt>
<pdfrwt beam="1">  1        1 0.22099335E-01 0.27518272E+03</pdfrwt>
<pdfrwt beam="2">  1       -1 0.20275726E-01 0.27518272E+03</pdfrwt>
<totfact> 0.43947863E+03</totfact>
</mgrwt>
</event>
<event>
 9    1  0.2114844E-002  0.2757791E+03  0.7818608E-02  0.1098017E+00
          1   -1    0    0  501    0  0.00000000000E+00  0.00000000000E+00  0.27109196382E+02  0.27109196382E+02  0.00000000000E+00 0. -1.
         -1   -1    0    0    0  501 -0.00000000000E+00 -0.00000000000E+00 -0.70136807809E+03  0.70136807809E+03  0.00000000000E+00 0. -1.
         36    2    1    2    0    0 -0.71054273576E-14 -0.71054273576E-14 -0.67425888170E+03  0.72847727447E+03  0.27577907799E+03 0.  0.
         25    2    3    3    0    0 -0.30018950575E+02 -0.47881881945E+01 -0.17822400705E+03  0.22090637743E+03  0.12693213447E+03 0.  0.
         25    2    3    3    0    0  0.30018950575E+02  0.47881881945E+01 -0.49603487466E+03  0.50757089704E+03  0.10321605739E+03 0.  0.
          5    1    4    4  502    0 -0.38695104415E+02 -0.52102185835E+02 -0.44806302722E+02  0.79004073554E+02  0.47000000000E+01 0.  1.
         -5    1    4    4    0  502  0.86761538398E+01  0.47313997641E+02 -0.13341770433E+03  0.14190230388E+03  0.47000000000E+01 0.  1.
          5    1    5    5  503    0 -0.27586403262E+02  0.18570306300E+02 -0.72653360164E+02  0.80040406447E+02  0.47000000000E+01 0.  1.
         -5    1    5    5    0  503  0.57605353837E+02 -0.13782118106E+02 -0.42338151449E+03  0.42753049059E+03  0.47000000000E+01 0.  1.
<mgrwt>
<rscale>  0 0.27577908E+03</rscale>
<asrwt>0</asrwt>
<pdfrwt beam="1">  1        1 0.41706459E-02 0.27577908E+03</pdfrwt>
<pdfrwt beam="2">  1       -1 0.10790277E+00 0.27577908E+03</pdfrwt>
<totfact> 0.18174667E+03</totfact>
</mgrwt>
</event>
<event>
 9    1  0.2114844E-002  0.2762968E+03  0.7818608E-02  0.1097729E+00
         -2   -1    0    0    0  501 -0.00000000000E+00  0.00000000000E+00  0.40632283934E+02  0.40632283934E+02  0.00000000000E+00 0.  1.
          2   -1    0    0  501    0  0.00000000000E+00 -0.00000000000E+00 -0.46969981802E+03  0.46969981802E+03  0.00000000000E+00 0.  1.
         36    2    1    2    0    0  0.71054273576E-14  0.71054273576E-14 -0.42906753409E+03  0.51033210196E+03  0.27629677066E+03 0.  0.
         25    2    3    3    0    0 -0.52836315936E+02 -0.65879720002E+01 -0.22094124311E+03  0.26066806416E+03  0.12766255954E+03 0.  0.
         25    2    3    3    0    0  0.52836315936E+02  0.65879720002E+01 -0.20812629098E+03  0.24966403780E+03  0.12720259871E+03 0.  0.
          5    1    4    4  502    0 -0.86741828299E+01  0.57365804834E+02 -0.71846656268E+02  0.92466799603E+02  0.47000000000E+01 0.  1.
         -5    1    4    4    0  502 -0.44162133106E+02 -0.63953776834E+02 -0.14909458684E+03  0.16820126456E+03  0.47000000000E+01 0.  1.
          5    1    5    5  503    0  0.30490874576E+02 -0.31873221718E+02 -0.19916661711E+03  0.20404662963E+03  0.47000000000E+01 0. -1.
         -5    1    5    5    0  503  0.22345441359E+02  0.38461193718E+02 -0.89596738687E+01  0.45617408164E+02  0.47000000000E+01 0. -1.
<mgrwt>
<rscale>  0 0.27629677E+03</rscale>
<asrwt>0</asrwt>
<pdfrwt beam="1">  1        2 0.72261511E-01 0.27629677E+03</pdfrwt>
<pdfrwt beam="2">  1       -2 0.62511205E-02 0.27629677E+03</pdfrwt>
<totfact> 0.92254222E+03</totfact>
</mgrwt>
</event>
<event>
 9    1  0.2114844E-002  0.2731933E+03  0.7818608E-02  0.1099466E+00
          1   -1    0    0  501    0  0.00000000000E+00  0.00000000000E+00  0.18418498281E+03  0.18418498281E+03  0.00000000000E+00 0. -1.
         -1   -1    0    0    0  501 -0.00000000000E+00 -0.00000000000E+00 -0.10130385562E+03  0.10130385562E+03  0.00000000000E+00 0. -1.
         36    2    1    2    0    0  0.71054273576E-14  0.00000000000E+00  0.82881127193E+02  0.28548883843E+03  0.27319333013E+03 0.  0.
         25    2    3    3    0    0 -0.52559083076E+02  0.14254439115E+02  0.52483785945E+02  0.13858223964E+03  0.11612425719E+03 0.  0.
         25    2    3    3    0    0  0.52559083076E+02 -0.14254439115E+02  0.30397341247E+02  0.14690659879E+03  0.13301091747E+03 0.  0.
          5    1    4    4  502    0 -0.83284345247E+02  0.34981592639E+02  0.42316539237E+02  0.99863774612E+02  0.47000000000E+01 0. -1.
         -5    1    4    4    0  502  0.30725262171E+02 -0.20727153524E+02  0.10167246709E+02  0.38718465031E+02  0.47000000000E+01 0. -1.
          5    1    5    5  503    0  0.89704806821E+02  0.15506038562E+02  0.37471595647E+02  0.98557597774E+02  0.47000000000E+01 0.  1.
         -5    1    5    5    0  503 -0.37145723745E+02 -0.29760477677E+02 -0.70742543993E+01  0.48349001018E+02  0.47000000000E+01 0.  1.
<mgrwt>
<rscale>  0 0.27319333E+03</rscale>
<asrwt>0</asrwt>
<pdfrwt beam="1">  1        1 0.28336151E-01 0.27319333E+03</pdfrwt>
<pdfrwt beam="2">  1       -1 0.15585209E-01 0.27319333E+03</pdfrwt>
<totfact> 0.48893512E+03</totfact>
</mgrwt>
</event>
<event>
 9    1  0.2114844E-002  0.2747945E+03  0.7818608E-02  0.1098567E+00
          2   -1    0    0  501    0  0.00000000000E+00  0.00000000000E+00  0.14661228772E+03  0.14661228772E+03  0.00000000000E+00 0. -1.
         -2   -1    0    0    0  501 -0.00000000000E+00 -0.00000000000E+00 -0.12876139673E+03  0.12876139673E+03  0.00000000000E+00 0. -1.
         36    2    1    2    0    0 -0.35527136788E-14  0.00000000000E+00  0.17850890990E+02  0.27537368444E+03  0.27479449007E+03 0.  0.
         25    2    3    3    0    0 -0.28998010924E+02 -0.33755036055E+02 -0.22365275354E+02  0.13490513587E+03  0.12537504953E+03 0.  0.
         25    2    3    3    0    0  0.28998010924E+02  0.33755036055E+02  0.40216166344E+02  0.14046854857E+03  0.12701884115E+03 0.  0.
          5    1    4    4  502    0  0.48341080298E+02 -0.11848702189E+02  0.40670379520E+01  0.50158574398E+02  0.47000000000E+01 0. -1.
         -5    1    4    4    0  502 -0.77339091221E+02 -0.21906333865E+02 -0.26432313306E+02  0.84746561470E+02  0.47000000000E+01 0. -1.
          5    1    5    5  503    0  0.32790846033E+02 -0.35727012907E+01  0.79343705528E+02  0.86055315844E+02  0.47000000000E+01 0. -1.
         -5    1    5    5    0  503 -0.37928351090E+01  0.37327737345E+02 -0.39127539184E+02  0.54413232729E+02  0.47000000000E+01 0. -1.
<mgrwt>
<rscale>  0 0.27479449E+03</rscale>
<asrwt>0</asrwt>
<pdfrwt beam="1">  1        2 0.22555737E-01 0.27479449E+03</pdfrwt>
<pdfrwt beam="2">  1       -2 0.19809446E-01 0.27479449E+03</pdfrwt>
<totfact> 0.51312426E+03</totfact>
</mgrwt>
</event>
<event>
 9    1  0.2114844E-002  0.2746525E+03  0.7818608E-02  0.1098646E+00
          1   -1    0    0  501    0  0.00000000000E+00  0.00000000000E+00  0.23874476864E+02  0.23874476864E+02  0.00000000000E+00 0.  1.
         -1   -1    0    0    0  501 -0.00000000000E+00 -0.00000000000E+00 -0.78990201960E+03  0.78990201960E+03  0.00000000000E+00 0.  1.
         36    2    1    2    0    0 -0.71054273576E-14  0.35527136788E-14 -0.76602754273E+03  0.81377649646E+03  0.27465248946E+03 0.  0.
         25    2    3    3    0    0 -0.32850640044E+02  0.24887093553E+02 -0.49846422256E+03  0.51604443021E+03  0.12703047195E+03 0.  0.
         25    2    3    3    0    0  0.32850640044E+02 -0.24887093553E+02 -0.26756332018E+03  0.29773206625E+03  0.12391820284E+03 0.  0.
          5    1    4    4  502    0 -0.28608018171E+02  0.18098481673E+02 -0.50405202194E+03  0.50520936705E+03  0.47000000000E+01 0. -1.
         -5    1    4    4    0  502 -0.42426218732E+01  0.67886118795E+01  0.55877993804E+01  0.10835063153E+02  0.47000000000E+01 0. -1.
          5    1    5    5  503    0 -0.17093790016E+02 -0.26839162617E+02 -0.23653975432E+03  0.23871674362E+03  0.47000000000E+01 0.  1.
         -5    1    5    5    0  503  0.49944430060E+02  0.19520690646E+01 -0.31023565855E+02  0.59015322638E+02  0.47000000000E+01 0.  1.
<mgrwt>
<rscale>  0 0.27465249E+03</rscale>
<asrwt>0</asrwt>
<pdfrwt beam="1">  1        1 0.36729964E-02 0.27465249E+03</pdfrwt>
<pdfrwt beam="2">  1       -1 0.12152339E+00 0.27465249E+03</pdfrwt>
<totfact> 0.16434634E+03</totfact>
</mgrwt>
</event>
<event>
 9    1  0.2114844E-002  0.2753286E+03  0.7818608E-02  0.1098268E+00
         -4   -1    0    0    0  501 -0.00000000000E+00  0.00000000000E+00  0.14769671982E+03  0.14769671982E+03  0.00000000000E+00 0. -1.
          4   -1    0    0  501    0  0.00000000000E+00 -0.00000000000E+00 -0.12831333211E+03  0.12831333211E+03  0.00000000000E+00 0. -1.
         36    2    1    2    0    0  0.00000000000E+00  0.00000000000E+00  0.19383387716E+02  0.27601005193E+03  0.27532859104E+03 0.  0.
         25    2    3    3    0    0  0.35964191445E+02  0.39957335800E+02 -0.22305929745E+01  0.13806214557E+03  0.12714624943E+03 0.  0.
         25    2    3    3    0    0 -0.35964191445E+02 -0.39957335800E+02  0.21613980690E+02  0.13794790636E+03  0.12518965195E+03 0.  0.
          5    1    4    4  502    0 -0.72114394091E+01 -0.41095121324E+02 -0.16294357915E+02  0.45037872450E+02  0.47000000000E+01 0.  1.
         -5    1    4    4    0  502  0.43175630855E+02  0.81052457124E+02  0.14063764940E+02  0.93024273122E+02  0.47000000000E+01 0.  1.
          5    1    5    5  503    0  0.29814131934E+02 -0.59923472107E+01  0.49845327073E+02  0.58578471464E+02  0.47000000000E+01 0.  1.
         -5    1    5    5    0  503 -0.65778323380E+02 -0.33964988589E+02 -0.28231346382E+02  0.79369434892E+02  0.47000000000E+01 0.  1.
<mgrwt>
<rscale>  0 0.27532859E+03</rscale>
<asrwt>0</asrwt>
<pdfrwt beam="1">  1        4 0.19740513E-01 0.27532859E+03</pdfrwt>
<pdfrwt beam="2">  1       -4 0.22722572E-01 0.27532859E+03</pdfrwt>
<totfact> 0.77457862E+02</totfact>
</mgrwt>
</event>
<event>
 9    1  0.2114844E-002  0.2735640E+03  0.7818608E-02  0.1099257E+00
          2   -1    0    0  501    0  0.00000000000E+00  0.00000000000E+00  0.73579343619E+02  0.73579343619E+02  0.00000000000E+00 0. -1.
         -2   -1    0    0    0  501 -0.00000000000E+00 -0.00000000000E+00 -0.25427407768E+03  0.25427407768E+03  0.00000000000E+00 0. -1.
         36    2    1    2    0    0  0.71054273576E-14 -0.71054273576E-14 -0.18069473406E+03  0.32785342129E+03  0.27356403078E+03 0.  0.
         25    2    3    3    0    0 -0.49236927497E+02 -0.11938212837E+02 -0.86865049112E+02  0.15990019688E+03  0.12432111748E+03 0.  0.
         25    2    3    3    0    0  0.49236927497E+02  0.11938212837E+02 -0.93829684945E+02  0.16795322441E+03  0.12975931511E+03 0.  0.
          5    1    4    4  502    0 -0.49025661001E+02 -0.28776606124E+02 -0.11408430801E+03  0.12754970729E+03  0.47000000000E+01 0. -1.
         -5    1    4    4    0  502 -0.21126649642E+00  0.16838393287E+02  0.27219258896E+02  0.32350489592E+02  0.47000000000E+01 0. -1.
          5    1    5    5  503    0 -0.16170893555E+02 -0.45213533734E+02 -0.14903689605E+02  0.50497241458E+02  0.47000000000E+01 0. -1.
         -5    1    5    5    0  503  0.65407821053E+02  0.57151746571E+02 -0.78925995340E+02  0.11745598295E+03  0.47000000000E+01 0. -1.
<mgrwt>
<rscale>  0 0.27356403E+03</rscale>
<asrwt>0</asrwt>
<pdfrwt beam="1">  1        2 0.11319899E-01 0.27356403E+03</pdfrwt>
<pdfrwt beam="2">  1       -2 0.39119088E-01 0.27356403E+03</pdfrwt>
<totfact> 0.33980037E+03</totfact>
</mgrwt>
</event>
<event>
 9    1  0.2114844E-002  0.2747291E+03  0.7818608E-02  0.1098603E+00
         -2   -1    0    0    0  501 -0.00000000000E+00  0.00000000000E+00  0.52394482531E+02  0.52394482531E+02  0.00000000000E+00 0. -1.
          2   -1    0    0  501    0  0.00000000000E+00 -0.00000000000E+00 -0.36013367152E+03  0.36013367152E+03  0.00000000000E+00 0. -1.
         36    2    1    2    0    0  0.17763568394E-14 -0.71054273576E-14 -0.30773918899E+03  0.41252815405E+03  0.27472908373E+03 0.  0.
         25    2    3    3    0    0 -0.14554718000E+02 -0.23517632290E+02 -0.22536414832E+03  0.25989647352E+03  0.12646050275E+03 0.  0.
         25    2    3    3    0    0  0.14554718000E+02  0.23517632290E+02 -0.82375040669E+02  0.15263168053E+03  0.12548252361E+03 0.  0.
          5    1    4    4  502    0 -0.35880431578E+02 -0.64870921843E+02 -0.90075784167E+02  0.11675349573E+03  0.47000000000E+01 0. -1.
         -5    1    4    4    0  502  0.21325713579E+02  0.41353289554E+02 -0.13528836416E+03  0.14314297780E+03  0.47000000000E+01 0. -1.
          5    1    5    5  503    0  0.56220762504E+00  0.31942778778E+02 -0.11304535657E+03  0.11756700147E+03  0.47000000000E+01 0.  1.
         -5    1    5    5    0  503  0.13992510374E+02 -0.84251464882E+01  0.30670315901E+02  0.35064679057E+02  0.47000000000E+01 0.  1.
<mgrwt>
<rscale>  0 0.27472908E+03</rscale>
<asrwt>0</asrwt>
<pdfrwt beam="1">  1        2 0.55405178E-01 0.27472908E+03</pdfrwt>
<pdfrwt beam="2">  1       -2 0.80606899E-02 0.27472908E+03</pdfrwt>
<totfact> 0.83102130E+03</totfact>
</mgrwt>
</event>
<event>
 9    1  0.2114844E-002  0.2747998E+03  0.7818608E-02  0.1098564E+00
         -2   -1    0    0    0  501 -0.00000000000E+00  0.00000000000E+00  0.18344099725E+03  0.18344099725E+03  0.00000000000E+00 0.  1.
          2   -1    0    0  501    0  0.00000000000E+00 -0.00000000000E+00 -0.10291448663E+03  0.10291448663E+03  0.00000000000E+00 0.  1.
         36    2    1    2    0    0  0.14210854715E-13  0.00000000000E+00  0.80526510613E+02  0.28635548388E+03  0.27479982576E+03 0.  0.
         25    2    3    3    0    0 -0.51270666971E+02  0.34319470411E+02  0.20065832391E+02  0.13737679675E+03  0.12109186313E+03 0.  0.
         25    2    3    3    0    0  0.51270666971E+02 -0.34319470411E+02  0.60460678222E+02  0.14897868713E+03  0.12137812103E+03 0.  0.
          5    1    4    4  502    0 -0.90582482946E+02  0.30040961843E+02  0.85955724200E+01  0.95935496404E+02  0.47000000000E+01 0. -1.
         -5    1    4    4    0  502  0.39311815974E+02  0.42785085684E+01  0.11470259971E+02  0.41441300348E+02  0.47000000000E+01 0. -1.
          5    1    5    5  503    0 -0.23755729331E+02 -0.27363017728E+02  0.63676429737E+02  0.73415578179E+02  0.47000000000E+01 0. -1.
         -5    1    5    5    0  503  0.75026396302E+02 -0.69564526830E+01 -0.32157515155E+01  0.75563108947E+02  0.47000000000E+01 0. -1.
<mgrwt>
<rscale>  0 0.27479983E+03</rscale>
<asrwt>0</asrwt>
<pdfrwt beam="1">  1        2 0.15832998E-01 0.27479983E+03</pdfrwt>
<pdfrwt beam="2">  1       -2 0.28221692E-01 0.27479983E+03</pdfrwt>
<totfact> 0.41523115E+03</totfact>
</mgrwt>
</event>
<event>
 9    1  0.2114844E-002  0.2751624E+03  0.7818608E-02  0.1098361E+00
          2   -1    0    0  501    0  0.00000000000E+00  0.00000000000E+00  0.25989471240E+04  0.25989471240E+04  0.00000000000E+00 0. -1.
         -2   -1    0    0    0  501 -0.00000000000E+00 -0.00000000000E+00 -0.72831759055E+01  0.72831759055E+01  0.00000000000E+00 0. -1.
         36    2    1    2    0    0  0.00000000000E+00  0.00000000000E+00  0.25916639481E+04  0.26062302999E+04  0.27516241803E+03 0.  0.
         25    2    3    3    0    0 -0.44463853221E+02  0.31767276446E+01  0.96922074514E+03  0.97844759557E+03  0.12642673220E+03 0.  0.
         25    2    3    3    0    0  0.44463853221E+02 -0.31767276446E+01  0.16224432030E+04  0.16277827044E+04  0.12396555931E+03 0.  0.
          5    1    4    4  502    0 -0.19791525863E+02  0.53332858308E+02  0.74982992466E+03  0.75199940438E+03  0.47000000000E+01 0. -1.
         -5    1    4    4    0  502 -0.24672327358E+02 -0.50156130663E+02  0.21939082048E+03  0.22644819119E+03  0.47000000000E+01 0. -1.
          5    1    5    5  503    0  0.80547074514E+02  0.22990007839E+02  0.88080668265E+03  0.88479312490E+03  0.47000000000E+01 0.  1.
         -5    1    5    5    0  503 -0.36083221292E+02 -0.26166735484E+02  0.74163652034E+03  0.74298957948E+03  0.47000000000E+01 0.  1.
<mgrwt>
<rscale>  0 0.27516242E+03</rscale>
<asrwt>0</asrwt>
<pdfrwt beam="1">  1        2 0.39983728E+00 0.27516242E+03</pdfrwt>
<pdfrwt beam="2">  1       -2 0.11204907E-02 0.27516242E+03</pdfrwt>
<totfact> 0.63901238E+03</totfact>
</mgrwt>
</event>
<event>
 9    1  0.2114844E-002  0.2746310E+03  0.7818608E-02  0.1098658E+00
          2   -1    0    0  501    0  0.00000000000E+00  0.00000000000E+00  0.12813211010E+04  0.12813211010E+04  0.00000000000E+00 0.  1.
         -2   -1    0    0    0  501 -0.00000000000E+00 -0.00000000000E+00 -0.14715710503E+02  0.14715710503E+02  0.00000000000E+00 0.  1.
         36    2    1    2    0    0  0.00000000000E+00  0.00000000000E+00  0.12666053905E+04  0.12960368115E+04  0.27463102799E+03 0.  0.
         25    2    3    3    0    0 -0.22944179789E+02 -0.49573869776E+02  0.70206265154E+03  0.71514758806E+03  0.12474013815E+03 0.  0.
         25    2    3    3    0    0  0.22944179789E+02  0.49573869776E+02  0.56454273892E+03  0.58088922341E+03  0.12545828732E+03 0.  0.
          5    1    4    4  502    0  0.13822386859E+02 -0.70254573445E+02  0.60460602162E+03  0.60884915607E+03  0.47000000000E+01 0.  1.
         -5    1    4    4    0  502 -0.36766566648E+02  0.20680703669E+02  0.97456629915E+02  0.10629843198E+03  0.47000000000E+01 0.  1.
          5    1    5    5  503    0  0.21656074870E+02  0.66362630036E+02  0.14514940334E+03  0.16113169625E+03  0.47000000000E+01 0. -1.
         -5    1    5    5    0  503  0.12881049189E+01 -0.16788760260E+02  0.41939333558E+03  0.41975752717E+03  0.47000000000E+01 0. -1.
<mgrwt>
<rscale>  0 0.27463103E+03</rscale>
<asrwt>0</asrwt>
<pdfrwt beam="1">  1        2 0.19712624E+00 0.27463103E+03</pdfrwt>
<pdfrwt beam="2">  1       -2 0.22639565E-02 0.27463103E+03</pdfrwt>
<totfact> 0.11558818E+04</totfact>
</mgrwt>
</event>
<event>
 8    1  0.2114844E-002  0.2566705E+03  0.7818608E-02  0.1109160E+00
         -2   -1    0    0    0  501 -0.00000000000E+00  0.00000000000E+00  0.15780142829E+02  0.15780142829E+02  0.00000000000E+00 0.  1.
          2   -1    0    0  501    0  0.00000000000E+00 -0.00000000000E+00 -0.10437125809E+04  0.10437125809E+04  0.00000000000E+00 0.  1.
         25    2    1    2    0    0 -0.66439916872E+02  0.96715423008E+01 -0.56520847430E+03  0.58359198951E+03  0.12888440369E+03 0.  0.
         25    2    1    2    0    0  0.66439916872E+02 -0.96715423008E+01 -0.46272396381E+03  0.47590073426E+03  0.88657999630E+02 0.  0.
          5    1    3    3  502    0 -0.42484167865E+02  0.27765983559E+01 -0.42745320598E+02  0.60513357621E+02  0.47000000000E+01 0. -1.
         -5    1    3    3    0  502 -0.23955749007E+02  0.68949439449E+01 -0.52246315370E+03  0.52307863189E+03  0.47000000000E+01 0. -1.
          5    1    4    4  503    0 -0.11124426279E+02 -0.24353393617E+02 -0.66127486769E+02  0.71496679274E+02  0.47000000000E+01 0. -1.
         -5    1    4    4    0  503  0.77564343151E+02  0.14681851316E+02 -0.39659647704E+03  0.40440405499E+03  0.47000000000E+01 0. -1.
<mgrwt>
<rscale>  0 0.25667048E+03</rscale>
<asrwt>0</asrwt>
<pdfrwt beam="1">  1        2 0.16057123E+00 0.25667048E+03</pdfrwt>
<pdfrwt beam="2">  1       -2 0.24277134E-02 0.25667048E+03</pdfrwt>
<totfact> 0.14253084E+04</totfact>
</mgrwt>
</event>
<event>
 9    1  0.2114844E-002  0.2751024E+03  0.7818608E-02  0.1098394E+00
         -2   -1    0    0    0  501 -0.00000000000E+00  0.00000000000E+00  0.12315788602E+02  0.12315788602E+02  0.00000000000E+00 0.  1.
          2   -1    0    0  501    0  0.00000000000E+00 -0.00000000000E+00 -0.15362668688E+04  0.15362668688E+04  0.00000000000E+00 0.  1.
         36    2    1    2    0    0  0.00000000000E+00  0.00000000000E+00 -0.15239510802E+04  0.15485826574E+04  0.27510243904E+03 0.  0.
         25    2    3    3    0    0  0.27466308938E+02 -0.42807158442E+02 -0.70896688998E+03  0.72154050300E+03  0.12409591230E+03 0.  0.
         25    2    3    3    0    0 -0.27466308938E+02  0.42807158442E+02 -0.81498419018E+03  0.82704215436E+03  0.13119696605E+03 0.  0.
          5    1    4    4  502    0  0.17333396963E+02 -0.84914410867E+02 -0.38526516245E+03  0.39492054798E+03  0.47000000000E+01 0. -1.
         -5    1    4    4    0  502  0.10132911975E+02  0.42107252425E+02 -0.32370172753E+03  0.32661995502E+03  0.47000000000E+01 0. -1.
          5    1    5    5  503    0 -0.65907171482E+02 -0.17856105349E+02 -0.42405332487E+03  0.42954150915E+03  0.47000000000E+01 0.  1.
         -5    1    5    5    0  503  0.38440862544E+02  0.60663263791E+02 -0.39093086531E+03  0.39750064521E+03  0.47000000000E+01 0.  1.
<mgrwt>
<rscale>  0 0.27510244E+03</rscale>
<asrwt>0</asrwt>
<pdfrwt beam="1">  1        2 0.23634857E+00 0.27510244E+03</pdfrwt>
<pdfrwt beam="2">  1       -2 0.18947381E-02 0.27510244E+03</pdfrwt>
<totfact> 0.10922964E+04</totfact>
</mgrwt>
</event>
<event>
 9    1  0.2114844E-002  0.2787741E+03  0.7818608E-02  0.1096360E+00
          1   -1    0    0  501    0  0.00000000000E+00  0.00000000000E+00  0.14084762049E+03  0.14084762049E+03  0.00000000000E+00 0.  1.
         -1   -1    0    0    0  501 -0.00000000000E+00 -0.00000000000E+00 -0.13794161113E+03  0.13794161113E+03  0.00000000000E+00 0.  1.
         36    2    1    2    0    0  0.00000000000E+00 -0.35527136788E-14  0.29060093592E+01  0.27878923162E+03  0.27877408556E+03 0.  0.
         25    2    3    3    0    0 -0.43784015551E+02  0.26941795219E+02 -0.29872258285E+01  0.14642365116E+03  0.13706955079E+03 0.  0.
         25    2    3    3    0    0  0.43784015551E+02 -0.26941795219E+02  0.58932351877E+01  0.13236558046E+03  0.12183191833E+03 0.  0.
          5    1    4    4  502    0 -0.65091639386E+02  0.32292348541E+02  0.50364457658E+02  0.88534659243E+02  0.47000000000E+01 0.  1.
         -5    1    4    4    0  502  0.21307623834E+02 -0.53505533219E+01 -0.53351683486E+02  0.57888991917E+02  0.47000000000E+01 0.  1.
          5    1    5    5  503    0  0.83939513762E+02 -0.10733018444E+02  0.19042648433E+02  0.86866288714E+02  0.47000000000E+01 0. -1.
         -5    1    5    5    0  503 -0.40155498210E+02 -0.16208776774E+02 -0.13149413246E+02  0.45499291750E+02  0.47000000000E+01 0. -1.
<mgrwt>
<rscale>  0 0.27877409E+03</rscale>
<asrwt>0</asrwt>
<pdfrwt beam="1">  1        1 0.21668865E-01 0.27877409E+03</pdfrwt>
<pdfrwt beam="2">  1       -1 0.21221786E-01 0.27877409E+03</pdfrwt>
<totfact> 0.41854737E+03</totfact>
</mgrwt>
</event>
<event>
 9    1  0.2114844E-002  0.2749126E+03  0.7818608E-02  0.1098500E+00
         -1   -1    0    0    0  501 -0.00000000000E+00  0.00000000000E+00  0.75604962774E+02  0.75604962774E+02  0.00000000000E+00 0. -1.
          1   -1    0    0  501    0  0.00000000000E+00 -0.00000000000E+00 -0.24990729967E+03  0.24990729967E+03  0.00000000000E+00 0. -1.
         36    2    1    2    0    0  0.71054273576E-14  0.00000000000E+00 -0.17430233690E+03  0.32551226245E+03  0.27491258312E+03 0.  0.
         25    2    3    3    0    0  0.55146834516E+02 -0.13037164522E+02 -0.36089497514E+02  0.13912836241E+03  0.12183229614E+03 0.  0.
         25    2    3    3    0    0 -0.55146834516E+02  0.13037164522E+02 -0.13821283939E+03  0.18638390003E+03  0.11146761056E+03 0.  0.
          5    1    4    4  502    0 -0.25276614198E+02 -0.40572947484E+02 -0.42032963498E+01  0.48216480513E+02  0.47000000000E+01 0.  1.
         -5    1    4    4    0  502  0.80423448714E+02  0.27535782961E+02 -0.31886201164E+02  0.90911881902E+02  0.47000000000E+01 0.  1.
          5    1    5    5  503    0 -0.15539527166E+02 -0.48643612615E+02 -0.50425477958E+02  0.71920072164E+02  0.47000000000E+01 0. -1.
         -5    1    5    5    0  503 -0.39607307350E+02  0.61680777137E+02 -0.87787361429E+02  0.11446382787E+03  0.47000000000E+01 0. -1.
<mgrwt>
<rscale>  0 0.27491258E+03</rscale>
<asrwt>0</asrwt>
<pdfrwt beam="1">  1        1 0.38447276E-01 0.27491258E+03</pdfrwt>
<pdfrwt beam="2">  1       -1 0.11631533E-01 0.27491258E+03</pdfrwt>
<totfact> 0.52797080E+03</totfact>
</mgrwt>
</event>
<event>
 9    1  0.2114844E-002  0.2752396E+03  0.7818608E-02  0.1098318E+00
          1   -1    0    0  501    0  0.00000000000E+00  0.00000000000E+00  0.40706275224E+03  0.40706275224E+03  0.00000000000E+00 0.  1.
         -1   -1    0    0    0  501 -0.00000000000E+00 -0.00000000000E+00 -0.46526505258E+02  0.46526505258E+02  0.00000000000E+00 0.  1.
         36    2    1    2    0    0 -0.71054273576E-14  0.71054273576E-14  0.36053624698E+03  0.45358925750E+03  0.27523958496E+03 0.  0.
         25    2    3    3    0    0 -0.53290023163E+02  0.13362374740E+02  0.18346776106E+03  0.22963790959E+03  0.12670742103E+03 0.  0.
         25    2    3    3    0    0  0.53290023163E+02 -0.13362374740E+02  0.17706848592E+03  0.22395134791E+03  0.12562873037E+03 0.  0.
          5    1    4    4  502    0 -0.37406829536E+02  0.62194691742E+02  0.54927466970E+02  0.91140370882E+02  0.47000000000E+01 0.  1.
         -5    1    4    4    0  502 -0.15883193627E+02 -0.48832317002E+02  0.12854029409E+03  0.13849753871E+03  0.47000000000E+01 0.  1.
          5    1    5    5  503    0  0.75368384128E+02  0.25765406903E+02  0.64305536658E+02  0.10247702944E+03  0.47000000000E+01 0.  1.
         -5    1    5    5    0  503 -0.22078360965E+02 -0.39127781643E+02  0.11276294926E+03  0.12147431846E+03  0.47000000000E+01 0.  1.
<mgrwt>
<rscale>  0 0.27523958E+03</rscale>
<asrwt>0</asrwt>
<pdfrwt beam="1">  1        1 0.62625036E-01 0.27523958E+03</pdfrwt>
<pdfrwt beam="2">  1       -1 0.71579242E-02 0.27523958E+03</pdfrwt>
<totfact> 0.60140034E+03</totfact>
</mgrwt>
</event>
<event>
 9    1  0.2114844E-002  0.2771085E+03  0.7818608E-02  0.1097279E+00
          1   -1    0    0  501    0  0.00000000000E+00  0.00000000000E+00  0.20470973251E+02  0.20470973251E+02  0.00000000000E+00 0. -1.
         -1   -1    0    0    0  501 -0.00000000000E+00 -0.00000000000E+00 -0.93778060649E+03  0.93778060649E+03  0.00000000000E+00 0. -1.
         36    2    1    2    0    0 -0.14210854715E-13 -0.53290705182E-14 -0.91730963324E+03  0.95825157975E+03  0.27710851096E+03 0.  0.
         25    2    3    3    0    0 -0.55549162031E+02  0.15458643924E+02 -0.38457780006E+03  0.40753966915E+03  0.12191726111E+03 0.  0.
         25    2    3    3    0    0  0.55549162031E+02 -0.15458643924E+02 -0.53273183318E+03  0.55071191060E+03  0.12710516635E+03 0.  0.
          5    1    4    4  502    0  0.35788713655E+02  0.56579022755E+01 -0.17326260247E+03  0.17707304509E+03  0.47000000000E+01 0.  1.
         -5    1    4    4    0  502 -0.91337875687E+02  0.98007416482E+01 -0.21131519759E+03  0.23046662406E+03  0.47000000000E+01 0.  1.
          5    1    5    5  503    0 -0.16983513830E+01  0.48632887657E+02 -0.13005350733E+03  0.13893900434E+03  0.47000000000E+01 0.  1.
         -5    1    5    5    0  503  0.57247513414E+02 -0.64091531581E+02 -0.40267832586E+03  0.41177290626E+03  0.47000000000E+01 0.  1.
<mgrwt>
<rscale>  0 0.27710851E+03</rscale>
<asrwt>0</asrwt>
<pdfrwt beam="1">  1        1 0.31493811E-02 0.27710851E+03</pdfrwt>
<pdfrwt beam="2">  1       -1 0.14427391E+00 0.27710851E+03</pdfrwt>
<totfact> 0.13316012E+03</totfact>
</mgrwt>
</event>
<event>
 9    1  0.2114844E-002  0.2741205E+03  0.7818608E-02  0.1098944E+00
          2   -1    0    0  501    0  0.00000000000E+00  0.00000000000E+00  0.32136262961E+03  0.32136262961E+03  0.00000000000E+00 0.  1.
         -2   -1    0    0    0  501 -0.00000000000E+00 -0.00000000000E+00 -0.58455793108E+02  0.58455793108E+02  0.00000000000E+00 0.  1.
         36    2    1    2    0    0  0.00000000000E+00  0.00000000000E+00  0.26290683650E+03  0.37981842272E+03  0.27412046541E+03 0.  0.
         25    2    3    3    0    0  0.30217337742E+02 -0.43031923218E+02  0.15586907770E+03  0.20972678068E+03  0.13009734523E+03 0.  0.
         25    2    3    3    0    0 -0.30217337742E+02  0.43031923218E+02  0.10703775880E+03  0.17009164203E+03  0.12128170087E+03 0.  0.
          5    1    4    4  502    0  0.26566784635E+02 -0.27830655250E+02 -0.12377979701E+02  0.40689603082E+02  0.47000000000E+01 0.  1.
         -5    1    4    4    0  502  0.36505531077E+01 -0.15201267967E+02  0.16824705740E+03  0.16903717760E+03  0.47000000000E+01 0.  1.
          5    1    5    5  503    0 -0.68805944019E+02  0.29904794789E+02  0.26500854247E+02  0.79705332065E+02  0.47000000000E+01 0. -1.
         -5    1    5    5    0  503  0.38588606277E+02  0.13127128429E+02  0.80536904552E+02  0.90386309970E+02  0.47000000000E+01 0. -1.
<mgrwt>
<rscale>  0 0.27412047E+03</rscale>
<asrwt>0</asrwt>
<pdfrwt beam="1">  1        2 0.49440404E-01 0.27412047E+03</pdfrwt>
<pdfrwt beam="2">  1       -2 0.89931991E-02 0.27412047E+03</pdfrwt>
<totfact> 0.79124100E+03</totfact>
</mgrwt>
</event>
<event>
 9    1  0.2114844E-002  0.2762289E+03  0.7818608E-02  0.1097767E+00
          2   -1    0    0  501    0  0.00000000000E+00  0.00000000000E+00  0.11760220810E+03  0.11760220810E+03  0.00000000000E+00 0. -1.
         -2   -1    0    0    0  501 -0.00000000000E+00 -0.00000000000E+00 -0.16220447498E+03  0.16220447498E+03  0.00000000000E+00 0. -1.
         36    2    1    2    0    0 -0.17763568394E-14 -0.71054273576E-14 -0.44602266882E+02  0.27980668307E+03  0.27622892260E+03 0.  0.
         25    2    3    3    0    0 -0.10010105111E+02  0.24562810893E+02 -0.72818033492E+02  0.14787120214E+03  0.12593606527E+03 0.  0.
         25    2    3    3    0    0  0.10010105111E+02 -0.24562810893E+02  0.28215766610E+02  0.13193548094E+03  0.12612417596E+03 0.  0.
          5    1    4    4  502    0 -0.81972886984E+01 -0.51542246912E+02 -0.31122042515E+02  0.60946454278E+02  0.47000000000E+01 0. -1.
         -5    1    4    4    0  502 -0.18128164130E+01  0.76105057805E+02 -0.41695990977E+02  0.86924747859E+02  0.47000000000E+01 0. -1.
          5    1    5    5  503    0  0.66228438367E+01 -0.45530634577E+02  0.70539066890E+02  0.84348981637E+02  0.47000000000E+01 0.  1.
         -5    1    5    5    0  503  0.33872612747E+01  0.20967823684E+02 -0.42323300280E+02  0.47586499300E+02  0.47000000000E+01 0.  1.
<mgrwt>
<rscale>  0 0.27622892E+03</rscale>
<asrwt>0</asrwt>
<pdfrwt beam="1">  1        2 0.18092647E-01 0.27622892E+03</pdfrwt>
<pdfrwt beam="2">  1       -2 0.24954534E-01 0.27622892E+03</pdfrwt>
<totfact> 0.44239592E+03</totfact>
</mgrwt>
</event>
<event>
 9    1  0.2114844E-002  0.2750640E+03  0.7818608E-02  0.1098416E+00
         -1   -1    0    0    0  501 -0.00000000000E+00  0.00000000000E+00  0.34104285869E+02  0.34104285869E+02  0.00000000000E+00 0.  1.
          1   -1    0    0  501    0  0.00000000000E+00 -0.00000000000E+00 -0.55462403545E+03  0.55462403545E+03  0.00000000000E+00 0.  1.
         36    2    1    2    0    0  0.00000000000E+00  0.00000000000E+00 -0.52051974958E+03  0.58872832132E+03  0.27506404094E+03 0.  0.
         25    2    3    3    0    0  0.16154232876E+02 -0.14206350413E+02 -0.37377695423E+03  0.39587180777E+03  0.12861763892E+03 0.  0.
         25    2    3    3    0    0 -0.16154232876E+02  0.14206350413E+02 -0.14674279535E+03  0.19285651355E+03  0.12327776442E+03 0.  0.
          5    1    4    4  502    0  0.32759033067E+01  0.57249538557E+02 -0.15702703247E+03  0.16723582192E+03  0.47000000000E+01 0. -1.
         -5    1    4    4    0  502  0.12878329570E+02 -0.71455888970E+02 -0.21674992176E+03  0.22863598585E+03  0.47000000000E+01 0. -1.
          5    1    5    5  503    0 -0.29659592557E+02  0.64975914084E+02 -0.73473599185E+02  0.10257690100E+03  0.47000000000E+01 0.  1.
         -5    1    5    5    0  503  0.13505359680E+02 -0.50769563671E+02 -0.73269196164E+02  0.90279612549E+02  0.47000000000E+01 0.  1.
<mgrwt>
<rscale>  0 0.27506404E+03</rscale>
<asrwt>0</asrwt>
<pdfrwt beam="1">  1        1 0.85326769E-01 0.27506404E+03</pdfrwt>
<pdfrwt beam="2">  1       -1 0.52468136E-02 0.27506404E+03</pdfrwt>
<totfact> 0.63936094E+03</totfact>
</mgrwt>
</event>
<event>
 9    1  0.2114844E-002  0.2756368E+03  0.7818608E-02  0.1098096E+00
          1   -1    0    0  501    0  0.00000000000E+00  0.00000000000E+00  0.33894742753E+04  0.33894742753E+04  0.00000000000E+00 0.  1.
         -1   -1    0    0    0  501 -0.00000000000E+00 -0.00000000000E+00 -0.56037927052E+01  0.56037927052E+01  0.00000000000E+00 0.  1.
         36    2    1    2    0    0  0.00000000000E+00  0.00000000000E+00  0.33838704825E+04  0.33950780680E+04  0.27563679884E+03 0.  0.
         25    2    3    3    0    0  0.24305576039E+02 -0.28242377774E+02  0.21760038483E+04  0.21799078089E+04  0.12496765478E+03 0.  0.
         25    2    3    3    0    0 -0.24305576039E+02  0.28242377774E+02  0.12078666343E+04  0.12151702590E+04  0.12770496991E+03 0.  0.
          5    1    4    4  502    0 -0.24527227410E+01 -0.54316040770E+02  0.42380096864E+03  0.42730036175E+03  0.47000000000E+01 0.  1.
         -5    1    4    4    0  502  0.26758298780E+02  0.26073662996E+02  0.17522028796E+04  0.17526074472E+04  0.47000000000E+01 0.  1.
          5    1    5    5  503    0  0.57946898043E+01  0.16370583155E+02  0.11368058678E+04  0.11369482159E+04  0.47000000000E+01 0.  1.
         -5    1    5    5    0  503 -0.30100265844E+02  0.11871794619E+02  0.71060766440E+02  0.78222043174E+02  0.47000000000E+01 0.  1.
<mgrwt>
<rscale>  0 0.27563680E+03</rscale>
<asrwt>0</asrwt>
<pdfrwt beam="1">  1        1 0.52145594E+00 0.27563680E+03</pdfrwt>
<pdfrwt beam="2">  1       -1 0.86212466E-03 0.27563680E+03</pdfrwt>
<totfact> 0.88479918E+02</totfact>
</mgrwt>
</event>
<event>
 9    1  0.2114844E-002  0.2742600E+03  0.7818608E-02  0.1098866E+00
          2   -1    0    0  501    0  0.00000000000E+00  0.00000000000E+00  0.39908781136E+03  0.39908781136E+03  0.00000000000E+00 0. -1.
         -2   -1    0    0    0  501 -0.00000000000E+00 -0.00000000000E+00 -0.47119044818E+02  0.47119044818E+02  0.00000000000E+00 0. -1.
         36    2    1    2    0    0  0.00000000000E+00  0.00000000000E+00  0.35196876654E+03  0.44620685618E+03  0.27425999686E+03 0.  0.
         25    2    3    3    0    0  0.56137665172E+02  0.49620390096E+01  0.15750739837E+03  0.20782441982E+03  0.12331402860E+03 0.  0.
         25    2    3    3    0    0 -0.56137665172E+02 -0.49620390096E+01  0.19446136817E+03  0.23838243636E+03  0.12583681088E+03 0.  0.
          5    1    4    4  502    0  0.65883590840E+02 -0.45880484294E+02  0.11675654255E+03  0.14177392782E+03  0.47000000000E+01 0.  1.
         -5    1    4    4    0  502 -0.97459256674E+01  0.50842523304E+02  0.40750855820E+02  0.66050491997E+02  0.47000000000E+01 0.  1.
          5    1    5    5  503    0 -0.48307295082E+02 -0.49172185410E+02  0.17695217034E+03  0.18996225721E+03  0.47000000000E+01 0. -1.
         -5    1    5    5    0  503 -0.78303700899E+01  0.44210146400E+02  0.17509197835E+02  0.48420179154E+02  0.47000000000E+01 0. -1.
<mgrwt>
<rscale>  0 0.27426000E+03</rscale>
<asrwt>0</asrwt>
<pdfrwt beam="1">  1        2 0.61398123E-01 0.27426000E+03</pdfrwt>
<pdfrwt beam="2">  1       -2 0.72490841E-02 0.27426000E+03</pdfrwt>
<totfact> 0.87710530E+03</totfact>
</mgrwt>
</event>
<event>
 9    1  0.2114844E-002  0.2776233E+03  0.7818608E-02  0.1096994E+00
         -2   -1    0    0    0  501 -0.00000000000E+00  0.00000000000E+00  0.14001057692E+03  0.14001057692E+03  0.00000000000E+00 0. -1.
          2   -1    0    0  501    0  0.00000000000E+00 -0.00000000000E+00 -0.13762301794E+03  0.13762301794E+03  0.00000000000E+00 0. -1.
         36    2    1    2    0    0 -0.35527136788E-14  0.00000000000E+00  0.23875589738E+01  0.27763359486E+03  0.27762332856E+03 0.  0.
         25    2    3    3    0    0  0.79632947351E+01  0.40489506203E+01 -0.19477001008E+00  0.14853683509E+03  0.14826781639E+03 0.  0.
         25    2    3    3    0    0 -0.79632947351E+01 -0.40489506203E+01  0.25823289839E+01  0.12909675978E+03  0.12876139521E+03 0.  0.
          5    1    4    4  502    0  0.33646559541E+02  0.39650420621E+02 -0.56535526624E+02  0.76958447197E+02  0.47000000000E+01 0.  1.
         -5    1    4    4    0  502 -0.25683264806E+02 -0.35601470001E+02  0.56340756613E+02  0.71578387891E+02  0.47000000000E+01 0.  1.
          5    1    5    5  503    0 -0.26565365842E+02 -0.62216314152E+02  0.67032377039E+00  0.67816869162E+02  0.47000000000E+01 0.  1.
         -5    1    5    5    0  503  0.18602071106E+02  0.58167363532E+02  0.19120052135E+01  0.61279890614E+02  0.47000000000E+01 0.  1.
<mgrwt>
<rscale>  0 0.27762333E+03</rscale>
<asrwt>0</asrwt>
<pdfrwt beam="1">  1        2 0.21172772E-01 0.27762333E+03</pdfrwt>
<pdfrwt beam="2">  1       -2 0.21540089E-01 0.27762333E+03</pdfrwt>
<totfact> 0.47756748E+03</totfact>
</mgrwt>
</event>
<event>
 9    1  0.2114844E-002  0.2744289E+03  0.7818608E-02  0.1098771E+00
         -2   -1    0    0    0  501 -0.00000000000E+00  0.00000000000E+00  0.31871214558E+02  0.31871214558E+02  0.00000000000E+00 0. -1.
          2   -1    0    0  501    0  0.00000000000E+00 -0.00000000000E+00 -0.59074659096E+03  0.59074659096E+03  0.00000000000E+00 0. -1.
         36    2    1    2    0    0  0.00000000000E+00  0.00000000000E+00 -0.55887537641E+03  0.62261780552E+03  0.27442894417E+03 0.  0.
         25    2    3    3    0    0 -0.42562616819E+02 -0.33542084379E-01 -0.21688346113E+03  0.25630603695E+03  0.12977970331E+03 0.  0.
         25    2    3    3    0    0  0.42562616819E+02  0.33542084379E-01 -0.34199191528E+03  0.36631176857E+03  0.12415419526E+03 0.  0.
          5    1    4    4  502    0 -0.24429265537E+02 -0.35170736786E+02 -0.21183206218E+03  0.21616818061E+03  0.47000000000E+01 0. -1.
         -5    1    4    4    0  502 -0.18133351282E+02  0.35137194702E+02 -0.50513989450E+01  0.40137856339E+02  0.47000000000E+01 0. -1.
          5    1    5    5  503    0 -0.12723074305E+02 -0.51075440451E+01 -0.28916581501E+03  0.28952879338E+03  0.47000000000E+01 0. -1.
         -5    1    5    5    0  503  0.55285691124E+02  0.51410861295E+01 -0.52826100274E+02  0.76782975195E+02  0.47000000000E+01 0. -1.
<mgrwt>
<rscale>  0 0.27442894E+03</rscale>
<asrwt>0</asrwt>
<pdfrwt beam="1">  1        2 0.90884082E-01 0.27442894E+03</pdfrwt>
<pdfrwt beam="2">  1       -2 0.49032643E-02 0.27442894E+03</pdfrwt>
<totfact> 0.10314497E+04</totfact>
</mgrwt>
</event>
<event>
 9    1  0.2114844E-002  0.2750577E+03  0.7818608E-02  0.1098419E+00
          2   -1    0    0  501    0  0.00000000000E+00  0.00000000000E+00  0.47224532362E+03  0.47224532362E+03  0.00000000000E+00 0.  1.
         -2   -1    0    0    0  501 -0.00000000000E+00 -0.00000000000E+00 -0.40051610088E+02  0.40051610088E+02  0.00000000000E+00 0.  1.
         36    2    1    2    0    0  0.35527136788E-14 -0.71054273576E-14  0.43219371353E+03  0.51229693371E+03  0.27505770717E+03 0.  0.
         25    2    3    3    0    0 -0.10425278119E+02 -0.53839780005E+02  0.22677719165E+03  0.26487454946E+03  0.12539228033E+03 0.  0.
         25    2    3    3    0    0  0.10425278119E+02  0.53839780005E+02  0.20541652189E+03  0.24742238425E+03  0.12654833238E+03 0.  0.
          5    1    4    4  502    0  0.26389369688E+02 -0.75013262346E+02  0.83673753369E+02  0.11552824487E+03  0.47000000000E+01 0.  1.
         -5    1    4    4    0  502 -0.36814647808E+02  0.21173482340E+02  0.14310343828E+03  0.14934630459E+03  0.47000000000E+01 0.  1.
          5    1    5    5  503    0  0.16339327043E+02 -0.25908017989E+02  0.14175181032E+03  0.14509949943E+03  0.47000000000E+01 0.  1.
         -5    1    5    5    0  503 -0.59140489233E+01  0.79747797994E+02  0.63664711562E+02  0.10232288482E+03  0.47000000000E+01 0.  1.
<mgrwt>
<rscale>  0 0.27505771E+03</rscale>
<asrwt>0</asrwt>
<pdfrwt beam="1">  1        2 0.72653123E-01 0.27505771E+03</pdfrwt>
<pdfrwt beam="2">  1       -2 0.61617865E-02 0.27505771E+03</pdfrwt>
<totfact> 0.93739214E+03</totfact>
</mgrwt>
</event>
<event>
 9    1  0.2114844E-002  0.2752499E+03  0.7818608E-02  0.1098312E+00
         -2   -1    0    0    0  501 -0.00000000000E+00  0.00000000000E+00  0.13597702906E+04  0.13597702906E+04  0.00000000000E+00 0. -1.
          2   -1    0    0  501    0  0.00000000000E+00 -0.00000000000E+00 -0.13929285840E+02  0.13929285840E+02  0.00000000000E+00 0. -1.
         36    2    1    2    0    0 -0.71054273576E-14  0.00000000000E+00  0.13458410047E+04  0.13736995764E+04  0.27524991593E+03 0.  0.
         25    2    3    3    0    0  0.49559001921E+02  0.34418350898E+02  0.78251720631E+03  0.79366086477E+03  0.11799861246E+03 0.  0.
         25    2    3    3    0    0 -0.49559001921E+02 -0.34418350898E+02  0.56332379842E+03  0.58003871164E+03  0.12438041481E+03 0.  0.
          5    1    4    4  502    0  0.82955587529E+01  0.60010302945E+02  0.19805599296E+03  0.20716736978E+03  0.47000000000E+01 0.  1.
         -5    1    4    4    0  502  0.41263443168E+02 -0.25591952047E+02  0.58446121335E+03  0.58649349499E+03  0.47000000000E+01 0.  1.
          5    1    5    5  503    0  0.37787943361E+02 -0.30521506608E+02  0.24954525764E+03  0.25427232771E+03  0.47000000000E+01 0.  1.
         -5    1    5    5    0  503 -0.87346945282E+02 -0.38968442897E+01  0.31377854078E+03  0.32576638393E+03  0.47000000000E+01 0.  1.
<mgrwt>
<rscale>  0 0.27524992E+03</rscale>
<asrwt>0</asrwt>
<pdfrwt beam="1">  1        2 0.21429681E-02 0.27524992E+03</pdfrwt>
<pdfrwt beam="2">  1       -2 0.20919532E+00 0.27524992E+03</pdfrwt>
<totfact> 0.62857398E+02</totfact>
</mgrwt>
</event>
<event>
 9    1  0.2114844E-002  0.2743089E+03  0.7818608E-02  0.1098839E+00
          2   -1    0    0  501    0  0.00000000000E+00  0.00000000000E+00  0.37231310847E+04  0.37231310847E+04  0.00000000000E+00 0.  1.
         -2   -1    0    0    0  501 -0.00000000000E+00 -0.00000000000E+00 -0.50525597684E+01  0.50525597684E+01  0.00000000000E+00 0.  1.
         36    2    1    2    0    0  0.00000000000E+00  0.71054273576E-14  0.37180785249E+04  0.37281836445E+04  0.27430889399E+03 0.  0.
         25    2    3    3    0    0 -0.65871428193E+02 -0.15971765293E+02  0.19148404090E+04  0.19204546045E+04  0.13014589380E+03 0.  0.
         25    2    3    3    0    0  0.65871428193E+02  0.15971765293E+02  0.18032381159E+04  0.18077290400E+04  0.10780740629E+03 0.  0.
          5    1    4    4  502    0 -0.73352189261E+02  0.37609765422E+02  0.78972465639E+03  0.79402906813E+03  0.47000000000E+01 0.  1.
         -5    1    4    4    0  502  0.74807610675E+01 -0.53581530715E+02  0.11251157526E+04  0.11264255364E+04  0.47000000000E+01 0.  1.
          5    1    5    5  503    0  0.67728100839E+02  0.93502582812E+01  0.52384489126E+03  0.52830870055E+03  0.47000000000E+01 0. -1.
         -5    1    5    5    0  503 -0.18566726457E+01  0.66215070120E+01  0.12793932247E+04  0.12794203394E+04  0.47000000000E+01 0. -1.
<mgrwt>
<rscale>  0 0.27430889E+03</rscale>
<asrwt>0</asrwt>
<pdfrwt beam="1">  1        2 0.57278720E+00 0.27430889E+03</pdfrwt>
<pdfrwt beam="2">  1       -2 0.77731986E-03 0.27430889E+03</pdfrwt>
<totfact> 0.21946853E+03</totfact>
</mgrwt>
</event>
<event>
 9    1  0.2114844E-002  0.2758279E+03  0.7818608E-02  0.1097990E+00
          2   -1    0    0  501    0  0.00000000000E+00  0.00000000000E+00  0.21927804280E+03  0.21927804280E+03  0.00000000000E+00 0.  1.
         -2   -1    0    0    0  501 -0.00000000000E+00 -0.00000000000E+00 -0.86740373950E+02  0.86740373950E+02  0.00000000000E+00 0.  1.
         36    2    1    2    0    0 -0.71054273576E-14  0.71054273576E-14  0.13253766885E+03  0.30601841675E+03  0.27582791325E+03 0.  0.
         25    2    3    3    0    0 -0.58456621043E+02  0.31369174089E+02  0.63870161955E+02  0.14741668472E+03  0.11511333423E+03 0.  0.
         25    2    3    3    0    0  0.58456621043E+02 -0.31369174089E+02  0.68667506893E+02  0.15860173203E+03  0.12664154640E+03 0.  0.
          5    1    4    4  502    0 -0.85815205958E+02  0.44978545588E+02  0.64509439149E+02  0.11649410662E+03  0.47000000000E+01 0.  1.
         -5    1    4    4    0  502  0.27358584915E+02 -0.13609371499E+02 -0.63927719440E+00  0.30922578102E+02  0.47000000000E+01 0.  1.
          5    1    5    5  503    0 -0.52184123904E+01  0.25947212401E+02  0.67650022405E+02  0.72794953058E+02  0.47000000000E+01 0. -1.
         -5    1    5    5    0  503  0.63675033434E+02 -0.57316386490E+02  0.10174844879E+01  0.85806778973E+02  0.47000000000E+01 0. -1.
<mgrwt>
<rscale>  0 0.27582791E+03</rscale>
<asrwt>0</asrwt>
<pdfrwt beam="1">  1        2 0.33735083E-01 0.27582791E+03</pdfrwt>
<pdfrwt beam="2">  1       -2 0.13344673E-01 0.27582791E+03</pdfrwt>
<totfact> 0.63520162E+03</totfact>
</mgrwt>
</event>
<event>
 9    1  0.2114844E-002  0.2751742E+03  0.7818608E-02  0.1098354E+00
         -2   -1    0    0    0  501 -0.00000000000E+00  0.00000000000E+00  0.19029914198E+02  0.19029914198E+02  0.00000000000E+00 0.  1.
          2   -1    0    0  501    0  0.00000000000E+00 -0.00000000000E+00 -0.99476063317E+03  0.99476063317E+03  0.00000000000E+00 0.  1.
         36    2    1    2    0    0  0.00000000000E+00  0.71054273576E-14 -0.97573071898E+03  0.10137905474E+04  0.27517419571E+03 0.  0.
         25    2    3    3    0    0 -0.30786055411E+02  0.49267312421E+02 -0.47760036752E+03  0.49719658649E+03  0.12540847372E+03 0.  0.
         25    2    3    3    0    0  0.30786055411E+02 -0.49267312421E+02 -0.49813035146E+03  0.51659396088E+03  0.12393717802E+03 0.  0.
          5    1    4    4  502    0 -0.44428933105E+02 -0.17082908070E+02 -0.75307492928E+02  0.89213588293E+02  0.47000000000E+01 0. -1.
         -5    1    4    4    0  502  0.13642877694E+02  0.66350220491E+02 -0.40229287459E+03  0.40798299820E+03  0.47000000000E+01 0. -1.
          5    1    5    5  503    0  0.36431319557E+02 -0.55113159592E+01 -0.44844940505E+03  0.44998508257E+03  0.47000000000E+01 0.  1.
         -5    1    5    5    0  503 -0.56452641464E+01 -0.43755996462E+02 -0.49680946408E+02  0.66608878309E+02  0.47000000000E+01 0.  1.
<mgrwt>
<rscale>  0 0.27517420E+03</rscale>
<asrwt>0</asrwt>
<pdfrwt beam="1">  1        2 0.15304010E+00 0.27517420E+03</pdfrwt>
<pdfrwt beam="2">  1       -2 0.29276791E-02 0.27517420E+03</pdfrwt>
<totfact> 0.11591574E+04</totfact>
</mgrwt>
</event>
<event>
 9    1  0.2114844E-002  0.2751371E+03  0.7818608E-02  0.1098375E+00
          1   -1    0    0  501    0  0.00000000000E+00  0.00000000000E+00  0.19188311778E+04  0.19188311778E+04  0.00000000000E+00 0. -1.
         -1   -1    0    0    0  501 -0.00000000000E+00 -0.00000000000E+00 -0.98628320202E+01  0.98628320202E+01  0.00000000000E+00 0. -1.
         36    2    1    2    0    0  0.00000000000E+00  0.00000000000E+00  0.19089683458E+04  0.19286940099E+04  0.27513712641E+03 0.  0.
         25    2    3    3    0    0 -0.50947925463E+02 -0.59835706905E+01  0.84840317333E+03  0.85926298942E+03  0.12614850868E+03 0.  0.
         25    2    3    3    0    0  0.50947925463E+02  0.59835706905E+01  0.10605651725E+04  0.10694310204E+04  0.12748618810E+03 0.  0.
          5    1    4    4  502    0 -0.75316955717E+02 -0.20282614717E+02  0.79349301991E+03  0.79733135579E+03  0.47000000000E+01 0.  1.
         -5    1    4    4    0  502  0.24369030254E+02  0.14299044027E+02  0.54910153424E+02  0.61931633635E+02  0.47000000000E+01 0.  1.
          5    1    5    5  503    0  0.29906318415E+02 -0.51906795816E+02  0.27742039929E+03  0.28385360888E+03  0.47000000000E+01 0. -1.
         -5    1    5    5    0  503  0.21041607048E+02  0.57890366506E+02  0.78314477319E+03  0.78557741155E+03  0.47000000000E+01 0. -1.
<mgrwt>
<rscale>  0 0.27513713E+03</rscale>
<asrwt>0</asrwt>
<pdfrwt beam="1">  1        1 0.29520450E+00 0.27513713E+03</pdfrwt>
<pdfrwt beam="2">  1       -1 0.15173603E-02 0.27513713E+03</pdfrwt>
<totfact> 0.39096189E+03</totfact>
</mgrwt>
</event>
<event>
 9    1  0.2114844E-002  0.2852410E+03  0.7818608E-02  0.1092860E+00
         -2   -1    0    0    0  501 -0.00000000000E+00  0.00000000000E+00  0.52543015999E+03  0.52543015999E+03  0.00000000000E+00 0. -1.
          2   -1    0    0  501    0  0.00000000000E+00 -0.00000000000E+00 -0.38712283747E+02  0.38712283747E+02  0.00000000000E+00 0. -1.
         36    2    1    2    0    0  0.35527136788E-14  0.00000000000E+00  0.48671787625E+03  0.56414244374E+03  0.28524096089E+03 0.  0.
         25    2    3    3    0    0  0.81412730744E+00 -0.37650891531E+01  0.11584474762E+03  0.16931698950E+03  0.12342365528E+03 0.  0.
         25    2    3    3    0    0 -0.81412730744E+00  0.37650891531E+01  0.37087312863E+03  0.39482545424E+03  0.13537142638E+03 0.  0.
          5    1    4    4  502    0  0.32679047926E+02 -0.34800505397E+02  0.11497406275E+03  0.12457977546E+03  0.47000000000E+01 0.  1.
         -5    1    4    4    0  502 -0.31864920619E+02  0.31035416244E+02  0.87068487032E+00  0.44737214035E+02  0.47000000000E+01 0.  1.
          5    1    5    5  503    0  0.55560273390E+02  0.23405902540E+02  0.95647015635E+02  0.11316016018E+03  0.47000000000E+01 0.  1.
         -5    1    5    5    0  503 -0.56374400698E+02 -0.19640813387E+02  0.27522611299E+03  0.28166529406E+03  0.47000000000E+01 0.  1.
<mgrwt>
<rscale>  0 0.28524096E+03</rscale>
<asrwt>0</asrwt>
<pdfrwt beam="1">  1        2 0.59557363E-02 0.28524096E+03</pdfrwt>
<pdfrwt beam="2">  1       -2 0.80835404E-01 0.28524096E+03</pdfrwt>
<totfact> 0.17359527E+03</totfact>
</mgrwt>
</event>
<event>
 9    1  0.2114844E-002  0.2742521E+03  0.7818608E-02  0.1098870E+00
          1   -1    0    0  501    0  0.00000000000E+00  0.00000000000E+00  0.41568493683E+03  0.41568493683E+03  0.00000000000E+00 0.  1.
         -1   -1    0    0    0  501 -0.00000000000E+00 -0.00000000000E+00 -0.45235095036E+02  0.45235095036E+02  0.00000000000E+00 0.  1.
         36    2    1    2    0    0 -0.35527136788E-14 -0.71054273576E-14  0.37044984180E+03  0.46092003187E+03  0.27425205649E+03 0.  0.
         25    2    3    3    0    0 -0.21235410718E+02 -0.45336721623E+02  0.14897468771E+03  0.19932839772E+03  0.12260502259E+03 0.  0.
         25    2    3    3    0    0  0.21235410718E+02  0.45336721623E+02  0.22147515408E+03  0.26159163415E+03  0.12989448866E+03 0.  0.
          5    1    4    4  502    0 -0.42971760211E+02 -0.16495730987E+02  0.31178626570E+00  0.46269520498E+02  0.47000000000E+01 0.  1.
         -5    1    4    4    0  502  0.21736349493E+02 -0.28840990636E+02  0.14866290145E+03  0.15305887722E+03  0.47000000000E+01 0.  1.
          5    1    5    5  503    0 -0.33851326248E+02  0.13440636816E+02  0.18388704219E+03  0.18751825856E+03  0.47000000000E+01 0. -1.
         -5    1    5    5    0  503  0.55086736967E+02  0.31896084807E+02  0.37588111895E+02  0.74073375591E+02  0.47000000000E+01 0. -1.
<mgrwt>
<rscale>  0 0.27425206E+03</rscale>
<asrwt>0</asrwt>
<pdfrwt beam="1">  1        1 0.63951526E-01 0.27425206E+03</pdfrwt>
<pdfrwt beam="2">  1       -1 0.69592457E-02 0.27425206E+03</pdfrwt>
<totfact> 0.61089026E+03</totfact>
</mgrwt>
</event>
<event>
 9    1  0.2114844E-002  0.2744349E+03  0.7818608E-02  0.1098768E+00
          2   -1    0    0  501    0  0.00000000000E+00  0.00000000000E+00  0.11336916086E+03  0.11336916086E+03  0.00000000000E+00 0. -1.
         -2   -1    0    0    0  501 -0.00000000000E+00 -0.00000000000E+00 -0.16608246573E+03  0.16608246573E+03  0.00000000000E+00 0. -1.
         36    2    1    2    0    0 -0.71054273576E-14  0.00000000000E+00 -0.52713304875E+02  0.27945162659E+03  0.27443490866E+03 0.  0.
         25    2    3    3    0    0  0.49700970328E+02 -0.11922272478E+02 -0.40136072981E+02  0.14112147736E+03  0.12526787291E+03 0.  0.
         25    2    3    3    0    0 -0.49700970328E+02  0.11922272478E+02 -0.12577231893E+02  0.13833014923E+03  0.12792465123E+03 0.  0.
          5    1    4    4  502    0  0.78598053105E+02  0.25964217598E+02 -0.76506736299E+01  0.83261139521E+02  0.47000000000E+01 0. -1.
         -5    1    4    4    0  502 -0.28897082776E+02 -0.37886490076E+02 -0.32485399351E+02  0.57860337834E+02  0.47000000000E+01 0. -1.
          5    1    5    5  503    0  0.39964680293E+02 -0.15417923188E+02  0.29585601885E+01  0.43194109607E+02  0.47000000000E+01 0.  1.
         -5    1    5    5    0  503 -0.89665650621E+02  0.27340195667E+02 -0.15535792082E+02  0.95136039627E+02  0.47000000000E+01 0.  1.
<mgrwt>
<rscale>  0 0.27443491E+03</rscale>
<asrwt>0</asrwt>
<pdfrwt beam="1">  1        2 0.17441409E-01 0.27443491E+03</pdfrwt>
<pdfrwt beam="2">  1       -2 0.25551149E-01 0.27443491E+03</pdfrwt>
<totfact> 0.44267210E+03</totfact>
</mgrwt>
</event>
<event>
 9    1  0.2114844E-002  0.2763689E+03  0.7818608E-02  0.1097689E+00
          1   -1    0    0  501    0  0.00000000000E+00  0.00000000000E+00  0.24364593161E+03  0.24364593161E+03  0.00000000000E+00 0. -1.
         -1   -1    0    0    0  501 -0.00000000000E+00 -0.00000000000E+00 -0.78371659717E+02  0.78371659717E+02  0.00000000000E+00 0. -1.
         36    2    1    2    0    0  0.71054273576E-14  0.71054273576E-14  0.16527427189E+03  0.32201759132E+03  0.27636885529E+03 0.  0.
         25    2    3    3    0    0 -0.45022434144E+02  0.26689367319E+02  0.10759657104E+03  0.17410595967E+03  0.12647735445E+03 0.  0.
         25    2    3    3    0    0  0.45022434144E+02 -0.26689367319E+02  0.57677700852E+02  0.14791163166E+03  0.12574494701E+03 0.  0.
          5    1    4    4  502    0 -0.11045425153E+02  0.61382944613E+02  0.10858352722E+03  0.12530897689E+03  0.47000000000E+01 0.  1.
         -5    1    4    4    0  502 -0.33977008991E+02 -0.34693577294E+02 -0.98695618362E+00  0.48796982775E+02  0.47000000000E+01 0.  1.
          5    1    5    5  503    0  0.56344057362E+02 -0.32938032380E+02 -0.20470329616E+02  0.68561586706E+02  0.47000000000E+01 0. -1.
         -5    1    5    5    0  503 -0.11321623218E+02  0.62486650608E+01  0.78148030468E+02  0.79350044949E+02  0.47000000000E+01 0. -1.
<mgrwt>
<rscale>  0 0.27636886E+03</rscale>
<asrwt>0</asrwt>
<pdfrwt beam="1">  1        1 0.37483989E-01 0.27636886E+03</pdfrwt>
<pdfrwt beam="2">  1       -1 0.12057179E-01 0.27636886E+03</pdfrwt>
<totfact> 0.51541587E+03</totfact>
</mgrwt>
</event>
<event>
 9    1  0.2114844E-002  0.2720689E+03  0.7818608E-02  0.1100101E+00
         -1   -1    0    0    0  501 -0.00000000000E+00  0.00000000000E+00  0.12974516411E+02  0.12974516411E+02  0.00000000000E+00 0.  1.
          1   -1    0    0  501    0  0.00000000000E+00 -0.00000000000E+00 -0.14262858812E+04  0.14262858812E+04  0.00000000000E+00 0.  1.
         36    2    1    2    0    0  0.71054273576E-14  0.00000000000E+00 -0.14133113648E+04  0.14392603976E+04  0.27206888519E+03 0.  0.
         25    2    3    3    0    0  0.22968195127E+02 -0.22753022630E+02 -0.62190342586E+03  0.63535427216E+03  0.12596008113E+03 0.  0.
         25    2    3    3    0    0 -0.22968195127E+02  0.22753022630E+02 -0.79140793891E+03  0.80390612542E+03  0.13745288175E+03 0.  0.
          5    1    4    4  502    0 -0.41179521695E+02 -0.25037517531E+01 -0.42899689270E+03  0.43100167717E+03  0.47000000000E+01 0. -1.
         -5    1    4    4    0  502  0.64147716822E+02 -0.20249270877E+02 -0.19290653316E+03  0.20435259499E+03  0.47000000000E+01 0. -1.
          5    1    5    5  503    0  0.54890641363E+02  0.24940615375E+02 -0.42504396788E+03  0.42932444775E+03  0.47000000000E+01 0. -1.
         -5    1    5    5    0  503 -0.77858836491E+02 -0.21875927445E+01 -0.36636397102E+03  0.37458167767E+03  0.47000000000E+01 0. -1.
<mgrwt>
<rscale>  0 0.27206889E+03</rscale>
<asrwt>0</asrwt>
<pdfrwt beam="1">  1        1 0.21942871E+00 0.27206889E+03</pdfrwt>
<pdfrwt beam="2">  1       -1 0.19960784E-02 0.27206889E+03</pdfrwt>
<totfact> 0.55098093E+03</totfact>
</mgrwt>
</event>
<event>
 9    1  0.2114844E-002  0.2770653E+03  0.7818608E-02  0.1097303E+00
         -2   -1    0    0    0  501 -0.00000000000E+00  0.00000000000E+00  0.98860731094E+01  0.98860731094E+01  0.00000000000E+00 0. -1.
          2   -1    0    0  501    0  0.00000000000E+00 -0.00000000000E+00 -0.19412452430E+04  0.19412452430E+04  0.00000000000E+00 0. -1.
         36    2    1    2    0    0  0.35527136788E-14  0.71054273576E-14 -0.19313591699E+04  0.19511313161E+04  0.27706528036E+03 0.  0.
         25    2    3    3    0    0 -0.13970694504E+02 -0.55112715475E+02 -0.10313951005E+04  0.10402748347E+04  0.12313929743E+03 0.  0.
         25    2    3    3    0    0  0.13970694504E+02  0.55112715475E+02 -0.89996406937E+03  0.91085648143E+03  0.12841967100E+03 0.  0.
          5    1    4    4  502    0 -0.19613362384E+02 -0.85849368633E+02 -0.48400631635E+03  0.49197459523E+03  0.47000000000E+01 0.  1.
         -5    1    4    4    0  502  0.56426678800E+01  0.30736653159E+02 -0.54738878414E+03  0.54830023943E+03  0.47000000000E+01 0.  1.
          5    1    5    5  503    0 -0.36946152588E+02  0.49319128167E+02 -0.20814923022E+03  0.21713034480E+03  0.47000000000E+01 0.  1.
         -5    1    5    5    0  503  0.50916847092E+02  0.57935873076E+01 -0.69181483915E+03  0.69372613663E+03  0.47000000000E+01 0.  1.
<mgrwt>
<rscale>  0 0.27706528E+03</rscale>
<asrwt>0</asrwt>
<pdfrwt beam="1">  1        2 0.29865265E+00 0.27706528E+03</pdfrwt>
<pdfrwt beam="2">  1       -2 0.15209367E-02 0.27706528E+03</pdfrwt>
<totfact> 0.92235635E+03</totfact>
</mgrwt>
</event>
<event>
 9    1  0.2114844E-002  0.2748869E+03  0.7818608E-02  0.1098515E+00
          1   -1    0    0  501    0  0.00000000000E+00  0.00000000000E+00  0.21465800209E+03  0.21465800209E+03  0.00000000000E+00 0.  1.
         -1   -1    0    0    0  501 -0.00000000000E+00 -0.00000000000E+00 -0.88003720285E+02  0.88003720285E+02  0.00000000000E+00 0.  1.
         36    2    1    2    0    0 -0.35527136788E-14  0.00000000000E+00  0.12665428180E+03  0.30266172238E+03  0.27488690600E+03 0.  0.
         25    2    3    3    0    0  0.27024048918E+02  0.56319947638E+01 -0.32371546400E+01  0.12684057133E+03  0.12375796047E+03 0.  0.
         25    2    3    3    0    0 -0.27024048918E+02 -0.56319947638E+01  0.12989143644E+03  0.17582115105E+03  0.11523572931E+03 0.  0.
          5    1    4    4  502    0 -0.14785154834E+02 -0.16777958028E+02  0.50245423628E+02  0.55197765123E+02  0.47000000000E+01 0. -1.
         -5    1    4    4    0  502  0.41809203751E+02  0.22409952792E+02 -0.53482578268E+02  0.71642806203E+02  0.47000000000E+01 0. -1.
          5    1    5    5  503    0  0.30669375996E+02  0.32969217858E+01  0.10941298011E+03  0.11377508749E+03  0.47000000000E+01 0.  1.
         -5    1    5    5    0  503 -0.57693424913E+02 -0.89289165496E+01  0.20478456332E+02  0.62046063556E+02  0.47000000000E+01 0.  1.
<mgrwt>
<rscale>  0 0.27488691E+03</rscale>
<asrwt>0</asrwt>
<pdfrwt beam="1">  1        1 0.33024308E-01 0.27488691E+03</pdfrwt>
<pdfrwt beam="2">  1       -1 0.13539034E-01 0.27488691E+03</pdfrwt>
<totfact> 0.50378690E+03</totfact>
</mgrwt>
</event>
<event>
 9    1  0.2114844E-002  0.2755633E+03  0.7818608E-02  0.1098137E+00
          2   -1    0    0  501    0  0.00000000000E+00  0.00000000000E+00  0.73773100236E+02  0.73773100236E+02  0.00000000000E+00 0.  1.
         -2   -1    0    0    0  501 -0.00000000000E+00 -0.00000000000E+00 -0.25732659212E+03  0.25732659212E+03  0.00000000000E+00 0.  1.
         36    2    1    2    0    0  0.35527136788E-14 -0.35527136788E-14 -0.18355349189E+03  0.33109969236E+03  0.27556328111E+03 0.  0.
         25    2    3    3    0    0  0.26947296438E+02 -0.66511836160E+01 -0.27108778938E+02  0.13194890239E+03  0.12611594633E+03 0.  0.
         25    2    3    3    0    0 -0.26947296438E+02  0.66511836160E+01 -0.15644471295E+03  0.19915078997E+03  0.12006537347E+03 0.  0.
          5    1    4    4  502    0 -0.34824137852E+01 -0.57060345930E+02  0.15142444163E+02  0.59324479759E+02  0.47000000000E+01 0. -1.
         -5    1    4    4    0  502  0.30429710223E+02  0.50409162314E+02 -0.42251223101E+02  0.72624422634E+02  0.47000000000E+01 0. -1.
          5    1    5    5  503    0 -0.49321883669E+01 -0.22746895167E+02  0.12055492229E+02  0.26630295055E+02  0.47000000000E+01 0. -1.
         -5    1    5    5    0  503 -0.22015108071E+02  0.29398078783E+02 -0.16850020518E+03  0.17252049491E+03  0.47000000000E+01 0. -1.
<mgrwt>
<rscale>  0 0.27556328E+03</rscale>
<asrwt>0</asrwt>
<pdfrwt beam="1">  1        2 0.11349708E-01 0.27556328E+03</pdfrwt>
<pdfrwt beam="2">  1       -2 0.39588707E-01 0.27556328E+03</pdfrwt>
<totfact> 0.33117259E+03</totfact>
</mgrwt>
</event>
<event>
 9    1  0.2114844E-002  0.2744670E+03  0.7818608E-02  0.1098750E+00
          1   -1    0    0  501    0  0.00000000000E+00  0.00000000000E+00  0.17888230648E+03  0.17888230648E+03  0.00000000000E+00 0.  1.
         -1   -1    0    0    0  501 -0.00000000000E+00 -0.00000000000E+00 -0.10528170971E+03  0.10528170971E+03  0.00000000000E+00 0.  1.
         36    2    1    2    0    0 -0.17763568394E-14 -0.71054273576E-14  0.73600596762E+02  0.28416401619E+03  0.27446701123E+03 0.  0.
         25    2    3    3    0    0  0.15015459291E+02 -0.49449561857E+02  0.43858706439E+02  0.14543235016E+03  0.12867112790E+03 0.  0.
         25    2    3    3    0    0 -0.15015459291E+02  0.49449561857E+02  0.29741890323E+02  0.13873166603E+03  0.12526440809E+03 0.  0.
          5    1    4    4  502    0 -0.14645183395E+02  0.99649705800E+01 -0.36642494030E+02  0.40970042763E+02  0.47000000000E+01 0.  1.
         -5    1    4    4    0  502  0.29660642685E+02 -0.59414532437E+02  0.80501200468E+02  0.10446230739E+03  0.47000000000E+01 0.  1.
          5    1    5    5  503    0 -0.41435619210E+02 -0.11211425686E+02 -0.27433453463E+02  0.51159466125E+02  0.47000000000E+01 0.  1.
         -5    1    5    5    0  503  0.26420159919E+02  0.60660987544E+02  0.57175343786E+02  0.87572199909E+02  0.47000000000E+01 0.  1.
<mgrwt>
<rscale>  0 0.27446701E+03</rscale>
<asrwt>0</asrwt>
<pdfrwt beam="1">  1        1 0.27520355E-01 0.27446701E+03</pdfrwt>
<pdfrwt beam="2">  1       -1 0.16197186E-01 0.27446701E+03</pdfrwt>
<totfact> 0.47721348E+03</totfact>
</mgrwt>
</event>
<event>
 9    1  0.2114844E-002  0.2694804E+03  0.7818608E-02  0.1101577E+00
         -3   -1    0    0    0  501 -0.00000000000E+00  0.00000000000E+00  0.35762391687E+02  0.35762391687E+02  0.00000000000E+00 0. -1.
          3   -1    0    0  501    0  0.00000000000E+00 -0.00000000000E+00 -0.50765407598E+03  0.50765407598E+03  0.00000000000E+00 0. -1.
         36    2    1    2    0    0  0.00000000000E+00  0.35527136788E-14 -0.47189168430E+03  0.54341646767E+03  0.26948041789E+03 0.  0.
         25    2    3    3    0    0 -0.12722335985E+02  0.16962300124E+02 -0.33337861116E+03  0.35601861117E+03  0.12311935536E+03 0.  0.
         25    2    3    3    0    0  0.12722335985E+02 -0.16962300124E+02 -0.13851307313E+03  0.18739785650E+03  0.12442872551E+03 0.  0.
          5    1    4    4  502    0  0.16262293979E+02 -0.42876196474E+02 -0.66314419118E+02  0.80762136008E+02  0.47000000000E+01 0. -1.
         -5    1    4    4    0  502 -0.28984629964E+02  0.59838496598E+02 -0.26706419204E+03  0.27525647517E+03  0.47000000000E+01 0. -1.
          5    1    5    5  503    0 -0.55672452520E+02 -0.51520006148E+01 -0.70583182242E+02  0.90166738298E+02  0.47000000000E+01 0.  1.
         -5    1    5    5    0  503  0.68394788505E+02 -0.11810299509E+02 -0.67929890893E+02  0.97231118197E+02  0.47000000000E+01 0.  1.
<mgrwt>
<rscale>  0 0.26948042E+03</rscale>
<asrwt>0</asrwt>
<pdfrwt beam="1">  1        3 0.78100623E-01 0.26948042E+03</pdfrwt>
<pdfrwt beam="2">  1       -3 0.55019067E-02 0.26948042E+03</pdfrwt>
<totfact> 0.78029021E+02</totfact>
</mgrwt>
</event>
<event>
 9    1  0.2114844E-002  0.2741476E+03  0.7818608E-02  0.1098929E+00
         -1   -1    0    0    0  501 -0.00000000000E+00  0.00000000000E+00  0.10748903147E+03  0.10748903147E+03  0.00000000000E+00 0. -1.
          1   -1    0    0  501    0  0.00000000000E+00 -0.00000000000E+00 -0.17480133789E+03  0.17480133789E+03  0.00000000000E+00 0. -1.
         36    2    1    2    0    0  0.00000000000E+00  0.71054273576E-14 -0.67312306424E+02  0.28229036936E+03  0.27414759900E+03 0.  0.
         25    2    3    3    0    0 -0.46797928642E+02  0.15946005674E+02 -0.33375466690E+02  0.14295004082E+03  0.12990947298E+03 0.  0.
         25    2    3    3    0    0  0.46797928642E+02 -0.15946005674E+02 -0.33936839733E+02  0.13934032854E+03  0.12577637634E+03 0.  0.
          5    1    4    4  502    0  0.13780697604E+02  0.38544112436E+02 -0.60069492720E+02  0.72842228038E+02  0.47000000000E+01 0.  1.
         -5    1    4    4    0  502 -0.60578626246E+02 -0.22598106761E+02  0.26694026029E+02  0.70107812779E+02  0.47000000000E+01 0.  1.
          5    1    5    5  503    0  0.63459751584E+02  0.36934751927E+02  0.11031089037E+01  0.73584120707E+02  0.47000000000E+01 0.  1.
         -5    1    5    5    0  503 -0.16661822942E+02 -0.52880757601E+02 -0.35039948637E+02  0.65756207834E+02  0.47000000000E+01 0.  1.
<mgrwt>
<rscale>  0 0.27414760E+03</rscale>
<asrwt>0</asrwt>
<pdfrwt beam="1">  1        1 0.26892514E-01 0.27414760E+03</pdfrwt>
<pdfrwt beam="2">  1       -1 0.16536774E-01 0.27414760E+03</pdfrwt>
<totfact> 0.47533854E+03</totfact>
</mgrwt>
</event>
<event>
 9    1  0.2114844E-002  0.2821770E+03  0.7818608E-02  0.1094506E+00
          1   -1    0    0  501    0  0.00000000000E+00  0.00000000000E+00  0.38048367061E+03  0.38048367061E+03  0.00000000000E+00 0.  1.
         -1   -1    0    0    0  501 -0.00000000000E+00 -0.00000000000E+00 -0.52317515618E+02  0.52317515618E+02  0.00000000000E+00 0.  1.
         36    2    1    2    0    0  0.71054273576E-14 -0.17763568394E-14  0.32816615499E+03  0.43280118623E+03  0.28217696844E+03 0.  0.
         25    2    3    3    0    0 -0.18835901172E+02 -0.17039923230E+01  0.13002932909E+03  0.19764913527E+03  0.14764775477E+03 0.  0.
         25    2    3    3    0    0  0.18835901172E+02  0.17039923230E+01  0.19813682591E+03  0.23515205096E+03  0.12522216467E+03 0.  0.
          5    1    4    4  502    0  0.79843455090E+01  0.21384636468E+02  0.15328234875E+03  0.15504393213E+03  0.47000000000E+01 0. -1.
         -5    1    4    4    0  502 -0.26820246681E+02 -0.23088628791E+02 -0.23253019667E+02  0.42605203146E+02  0.47000000000E+01 0. -1.
          5    1    5    5  503    0  0.70054045810E+02 -0.51392078441E+01  0.82807451442E+02  0.10868829195E+03  0.47000000000E+01 0. -1.
         -5    1    5    5    0  503 -0.51218144638E+02  0.68432001671E+01  0.11532937446E+03  0.12646375901E+03  0.47000000000E+01 0. -1.
<mgrwt>
<rscale>  0 0.28217697E+03</rscale>
<asrwt>0</asrwt>
<pdfrwt beam="1">  1        1 0.58535947E-01 0.28217697E+03</pdfrwt>
<pdfrwt beam="2">  1       -1 0.80488488E-02 0.28217697E+03</pdfrwt>
<totfact> 0.54879704E+03</totfact>
</mgrwt>
</event>
<event>
 9    1  0.2114844E-002  0.2734997E+03  0.7818608E-02  0.1099293E+00
          1   -1    0    0  501    0  0.00000000000E+00  0.00000000000E+00  0.80318601410E+03  0.80318601410E+03  0.00000000000E+00 0. -1.
         -1   -1    0    0    0  501 -0.00000000000E+00 -0.00000000000E+00 -0.23282920170E+02  0.23282920170E+02  0.00000000000E+00 0. -1.
         36    2    1    2    0    0  0.00000000000E+00 -0.35527136788E-14  0.77990309393E+03  0.82646893427E+03  0.27349965885E+03 0.  0.
         25    2    3    3    0    0  0.39896998196E+02 -0.96381756542E+01  0.49665180409E+03  0.51345484429E+03  0.12364545170E+03 0.  0.
         25    2    3    3    0    0 -0.39896998196E+02  0.96381756542E+01  0.28325128984E+03  0.31301408997E+03  0.12673540324E+03 0.  0.
          5    1    4    4  502    0  0.57211590788E+01 -0.19068989434E+02  0.57455091272E+01  0.21247562081E+02  0.47000000000E+01 0. -1.
         -5    1    4    4    0  502  0.34175839117E+02  0.94308137800E+01  0.49090629496E+03  0.49220728221E+03  0.47000000000E+01 0. -1.
          5    1    5    5  503    0 -0.34417233819E+02 -0.42574378660E+02  0.51379394820E+02  0.75226696818E+02  0.47000000000E+01 0. -1.
         -5    1    5    5    0  503 -0.54797643768E+01  0.52212554314E+02  0.23187189502E+03  0.23778739316E+03  0.47000000000E+01 0. -1.
<mgrwt>
<rscale>  0 0.27349966E+03</rscale>
<asrwt>0</asrwt>
<pdfrwt beam="1">  1        1 0.12356706E+00 0.27349966E+03</pdfrwt>
<pdfrwt beam="2">  1       -1 0.35819883E-02 0.27349966E+03</pdfrwt>
<totfact> 0.66250568E+03</totfact>
</mgrwt>
</event>
<event>
 9    1  0.2114844E-002  0.2747838E+03  0.7818608E-02  0.1098572E+00
         -2   -1    0    0    0  501 -0.00000000000E+00  0.00000000000E+00  0.14222086843E+02  0.14222086843E+02  0.00000000000E+00 0. -1.
          2   -1    0    0  501    0  0.00000000000E+00 -0.00000000000E+00 -0.13272692844E+04  0.13272692844E+04  0.00000000000E+00 0. -1.
         36    2    1    2    0    0  0.00000000000E+00  0.00000000000E+00 -0.13130471975E+04  0.13414913712E+04  0.27478383523E+03 0.  0.
         25    2    3    3    0    0  0.86068947531E+01 -0.28276472274E+02 -0.81167340336E+03  0.82196915459E+03  0.12627723413E+03 0.  0.
         25    2    3    3    0    0 -0.86068947531E+01  0.28276472274E+02 -0.50137379418E+03  0.51952221663E+03  0.13286841070E+03 0.  0.
          5    1    4    4  502    0 -0.32714671161E+01 -0.71792056024E+02 -0.31027564907E+03  0.31852452058E+03  0.47000000000E+01 0. -1.
         -5    1    4    4    0  502  0.11878361869E+02  0.43515583750E+02 -0.50139775429E+03  0.50344463402E+03  0.47000000000E+01 0. -1.
          5    1    5    5  503    0 -0.57058284239E+02  0.45900876396E+02 -0.38812737824E+03  0.39500315188E+03  0.47000000000E+01 0.  1.
         -5    1    5    5    0  503  0.48451389486E+02 -0.17624404122E+02 -0.11324641594E+03  0.12451906475E+03  0.47000000000E+01 0.  1.
<mgrwt>
<rscale>  0 0.27478384E+03</rscale>
<asrwt>0</asrwt>
<pdfrwt beam="1">  1        2 0.20419523E+00 0.27478384E+03</pdfrwt>
<pdfrwt beam="2">  1       -2 0.21880139E-02 0.27478384E+03</pdfrwt>
<totfact> 0.11464539E+04</totfact>
</mgrwt>
</event>
<event>
 9    1  0.2114844E-002  0.2764922E+03  0.7818608E-02  0.1097620E+00
         -1   -1    0    0    0  501 -0.00000000000E+00  0.00000000000E+00  0.30302818572E+02  0.30302818572E+02  0.00000000000E+00 0. -1.
          1   -1    0    0  501    0  0.00000000000E+00 -0.00000000000E+00 -0.63070003956E+03  0.63070003956E+03  0.00000000000E+00 0. -1.
         36    2    1    2    0    0  0.35527136788E-14  0.00000000000E+00 -0.60039722099E+03  0.66100285814E+03  0.27649223405E+03 0.  0.
         25    2    3    3    0    0 -0.13319870248E+02 -0.44500380892E+02 -0.37708427557E+03  0.40048259451E+03  0.12663354525E+03 0.  0.
         25    2    3    3    0    0  0.13319870248E+02  0.44500380892E+02 -0.22331294542E+03  0.26052026363E+03  0.12587467308E+03 0.  0.
          5    1    4    4  502    0 -0.57016030273E+02  0.14403701813E+02 -0.13127243059E+03  0.14391954477E+03  0.47000000000E+01 0.  1.
         -5    1    4    4    0  502  0.43696160025E+02 -0.58904082705E+02 -0.24581184498E+03  0.25656304974E+03  0.47000000000E+01 0.  1.
          5    1    5    5  503    0  0.15935821711E+02 -0.35557322338E+02 -0.24855592725E+02  0.46456044549E+02  0.47000000000E+01 0. -1.
         -5    1    5    5    0  503 -0.26159514636E+01  0.80057703230E+02 -0.19845735270E+03  0.21406421908E+03  0.47000000000E+01 0. -1.
<mgrwt>
<rscale>  0 0.27649223E+03</rscale>
<asrwt>0</asrwt>
<pdfrwt beam="1">  1        1 0.97030770E-01 0.27649223E+03</pdfrwt>
<pdfrwt beam="2">  1       -1 0.46619724E-02 0.27649223E+03</pdfrwt>
<totfact> 0.63889154E+03</totfact>
</mgrwt>
</event>
<event>
 9    1  0.2114844E-002  0.2749741E+03  0.7818608E-02  0.1098466E+00
          2   -1    0    0  501    0  0.00000000000E+00  0.00000000000E+00  0.14911336532E+04  0.14911336532E+04  0.00000000000E+00 0.  1.
         -2   -1    0    0    0  501 -0.00000000000E+00 -0.00000000000E+00 -0.12676727492E+02  0.12676727492E+02  0.00000000000E+00 0.  1.
         36    2    1    2    0    0  0.14210854715E-13 -0.71054273576E-14  0.14784569257E+04  0.15038103807E+04  0.27497414407E+03 0.  0.
         25    2    3    3    0    0 -0.41399408002E+02 -0.16513694915E+02  0.96016407737E+03  0.96914683497E+03  0.12387057425E+03 0.  0.
         25    2    3    3    0    0  0.41399408002E+02  0.16513694915E+02  0.51829284837E+03  0.53466354575E+03  0.12349500954E+03 0.  0.
          5    1    4    4  502    0  0.27558065547E+02  0.97497618391E+01  0.63467759549E+03  0.63536780296E+03  0.47000000000E+01 0.  1.
         -5    1    4    4    0  502 -0.68957473550E+02 -0.26263456754E+02  0.32548648188E+03  0.33377903200E+03  0.47000000000E+01 0.  1.
          5    1    5    5  503    0  0.46055358554E+02 -0.40692459887E+02  0.15450035844E+03  0.16634128502E+03  0.47000000000E+01 0. -1.
         -5    1    5    5    0  503 -0.46559505518E+01  0.57206154802E+02  0.36379248993E+03  0.36832226073E+03  0.47000000000E+01 0. -1.
<mgrwt>
<rscale>  0 0.27497414E+03</rscale>
<asrwt>0</asrwt>
<pdfrwt beam="1">  1        2 0.22940504E+00 0.27497414E+03</pdfrwt>
<pdfrwt beam="2">  1       -2 0.19502670E-02 0.27497414E+03</pdfrwt>
<totfact> 0.11066689E+04</totfact>
</mgrwt>
</event>
<event>
 9    1  0.2114844E-002  0.2746682E+03  0.7818608E-02  0.1098637E+00
          2   -1    0    0  501    0  0.00000000000E+00  0.00000000000E+00  0.50456132518E+03  0.50456132518E+03  0.00000000000E+00 0.  1.
         -2   -1    0    0    0  501 -0.00000000000E+00 -0.00000000000E+00 -0.37380305953E+02  0.37380305953E+02  0.00000000000E+00 0.  1.
         36    2    1    2    0    0  0.00000000000E+00  0.00000000000E+00  0.46718101923E+03  0.54194163114E+03  0.27466821227E+03 0.  0.
         25    2    3    3    0    0  0.36774679987E+02  0.39034369610E+02  0.26968995911E+03  0.30226464838E+03  0.12551965790E+03 0.  0.
         25    2    3    3    0    0 -0.36774679987E+02 -0.39034369610E+02  0.19749106012E+03  0.23967698275E+03  0.12476489143E+03 0.  0.
          5    1    4    4  502    0  0.70301195386E+02  0.57380327276E+02  0.13937470391E+03  0.16637956041E+03  0.47000000000E+01 0.  1.
         -5    1    4    4    0  502 -0.33526515399E+02 -0.18345957665E+02  0.13031525520E+03  0.13588508798E+03  0.47000000000E+01 0.  1.
          5    1    5    5  503    0 -0.52955929859E+02 -0.46377872236E+01  0.19401141167E+03  0.20121718971E+03  0.47000000000E+01 0.  1.
         -5    1    5    5    0  503  0.16181249872E+02 -0.34396582387E+02  0.34796484513E+01  0.38459793040E+02  0.47000000000E+01 0.  1.
<mgrwt>
<rscale>  0 0.27466821E+03</rscale>
<asrwt>0</asrwt>
<pdfrwt beam="1">  1        2 0.77624814E-01 0.27466821E+03</pdfrwt>
<pdfrwt beam="2">  1       -2 0.57508167E-02 0.27466821E+03</pdfrwt>
<totfact> 0.96790109E+03</totfact>
</mgrwt>
</event>
<event>
 9    1  0.2114844E-002  0.2750840E+03  0.7818608E-02  0.1098405E+00
          3   -1    0    0  501    0  0.00000000000E+00  0.00000000000E+00  0.11501127218E+03  0.11501127218E+03  0.00000000000E+00 0.  1.
         -3   -1    0    0    0  501 -0.00000000000E+00 -0.00000000000E+00 -0.16448654593E+03  0.16448654593E+03  0.00000000000E+00 0.  1.
         36    2    1    2    0    0  0.00000000000E+00  0.17763568394E-14 -0.49475273747E+02  0.27949781811E+03  0.27508403737E+03 0.  0.
         25    2    3    3    0    0 -0.48475083062E+02  0.15519182756E+02 -0.16592475224E+01  0.13563570854E+03  0.12571242428E+03 0.  0.
         25    2    3    3    0    0  0.48475083062E+02 -0.15519182756E+02 -0.47816026224E+02  0.14386210956E+03  0.12577462182E+03 0.  0.
          5    1    4    4  502    0 -0.28393968601E+02  0.12708139579E+02  0.61529902047E+02  0.69106679202E+02  0.47000000000E+01 0. -1.
         -5    1    4    4    0  502 -0.20081114461E+02  0.28110431763E+01 -0.63189149569E+02  0.66529029341E+02  0.47000000000E+01 0. -1.
          5    1    5    5  503    0 -0.70131628432E+01 -0.39404506439E+02 -0.68803986167E+02  0.79736930548E+02  0.47000000000E+01 0.  1.
         -5    1    5    5    0  503  0.55488245906E+02  0.23885323683E+02  0.20987959943E+02  0.64125179015E+02  0.47000000000E+01 0.  1.
<mgrwt>
<rscale>  0 0.27508404E+03</rscale>
<asrwt>0</asrwt>
<pdfrwt beam="1">  1        3 0.17694042E-01 0.27508404E+03</pdfrwt>
<pdfrwt beam="2">  1       -3 0.25305622E-01 0.27508404E+03</pdfrwt>
<totfact> 0.10410374E+03</totfact>
</mgrwt>
</event>
<event>
 9    1  0.2114844E-002  0.2755621E+03  0.7818608E-02  0.1098138E+00
          2   -1    0    0  501    0  0.00000000000E+00  0.00000000000E+00  0.17872213100E+04  0.17872213100E+04  0.00000000000E+00 0. -1.
         -2   -1    0    0    0  501 -0.00000000000E+00 -0.00000000000E+00 -0.10621858549E+02  0.10621858549E+02  0.00000000000E+00 0. -1.
         36    2    1    2    0    0  0.71054273576E-14 -0.14210854715E-13  0.17765994515E+04  0.17978431686E+04  0.27556205799E+03 0.  0.
         25    2    3    3    0    0  0.48237254782E+02 -0.37992182744E+02  0.69965390195E+03  0.71293319977E+03  0.12242518585E+03 0.  0.
         25    2    3    3    0    0 -0.48237254782E+02  0.37992182744E+02  0.10769455495E+04  0.10849099688E+04  0.11596415419E+03 0.  0.
          5    1    4    4  502    0  0.40308730788E+02 -0.37451196547E+02  0.10884424522E+03  0.12205140564E+03  0.47000000000E+01 0.  1.
         -5    1    4    4    0  502  0.79285239942E+01 -0.54098619672E+00  0.59080965672E+03  0.59088179413E+03  0.47000000000E+01 0.  1.
          5    1    5    5  503    0 -0.39594612229E+02 -0.15000808186E+02  0.87058781245E+03  0.87162950085E+03  0.47000000000E+01 0.  1.
         -5    1    5    5    0  503 -0.86426425533E+01  0.52992990930E+02  0.20635773707E+03  0.21328046795E+03  0.47000000000E+01 0.  1.
<mgrwt>
<rscale>  0 0.27556206E+03</rscale>
<asrwt>0</asrwt>
<pdfrwt beam="1">  1        2 0.27495689E+00 0.27556206E+03</pdfrwt>
<pdfrwt beam="2">  1       -2 0.16341335E-02 0.27556206E+03</pdfrwt>
<totfact> 0.10002008E+04</totfact>
</mgrwt>
</event>
<event>
 9    1  0.2114844E-002  0.2757144E+03  0.7818608E-02  0.1098053E+00
         -1   -1    0    0    0  501 -0.00000000000E+00  0.00000000000E+00  0.25106379770E+02  0.25106379770E+02  0.00000000000E+00 0.  1.
          1   -1    0    0  501    0  0.00000000000E+00 -0.00000000000E+00 -0.75696342747E+03  0.75696342747E+03  0.00000000000E+00 0.  1.
         36    2    1    2    0    0 -0.71054273576E-14 -0.71054273576E-14 -0.73185704770E+03  0.78206980723E+03  0.27571442677E+03 0.  0.
         25    2    3    3    0    0 -0.29713389674E+02 -0.52722657986E+02 -0.38516101811E+03  0.41082895647E+03  0.12949462310E+03 0.  0.
         25    2    3    3    0    0  0.29713389674E+02  0.52722657986E+02 -0.34669602959E+03  0.37124085077E+03  0.11814850044E+03 0.  0.
          5    1    4    4  502    0  0.11744004471E+02 -0.29682228073E+02 -0.35028937630E+03  0.35177221814E+03  0.47000000000E+01 0. -1.
         -5    1    4    4    0  502 -0.41457394145E+02 -0.23040429913E+02 -0.34871641805E+02  0.59056738329E+02  0.47000000000E+01 0. -1.
          5    1    5    5  503    0  0.59304693869E+02  0.43722968873E+02 -0.32472401650E+03  0.33301129352E+03  0.47000000000E+01 0. -1.
         -5    1    5    5    0  503 -0.29591304195E+02  0.89996891129E+01 -0.21972013092E+02  0.38229557248E+02  0.47000000000E+01 0. -1.
<mgrwt>
<rscale>  0 0.27571443E+03</rscale>
<asrwt>0</asrwt>
<pdfrwt beam="1">  1        1 0.11645591E+00 0.27571443E+03</pdfrwt>
<pdfrwt beam="2">  1       -1 0.38625201E-02 0.27571443E+03</pdfrwt>
<totfact> 0.64846614E+03</totfact>
</mgrwt>
</event>
<event>
 9    1  0.2114844E-002  0.2740289E+03  0.7818608E-02  0.1098996E+00
          2   -1    0    0  501    0  0.00000000000E+00  0.00000000000E+00  0.16997797069E+04  0.16997797069E+04  0.00000000000E+00 0. -1.
         -2   -1    0    0    0  501 -0.00000000000E+00 -0.00000000000E+00 -0.11044347793E+02  0.11044347793E+02  0.00000000000E+00 0. -1.
         36    2    1    2    0    0  0.00000000000E+00  0.00000000000E+00  0.16887353591E+04  0.17108240547E+04  0.27402889084E+03 0.  0.
         25    2    3    3    0    0  0.19660657014E+00  0.59356348498E+02  0.11886298779E+04  0.11965789800E+04  0.12424594200E+03 0.  0.
         25    2    3    3    0    0 -0.19660657014E+00 -0.59356348498E+02  0.50010548126E+03  0.51424507469E+03  0.10401581466E+03 0.  0.
          5    1    4    4  502    0  0.53740745589E+02  0.18433146918E+02  0.29888955670E+03  0.30427767869E+03  0.47000000000E+01 0.  1.
         -5    1    4    4    0  502 -0.53544139019E+02  0.40923201580E+02  0.88974032117E+03  0.89230130134E+03  0.47000000000E+01 0.  1.
          5    1    5    5  503    0 -0.35711033873E+02 -0.65401256468E+02  0.41571265565E+03  0.42236442127E+03  0.47000000000E+01 0.  1.
         -5    1    5    5    0  503  0.35514427303E+02  0.60449079702E+01  0.84392825611E+02  0.91880653424E+02  0.47000000000E+01 0.  1.
<mgrwt>
<rscale>  0 0.27402889E+03</rscale>
<asrwt>0</asrwt>
<pdfrwt beam="1">  1        2 0.26150436E+00 0.27402889E+03</pdfrwt>
<pdfrwt beam="2">  1       -2 0.16991318E-02 0.27402889E+03</pdfrwt>
<totfact> 0.10500224E+04</totfact>
</mgrwt>
</event>
<event>
 9    1  0.2114844E-002  0.2747162E+03  0.7818608E-02  0.1098610E+00
         -1   -1    0    0    0  501 -0.00000000000E+00  0.00000000000E+00  0.15784151575E+02  0.15784151575E+02  0.00000000000E+00 0. -1.
          1   -1    0    0  501    0  0.00000000000E+00 -0.00000000000E+00 -0.11953290177E+04  0.11953290177E+04  0.00000000000E+00 0. -1.
         36    2    1    2    0    0  0.00000000000E+00  0.35527136788E-14 -0.11795448662E+04  0.12111131693E+04  0.27471624924E+03 0.  0.
         25    2    3    3    0    0  0.37031837214E+02  0.29084899881E+02 -0.40737160073E+03  0.42808864884E+03  0.12284535732E+03 0.  0.
         25    2    3    3    0    0 -0.37031837214E+02 -0.29084899881E+02 -0.77217326544E+03  0.78302452048E+03  0.12107253796E+03 0.  0.
          5    1    4    4  502    0 -0.15309456784E+02  0.11584175487E+01  0.33661547215E+00  0.16060034502E+02  0.47000000000E+01 0. -1.
         -5    1    4    4    0  502  0.52341293998E+02  0.27926482332E+02 -0.40770821621E+03  0.41202861434E+03  0.47000000000E+01 0. -1.
          5    1    5    5  503    0  0.37008094681E+02  0.14297129877E+02 -0.34394287914E+03  0.34625539867E+03  0.47000000000E+01 0. -1.
         -5    1    5    5    0  503 -0.74039931895E+02 -0.43382029757E+02 -0.42823038630E+03  0.43676912181E+03  0.47000000000E+01 0. -1.
<mgrwt>
<rscale>  0 0.27471625E+03</rscale>
<asrwt>0</asrwt>
<pdfrwt beam="1">  1        1 0.18389675E+00 0.27471625E+03</pdfrwt>
<pdfrwt beam="2">  1       -1 0.24283313E-02 0.27471625E+03</pdfrwt>
<totfact> 0.59459845E+03</totfact>
</mgrwt>
</event>
<event>
 9    1  0.2114844E-002  0.2746995E+03  0.7818608E-02  0.1098620E+00
         -2   -1    0    0    0  501 -0.00000000000E+00  0.00000000000E+00  0.19180676973E+02  0.19180676973E+02  0.00000000000E+00 0.  1.
          2   -1    0    0  501    0  0.00000000000E+00 -0.00000000000E+00 -0.98353980913E+03  0.98353980913E+03  0.00000000000E+00 0.  1.
         36    2    1    2    0    0 -0.35527136788E-14 -0.71054273576E-14 -0.96435913216E+03  0.10027204861E+04  0.27469954037E+03 0.  0.
         25    2    3    3    0    0 -0.17014869964E+02  0.35380013110E+02 -0.31575154697E+03  0.34089812916E+03  0.12235703462E+03 0.  0.
         25    2    3    3    0    0  0.17014869964E+02 -0.35380013110E+02 -0.64860758519E+03  0.66182235695E+03  0.12560167780E+03 0.  0.
          5    1    4    4  502    0 -0.11314170410E+02 -0.41660515589E+02 -0.62649913100E+02  0.76228017308E+02  0.47000000000E+01 0. -1.
         -5    1    4    4    0  502 -0.57006995548E+01  0.77040528700E+02 -0.25310163387E+03  0.26467011185E+03  0.47000000000E+01 0. -1.
          5    1    5    5  503    0  0.21405213304E+02  0.42441284503E+02 -0.15875748525E+03  0.16578743894E+03  0.47000000000E+01 0. -1.
         -5    1    5    5    0  503 -0.43903433397E+01 -0.77821297614E+02 -0.48985009994E+03  0.49603491801E+03  0.47000000000E+01 0. -1.
<mgrwt>
<rscale>  0 0.27469954E+03</rscale>
<asrwt>0</asrwt>
<pdfrwt beam="1">  1        2 0.15131384E+00 0.27469954E+03</pdfrwt>
<pdfrwt beam="2">  1       -2 0.29508729E-02 0.27469954E+03</pdfrwt>
<totfact> 0.11639398E+04</totfact>
</mgrwt>
</event>
<event>
 9    1  0.2114844E-002  0.2760686E+03  0.7818608E-02  0.1097856E+00
          2   -1    0    0  501    0  0.00000000000E+00  0.00000000000E+00  0.67611362972E+02  0.67611362972E+02  0.00000000000E+00 0.  1.
         -2   -1    0    0    0  501 -0.00000000000E+00 -0.00000000000E+00 -0.28180864875E+03  0.28180864875E+03  0.00000000000E+00 0.  1.
         36    2    1    2    0    0 -0.35527136788E-14  0.71054273576E-14 -0.21419728577E+03  0.34942001172E+03  0.27606859176E+03 0.  0.
         25    2    3    3    0    0 -0.27768005012E+02  0.47921203812E+02 -0.10179541827E+03  0.17310789228E+03  0.12859444510E+03 0.  0.
         25    2    3    3    0    0  0.27768005012E+02 -0.47921203812E+02 -0.11240186750E+03  0.17631211944E+03  0.12403338166E+03 0.  0.
          5    1    4    4  502    0  0.31835992087E+02  0.41491670567E+02  0.26640423936E+01  0.52576384818E+02  0.47000000000E+01 0. -1.
         -5    1    4    4    0  502 -0.59603997099E+02  0.64295332442E+01 -0.10445946066E+03  0.12053150746E+03  0.47000000000E+01 0. -1.
          5    1    5    5  503    0  0.28717725845E+02 -0.64647681984E+02 -0.90089282996E+01  0.71465245768E+02  0.47000000000E+01 0. -1.
         -5    1    5    5    0  503 -0.94972083291E+00  0.16726478173E+02 -0.10339293920E+03  0.10484687367E+03  0.47000000000E+01 0. -1.
<mgrwt>
<rscale>  0 0.27606859E+03</rscale>
<asrwt>0</asrwt>
<pdfrwt beam="1">  1        2 0.10401748E-01 0.27606859E+03</pdfrwt>
<pdfrwt beam="2">  1       -2 0.43355176E-01 0.27606859E+03</pdfrwt>
<totfact> 0.30961059E+03</totfact>
</mgrwt>
</event>
<event>
 9    1  0.2114844E-002  0.2746614E+03  0.7818608E-02  0.1098641E+00
          1   -1    0    0  501    0  0.00000000000E+00  0.00000000000E+00  0.70172493265E+03  0.70172493265E+03  0.00000000000E+00 0.  1.
         -1   -1    0    0    0  501 -0.00000000000E+00 -0.00000000000E+00 -0.26876227646E+02  0.26876227646E+02  0.00000000000E+00 0.  1.
         36    2    1    2    0    0  0.00000000000E+00  0.00000000000E+00  0.67484870500E+03  0.72860116029E+03  0.27466138451E+03 0.  0.
         25    2    3    3    0    0 -0.45566908283E+02 -0.34418522230E+02  0.34003353867E+03  0.36689685589E+03  0.12541737375E+03 0.  0.
         25    2    3    3    0    0  0.45566908283E+02  0.34418522230E+02  0.33481516633E+03  0.36170430441E+03  0.12436973272E+03 0.  0.
          5    1    4    4  502    0 -0.72230734508E+01 -0.75738742067E+02  0.24191810553E+03  0.25364343008E+03  0.47000000000E+01 0.  1.
         -5    1    4    4    0  502 -0.38343834832E+02  0.41320219836E+02  0.98115433134E+02  0.11325342580E+03  0.47000000000E+01 0.  1.
          5    1    5    5  503    0  0.20188736646E+02 -0.89365780140E+01  0.29894811584E+03  0.29979912188E+03  0.47000000000E+01 0. -1.
         -5    1    5    5    0  503  0.25378171637E+02  0.43355100244E+02  0.35867050491E+02  0.61905182527E+02  0.47000000000E+01 0. -1.
<mgrwt>
<rscale>  0 0.27466138E+03</rscale>
<asrwt>0</asrwt>
<pdfrwt beam="1">  1        1 0.10795767E+00 0.27466138E+03</pdfrwt>
<pdfrwt beam="2">  1       -1 0.41348048E-02 0.27466138E+03</pdfrwt>
<totfact> 0.65554656E+03</totfact>
</mgrwt>
</event>
<event>
 9    1  0.2114844E-002  0.2750653E+03  0.7818608E-02  0.1098415E+00
         -2   -1    0    0    0  501 -0.00000000000E+00  0.00000000000E+00  0.17096301546E+02  0.17096301546E+02  0.00000000000E+00 0. -1.
          2   -1    0    0  501    0  0.00000000000E+00 -0.00000000000E+00 -0.11063927465E+04  0.11063927465E+04  0.00000000000E+00 0. -1.
         36    2    1    2    0    0  0.00000000000E+00  0.35527136788E-14 -0.10892964450E+04  0.11234890481E+04  0.27506525788E+03 0.  0.
         25    2    3    3    0    0 -0.46211742765E+02  0.25695791296E+02 -0.61748582880E+03  0.63241903320E+03  0.12597335402E+03 0.  0.
         25    2    3    3    0    0  0.46211742765E+02 -0.25695791296E+02 -0.47181061620E+03  0.49107001490E+03  0.12549383694E+03 0.  0.
          5    1    4    4  502    0  0.34373788682E+02 -0.20932434032E+02 -0.25172854673E+03  0.25496877334E+03  0.47000000000E+01 0.  1.
         -5    1    4    4    0  502 -0.80585531447E+02  0.46628225328E+02 -0.36575728207E+03  0.37745025985E+03  0.47000000000E+01 0.  1.
          5    1    5    5  503    0  0.80715133176E+02  0.11843646745E+01 -0.20008222409E+03  0.21580389672E+03  0.47000000000E+01 0. -1.
         -5    1    5    5    0  503 -0.34503390412E+02 -0.26880155971E+02 -0.27172839211E+03  0.27526611817E+03  0.47000000000E+01 0. -1.
<mgrwt>
<rscale>  0 0.27506526E+03</rscale>
<asrwt>0</asrwt>
<pdfrwt beam="1">  1        2 0.17021431E+00 0.27506526E+03</pdfrwt>
<pdfrwt beam="2">  1       -2 0.26301996E-02 0.27506526E+03</pdfrwt>
<totfact> 0.11649636E+04</totfact>
</mgrwt>
</event>
<event>
 9    1  0.2114844E-002  0.2754675E+03  0.7818608E-02  0.1098191E+00
         -1   -1    0    0    0  501 -0.00000000000E+00  0.00000000000E+00  0.62770274862E+02  0.62770274862E+02  0.00000000000E+00 0.  1.
          1   -1    0    0  501    0  0.00000000000E+00 -0.00000000000E+00 -0.30222255244E+03  0.30222255244E+03  0.00000000000E+00 0.  1.
         36    2    1    2    0    0  0.00000000000E+00  0.00000000000E+00 -0.23945227758E+03  0.36499282731E+03  0.27546754935E+03 0.  0.
         25    2    3    3    0    0 -0.39324298444E+02  0.16641192735E+02 -0.36854111304E+02  0.12262038230E+03  0.10887700809E+03 0.  0.
         25    2    3    3    0    0  0.39324298444E+02 -0.16641192735E+02 -0.20259816628E+03  0.24237244501E+03  0.12599625143E+03 0.  0.
          5    1    4    4  502    0  0.22036213860E+01 -0.34402348214E+02 -0.44190849967E+02  0.56243210529E+02  0.47000000000E+01 0. -1.
         -5    1    4    4    0  502 -0.41527919830E+02  0.51043540949E+02  0.73367386630E+01  0.66377171770E+02  0.47000000000E+01 0. -1.
          5    1    5    5  503    0  0.78593035946E+02 -0.20492536375E+02 -0.82481437720E+02  0.11585373069E+03  0.47000000000E+01 0. -1.
         -5    1    5    5    0  503 -0.39268737502E+02  0.38513436396E+01 -0.12011672856E+03  0.12651871432E+03  0.47000000000E+01 0. -1.
<mgrwt>
<rscale>  0 0.27546755E+03</rscale>
<asrwt>0</asrwt>
<pdfrwt beam="1">  1        1 0.46495778E-01 0.27546755E+03</pdfrwt>
<pdfrwt beam="2">  1       -1 0.96569651E-02 0.27546755E+03</pdfrwt>
<totfact> 0.55498810E+03</totfact>
</mgrwt>
</event>
<event>
 9    1  0.2114844E-002  0.2740865E+03  0.7818608E-02  0.1098963E+00
         -3   -1    0    0    0  501 -0.00000000000E+00  0.00000000000E+00  0.49865288734E+02  0.49865288734E+02  0.00000000000E+00 0.  1.
          3   -1    0    0  501    0  0.00000000000E+00 -0.00000000000E+00 -0.37663164428E+03  0.37663164428E+03  0.00000000000E+00 0.  1.
         36    2    1    2    0    0  0.00000000000E+00 -0.71054273576E-14 -0.32676635554E+03  0.42649693301E+03  0.27408645124E+03 0.  0.
         25    2    3    3    0    0  0.25083642674E+02 -0.51492363371E+02 -0.17837728486E+03  0.22507663795E+03  0.12474127056E+03 0.  0.
         25    2    3    3    0    0 -0.25083642674E+02  0.51492363371E+02 -0.14838907068E+03  0.20142029506E+03  0.12357251453E+03 0.  0.
          5    1    4    4  502    0 -0.24337097470E+02 -0.21889820820E+02 -0.16151773579E+03  0.16486821265E+03  0.47000000000E+01 0. -1.
         -5    1    4    4    0  502  0.49420740143E+02 -0.29602542552E+02 -0.16859549069E+02  0.60208425296E+02  0.47000000000E+01 0. -1.
          5    1    5    5  503    0 -0.68312342088E+02  0.17576097135E+02 -0.12029646766E+03  0.13953073283E+03  0.47000000000E+01 0. -1.
         -5    1    5    5    0  503  0.43228699414E+02  0.33916266237E+02 -0.28092603019E+02  0.61889562228E+02  0.47000000000E+01 0. -1.
<mgrwt>
<rscale>  0 0.27408645E+03</rscale>
<asrwt>0</asrwt>
<pdfrwt beam="1">  1        3 0.57943328E-01 0.27408645E+03</pdfrwt>
<pdfrwt beam="2">  1       -3 0.76715831E-02 0.27408645E+03</pdfrwt>
<totfact> 0.85947822E+02</totfact>
</mgrwt>
</event>
<event>
 9    1  0.2114844E-002  0.2751599E+03  0.7818608E-02  0.1098362E+00
          2   -1    0    0  501    0  0.00000000000E+00  0.00000000000E+00  0.15268530274E+03  0.15268530274E+03  0.00000000000E+00 0.  1.
         -2   -1    0    0    0  501 -0.00000000000E+00 -0.00000000000E+00 -0.12396901713E+03  0.12396901713E+03  0.00000000000E+00 0.  1.
         36    2    1    2    0    0  0.00000000000E+00  0.00000000000E+00  0.28716285610E+02  0.27665431987E+03  0.27515993103E+03 0.  0.
         25    2    3    3    0    0  0.18183261859E+02  0.30652012875E+02  0.55949190204E+02  0.14432493921E+03  0.12817643812E+03 0.  0.
         25    2    3    3    0    0 -0.18183261859E+02 -0.30652012875E+02 -0.27232904593E+02  0.13232938066E+03  0.12449601194E+03 0.  0.
          5    1    4    4  502    0  0.63326937235E+02  0.11933116016E+02 -0.64419064015E+01  0.64932953078E+02  0.47000000000E+01 0. -1.
         -5    1    4    4    0  502 -0.45143675376E+02  0.18718896859E+02  0.62391096605E+02  0.79391986130E+02  0.47000000000E+01 0. -1.
          5    1    5    5  503    0  0.22366889284E+02 -0.46418417830E+02  0.30365833628E+02  0.59992675403E+02  0.47000000000E+01 0.  1.
         -5    1    5    5    0  503 -0.40550151143E+02  0.15766404955E+02 -0.57598738221E+02  0.72336705258E+02  0.47000000000E+01 0.  1.
<mgrwt>
<rscale>  0 0.27515993E+03</rscale>
<asrwt>0</asrwt>
<pdfrwt beam="1">  1        2 0.23490047E-01 0.27515993E+03</pdfrwt>
<pdfrwt beam="2">  1       -2 0.19072156E-01 0.27515993E+03</pdfrwt>
<totfact> 0.52293517E+03</totfact>
</mgrwt>
</event>
<event>
 9    1  0.2114844E-002  0.2740293E+03  0.7818608E-02  0.1098995E+00
          2   -1    0    0  501    0  0.00000000000E+00  0.00000000000E+00  0.88086874510E+03  0.88086874510E+03  0.00000000000E+00 0. -1.
         -2   -1    0    0    0  501 -0.00000000000E+00 -0.00000000000E+00 -0.21311930310E+02  0.21311930310E+02  0.00000000000E+00 0. -1.
         36    2    1    2    0    0  0.00000000000E+00  0.00000000000E+00  0.85955681479E+03  0.90218067541E+03  0.27402929265E+03 0.  0.
         25    2    3    3    0    0  0.14071431649E+02 -0.66332949380E+01  0.34160464445E+03  0.36692406186E+03  0.13303205732E+03 0.  0.
         25    2    3    3    0    0 -0.14071431649E+02  0.66332949380E+01  0.51795217035E+03  0.53525661355E+03  0.13410140116E+03 0.  0.
          5    1    4    4  502    0 -0.16382792473E+02 -0.54336360203E+02  0.26786080199E+03  0.27384728440E+03  0.47000000000E+01 0. -1.
         -5    1    4    4    0  502  0.30454224123E+02  0.47703065265E+02  0.73743842453E+02  0.93076777460E+02  0.47000000000E+01 0. -1.
          5    1    5    5  503    0 -0.22220572368E+02 -0.57455819743E+02  0.16045592124E+03  0.17193928498E+03  0.47000000000E+01 0.  1.
         -5    1    5    5    0  503  0.81491407183E+01  0.64089114681E+02  0.35749624911E+03  0.36331732857E+03  0.47000000000E+01 0.  1.
<mgrwt>
<rscale>  0 0.27402929E+03</rscale>
<asrwt>0</asrwt>
<pdfrwt beam="1">  1        2 0.13551824E+00 0.27402929E+03</pdfrwt>
<pdfrwt beam="2">  1       -2 0.32787592E-02 0.27402929E+03</pdfrwt>
<totfact> 0.11557448E+04</totfact>
</mgrwt>
</event>
<event>
 9    1  0.2114844E-002  0.2749847E+03  0.7818608E-02  0.1098460E+00
          2   -1    0    0  501    0  0.00000000000E+00  0.00000000000E+00  0.19015358028E+04  0.19015358028E+04  0.00000000000E+00 0. -1.
         -2   -1    0    0    0  501 -0.00000000000E+00 -0.00000000000E+00 -0.99415153039E+01  0.99415153039E+01  0.00000000000E+00 0. -1.
         36    2    1    2    0    0  0.00000000000E+00 -0.35527136788E-14  0.18915942875E+04  0.19114773181E+04  0.27498470709E+03 0.  0.
         25    2    3    3    0    0  0.38422901025E+02  0.22287423402E+02  0.64276532484E+03  0.65565131928E+03  0.12148391286E+03 0.  0.
         25    2    3    3    0    0 -0.38422901025E+02 -0.22287423402E+02  0.12488289626E+04  0.12558259988E+04  0.12470811041E+03 0.  0.
          5    1    4    4  502    0  0.64093811561E+02  0.46571008383E+02  0.55914405747E+03  0.56474865428E+03  0.47000000000E+01 0.  1.
         -5    1    4    4    0  502 -0.25670910536E+02 -0.24283584981E+02  0.83621267366E+02  0.90902664995E+02  0.47000000000E+01 0.  1.
          5    1    5    5  503    0  0.14590095141E+02  0.42935300263E+02  0.32725318293E+03  0.33041344801E+03  0.47000000000E+01 0. -1.
         -5    1    5    5    0  503 -0.53012996166E+02 -0.65222723665E+02  0.92157577968E+03  0.92541255078E+03  0.47000000000E+01 0. -1.
<mgrwt>
<rscale>  0 0.27498471E+03</rscale>
<asrwt>0</asrwt>
<pdfrwt beam="1">  1        2 0.29254368E+00 0.27498471E+03</pdfrwt>
<pdfrwt beam="2">  1       -2 0.15294654E-02 0.27498471E+03</pdfrwt>
<totfact> 0.95976131E+03</totfact>
</mgrwt>
</event>
<event>
 9    1  0.2114844E-002  0.2756155E+03  0.7818608E-02  0.1098108E+00
          1   -1    0    0  501    0  0.00000000000E+00  0.00000000000E+00  0.17139342582E+04  0.17139342582E+04  0.00000000000E+00 0.  1.
         -1   -1    0    0    0  501 -0.00000000000E+00 -0.00000000000E+00 -0.11080342171E+02  0.11080342171E+02  0.00000000000E+00 0.  1.
         36    2    1    2    0    0 -0.53290705182E-14  0.00000000000E+00  0.17028539160E+04  0.17250146004E+04  0.27561551509E+03 0.  0.
         25    2    3    3    0    0  0.74488942028E+00  0.65662556331E+01  0.12045206849E+04  0.12115595796E+04  0.13024156005E+03 0.  0.
         25    2    3    3    0    0 -0.74488942028E+00 -0.65662556331E+01  0.49833323113E+03  0.51345502079E+03  0.12351671364E+03 0.  0.
          5    1    4    4  502    0  0.49278528841E+02 -0.32703168634E+02  0.37338520183E+03  0.37806939785E+03  0.47000000000E+01 0.  1.
         -5    1    4    4    0  502 -0.48533639421E+02  0.39269424267E+02  0.83113548307E+03  0.83349018174E+03  0.47000000000E+01 0.  1.
          5    1    5    5  503    0  0.63062669513E+01  0.39938052753E+02  0.59547914717E+02  0.72130861687E+02  0.47000000000E+01 0. -1.
         -5    1    5    5    0  503 -0.70511563716E+01 -0.46504308386E+02  0.43878531642E+03  0.44132415910E+03  0.47000000000E+01 0. -1.
<mgrwt>
<rscale>  0 0.27561552E+03</rscale>
<asrwt>0</asrwt>
<pdfrwt beam="1">  1        1 0.26368198E+00 0.27561552E+03</pdfrwt>
<pdfrwt beam="2">  1       -1 0.17046694E-02 0.27561552E+03</pdfrwt>
<totfact> 0.44841428E+03</totfact>
</mgrwt>
</event>
<event>
 9    1  0.2114844E-002  0.2750317E+03  0.7818608E-02  0.1098434E+00
         -1   -1    0    0    0  501 -0.00000000000E+00  0.00000000000E+00  0.28863662417E+03  0.28863662417E+03  0.00000000000E+00 0.  1.
          1   -1    0    0  501    0  0.00000000000E+00 -0.00000000000E+00 -0.65517001563E+02  0.65517001563E+02  0.00000000000E+00 0.  1.
         36    2    1    2    0    0  0.14210854715E-13 -0.71054273576E-14  0.22311962261E+03  0.35415362573E+03  0.27503167932E+03 0.  0.
         25    2    3    3    0    0  0.64766660080E+02 -0.16535235271E+02  0.11664849295E+03  0.18331667851E+03  0.12461941842E+03 0.  0.
         25    2    3    3    0    0 -0.64766660080E+02  0.16535235271E+02  0.10647112965E+03  0.17083694723E+03  0.11567638836E+03 0.  0.
          5    1    4    4  502    0 -0.13003987360E+01 -0.35668344781E+02 -0.11506585482E+02  0.37794356269E+02  0.47000000000E+01 0. -1.
         -5    1    4    4    0  502  0.66067058816E+02  0.19133109511E+02  0.12815507844E+03  0.14552232224E+03  0.47000000000E+01 0. -1.
          5    1    5    5  503    0  0.47518451991E+01 -0.87455658492E+01 -0.20812672103E+02  0.23544049670E+02  0.47000000000E+01 0.  1.
         -5    1    5    5    0  503 -0.69518505279E+02  0.25280801120E+02  0.12728380176E+03  0.14729289756E+03  0.47000000000E+01 0.  1.
<mgrwt>
<rscale>  0 0.27503168E+03</rscale>
<asrwt>0</asrwt>
<pdfrwt beam="1">  1        1 0.10079539E-01 0.27503168E+03</pdfrwt>
<pdfrwt beam="2">  1       -1 0.44405634E-01 0.27503168E+03</pdfrwt>
<totfact> 0.32313406E+03</totfact>
</mgrwt>
</event>
<event>
 9    1  0.2114844E-002  0.2756184E+03  0.7818608E-02  0.1098106E+00
         -2   -1    0    0    0  501 -0.00000000000E+00  0.00000000000E+00  0.26875876983E+03  0.26875876983E+03  0.00000000000E+00 0. -1.
          2   -1    0    0  501    0  0.00000000000E+00 -0.00000000000E+00 -0.70663284496E+02  0.70663284496E+02  0.00000000000E+00 0. -1.
         36    2    1    2    0    0 -0.14210854715E-13 -0.35527136788E-14  0.19809548533E+03  0.33942205432E+03  0.27561841312E+03 0.  0.
         25    2    3    3    0    0  0.57101403307E+02  0.12369906817E+02  0.10854758589E+03  0.17491140366E+03  0.12408801663E+03 0.  0.
         25    2    3    3    0    0 -0.57101403307E+02 -0.12369906817E+02  0.89547899437E+02  0.16451065066E+03  0.12502536956E+03 0.  0.
          5    1    4    4  502    0  0.34102154617E+02  0.68066529007E+02  0.67447595277E+02  0.10181982827E+03  0.47000000000E+01 0. -1.
         -5    1    4    4    0  502  0.22999248690E+02 -0.55696622190E+02  0.41099990616E+02  0.73091575386E+02  0.47000000000E+01 0. -1.
          5    1    5    5  503    0 -0.96660273862E+02 -0.15589691140E+02  0.64679248508E+02  0.11743824846E+03  0.47000000000E+01 0.  1.
         -5    1    5    5    0  503  0.39558870555E+02  0.32197843233E+01  0.24868650929E+02  0.47072402208E+02  0.47000000000E+01 0.  1.
<mgrwt>
<rscale>  0 0.27561841E+03</rscale>
<asrwt>0</asrwt>
<pdfrwt beam="1">  1        2 0.10871275E-01 0.27561841E+03</pdfrwt>
<pdfrwt beam="2">  1       -2 0.41347502E-01 0.27561841E+03</pdfrwt>
<totfact> 0.32128495E+03</totfact>
</mgrwt>
</event>
<event>
 9    1  0.2114844E-002  0.2754457E+03  0.7818608E-02  0.1098203E+00
          1   -1    0    0  501    0  0.00000000000E+00  0.00000000000E+00  0.48084795182E+03  0.48084795182E+03  0.00000000000E+00 0. -1.
         -1   -1    0    0    0  501 -0.00000000000E+00 -0.00000000000E+00 -0.39446120352E+02  0.39446120352E+02  0.00000000000E+00 0. -1.
         36    2    1    2    0    0  0.14210854715E-13  0.00000000000E+00  0.44140183147E+03  0.52029407217E+03  0.27544572009E+03 0.  0.
         25    2    3    3    0    0  0.52052622980E+02 -0.27768353166E+02  0.19437747578E+03  0.23740907670E+03  0.12288168950E+03 0.  0.
         25    2    3    3    0    0 -0.52052622980E+02  0.27768353166E+02  0.24702435569E+03  0.28288499547E+03  0.12458864861E+03 0.  0.
          5    1    4    4  502    0  0.29488412168E+02  0.29262707781E+02  0.99255395236E+01  0.42970674345E+02  0.47000000000E+01 0. -1.
         -5    1    4    4    0  502  0.22564210813E+02 -0.57031060948E+02  0.18445193626E+03  0.19443840236E+03  0.47000000000E+01 0. -1.
          5    1    5    5  503    0  0.38727351263E+02  0.21909818490E+02  0.10530208920E+03  0.11441358255E+03  0.47000000000E+01 0.  1.
         -5    1    5    5    0  503 -0.90779974243E+02  0.58585346759E+01  0.14172226649E+03  0.16847141292E+03  0.47000000000E+01 0.  1.
<mgrwt>
<rscale>  0 0.27544572E+03</rscale>
<asrwt>0</asrwt>
<pdfrwt beam="1">  1        1 0.73976604E-01 0.27544572E+03</pdfrwt>
<pdfrwt beam="2">  1       -1 0.60686342E-02 0.27544572E+03</pdfrwt>
<totfact> 0.62177390E+03</totfact>
</mgrwt>
</event>
<event>
 9    1  0.2114844E-002  0.2788703E+03  0.7818608E-02  0.1096308E+00
          2   -1    0    0  501    0  0.00000000000E+00  0.00000000000E+00  0.12897257804E+03  0.12897257804E+03  0.00000000000E+00 0. -1.
         -2   -1    0    0    0  501 -0.00000000000E+00 -0.00000000000E+00 -0.15074647894E+03  0.15074647894E+03  0.00000000000E+00 0. -1.
         36    2    1    2    0    0  0.14210854715E-13  0.71054273576E-14 -0.21773900897E+02  0.27971905698E+03  0.27887030691E+03 0.  0.
         25    2    3    3    0    0  0.62113817285E+02 -0.34426568193E+02  0.95801645186E+01  0.14041878394E+03  0.12075736183E+03 0.  0.
         25    2    3    3    0    0 -0.62113817285E+02  0.34426568193E+02 -0.31354065416E+02  0.13930027303E+03  0.11566405558E+03 0.  0.
          5    1    4    4  502    0  0.13057171291E+02 -0.52373084862E+02 -0.40699185731E+02  0.67763880196E+02  0.47000000000E+01 0.  1.
         -5    1    4    4    0  502  0.49056645994E+02  0.17946516669E+02  0.50279350250E+02  0.72654903746E+02  0.47000000000E+01 0.  1.
          5    1    5    5  503    0 -0.80196936799E+02 -0.64129404131E+01 -0.45076741045E+02  0.92340007905E+02  0.47000000000E+01 0.  1.
         -5    1    5    5    0  503  0.18083119513E+02  0.40839508606E+02  0.13722675629E+02  0.46960265129E+02  0.47000000000E+01 0.  1.
<mgrwt>
<rscale>  0 0.27887031E+03</rscale>
<asrwt>0</asrwt>
<pdfrwt beam="1">  1        2 0.19841935E-01 0.27887031E+03</pdfrwt>
<pdfrwt beam="2">  1       -2 0.23191766E-01 0.27887031E+03</pdfrwt>
<totfact> 0.45245358E+03</totfact>
</mgrwt>
</event>
<event>
 9    1  0.2114844E-002  0.2754482E+03  0.7818608E-02  0.1098201E+00
          1   -1    0    0  501    0  0.00000000000E+00  0.00000000000E+00  0.16955546331E+03  0.16955546331E+03  0.00000000000E+00 0.  1.
         -1   -1    0    0    0  501 -0.00000000000E+00 -0.00000000000E+00 -0.11186860363E+03  0.11186860363E+03  0.00000000000E+00 0.  1.
         36    2    1    2    0    0  0.71054273576E-14  0.00000000000E+00  0.57686859675E+02  0.28142406694E+03  0.27544823774E+03 0.  0.
         25    2    3    3    0    0 -0.51056846122E+02 -0.21336568429E+01  0.10141664435E+01  0.13702358138E+03  0.12713409965E+03 0.  0.
         25    2    3    3    0    0  0.51056846122E+02  0.21336568429E+01  0.56672693232E+02  0.14440048556E+03  0.12259017923E+03 0.  0.
          5    1    4    4  502    0  0.22158371520E+02 -0.66567917625E+01  0.45389232570E+02  0.51162278470E+02  0.47000000000E+01 0.  1.
         -5    1    4    4    0  502 -0.73215217642E+02  0.45231349197E+01 -0.44375066126E+02  0.85861302911E+02  0.47000000000E+01 0.  1.
          5    1    5    5  503    0 -0.23181826952E+02 -0.36740247275E+01  0.65053418462E+02  0.69317622666E+02  0.47000000000E+01 0.  1.
         -5    1    5    5    0  503  0.74238673074E+02  0.58076815704E+01 -0.83807252303E+01  0.75082862894E+02  0.47000000000E+01 0.  1.
<mgrwt>
<rscale>  0 0.27544824E+03</rscale>
<asrwt>0</asrwt>
<pdfrwt beam="1">  1        1 0.26085456E-01 0.27544824E+03</pdfrwt>
<pdfrwt beam="2">  1       -1 0.17210554E-01 0.27544824E+03</pdfrwt>
<totfact> 0.46354448E+03</totfact>
</mgrwt>
</event>
<event>
 9    1  0.2114844E-002  0.2750734E+03  0.7818608E-02  0.1098411E+00
         -2   -1    0    0    0  501 -0.00000000000E+00  0.00000000000E+00  0.57554580833E+02  0.57554580833E+02  0.00000000000E+00 0. -1.
          2   -1    0    0  501    0  0.00000000000E+00 -0.00000000000E+00 -0.32866802503E+03  0.32866802503E+03  0.00000000000E+00 0. -1.
         36    2    1    2    0    0 -0.71054273576E-14  0.71054273576E-14 -0.27111344419E+03  0.38622260586E+03  0.27507344774E+03 0.  0.
         25    2    3    3    0    0 -0.43584460629E+02 -0.38404734147E+02 -0.92357108088E+02  0.16940070038E+03  0.12958484889E+03 0.  0.
         25    2    3    3    0    0  0.43584460629E+02  0.38404734147E+02 -0.17875633610E+03  0.21682190548E+03  0.10808969509E+03 0.  0.
          5    1    4    4  502    0 -0.77971958022E+02 -0.42125946903E+02 -0.99963923986E+02  0.13367534454E+03  0.47000000000E+01 0. -1.
         -5    1    4    4    0  502  0.34387497393E+02  0.37212127559E+01  0.76068158982E+01  0.35725355834E+02  0.47000000000E+01 0. -1.
          5    1    5    5  503    0  0.58709349924E+02 -0.16883165967E+02 -0.11923029768E+03  0.13405141904E+03  0.47000000000E+01 0.  1.
         -5    1    5    5    0  503 -0.15124889295E+02  0.55287900114E+02 -0.59526038423E+02  0.82770486440E+02  0.47000000000E+01 0.  1.
<mgrwt>
<rscale>  0 0.27507345E+03</rscale>
<asrwt>0</asrwt>
<pdfrwt beam="1">  1        2 0.50564311E-01 0.27507345E+03</pdfrwt>
<pdfrwt beam="2">  1       -2 0.88545509E-02 0.27507345E+03</pdfrwt>
<totfact> 0.79156202E+03</totfact>
</mgrwt>
</event>
<event>
 9    1  0.2114844E-002  0.2753253E+03  0.7818608E-02  0.1098270E+00
         -3   -1    0    0    0  501 -0.00000000000E+00  0.00000000000E+00  0.14297012835E+02  0.14297012835E+02  0.00000000000E+00 0.  1.
          3   -1    0    0  501    0  0.00000000000E+00 -0.00000000000E+00 -0.13255215987E+04  0.13255215987E+04  0.00000000000E+00 0.  1.
         36    2    1    2    0    0  0.00000000000E+00 -0.71054273576E-14 -0.13112245859E+04  0.13398186116E+04  0.27532525718E+03 0.  0.
         25    2    3    3    0    0  0.29278645597E+02 -0.35796225334E+02 -0.73414813343E+03  0.74641315917E+03  0.12657216728E+03 0.  0.
         25    2    3    3    0    0 -0.29278645597E+02  0.35796225334E+02 -0.57707645248E+03  0.59340545240E+03  0.13028503408E+03 0.  0.
          5    1    4    4  502    0  0.15618986732E+02 -0.24056740809E+02 -0.29132439389E+02  0.41151774562E+02  0.47000000000E+01 0. -1.
         -5    1    4    4    0  502  0.13659658864E+02 -0.11739484525E+02 -0.70501569404E+03  0.70526138461E+03  0.47000000000E+01 0. -1.
          5    1    5    5  503    0  0.29450990415E+02 -0.35085892516E+02 -0.19805008531E+03  0.20333299531E+03  0.47000000000E+01 0. -1.
         -5    1    5    5    0  503 -0.58729636011E+02  0.70882117850E+02 -0.37902636717E+03  0.39007245709E+03  0.47000000000E+01 0. -1.
<mgrwt>
<rscale>  0 0.27532526E+03</rscale>
<asrwt>0</asrwt>
<pdfrwt beam="1">  1        3 0.20392644E+00 0.27532526E+03</pdfrwt>
<pdfrwt beam="2">  1       -3 0.21995400E-02 0.27532526E+03</pdfrwt>
<totfact> 0.31681567E+02</totfact>
</mgrwt>
</event>
<event>
 9    1  0.2114844E-002  0.2748138E+03  0.7818608E-02  0.1098556E+00
          3   -1    0    0  501    0  0.00000000000E+00  0.00000000000E+00  0.72311244916E+03  0.72311244916E+03  0.00000000000E+00 0. -1.
         -3   -1    0    0    0  501 -0.00000000000E+00 -0.00000000000E+00 -0.26110257067E+02  0.26110257067E+02  0.00000000000E+00 0. -1.
         36    2    1    2    0    0  0.00000000000E+00  0.35527136788E-14  0.69700219210E+03  0.74922270623E+03  0.27481376920E+03 0.  0.
         25    2    3    3    0    0  0.59588628804E+02  0.12315722934E+02  0.32722686923E+03  0.35533585068E+03  0.12443336015E+03 0.  0.
         25    2    3    3    0    0 -0.59588628804E+02 -0.12315722934E+02  0.36977532287E+03  0.39388685555E+03  0.12128719578E+03 0.  0.
          5    1    4    4  502    0  0.62182033672E+02  0.10380629177E+02  0.33761555399E+03  0.34348320930E+03  0.47000000000E+01 0.  1.
         -5    1    4    4    0  502 -0.25934048676E+01  0.19350937568E+01 -0.10388684761E+02  0.11852641382E+02  0.47000000000E+01 0.  1.
          5    1    5    5  503    0 -0.81461731870E+01 -0.35898131131E+02  0.25658722648E+02  0.45116471539E+02  0.47000000000E+01 0. -1.
         -5    1    5    5    0  503 -0.51442455617E+02  0.23582408197E+02  0.34411660022E+03  0.34877038401E+03  0.47000000000E+01 0. -1.
<mgrwt>
<rscale>  0 0.27481377E+03</rscale>
<asrwt>0</asrwt>
<pdfrwt beam="1">  1        3 0.11124805E+00 0.27481377E+03</pdfrwt>
<pdfrwt beam="2">  1       -3 0.40169632E-02 0.27481377E+03</pdfrwt>
<totfact> 0.57963674E+02</totfact>
</mgrwt>
</event>
<event>
 9    1  0.2114844E-002  0.2745132E+03  0.7818608E-02  0.1098724E+00
         -2   -1    0    0    0  501 -0.00000000000E+00  0.00000000000E+00  0.14454203743E+02  0.14454203743E+02  0.00000000000E+00 0. -1.
          2   -1    0    0  501    0  0.00000000000E+00 -0.00000000000E+00 -0.13033833395E+04  0.13033833395E+04  0.00000000000E+00 0. -1.
         36    2    1    2    0    0  0.14210854715E-13  0.00000000000E+00 -0.12889291357E+04  0.13178375432E+04  0.27451315702E+03 0.  0.
         25    2    3    3    0    0 -0.63885636187E+02 -0.22578854521E+02 -0.54603202795E+03  0.56127757453E+03  0.11086190028E+03 0.  0.
         25    2    3    3    0    0  0.63885636187E+02  0.22578854521E+02 -0.74289710776E+03  0.75655996867E+03  0.12607812776E+03 0.  0.
          5    1    4    4  502    0 -0.90317024848E+02 -0.38831698886E+02 -0.40329149801E+03  0.41512791786E+03  0.47000000000E+01 0. -1.
         -5    1    4    4    0  502  0.26431388662E+02  0.16252844365E+02 -0.14274052994E+03  0.14614965667E+03  0.47000000000E+01 0. -1.
          5    1    5    5  503    0  0.91693343915E+01 -0.18020936100E+01 -0.61669639840E+03  0.61678510199E+03  0.47000000000E+01 0. -1.
         -5    1    5    5    0  503  0.54716301795E+02  0.24380948131E+02 -0.12620070935E+03  0.13977486668E+03  0.47000000000E+01 0. -1.
<mgrwt>
<rscale>  0 0.27451316E+03</rscale>
<asrwt>0</asrwt>
<pdfrwt beam="1">  1        2 0.20052062E+00 0.27451316E+03</pdfrwt>
<pdfrwt beam="2">  1       -2 0.22237225E-02 0.27451316E+03</pdfrwt>
<totfact> 0.11538772E+04</totfact>
</mgrwt>
</event>
<event>
 9    1  0.2114844E-002  0.2746179E+03  0.7818608E-02  0.1098665E+00
          1   -1    0    0  501    0  0.00000000000E+00  0.00000000000E+00  0.16153443784E+03  0.16153443784E+03  0.00000000000E+00 0.  1.
         -1   -1    0    0    0  501 -0.00000000000E+00 -0.00000000000E+00 -0.11671655611E+03  0.11671655611E+03  0.00000000000E+00 0.  1.
         36    2    1    2    0    0  0.00000000000E+00  0.00000000000E+00  0.44817881731E+02  0.27825099396E+03  0.27461786744E+03 0.  0.
         25    2    3    3    0    0 -0.88876271477E+01 -0.49420926796E+02 -0.39495868229E+02  0.11707495696E+03  0.98108124120E+02 0.  0.
         25    2    3    3    0    0  0.88876271477E+01  0.49420926796E+02  0.84313749960E+02  0.16117603700E+03  0.12785729759E+03 0.  0.
          5    1    4    4  502    0 -0.23291560797E+02 -0.21181455104E+02  0.27976628681E+02  0.42378444958E+02  0.47000000000E+01 0.  1.
         -5    1    4    4    0  502  0.14403933649E+02 -0.28239471693E+02 -0.67472496910E+02  0.74696512003E+02  0.47000000000E+01 0.  1.
          5    1    5    5  503    0 -0.38092661696E+02 -0.27418761049E+02  0.29814470077E+02  0.55801720032E+02  0.47000000000E+01 0. -1.
         -5    1    5    5    0  503  0.46980288844E+02  0.76839687845E+02  0.54499279883E+02  0.10537431696E+03  0.47000000000E+01 0. -1.
<mgrwt>
<rscale>  0 0.27461787E+03</rscale>
<asrwt>0</asrwt>
<pdfrwt beam="1">  1        1 0.24851452E-01 0.27461787E+03</pdfrwt>
<pdfrwt beam="2">  1       -1 0.17956393E-01 0.27461787E+03</pdfrwt>
<totfact> 0.46048000E+03</totfact>
</mgrwt>
</event>
<event>
 9    1  0.2114844E-002  0.2761391E+03  0.7818608E-02  0.1097817E+00
          1   -1    0    0  501    0  0.00000000000E+00  0.00000000000E+00  0.48951193189E+02  0.48951193189E+02  0.00000000000E+00 0.  1.
         -1   -1    0    0    0  501 -0.00000000000E+00 -0.00000000000E+00 -0.38943281274E+03  0.38943281274E+03  0.00000000000E+00 0.  1.
         36    2    1    2    0    0  0.71054273576E-14  0.00000000000E+00 -0.34048161955E+03  0.43838400593E+03  0.27613910155E+03 0.  0.
         25    2    3    3    0    0 -0.50129111490E+02 -0.17836286828E+02 -0.18457271190E+03  0.23077342156E+03  0.12789927746E+03 0.  0.
         25    2    3    3    0    0  0.50129111490E+02  0.17836286828E+02 -0.15590890766E+03  0.20761058437E+03  0.12634677008E+03 0.  0.
          5    1    4    4  502    0 -0.30329595375E+02  0.26222556556E+02 -0.45905909799E+00  0.40370875185E+02  0.47000000000E+01 0. -1.
         -5    1    4    4    0  502 -0.19799516115E+02 -0.44058843384E+02 -0.18411365280E+03  0.19040254637E+03  0.47000000000E+01 0. -1.
          5    1    5    5  503    0 -0.14379235790E+02  0.36987194862E+02 -0.12889499299E+03  0.13494748691E+03  0.47000000000E+01 0.  1.
         -5    1    5    5    0  503  0.64508347280E+02 -0.19150908034E+02 -0.27013914668E+02  0.72663097463E+02  0.47000000000E+01 0.  1.
<mgrwt>
<rscale>  0 0.27613910E+03</rscale>
<asrwt>0</asrwt>
<pdfrwt beam="1">  1        1 0.75309529E-02 0.27613910E+03</pdfrwt>
<pdfrwt beam="2">  1       -1 0.59912740E-01 0.27613910E+03</pdfrwt>
<totfact> 0.27450623E+03</totfact>
</mgrwt>
</event>
<event>
 9    1  0.2114844E-002  0.2747847E+03  0.7818608E-02  0.1098572E+00
         -3   -1    0    0    0  501 -0.00000000000E+00  0.00000000000E+00  0.44447070426E+03  0.44447070426E+03  0.00000000000E+00 0. -1.
          3   -1    0    0  501    0  0.00000000000E+00 -0.00000000000E+00 -0.42469968379E+02  0.42469968379E+02  0.00000000000E+00 0. -1.
         36    2    1    2    0    0 -0.35527136788E-14 -0.71054273576E-14  0.40200073588E+03  0.48694067264E+03  0.27478469212E+03 0.  0.
         25    2    3    3    0    0  0.20981180430E+02 -0.32276656154E+02  0.27420523583E+03  0.30645095444E+03  0.13130759178E+03 0.  0.
         25    2    3    3    0    0 -0.20981180430E+02  0.32276656154E+02  0.12779550006E+03  0.18048971820E+03  0.12150249412E+03 0.  0.
          5    1    4    4  502    0 -0.38680286498E+02 -0.32008597229E+02  0.38990899466E+02  0.63742412108E+02  0.47000000000E+01 0. -1.
         -5    1    4    4    0  502  0.59661466929E+02 -0.26805892467E+00  0.23521433636E+03  0.24270854233E+03  0.47000000000E+01 0. -1.
          5    1    5    5  503    0 -0.15830357663E+02 -0.35102891646E+02  0.10001536407E+03  0.10727523608E+03  0.47000000000E+01 0. -1.
         -5    1    5    5    0  503 -0.51508227680E+01  0.67379547799E+02  0.27780135985E+02  0.73214482121E+02  0.47000000000E+01 0. -1.
<mgrwt>
<rscale>  0 0.27478469E+03</rscale>
<asrwt>0</asrwt>
<pdfrwt beam="1">  1        3 0.65338416E-02 0.27478469E+03</pdfrwt>
<pdfrwt beam="2">  1       -3 0.68380105E-01 0.27478469E+03</pdfrwt>
<totfact> 0.78824869E+02</totfact>
</mgrwt>
</event>
<event>
 9    1  0.2114844E-002  0.2748930E+03  0.7818608E-02  0.1098511E+00
         -2   -1    0    0    0  501 -0.00000000000E+00  0.00000000000E+00  0.27452206317E+02  0.27452206317E+02  0.00000000000E+00 0.  1.
          2   -1    0    0  501    0  0.00000000000E+00 -0.00000000000E+00 -0.68816112324E+03  0.68816112324E+03  0.00000000000E+00 0.  1.
         36    2    1    2    0    0  0.35527136788E-14  0.14210854715E-13 -0.66070891693E+03  0.71561332956E+03  0.27489300562E+03 0.  0.
         25    2    3    3    0    0  0.71528507958E+01 -0.56647864967E+02 -0.42712427682E+03  0.45136538875E+03  0.13429602539E+03 0.  0.
         25    2    3    3    0    0 -0.71528507958E+01  0.56647864967E+02 -0.23358464011E+03  0.26424794081E+03  0.10956754194E+03 0.  0.
          5    1    4    4  502    0 -0.63132555079E+02 -0.30910202541E+02 -0.22526089760E+03  0.23602059681E+03  0.47000000000E+01 0. -1.
         -5    1    4    4    0  502  0.70285405875E+02 -0.25737662426E+02 -0.20186337922E+03  0.21534479194E+03  0.47000000000E+01 0. -1.
          5    1    5    5  503    0  0.75261399355E+01 -0.29590889156E+02 -0.32144771120E+02  0.44582954295E+02  0.47000000000E+01 0. -1.
         -5    1    5    5    0  503 -0.14678990731E+02  0.86238754123E+02 -0.20143986899E+03  0.21966498651E+03  0.47000000000E+01 0. -1.
<mgrwt>
<rscale>  0 0.27489301E+03</rscale>
<asrwt>0</asrwt>
<pdfrwt beam="1">  1        2 0.10587095E+00 0.27489301E+03</pdfrwt>
<pdfrwt beam="2">  1       -2 0.42234161E-02 0.27489301E+03</pdfrwt>
<totfact> 0.10796231E+04</totfact>
</mgrwt>
</event>
<event>
 9    1  0.2114844E-002  0.2767935E+03  0.7818608E-02  0.1097453E+00
         -1   -1    0    0    0  501 -0.00000000000E+00  0.00000000000E+00  0.38283614497E+02  0.38283614497E+02  0.00000000000E+00 0. -1.
          1   -1    0    0  501    0  0.00000000000E+00 -0.00000000000E+00 -0.50030949161E+03  0.50030949161E+03  0.00000000000E+00 0. -1.
         36    2    1    2    0    0  0.00000000000E+00  0.35527136788E-14 -0.46202587712E+03  0.53859310611E+03  0.27679346601E+03 0.  0.
         25    2    3    3    0    0 -0.56073328010E+02  0.17074099074E+02 -0.25593727642E+03  0.29046666854E+03  0.12422259495E+03 0.  0.
         25    2    3    3    0    0  0.56073328010E+02 -0.17074099074E+02 -0.20608860069E+03  0.24812643757E+03  0.12513382721E+03 0.  0.
          5    1    4    4  502    0 -0.60049720842E+02  0.32812932603E+01 -0.26571334182E+03  0.27247459676E+03  0.47000000000E+01 0. -1.
         -5    1    4    4    0  502  0.39763928320E+01  0.13792805814E+02  0.97760653985E+01  0.17992071777E+02  0.47000000000E+01 0. -1.
          5    1    5    5  503    0  0.75896650203E+02 -0.17914757847E+02 -0.54697750244E+02  0.95368621372E+02  0.47000000000E+01 0. -1.
         -5    1    5    5    0  503 -0.19823322192E+02  0.84065877275E+00 -0.15139085045E+03  0.15275781620E+03  0.47000000000E+01 0. -1.
<mgrwt>
<rscale>  0 0.27679347E+03</rscale>
<asrwt>0</asrwt>
<pdfrwt beam="1">  1        1 0.76970692E-01 0.27679347E+03</pdfrwt>
<pdfrwt beam="2">  1       -1 0.58897868E-02 0.27679347E+03</pdfrwt>
<totfact> 0.61727661E+03</totfact>
</mgrwt>
</event>
<event>
 9    1  0.2114844E-002  0.2750690E+03  0.7818608E-02  0.1098413E+00
         -1   -1    0    0    0  501 -0.00000000000E+00  0.00000000000E+00  0.21767298990E+02  0.21767298990E+02  0.00000000000E+00 0.  1.
          1   -1    0    0  501    0  0.00000000000E+00 -0.00000000000E+00 -0.86899808042E+03  0.86899808042E+03  0.00000000000E+00 0.  1.
         36    2    1    2    0    0  0.00000000000E+00  0.35527136788E-14 -0.84723078143E+03  0.89076537941E+03  0.27506901707E+03 0.  0.
         25    2    3    3    0    0 -0.54067886512E+02 -0.20095718003E+02 -0.54606682778E+03  0.56298875579E+03  0.12425853897E+03 0.  0.
         25    2    3    3    0    0  0.54067886512E+02  0.20095718003E+02 -0.30116395365E+03  0.32777662362E+03  0.11580420450E+03 0.  0.
          5    1    4    4  502    0 -0.86501290455E+01 -0.12674111917E+02 -0.11257427358E+01  0.16087732659E+02  0.47000000000E+01 0.  1.
         -5    1    4    4    0  502 -0.45417757466E+02 -0.74216060863E+01 -0.54494108505E+03  0.54690102313E+03  0.47000000000E+01 0.  1.
          5    1    5    5  503    0  0.37193354990E+02  0.45339784724E+02 -0.57777420549E+02  0.82458244339E+02  0.47000000000E+01 0. -1.
         -5    1    5    5    0  503  0.16874531522E+02 -0.25244066721E+02 -0.24338653310E+03  0.24531837928E+03  0.47000000000E+01 0. -1.
<mgrwt>
<rscale>  0 0.27506902E+03</rscale>
<asrwt>0</asrwt>
<pdfrwt beam="1">  1        1 0.13369200E+00 0.27506902E+03</pdfrwt>
<pdfrwt beam="2">  1       -1 0.33488157E-02 0.27506902E+03</pdfrwt>
<totfact> 0.64689282E+03</totfact>
</mgrwt>
</event>
<event>
 9    1  0.2114844E-002  0.2750751E+03  0.7818608E-02  0.1098410E+00
          3   -1    0    0  501    0  0.00000000000E+00  0.00000000000E+00  0.76726631087E+03  0.76726631087E+03  0.00000000000E+00 0.  1.
         -3   -1    0    0    0  501 -0.00000000000E+00 -0.00000000000E+00 -0.24654515542E+02  0.24654515542E+02  0.00000000000E+00 0.  1.
         36    2    1    2    0    0  0.00000000000E+00 -0.71054273576E-14  0.74261179532E+03  0.79192082641E+03  0.27507511110E+03 0.  0.
         25    2    3    3    0    0 -0.21621697363E+02 -0.41291686777E+02  0.28143909307E+03  0.30833063010E+03  0.11699279104E+03 0.  0.
         25    2    3    3    0    0  0.21621697363E+02  0.41291686777E+02  0.46117270225E+03  0.48359019631E+03  0.13786484493E+03 0.  0.
          5    1    4    4  502    0  0.32265554278E+02 -0.46392493770E+02  0.70330899422E+02  0.90342984701E+02  0.47000000000E+01 0. -1.
         -5    1    4    4    0  502 -0.53887251641E+02  0.51008069925E+01  0.21110819365E+03  0.21798764540E+03  0.47000000000E+01 0. -1.
          5    1    5    5  503    0 -0.49065531774E+02 -0.15872403597E+02  0.21435001504E+03  0.22051616392E+03  0.47000000000E+01 0. -1.
         -5    1    5    5    0  503  0.70687229137E+02  0.57164090374E+02  0.24682268721E+03  0.26307403239E+03  0.47000000000E+01 0. -1.
<mgrwt>
<rscale>  0 0.27507511E+03</rscale>
<asrwt>0</asrwt>
<pdfrwt beam="1">  1        3 0.11804095E+00 0.27507511E+03</pdfrwt>
<pdfrwt beam="2">  1       -3 0.37930030E-02 0.27507511E+03</pdfrwt>
<totfact> 0.55196009E+02</totfact>
</mgrwt>
</event>
<event>
 9    1  0.2114844E-002  0.2747153E+03  0.7818608E-02  0.1098611E+00
          2   -1    0    0  501    0  0.00000000000E+00  0.00000000000E+00  0.19743471506E+04  0.19743471506E+04  0.00000000000E+00 0. -1.
         -2   -1    0    0    0  501 -0.00000000000E+00 -0.00000000000E+00 -0.95561338990E+01  0.95561338990E+01  0.00000000000E+00 0. -1.
         36    2    1    2    0    0  0.14210854715E-13  0.88817841970E-15  0.19647910167E+04  0.19839032845E+04  0.27471531253E+03 0.  0.
         25    2    3    3    0    0  0.31773007519E+02  0.29729650790E+01  0.61754411943E+03  0.63105087834E+03  0.12588132940E+03 0.  0.
         25    2    3    3    0    0 -0.31773007519E+02 -0.29729650790E+01  0.13472468973E+04  0.13528524062E+04  0.11881526878E+03 0.  0.
          5    1    4    4  502    0  0.63383286042E+02 -0.22081115840E+02  0.18960456997E+03  0.20118896485E+03  0.47000000000E+01 0.  1.
         -5    1    4    4    0  502 -0.31610278523E+02  0.25054080919E+02  0.42793954946E+03  0.42986191349E+03  0.47000000000E+01 0.  1.
          5    1    5    5  503    0 -0.73197189276E+02  0.17858271518E+01  0.10625250025E+04  0.10650551575E+04  0.47000000000E+01 0.  1.
         -5    1    5    5    0  503  0.41424181757E+02 -0.47587922309E+01  0.28472189479E+03  0.28779724861E+03  0.47000000000E+01 0.  1.
<mgrwt>
<rscale>  0 0.27471531E+03</rscale>
<asrwt>0</asrwt>
<pdfrwt beam="1">  1        2 0.30374539E+00 0.27471531E+03</pdfrwt>
<pdfrwt beam="2">  1       -2 0.14701760E-02 0.27471531E+03</pdfrwt>
<totfact> 0.93117170E+03</totfact>
</mgrwt>
</event>
<event>
 9    1  0.2114844E-002  0.2752135E+03  0.7818608E-02  0.1098332E+00
          2   -1    0    0  501    0  0.00000000000E+00  0.00000000000E+00  0.23739862222E+04  0.23739862222E+04  0.00000000000E+00 0. -1.
         -2   -1    0    0    0  501 -0.00000000000E+00 -0.00000000000E+00 -0.79762991502E+01  0.79762991502E+01  0.00000000000E+00 0. -1.
         36    2    1    2    0    0  0.71054273576E-14  0.35527136788E-14  0.23660099231E+04  0.23819625214E+04  0.27521354826E+03 0.  0.
         25    2    3    3    0    0 -0.53038457019E+02 -0.18292691882E+02  0.12200900385E+04  0.12279036123E+04  0.12641154451E+03 0.  0.
         25    2    3    3    0    0  0.53038457019E+02  0.18292691882E+02  0.11459198845E+04  0.11540589090E+04  0.12478735201E+03 0.  0.
          5    1    4    4  502    0 -0.71741522641E+02 -0.50527063085E+02  0.57045553500E+03  0.57718405867E+03  0.47000000000E+01 0. -1.
         -5    1    4    4    0  502  0.18703065622E+02  0.32234371202E+02  0.64963450353E+03  0.65071955367E+03  0.47000000000E+01 0. -1.
          5    1    5    5  503    0  0.16058692128E+02  0.11842405536E+02  0.24259095812E+02  0.31760319447E+02  0.47000000000E+01 0.  1.
         -5    1    5    5    0  503  0.36979764891E+02  0.64502863461E+01  0.11216607887E+04  0.11222985896E+04  0.47000000000E+01 0.  1.
<mgrwt>
<rscale>  0 0.27521355E+03</rscale>
<asrwt>0</asrwt>
<pdfrwt beam="1">  1        2 0.36522809E+00 0.27521355E+03</pdfrwt>
<pdfrwt beam="2">  1       -2 0.12271248E-02 0.27521355E+03</pdfrwt>
<totfact> 0.74326147E+03</totfact>
</mgrwt>
</event>
<event>
 9    1  0.2114844E-002  0.2763841E+03  0.7818608E-02  0.1097680E+00
          1   -1    0    0  501    0  0.00000000000E+00  0.00000000000E+00  0.21608710482E+03  0.21608710482E+03  0.00000000000E+00 0.  1.
         -1   -1    0    0    0  501 -0.00000000000E+00 -0.00000000000E+00 -0.88376572199E+02  0.88376572199E+02  0.00000000000E+00 0.  1.
         36    2    1    2    0    0  0.00000000000E+00 -0.71054273576E-14  0.12771053262E+03  0.30446367702E+03  0.27638406337E+03 0.  0.
         25    2    3    3    0    0 -0.24157058794E+02 -0.10614347687E+01  0.51070795576E+01  0.12719126710E+03  0.12476716729E+03 0.  0.
         25    2    3    3    0    0  0.24157058794E+02  0.10614347687E+01  0.12260345307E+03  0.17727240992E+03  0.12573468289E+03 0.  0.
          5    1    4    4  502    0  0.34781016444E+02  0.35684701874E+02  0.23344396625E+02  0.55228325219E+02  0.47000000000E+01 0. -1.
         -5    1    4    4    0  502 -0.58938075238E+02 -0.36746136643E+02 -0.18237317068E+02  0.71962941885E+02  0.47000000000E+01 0. -1.
          5    1    5    5  503    0  0.55368534885E+02 -0.36792481704E+02  0.10610354052E+03  0.12529729716E+03  0.47000000000E+01 0.  1.
         -5    1    5    5    0  503 -0.31211476092E+02  0.37853916473E+02  0.16499912550E+02  0.51975112759E+02  0.47000000000E+01 0.  1.
<mgrwt>
<rscale>  0 0.27638406E+03</rscale>
<asrwt>0</asrwt>
<pdfrwt beam="1">  1        1 0.33244170E-01 0.27638406E+03</pdfrwt>
<pdfrwt beam="2">  1       -1 0.13596396E-01 0.27638406E+03</pdfrwt>
<totfact> 0.49636863E+03</totfact>
</mgrwt>
</event>
<event>
 9    1  0.2114844E-002  0.2750757E+03  0.7818608E-02  0.1098409E+00
         -2   -1    0    0    0  501 -0.00000000000E+00  0.00000000000E+00  0.56826015395E+01  0.56826015395E+01  0.00000000000E+00 0. -1.
          2   -1    0    0  501    0  0.00000000000E+00 -0.00000000000E+00 -0.33288720815E+04  0.33288720815E+04  0.00000000000E+00 0. -1.
         36    2    1    2    0    0  0.14210854715E-13  0.00000000000E+00 -0.33231894800E+04  0.33345546831E+04  0.27507565225E+03 0.  0.
         25    2    3    3    0    0  0.33331978466E+02  0.22706480827E+02 -0.21219292723E+04  0.21259433879E+04  0.12419680655E+03 0.  0.
         25    2    3    3    0    0 -0.33331978466E+02 -0.22706480827E+02 -0.12012602077E+04  0.12086112952E+04  0.12684073172E+03 0.  0.
          5    1    4    4  502    0 -0.47435604478E+02  0.83822117911E+01 -0.80440163267E+03  0.80585636108E+03  0.47000000000E+01 0.  1.
         -5    1    4    4    0  502  0.80767582944E+02  0.14324269036E+02 -0.13175276396E+04  0.13200870268E+04  0.47000000000E+01 0.  1.
          5    1    5    5  503    0  0.14199928561E+02 -0.28877690504E+02 -0.10351379282E+04  0.10356486757E+04  0.47000000000E+01 0.  1.
         -5    1    5    5    0  503 -0.47531907026E+02  0.61712096774E+01 -0.16612227944E+03  0.17296261949E+03  0.47000000000E+01 0.  1.
<mgrwt>
<rscale>  0 0.27507565E+03</rscale>
<asrwt>0</asrwt>
<pdfrwt beam="1">  1        2 0.51213521E+00 0.27507565E+03</pdfrwt>
<pdfrwt beam="2">  1       -2 0.87424461E-03 0.27507565E+03</pdfrwt>
<totfact> 0.33936671E+03</totfact>
</mgrwt>
</event>
<event>
 9    1  0.2114844E-002  0.2702701E+03  0.7818608E-02  0.1101125E+00
         -2   -1    0    0    0  501 -0.00000000000E+00  0.00000000000E+00  0.23206246026E+02  0.23206246026E+02  0.00000000000E+00 0.  1.
          2   -1    0    0  501    0  0.00000000000E+00 -0.00000000000E+00 -0.78692100050E+03  0.78692100050E+03  0.00000000000E+00 0.  1.
         36    2    1    2    0    0  0.00000000000E+00  0.00000000000E+00 -0.76371475447E+03  0.81012724652E+03  0.27027010445E+03 0.  0.
         25    2    3    3    0    0  0.86532355038E+01 -0.52388523396E+02 -0.37932468645E+03  0.40250273037E+03  0.12370042174E+03 0.  0.
         25    2    3    3    0    0 -0.86532355038E+01  0.52388523396E+02 -0.38439006802E+03  0.40762451615E+03  0.12483022833E+03 0.  0.
          5    1    4    4  502    0 -0.11136378170E+02 -0.48919183958E+02 -0.37851352125E+03  0.38185295763E+03  0.47000000000E+01 0. -1.
         -5    1    4    4    0  502  0.19789613674E+02 -0.34693394388E+01 -0.81116519757E+00  0.20649772747E+02  0.47000000000E+01 0. -1.
          5    1    5    5  503    0 -0.30237557373E+02  0.87400445638E+02 -0.23448082047E+03  0.25210413115E+03  0.47000000000E+01 0.  1.
         -5    1    5    5    0  503  0.21584321869E+02 -0.35011922241E+02 -0.14990924755E+03  0.15552038500E+03  0.47000000000E+01 0.  1.
<mgrwt>
<rscale>  0 0.27027010E+03</rscale>
<asrwt>0</asrwt>
<pdfrwt beam="1">  1        2 0.12106479E+00 0.27027010E+03</pdfrwt>
<pdfrwt beam="2">  1       -2 0.35701910E-02 0.27027010E+03</pdfrwt>
<totfact> 0.11768885E+04</totfact>
</mgrwt>
</event>
<event>
 9    1  0.2114844E-002  0.2747302E+03  0.7818608E-02  0.1098602E+00
          1   -1    0    0  501    0  0.00000000000E+00  0.00000000000E+00  0.78019880907E+03  0.78019880907E+03  0.00000000000E+00 0.  1.
         -1   -1    0    0    0  501 -0.00000000000E+00 -0.00000000000E+00 -0.24185087613E+02  0.24185087613E+02  0.00000000000E+00 0.  1.
         36    2    1    2    0    0 -0.35527136788E-14 -0.71054273576E-14  0.75601372145E+03  0.80438389668E+03  0.27473024262E+03 0.  0.
         25    2    3    3    0    0  0.27142163060E+02  0.31951323347E+02  0.49497745634E+03  0.51168782673E+03  0.12273616280E+03 0.  0.
         25    2    3    3    0    0 -0.27142163060E+02 -0.31951323347E+02  0.26103626511E+03  0.29269606995E+03  0.12559249014E+03 0.  0.
          5    1    4    4  502    0  0.83708819649E+01  0.30453188164E+02  0.23097247274E+02  0.39408643289E+02  0.47000000000E+01 0.  1.
         -5    1    4    4    0  502  0.18771281095E+02  0.14981351822E+01  0.47188020907E+03  0.47227918344E+03  0.47000000000E+01 0.  1.
          5    1    5    5  503    0 -0.32526510608E+02 -0.77222063007E+02  0.13942062988E+03  0.16273113699E+03  0.47000000000E+01 0. -1.
         -5    1    5    5    0  503  0.53843475479E+01  0.45270739660E+02  0.12161563523E+03  0.12996493296E+03  0.47000000000E+01 0. -1.
<mgrwt>
<rscale>  0 0.27473024E+03</rscale>
<asrwt>0</asrwt>
<pdfrwt beam="1">  1        1 0.12003057E+00 0.27473024E+03</pdfrwt>
<pdfrwt beam="2">  1       -1 0.37207833E-02 0.27473024E+03</pdfrwt>
<totfact> 0.65476403E+03</totfact>
</mgrwt>
</event>
