<event>
 4    1  0.1672993E-004  0.2513089E+03  0.7818608E-02  0.1112480E+00
          2   -1    0    0  501    0  0.00000000000E+00  0.00000000000E+00  0.66803486913E+03  0.66803486913E+03  0.00000000000E+00 0. -1.
         -2   -1    0    0    0  501 -0.00000000000E+00 -0.00000000000E+00 -0.23635061311E+02  0.23635061311E+02  0.00000000000E+00 0. -1.
         25    1    1    2    0    0 -0.36566522263E+02 -0.19904902340E+01  0.34126272134E+03  0.36359499113E+03  0.12000000000E+03 0.  0.
         25    1    1    2    0    0  0.36566522263E+02  0.19904902340E+01  0.30313708648E+03  0.32807493931E+03  0.12000000000E+03 0.  0.
<mgrwt>
<rscale>  0 0.25130893E+03</rscale>
<asrwt>0</asrwt>
<pdfrwt beam="1">  1        2 0.10277458E+00 0.25130893E+03</pdfrwt>
<pdfrwt beam="2">  1       -2 0.36361638E-02 0.25130893E+03</pdfrwt>
<totfact> 0.13956813E+04</totfact>
</mgrwt>
</event>
<event>
 4    1  0.1672993E-004  0.2835597E+03  0.7818608E-02  0.1093760E+00
          2   -1    0    0  501    0  0.00000000000E+00  0.00000000000E+00  0.27443240308E+04  0.27443240308E+04  0.00000000000E+00 0.  1.
         -2   -1    0    0    0  501 -0.00000000000E+00 -0.00000000000E+00 -0.73247643628E+01  0.73247643628E+01  0.00000000000E+00 0.  1.
         25    1    1    2    0    0  0.33236457109E+02 -0.55514253016E+02  0.99078878641E+03  0.10001244491E+04  0.12000000000E+03 0.  0.
         25    1    1    2    0    0 -0.33236457109E+02  0.55514253016E+02  0.17462104800E+04  0.17515243461E+04  0.12000000000E+03 0.  0.
<mgrwt>
<rscale>  0 0.28355971E+03</rscale>
<asrwt>0</asrwt>
<pdfrwt beam="1">  1        2 0.42220288E+00 0.28355971E+03</pdfrwt>
<pdfrwt beam="2">  1       -2 0.11268890E-02 0.28355971E+03</pdfrwt>
<totfact> 0.52500406E+03</totfact>
</mgrwt>
</event>
<event>
 4    1  0.1672993E-004  0.2485359E+03  0.7818608E-02  0.1114234E+00
         -2   -1    0    0    0  501 -0.00000000000E+00  0.00000000000E+00  0.14697847855E+02  0.14697847855E+02  0.00000000000E+00 0. -1.
          2   -1    0    0  501    0  0.00000000000E+00 -0.00000000000E+00 -0.10506652702E+04  0.10506652702E+04  0.00000000000E+00 0. -1.
         25    1    1    2    0    0  0.14606388691E+02  0.25117966268E+02 -0.45762699986E+03  0.47399022123E+03  0.12000000000E+03 0.  0.
         25    1    1    2    0    0 -0.14606388691E+02 -0.25117966268E+02 -0.57834042250E+03  0.59137289684E+03  0.12000000000E+03 0.  0.
<mgrwt>
<rscale>  0 0.24853586E+03</rscale>
<asrwt>0</asrwt>
<pdfrwt beam="1">  1        2 0.16164085E+00 0.24853586E+03</pdfrwt>
<pdfrwt beam="2">  1       -2 0.22612069E-02 0.24853586E+03</pdfrwt>
<totfact> 0.15657173E+04</totfact>
</mgrwt>
</event>
<event>
 4    1  0.1672993E-004  0.2869272E+03  0.7818608E-02  0.1091964E+00
          2   -1    0    0  501    0  0.00000000000E+00  0.00000000000E+00  0.34835991908E+03  0.34835991908E+03  0.00000000000E+00 0. -1.
         -2   -1    0    0    0  501 -0.00000000000E+00 -0.00000000000E+00 -0.59082016126E+02  0.59082016126E+02  0.00000000000E+00 0. -1.
         25    1    1    2    0    0 -0.70538108656E+02 -0.87114213719E+01  0.19237972505E+03  0.23761622892E+03  0.12000000000E+03 0.  0.
         25    1    1    2    0    0  0.70538108656E+02  0.87114213719E+01  0.96898177907E+02  0.16982570629E+03  0.12000000000E+03 0.  0.
<mgrwt>
<rscale>  0 0.28692721E+03</rscale>
<asrwt>0</asrwt>
<pdfrwt beam="1">  1        2 0.53593832E-01 0.28692721E+03</pdfrwt>
<pdfrwt beam="2">  1       -2 0.90895412E-02 0.28692721E+03</pdfrwt>
<totfact> 0.71440858E+03</totfact>
</mgrwt>
</event>
<event>
 4    1  0.1672993E-004  0.2544506E+03  0.7818608E-02  0.1110524E+00
         -2   -1    0    0    0  501 -0.00000000000E+00  0.00000000000E+00  0.31943319177E+03  0.31943319177E+03  0.00000000000E+00 0. -1.
          2   -1    0    0  501    0  0.00000000000E+00 -0.00000000000E+00 -0.50671882616E+02  0.50671882616E+02  0.00000000000E+00 0. -1.
         25    1    1    2    0    0 -0.39506686913E+02 -0.95959796122E+01  0.15118153622E+03  0.19725292908E+03  0.12000000000E+03 0.  0.
         25    1    1    2    0    0  0.39506686913E+02  0.95959796122E+01  0.11757977294E+03  0.17285214532E+03  0.12000000000E+03 0.  0.
<mgrwt>
<rscale>  0 0.25445063E+03</rscale>
<asrwt>0</asrwt>
<pdfrwt beam="1">  1        2 0.77956744E-02 0.25445063E+03</pdfrwt>
<pdfrwt beam="2">  1       -2 0.49143567E-01 0.25445063E+03</pdfrwt>
<totfact> 0.34677457E+03</totfact>
</mgrwt>
</event>
<event>
 4    1  0.1672993E-004  0.2776712E+03  0.7818608E-02  0.1096968E+00
          4   -1    0    0  501    0  0.00000000000E+00  0.00000000000E+00  0.77815914565E+03  0.77815914565E+03  0.00000000000E+00 0.  1.
         -4   -1    0    0    0  501 -0.00000000000E+00 -0.00000000000E+00 -0.24770412693E+02  0.24770412693E+02  0.00000000000E+00 0.  1.
         25    1    1    2    0    0  0.19846052917E+02  0.59848915183E+02  0.46342306352E+03  0.48284230787E+03  0.12000000000E+03 0.  0.
         25    1    1    2    0    0 -0.19846052917E+02 -0.59848915183E+02  0.28996566944E+03  0.32008725048E+03  0.12000000000E+03 0.  0.
<mgrwt>
<rscale>  0 0.27767120E+03</rscale>
<asrwt>0</asrwt>
<pdfrwt beam="1">  1        4 0.11971677E+00 0.27767120E+03</pdfrwt>
<pdfrwt beam="2">  1       -4 0.38108333E-02 0.27767120E+03</pdfrwt>
<totfact> 0.38510551E+02</totfact>
</mgrwt>
</event>
<event>
 4    1  0.1672993E-004  0.5414010E+03  0.7818608E-02  0.1003504E+00
         -2   -1    0    0    0  501 -0.00000000000E+00  0.00000000000E+00  0.67015978213E+03  0.67015978213E+03  0.00000000000E+00 0. -1.
          2   -1    0    0  501    0  0.00000000000E+00 -0.00000000000E+00 -0.10934520952E+03  0.10934520952E+03  0.00000000000E+00 0. -1.
         25    1    1    2    0    0 -0.22438157516E+03 -0.46688288865E+02  0.39515678259E+03  0.47230897770E+03  0.12000000000E+03 0.  0.
         25    1    1    2    0    0  0.22438157516E+03  0.46688288865E+02  0.16565779003E+03  0.30719601395E+03  0.12000000000E+03 0.  0.
<mgrwt>
<rscale>  0 0.54140100E+03</rscale>
<asrwt>0</asrwt>
<pdfrwt beam="1">  1        2 0.16822340E-01 0.54140100E+03</pdfrwt>
<pdfrwt beam="2">  1       -2 0.10310150E+00 0.54140100E+03</pdfrwt>
<totfact> 0.27142027E+02</totfact>
</mgrwt>
</event>
<event>
 4    1  0.1672993E-004  0.2513511E+03  0.7818608E-02  0.1112454E+00
         -2   -1    0    0    0  501 -0.00000000000E+00  0.00000000000E+00  0.13485986745E+03  0.13485986745E+03  0.00000000000E+00 0.  1.
          2   -1    0    0  501    0  0.00000000000E+00 -0.00000000000E+00 -0.11711672762E+03  0.11711672762E+03  0.00000000000E+00 0.  1.
         25    1    1    2    0    0 -0.23144370855E+02  0.98362402625E+01 -0.18800250102E+02  0.12403976350E+03  0.12000000000E+03 0.  0.
         25    1    1    2    0    0  0.23144370855E+02 -0.98362402625E+01  0.36543389935E+02  0.12793683157E+03  0.12000000000E+03 0.  0.
<mgrwt>
<rscale>  0 0.25135112E+03</rscale>
<asrwt>0</asrwt>
<pdfrwt beam="1">  1        2 0.18017958E-01 0.25135112E+03</pdfrwt>
<pdfrwt beam="2">  1       -2 0.20747672E-01 0.25135112E+03</pdfrwt>
<totfact> 0.61073506E+03</totfact>
</mgrwt>
</event>
<event>
 4    1  0.1672993E-004  0.2813574E+03  0.7818608E-02  0.1094950E+00
          2   -1    0    0  501    0  0.00000000000E+00  0.00000000000E+00  0.28445518152E+03  0.28445518152E+03  0.00000000000E+00 0.  1.
         -2   -1    0    0    0  501 -0.00000000000E+00 -0.00000000000E+00 -0.69573328294E+02  0.69573328294E+02  0.00000000000E+00 0.  1.
         25    1    1    2    0    0  0.61474113194E+02  0.29003254840E+02  0.14236239481E+03  0.19821025917E+03  0.12000000000E+03 0.  0.
         25    1    1    2    0    0 -0.61474113194E+02 -0.29003254840E+02  0.72519458414E+02  0.15581825064E+03  0.12000000000E+03 0.  0.
<mgrwt>
<rscale>  0 0.28135738E+03</rscale>
<asrwt>0</asrwt>
<pdfrwt beam="1">  1        2 0.43762335E-01 0.28135738E+03</pdfrwt>
<pdfrwt beam="2">  1       -2 0.10703589E-01 0.28135738E+03</pdfrwt>
<totfact> 0.68502125E+03</totfact>
</mgrwt>
</event>
<event>
 4    1  0.1672993E-004  0.3170029E+03  0.7818608E-02  0.1077037E+00
          2   -1    0    0  501    0  0.00000000000E+00  0.00000000000E+00  0.20793500632E+04  0.20793500632E+04  0.00000000000E+00 0.  1.
         -2   -1    0    0    0  501 -0.00000000000E+00 -0.00000000000E+00 -0.12082004424E+02  0.12082004424E+02  0.00000000000E+00 0.  1.
         25    1    1    2    0    0 -0.25483047396E+02  0.15186193727E+02  0.16881764861E+04  0.16926960313E+04  0.12000000000E+03 0.  0.
         25    1    1    2    0    0  0.25483047396E+02 -0.15186193727E+02  0.37909157271E+03  0.39873603635E+03  0.12000000000E+03 0.  0.
<mgrwt>
<rscale>  0 0.31700294E+03</rscale>
<asrwt>0</asrwt>
<pdfrwt beam="1">  1        2 0.31989973E+00 0.31700294E+03</pdfrwt>
<pdfrwt beam="2">  1       -2 0.18587716E-02 0.31700294E+03</pdfrwt>
<totfact> 0.58104921E+03</totfact>
</mgrwt>
</event>
<event>
 4    1  0.1672993E-004  0.2761801E+03  0.7818608E-02  0.1097794E+00
          1   -1    0    0  501    0  0.00000000000E+00  0.00000000000E+00  0.10988330329E+03  0.10988330329E+03  0.00000000000E+00 0.  1.
         -1   -1    0    0    0  501 -0.00000000000E+00 -0.00000000000E+00 -0.17353736488E+03  0.17353736488E+03  0.00000000000E+00 0.  1.
         25    1    1    2    0    0  0.30841825006E+02  0.57829642267E+02 -0.51656484150E+02  0.14616387395E+03  0.12000000000E+03 0.  0.
         25    1    1    2    0    0 -0.30841825006E+02 -0.57829642267E+02 -0.11997577442E+02  0.13725679422E+03  0.12000000000E+03 0.  0.
<mgrwt>
<rscale>  0 0.27618008E+03</rscale>
<asrwt>0</asrwt>
<pdfrwt beam="1">  1        1 0.16905124E-01 0.27618008E+03</pdfrwt>
<pdfrwt beam="2">  1       -1 0.26698056E-01 0.27618008E+03</pdfrwt>
<totfact> 0.39443769E+03</totfact>
</mgrwt>
</event>
<event>
 4    1  0.1672993E-004  0.2665817E+03  0.7818608E-02  0.1103252E+00
         -2   -1    0    0    0  501 -0.00000000000E+00  0.00000000000E+00  0.35117470733E+02  0.35117470733E+02  0.00000000000E+00 0. -1.
          2   -1    0    0  501    0  0.00000000000E+00 -0.00000000000E+00 -0.50591477905E+03  0.50591477905E+03  0.00000000000E+00 0. -1.
         25    1    1    2    0    0 -0.37392901642E+02  0.20610938947E+02 -0.31513074811E+03  0.33989767328E+03  0.12000000000E+03 0.  0.
         25    1    1    2    0    0  0.37392901642E+02 -0.20610938947E+02 -0.15566656020E+03  0.20113457650E+03  0.12000000000E+03 0.  0.
<mgrwt>
<rscale>  0 0.26658168E+03</rscale>
<asrwt>0</asrwt>
<pdfrwt beam="1">  1        2 0.77833031E-01 0.26658168E+03</pdfrwt>
<pdfrwt beam="2">  1       -2 0.54026886E-02 0.26658168E+03</pdfrwt>
<totfact> 0.10603177E+04</totfact>
</mgrwt>
</event>
<event>
 4    1  0.1672993E-004  0.3281544E+03  0.7818608E-02  0.1071956E+00
         -1   -1    0    0    0  501 -0.00000000000E+00  0.00000000000E+00  0.11260383799E+03  0.11260383799E+03  0.00000000000E+00 0. -1.
          1   -1    0    0  501    0  0.00000000000E+00 -0.00000000000E+00 -0.23908003039E+03  0.23908003039E+03  0.00000000000E+00 0. -1.
         25    1    1    2    0    0 -0.13313853250E+02 -0.39939834142E+02 -0.17434877759E+03  0.21580070734E+03  0.12000000000E+03 0.  0.
         25    1    1    2    0    0  0.13313853250E+02  0.39939834142E+02  0.47872585191E+02  0.13588316103E+03  0.12000000000E+03 0.  0.
<mgrwt>
<rscale>  0 0.32815441E+03</rscale>
<asrwt>0</asrwt>
<pdfrwt beam="1">  1        1 0.36781543E-01 0.32815441E+03</pdfrwt>
<pdfrwt beam="2">  1       -1 0.17323667E-01 0.32815441E+03</pdfrwt>
<totfact> 0.29826961E+03</totfact>
</mgrwt>
</event>
<event>
 4    1  0.1672993E-004  0.2690071E+03  0.7818608E-02  0.1101849E+00
          2   -1    0    0  501    0  0.00000000000E+00  0.00000000000E+00  0.14987891798E+04  0.14987891798E+04  0.00000000000E+00 0.  1.
         -2   -1    0    0    0  501 -0.00000000000E+00 -0.00000000000E+00 -0.12070547230E+02  0.12070547230E+02  0.00000000000E+00 0.  1.
         25    1    1    2    0    0 -0.36369997507E+02 -0.38416666948E+02  0.91115703584E+03  0.92054644694E+03  0.12000000000E+03 0.  0.
         25    1    1    2    0    0  0.36369997507E+02  0.38416666948E+02  0.57556159677E+03  0.59031328013E+03  0.12000000000E+03 0.  0.
<mgrwt>
<rscale>  0 0.26900710E+03</rscale>
<asrwt>0</asrwt>
<pdfrwt beam="1">  1        2 0.23058280E+00 0.26900710E+03</pdfrwt>
<pdfrwt beam="2">  1       -2 0.18570085E-02 0.26900710E+03</pdfrwt>
<totfact> 0.11775307E+04</totfact>
</mgrwt>
</event>
<event>
 4    1  0.1672993E-004  0.2482080E+03  0.7818608E-02  0.1114443E+00
         -2   -1    0    0    0  501 -0.00000000000E+00  0.00000000000E+00  0.23128287941E+02  0.23128287941E+02  0.00000000000E+00 0.  1.
          2   -1    0    0  501    0  0.00000000000E+00 -0.00000000000E+00 -0.66592934240E+03  0.66592934240E+03  0.00000000000E+00 0.  1.
         25    1    1    2    0    0 -0.21431365775E+02  0.18754354417E+02 -0.28305612446E+03  0.30875847979E+03  0.12000000000E+03 0.  0.
         25    1    1    2    0    0  0.21431365775E+02 -0.18754354417E+02 -0.35974492999E+03  0.38029915054E+03  0.12000000000E+03 0.  0.
<mgrwt>
<rscale>  0 0.24820802E+03</rscale>
<asrwt>0</asrwt>
<pdfrwt beam="1">  1        2 0.10245067E+00 0.24820802E+03</pdfrwt>
<pdfrwt beam="2">  1       -2 0.35581981E-02 0.24820802E+03</pdfrwt>
<totfact> 0.14462675E+04</totfact>
</mgrwt>
</event>
<event>
 4    1  0.1672993E-004  0.3154363E+03  0.7818608E-02  0.1077769E+00
         -1   -1    0    0    0  501 -0.00000000000E+00  0.00000000000E+00  0.81302034534E+02  0.81302034534E+02  0.00000000000E+00 0.  1.
          1   -1    0    0  501    0  0.00000000000E+00 -0.00000000000E+00 -0.30595813606E+03  0.30595813606E+03  0.00000000000E+00 0.  1.
         25    1    1    2    0    0 -0.86500508255E+02  0.54705041289E+02 -0.11257196729E+03  0.19377158535E+03  0.12000000000E+03 0.  0.
         25    1    1    2    0    0  0.86500508255E+02 -0.54705041289E+02 -0.11208413423E+03  0.19348858524E+03  0.12000000000E+03 0.  0.
<mgrwt>
<rscale>  0 0.31543633E+03</rscale>
<asrwt>0</asrwt>
<pdfrwt beam="1">  1        1 0.47070482E-01 0.31543633E+03</pdfrwt>
<pdfrwt beam="2">  1       -1 0.12508005E-01 0.31543633E+03</pdfrwt>
<totfact> 0.36659291E+03</totfact>
</mgrwt>
</event>
<event>
 4    1  0.1672993E-004  0.2819636E+03  0.7818608E-02  0.1094621E+00
         -2   -1    0    0    0  501 -0.00000000000E+00  0.00000000000E+00  0.43099221535E+02  0.43099221535E+02  0.00000000000E+00 0.  1.
          2   -1    0    0  501    0  0.00000000000E+00 -0.00000000000E+00 -0.46116545157E+03  0.46116545157E+03  0.00000000000E+00 0.  1.
         25    1    1    2    0    0  0.41515402014E+02  0.30506294974E+02 -0.11403355587E+03  0.17337189651E+03  0.12000000000E+03 0.  0.
         25    1    1    2    0    0 -0.41515402014E+02 -0.30506294974E+02 -0.30403267416E+03  0.33089277659E+03  0.12000000000E+03 0.  0.
<mgrwt>
<rscale>  0 0.28196363E+03</rscale>
<asrwt>0</asrwt>
<pdfrwt beam="1">  1        2 0.70948536E-01 0.28196363E+03</pdfrwt>
<pdfrwt beam="2">  1       -2 0.66306490E-02 0.28196363E+03</pdfrwt>
<totfact> 0.86034884E+03</totfact>
</mgrwt>
</event>
<event>
 4    1  0.1672993E-004  0.2951568E+03  0.7818608E-02  0.1087687E+00
          1   -1    0    0  501    0  0.00000000000E+00  0.00000000000E+00  0.95567992994E+02  0.95567992994E+02  0.00000000000E+00 0. -1.
         -1   -1    0    0    0  501 -0.00000000000E+00 -0.00000000000E+00 -0.22789405860E+03  0.22789405860E+03  0.00000000000E+00 0. -1.
         25    1    1    2    0    0 -0.11274160594E+01 -0.58005749922E+02 -0.13559012534E+03  0.19013316433E+03  0.12000000000E+03 0.  0.
         25    1    1    2    0    0  0.11274160594E+01  0.58005749922E+02  0.32640597337E+01  0.13332888726E+03  0.12000000000E+03 0.  0.
<mgrwt>
<rscale>  0 0.29515676E+03</rscale>
<asrwt>0</asrwt>
<pdfrwt beam="1">  1        1 0.14702768E-01 0.29515676E+03</pdfrwt>
<pdfrwt beam="2">  1       -1 0.35060624E-01 0.29515676E+03</pdfrwt>
<totfact> 0.29783928E+03</totfact>
</mgrwt>
</event>
<event>
 4    1  0.1672993E-004  0.2789141E+03  0.7818608E-02  0.1096284E+00
         -1   -1    0    0    0  501 -0.00000000000E+00  0.00000000000E+00  0.17300158590E+02  0.17300158590E+02  0.00000000000E+00 0.  1.
          1   -1    0    0  501    0  0.00000000000E+00 -0.00000000000E+00 -0.11241671013E+04  0.11241671013E+04  0.00000000000E+00 0.  1.
         25    1    1    2    0    0 -0.51729649588E+01  0.65449980297E+02 -0.44226921929E+03  0.46293900443E+03  0.12000000000E+03 0.  0.
         25    1    1    2    0    0  0.51729649588E+01 -0.65449980297E+02 -0.66459772337E+03  0.67852825541E+03  0.12000000000E+03 0.  0.
<mgrwt>
<rscale>  0 0.27891410E+03</rscale>
<asrwt>0</asrwt>
<pdfrwt beam="1">  1        1 0.17294883E+00 0.27891410E+03</pdfrwt>
<pdfrwt beam="2">  1       -1 0.26615621E-02 0.27891410E+03</pdfrwt>
<totfact> 0.58365610E+03</totfact>
</mgrwt>
</event>
<event>
 4    1  0.1672993E-004  0.3371335E+03  0.7818608E-02  0.1068023E+00
         -1   -1    0    0    0  501 -0.00000000000E+00  0.00000000000E+00  0.55124088087E+02  0.55124088087E+02  0.00000000000E+00 0.  1.
          1   -1    0    0  501    0  0.00000000000E+00 -0.00000000000E+00 -0.51546869263E+03  0.51546869263E+03  0.00000000000E+00 0.  1.
         25    1    1    2    0    0  0.85049040888E+02  0.57863212502E+02 -0.32934158970E+03  0.36530449412E+03  0.12000000000E+03 0.  0.
         25    1    1    2    0    0 -0.85049040888E+02 -0.57863212502E+02 -0.13100301484E+03  0.20528828660E+03  0.12000000000E+03 0.  0.
<mgrwt>
<rscale>  0 0.33713345E+03</rscale>
<asrwt>0</asrwt>
<pdfrwt beam="1">  1        1 0.79302875E-01 0.33713345E+03</pdfrwt>
<pdfrwt beam="2">  1       -1 0.84806290E-02 0.33713345E+03</pdfrwt>
<totfact> 0.34185309E+03</totfact>
</mgrwt>
</event>
<event>
 4    1  0.1672993E-004  0.2496531E+03  0.7818608E-02  0.1113524E+00
          2   -1    0    0  501    0  0.00000000000E+00  0.00000000000E+00  0.91015576277E+03  0.91015576277E+03  0.00000000000E+00 0. -1.
         -2   -1    0    0    0  501 -0.00000000000E+00 -0.00000000000E+00 -0.17119775600E+02  0.17119775600E+02  0.00000000000E+00 0. -1.
         25    1    1    2    0    0 -0.18000183736E+01 -0.81937576026E+01  0.32269976753E+03  0.34439151804E+03  0.12000000000E+03 0.  0.
         25    1    1    2    0    0  0.18000183736E+01  0.81937576026E+01  0.57033621964E+03  0.58288402033E+03  0.12000000000E+03 0.  0.
<mgrwt>
<rscale>  0 0.24965306E+03</rscale>
<asrwt>0</asrwt>
<pdfrwt beam="1">  1        2 0.14002393E+00 0.24965306E+03</pdfrwt>
<pdfrwt beam="2">  1       -2 0.26338123E-02 0.24965306E+03</pdfrwt>
<totfact> 0.15265806E+04</totfact>
</mgrwt>
</event>
<event>
 4    1  0.1672993E-004  0.2785913E+03  0.7818608E-02  0.1096461E+00
          2   -1    0    0  501    0  0.00000000000E+00  0.00000000000E+00  0.37996040233E+04  0.37996040233E+04  0.00000000000E+00 0.  1.
         -2   -1    0    0    0  501 -0.00000000000E+00 -0.00000000000E+00 -0.51066591409E+01  0.51066591409E+01  0.00000000000E+00 0.  1.
         25    1    1    2    0    0 -0.33473493661E-01  0.56328699833E+02  0.13129671149E+04  0.13196422123E+04  0.12000000000E+03 0.  0.
         25    1    1    2    0    0  0.33473493661E-01 -0.56328699833E+02  0.24815302492E+04  0.24850684701E+04  0.12000000000E+03 0.  0.
<mgrwt>
<rscale>  0 0.27859133E+03</rscale>
<asrwt>0</asrwt>
<pdfrwt beam="1">  1        2 0.58455220E+00 0.27859133E+03</pdfrwt>
<pdfrwt beam="2">  1       -2 0.78564291E-03 0.27859133E+03</pdfrwt>
<totfact> 0.19050286E+03</totfact>
</mgrwt>
</event>
<event>
 4    1  0.1672993E-004  0.3037347E+03  0.7818608E-02  0.1083388E+00
         -1   -1    0    0    0  501 -0.00000000000E+00  0.00000000000E+00  0.27728568127E+03  0.27728568127E+03  0.00000000000E+00 0.  1.
          1   -1    0    0  501    0  0.00000000000E+00 -0.00000000000E+00 -0.83176632516E+02  0.83176632516E+02  0.00000000000E+00 0.  1.
         25    1    1    2    0    0  0.26807189141E+02 -0.50909850708E+02  0.18388542031E+03  0.22698961670E+03  0.12000000000E+03 0.  0.
         25    1    1    2    0    0 -0.26807189141E+02  0.50909850708E+02  0.10223628449E+02  0.13347269709E+03  0.12000000000E+03 0.  0.
<mgrwt>
<rscale>  0 0.30373468E+03</rscale>
<asrwt>0</asrwt>
<pdfrwt beam="1">  1        1 0.12796405E-01 0.30373468E+03</pdfrwt>
<pdfrwt beam="2">  1       -1 0.42659335E-01 0.30373468E+03</pdfrwt>
<totfact> 0.25308017E+03</totfact>
</mgrwt>
</event>
<event>
 4    1  0.1672993E-004  0.2698336E+03  0.7818608E-02  0.1101375E+00
          1   -1    0    0  501    0  0.00000000000E+00  0.00000000000E+00  0.79303148641E+03  0.79303148641E+03  0.00000000000E+00 0. -1.
         -1   -1    0    0    0  501 -0.00000000000E+00 -0.00000000000E+00 -0.22953114400E+02  0.22953114400E+02  0.00000000000E+00 0. -1.
         25    1    1    2    0    0 -0.54805580293E+02  0.17250150347E+02  0.31733043467E+03  0.34409275506E+03  0.12000000000E+03 0.  0.
         25    1    1    2    0    0  0.54805580293E+02 -0.17250150347E+02  0.45274793734E+03  0.47189184575E+03  0.12000000000E+03 0.  0.
<mgrwt>
<rscale>  0 0.26983360E+03</rscale>
<asrwt>0</asrwt>
<pdfrwt beam="1">  1        1 0.12200482E+00 0.26983360E+03</pdfrwt>
<pdfrwt beam="2">  1       -1 0.35312490E-02 0.26983360E+03</pdfrwt>
<totfact> 0.68978504E+03</totfact>
</mgrwt>
</event>
<event>
 4    1  0.1672993E-004  0.3256854E+03  0.7818608E-02  0.1073062E+00
          2   -1    0    0  501    0  0.00000000000E+00  0.00000000000E+00  0.23093733184E+03  0.23093733184E+03  0.00000000000E+00 0. -1.
         -2   -1    0    0    0  501 -0.00000000000E+00 -0.00000000000E+00 -0.11482655721E+03  0.11482655721E+03  0.00000000000E+00 0. -1.
         25    1    1    2    0    0  0.25813948658E+02 -0.52370167150E+02 -0.41018491647E+02  0.13961200167E+03  0.12000000000E+03 0.  0.
         25    1    1    2    0    0 -0.25813948658E+02  0.52370167150E+02  0.15712926628E+03  0.20615188739E+03  0.12000000000E+03 0.  0.
<mgrwt>
<rscale>  0 0.32568536E+03</rscale>
<asrwt>0</asrwt>
<pdfrwt beam="1">  1        2 0.35528820E-01 0.32568536E+03</pdfrwt>
<pdfrwt beam="2">  1       -2 0.17665624E-01 0.32568536E+03</pdfrwt>
<totfact> 0.37868142E+03</totfact>
</mgrwt>
</event>
<event>
 4    1  0.1672993E-004  0.2719130E+03  0.7818608E-02  0.1100190E+00
          2   -1    0    0  501    0  0.00000000000E+00  0.00000000000E+00  0.46141025634E+03  0.46141025634E+03  0.00000000000E+00 0. -1.
         -2   -1    0    0    0  501 -0.00000000000E+00 -0.00000000000E+00 -0.40060177030E+02  0.40060177030E+02  0.00000000000E+00 0. -1.
         25    1    1    2    0    0 -0.37473796317E+02 -0.47821051606E+02  0.17411281234E+03  0.22001456726E+03  0.12000000000E+03 0.  0.
         25    1    1    2    0    0  0.37473796317E+02  0.47821051606E+02  0.24723726697E+03  0.28145586611E+03  0.12000000000E+03 0.  0.
<mgrwt>
<rscale>  0 0.27191305E+03</rscale>
<asrwt>0</asrwt>
<pdfrwt beam="1">  1        2 0.70986190E-01 0.27191305E+03</pdfrwt>
<pdfrwt beam="2">  1       -2 0.61631045E-02 0.27191305E+03</pdfrwt>
<totfact> 0.96103227E+03</totfact>
</mgrwt>
</event>
<event>
 4    1  0.1672993E-004  0.5679463E+03  0.7818608E-02  0.9974233E-01
          2   -1    0    0  501    0  0.00000000000E+00  0.00000000000E+00  0.27542137359E+03  0.27542137359E+03  0.00000000000E+00 0.  1.
         -2   -1    0    0    0  501 -0.00000000000E+00 -0.00000000000E+00 -0.29279045310E+03  0.29279045310E+03  0.00000000000E+00 0.  1.
         25    1    1    2    0    0 -0.88561220673E+02 -0.17695336884E+03 -0.17333719317E+03  0.28913900997E+03  0.12000000000E+03 0.  0.
         25    1    1    2    0    0  0.88561220673E+02  0.17695336884E+03  0.15596811366E+03  0.27907281672E+03  0.12000000000E+03 0.  0.
<mgrwt>
<rscale>  0 0.56794630E+03</rscale>
<asrwt>0</asrwt>
<pdfrwt beam="1">  1        2 0.42372519E-01 0.56794630E+03</pdfrwt>
<pdfrwt beam="2">  1       -2 0.45044685E-01 0.56794630E+03</pdfrwt>
<totfact> 0.56871632E+02</totfact>
</mgrwt>
</event>
<event>
 4    1  0.1672993E-004  0.3767225E+03  0.7818608E-02  0.1052152E+00
         -2   -1    0    0    0  501 -0.00000000000E+00  0.00000000000E+00  0.23233942989E+02  0.23233942989E+02  0.00000000000E+00 0.  1.
          2   -1    0    0  501    0  0.00000000000E+00 -0.00000000000E+00 -0.15270743560E+04  0.15270743560E+04  0.00000000000E+00 0.  1.
         25    1    1    2    0    0  0.62404468012E+02  0.13105331548E+03 -0.73847812365E+03  0.76211497048E+03  0.12000000000E+03 0.  0.
         25    1    1    2    0    0 -0.62404468012E+02 -0.13105331548E+03 -0.76536228940E+03  0.78819332855E+03  0.12000000000E+03 0.  0.
<mgrwt>
<rscale>  0 0.37672249E+03</rscale>
<asrwt>0</asrwt>
<pdfrwt beam="1">  1        2 0.23493454E+00 0.37672249E+03</pdfrwt>
<pdfrwt beam="2">  1       -2 0.35744524E-02 0.37672249E+03</pdfrwt>
<totfact> 0.43053102E+03</totfact>
</mgrwt>
</event>
<event>
 4    1  0.1672993E-004  0.2622924E+03  0.7818608E-02  0.1105774E+00
          2   -1    0    0  501    0  0.00000000000E+00  0.00000000000E+00  0.10307738233E+04  0.10307738233E+04  0.00000000000E+00 0. -1.
         -2   -1    0    0    0  501 -0.00000000000E+00 -0.00000000000E+00 -0.16685833069E+02  0.16685833069E+02  0.00000000000E+00 0. -1.
         25    1    1    2    0    0  0.17765584329E+02 -0.39700784359E+01  0.70543372427E+03  0.71579893605E+03  0.12000000000E+03 0.  0.
         25    1    1    2    0    0 -0.17765584329E+02  0.39700784359E+01  0.30865426599E+03  0.33166072035E+03  0.12000000000E+03 0.  0.
<mgrwt>
<rscale>  0 0.26229236E+03</rscale>
<asrwt>0</asrwt>
<pdfrwt beam="1">  1        2 0.15858054E+00 0.26229236E+03</pdfrwt>
<pdfrwt beam="2">  1       -2 0.25670520E-02 0.26229236E+03</pdfrwt>
<totfact> 0.13372267E+04</totfact>
</mgrwt>
</event>
<event>
 4    1  0.1672993E-004  0.3102301E+03  0.7818608E-02  0.1080236E+00
          4   -1    0    0  501    0  0.00000000000E+00  0.00000000000E+00  0.33309495608E+03  0.33309495608E+03  0.00000000000E+00 0. -1.
         -4   -1    0    0    0  501 -0.00000000000E+00 -0.00000000000E+00 -0.72233695104E+02  0.72233695104E+02  0.00000000000E+00 0. -1.
         25    1    1    2    0    0 -0.70152405135E+02  0.51820364468E+01  0.40739916549E+02  0.14494120963E+03  0.12000000000E+03 0.  0.
         25    1    1    2    0    0  0.70152405135E+02 -0.51820364468E+01  0.22012134443E+03  0.26038744156E+03  0.12000000000E+03 0.  0.
<mgrwt>
<rscale>  0 0.31023010E+03</rscale>
<asrwt>0</asrwt>
<pdfrwt beam="1">  1        4 0.51245377E-01 0.31023010E+03</pdfrwt>
<pdfrwt beam="2">  1       -4 0.11112876E-01 0.31023010E+03</pdfrwt>
<totfact> 0.44430849E+02</totfact>
</mgrwt>
</event>
<event>
 4    1  0.1672993E-004  0.2962253E+03  0.7818608E-02  0.1087143E+00
         -2   -1    0    0    0  501 -0.00000000000E+00  0.00000000000E+00  0.10775222667E+02  0.10775222667E+02  0.00000000000E+00 0. -1.
          2   -1    0    0  501    0  0.00000000000E+00 -0.00000000000E+00 -0.20359079506E+04  0.20359079506E+04  0.00000000000E+00 0. -1.
         25    1    1    2    0    0 -0.83276278283E+02  0.77428202057E+01 -0.85164378883E+03  0.86411343749E+03  0.12000000000E+03 0.  0.
         25    1    1    2    0    0  0.83276278283E+02 -0.77428202057E+01 -0.11734889391E+04  0.11825697358E+04  0.12000000000E+03 0.  0.
<mgrwt>
<rscale>  0 0.29622533E+03</rscale>
<asrwt>0</asrwt>
<pdfrwt beam="1">  1        2 0.31321672E+00 0.29622533E+03</pdfrwt>
<pdfrwt beam="2">  1       -2 0.16577259E-02 0.29622533E+03</pdfrwt>
<totfact> 0.72509296E+03</totfact>
</mgrwt>
</event>
<event>
 4    1  0.1672993E-004  0.2830204E+03  0.7818608E-02  0.1094051E+00
          4   -1    0    0  501    0  0.00000000000E+00  0.00000000000E+00  0.25954716019E+03  0.25954716019E+03  0.00000000000E+00 0.  1.
         -4   -1    0    0    0  501 -0.00000000000E+00 -0.00000000000E+00 -0.77154122128E+02  0.77154122128E+02  0.00000000000E+00 0.  1.
         25    1    1    2    0    0  0.58169257700E+02  0.46883230887E+02  0.99036934159E+02  0.17259783952E+03  0.12000000000E+03 0.  0.
         25    1    1    2    0    0 -0.58169257700E+02 -0.46883230887E+02  0.83356103902E+02  0.16410344280E+03  0.12000000000E+03 0.  0.
<mgrwt>
<rscale>  0 0.28302038E+03</rscale>
<asrwt>0</asrwt>
<pdfrwt beam="1">  1        4 0.39930332E-01 0.28302038E+03</pdfrwt>
<pdfrwt beam="2">  1       -4 0.11869865E-01 0.28302038E+03</pdfrwt>
<totfact> 0.65034552E+02</totfact>
</mgrwt>
</event>
<event>
 4    1  0.1672993E-004  0.2742066E+03  0.7818608E-02  0.1098896E+00
          1   -1    0    0  501    0  0.00000000000E+00  0.00000000000E+00  0.19637885761E+04  0.19637885761E+04  0.00000000000E+00 0.  1.
         -1   -1    0    0    0  501 -0.00000000000E+00 -0.00000000000E+00 -0.95719620715E+01  0.95719620715E+01  0.00000000000E+00 0.  1.
         25    1    1    2    0    0  0.49334582218E+02 -0.20096546545E+02  0.69290670823E+03  0.70523576094E+03  0.12000000000E+03 0.  0.
         25    1    1    2    0    0 -0.49334582218E+02  0.20096546545E+02  0.12613099057E+04  0.12681247772E+04  0.12000000000E+03 0.  0.
<mgrwt>
<rscale>  0 0.27420656E+03</rscale>
<asrwt>0</asrwt>
<pdfrwt beam="1">  1        1 0.30212100E+00 0.27420656E+03</pdfrwt>
<pdfrwt beam="2">  1       -1 0.14726111E-02 0.27420656E+03</pdfrwt>
<totfact> 0.38183839E+03</totfact>
</mgrwt>
</event>
<event>
 4    1  0.1672993E-004  0.2719389E+03  0.7818608E-02  0.1100175E+00
         -1   -1    0    0    0  501 -0.00000000000E+00  0.00000000000E+00  0.12752980712E+02  0.12752980712E+02  0.00000000000E+00 0. -1.
          1   -1    0    0  501    0  0.00000000000E+00 -0.00000000000E+00 -0.14496756998E+04  0.14496756998E+04  0.00000000000E+00 0. -1.
         25    1    1    2    0    0 -0.13148348801E+02  0.18982340404E+02 -0.10390818906E+04  0.10462429850E+04  0.12000000000E+03 0.  0.
         25    1    1    2    0    0  0.13148348801E+02 -0.18982340404E+02 -0.39784082848E+03  0.41618569549E+03  0.12000000000E+03 0.  0.
<mgrwt>
<rscale>  0 0.27193886E+03</rscale>
<asrwt>0</asrwt>
<pdfrwt beam="1">  1        1 0.22302708E+00 0.27193886E+03</pdfrwt>
<pdfrwt beam="2">  1       -1 0.19619966E-02 0.27193886E+03</pdfrwt>
<totfact> 0.54506082E+03</totfact>
</mgrwt>
</event>
<event>
 4    1  0.1672993E-004  0.2654486E+03  0.7818608E-02  0.1103913E+00
         -2   -1    0    0    0  501 -0.00000000000E+00  0.00000000000E+00  0.34663543903E+03  0.34663543903E+03  0.00000000000E+00 0. -1.
          2   -1    0    0  501    0  0.00000000000E+00 -0.00000000000E+00 -0.50819213697E+02  0.50819213697E+02  0.00000000000E+00 0. -1.
         25    1    1    2    0    0 -0.26852395356E+02  0.38296055411E+02  0.99898840161E+02  0.16299514490E+03  0.12000000000E+03 0.  0.
         25    1    1    2    0    0  0.26852395356E+02 -0.38296055411E+02  0.19591738517E+03  0.23445950783E+03  0.12000000000E+03 0.  0.
<mgrwt>
<rscale>  0 0.26544860E+03</rscale>
<asrwt>0</asrwt>
<pdfrwt beam="1">  1        2 0.78183408E-02 0.26544860E+03</pdfrwt>
<pdfrwt beam="2">  1       -2 0.53328528E-01 0.26544860E+03</pdfrwt>
<totfact> 0.29374822E+03</totfact>
</mgrwt>
</event>
<event>
 4    1  0.1672993E-004  0.3295742E+03  0.7818608E-02  0.1071325E+00
          4   -1    0    0  501    0  0.00000000000E+00  0.00000000000E+00  0.10946334224E+03  0.10946334224E+03  0.00000000000E+00 0. -1.
         -4   -1    0    0    0  501 -0.00000000000E+00 -0.00000000000E+00 -0.24807201757E+03  0.24807201757E+03  0.00000000000E+00 0. -1.
         25    1    1    2    0    0 -0.55428274762E+02 -0.80607099147E+02 -0.80805664951E+01  0.15503255668E+03  0.12000000000E+03 0.  0.
         25    1    1    2    0    0  0.55428274762E+02  0.80607099147E+02 -0.13052810883E+03  0.20250280312E+03  0.12000000000E+03 0.  0.
<mgrwt>
<rscale>  0 0.32957422E+03</rscale>
<asrwt>0</asrwt>
<pdfrwt beam="1">  1        4 0.16840514E-01 0.32957422E+03</pdfrwt>
<pdfrwt beam="2">  1       -4 0.38164926E-01 0.32957422E+03</pdfrwt>
<totfact> 0.39224835E+02</totfact>
</mgrwt>
</event>
<event>
 4    1  0.1672993E-004  0.2529998E+03  0.7818608E-02  0.1111424E+00
         -2   -1    0    0    0  501 -0.00000000000E+00  0.00000000000E+00  0.19825470516E+02  0.19825470516E+02  0.00000000000E+00 0. -1.
          2   -1    0    0  501    0  0.00000000000E+00 -0.00000000000E+00 -0.80715471043E+03  0.80715471043E+03  0.00000000000E+00 0. -1.
         25    1    1    2    0    0 -0.93599633887E+01 -0.24624369484E+02 -0.49217420371E+03  0.50727646829E+03  0.12000000000E+03 0.  0.
         25    1    1    2    0    0  0.93599633887E+01  0.24624369484E+02 -0.29515503621E+03  0.31970371266E+03  0.12000000000E+03 0.  0.
<mgrwt>
<rscale>  0 0.25299978E+03</rscale>
<asrwt>0</asrwt>
<pdfrwt beam="1">  1        2 0.12417766E+00 0.25299978E+03</pdfrwt>
<pdfrwt beam="2">  1       -2 0.30500720E-02 0.25299978E+03</pdfrwt>
<totfact> 0.14375250E+04</totfact>
</mgrwt>
</event>
<event>
 4    1  0.1672993E-004  0.2922678E+03  0.7818608E-02  0.1089171E+00
          1   -1    0    0  501    0  0.00000000000E+00  0.00000000000E+00  0.14206418802E+04  0.14206418802E+04  0.00000000000E+00 0.  1.
         -1   -1    0    0    0  501 -0.00000000000E+00 -0.00000000000E+00 -0.15032016203E+02  0.15032016203E+02  0.00000000000E+00 0.  1.
         25    1    1    2    0    0 -0.20100323390E+02  0.80738000295E+02  0.73079322208E+03  0.74523914358E+03  0.12000000000E+03 0.  0.
         25    1    1    2    0    0  0.20100323390E+02 -0.80738000295E+02  0.67481664194E+03  0.69043475284E+03  0.12000000000E+03 0.  0.
<mgrwt>
<rscale>  0 0.29226777E+03</rscale>
<asrwt>0</asrwt>
<pdfrwt beam="1">  1        1 0.21856018E+00 0.29226777E+03</pdfrwt>
<pdfrwt beam="2">  1       -1 0.23126190E-02 0.29226777E+03</pdfrwt>
<totfact> 0.44822890E+03</totfact>
</mgrwt>
</event>
<event>
 4    1  0.1672993E-004  0.2580673E+03  0.7818608E-02  0.1108310E+00
          1   -1    0    0  501    0  0.00000000000E+00  0.00000000000E+00  0.41212084205E+03  0.41212084205E+03  0.00000000000E+00 0.  1.
         -1   -1    0    0    0  501 -0.00000000000E+00 -0.00000000000E+00 -0.40399986648E+02  0.40399986648E+02  0.00000000000E+00 0.  1.
         25    1    1    2    0    0 -0.46188136856E+02  0.15801990568E+01  0.16715168770E+03  0.21089221825E+03  0.12000000000E+03 0.  0.
         25    1    1    2    0    0  0.46188136856E+02 -0.15801990568E+01  0.20456916770E+03  0.24162861045E+03  0.12000000000E+03 0.  0.
<mgrwt>
<rscale>  0 0.25806725E+03</rscale>
<asrwt>0</asrwt>
<pdfrwt beam="1">  1        1 0.63403203E-01 0.25806725E+03</pdfrwt>
<pdfrwt beam="2">  1       -1 0.62153829E-02 0.25806725E+03</pdfrwt>
<totfact> 0.73139807E+03</totfact>
</mgrwt>
</event>
<event>
 4    1  0.1672993E-004  0.3129540E+03  0.7818608E-02  0.1078939E+00
          1   -1    0    0  501    0  0.00000000000E+00  0.00000000000E+00  0.23547117485E+02  0.23547117485E+02  0.00000000000E+00 0. -1.
         -1   -1    0    0    0  501 -0.00000000000E+00 -0.00000000000E+00 -0.10398318923E+04  0.10398318923E+04  0.00000000000E+00 0. -1.
         25    1    1    2    0    0  0.73441880258E+02  0.34147439661E+02 -0.70988834608E+03  0.72450067034E+03  0.12000000000E+03 0.  0.
         25    1    1    2    0    0 -0.73441880258E+02 -0.34147439661E+02 -0.30639642878E+03  0.33887833950E+03  0.12000000000E+03 0.  0.
<mgrwt>
<rscale>  0 0.31295395E+03</rscale>
<asrwt>0</asrwt>
<pdfrwt beam="1">  1        1 0.36226334E-02 0.31295395E+03</pdfrwt>
<pdfrwt beam="2">  1       -1 0.15997414E+00 0.31295395E+03</pdfrwt>
<totfact> 0.83308011E+02</totfact>
</mgrwt>
</event>
<event>
 4    1  0.1672993E-004  0.2513054E+03  0.7818608E-02  0.1112483E+00
         -1   -1    0    0    0  501 -0.00000000000E+00  0.00000000000E+00  0.27353422893E+03  0.27353422893E+03  0.00000000000E+00 0. -1.
          1   -1    0    0  501    0  0.00000000000E+00 -0.00000000000E+00 -0.57720733283E+02  0.57720733283E+02  0.00000000000E+00 0. -1.
         25    1    1    2    0    0 -0.35720462867E+02  0.24044345073E+01  0.12153296583E+03  0.17450499865E+03  0.12000000000E+03 0.  0.
         25    1    1    2    0    0  0.35720462867E+02 -0.24044345073E+01  0.94280529824E+02  0.15674996356E+03  0.12000000000E+03 0.  0.
<mgrwt>
<rscale>  0 0.25130536E+03</rscale>
<asrwt>0</asrwt>
<pdfrwt beam="1">  1        1 0.88801129E-02 0.25130536E+03</pdfrwt>
<pdfrwt beam="2">  1       -1 0.42082188E-01 0.25130536E+03</pdfrwt>
<totfact> 0.42095213E+03</totfact>
</mgrwt>
</event>
<event>
 4    1  0.1672993E-004  0.2783167E+03  0.7818608E-02  0.1096612E+00
         -1   -1    0    0    0  501 -0.00000000000E+00  0.00000000000E+00  0.76758611551E+02  0.76758611551E+02  0.00000000000E+00 0.  1.
          1   -1    0    0  501    0  0.00000000000E+00 -0.00000000000E+00 -0.25228507072E+03  0.25228507072E+03  0.00000000000E+00 0.  1.
         25    1    1    2    0    0  0.59052480998E+02 -0.18598309599E+02 -0.47986451729E+02  0.14330314784E+03  0.12000000000E+03 0.  0.
         25    1    1    2    0    0 -0.59052480998E+02  0.18598309599E+02 -0.12754000744E+03  0.18574053443E+03  0.12000000000E+03 0.  0.
<mgrwt>
<rscale>  0 0.27831674E+03</rscale>
<asrwt>0</asrwt>
<pdfrwt beam="1">  1        1 0.38813089E-01 0.27831674E+03</pdfrwt>
<pdfrwt beam="2">  1       -1 0.11809017E-01 0.27831674E+03</pdfrwt>
<totfact> 0.50974971E+03</totfact>
</mgrwt>
</event>
<event>
 4    1  0.1672993E-004  0.3703936E+03  0.7818608E-02  0.1054543E+00
         -1   -1    0    0    0  501 -0.00000000000E+00  0.00000000000E+00  0.79584045236E+02  0.79584045236E+02  0.00000000000E+00 0. -1.
          1   -1    0    0  501    0  0.00000000000E+00 -0.00000000000E+00 -0.43096392200E+03  0.43096392200E+03  0.00000000000E+00 0. -1.
         25    1    1    2    0    0  0.10176481835E+03 -0.95548987540E+02 -0.20367386435E+03  0.27453365967E+03  0.12000000000E+03 0.  0.
         25    1    1    2    0    0 -0.10176481835E+03  0.95548987540E+02 -0.14770601242E+03  0.23601430757E+03  0.12000000000E+03 0.  0.
<mgrwt>
<rscale>  0 0.37039359E+03</rscale>
<asrwt>0</asrwt>
<pdfrwt beam="1">  1        1 0.66302143E-01 0.37039359E+03</pdfrwt>
<pdfrwt beam="2">  1       -1 0.12243699E-01 0.37039359E+03</pdfrwt>
<totfact> 0.24493446E+03</totfact>
</mgrwt>
</event>
<event>
 4    1  0.1672993E-004  0.3230105E+03  0.7818608E-02  0.1074272E+00
         -1   -1    0    0    0  501 -0.00000000000E+00  0.00000000000E+00  0.12296530142E+02  0.12296530142E+02  0.00000000000E+00 0. -1.
          1   -1    0    0  501    0  0.00000000000E+00 -0.00000000000E+00 -0.21212448209E+04  0.21212448209E+04  0.00000000000E+00 0. -1.
         25    1    1    2    0    0  0.89401746466E+02  0.13491851986E+02 -0.14457575654E+04  0.14535438212E+04  0.12000000000E+03 0.  0.
         25    1    1    2    0    0 -0.89401746466E+02 -0.13491851986E+02 -0.66319072535E+03  0.67999752980E+03  0.12000000000E+03 0.  0.
<mgrwt>
<rscale>  0 0.32301053E+03</rscale>
<asrwt>0</asrwt>
<pdfrwt beam="1">  1        1 0.32634537E+00 0.32301053E+03</pdfrwt>
<pdfrwt beam="2">  1       -1 0.18917738E-02 0.32301053E+03</pdfrwt>
<totfact> 0.20875482E+03</totfact>
</mgrwt>
</event>
<event>
 4    1  0.1672993E-004  0.3753406E+03  0.7818608E-02  0.1052669E+00
         -2   -1    0    0    0  501 -0.00000000000E+00  0.00000000000E+00  0.19745002546E+02  0.19745002546E+02  0.00000000000E+00 0.  1.
          2   -1    0    0  501    0  0.00000000000E+00 -0.00000000000E+00 -0.17837494555E+04  0.17837494555E+04  0.00000000000E+00 0.  1.
         25    1    1    2    0    0  0.78835190923E+02 -0.78972088488E+02 -0.44244578831E+03  0.47181548690E+03  0.12000000000E+03 0.  0.
         25    1    1    2    0    0 -0.78835190923E+02  0.78972088488E+02 -0.13215586646E+04  0.13316789711E+04  0.12000000000E+03 0.  0.
<mgrwt>
<rscale>  0 0.37534058E+03</rscale>
<asrwt>0</asrwt>
<pdfrwt beam="1">  1        2 0.27442291E+00 0.37534058E+03</pdfrwt>
<pdfrwt beam="2">  1       -2 0.30376936E-02 0.37534058E+03</pdfrwt>
<totfact> 0.40098057E+03</totfact>
</mgrwt>
</event>
<event>
 4    1  0.1672993E-004  0.3620442E+03  0.7818608E-02  0.1057777E+00
         -2   -1    0    0    0  501 -0.00000000000E+00  0.00000000000E+00  0.88345554285E+02  0.88345554285E+02  0.00000000000E+00 0.  1.
          2   -1    0    0  501    0  0.00000000000E+00 -0.00000000000E+00 -0.37091847027E+03  0.37091847027E+03  0.00000000000E+00 0.  1.
         25    1    1    2    0    0 -0.88410320907E+02 -0.91342420147E+02 -0.20090974846E+03  0.26631663408E+03  0.12000000000E+03 0.  0.
         25    1    1    2    0    0  0.88410320907E+02  0.91342420147E+02 -0.81663167522E+02  0.19294739047E+03  0.12000000000E+03 0.  0.
<mgrwt>
<rscale>  0 0.36204418E+03</rscale>
<asrwt>0</asrwt>
<pdfrwt beam="1">  1        2 0.57064380E-01 0.36204418E+03</pdfrwt>
<pdfrwt beam="2">  1       -2 0.13591624E-01 0.36204418E+03</pdfrwt>
<totfact> 0.35114062E+03</totfact>
</mgrwt>
</event>
<event>
 4    1  0.1672993E-004  0.3133418E+03  0.7818608E-02  0.1078755E+00
         -1   -1    0    0    0  501 -0.00000000000E+00  0.00000000000E+00  0.24945072962E+02  0.24945072962E+02  0.00000000000E+00 0. -1.
          1   -1    0    0  501    0  0.00000000000E+00 -0.00000000000E+00 -0.98399291433E+03  0.98399291433E+03  0.00000000000E+00 0. -1.
         25    1    1    2    0    0  0.18527986305E+02  0.25918198619E+02 -0.78720372476E+03  0.79693459178E+03  0.12000000000E+03 0.  0.
         25    1    1    2    0    0 -0.18527986305E+02 -0.25918198619E+02 -0.17184411660E+03  0.21200339551E+03  0.12000000000E+03 0.  0.
<mgrwt>
<rscale>  0 0.31334183E+03</rscale>
<asrwt>0</asrwt>
<pdfrwt beam="1">  1        1 0.15138353E+00 0.31334183E+03</pdfrwt>
<pdfrwt beam="2">  1       -1 0.38377033E-02 0.31334183E+03</pdfrwt>
<totfact> 0.43104537E+03</totfact>
</mgrwt>
</event>
<event>
 4    1  0.1672993E-004  0.2727166E+03  0.7818608E-02  0.1099735E+00
         -2   -1    0    0    0  501 -0.00000000000E+00  0.00000000000E+00  0.63326454585E+01  0.63326454585E+01  0.00000000000E+00 0. -1.
          2   -1    0    0  501    0  0.00000000000E+00 -0.00000000000E+00 -0.29361486570E+04  0.29361486570E+04  0.00000000000E+00 0. -1.
         25    1    1    2    0    0 -0.37310940779E+02 -0.45258847923E+02 -0.17610049091E+04  0.17660630678E+04  0.12000000000E+03 0.  0.
         25    1    1    2    0    0  0.37310940779E+02  0.45258847923E+02 -0.11688111024E+04  0.11764182346E+04  0.12000000000E+03 0.  0.
<mgrwt>
<rscale>  0 0.27271662E+03</rscale>
<asrwt>0</asrwt>
<pdfrwt beam="1">  1        2 0.45171371E+00 0.27271662E+03</pdfrwt>
<pdfrwt beam="2">  1       -2 0.97425632E-03 0.27271662E+03</pdfrwt>
<totfact> 0.50325231E+03</totfact>
</mgrwt>
</event>
<event>
 4    1  0.1672993E-004  0.2765577E+03  0.7818608E-02  0.1097584E+00
         -2   -1    0    0    0  501 -0.00000000000E+00  0.00000000000E+00  0.56165198260E+02  0.56165198260E+02  0.00000000000E+00 0.  1.
          2   -1    0    0  501    0  0.00000000000E+00 -0.00000000000E+00 -0.34044279926E+03  0.34044279926E+03  0.00000000000E+00 0.  1.
         25    1    1    2    0    0 -0.25595963905E+02  0.25277876170E+01 -0.50767099090E+02  0.13281130008E+03  0.12000000000E+03 0.  0.
         25    1    1    2    0    0  0.25595963905E+02 -0.25277876170E+01 -0.23351050191E+03  0.26379669744E+03  0.12000000000E+03 0.  0.
<mgrwt>
<rscale>  0 0.27655768E+03</rscale>
<asrwt>0</asrwt>
<pdfrwt beam="1">  1        2 0.52375814E-01 0.27655768E+03</pdfrwt>
<pdfrwt beam="2">  1       -2 0.86407999E-02 0.27655768E+03</pdfrwt>
<totfact> 0.79211625E+03</totfact>
</mgrwt>
</event>
<event>
 4    1  0.1672993E-004  0.2616114E+03  0.7818608E-02  0.1106179E+00
         -1   -1    0    0    0  501 -0.00000000000E+00  0.00000000000E+00  0.36483857745E+02  0.36483857745E+02  0.00000000000E+00 0. -1.
          1   -1    0    0  501    0  0.00000000000E+00 -0.00000000000E+00 -0.46897799634E+03  0.46897799634E+03  0.00000000000E+00 0. -1.
         25    1    1    2    0    0  0.38802399617E+00 -0.47628590549E+02 -0.25684405986E+03  0.28746739691E+03  0.12000000000E+03 0.  0.
         25    1    1    2    0    0 -0.38802399617E+00  0.47628590549E+02 -0.17565007874E+03  0.21799445718E+03  0.12000000000E+03 0.  0.
<mgrwt>
<rscale>  0 0.26161136E+03</rscale>
<asrwt>0</asrwt>
<pdfrwt beam="1">  1        1 0.72150457E-01 0.26161136E+03</pdfrwt>
<pdfrwt beam="2">  1       -1 0.56129015E-02 0.26161136E+03</pdfrwt>
<totfact> 0.72147545E+03</totfact>
</mgrwt>
</event>
<event>
 4    1  0.1672993E-004  0.3013239E+03  0.7818608E-02  0.1084581E+00
          2   -1    0    0  501    0  0.00000000000E+00  0.00000000000E+00  0.46185437558E+02  0.46185437558E+02  0.00000000000E+00 0.  1.
         -2   -1    0    0    0  501 -0.00000000000E+00 -0.00000000000E+00 -0.49147569165E+03  0.49147569165E+03  0.00000000000E+00 0.  1.
         25    1    1    2    0    0 -0.15232168683E+02 -0.89636940529E+02 -0.21251682842E+03  0.26044232074E+03  0.12000000000E+03 0.  0.
         25    1    1    2    0    0  0.15232168683E+02  0.89636940529E+02 -0.23277342567E+03  0.27721880847E+03  0.12000000000E+03 0.  0.
<mgrwt>
<rscale>  0 0.30132388E+03</rscale>
<asrwt>0</asrwt>
<pdfrwt beam="1">  1        2 0.71054521E-02 0.30132388E+03</pdfrwt>
<pdfrwt beam="2">  1       -2 0.75611643E-01 0.30132388E+03</pdfrwt>
<totfact> 0.16007975E+03</totfact>
</mgrwt>
</event>
<event>
 4    1  0.1672993E-004  0.2559568E+03  0.7818608E-02  0.1109597E+00
          4   -1    0    0  501    0  0.00000000000E+00  0.00000000000E+00  0.87806775519E+02  0.87806775519E+02  0.00000000000E+00 0.  1.
         -4   -1    0    0    0  501 -0.00000000000E+00 -0.00000000000E+00 -0.18652860857E+03  0.18652860857E+03  0.00000000000E+00 0.  1.
         25    1    1    2    0    0 -0.29301739717E+02  0.77383561300E+01 -0.84256329515E+02  0.14972509198E+03  0.12000000000E+03 0.  0.
         25    1    1    2    0    0  0.29301739717E+02 -0.77383561300E+01 -0.14465503536E+02  0.12461029211E+03  0.12000000000E+03 0.  0.
<mgrwt>
<rscale>  0 0.25595684E+03</rscale>
<asrwt>0</asrwt>
<pdfrwt beam="1">  1        4 0.13508735E-01 0.25595684E+03</pdfrwt>
<pdfrwt beam="2">  1       -4 0.28696709E-01 0.25595684E+03</pdfrwt>
<totfact> 0.97236087E+02</totfact>
</mgrwt>
</event>
<event>
 4    1  0.1672993E-004  0.2941616E+03  0.7818608E-02  0.1088196E+00
          1   -1    0    0  501    0  0.00000000000E+00  0.00000000000E+00  0.68529309349E+03  0.68529309349E+03  0.00000000000E+00 0.  1.
         -1   -1    0    0    0  501 -0.00000000000E+00 -0.00000000000E+00 -0.31567171754E+02  0.31567171754E+02  0.00000000000E+00 0.  1.
         25    1    1    2    0    0 -0.56814552509E+02  0.11712851192E+02  0.17530673014E+03  0.22022155637E+03  0.12000000000E+03 0.  0.
         25    1    1    2    0    0  0.56814552509E+02 -0.11712851192E+02  0.47841919159E+03  0.49663870887E+03  0.12000000000E+03 0.  0.
<mgrwt>
<rscale>  0 0.29416162E+03</rscale>
<asrwt>0</asrwt>
<pdfrwt beam="1">  1        1 0.10542970E+00 0.29416162E+03</pdfrwt>
<pdfrwt beam="2">  1       -1 0.48564885E-02 0.29416162E+03</pdfrwt>
<totfact> 0.53446917E+03</totfact>
</mgrwt>
</event>
<event>
 4    1  0.1672993E-004  0.2609992E+03  0.7818608E-02  0.1106544E+00
          1   -1    0    0  501    0  0.00000000000E+00  0.00000000000E+00  0.92074449429E+03  0.92074449429E+03  0.00000000000E+00 0. -1.
         -1   -1    0    0    0  501 -0.00000000000E+00 -0.00000000000E+00 -0.18496061380E+02  0.18496061380E+02  0.00000000000E+00 0. -1.
         25    1    1    2    0    0 -0.69822062449E+01 -0.32360144500E+02  0.59207937522E+03  0.60502389764E+03  0.12000000000E+03 0.  0.
         25    1    1    2    0    0  0.69822062449E+01  0.32360144500E+02  0.31016905770E+03  0.33421665804E+03  0.12000000000E+03 0.  0.
<mgrwt>
<rscale>  0 0.26099921E+03</rscale>
<asrwt>0</asrwt>
<pdfrwt beam="1">  1        1 0.14165296E+00 0.26099921E+03</pdfrwt>
<pdfrwt beam="2">  1       -1 0.28455486E-02 0.26099921E+03</pdfrwt>
<totfact> 0.74796665E+03</totfact>
</mgrwt>
</event>
<event>
 4    1  0.1672993E-004  0.3434042E+03  0.7818608E-02  0.1065355E+00
         -1   -1    0    0    0  501 -0.00000000000E+00  0.00000000000E+00  0.21833482337E+02  0.21833482337E+02  0.00000000000E+00 0.  1.
          1   -1    0    0  501    0  0.00000000000E+00 -0.00000000000E+00 -0.13502936564E+04  0.13502936564E+04  0.00000000000E+00 0.  1.
         25    1    1    2    0    0  0.33893251588E+02  0.59785593578E+02 -0.25756388785E+03  0.29233923107E+03  0.12000000000E+03 0.  0.
         25    1    1    2    0    0 -0.33893251588E+02 -0.59785593578E+02 -0.10708962862E+04  0.10797879077E+04  0.12000000000E+03 0.  0.
<mgrwt>
<rscale>  0 0.34340421E+03</rscale>
<asrwt>0</asrwt>
<pdfrwt beam="1">  1        1 0.20773753E+00 0.34340421E+03</pdfrwt>
<pdfrwt beam="2">  1       -1 0.33589965E-02 0.34340421E+03</pdfrwt>
<totfact> 0.28805287E+03</totfact>
</mgrwt>
</event>
<event>
 4    1  0.1672993E-004  0.2781450E+03  0.7818608E-02  0.1096706E+00
         -1   -1    0    0    0  501 -0.00000000000E+00  0.00000000000E+00  0.15150972617E+02  0.15150972617E+02  0.00000000000E+00 0. -1.
          1   -1    0    0  501    0  0.00000000000E+00 -0.00000000000E+00 -0.12765619800E+04  0.12765619800E+04  0.00000000000E+00 0. -1.
         25    1    1    2    0    0  0.48285361932E+02 -0.51036347413E+02 -0.62035164432E+03  0.63574550532E+03  0.12000000000E+03 0.  0.
         25    1    1    2    0    0 -0.48285361932E+02  0.51036347413E+02 -0.64105936310E+03  0.65596744733E+03  0.12000000000E+03 0.  0.
<mgrwt>
<rscale>  0 0.27814497E+03</rscale>
<asrwt>0</asrwt>
<pdfrwt beam="1">  1        1 0.19639418E+00 0.27814497E+03</pdfrwt>
<pdfrwt beam="2">  1       -1 0.23309186E-02 0.27814497E+03</pdfrwt>
<totfact> 0.55468624E+03</totfact>
</mgrwt>
</event>
<event>
 4    1  0.1672993E-004  0.2525919E+03  0.7818608E-02  0.1111678E+00
          3   -1    0    0  501    0  0.00000000000E+00  0.00000000000E+00  0.41432861074E+03  0.41432861074E+03  0.00000000000E+00 0. -1.
         -3   -1    0    0    0  501 -0.00000000000E+00 -0.00000000000E+00 -0.38497610755E+02  0.38497610755E+02  0.00000000000E+00 0. -1.
         25    1    1    2    0    0  0.19157746717E+02  0.30471536804E+02  0.21655009761E+03  0.25017889318E+03  0.12000000000E+03 0.  0.
         25    1    1    2    0    0 -0.19157746717E+02 -0.30471536804E+02  0.15928090237E+03  0.20264732832E+03  0.12000000000E+03 0.  0.
<mgrwt>
<rscale>  0 0.25259186E+03</rscale>
<asrwt>0</asrwt>
<pdfrwt beam="1">  1        3 0.63742860E-01 0.25259186E+03</pdfrwt>
<pdfrwt beam="2">  1       -3 0.59227097E-02 0.25259186E+03</pdfrwt>
<totfact> 0.10630993E+03</totfact>
</mgrwt>
</event>
<event>
 4    1  0.1672993E-004  0.2648488E+03  0.7818608E-02  0.1104264E+00
          2   -1    0    0  501    0  0.00000000000E+00  0.00000000000E+00  0.25464714570E+03  0.25464714570E+03  0.00000000000E+00 0. -1.
         -2   -1    0    0    0  501 -0.00000000000E+00 -0.00000000000E+00 -0.68864783363E+02  0.68864783363E+02  0.00000000000E+00 0. -1.
         25    1    1    2    0    0 -0.13773957235E+02  0.19522730160E+01  0.26629208856E+02  0.12370387234E+03  0.12000000000E+03 0.  0.
         25    1    1    2    0    0  0.13773957235E+02 -0.19522730160E+01  0.15915315348E+03  0.19980805672E+03  0.12000000000E+03 0.  0.
<mgrwt>
<rscale>  0 0.26484879E+03</rscale>
<asrwt>0</asrwt>
<pdfrwt beam="1">  1        2 0.39176483E-01 0.26484879E+03</pdfrwt>
<pdfrwt beam="2">  1       -2 0.10594582E-01 0.26484879E+03</pdfrwt>
<totfact> 0.78262459E+03</totfact>
</mgrwt>
</event>
<event>
 4    1  0.1672993E-004  0.2541947E+03  0.7818608E-02  0.1110682E+00
         -2   -1    0    0    0  501 -0.00000000000E+00  0.00000000000E+00  0.42627813797E+02  0.42627813797E+02  0.00000000000E+00 0. -1.
          2   -1    0    0  501    0  0.00000000000E+00 -0.00000000000E+00 -0.37894822049E+03  0.37894822049E+03  0.00000000000E+00 0. -1.
         25    1    1    2    0    0  0.28952539391E+02 -0.20193016040E+02 -0.20553032176E+03  0.24060074937E+03  0.12000000000E+03 0.  0.
         25    1    1    2    0    0 -0.28952539391E+02  0.20193016040E+02 -0.13079008493E+03  0.18097528491E+03  0.12000000000E+03 0.  0.
<mgrwt>
<rscale>  0 0.25419468E+03</rscale>
<asrwt>0</asrwt>
<pdfrwt beam="1">  1        2 0.58299728E-01 0.25419468E+03</pdfrwt>
<pdfrwt beam="2">  1       -2 0.65581250E-02 0.25419468E+03</pdfrwt>
<totfact> 0.10796434E+04</totfact>
</mgrwt>
</event>
<event>
 4    1  0.1672993E-004  0.2491684E+03  0.7818608E-02  0.1113832E+00
         -1   -1    0    0    0  501 -0.00000000000E+00  0.00000000000E+00  0.74212871067E+03  0.74212871067E+03  0.00000000000E+00 0. -1.
          1   -1    0    0  501    0  0.00000000000E+00 -0.00000000000E+00 -0.20914458451E+02  0.20914458451E+02  0.00000000000E+00 0. -1.
         25    1    1    2    0    0 -0.24119983243E+02 -0.62514496204E+00  0.28950656949E+03  0.31431865706E+03  0.12000000000E+03 0.  0.
         25    1    1    2    0    0  0.24119983243E+02  0.62514496204E+00  0.43170768273E+03  0.44872451206E+03  0.12000000000E+03 0.  0.
<mgrwt>
<rscale>  0 0.24916838E+03</rscale>
<asrwt>0</asrwt>
<pdfrwt beam="1">  1        1 0.32176096E-02 0.24916838E+03</pdfrwt>
<pdfrwt beam="2">  1       -1 0.11417363E+00 0.24916838E+03</pdfrwt>
<totfact> 0.22868089E+03</totfact>
</mgrwt>
</event>
<event>
 4    1  0.1672993E-004  0.2674993E+03  0.7818608E-02  0.1102719E+00
         -2   -1    0    0    0  501 -0.00000000000E+00  0.00000000000E+00  0.27400009981E+03  0.27400009981E+03  0.00000000000E+00 0. -1.
          2   -1    0    0  501    0  0.00000000000E+00 -0.00000000000E+00 -0.65288206096E+02  0.65288206096E+02  0.00000000000E+00 0. -1.
         25    1    1    2    0    0 -0.20484726696E+02 -0.36110949144E+02  0.15764789742E+03  0.20242649095E+03  0.12000000000E+03 0.  0.
         25    1    1    2    0    0  0.20484726696E+02  0.36110949144E+02  0.51063996289E+02  0.13686181496E+03  0.12000000000E+03 0.  0.
<mgrwt>
<rscale>  0 0.26749935E+03</rscale>
<asrwt>0</asrwt>
<pdfrwt beam="1">  1        2 0.10044340E-01 0.26749935E+03</pdfrwt>
<pdfrwt beam="2">  1       -2 0.42153861E-01 0.26749935E+03</pdfrwt>
<totfact> 0.34103817E+03</totfact>
</mgrwt>
</event>
<event>
 4    1  0.1672993E-004  0.2578803E+03  0.7818608E-02  0.1108424E+00
         -2   -1    0    0    0  501 -0.00000000000E+00  0.00000000000E+00  0.60033143382E+01  0.60033143382E+01  0.00000000000E+00 0. -1.
          2   -1    0    0  501    0  0.00000000000E+00 -0.00000000000E+00 -0.27693964292E+04  0.27693964292E+04  0.00000000000E+00 0. -1.
         25    1    1    2    0    0  0.36652173413E+02  0.25761527811E+01 -0.17001494283E+04  0.17047750869E+04  0.12000000000E+03 0.  0.
         25    1    1    2    0    0 -0.36652173413E+02 -0.25761527811E+01 -0.10632436865E+04  0.10706246566E+04  0.12000000000E+03 0.  0.
<mgrwt>
<rscale>  0 0.25788026E+03</rscale>
<asrwt>0</asrwt>
<pdfrwt beam="1">  1        2 0.42606108E+00 0.25788026E+03</pdfrwt>
<pdfrwt beam="2">  1       -2 0.92358662E-03 0.25788026E+03</pdfrwt>
<totfact> 0.67903982E+03</totfact>
</mgrwt>
</event>
<event>
 4    1  0.1672993E-004  0.2665559E+03  0.7818608E-02  0.1103267E+00
         -4   -1    0    0    0  501 -0.00000000000E+00  0.00000000000E+00  0.91935664331E+03  0.91935664331E+03  0.00000000000E+00 0. -1.
          4   -1    0    0  501    0  0.00000000000E+00 -0.00000000000E+00 -0.19321136613E+02  0.19321136613E+02  0.00000000000E+00 0. -1.
         25    1    1    2    0    0  0.37830416267E+02  0.38482030767E+02  0.52480377361E+03  0.54104621604E+03  0.12000000000E+03 0.  0.
         25    1    1    2    0    0 -0.37830416267E+02 -0.38482030767E+02  0.37523173308E+03  0.39763156389E+03  0.12000000000E+03 0.  0.
<mgrwt>
<rscale>  0 0.26655593E+03</rscale>
<asrwt>0</asrwt>
<pdfrwt beam="1">  1        4 0.29724833E-02 0.26655593E+03</pdfrwt>
<pdfrwt beam="2">  1       -4 0.14143945E+00 0.26655593E+03</pdfrwt>
<totfact> 0.37538910E+02</totfact>
</mgrwt>
</event>
<event>
 4    1  0.1672993E-004  0.2984312E+03  0.7818608E-02  0.1086027E+00
         -1   -1    0    0    0  501 -0.00000000000E+00  0.00000000000E+00  0.62280316704E+03  0.62280316704E+03  0.00000000000E+00 0.  1.
          1   -1    0    0  501    0  0.00000000000E+00 -0.00000000000E+00 -0.35750134195E+02  0.35750134195E+02  0.00000000000E+00 0.  1.
         25    1    1    2    0    0 -0.21515429550E+02  0.68530444408E+02  0.17873561137E+03  0.22694879222E+03  0.12000000000E+03 0.  0.
         25    1    1    2    0    0  0.21515429550E+02 -0.68530444408E+02  0.40831742148E+03  0.43160450901E+03  0.12000000000E+03 0.  0.
<mgrwt>
<rscale>  0 0.29843121E+03</rscale>
<asrwt>0</asrwt>
<pdfrwt beam="1">  1        1 0.55000211E-02 0.29843121E+03</pdfrwt>
<pdfrwt beam="2">  1       -1 0.95815864E-01 0.29843121E+03</pdfrwt>
<totfact> 0.16174678E+03</totfact>
</mgrwt>
</event>
<event>
 4    1  0.1672993E-004  0.2610602E+03  0.7818608E-02  0.1106508E+00
          2   -1    0    0  501    0  0.00000000000E+00  0.00000000000E+00  0.35095983948E+03  0.35095983948E+03  0.00000000000E+00 0. -1.
         -2   -1    0    0    0  501 -0.00000000000E+00 -0.00000000000E+00 -0.48547173314E+02  0.48547173314E+02  0.00000000000E+00 0. -1.
         25    1    1    2    0    0  0.33277571134E+01 -0.25024692162E+02  0.21965822462E+03  0.25156916510E+03  0.12000000000E+03 0.  0.
         25    1    1    2    0    0 -0.33277571134E+01  0.25024692162E+02  0.82754441544E+02  0.14793784769E+03  0.12000000000E+03 0.  0.
<mgrwt>
<rscale>  0 0.26106021E+03</rscale>
<asrwt>0</asrwt>
<pdfrwt beam="1">  1        2 0.53993820E-01 0.26106021E+03</pdfrwt>
<pdfrwt beam="2">  1       -2 0.74687961E-02 0.26106021E+03</pdfrwt>
<totfact> 0.96032198E+03</totfact>
</mgrwt>
</event>
<event>
 4    1  0.1672993E-004  0.3380677E+03  0.7818608E-02  0.1067622E+00
          1   -1    0    0  501    0  0.00000000000E+00  0.00000000000E+00  0.79640148961E+03  0.79640148961E+03  0.00000000000E+00 0. -1.
         -1   -1    0    0    0  501 -0.00000000000E+00 -0.00000000000E+00 -0.35876921908E+02  0.35876921908E+02  0.00000000000E+00 0. -1.
         25    1    1    2    0    0  0.21643329151E+02 -0.97598033271E+02  0.22112143330E+03  0.27071848489E+03  0.12000000000E+03 0.  0.
         25    1    1    2    0    0 -0.21643329151E+02  0.97598033271E+02  0.53940313440E+03  0.56155992662E+03  0.12000000000E+03 0.  0.
<mgrwt>
<rscale>  0 0.33806765E+03</rscale>
<asrwt>0</asrwt>
<pdfrwt beam="1">  1        1 0.12252329E+00 0.33806765E+03</pdfrwt>
<pdfrwt beam="2">  1       -1 0.55195270E-02 0.33806765E+03</pdfrwt>
<totfact> 0.35274295E+03</totfact>
</mgrwt>
</event>
<event>
 4    1  0.1672993E-004  0.3348582E+03  0.7818608E-02  0.1069007E+00
          1   -1    0    0  501    0  0.00000000000E+00  0.00000000000E+00  0.81474021287E+03  0.81474021287E+03  0.00000000000E+00 0.  1.
         -1   -1    0    0    0  501 -0.00000000000E+00 -0.00000000000E+00 -0.34406671279E+02  0.34406671279E+02  0.00000000000E+00 0.  1.
         25    1    1    2    0    0 -0.85093779306E+02  0.31888957097E+02  0.57607417333E+03  0.59541524169E+03  0.12000000000E+03 0.  0.
         25    1    1    2    0    0  0.85093779306E+02 -0.31888957097E+02  0.20425936826E+03  0.25373164246E+03  0.12000000000E+03 0.  0.
<mgrwt>
<rscale>  0 0.33485817E+03</rscale>
<asrwt>0</asrwt>
<pdfrwt beam="1">  1        1 0.12534463E+00 0.33485817E+03</pdfrwt>
<pdfrwt beam="2">  1       -1 0.52933346E-02 0.33485817E+03</pdfrwt>
<totfact> 0.36264222E+03</totfact>
</mgrwt>
</event>
<event>
 4    1  0.1672993E-004  0.2855421E+03  0.7818608E-02  0.1092700E+00
          1   -1    0    0  501    0  0.00000000000E+00  0.00000000000E+00  0.32120085323E+03  0.32120085323E+03  0.00000000000E+00 0.  1.
         -1   -1    0    0    0  501 -0.00000000000E+00 -0.00000000000E+00 -0.63460511899E+02  0.63460511899E+02  0.00000000000E+00 0.  1.
         25    1    1    2    0    0 -0.73365512582E+01  0.81548852271E+01  0.23202211181E+03  0.26144710269E+03  0.12000000000E+03 0.  0.
         25    1    1    2    0    0  0.73365512582E+01 -0.81548852271E+01  0.25718229518E+02  0.12321426243E+03  0.12000000000E+03 0.  0.
<mgrwt>
<rscale>  0 0.28554208E+03</rscale>
<asrwt>0</asrwt>
<pdfrwt beam="1">  1        1 0.49415515E-01 0.28554208E+03</pdfrwt>
<pdfrwt beam="2">  1       -1 0.97631559E-02 0.28554208E+03</pdfrwt>
<totfact> 0.50592483E+03</totfact>
</mgrwt>
</event>
<event>
 4    1  0.1672993E-004  0.2603999E+03  0.7818608E-02  0.1106903E+00
         -1   -1    0    0    0  501 -0.00000000000E+00  0.00000000000E+00  0.61761493672E+03  0.61761493672E+03  0.00000000000E+00 0.  1.
          1   -1    0    0  501    0  0.00000000000E+00 -0.00000000000E+00 -0.27447563690E+02  0.27447563690E+02  0.00000000000E+00 0.  1.
         25    1    1    2    0    0 -0.10422651517E+02  0.27546899260E+02  0.39675642058E+03  0.41555158596E+03  0.12000000000E+03 0.  0.
         25    1    1    2    0    0  0.10422651517E+02 -0.27546899260E+02  0.19341095245E+03  0.22951091445E+03  0.12000000000E+03 0.  0.
<mgrwt>
<rscale>  0 0.26039989E+03</rscale>
<asrwt>0</asrwt>
<pdfrwt beam="1">  1        1 0.42227026E-02 0.26039989E+03</pdfrwt>
<pdfrwt beam="2">  1       -1 0.95017672E-01 0.26039989E+03</pdfrwt>
<totfact> 0.23713513E+03</totfact>
</mgrwt>
</event>
<event>
 4    1  0.1672993E-004  0.2581776E+03  0.7818608E-02  0.1108243E+00
         -3   -1    0    0    0  501 -0.00000000000E+00  0.00000000000E+00  0.16079826359E+02  0.16079826359E+02  0.00000000000E+00 0.  1.
          3   -1    0    0  501    0  0.00000000000E+00 -0.00000000000E+00 -0.10363244031E+04  0.10363244031E+04  0.00000000000E+00 0.  1.
         25    1    1    2    0    0  0.15124649641E+02  0.27977446485E+02 -0.65438022814E+03  0.66605178141E+03  0.12000000000E+03 0.  0.
         25    1    1    2    0    0 -0.15124649641E+02 -0.27977446485E+02 -0.36586434864E+03  0.38635244809E+03  0.12000000000E+03 0.  0.
<mgrwt>
<rscale>  0 0.25817759E+03</rscale>
<asrwt>0</asrwt>
<pdfrwt beam="1">  1        3 0.15943454E+00 0.25817759E+03</pdfrwt>
<pdfrwt beam="2">  1       -3 0.24738192E-02 0.25817759E+03</pdfrwt>
<totfact> 0.50937032E+02</totfact>
</mgrwt>
</event>
<event>
 4    1  0.1672993E-004  0.4949491E+03  0.7818608E-02  0.1015106E+00
          2   -1    0    0  501    0  0.00000000000E+00  0.00000000000E+00  0.69293351671E+02  0.69293351671E+02  0.00000000000E+00 0. -1.
         -2   -1    0    0    0  501 -0.00000000000E+00 -0.00000000000E+00 -0.88383159339E+03  0.88383159339E+03  0.00000000000E+00 0. -1.
         25    1    1    2    0    0  0.97491438949E+02 -0.19296469126E+03 -0.38765900811E+03  0.45980371824E+03  0.12000000000E+03 0.  0.
         25    1    1    2    0    0 -0.97491438949E+02  0.19296469126E+03 -0.42687923361E+03  0.49332122682E+03  0.12000000000E+03 0.  0.
<mgrwt>
<rscale>  0 0.49494910E+03</rscale>
<asrwt>0</asrwt>
<pdfrwt beam="1">  1        2 0.10660516E-01 0.49494910E+03</pdfrwt>
<pdfrwt beam="2">  1       -2 0.13597408E+00 0.49494910E+03</pdfrwt>
<totfact> 0.24101904E+02</totfact>
</mgrwt>
</event>
<event>
 4    1  0.1672993E-004  0.3029366E+03  0.7818608E-02  0.1083782E+00
         -2   -1    0    0    0  501 -0.00000000000E+00  0.00000000000E+00  0.30841496271E+02  0.30841496271E+02  0.00000000000E+00 0. -1.
          2   -1    0    0  501    0  0.00000000000E+00 -0.00000000000E+00 -0.74388885844E+03  0.74388885844E+03  0.00000000000E+00 0. -1.
         25    1    1    2    0    0  0.37901947812E+02 -0.75310922659E+02 -0.45337974423E+03  0.47650969056E+03  0.12000000000E+03 0.  0.
         25    1    1    2    0    0 -0.37901947812E+02  0.75310922659E+02 -0.25966761793E+03  0.29822066414E+03  0.12000000000E+03 0.  0.
<mgrwt>
<rscale>  0 0.30293660E+03</rscale>
<asrwt>0</asrwt>
<pdfrwt beam="1">  1        2 0.11444444E+00 0.30293660E+03</pdfrwt>
<pdfrwt beam="2">  1       -2 0.47448456E-02 0.30293660E+03</pdfrwt>
<totfact> 0.82537669E+03</totfact>
</mgrwt>
</event>
<event>
 4    1  0.1672993E-004  0.3812106E+03  0.7818608E-02  0.1050487E+00
          2   -1    0    0  501    0  0.00000000000E+00  0.00000000000E+00  0.53543909326E+03  0.53543909326E+03  0.00000000000E+00 0. -1.
         -2   -1    0    0    0  501 -0.00000000000E+00 -0.00000000000E+00 -0.67851568608E+02  0.67851568608E+02  0.00000000000E+00 0. -1.
         25    1    1    2    0    0 -0.14001083730E+03  0.48206488411E+02  0.23674696892E+03  0.30393424844E+03  0.12000000000E+03 0.  0.
         25    1    1    2    0    0  0.14001083730E+03 -0.48206488411E+02  0.23084055573E+03  0.29935641342E+03  0.12000000000E+03 0.  0.
<mgrwt>
<rscale>  0 0.38121061E+03</rscale>
<asrwt>0</asrwt>
<pdfrwt beam="1">  1        2 0.82375242E-01 0.38121061E+03</pdfrwt>
<pdfrwt beam="2">  1       -2 0.10438703E-01 0.38121061E+03</pdfrwt>
<totfact> 0.35855601E+03</totfact>
</mgrwt>
</event>
<event>
 4    1  0.1672993E-004  0.2926818E+03  0.7818608E-02  0.1088957E+00
         -2   -1    0    0    0  501 -0.00000000000E+00  0.00000000000E+00  0.35063693936E+02  0.35063693936E+02  0.00000000000E+00 0. -1.
          2   -1    0    0  501    0  0.00000000000E+00 -0.00000000000E+00 -0.61076469108E+03  0.61076469108E+03  0.00000000000E+00 0. -1.
         25    1    1    2    0    0 -0.32473416641E+02  0.61431071827E+02 -0.39105108115E+03  0.41490872182E+03  0.12000000000E+03 0.  0.
         25    1    1    2    0    0  0.32473416641E+02 -0.61431071827E+02 -0.18464991600E+03  0.23091966320E+03  0.12000000000E+03 0.  0.
<mgrwt>
<rscale>  0 0.29268185E+03</rscale>
<asrwt>0</asrwt>
<pdfrwt beam="1">  1        2 0.93963796E-01 0.29268185E+03</pdfrwt>
<pdfrwt beam="2">  1       -2 0.53944146E-02 0.29268185E+03</pdfrwt>
<totfact> 0.85987083E+03</totfact>
</mgrwt>
</event>
<event>
 4    1  0.1672993E-004  0.2547338E+03  0.7818608E-02  0.1110349E+00
          1   -1    0    0  501    0  0.00000000000E+00  0.00000000000E+00  0.23518408653E+04  0.23518408653E+04  0.00000000000E+00 0.  1.
         -1   -1    0    0    0  501 -0.00000000000E+00 -0.00000000000E+00 -0.68977126392E+01  0.68977126392E+01  0.00000000000E+00 0.  1.
         25    1    1    2    0    0  0.32276132920E+02 -0.26345862373E+02  0.10863674183E+04  0.10937687236E+04  0.12000000000E+03 0.  0.
         25    1    1    2    0    0 -0.32276132920E+02  0.26345862373E+02  0.12585757344E+04  0.12649698544E+04  0.12000000000E+03 0.  0.
<mgrwt>
<rscale>  0 0.25473376E+03</rscale>
<asrwt>0</asrwt>
<pdfrwt beam="1">  1        1 0.36182103E+00 0.25473376E+03</pdfrwt>
<pdfrwt beam="2">  1       -1 0.10611884E-02 0.25473376E+03</pdfrwt>
<totfact> 0.34312721E+03</totfact>
</mgrwt>
</event>
<event>
 4    1  0.1672993E-004  0.2680626E+03  0.7818608E-02  0.1102394E+00
         -2   -1    0    0    0  501 -0.00000000000E+00  0.00000000000E+00  0.16071072292E+02  0.16071072292E+02  0.00000000000E+00 0.  1.
          2   -1    0    0  501    0  0.00000000000E+00 -0.00000000000E+00 -0.11178092009E+04  0.11178092009E+04  0.00000000000E+00 0.  1.
         25    1    1    2    0    0 -0.23173955578E+02  0.43451051590E+02 -0.40809062325E+03  0.42820904111E+03  0.12000000000E+03 0.  0.
         25    1    1    2    0    0  0.23173955578E+02 -0.43451051590E+02 -0.69364750531E+03  0.70567123204E+03  0.12000000000E+03 0.  0.
<mgrwt>
<rscale>  0 0.26806262E+03</rscale>
<asrwt>0</asrwt>
<pdfrwt beam="1">  1        2 0.17197065E+00 0.26806262E+03</pdfrwt>
<pdfrwt beam="2">  1       -2 0.24724725E-02 0.26806262E+03</pdfrwt>
<totfact> 0.12561874E+04</totfact>
</mgrwt>
</event>
<event>
 4    1  0.1672993E-004  0.2956643E+03  0.7818608E-02  0.1087428E+00
          2   -1    0    0  501    0  0.00000000000E+00  0.00000000000E+00  0.24371163977E+02  0.24371163977E+02  0.00000000000E+00 0.  1.
         -2   -1    0    0    0  501 -0.00000000000E+00 -0.00000000000E+00 -0.89672934067E+03  0.89672934067E+03  0.00000000000E+00 0.  1.
         25    1    1    2    0    0  0.52677602325E+01 -0.85172266634E+02 -0.47706911945E+03  0.49927648556E+03  0.12000000000E+03 0.  0.
         25    1    1    2    0    0 -0.52677602325E+01  0.85172266634E+02 -0.39528905724E+03  0.42182401909E+03  0.12000000000E+03 0.  0.
<mgrwt>
<rscale>  0 0.29566425E+03</rscale>
<asrwt>0</asrwt>
<pdfrwt beam="1">  1        2 0.37494104E-02 0.29566425E+03</pdfrwt>
<pdfrwt beam="2">  1       -2 0.13795834E+00 0.29566425E+03</pdfrwt>
<totfact> 0.91097042E+02</totfact>
</mgrwt>
</event>
<event>
 4    1  0.1672993E-004  0.4273293E+03  0.7818608E-02  0.1034707E+00
          1   -1    0    0  501    0  0.00000000000E+00  0.00000000000E+00  0.26913378281E+02  0.26913378281E+02  0.00000000000E+00 0. -1.
         -1   -1    0    0    0  501 -0.00000000000E+00 -0.00000000000E+00 -0.16962786922E+04  0.16962786922E+04  0.00000000000E+00 0. -1.
         25    1    1    2    0    0 -0.17387194736E+03 -0.28576997711E+02 -0.89234713073E+03  0.91745926372E+03  0.12000000000E+03 0.  0.
         25    1    1    2    0    0  0.17387194736E+03  0.28576997711E+02 -0.77701818323E+03  0.80573280680E+03  0.12000000000E+03 0.  0.
<mgrwt>
<rscale>  0 0.42732933E+03</rscale>
<asrwt>0</asrwt>
<pdfrwt beam="1">  1        1 0.41405191E-02 0.42732933E+03</pdfrwt>
<pdfrwt beam="2">  1       -1 0.26096599E+00 0.42732933E+03</pdfrwt>
<totfact> 0.14479097E+02</totfact>
</mgrwt>
</event>
<event>
 4    1  0.1672993E-004  0.2448268E+03  0.7818608E-02  0.1116618E+00
         -1   -1    0    0    0  501 -0.00000000000E+00  0.00000000000E+00  0.68511273150E+01  0.68511273150E+01  0.00000000000E+00 0. -1.
          1   -1    0    0  501    0  0.00000000000E+00 -0.00000000000E+00 -0.21872370778E+04  0.21872370778E+04  0.00000000000E+00 0. -1.
         25    1    1    2    0    0  0.17320944794E+02  0.15587441392E+02 -0.11483109283E+04  0.11547991044E+04  0.12000000000E+03 0.  0.
         25    1    1    2    0    0 -0.17320944794E+02 -0.15587441392E+02 -0.10320750221E+04  0.10392891007E+04  0.12000000000E+03 0.  0.
<mgrwt>
<rscale>  0 0.24482679E+03</rscale>
<asrwt>0</asrwt>
<pdfrwt beam="1">  1        1 0.33649820E+00 0.24482679E+03</pdfrwt>
<pdfrwt beam="2">  1       -1 0.10540190E-02 0.24482679E+03</pdfrwt>
<totfact> 0.44392376E+03</totfact>
</mgrwt>
</event>
<event>
 4    1  0.1672993E-004  0.3140017E+03  0.7818608E-02  0.1078443E+00
         -2   -1    0    0    0  501 -0.00000000000E+00  0.00000000000E+00  0.76119604363E+02  0.76119604363E+02  0.00000000000E+00 0.  1.
          2   -1    0    0  501    0  0.00000000000E+00 -0.00000000000E+00 -0.32382288885E+03  0.32382288885E+03  0.00000000000E+00 0.  1.
         25    1    1    2    0    0 -0.97674015936E+02  0.17556768142E+02 -0.98351745721E+02  0.18417795575E+03  0.12000000000E+03 0.  0.
         25    1    1    2    0    0  0.97674015936E+02 -0.17556768142E+02 -0.14935153877E+03  0.21576453747E+03  0.12000000000E+03 0.  0.
<mgrwt>
<rscale>  0 0.31400172E+03</rscale>
<asrwt>0</asrwt>
<pdfrwt beam="1">  1        2 0.49818906E-01 0.31400172E+03</pdfrwt>
<pdfrwt beam="2">  1       -2 0.11710708E-01 0.31400172E+03</pdfrwt>
<totfact> 0.51721267E+03</totfact>
</mgrwt>
</event>
<event>
 4    1  0.1672993E-004  0.3406096E+03  0.7818608E-02  0.1066537E+00
          2   -1    0    0  501    0  0.00000000000E+00  0.00000000000E+00  0.14437464898E+04  0.14437464898E+04  0.00000000000E+00 0.  1.
         -2   -1    0    0    0  501 -0.00000000000E+00 -0.00000000000E+00 -0.20089209040E+02  0.20089209040E+02  0.00000000000E+00 0.  1.
         25    1    1    2    0    0 -0.97813865767E+02  0.43922650997E+02  0.95138307693E+03  0.96489715031E+03  0.12000000000E+03 0.  0.
         25    1    1    2    0    0  0.97813865767E+02 -0.43922650997E+02  0.47227420383E+03  0.49893854853E+03  0.12000000000E+03 0.  0.
<mgrwt>
<rscale>  0 0.34060960E+03</rscale>
<asrwt>0</asrwt>
<pdfrwt beam="1">  1        2 0.22211476E+00 0.34060960E+03</pdfrwt>
<pdfrwt beam="2">  1       -2 0.30906487E-02 0.34060960E+03</pdfrwt>
<totfact> 0.59447534E+03</totfact>
</mgrwt>
</event>
<event>
 4    1  0.1672993E-004  0.3976897E+03  0.7818608E-02  0.1044583E+00
          1   -1    0    0  501    0  0.00000000000E+00  0.00000000000E+00  0.12727032691E+04  0.12727032691E+04  0.00000000000E+00 0. -1.
         -1   -1    0    0    0  501 -0.00000000000E+00 -0.00000000000E+00 -0.31067154984E+02  0.31067154984E+02  0.00000000000E+00 0. -1.
         25    1    1    2    0    0 -0.12548708073E+03 -0.81745078019E+02  0.79148201500E+03  0.81441576930E+03  0.12000000000E+03 0.  0.
         25    1    1    2    0    0  0.12548708073E+03  0.81745078019E+02  0.45015409913E+03  0.48935465480E+03  0.12000000000E+03 0.  0.
<mgrwt>
<rscale>  0 0.39768968E+03</rscale>
<asrwt>0</asrwt>
<pdfrwt beam="1">  1        1 0.19580046E+00 0.39768968E+03</pdfrwt>
<pdfrwt beam="2">  1       -1 0.47795633E-02 0.39768968E+03</pdfrwt>
<totfact> 0.19177082E+03</totfact>
</mgrwt>
</event>
<event>
 4    1  0.1672993E-004  0.2514246E+03  0.7818608E-02  0.1112408E+00
          1   -1    0    0  501    0  0.00000000000E+00  0.00000000000E+00  0.11298967678E+03  0.11298967678E+03  0.00000000000E+00 0. -1.
         -1   -1    0    0    0  501 -0.00000000000E+00 -0.00000000000E+00 -0.13986751890E+03  0.13986751890E+03  0.00000000000E+00 0. -1.
         25    1    1    2    0    0 -0.32553766452E+02 -0.17851185737E+02 -0.83930423941E+01  0.12589223845E+03  0.12000000000E+03 0.  0.
         25    1    1    2    0    0  0.32553766452E+02  0.17851185737E+02 -0.18484799724E+02  0.12696495723E+03  0.12000000000E+03 0.  0.
<mgrwt>
<rscale>  0 0.25142463E+03</rscale>
<asrwt>0</asrwt>
<pdfrwt beam="1">  1        1 0.17383027E-01 0.25142463E+03</pdfrwt>
<pdfrwt beam="2">  1       -1 0.21518080E-01 0.25142463E+03</pdfrwt>
<totfact> 0.54183381E+03</totfact>
</mgrwt>
</event>
<event>
 4    1  0.1672993E-004  0.2530972E+03  0.7818608E-02  0.1111363E+00
         -1   -1    0    0    0  501 -0.00000000000E+00  0.00000000000E+00  0.83615759932E+02  0.83615759932E+02  0.00000000000E+00 0.  1.
          1   -1    0    0  501    0  0.00000000000E+00 -0.00000000000E+00 -0.19152541249E+03  0.19152541249E+03  0.00000000000E+00 0.  1.
         25    1    1    2    0    0  0.35318261496E+02 -0.93651926234E+01 -0.35781877218E+02  0.13044320283E+03  0.12000000000E+03 0.  0.
         25    1    1    2    0    0 -0.35318261496E+02  0.93651926234E+01 -0.72127775342E+02  0.14469796959E+03  0.12000000000E+03 0.  0.
<mgrwt>
<rscale>  0 0.25309716E+03</rscale>
<asrwt>0</asrwt>
<pdfrwt beam="1">  1        1 0.29465448E-01 0.25309716E+03</pdfrwt>
<pdfrwt beam="2">  1       -1 0.12863963E-01 0.25309716E+03</pdfrwt>
<totfact> 0.62836736E+03</totfact>
</mgrwt>
</event>
<event>
 4    1  0.1672993E-004  0.3286831E+03  0.7818608E-02  0.1071721E+00
          1   -1    0    0  501    0  0.00000000000E+00  0.00000000000E+00  0.12282239876E+03  0.12282239876E+03  0.00000000000E+00 0.  1.
         -1   -1    0    0    0  501 -0.00000000000E+00 -0.00000000000E+00 -0.21989595907E+03  0.21989595907E+03  0.00000000000E+00 0.  1.
         25    1    1    2    0    0  0.27219100679E+02 -0.34171388837E+02 -0.15639256560E+03  0.20190888497E+03  0.12000000000E+03 0.  0.
         25    1    1    2    0    0 -0.27219100679E+02  0.34171388837E+02  0.59319005292E+02  0.14080947285E+03  0.12000000000E+03 0.  0.
<mgrwt>
<rscale>  0 0.32868313E+03</rscale>
<asrwt>0</asrwt>
<pdfrwt beam="1">  1        1 0.18895754E-01 0.32868313E+03</pdfrwt>
<pdfrwt beam="2">  1       -1 0.33830147E-01 0.32868313E+03</pdfrwt>
<totfact> 0.22870544E+03</totfact>
</mgrwt>
</event>
<event>
 4    1  0.1672993E-004  0.2763641E+03  0.7818608E-02  0.1097692E+00
         -1   -1    0    0    0  501 -0.00000000000E+00  0.00000000000E+00  0.22416227662E+04  0.22416227662E+04  0.00000000000E+00 0.  1.
          1   -1    0    0  501    0  0.00000000000E+00 -0.00000000000E+00 -0.85180603614E+01  0.85180603614E+01  0.00000000000E+00 0.  1.
         25    1    1    2    0    0 -0.30617279220E+01  0.33336273030E+02  0.62983048923E+03  0.64203358669E+03  0.12000000000E+03 0.  0.
         25    1    1    2    0    0  0.30617279220E+01 -0.33336273030E+02  0.16032742166E+04  0.16081072399E+04  0.12000000000E+03 0.  0.
<mgrwt>
<rscale>  0 0.27636409E+03</rscale>
<asrwt>0</asrwt>
<pdfrwt beam="1">  1        1 0.13104726E-02 0.27636409E+03</pdfrwt>
<pdfrwt beam="2">  1       -1 0.34486457E+00 0.27636409E+03</pdfrwt>
<totfact> 0.22187536E+02</totfact>
</mgrwt>
</event>
<event>
 4    1  0.1672993E-004  0.2803935E+03  0.7818608E-02  0.1095474E+00
          1   -1    0    0  501    0  0.00000000000E+00  0.00000000000E+00  0.37619810296E+02  0.37619810296E+02  0.00000000000E+00 0. -1.
         -1   -1    0    0    0  501 -0.00000000000E+00 -0.00000000000E+00 -0.52246763255E+03  0.52246763255E+03  0.00000000000E+00 0. -1.
         25    1    1    2    0    0 -0.24051767587E+02  0.31555854815E+02 -0.12123488269E+03  0.17513468040E+03  0.12000000000E+03 0.  0.
         25    1    1    2    0    0  0.24051767587E+02 -0.31555854815E+02 -0.36361293957E+03  0.38495276246E+03  0.12000000000E+03 0.  0.
<mgrwt>
<rscale>  0 0.28039353E+03</rscale>
<asrwt>0</asrwt>
<pdfrwt beam="1">  1        1 0.57876631E-02 0.28039353E+03</pdfrwt>
<pdfrwt beam="2">  1       -1 0.80379636E-01 0.28039353E+03</pdfrwt>
<totfact> 0.21914951E+03</totfact>
</mgrwt>
</event>
<event>
 4    1  0.1672993E-004  0.3200205E+03  0.7818608E-02  0.1075640E+00
          2   -1    0    0  501    0  0.00000000000E+00  0.00000000000E+00  0.13033288197E+04  0.13033288197E+04  0.00000000000E+00 0.  1.
         -2   -1    0    0    0  501 -0.00000000000E+00 -0.00000000000E+00 -0.19644525017E+02  0.19644525017E+02  0.00000000000E+00 0.  1.
         25    1    1    2    0    0 -0.58425063840E+02  0.34565379442E+02  0.30611886598E+03  0.33573354561E+03  0.12000000000E+03 0.  0.
         25    1    1    2    0    0  0.58425063840E+02 -0.34565379442E+02  0.97756542875E+03  0.98723979915E+03  0.12000000000E+03 0.  0.
<mgrwt>
<rscale>  0 0.32002047E+03</rscale>
<asrwt>0</asrwt>
<pdfrwt beam="1">  1        2 0.20051206E+00 0.32002047E+03</pdfrwt>
<pdfrwt beam="2">  1       -2 0.30222356E-02 0.32002047E+03</pdfrwt>
<totfact> 0.73391053E+03</totfact>
</mgrwt>
</event>
<event>
 4    1  0.1672993E-004  0.2430694E+03  0.7818608E-02  0.1117765E+00
         -2   -1    0    0    0  501 -0.00000000000E+00  0.00000000000E+00  0.88269034371E+03  0.88269034371E+03  0.00000000000E+00 0.  1.
          2   -1    0    0  501    0  0.00000000000E+00 -0.00000000000E+00 -0.16733702657E+02  0.16733702657E+02  0.00000000000E+00 0.  1.
         25    1    1    2    0    0  0.76789524247E+01  0.17349939968E+02  0.44507716550E+03  0.46136067234E+03  0.12000000000E+03 0.  0.
         25    1    1    2    0    0 -0.76789524247E+01 -0.17349939968E+02  0.42087947555E+03  0.43806337403E+03  0.12000000000E+03 0.  0.
<mgrwt>
<rscale>  0 0.24306935E+03</rscale>
<asrwt>0</asrwt>
<pdfrwt beam="1">  1        2 0.25744165E-02 0.24306935E+03</pdfrwt>
<pdfrwt beam="2">  1       -2 0.13579848E+00 0.24306935E+03</pdfrwt>
<totfact> 0.15714897E+03</totfact>
</mgrwt>
</event>
<event>
 4    1  0.1672993E-004  0.2918003E+03  0.7818608E-02  0.1089413E+00
          1   -1    0    0  501    0  0.00000000000E+00  0.00000000000E+00  0.69442205174E+03  0.69442205174E+03  0.00000000000E+00 0.  1.
         -1   -1    0    0    0  501 -0.00000000000E+00 -0.00000000000E+00 -0.30654055511E+02  0.30654055511E+02  0.00000000000E+00 0.  1.
         25    1    1    2    0    0  0.23032818413E+02 -0.71501605933E+01  0.13457454974E+03  0.18191191538E+03  0.12000000000E+03 0.  0.
         25    1    1    2    0    0 -0.23032818413E+02  0.71501605933E+01  0.52919344649E+03  0.54316419187E+03  0.12000000000E+03 0.  0.
<mgrwt>
<rscale>  0 0.29180029E+03</rscale>
<asrwt>0</asrwt>
<pdfrwt beam="1">  1        1 0.10683415E+00 0.29180029E+03</pdfrwt>
<pdfrwt beam="2">  1       -1 0.47160091E-02 0.29180029E+03</pdfrwt>
<totfact> 0.54775381E+03</totfact>
</mgrwt>
</event>
<event>
 4    1  0.1672993E-004  0.3118352E+03  0.7818608E-02  0.1079470E+00
         -1   -1    0    0    0  501 -0.00000000000E+00  0.00000000000E+00  0.95086001566E+03  0.95086001566E+03  0.00000000000E+00 0.  1.
          1   -1    0    0  501    0  0.00000000000E+00 -0.00000000000E+00 -0.25566641658E+02  0.25566641658E+02  0.00000000000E+00 0.  1.
         25    1    1    2    0    0  0.91208736332E+02 -0.39013707721E+02  0.43660016735E+03  0.46353080708E+03  0.12000000000E+03 0.  0.
         25    1    1    2    0    0 -0.91208736332E+02  0.39013707721E+02  0.48869320665E+03  0.51289585024E+03  0.12000000000E+03 0.  0.
<mgrwt>
<rscale>  0 0.31183520E+03</rscale>
<asrwt>0</asrwt>
<pdfrwt beam="1">  1        1 0.39333302E-02 0.31183520E+03</pdfrwt>
<pdfrwt beam="2">  1       -1 0.14628613E+00 0.31183520E+03</pdfrwt>
<totfact> 0.94149774E+02</totfact>
</mgrwt>
</event>
<event>
 4    1  0.1672993E-004  0.2616659E+03  0.7818608E-02  0.1106146E+00
          2   -1    0    0  501    0  0.00000000000E+00  0.00000000000E+00  0.19566609981E+04  0.19566609981E+04  0.00000000000E+00 0.  1.
         -2   -1    0    0    0  501 -0.00000000000E+00 -0.00000000000E+00 -0.87481991417E+01  0.87481991417E+01  0.00000000000E+00 0.  1.
         25    1    1    2    0    0  0.41819660163E+02  0.25668785590E+02  0.11060947399E+04  0.11136666216E+04  0.12000000000E+03 0.  0.
         25    1    1    2    0    0 -0.41819660163E+02 -0.25668785590E+02  0.84181805910E+03  0.85174257564E+03  0.12000000000E+03 0.  0.
<mgrwt>
<rscale>  0 0.26166589E+03</rscale>
<asrwt>0</asrwt>
<pdfrwt beam="1">  1        2 0.30102442E+00 0.26166589E+03</pdfrwt>
<pdfrwt beam="2">  1       -2 0.13458783E-02 0.26166589E+03</pdfrwt>
<totfact> 0.10816008E+04</totfact>
</mgrwt>
</event>
<event>
 4    1  0.1672993E-004  0.2776977E+03  0.7818608E-02  0.1096953E+00
          1   -1    0    0  501    0  0.00000000000E+00  0.00000000000E+00  0.44808250446E+02  0.44808250446E+02  0.00000000000E+00 0. -1.
         -1   -1    0    0    0  501 -0.00000000000E+00 -0.00000000000E+00 -0.43025559392E+03  0.43025559392E+03  0.00000000000E+00 0. -1.
         25    1    1    2    0    0  0.65677605982E+01 -0.13440097573E+02 -0.30944500456E+03  0.33223483043E+03  0.12000000000E+03 0.  0.
         25    1    1    2    0    0 -0.65677605982E+01  0.13440097573E+02 -0.76002338914E+02  0.14282901394E+03  0.12000000000E+03 0.  0.
<mgrwt>
<rscale>  0 0.27769768E+03</rscale>
<asrwt>0</asrwt>
<pdfrwt beam="1">  1        1 0.68935771E-02 0.27769768E+03</pdfrwt>
<pdfrwt beam="2">  1       -1 0.66193167E-01 0.27769768E+03</pdfrwt>
<totfact> 0.25515190E+03</totfact>
</mgrwt>
</event>
<event>
 4    1  0.1672993E-004  0.2487929E+03  0.7818608E-02  0.1114070E+00
         -2   -1    0    0    0  501 -0.00000000000E+00  0.00000000000E+00  0.18292494998E+02  0.18292494998E+02  0.00000000000E+00 0.  1.
          2   -1    0    0  501    0  0.00000000000E+00 -0.00000000000E+00 -0.84594659241E+03  0.84594659241E+03  0.00000000000E+00 0.  1.
         25    1    1    2    0    0 -0.56734948573E+01  0.11629010122E+02 -0.51844637287E+03  0.53231012010E+03  0.12000000000E+03 0.  0.
         25    1    1    2    0    0  0.56734948573E+01 -0.11629010122E+02 -0.30920772454E+03  0.33192896731E+03  0.12000000000E+03 0.  0.
<mgrwt>
<rscale>  0 0.24879288E+03</rscale>
<asrwt>0</asrwt>
<pdfrwt beam="1">  1        2 0.13014564E+00 0.24879288E+03</pdfrwt>
<pdfrwt beam="2">  1       -2 0.28142298E-02 0.24879288E+03</pdfrwt>
<totfact> 0.15239418E+04</totfact>
</mgrwt>
</event>
<event>
 4    1  0.1672993E-004  0.2487630E+03  0.7818608E-02  0.1114089E+00
         -2   -1    0    0    0  501 -0.00000000000E+00  0.00000000000E+00  0.29860701438E+02  0.29860701438E+02  0.00000000000E+00 0. -1.
          2   -1    0    0  501    0  0.00000000000E+00 -0.00000000000E+00 -0.51809742071E+03  0.51809742071E+03  0.00000000000E+00 0. -1.
         25    1    1    2    0    0 -0.11974572998E+02 -0.97436377067E+01 -0.30767103343E+03  0.33060519307E+03  0.12000000000E+03 0.  0.
         25    1    1    2    0    0  0.11974572998E+02  0.97436377067E+01 -0.18056568584E+03  0.21735292908E+03  0.12000000000E+03 0.  0.
<mgrwt>
<rscale>  0 0.24876296E+03</rscale>
<asrwt>0</asrwt>
<pdfrwt beam="1">  1        2 0.79707287E-01 0.24876296E+03</pdfrwt>
<pdfrwt beam="2">  1       -2 0.45939546E-02 0.24876296E+03</pdfrwt>
<totfact> 0.13164026E+04</totfact>
</mgrwt>
</event>
<event>
 4    1  0.1672993E-004  0.3233552E+03  0.7818608E-02  0.1074115E+00
         -2   -1    0    0    0  501 -0.00000000000E+00  0.00000000000E+00  0.18968452161E+03  0.18968452161E+03  0.00000000000E+00 0.  1.
          2   -1    0    0  501    0  0.00000000000E+00 -0.00000000000E+00 -0.13780591904E+03  0.13780591904E+03  0.00000000000E+00 0.  1.
         25    1    1    2    0    0 -0.51014133737E+02  0.16950614398E+02 -0.69337584749E+02  0.14865216389E+03  0.12000000000E+03 0.  0.
         25    1    1    2    0    0  0.51014133737E+02 -0.16950614398E+02  0.12121618731E+03  0.17883827676E+03  0.12000000000E+03 0.  0.
<mgrwt>
<rscale>  0 0.32335522E+03</rscale>
<asrwt>0</asrwt>
<pdfrwt beam="1">  1        2 0.21200911E-01 0.32335522E+03</pdfrwt>
<pdfrwt beam="2">  1       -2 0.29182234E-01 0.32335522E+03</pdfrwt>
<totfact> 0.27976504E+03</totfact>
</mgrwt>
</event>
<event>
 4    1  0.1672993E-004  0.3569641E+03  0.7818608E-02  0.1059792E+00
          2   -1    0    0  501    0  0.00000000000E+00  0.00000000000E+00  0.23081402432E+04  0.23081402432E+04  0.00000000000E+00 0. -1.
         -2   -1    0    0    0  501 -0.00000000000E+00 -0.00000000000E+00 -0.13801518701E+02  0.13801518701E+02  0.00000000000E+00 0. -1.
         25    1    1    2    0    0 -0.46733348941E+02  0.20126319500E+02  0.19402823204E+04  0.19446553827E+04  0.12000000000E+03 0.  0.
         25    1    1    2    0    0  0.46733348941E+02 -0.20126319500E+02  0.35405640409E+03  0.37728637918E+03  0.12000000000E+03 0.  0.
<mgrwt>
<rscale>  0 0.35696409E+03</rscale>
<asrwt>0</asrwt>
<pdfrwt beam="1">  1        2 0.35509819E+00 0.35696409E+03</pdfrwt>
<pdfrwt beam="2">  1       -2 0.21233124E-02 0.35696409E+03</pdfrwt>
<totfact> 0.35936437E+03</totfact>
</mgrwt>
</event>
<event>
 4    1  0.1672993E-004  0.3302853E+03  0.7818608E-02  0.1071011E+00
          1   -1    0    0  501    0  0.00000000000E+00  0.00000000000E+00  0.66427309838E+02  0.66427309838E+02  0.00000000000E+00 0.  1.
         -1   -1    0    0    0  501 -0.00000000000E+00 -0.00000000000E+00 -0.41055539540E+03  0.41055539540E+03  0.00000000000E+00 0.  1.
         25    1    1    2    0    0  0.79577464193E+02  0.56038894676E+02 -0.87866537894E+02  0.17774548941E+03  0.12000000000E+03 0.  0.
         25    1    1    2    0    0 -0.79577464193E+02 -0.56038894676E+02 -0.25626154767E+03  0.29923721583E+03  0.12000000000E+03 0.  0.
<mgrwt>
<rscale>  0 0.33028527E+03</rscale>
<asrwt>0</asrwt>
<pdfrwt beam="1">  1        1 0.10219586E-01 0.33028527E+03</pdfrwt>
<pdfrwt beam="2">  1       -1 0.63162371E-01 0.33028527E+03</pdfrwt>
<totfact> 0.16423231E+03</totfact>
</mgrwt>
</event>
<event>
 4    1  0.1672993E-004  0.3182953E+03  0.7818608E-02  0.1076437E+00
          2   -1    0    0  501    0  0.00000000000E+00  0.00000000000E+00  0.58332057624E+02  0.58332057624E+02  0.00000000000E+00 0.  1.
         -2   -1    0    0    0  501 -0.00000000000E+00 -0.00000000000E+00 -0.43420333526E+03  0.43420333526E+03  0.00000000000E+00 0.  1.
         25    1    1    2    0    0 -0.94509200819E+02  0.30259098334E+00 -0.11880415311E+03  0.19351100071E+03  0.12000000000E+03 0.  0.
         25    1    1    2    0    0  0.94509200819E+02 -0.30259098334E+00 -0.25706712452E+03  0.29902439217E+03  0.12000000000E+03 0.  0.
<mgrwt>
<rscale>  0 0.31829530E+03</rscale>
<asrwt>0</asrwt>
<pdfrwt beam="1">  1        2 0.89741632E-02 0.31829530E+03</pdfrwt>
<pdfrwt beam="2">  1       -2 0.66800509E-01 0.31829530E+03</pdfrwt>
<totfact> 0.15535545E+03</totfact>
</mgrwt>
</event>
<event>
 4    1  0.1672993E-004  0.2749383E+03  0.7818608E-02  0.1098486E+00
         -2   -1    0    0    0  501 -0.00000000000E+00  0.00000000000E+00  0.27579288632E+02  0.27579288632E+02  0.00000000000E+00 0. -1.
          2   -1    0    0  501    0  0.00000000000E+00 -0.00000000000E+00 -0.68521587895E+03  0.68521587895E+03  0.00000000000E+00 0. -1.
         25    1    1    2    0    0  0.65653489035E+02  0.12234115951E+02 -0.31289727334E+03  0.34170858619E+03  0.12000000000E+03 0.  0.
         25    1    1    2    0    0 -0.65653489035E+02 -0.12234115951E+02 -0.34473931698E+03  0.37108658139E+03  0.12000000000E+03 0.  0.
<mgrwt>
<rscale>  0 0.27493829E+03</rscale>
<asrwt>0</asrwt>
<pdfrwt beam="1">  1        2 0.10541782E+00 0.27493829E+03</pdfrwt>
<pdfrwt beam="2">  1       -2 0.42429677E-02 0.27493829E+03</pdfrwt>
<totfact> 0.10776975E+04</totfact>
</mgrwt>
</event>
<event>
 4    1  0.1672993E-004  0.2556608E+03  0.7818608E-02  0.1109779E+00
         -2   -1    0    0    0  501 -0.00000000000E+00  0.00000000000E+00  0.20343225339E+02  0.20343225339E+02  0.00000000000E+00 0. -1.
          2   -1    0    0  501    0  0.00000000000E+00 -0.00000000000E+00 -0.80324577321E+03  0.80324577321E+03  0.00000000000E+00 0. -1.
         25    1    1    2    0    0  0.51158082346E+01  0.43754135992E+02 -0.39107206355E+03  0.41143402241E+03  0.12000000000E+03 0.  0.
         25    1    1    2    0    0 -0.51158082346E+01 -0.43754135992E+02 -0.39183048432E+03  0.41215497614E+03  0.12000000000E+03 0.  0.
<mgrwt>
<rscale>  0 0.25566079E+03</rscale>
<asrwt>0</asrwt>
<pdfrwt beam="1">  1        2 0.12357629E+00 0.25566079E+03</pdfrwt>
<pdfrwt beam="2">  1       -2 0.31297266E-02 0.25566079E+03</pdfrwt>
<totfact> 0.13926300E+04</totfact>
</mgrwt>
</event>
<event>
 4    1  0.1672993E-004  0.3316435E+03  0.7818608E-02  0.1070412E+00
         -1   -1    0    0    0  501 -0.00000000000E+00  0.00000000000E+00  0.88465028793E+03  0.88465028793E+03  0.00000000000E+00 0. -1.
          1   -1    0    0  501    0  0.00000000000E+00 -0.00000000000E+00 -0.31082176279E+02  0.31082176279E+02  0.00000000000E+00 0. -1.
         25    1    1    2    0    0  0.70714777051E+02  0.88758866957E+02  0.46756570519E+03  0.49587942570E+03  0.12000000000E+03 0.  0.
         25    1    1    2    0    0 -0.70714777051E+02 -0.88758866957E+02  0.38600240646E+03  0.41985303851E+03  0.12000000000E+03 0.  0.
<mgrwt>
<rscale>  0 0.33164352E+03</rscale>
<asrwt>0</asrwt>
<pdfrwt beam="1">  1        1 0.47818739E-02 0.33164352E+03</pdfrwt>
<pdfrwt beam="2">  1       -1 0.13610003E+00 0.33164352E+03</pdfrwt>
<totfact> 0.86214324E+02</totfact>
</mgrwt>
</event>
<event>
 4    1  0.1672993E-004  0.2447237E+03  0.7818608E-02  0.1116685E+00
         -1   -1    0    0    0  501 -0.00000000000E+00  0.00000000000E+00  0.73077987022E+02  0.73077987022E+02  0.00000000000E+00 0. -1.
          1   -1    0    0  501    0  0.00000000000E+00 -0.00000000000E+00 -0.20488280429E+03  0.20488280429E+03  0.00000000000E+00 0. -1.
         25    1    1    2    0    0  0.52934939345E+00 -0.23107797208E+02 -0.72919906534E+02  0.14230798738E+03  0.12000000000E+03 0.  0.
         25    1    1    2    0    0 -0.52934939345E+00  0.23107797208E+02 -0.58884910731E+02  0.13565280393E+03  0.12000000000E+03 0.  0.
<mgrwt>
<rscale>  0 0.24472370E+03</rscale>
<asrwt>0</asrwt>
<pdfrwt beam="1">  1        1 0.31520431E-01 0.24472370E+03</pdfrwt>
<pdfrwt beam="2">  1       -1 0.11242767E-01 0.24472370E+03</pdfrwt>
<totfact> 0.71122316E+03</totfact>
</mgrwt>
</event>
<event>
 4    1  0.1672993E-004  0.3389686E+03  0.7818608E-02  0.1067236E+00
          3   -1    0    0  501    0  0.00000000000E+00  0.00000000000E+00  0.22189166378E+02  0.22189166378E+02  0.00000000000E+00 0.  1.
         -3   -1    0    0    0  501 -0.00000000000E+00 -0.00000000000E+00 -0.12945477417E+04  0.12945477417E+04  0.00000000000E+00 0.  1.
         25    1    1    2    0    0 -0.24277079107E+02  0.11694231936E+03 -0.60607659267E+03  0.62928031814E+03  0.12000000000E+03 0.  0.
         25    1    1    2    0    0  0.24277079107E+02 -0.11694231936E+03 -0.66628198263E+03  0.68745658991E+03  0.12000000000E+03 0.  0.
<mgrwt>
<rscale>  0 0.33896864E+03</rscale>
<asrwt>0</asrwt>
<pdfrwt beam="1">  1        3 0.34137179E-02 0.33896864E+03</pdfrwt>
<pdfrwt beam="2">  1       -3 0.19916119E+00 0.33896864E+03</pdfrwt>
<totfact> 0.17190665E+02</totfact>
</mgrwt>
</event>
<event>
 4    1  0.1672993E-004  0.2542766E+03  0.7818608E-02  0.1110632E+00
         -4   -1    0    0    0  501 -0.00000000000E+00  0.00000000000E+00  0.31069864840E+02  0.31069864840E+02  0.00000000000E+00 0.  1.
          4   -1    0    0  501    0  0.00000000000E+00 -0.00000000000E+00 -0.52025167244E+03  0.52025167244E+03  0.00000000000E+00 0.  1.
         25    1    1    2    0    0  0.41202228408E+02  0.42924624260E+01 -0.25962829043E+03  0.28900328381E+03  0.12000000000E+03 0.  0.
         25    1    1    2    0    0 -0.41202228408E+02 -0.42924624260E+01 -0.22955351717E+03  0.26231825347E+03  0.12000000000E+03 0.  0.
<mgrwt>
<rscale>  0 0.25427661E+03</rscale>
<asrwt>0</asrwt>
<pdfrwt beam="1">  1        4 0.80038721E-01 0.25427661E+03</pdfrwt>
<pdfrwt beam="2">  1       -4 0.47799791E-02 0.25427661E+03</pdfrwt>
<totfact> 0.67565720E+02</totfact>
</mgrwt>
</event>
<event>
 4    1  0.1672993E-004  0.2927789E+03  0.7818608E-02  0.1088907E+00
          4   -1    0    0  501    0  0.00000000000E+00  0.00000000000E+00  0.21007528507E+02  0.21007528507E+02  0.00000000000E+00 0.  1.
         -4   -1    0    0    0  501 -0.00000000000E+00 -0.00000000000E+00 -0.10201040150E+04  0.10201040150E+04  0.00000000000E+00 0.  1.
         25    1    1    2    0    0 -0.46896688280E+02 -0.52298602716E+02 -0.66232530264E+03  0.67676380646E+03  0.12000000000E+03 0.  0.
         25    1    1    2    0    0  0.46896688280E+02  0.52298602716E+02 -0.33677118387E+03  0.36434773706E+03  0.12000000000E+03 0.  0.
<mgrwt>
<rscale>  0 0.29277885E+03</rscale>
<asrwt>0</asrwt>
<pdfrwt beam="1">  1        4 0.32319281E-02 0.29277885E+03</pdfrwt>
<pdfrwt beam="2">  1       -4 0.15693905E+00 0.29277885E+03</pdfrwt>
<totfact> 0.25387496E+02</totfact>
</mgrwt>
</event>
<event>
 4    1  0.1672993E-004  0.2646706E+03  0.7818608E-02  0.1104369E+00
          2   -1    0    0  501    0  0.00000000000E+00  0.00000000000E+00  0.37228503600E+03  0.37228503600E+03  0.00000000000E+00 0.  1.
         -2   -1    0    0    0  501 -0.00000000000E+00 -0.00000000000E+00 -0.47040922240E+02  0.47040922240E+02  0.00000000000E+00 0.  1.
         25    1    1    2    0    0  0.31201774083E+02 -0.34961820863E+02  0.21059230179E+03  0.24687040567E+03  0.12000000000E+03 0.  0.
         25    1    1    2    0    0 -0.31201774083E+02  0.34961820863E+02  0.11465181198E+03  0.17245555257E+03  0.12000000000E+03 0.  0.
<mgrwt>
<rscale>  0 0.26467060E+03</rscale>
<asrwt>0</asrwt>
<pdfrwt beam="1">  1        2 0.57274619E-01 0.26467060E+03</pdfrwt>
<pdfrwt beam="2">  1       -2 0.72370652E-02 0.26467060E+03</pdfrwt>
<totfact> 0.94678265E+03</totfact>
</mgrwt>
</event>
<event>
 4    1  0.1672993E-004  0.3311700E+03  0.7818608E-02  0.1070620E+00
          4   -1    0    0  501    0  0.00000000000E+00  0.00000000000E+00  0.25727526393E+03  0.25727526393E+03  0.00000000000E+00 0. -1.
         -4   -1    0    0    0  501 -0.00000000000E+00 -0.00000000000E+00 -0.10657221830E+03  0.10657221830E+03  0.00000000000E+00 0. -1.
         25    1    1    2    0    0  0.91985198910E+02 -0.29117348416E+02  0.14226510318E+03  0.20963887135E+03  0.12000000000E+03 0.  0.
         25    1    1    2    0    0 -0.91985198910E+02  0.29117348416E+02  0.84379424522E+01  0.15420861088E+03  0.12000000000E+03 0.  0.
<mgrwt>
<rscale>  0 0.33117002E+03</rscale>
<asrwt>0</asrwt>
<pdfrwt beam="1">  1        4 0.39580810E-01 0.33117002E+03</pdfrwt>
<pdfrwt beam="2">  1       -4 0.16395726E-01 0.33117002E+03</pdfrwt>
<totfact> 0.38297344E+02</totfact>
</mgrwt>
</event>
<event>
 4    1  0.1672993E-004  0.3108610E+03  0.7818608E-02  0.1079934E+00
         -1   -1    0    0    0  501 -0.00000000000E+00  0.00000000000E+00  0.51175867692E+02  0.51175867692E+02  0.00000000000E+00 0. -1.
          1   -1    0    0  501    0  0.00000000000E+00 -0.00000000000E+00 -0.47207101914E+03  0.47207101914E+03  0.00000000000E+00 0. -1.
         25    1    1    2    0    0 -0.22588027201E+02 -0.88759404148E+02 -0.14814137252E+03  0.21150488658E+03  0.12000000000E+03 0.  0.
         25    1    1    2    0    0  0.22588027201E+02  0.88759404148E+02 -0.27275377893E+03  0.31174200025E+03  0.12000000000E+03 0.  0.
<mgrwt>
<rscale>  0 0.31086102E+03</rscale>
<asrwt>0</asrwt>
<pdfrwt beam="1">  1        1 0.72626312E-01 0.31086102E+03</pdfrwt>
<pdfrwt beam="2">  1       -1 0.78732103E-02 0.31086102E+03</pdfrwt>
<totfact> 0.43018962E+03</totfact>
</mgrwt>
</event>
<event>
 4    1  0.1672993E-004  0.3519845E+03  0.7818608E-02  0.1061803E+00
         -2   -1    0    0    0  501 -0.00000000000E+00  0.00000000000E+00  0.22405818654E+03  0.22405818654E+03  0.00000000000E+00 0.  1.
          2   -1    0    0  501    0  0.00000000000E+00 -0.00000000000E+00 -0.13823765531E+03  0.13823765531E+03  0.00000000000E+00 0.  1.
         25    1    1    2    0    0  0.10165788255E+03  0.64453438305E+02  0.89906421700E+02  0.19228035640E+03  0.12000000000E+03 0.  0.
         25    1    1    2    0    0 -0.10165788255E+03 -0.64453438305E+02 -0.40858904673E+01  0.17001548545E+03  0.12000000000E+03 0.  0.
<mgrwt>
<rscale>  0 0.35198454E+03</rscale>
<asrwt>0</asrwt>
<pdfrwt beam="1">  1        2 0.21267332E-01 0.35198454E+03</pdfrwt>
<pdfrwt beam="2">  1       -2 0.34470490E-01 0.35198454E+03</pdfrwt>
<totfact> 0.20546001E+03</totfact>
</mgrwt>
</event>
<event>
 4    1  0.1672993E-004  0.3234836E+03  0.7818608E-02  0.1074057E+00
          2   -1    0    0  501    0  0.00000000000E+00  0.00000000000E+00  0.98623449517E+03  0.98623449517E+03  0.00000000000E+00 0. -1.
         -2   -1    0    0    0  501 -0.00000000000E+00 -0.00000000000E+00 -0.26525549374E+02  0.26525549374E+02  0.00000000000E+00 0. -1.
         25    1    1    2    0    0 -0.39535522094E+01  0.28928863851E+02  0.80683725932E+03  0.81623456969E+03  0.12000000000E+03 0.  0.
         25    1    1    2    0    0  0.39535522094E+01 -0.28928863851E+02  0.15287168648E+03  0.19652547485E+03  0.12000000000E+03 0.  0.
<mgrwt>
<rscale>  0 0.32348361E+03</rscale>
<asrwt>0</asrwt>
<pdfrwt beam="1">  1        2 0.15172836E+00 0.32348361E+03</pdfrwt>
<pdfrwt beam="2">  1       -2 0.40808545E-02 0.32348361E+03</pdfrwt>
<totfact> 0.71603017E+03</totfact>
</mgrwt>
</event>
<event>
 4    1  0.1672993E-004  0.2621512E+03  0.7818608E-02  0.1105858E+00
         -2   -1    0    0    0  501 -0.00000000000E+00  0.00000000000E+00  0.48708212367E+02  0.48708212367E+02  0.00000000000E+00 0. -1.
          2   -1    0    0  501    0  0.00000000000E+00 -0.00000000000E+00 -0.35272929425E+03  0.35272929425E+03  0.00000000000E+00 0. -1.
         25    1    1    2    0    0 -0.32122263974E+02 -0.18961986425E+02 -0.20909032644E+03  0.24394704627E+03  0.12000000000E+03 0.  0.
         25    1    1    2    0    0  0.32122263974E+02  0.18961986425E+02 -0.94930755442E+02  0.15749046035E+03  0.12000000000E+03 0.  0.
<mgrwt>
<rscale>  0 0.26215120E+03</rscale>
<asrwt>0</asrwt>
<pdfrwt beam="1">  1        2 0.54266048E-01 0.26215120E+03</pdfrwt>
<pdfrwt beam="2">  1       -2 0.74935707E-02 0.26215120E+03</pdfrwt>
<totfact> 0.95039578E+03</totfact>
</mgrwt>
</event>
<event>
 4    1  0.1672993E-004  0.3896140E+03  0.7818608E-02  0.1047437E+00
          4   -1    0    0  501    0  0.00000000000E+00  0.00000000000E+00  0.62104696726E+02  0.62104696726E+02  0.00000000000E+00 0. -1.
         -4   -1    0    0    0  501 -0.00000000000E+00 -0.00000000000E+00 -0.61106110668E+03  0.61106110668E+03  0.00000000000E+00 0. -1.
         25    1    1    2    0    0 -0.16761657755E+02 -0.59585312346E+02 -0.51709639897E+03  0.53443432566E+03  0.12000000000E+03 0.  0.
         25    1    1    2    0    0  0.16761657755E+02  0.59585312346E+02 -0.31860010989E+02  0.13873147775E+03  0.12000000000E+03 0.  0.
<mgrwt>
<rscale>  0 0.38961399E+03</rscale>
<asrwt>0</asrwt>
<pdfrwt beam="1">  1        4 0.95545691E-02 0.38961399E+03</pdfrwt>
<pdfrwt beam="2">  1       -4 0.94009398E-01 0.38961399E+03</pdfrwt>
<totfact> 0.15604952E+02</totfact>
</mgrwt>
</event>
<event>
 4    1  0.1672993E-004  0.5788062E+03  0.7818608E-02  0.9950379E-01
         -2   -1    0    0    0  501 -0.00000000000E+00  0.00000000000E+00  0.15401115763E+03  0.15401115763E+03  0.00000000000E+00 0. -1.
          2   -1    0    0  501    0  0.00000000000E+00 -0.00000000000E+00 -0.54381865056E+03  0.54381865056E+03  0.00000000000E+00 0. -1.
         25    1    1    2    0    0  0.17573778895E+03 -0.27672346447E+02 -0.42901032074E+03  0.47968675667E+03  0.12000000000E+03 0.  0.
         25    1    1    2    0    0 -0.17573778895E+03  0.27672346447E+02  0.39202827806E+02  0.21814305153E+03  0.12000000000E+03 0.  0.
<mgrwt>
<rscale>  0 0.57880615E+03</rscale>
<asrwt>0</asrwt>
<pdfrwt beam="1">  1        2 0.83664408E-01 0.57880615E+03</pdfrwt>
<pdfrwt beam="2">  1       -2 0.23694024E-01 0.57880615E+03</pdfrwt>
<totfact> 0.88462270E+02</totfact>
</mgrwt>
</event>
<event>
 4    1  0.1672993E-004  0.2690858E+03  0.7818608E-02  0.1101804E+00
         -1   -1    0    0    0  501 -0.00000000000E+00  0.00000000000E+00  0.65298155539E+01  0.65298155539E+01  0.00000000000E+00 0.  1.
          1   -1    0    0  501    0  0.00000000000E+00 -0.00000000000E+00 -0.27721752175E+04  0.27721752175E+04  0.00000000000E+00 0.  1.
         25    1    1    2    0    0  0.31683286911E+02 -0.40409862299E+02 -0.10458245458E+04  0.10539382184E+04  0.12000000000E+03 0.  0.
         25    1    1    2    0    0 -0.31683286911E+02  0.40409862299E+02 -0.17198208562E+04  0.17247668147E+04  0.12000000000E+03 0.  0.
<mgrwt>
<rscale>  0 0.26908581E+03</rscale>
<asrwt>0</asrwt>
<pdfrwt beam="1">  1        1 0.42648808E+00 0.26908581E+03</pdfrwt>
<pdfrwt beam="2">  1       -1 0.10045880E-02 0.26908581E+03</pdfrwt>
<totfact> 0.19440228E+03</totfact>
</mgrwt>
</event>
<event>
 4    1  0.1672993E-004  0.2823506E+03  0.7818608E-02  0.1094412E+00
         -2   -1    0    0    0  501 -0.00000000000E+00  0.00000000000E+00  0.73668593527E+02  0.73668593527E+02  0.00000000000E+00 0. -1.
          2   -1    0    0  501    0  0.00000000000E+00 -0.00000000000E+00 -0.27054224734E+03  0.27054224734E+03  0.00000000000E+00 0. -1.
         25    1    1    2    0    0 -0.65928002677E+02 -0.21895402238E+02 -0.13079572911E+03  0.19061330733E+03  0.12000000000E+03 0.  0.
         25    1    1    2    0    0  0.65928002677E+02  0.21895402238E+02 -0.66077924698E+02  0.15359753354E+03  0.12000000000E+03 0.  0.
<mgrwt>
<rscale>  0 0.28235061E+03</rscale>
<asrwt>0</asrwt>
<pdfrwt beam="1">  1        2 0.41621884E-01 0.28235061E+03</pdfrwt>
<pdfrwt beam="2">  1       -2 0.11333630E-01 0.28235061E+03</pdfrwt>
<totfact> 0.65975054E+03</totfact>
</mgrwt>
</event>
<event>
 4    1  0.1672993E-004  0.2502264E+03  0.7818608E-02  0.1113162E+00
          2   -1    0    0  501    0  0.00000000000E+00  0.00000000000E+00  0.19125500849E+03  0.19125500849E+03  0.00000000000E+00 0.  1.
         -2   -1    0    0    0  501 -0.00000000000E+00 -0.00000000000E+00 -0.81845223259E+02  0.81845223259E+02  0.00000000000E+00 0.  1.
         25    1    1    2    0    0 -0.46546702114E+01 -0.26989879857E+02  0.30222452875E+02  0.12674192766E+03  0.12000000000E+03 0.  0.
         25    1    1    2    0    0  0.46546702114E+01  0.26989879857E+02  0.79187332356E+02  0.14635830409E+03  0.12000000000E+03 0.  0.
<mgrwt>
<rscale>  0 0.25022637E+03</rscale>
<asrwt>0</asrwt>
<pdfrwt beam="1">  1        2 0.29423847E-01 0.25022637E+03</pdfrwt>
<pdfrwt beam="2">  1       -2 0.12591573E-01 0.25022637E+03</pdfrwt>
<totfact> 0.80739518E+03</totfact>
</mgrwt>
</event>
<event>
 4    1  0.1672993E-004  0.1017818E+04  0.7818608E-02  0.9289215E-01
         -2   -1    0    0    0  501 -0.00000000000E+00  0.00000000000E+00  0.66522760260E+02  0.66522760260E+02  0.00000000000E+00 0.  1.
          2   -1    0    0  501    0  0.00000000000E+00 -0.00000000000E+00 -0.38932328672E+04  0.38932328672E+04  0.00000000000E+00 0.  1.
         25    1    1    2    0    0  0.43156669677E+03  0.57757169328E+02 -0.10009433834E+04  0.10981226530E+04  0.12000000000E+03 0.  0.
         25    1    1    2    0    0 -0.43156669677E+03 -0.57757169328E+02 -0.28257667236E+04  0.28616329745E+04  0.12000000000E+03 0.  0.
<mgrwt>
<rscale>  0 0.10178184E+04</rscale>
<asrwt>0</asrwt>
<pdfrwt beam="1">  1        2 0.59895900E+00 0.10178184E+04</pdfrwt>
<pdfrwt beam="2">  1       -2 0.10234269E-01 0.10178184E+04</pdfrwt>
<totfact> 0.28952347E+01</totfact>
</mgrwt>
</event>
<event>
 4    1  0.1672993E-004  0.2477421E+03  0.7818608E-02  0.1114740E+00
         -1   -1    0    0    0  501 -0.00000000000E+00  0.00000000000E+00  0.80683968227E+01  0.80683968227E+01  0.00000000000E+00 0.  1.
          1   -1    0    0  501    0  0.00000000000E+00 -0.00000000000E+00 -0.19017458896E+04  0.19017458896E+04  0.00000000000E+00 0.  1.
         25    1    1    2    0    0  0.27206401865E+02 -0.57054818889E+01 -0.84594377216E+03  0.85486467144E+03  0.12000000000E+03 0.  0.
         25    1    1    2    0    0 -0.27206401865E+02  0.57054818889E+01 -0.10477337206E+04  0.10549496150E+04  0.12000000000E+03 0.  0.
<mgrwt>
<rscale>  0 0.24774213E+03</rscale>
<asrwt>0</asrwt>
<pdfrwt beam="1">  1        1 0.29257690E+00 0.24774213E+03</pdfrwt>
<pdfrwt beam="2">  1       -1 0.12412892E-02 0.24774213E+03</pdfrwt>
<totfact> 0.53661635E+03</totfact>
</mgrwt>
</event>
<event>
 4    1  0.1672993E-004  0.2576879E+03  0.7818608E-02  0.1108540E+00
         -2   -1    0    0    0  501 -0.00000000000E+00  0.00000000000E+00  0.58694930397E+03  0.58694930397E+03  0.00000000000E+00 0.  1.
          2   -1    0    0  501    0  0.00000000000E+00 -0.00000000000E+00 -0.28283132202E+02  0.28283132202E+02  0.00000000000E+00 0.  1.
         25    1    1    2    0    0 -0.32458632363E+02 -0.81229467066E+01  0.20082721202E+03  0.23632840321E+03  0.12000000000E+03 0.  0.
         25    1    1    2    0    0  0.32458632363E+02  0.81229467066E+01  0.35783895975E+03  0.37890403296E+03  0.12000000000E+03 0.  0.
<mgrwt>
<rscale>  0 0.25768791E+03</rscale>
<asrwt>0</asrwt>
<pdfrwt beam="1">  1        2 0.43512516E-02 0.25768791E+03</pdfrwt>
<pdfrwt beam="2">  1       -2 0.90299884E-01 0.25768791E+03</pdfrwt>
<totfact> 0.20447513E+03</totfact>
</mgrwt>
</event>
<event>
 4    1  0.1672993E-004  0.3062752E+03  0.7818608E-02  0.1082145E+00
          4   -1    0    0  501    0  0.00000000000E+00  0.00000000000E+00  0.17736238801E+03  0.17736238801E+03  0.00000000000E+00 0.  1.
         -4   -1    0    0    0  501 -0.00000000000E+00 -0.00000000000E+00 -0.13222149859E+03  0.13222149859E+03  0.00000000000E+00 0.  1.
         25    1    1    2    0    0  0.53255554444E+02 -0.20626619949E+02  0.99481261872E+02  0.16600642455E+03  0.12000000000E+03 0.  0.
         25    1    1    2    0    0 -0.53255554444E+02  0.20626619949E+02 -0.54340372450E+02  0.14357746205E+03  0.12000000000E+03 0.  0.
<mgrwt>
<rscale>  0 0.30627518E+03</rscale>
<asrwt>0</asrwt>
<pdfrwt beam="1">  1        4 0.27286521E-01 0.30627518E+03</pdfrwt>
<pdfrwt beam="2">  1       -4 0.20341769E-01 0.30627518E+03</pdfrwt>
<totfact> 0.52868477E+02</totfact>
</mgrwt>
</event>
<event>
 4    1  0.1672993E-004  0.3690355E+03  0.7818608E-02  0.1055062E+00
         -1   -1    0    0    0  501 -0.00000000000E+00  0.00000000000E+00  0.32466884355E+02  0.32466884355E+02  0.00000000000E+00 0. -1.
          1   -1    0    0  501    0  0.00000000000E+00 -0.00000000000E+00 -0.10486625877E+04  0.10486625877E+04  0.00000000000E+00 0. -1.
         25    1    1    2    0    0 -0.44984364164E+02  0.79953692331E+02 -0.19763374139E+03  0.24874742546E+03  0.12000000000E+03 0.  0.
         25    1    1    2    0    0  0.44984364164E+02 -0.79953692331E+02 -0.81856196196E+03  0.83238204660E+03  0.12000000000E+03 0.  0.
<mgrwt>
<rscale>  0 0.36903554E+03</rscale>
<asrwt>0</asrwt>
<pdfrwt beam="1">  1        1 0.16133273E+00 0.36903554E+03</pdfrwt>
<pdfrwt beam="2">  1       -1 0.49949047E-02 0.36903554E+03</pdfrwt>
<totfact> 0.25983130E+03</totfact>
</mgrwt>
</event>
<event>
 4    1  0.1672993E-004  0.3209785E+03  0.7818608E-02  0.1075200E+00
          1   -1    0    0  501    0  0.00000000000E+00  0.00000000000E+00  0.14885027890E+03  0.14885027890E+03  0.00000000000E+00 0.  1.
         -1   -1    0    0    0  501 -0.00000000000E+00 -0.00000000000E+00 -0.17303831327E+03  0.17303831327E+03  0.00000000000E+00 0.  1.
         25    1    1    2    0    0 -0.85193540900E+02 -0.29085360554E+02  0.45101925485E+02  0.15664635742E+03  0.12000000000E+03 0.  0.
         25    1    1    2    0    0  0.85193540900E+02  0.29085360554E+02 -0.69289959852E+02  0.16524223475E+03  0.12000000000E+03 0.  0.
<mgrwt>
<rscale>  0 0.32097851E+03</rscale>
<asrwt>0</asrwt>
<pdfrwt beam="1">  1        1 0.22900043E-01 0.32097851E+03</pdfrwt>
<pdfrwt beam="2">  1       -1 0.26621279E-01 0.32097851E+03</pdfrwt>
<totfact> 0.26859485E+03</totfact>
</mgrwt>
</event>
<event>
 4    1  0.1672993E-004  0.4320770E+03  0.7818608E-02  0.1033206E+00
          2   -1    0    0  501    0  0.00000000000E+00  0.00000000000E+00  0.11403321783E+04  0.11403321783E+04  0.00000000000E+00 0. -1.
         -2   -1    0    0    0  501 -0.00000000000E+00 -0.00000000000E+00 -0.40928987442E+02  0.40928987442E+02  0.00000000000E+00 0. -1.
         25    1    1    2    0    0 -0.14918975275E+03 -0.34157487058E+02  0.80686861854E+03  0.82997667668E+03  0.12000000000E+03 0.  0.
         25    1    1    2    0    0  0.14918975275E+03  0.34157487058E+02  0.29253457228E+03  0.35128448902E+03  0.12000000000E+03 0.  0.
<mgrwt>
<rscale>  0 0.43207704E+03</rscale>
<asrwt>0</asrwt>
<pdfrwt beam="1">  1        2 0.17543570E+00 0.43207704E+03</pdfrwt>
<pdfrwt beam="2">  1       -2 0.62967682E-02 0.43207704E+03</pdfrwt>
<totfact> 0.29782275E+03</totfact>
</mgrwt>
</event>
<event>
 4    1  0.1672993E-004  0.2765807E+03  0.7818608E-02  0.1097571E+00
         -1   -1    0    0    0  501 -0.00000000000E+00  0.00000000000E+00  0.12891095997E+03  0.12891095997E+03  0.00000000000E+00 0.  1.
          1   -1    0    0  501    0  0.00000000000E+00 -0.00000000000E+00 -0.14835218170E+03  0.14835218170E+03  0.00000000000E+00 0.  1.
         25    1    1    2    0    0  0.37726818275E+02 -0.57452060002E+02 -0.93071124160E+01  0.13860257702E+03  0.12000000000E+03 0.  0.
         25    1    1    2    0    0 -0.37726818275E+02  0.57452060002E+02 -0.10134109311E+02  0.13866056464E+03  0.12000000000E+03 0.  0.
<mgrwt>
<rscale>  0 0.27658071E+03</rscale>
<asrwt>0</asrwt>
<pdfrwt beam="1">  1        1 0.22823412E-01 0.27658071E+03</pdfrwt>
<pdfrwt beam="2">  1       -1 0.19832455E-01 0.27658071E+03</pdfrwt>
<totfact> 0.43721452E+03</totfact>
</mgrwt>
</event>
<event>
 4    1  0.1672993E-004  0.5288129E+03  0.7818608E-02  0.1006520E+00
         -2   -1    0    0    0  501 -0.00000000000E+00  0.00000000000E+00  0.80705549578E+02  0.80705549578E+02  0.00000000000E+00 0. -1.
          2   -1    0    0  501    0  0.00000000000E+00 -0.00000000000E+00 -0.86624476594E+03  0.86624476594E+03  0.00000000000E+00 0. -1.
         25    1    1    2    0    0 -0.69378654601E+02  0.21863327873E+03 -0.29638929984E+03  0.39352322085E+03  0.12000000000E+03 0.  0.
         25    1    1    2    0    0  0.69378654601E+02 -0.21863327873E+03 -0.48914991653E+03  0.55342709468E+03  0.12000000000E+03 0.  0.
<mgrwt>
<rscale>  0 0.52881286E+03</rscale>
<asrwt>0</asrwt>
<pdfrwt beam="1">  1        2 0.13326843E+00 0.52881286E+03</pdfrwt>
<pdfrwt beam="2">  1       -2 0.12416238E-01 0.52881286E+03</pdfrwt>
<totfact> 0.14943753E+03</totfact>
</mgrwt>
</event>
<event>
 4    1  0.1672993E-004  0.2516743E+03  0.7818608E-02  0.1112251E+00
         -1   -1    0    0    0  501 -0.00000000000E+00  0.00000000000E+00  0.97687216761E+01  0.97687216761E+01  0.00000000000E+00 0. -1.
          1   -1    0    0  501    0  0.00000000000E+00 -0.00000000000E+00 -0.16209881828E+04  0.16209881828E+04  0.00000000000E+00 0. -1.
         25    1    1    2    0    0  0.32951780815E+01 -0.14211595085E+02 -0.57908608601E+03  0.59156869647E+03  0.12000000000E+03 0.  0.
         25    1    1    2    0    0 -0.32951780815E+01  0.14211595085E+02 -0.10321333751E+04  0.10391882080E+04  0.12000000000E+03 0.  0.
<mgrwt>
<rscale>  0 0.25167425E+03</rscale>
<asrwt>0</asrwt>
<pdfrwt beam="1">  1        1 0.24938267E+00 0.25167425E+03</pdfrwt>
<pdfrwt beam="2">  1       -1 0.15028810E-02 0.25167425E+03</pdfrwt>
<totfact> 0.61895857E+03</totfact>
</mgrwt>
</event>
<event>
 4    1  0.1672993E-004  0.2807924E+03  0.7818608E-02  0.1095257E+00
         -2   -1    0    0    0  501 -0.00000000000E+00  0.00000000000E+00  0.27111668507E+02  0.27111668507E+02  0.00000000000E+00 0. -1.
          2   -1    0    0  501    0  0.00000000000E+00 -0.00000000000E+00 -0.72703356497E+03  0.72703356497E+03  0.00000000000E+00 0. -1.
         25    1    1    2    0    0  0.43862211627E+02 -0.40295175497E+02 -0.23717443903E+03  0.27239550162E+03  0.12000000000E+03 0.  0.
         25    1    1    2    0    0 -0.43862211627E+02  0.40295175497E+02 -0.46274745743E+03  0.48174973185E+03  0.12000000000E+03 0.  0.
<mgrwt>
<rscale>  0 0.28079240E+03</rscale>
<asrwt>0</asrwt>
<pdfrwt beam="1">  1        2 0.11185131E+00 0.28079240E+03</pdfrwt>
<pdfrwt beam="2">  1       -2 0.41710261E-02 0.28079240E+03</pdfrwt>
<totfact> 0.10296812E+04</totfact>
</mgrwt>
</event>
<event>
 4    1  0.1672993E-004  0.3010038E+03  0.7818608E-02  0.1084740E+00
          2   -1    0    0  501    0  0.00000000000E+00  0.00000000000E+00  0.34340206744E+03  0.34340206744E+03  0.00000000000E+00 0.  1.
         -2   -1    0    0    0  501 -0.00000000000E+00 -0.00000000000E+00 -0.65960068237E+02  0.65960068237E+02  0.00000000000E+00 0.  1.
         25    1    1    2    0    0  0.41212960925E+02 -0.75742769926E+02  0.17755456803E+03  0.23100021639E+03  0.12000000000E+03 0.  0.
         25    1    1    2    0    0 -0.41212960925E+02  0.75742769926E+02  0.99887431164E+02  0.17836191928E+03  0.12000000000E+03 0.  0.
<mgrwt>
<rscale>  0 0.30100381E+03</rscale>
<asrwt>0</asrwt>
<pdfrwt beam="1">  1        2 0.52831086E-01 0.30100381E+03</pdfrwt>
<pdfrwt beam="2">  1       -2 0.10147703E-01 0.30100381E+03</pdfrwt>
<totfact> 0.61016118E+03</totfact>
</mgrwt>
</event>
<event>
 4    1  0.1672993E-004  0.2619186E+03  0.7818608E-02  0.1105996E+00
          1   -1    0    0  501    0  0.00000000000E+00  0.00000000000E+00  0.87613697777E+02  0.87613697777E+02  0.00000000000E+00 0.  1.
         -1   -1    0    0    0  501 -0.00000000000E+00 -0.00000000000E+00 -0.19574957315E+03  0.19574957315E+03  0.00000000000E+00 0.  1.
         25    1    1    2    0    0  0.62641168964E+01 -0.49331867431E+02 -0.36046624154E+02  0.13480441913E+03  0.12000000000E+03 0.  0.
         25    1    1    2    0    0 -0.62641168964E+01  0.49331867431E+02 -0.72089251214E+02  0.14855885179E+03  0.12000000000E+03 0.  0.
<mgrwt>
<rscale>  0 0.26191864E+03</rscale>
<asrwt>0</asrwt>
<pdfrwt beam="1">  1        1 0.13479031E-01 0.26191864E+03</pdfrwt>
<pdfrwt beam="2">  1       -1 0.30115319E-01 0.26191864E+03</pdfrwt>
<totfact> 0.43241087E+03</totfact>
</mgrwt>
</event>
<event>
 4    1  0.1672993E-004  0.3057369E+03  0.7818608E-02  0.1082407E+00
         -4   -1    0    0    0  501 -0.00000000000E+00  0.00000000000E+00  0.83059833198E+03  0.83059833198E+03  0.00000000000E+00 0. -1.
          4   -1    0    0  501    0  0.00000000000E+00 -0.00000000000E+00 -0.28134850378E+02  0.28134850378E+02  0.00000000000E+00 0. -1.
         25    1    1    2    0    0 -0.46536211514E+02  0.67990706253E+02  0.27007851729E+03  0.30680736729E+03  0.12000000000E+03 0.  0.
         25    1    1    2    0    0  0.46536211514E+02 -0.67990706253E+02  0.53238496431E+03  0.55192581507E+03  0.12000000000E+03 0.  0.
<mgrwt>
<rscale>  0 0.30573688E+03</rscale>
<asrwt>0</asrwt>
<pdfrwt beam="1">  1        4 0.43284392E-02 0.30573688E+03</pdfrwt>
<pdfrwt beam="2">  1       -4 0.12778434E+00 0.30573688E+03</pdfrwt>
<totfact> 0.27024659E+02</totfact>
</mgrwt>
</event>
<event>
 4    1  0.1672993E-004  0.3069557E+03  0.7818608E-02  0.1081814E+00
          2   -1    0    0  501    0  0.00000000000E+00  0.00000000000E+00  0.23090650181E+03  0.23090650181E+03  0.00000000000E+00 0.  1.
         -2   -1    0    0    0  501 -0.00000000000E+00 -0.00000000000E+00 -0.10201296665E+03  0.10201296665E+03  0.00000000000E+00 0.  1.
         25    1    1    2    0    0  0.57077063954E+02 -0.68930873402E+02  0.10116601468E+03  0.18067600578E+03  0.12000000000E+03 0.  0.
         25    1    1    2    0    0 -0.57077063954E+02  0.68930873402E+02  0.27727520486E+02  0.15224346268E+03  0.12000000000E+03 0.  0.
<mgrwt>
<rscale>  0 0.30695574E+03</rscale>
<asrwt>0</asrwt>
<pdfrwt beam="1">  1        2 0.35524077E-01 0.30695574E+03</pdfrwt>
<pdfrwt beam="2">  1       -2 0.15694303E-01 0.30695574E+03</pdfrwt>
<totfact> 0.46115640E+03</totfact>
</mgrwt>
</event>
<event>
 4    1  0.1672993E-004  0.3490370E+03  0.7818608E-02  0.1063011E+00
          3   -1    0    0  501    0  0.00000000000E+00  0.00000000000E+00  0.14063570329E+03  0.14063570329E+03  0.00000000000E+00 0.  1.
         -3   -1    0    0    0  501 -0.00000000000E+00 -0.00000000000E+00 -0.21656449506E+03  0.21656449506E+03  0.00000000000E+00 0.  1.
         25    1    1    2    0    0 -0.23775784274E+02 -0.91004707391E+02  0.48930549333E+02  0.16012914583E+03  0.12000000000E+03 0.  0.
         25    1    1    2    0    0  0.23775784274E+02  0.91004707391E+02 -0.12485934110E+03  0.19707105253E+03  0.12000000000E+03 0.  0.
<mgrwt>
<rscale>  0 0.34903696E+03</rscale>
<asrwt>0</asrwt>
<pdfrwt beam="1">  1        3 0.21636262E-01 0.34903696E+03</pdfrwt>
<pdfrwt beam="2">  1       -3 0.33317614E-01 0.34903696E+03</pdfrwt>
<totfact> 0.44547771E+02</totfact>
</mgrwt>
</event>
<event>
 4    1  0.1672993E-004  0.2483545E+03  0.7818608E-02  0.1114349E+00
         -2   -1    0    0    0  501 -0.00000000000E+00  0.00000000000E+00  0.11539123230E+02  0.11539123230E+02  0.00000000000E+00 0. -1.
          2   -1    0    0  501    0  0.00000000000E+00 -0.00000000000E+00 -0.13363227971E+04  0.13363227971E+04  0.00000000000E+00 0. -1.
         25    1    1    2    0    0 -0.30855453543E+02  0.62228993483E+01 -0.69172363344E+03  0.70276053429E+03  0.12000000000E+03 0.  0.
         25    1    1    2    0    0  0.30855453543E+02 -0.62228993483E+01 -0.63306004047E+03  0.64510138608E+03  0.12000000000E+03 0.  0.
<mgrwt>
<rscale>  0 0.24835453E+03</rscale>
<asrwt>0</asrwt>
<pdfrwt beam="1">  1        2 0.20558812E+00 0.24835453E+03</pdfrwt>
<pdfrwt beam="2">  1       -2 0.17752497E-02 0.24835453E+03</pdfrwt>
<totfact> 0.15362735E+04</totfact>
</mgrwt>
</event>
<event>
 4    1  0.1672993E-004  0.3135482E+03  0.7818608E-02  0.1078657E+00
          2   -1    0    0  501    0  0.00000000000E+00  0.00000000000E+00  0.78865570330E+02  0.78865570330E+02  0.00000000000E+00 0.  1.
         -2   -1    0    0    0  501 -0.00000000000E+00 -0.00000000000E+00 -0.31164578441E+03  0.31164578441E+03  0.00000000000E+00 0.  1.
         25    1    1    2    0    0  0.22744413326E+01 -0.99478894065E+02 -0.13711489400E+03  0.20760953158E+03  0.12000000000E+03 0.  0.
         25    1    1    2    0    0 -0.22744413326E+01  0.99478894065E+02 -0.95665320080E+02  0.18290182316E+03  0.12000000000E+03 0.  0.
<mgrwt>
<rscale>  0 0.31354823E+03</rscale>
<asrwt>0</asrwt>
<pdfrwt beam="1">  1        2 0.12133165E-01 0.31354823E+03</pdfrwt>
<pdfrwt beam="2">  1       -2 0.47945505E-01 0.31354823E+03</pdfrwt>
<totfact> 0.21098654E+03</totfact>
</mgrwt>
</event>
<event>
 4    1  0.1672993E-004  0.3697257E+03  0.7818608E-02  0.1054798E+00
          2   -1    0    0  501    0  0.00000000000E+00  0.00000000000E+00  0.65300422123E+03  0.65300422123E+03  0.00000000000E+00 0. -1.
         -2   -1    0    0    0  501 -0.00000000000E+00 -0.00000000000E+00 -0.52333928483E+02  0.52333928483E+02  0.00000000000E+00 0. -1.
         25    1    1    2    0    0 -0.12783733629E+03 -0.13279581146E+02  0.19148487239E+03  0.25997151417E+03  0.12000000000E+03 0.  0.
         25    1    1    2    0    0  0.12783733629E+03  0.13279581146E+02  0.40918542035E+03  0.44536663554E+03  0.12000000000E+03 0.  0.
<mgrwt>
<rscale>  0 0.36972572E+03</rscale>
<asrwt>0</asrwt>
<pdfrwt beam="1">  1        2 0.10046218E+00 0.36972572E+03</pdfrwt>
<pdfrwt beam="2">  1       -2 0.80513741E-02 0.36972572E+03</pdfrwt>
<totfact> 0.42924508E+03</totfact>
</mgrwt>
</event>
<event>
 4    1  0.1672993E-004  0.2567245E+03  0.7818608E-02  0.1109127E+00
          2   -1    0    0  501    0  0.00000000000E+00  0.00000000000E+00  0.79549777273E+03  0.79549777273E+03  0.00000000000E+00 0. -1.
         -2   -1    0    0    0  501 -0.00000000000E+00 -0.00000000000E+00 -0.20712656321E+02  0.20712656321E+02  0.00000000000E+00 0. -1.
         25    1    1    2    0    0 -0.19168850325E+01  0.38885519127E+02  0.31208123408E+03  0.33661618308E+03  0.12000000000E+03 0.  0.
         25    1    1    2    0    0  0.19168850325E+01 -0.38885519127E+02  0.46270388233E+03  0.47959424597E+03  0.12000000000E+03 0.  0.
<mgrwt>
<rscale>  0 0.25672454E+03</rscale>
<asrwt>0</asrwt>
<pdfrwt beam="1">  1        2 0.12238425E+00 0.25672454E+03</pdfrwt>
<pdfrwt beam="2">  1       -2 0.31865631E-02 0.25672454E+03</pdfrwt>
<totfact> 0.13728345E+04</totfact>
</mgrwt>
</event>
<event>
 4    1  0.1672993E-004  0.2708841E+03  0.7818608E-02  0.1100775E+00
          2   -1    0    0  501    0  0.00000000000E+00  0.00000000000E+00  0.23654006347E+04  0.23654006347E+04  0.00000000000E+00 0.  1.
         -2   -1    0    0    0  501 -0.00000000000E+00 -0.00000000000E+00 -0.77553681258E+01  0.77553681258E+01  0.00000000000E+00 0.  1.
         25    1    1    2    0    0  0.43720333921E+02  0.33068827302E+02  0.91028828369E+03  0.91979876840E+03  0.12000000000E+03 0.  0.
         25    1    1    2    0    0 -0.43720333921E+02 -0.33068827302E+02  0.14473569829E+04  0.14533572344E+04  0.12000000000E+03 0.  0.
<mgrwt>
<rscale>  0 0.27088413E+03</rscale>
<asrwt>0</asrwt>
<pdfrwt beam="1">  1        2 0.36390722E+00 0.27088413E+03</pdfrwt>
<pdfrwt beam="2">  1       -2 0.11931354E-02 0.27088413E+03</pdfrwt>
<totfact> 0.78262452E+03</totfact>
</mgrwt>
</event>
<event>
 4    1  0.1672993E-004  0.3841274E+03  0.7818608E-02  0.1049419E+00
          4   -1    0    0  501    0  0.00000000000E+00  0.00000000000E+00  0.49794112745E+02  0.49794112745E+02  0.00000000000E+00 0. -1.
         -4   -1    0    0    0  501 -0.00000000000E+00 -0.00000000000E+00 -0.74081996965E+03  0.74081996965E+03  0.00000000000E+00 0. -1.
         25    1    1    2    0    0 -0.73691855766E+02  0.13044784210E+03 -0.35874705679E+03  0.40687415729E+03  0.12000000000E+03 0.  0.
         25    1    1    2    0    0  0.73691855766E+02 -0.13044784210E+03 -0.33227880012E+03  0.38373992511E+03  0.12000000000E+03 0.  0.
<mgrwt>
<rscale>  0 0.38412744E+03</rscale>
<asrwt>0</asrwt>
<pdfrwt beam="1">  1        4 0.76606327E-02 0.38412744E+03</pdfrwt>
<pdfrwt beam="2">  1       -4 0.11397230E+00 0.38412744E+03</pdfrwt>
<totfact> 0.14325667E+02</totfact>
</mgrwt>
</event>
<event>
 4    1  0.1672993E-004  0.3093175E+03  0.7818608E-02  0.1080673E+00
          2   -1    0    0  501    0  0.00000000000E+00  0.00000000000E+00  0.24215435125E+02  0.24215435125E+02  0.00000000000E+00 0. -1.
         -2   -1    0    0    0  501 -0.00000000000E+00 -0.00000000000E+00 -0.98777220260E+03  0.98777220260E+03  0.00000000000E+00 0. -1.
         25    1    1    2    0    0 -0.86613496409E+02  0.35199336416E+02 -0.57306013909E+03  0.59290708721E+03  0.12000000000E+03 0.  0.
         25    1    1    2    0    0  0.86613496409E+02 -0.35199336416E+02 -0.39049662838E+03  0.41908055051E+03  0.12000000000E+03 0.  0.
<mgrwt>
<rscale>  0 0.30931753E+03</rscale>
<asrwt>0</asrwt>
<pdfrwt beam="1">  1        2 0.37254528E-02 0.30931753E+03</pdfrwt>
<pdfrwt beam="2">  1       -2 0.15196490E+00 0.30931753E+03</pdfrwt>
<totfact> 0.71754225E+02</totfact>
</mgrwt>
</event>
<event>
 4    1  0.1672993E-004  0.5058699E+03  0.7818608E-02  0.1012258E+00
         -2   -1    0    0    0  501 -0.00000000000E+00  0.00000000000E+00  0.17272200270E+03  0.17272200270E+03  0.00000000000E+00 0.  1.
          2   -1    0    0  501    0  0.00000000000E+00 -0.00000000000E+00 -0.37039919168E+03  0.37039919168E+03  0.00000000000E+00 0.  1.
         25    1    1    2    0    0 -0.12603857207E+03 -0.95962224415E+02 -0.26682648786E+03  0.33270233661E+03  0.12000000000E+03 0.  0.
         25    1    1    2    0    0  0.12603857207E+03  0.95962224415E+02  0.69149298884E+02  0.21041885776E+03  0.12000000000E+03 0.  0.
<mgrwt>
<rscale>  0 0.50586990E+03</rscale>
<asrwt>0</asrwt>
<pdfrwt beam="1">  1        2 0.56984490E-01 0.50586990E+03</pdfrwt>
<pdfrwt beam="2">  1       -2 0.26572616E-01 0.50586990E+03</pdfrwt>
<totfact> 0.11131490E+03</totfact>
</mgrwt>
</event>
<event>
 4    1  0.1672993E-004  0.4404850E+03  0.7818608E-02  0.1030598E+00
         -2   -1    0    0    0  501 -0.00000000000E+00  0.00000000000E+00  0.67291338693E+02  0.67291338693E+02  0.00000000000E+00 0. -1.
          2   -1    0    0  501    0  0.00000000000E+00 -0.00000000000E+00 -0.72084714111E+03  0.72084714111E+03  0.00000000000E+00 0. -1.
         25    1    1    2    0    0  0.12773496173E+03  0.29589690858E+02 -0.94072025908E+02  0.20110026433E+03  0.12000000000E+03 0.  0.
         25    1    1    2    0    0 -0.12773496173E+03 -0.29589690858E+02 -0.55948377651E+03  0.58703821548E+03  0.12000000000E+03 0.  0.
<mgrwt>
<rscale>  0 0.44048505E+03</rscale>
<asrwt>0</asrwt>
<pdfrwt beam="1">  1        2 0.11089956E+00 0.44048505E+03</pdfrwt>
<pdfrwt beam="2">  1       -2 0.10352514E-01 0.44048505E+03</pdfrwt>
<totfact> 0.25518809E+03</totfact>
</mgrwt>
</event>
<event>
 4    1  0.1672993E-004  0.4798095E+03  0.7818608E-02  0.1019188E+00
         -1   -1    0    0    0  501 -0.00000000000E+00  0.00000000000E+00  0.28914984175E+02  0.28914984175E+02  0.00000000000E+00 0.  1.
          1   -1    0    0  501    0  0.00000000000E+00 -0.00000000000E+00 -0.19904655811E+04  0.19904655811E+04  0.00000000000E+00 0.  1.
         25    1    1    2    0    0 -0.14995857021E+03  0.12389527212E+03 -0.67389486783E+03  0.71159813386E+03  0.12000000000E+03 0.  0.
         25    1    1    2    0    0  0.14995857021E+03 -0.12389527212E+03 -0.12876557291E+04  0.13077824315E+04  0.12000000000E+03 0.  0.
<mgrwt>
<rscale>  0 0.47980947E+03</rscale>
<asrwt>0</asrwt>
<pdfrwt beam="1">  1        1 0.30622542E+00 0.47980947E+03</pdfrwt>
<pdfrwt beam="2">  1       -1 0.44484599E-02 0.47980947E+03</pdfrwt>
<totfact> 0.70361108E+02</totfact>
</mgrwt>
</event>
<event>
 4    1  0.1672993E-004  0.2914928E+03  0.7818608E-02  0.1089572E+00
         -1   -1    0    0    0  501 -0.00000000000E+00  0.00000000000E+00  0.13683408312E+02  0.13683408312E+02  0.00000000000E+00 0. -1.
          1   -1    0    0  501    0  0.00000000000E+00 -0.00000000000E+00 -0.15523917902E+04  0.15523917902E+04  0.00000000000E+00 0. -1.
         25    1    1    2    0    0 -0.42093071935E+01 -0.74653778130E+02 -0.95938842080E+03  0.96975102311E+03  0.12000000000E+03 0.  0.
         25    1    1    2    0    0  0.42093071935E+01  0.74653778130E+02 -0.57931996112E+03  0.59632417543E+03  0.12000000000E+03 0.  0.
<mgrwt>
<rscale>  0 0.29149278E+03</rscale>
<asrwt>0</asrwt>
<pdfrwt beam="1">  1        1 0.23882940E+00 0.29149278E+03</pdfrwt>
<pdfrwt beam="2">  1       -1 0.21051407E-02 0.29149278E+03</pdfrwt>
<totfact> 0.42046452E+03</totfact>
</mgrwt>
</event>
<event>
 4    1  0.1672993E-004  0.2595962E+03  0.7818608E-02  0.1107386E+00
         -1   -1    0    0    0  501 -0.00000000000E+00  0.00000000000E+00  0.20468075967E+02  0.20468075967E+02  0.00000000000E+00 0. -1.
          1   -1    0    0  501    0  0.00000000000E+00 -0.00000000000E+00 -0.82311320690E+03  0.82311320690E+03  0.00000000000E+00 0. -1.
         25    1    1    2    0    0 -0.12486947945E+02  0.42225431986E+02 -0.47461021136E+03  0.49152188527E+03  0.12000000000E+03 0.  0.
         25    1    1    2    0    0  0.12486947945E+02 -0.42225431986E+02 -0.32803491957E+03  0.35205939759E+03  0.12000000000E+03 0.  0.
<mgrwt>
<rscale>  0 0.25959618E+03</rscale>
<asrwt>0</asrwt>
<pdfrwt beam="1">  1        1 0.12663282E+00 0.25959618E+03</pdfrwt>
<pdfrwt beam="2">  1       -1 0.31489342E-02 0.25959618E+03</pdfrwt>
<totfact> 0.77059582E+03</totfact>
</mgrwt>
</event>
<event>
 4    1  0.1672993E-004  0.2906316E+03  0.7818608E-02  0.1090020E+00
          3   -1    0    0  501    0  0.00000000000E+00  0.00000000000E+00  0.16532045714E+03  0.16532045714E+03  0.00000000000E+00 0.  1.
         -3   -1    0    0    0  501 -0.00000000000E+00 -0.00000000000E+00 -0.12773179832E+03  0.12773179832E+03  0.00000000000E+00 0.  1.
         25    1    1    2    0    0  0.75418483639E+02 -0.28088177163E+02  0.34408326671E+02  0.14852887367E+03  0.12000000000E+03 0.  0.
         25    1    1    2    0    0 -0.75418483639E+02  0.28088177163E+02  0.31803321495E+01  0.14452338179E+03  0.12000000000E+03 0.  0.
<mgrwt>
<rscale>  0 0.29063158E+03</rscale>
<asrwt>0</asrwt>
<pdfrwt beam="1">  1        3 0.25433917E-01 0.29063158E+03</pdfrwt>
<pdfrwt beam="2">  1       -3 0.19651046E-01 0.29063158E+03</pdfrwt>
<totfact> 0.86186047E+02</totfact>
</mgrwt>
</event>
<event>
 4    1  0.1672993E-004  0.2472800E+03  0.7818608E-02  0.1115036E+00
         -1   -1    0    0    0  501 -0.00000000000E+00  0.00000000000E+00  0.14486225194E+03  0.14486225194E+03  0.00000000000E+00 0.  1.
          1   -1    0    0  501    0  0.00000000000E+00 -0.00000000000E+00 -0.10552681381E+03  0.10552681381E+03  0.00000000000E+00 0.  1.
         25    1    1    2    0    0  0.10583011273E+02  0.22827786435E+02  0.35380980279E+01  0.12266061348E+03  0.12000000000E+03 0.  0.
         25    1    1    2    0    0 -0.10583011273E+02 -0.22827786435E+02  0.35797340104E+02  0.12772845227E+03  0.12000000000E+03 0.  0.
<mgrwt>
<rscale>  0 0.24728002E+03</rscale>
<asrwt>0</asrwt>
<pdfrwt beam="1">  1        1 0.16234894E-01 0.24728002E+03</pdfrwt>
<pdfrwt beam="2">  1       -1 0.22286500E-01 0.24728002E+03</pdfrwt>
<totfact> 0.55876357E+03</totfact>
</mgrwt>
</event>
<event>
 4    1  0.1672993E-004  0.5392433E+03  0.7818608E-02  0.1004015E+00
         -3   -1    0    0    0  501 -0.00000000000E+00  0.00000000000E+00  0.17890059911E+03  0.17890059911E+03  0.00000000000E+00 0.  1.
          3   -1    0    0  501    0  0.00000000000E+00 -0.00000000000E+00 -0.40634758533E+03  0.40634758533E+03  0.00000000000E+00 0.  1.
         25    1    1    2    0    0 -0.24068676347E+03 -0.18975657321E+02 -0.11114766564E+03  0.29162303965E+03  0.12000000000E+03 0.  0.
         25    1    1    2    0    0  0.24068676347E+03  0.18975657321E+02 -0.11629932059E+03  0.29362514479E+03  0.12000000000E+03 0.  0.
<mgrwt>
<rscale>  0 0.53924327E+03</rscale>
<asrwt>0</asrwt>
<pdfrwt beam="1">  1        3 0.62515013E-01 0.53924327E+03</pdfrwt>
<pdfrwt beam="2">  1       -3 0.27523169E-01 0.53924327E+03</pdfrwt>
<totfact> 0.83114505E+01</totfact>
</mgrwt>
</event>
<event>
 4    1  0.1672993E-004  0.2515551E+03  0.7818608E-02  0.1112326E+00
         -4   -1    0    0    0  501 -0.00000000000E+00  0.00000000000E+00  0.11233285837E+04  0.11233285837E+04  0.00000000000E+00 0.  1.
          4   -1    0    0  501    0  0.00000000000E+00 -0.00000000000E+00 -0.14083135313E+02  0.14083135313E+02  0.00000000000E+00 0.  1.
         25    1    1    2    0    0  0.12266656644E+02 -0.61324098553E+01  0.39592367990E+03  0.41393675558E+03  0.12000000000E+03 0.  0.
         25    1    1    2    0    0 -0.12266656644E+02  0.61324098553E+01  0.71332176851E+03  0.72347496345E+03  0.12000000000E+03 0.  0.
<mgrwt>
<rscale>  0 0.25155507E+03</rscale>
<asrwt>0</asrwt>
<pdfrwt beam="1">  1        4 0.21666371E-02 0.25155507E+03</pdfrwt>
<pdfrwt beam="2">  1       -4 0.17281971E+00 0.25155507E+03</pdfrwt>
<totfact> 0.36132174E+02</totfact>
</mgrwt>
</event>
<event>
 4    1  0.1672993E-004  0.2896091E+03  0.7818608E-02  0.1090553E+00
          1   -1    0    0  501    0  0.00000000000E+00  0.00000000000E+00  0.37861566611E+02  0.37861566611E+02  0.00000000000E+00 0. -1.
         -1   -1    0    0    0  501 -0.00000000000E+00 -0.00000000000E+00 -0.55381650170E+03  0.55381650170E+03  0.00000000000E+00 0. -1.
         25    1    1    2    0    0  0.74210432167E+02  0.16848284192E+02 -0.31493742473E+03  0.34550923927E+03  0.12000000000E+03 0.  0.
         25    1    1    2    0    0 -0.74210432167E+02 -0.16848284192E+02 -0.20101751036E+03  0.24616882904E+03  0.12000000000E+03 0.  0.
<mgrwt>
<rscale>  0 0.28960912E+03</rscale>
<asrwt>0</asrwt>
<pdfrwt beam="1">  1        1 0.58248567E-02 0.28960912E+03</pdfrwt>
<pdfrwt beam="2">  1       -1 0.85202535E-01 0.28960912E+03</pdfrwt>
<totfact> 0.19235644E+03</totfact>
</mgrwt>
</event>
<event>
 4    1  0.1672993E-004  0.3295885E+03  0.7818608E-02  0.1071319E+00
         -2   -1    0    0    0  501 -0.00000000000E+00  0.00000000000E+00  0.46303098397E+02  0.46303098397E+02  0.00000000000E+00 0. -1.
          2   -1    0    0  501    0  0.00000000000E+00 -0.00000000000E+00 -0.58650825373E+03  0.58650825373E+03  0.00000000000E+00 0. -1.
         25    1    1    2    0    0  0.75523391388E+02  0.72449015621E+02 -0.18854178361E+03  0.24678056382E+03  0.12000000000E+03 0.  0.
         25    1    1    2    0    0 -0.75523391388E+02 -0.72449015621E+02 -0.35166337172E+03  0.38603078831E+03  0.12000000000E+03 0.  0.
<mgrwt>
<rscale>  0 0.32958853E+03</rscale>
<asrwt>0</asrwt>
<pdfrwt beam="1">  1        2 0.90232034E-01 0.32958853E+03</pdfrwt>
<pdfrwt beam="2">  1       -2 0.71235540E-02 0.32958853E+03</pdfrwt>
<totfact> 0.58906367E+03</totfact>
</mgrwt>
</event>
<event>
 4    1  0.1672993E-004  0.3014403E+03  0.7818608E-02  0.1084523E+00
          2   -1    0    0  501    0  0.00000000000E+00  0.00000000000E+00  0.12737142259E+04  0.12737142259E+04  0.00000000000E+00 0.  1.
         -2   -1    0    0    0  501 -0.00000000000E+00 -0.00000000000E+00 -0.17834895997E+02  0.17834895997E+02  0.00000000000E+00 0.  1.
         25    1    1    2    0    0  0.36485807951E+02 -0.76741526676E+02  0.76979043270E+03  0.78370771744E+03  0.12000000000E+03 0.  0.
         25    1    1    2    0    0 -0.36485807951E+02  0.76741526676E+02  0.48608889725E+03  0.50784140451E+03  0.12000000000E+03 0.  0.
<mgrwt>
<rscale>  0 0.30144028E+03</rscale>
<asrwt>0</asrwt>
<pdfrwt beam="1">  1        2 0.19595596E+00 0.30144028E+03</pdfrwt>
<pdfrwt beam="2">  1       -2 0.27438312E-02 0.30144028E+03</pdfrwt>
<totfact> 0.87971433E+03</totfact>
</mgrwt>
</event>
<event>
 4    1  0.1672993E-004  0.3700744E+03  0.7818608E-02  0.1054665E+00
         -1   -1    0    0    0  501 -0.00000000000E+00  0.00000000000E+00  0.76678403912E+02  0.76678403912E+02  0.00000000000E+00 0. -1.
          1   -1    0    0  501    0  0.00000000000E+00 -0.00000000000E+00 -0.44652432726E+03  0.44652432726E+03  0.00000000000E+00 0. -1.
         25    1    1    2    0    0 -0.10871838010E+03  0.17416584545E+02 -0.60737727229E+02  0.17381626822E+03  0.12000000000E+03 0.  0.
         25    1    1    2    0    0  0.10871838010E+03 -0.17416584545E+02 -0.30910819612E+03  0.34938646295E+03  0.12000000000E+03 0.  0.
<mgrwt>
<rscale>  0 0.37007444E+03</rscale>
<asrwt>0</asrwt>
<pdfrwt beam="1">  1        1 0.68696050E-01 0.37007444E+03</pdfrwt>
<pdfrwt beam="2">  1       -1 0.11796678E-01 0.37007444E+03</pdfrwt>
<totfact> 0.24789476E+03</totfact>
</mgrwt>
</event>
<event>
 4    1  0.1672993E-004  0.2775871E+03  0.7818608E-02  0.1097014E+00
         -1   -1    0    0    0  501 -0.00000000000E+00  0.00000000000E+00  0.25269980950E+02  0.25269980950E+02  0.00000000000E+00 0. -1.
          1   -1    0    0  501    0  0.00000000000E+00 -0.00000000000E+00 -0.76231341597E+03  0.76231341597E+03  0.00000000000E+00 0. -1.
         25    1    1    2    0    0 -0.13586022452E+02  0.67504382929E+02 -0.39988887545E+03  0.42314599659E+03  0.12000000000E+03 0.  0.
         25    1    1    2    0    0  0.13586022452E+02 -0.67504382929E+02 -0.33715455957E+03  0.36443740033E+03  0.12000000000E+03 0.  0.
<mgrwt>
<rscale>  0 0.27758707E+03</rscale>
<asrwt>0</asrwt>
<pdfrwt beam="1">  1        1 0.11727898E+00 0.27758707E+03</pdfrwt>
<pdfrwt beam="2">  1       -1 0.38876895E-02 0.27758707E+03</pdfrwt>
<totfact> 0.63557298E+03</totfact>
</mgrwt>
</event>
<event>
 4    1  0.1672993E-004  0.2855714E+03  0.7818608E-02  0.1092684E+00
         -1   -1    0    0    0  501 -0.00000000000E+00  0.00000000000E+00  0.48158891542E+03  0.48158891542E+03  0.00000000000E+00 0. -1.
          1   -1    0    0  501    0  0.00000000000E+00 -0.00000000000E+00 -0.42334359304E+02  0.42334359304E+02  0.00000000000E+00 0. -1.
         25    1    1    2    0    0  0.99785947530E+01  0.64864612410E+02  0.14441186755E+03  0.19890142731E+03  0.12000000000E+03 0.  0.
         25    1    1    2    0    0 -0.99785947530E+01 -0.64864612410E+02  0.29484268856E+03  0.32502184741E+03  0.12000000000E+03 0.  0.
<mgrwt>
<rscale>  0 0.28557141E+03</rscale>
<asrwt>0</asrwt>
<pdfrwt beam="1">  1        1 0.65129787E-02 0.28557141E+03</pdfrwt>
<pdfrwt beam="2">  1       -1 0.74090599E-01 0.28557141E+03</pdfrwt>
<totfact> 0.22027657E+03</totfact>
</mgrwt>
</event>
<event>
 4    1  0.1672993E-004  0.2602724E+03  0.7818608E-02  0.1106980E+00
          1   -1    0    0  501    0  0.00000000000E+00  0.00000000000E+00  0.80091875749E+03  0.80091875749E+03  0.00000000000E+00 0. -1.
         -1   -1    0    0    0  501 -0.00000000000E+00 -0.00000000000E+00 -0.21145000937E+02  0.21145000937E+02  0.00000000000E+00 0. -1.
         25    1    1    2    0    0 -0.37565164393E+02  0.33512669385E+02  0.39332844528E+03  0.41429639928E+03  0.12000000000E+03 0.  0.
         25    1    1    2    0    0  0.37565164393E+02 -0.33512669385E+02  0.38644531127E+03  0.40776735915E+03  0.12000000000E+03 0.  0.
<mgrwt>
<rscale>  0 0.26027238E+03</rscale>
<asrwt>0</asrwt>
<pdfrwt beam="1">  1        1 0.12321825E+00 0.26027238E+03</pdfrwt>
<pdfrwt beam="2">  1       -1 0.32530777E-02 0.26027238E+03</pdfrwt>
<totfact> 0.76624944E+03</totfact>
</mgrwt>
</event>
<event>
 4    1  0.1672993E-004  0.2555766E+03  0.7818608E-02  0.1109830E+00
         -2   -1    0    0    0  501 -0.00000000000E+00  0.00000000000E+00  0.84210067455E+01  0.84210067455E+01  0.00000000000E+00 0.  1.
          2   -1    0    0  501    0  0.00000000000E+00 -0.00000000000E+00 -0.19391802196E+04  0.19391802196E+04  0.00000000000E+00 0.  1.
         25    1    1    2    0    0  0.25192769747E+02 -0.35400148790E+02 -0.10147676513E+04  0.10227615715E+04  0.12000000000E+03 0.  0.
         25    1    1    2    0    0 -0.25192769747E+02  0.35400148790E+02 -0.91599156157E+03  0.92483965478E+03  0.12000000000E+03 0.  0.
<mgrwt>
<rscale>  0 0.25557660E+03</rscale>
<asrwt>0</asrwt>
<pdfrwt beam="1">  1        2 0.29833546E+00 0.25557660E+03</pdfrwt>
<pdfrwt beam="2">  1       -2 0.12955393E-02 0.25557660E+03</pdfrwt>
<totfact> 0.11672974E+04</totfact>
</mgrwt>
</event>
<event>
 4    1  0.1672993E-004  0.4259361E+03  0.7818608E-02  0.1035151E+00
         -2   -1    0    0    0  501 -0.00000000000E+00  0.00000000000E+00  0.67187585879E+02  0.67187585879E+02  0.00000000000E+00 0.  1.
          2   -1    0    0  501    0  0.00000000000E+00 -0.00000000000E+00 -0.67505606749E+03  0.67505606749E+03  0.00000000000E+00 0.  1.
         25    1    1    2    0    0 -0.67793399587E+02 -0.15648090563E+03 -0.37935493006E+03  0.43288841728E+03  0.12000000000E+03 0.  0.
         25    1    1    2    0    0  0.67793399587E+02  0.15648090563E+03 -0.22851355155E+03  0.30935523609E+03  0.12000000000E+03 0.  0.
<mgrwt>
<rscale>  0 0.42593609E+03</rscale>
<asrwt>0</asrwt>
<pdfrwt beam="1">  1        2 0.10385478E+00 0.42593609E+03</pdfrwt>
<pdfrwt beam="2">  1       -2 0.10336552E-01 0.42593609E+03</pdfrwt>
<totfact> 0.27737723E+03</totfact>
</mgrwt>
</event>
<event>
 4    1  0.1672993E-004  0.5615518E+03  0.7818608E-02  0.9988550E-01
         -3   -1    0    0    0  501 -0.00000000000E+00  0.00000000000E+00  0.52939089980E+02  0.52939089980E+02  0.00000000000E+00 0.  1.
          3   -1    0    0  501    0  0.00000000000E+00 -0.00000000000E+00 -0.14891661932E+04  0.14891661932E+04  0.00000000000E+00 0.  1.
         25    1    1    2    0    0 -0.54982112298E+02  0.22939563623E+03 -0.97557460662E+03  0.10108368828E+04  0.12000000000E+03 0.  0.
         25    1    1    2    0    0  0.54982112298E+02 -0.22939563623E+03 -0.46065249659E+03  0.53126840035E+03  0.12000000000E+03 0.  0.
<mgrwt>
<rscale>  0 0.56155179E+03</rscale>
<asrwt>0</asrwt>
<pdfrwt beam="1">  1        3 0.22910249E+00 0.56155179E+03</pdfrwt>
<pdfrwt beam="2">  1       -3 0.81444753E-02 0.56155179E+03</pdfrwt>
<totfact> 0.28508679E+01</totfact>
</mgrwt>
</event>
<event>
 4    1  0.1672993E-004  0.2893636E+03  0.7818608E-02  0.1090682E+00
         -2   -1    0    0    0  501 -0.00000000000E+00  0.00000000000E+00  0.32484500862E+02  0.32484500862E+02  0.00000000000E+00 0. -1.
          2   -1    0    0  501    0  0.00000000000E+00 -0.00000000000E+00 -0.64439426369E+03  0.64439426369E+03  0.00000000000E+00 0. -1.
         25    1    1    2    0    0 -0.59307076118E+02  0.47975508032E+02 -0.24345637446E+03  0.28193968311E+03  0.12000000000E+03 0.  0.
         25    1    1    2    0    0  0.59307076118E+02 -0.47975508032E+02 -0.36845338837E+03  0.39493908145E+03  0.12000000000E+03 0.  0.
<mgrwt>
<rscale>  0 0.28936362E+03</rscale>
<asrwt>0</asrwt>
<pdfrwt beam="1">  1        2 0.99137574E-01 0.28936362E+03</pdfrwt>
<pdfrwt beam="2">  1       -2 0.49976158E-02 0.28936362E+03</pdfrwt>
<totfact> 0.90668195E+03</totfact>
</mgrwt>
</event>
<event>
 4    1  0.1672993E-004  0.2800634E+03  0.7818608E-02  0.1095654E+00
         -1   -1    0    0    0  501 -0.00000000000E+00  0.00000000000E+00  0.76613424185E+02  0.76613424185E+02  0.00000000000E+00 0.  1.
          1   -1    0    0  501    0  0.00000000000E+00 -0.00000000000E+00 -0.25594565102E+03  0.25594565102E+03  0.00000000000E+00 0.  1.
         25    1    1    2    0    0  0.44645275002E+02  0.16961225634E+02 -0.15391967605E+03  0.20092822209E+03  0.12000000000E+03 0.  0.
         25    1    1    2    0    0 -0.44645275002E+02 -0.16961225634E+02 -0.25412550781E+02  0.13163085312E+03  0.12000000000E+03 0.  0.
<mgrwt>
<rscale>  0 0.28006337E+03</rscale>
<asrwt>0</asrwt>
<pdfrwt beam="1">  1        1 0.39376254E-01 0.28006337E+03</pdfrwt>
<pdfrwt beam="2">  1       -1 0.11786681E-01 0.28006337E+03</pdfrwt>
<totfact> 0.50218960E+03</totfact>
</mgrwt>
</event>
<event>
 4    1  0.1672993E-004  0.2564822E+03  0.7818608E-02  0.1109275E+00
          2   -1    0    0  501    0  0.00000000000E+00  0.00000000000E+00  0.12465711923E+04  0.12465711923E+04  0.00000000000E+00 0.  1.
         -2   -1    0    0    0  501 -0.00000000000E+00 -0.00000000000E+00 -0.13192810957E+02  0.13192810957E+02  0.00000000000E+00 0.  1.
         25    1    1    2    0    0  0.27120581514E+02  0.82922241138E+00  0.43894499056E+03  0.45586063472E+03  0.12000000000E+03 0.  0.
         25    1    1    2    0    0 -0.27120581514E+02 -0.82922241138E+00  0.79443339074E+03  0.80390336849E+03  0.12000000000E+03 0.  0.
<mgrwt>
<rscale>  0 0.25648219E+03</rscale>
<asrwt>0</asrwt>
<pdfrwt beam="1">  1        2 0.19178009E+00 0.25648219E+03</pdfrwt>
<pdfrwt beam="2">  1       -2 0.20296642E-02 0.25648219E+03</pdfrwt>
<totfact> 0.14167512E+04</totfact>
</mgrwt>
</event>
<event>
 4    1  0.1672993E-004  0.3422339E+03  0.7818608E-02  0.1065848E+00
         -2   -1    0    0    0  501 -0.00000000000E+00  0.00000000000E+00  0.19894929039E+02  0.19894929039E+02  0.00000000000E+00 0.  1.
          2   -1    0    0  501    0  0.00000000000E+00 -0.00000000000E+00 -0.14717822498E+04  0.14717822498E+04  0.00000000000E+00 0.  1.
         25    1    1    2    0    0  0.92040616521E+02  0.44466186276E+02 -0.43576478709E+03  0.46340011489E+03  0.12000000000E+03 0.  0.
         25    1    1    2    0    0 -0.92040616521E+02 -0.44466186276E+02 -0.10161225337E+04  0.10282770640E+04  0.12000000000E+03 0.  0.
<mgrwt>
<rscale>  0 0.34223386E+03</rscale>
<asrwt>0</asrwt>
<pdfrwt beam="1">  1        2 0.22642803E+00 0.34223386E+03</pdfrwt>
<pdfrwt beam="2">  1       -2 0.30607584E-02 0.34223386E+03</pdfrwt>
<totfact> 0.58243068E+03</totfact>
</mgrwt>
</event>
<event>
 4    1  0.1672993E-004  0.2973265E+03  0.7818608E-02  0.1086585E+00
         -1   -1    0    0    0  501 -0.00000000000E+00  0.00000000000E+00  0.49656428442E+02  0.49656428442E+02  0.00000000000E+00 0. -1.
          1   -1    0    0  501    0  0.00000000000E+00 -0.00000000000E+00 -0.44507365695E+03  0.44507365695E+03  0.00000000000E+00 0. -1.
         25    1    1    2    0    0  0.56935912507E+02 -0.10093307485E+02 -0.30754295550E+03  0.33515107410E+03  0.12000000000E+03 0.  0.
         25    1    1    2    0    0 -0.56935912507E+02  0.10093307485E+02 -0.87874273002E+02  0.15957901129E+03  0.12000000000E+03 0.  0.
<mgrwt>
<rscale>  0 0.29732654E+03</rscale>
<asrwt>0</asrwt>
<pdfrwt beam="1">  1        1 0.68472873E-01 0.29732654E+03</pdfrwt>
<pdfrwt beam="2">  1       -1 0.76394502E-02 0.29732654E+03</pdfrwt>
<totfact> 0.48618375E+03</totfact>
</mgrwt>
</event>
<event>
 4    1  0.1672993E-004  0.3635951E+03  0.7818608E-02  0.1057169E+00
          2   -1    0    0  501    0  0.00000000000E+00  0.00000000000E+00  0.11739707427E+03  0.11739707427E+03  0.00000000000E+00 0.  1.
         -2   -1    0    0    0  501 -0.00000000000E+00 -0.00000000000E+00 -0.28152620966E+03  0.28152620966E+03  0.00000000000E+00 0.  1.
         25    1    1    2    0    0 -0.98419306789E+02  0.63369338078E+02 -0.48853731431E+01  0.16770778106E+03  0.12000000000E+03 0.  0.
         25    1    1    2    0    0  0.98419306789E+02 -0.63369338078E+02 -0.15924376225E+03  0.23121550288E+03  0.12000000000E+03 0.  0.
<mgrwt>
<rscale>  0 0.36359512E+03</rscale>
<asrwt>0</asrwt>
<pdfrwt beam="1">  1        2 0.18061088E-01 0.36359512E+03</pdfrwt>
<pdfrwt beam="2">  1       -2 0.43311724E-01 0.36359512E+03</pdfrwt>
<totfact> 0.16059600E+03</totfact>
</mgrwt>
</event>
<event>
 4    1  0.1672993E-004  0.2532706E+03  0.7818608E-02  0.1111255E+00
          1   -1    0    0  501    0  0.00000000000E+00  0.00000000000E+00  0.19855396150E+03  0.19855396150E+03  0.00000000000E+00 0.  1.
         -1   -1    0    0    0  501 -0.00000000000E+00 -0.00000000000E+00 -0.80766472953E+02  0.80766472953E+02  0.00000000000E+00 0.  1.
         25    1    1    2    0    0  0.90626109150E+01 -0.29421800461E+02  0.87836664357E+02  0.15186524574E+03  0.12000000000E+03 0.  0.
         25    1    1    2    0    0 -0.90626109150E+01  0.29421800461E+02  0.29950824187E+02  0.12745518871E+03  0.12000000000E+03 0.  0.
<mgrwt>
<rscale>  0 0.25327063E+03</rscale>
<asrwt>0</asrwt>
<pdfrwt beam="1">  1        1 0.30546763E-01 0.25327063E+03</pdfrwt>
<pdfrwt beam="2">  1       -1 0.12425611E-01 0.25327063E+03</pdfrwt>
<totfact> 0.63397853E+03</totfact>
</mgrwt>
</event>
<event>
 4    1  0.1672993E-004  0.2930124E+03  0.7818608E-02  0.1088787E+00
         -1   -1    0    0    0  501 -0.00000000000E+00  0.00000000000E+00  0.41966590340E+02  0.41966590340E+02  0.00000000000E+00 0.  1.
          1   -1    0    0  501    0  0.00000000000E+00 -0.00000000000E+00 -0.51145613463E+03  0.51145613463E+03  0.00000000000E+00 0.  1.
         25    1    1    2    0    0 -0.50873308952E+02  0.37415646379E+02 -0.33949798724E+03  0.36557749862E+03  0.12000000000E+03 0.  0.
         25    1    1    2    0    0  0.50873308952E+02 -0.37415646379E+02 -0.12999155705E+03  0.18784522635E+03  0.12000000000E+03 0.  0.
<mgrwt>
<rscale>  0 0.29301242E+03</rscale>
<asrwt>0</asrwt>
<pdfrwt beam="1">  1        1 0.78685562E-01 0.29301242E+03</pdfrwt>
<pdfrwt beam="2">  1       -1 0.64563983E-02 0.29301242E+03</pdfrwt>
<totfact> 0.52249926E+03</totfact>
</mgrwt>
</event>
<event>
 4    1  0.1672993E-004  0.2470922E+03  0.7818608E-02  0.1115156E+00
          1   -1    0    0  501    0  0.00000000000E+00  0.00000000000E+00  0.14692376141E+04  0.14692376141E+04  0.00000000000E+00 0.  1.
         -1   -1    0    0    0  501 -0.00000000000E+00 -0.00000000000E+00 -0.10388813459E+02  0.10388813459E+02  0.00000000000E+00 0.  1.
         25    1    1    2    0    0  0.18687425775E+02  0.17883402909E+02  0.81295853362E+03  0.82217432055E+03  0.12000000000E+03 0.  0.
         25    1    1    2    0    0 -0.18687425775E+02 -0.17883402909E+02  0.64589026704E+03  0.65745210703E+03  0.12000000000E+03 0.  0.
<mgrwt>
<rscale>  0 0.24709217E+03</rscale>
<asrwt>0</asrwt>
<pdfrwt beam="1">  1        1 0.22603639E+00 0.24709217E+03</pdfrwt>
<pdfrwt beam="2">  1       -1 0.15982802E-02 0.24709217E+03</pdfrwt>
<totfact> 0.71214057E+03</totfact>
</mgrwt>
</event>
<event>
 4    1  0.1672993E-004  0.2772346E+03  0.7818608E-02  0.1097209E+00
         -2   -1    0    0    0  501 -0.00000000000E+00  0.00000000000E+00  0.68473885515E+02  0.68473885515E+02  0.00000000000E+00 0.  1.
          2   -1    0    0  501    0  0.00000000000E+00 -0.00000000000E+00 -0.28061440941E+03  0.28061440941E+03  0.00000000000E+00 0.  1.
         25    1    1    2    0    0 -0.35249956037E+02 -0.56787735369E+02 -0.82602421205E+02  0.16028276975E+03  0.12000000000E+03 0.  0.
         25    1    1    2    0    0  0.35249956037E+02  0.56787735369E+02 -0.12953810269E+03  0.18880552518E+03  0.12000000000E+03 0.  0.
<mgrwt>
<rscale>  0 0.27723462E+03</rscale>
<asrwt>0</asrwt>
<pdfrwt beam="1">  1        2 0.43171448E-01 0.27723462E+03</pdfrwt>
<pdfrwt beam="2">  1       -2 0.10534444E-01 0.27723462E+03</pdfrwt>
<totfact> 0.71264754E+03</totfact>
</mgrwt>
</event>
<event>
 4    1  0.1672993E-004  0.3176894E+03  0.7818608E-02  0.1076718E+00
         -1   -1    0    0    0  501 -0.00000000000E+00  0.00000000000E+00  0.26206968700E+02  0.26206968700E+02  0.00000000000E+00 0.  1.
          1   -1    0    0  501    0  0.00000000000E+00 -0.00000000000E+00 -0.96278385485E+03  0.96278385485E+03  0.00000000000E+00 0.  1.
         25    1    1    2    0    0 -0.92011338187E+02 -0.27824023205E+02 -0.59247566963E+03  0.61210103882E+03  0.12000000000E+03 0.  0.
         25    1    1    2    0    0  0.92011338187E+02  0.27824023205E+02 -0.34410121652E+03  0.37688978473E+03  0.12000000000E+03 0.  0.
<mgrwt>
<rscale>  0 0.31768945E+03</rscale>
<asrwt>0</asrwt>
<pdfrwt beam="1">  1        1 0.14812060E+00 0.31768945E+03</pdfrwt>
<pdfrwt beam="2">  1       -1 0.40318412E-02 0.31768945E+03</pdfrwt>
<totfact> 0.41567784E+03</totfact>
</mgrwt>
</event>
<event>
 4    1  0.1672993E-004  0.2802133E+03  0.7818608E-02  0.1095572E+00
          1   -1    0    0  501    0  0.00000000000E+00  0.00000000000E+00  0.81931095871E+02  0.81931095871E+02  0.00000000000E+00 0.  1.
         -1   -1    0    0    0  501 -0.00000000000E+00 -0.00000000000E+00 -0.23959009804E+03  0.23959009804E+03  0.00000000000E+00 0.  1.
         25    1    1    2    0    0  0.61126748208E+02  0.79975682471E+01 -0.35448098823E+02  0.13948838000E+03  0.12000000000E+03 0.  0.
         25    1    1    2    0    0 -0.61126748208E+02 -0.79975682471E+01 -0.12221090335E+03  0.18203281391E+03  0.12000000000E+03 0.  0.
<mgrwt>
<rscale>  0 0.28021334E+03</rscale>
<asrwt>0</asrwt>
<pdfrwt beam="1">  1        1 0.12604784E-01 0.28021334E+03</pdfrwt>
<pdfrwt beam="2">  1       -1 0.36860015E-01 0.28021334E+03</pdfrwt>
<totfact> 0.33409525E+03</totfact>
</mgrwt>
</event>
<event>
 4    1  0.1672993E-004  0.3120126E+03  0.7818608E-02  0.1079385E+00
          2   -1    0    0  501    0  0.00000000000E+00  0.00000000000E+00  0.22593252523E+03  0.22593252523E+03  0.00000000000E+00 0.  1.
         -2   -1    0    0    0  501 -0.00000000000E+00 -0.00000000000E+00 -0.10772227708E+03  0.10772227708E+03  0.00000000000E+00 0.  1.
         25    1    1    2    0    0 -0.80857769747E+02 -0.49751257668E+02  0.26585236114E+02  0.15530596044E+03  0.12000000000E+03 0.  0.
         25    1    1    2    0    0  0.80857769747E+02  0.49751257668E+02  0.91625012034E+02  0.17834884188E+03  0.12000000000E+03 0.  0.
<mgrwt>
<rscale>  0 0.31201260E+03</rscale>
<asrwt>0</asrwt>
<pdfrwt beam="1">  1        2 0.34758850E-01 0.31201260E+03</pdfrwt>
<pdfrwt beam="2">  1       -2 0.16572658E-01 0.31201260E+03</pdfrwt>
<totfact> 0.43136993E+03</totfact>
</mgrwt>
</event>
<event>
 4    1  0.1672993E-004  0.4227399E+03  0.7818608E-02  0.1036178E+00
         -1   -1    0    0    0  501 -0.00000000000E+00  0.00000000000E+00  0.23298020156E+02  0.23298020156E+02  0.00000000000E+00 0. -1.
          1   -1    0    0  501    0  0.00000000000E+00 -0.00000000000E+00 -0.19176417661E+04  0.19176417661E+04  0.00000000000E+00 0. -1.
         25    1    1    2    0    0 -0.19530894964E+02 -0.69144988661E+02 -0.16747898684E+04  0.16806200013E+04  0.12000000000E+03 0.  0.
         25    1    1    2    0    0  0.19530894964E+02  0.69144988661E+02 -0.21955387749E+03  0.26031978495E+03  0.12000000000E+03 0.  0.
<mgrwt>
<rscale>  0 0.42273990E+03</rscale>
<asrwt>0</asrwt>
<pdfrwt beam="1">  1        1 0.29502187E+00 0.42273990E+03</pdfrwt>
<pdfrwt beam="2">  1       -1 0.35843101E-02 0.42273990E+03</pdfrwt>
<totfact> 0.10930287E+03</totfact>
</mgrwt>
</event>
<event>
 4    1  0.1672993E-004  0.2649752E+03  0.7818608E-02  0.1104190E+00
          2   -1    0    0  501    0  0.00000000000E+00  0.00000000000E+00  0.84079512863E+02  0.84079512863E+02  0.00000000000E+00 0. -1.
         -2   -1    0    0    0  501 -0.00000000000E+00 -0.00000000000E+00 -0.20876630834E+03  0.20876630834E+03  0.00000000000E+00 0. -1.
         25    1    1    2    0    0 -0.12677572746E+02  0.22978394640E+02 -0.11720587542E+03  0.16978205059E+03  0.12000000000E+03 0.  0.
         25    1    1    2    0    0  0.12677572746E+02 -0.22978394640E+02 -0.74809200544E+01  0.12306377061E+03  0.12000000000E+03 0.  0.
<mgrwt>
<rscale>  0 0.26497524E+03</rscale>
<asrwt>0</asrwt>
<pdfrwt beam="1">  1        2 0.12935310E-01 0.26497524E+03</pdfrwt>
<pdfrwt beam="2">  1       -2 0.32117893E-01 0.26497524E+03</pdfrwt>
<totfact> 0.41718391E+03</totfact>
</mgrwt>
</event>
<event>
 4    1  0.1672993E-004  0.3640809E+03  0.7818608E-02  0.1056980E+00
         -1   -1    0    0    0  501 -0.00000000000E+00  0.00000000000E+00  0.30849835961E+02  0.30849835961E+02  0.00000000000E+00 0. -1.
          1   -1    0    0  501    0  0.00000000000E+00 -0.00000000000E+00 -0.10741944742E+04  0.10741944742E+04  0.00000000000E+00 0. -1.
         25    1    1    2    0    0  0.12029613589E+03 -0.42672142899E+02 -0.67180244303E+03  0.69426982835E+03  0.12000000000E+03 0.  0.
         25    1    1    2    0    0 -0.12029613589E+03  0.42672142899E+02 -0.37154219520E+03  0.41077448181E+03  0.12000000000E+03 0.  0.
<mgrwt>
<rscale>  0 0.36408089E+03</rscale>
<asrwt>0</asrwt>
<pdfrwt beam="1">  1        1 0.16526067E+00 0.36408089E+03</pdfrwt>
<pdfrwt beam="2">  1       -1 0.47461293E-02 0.36408089E+03</pdfrwt>
<totfact> 0.26873343E+03</totfact>
</mgrwt>
</event>
<event>
 4    1  0.1672993E-004  0.2619277E+03  0.7818608E-02  0.1105991E+00
          1   -1    0    0  501    0  0.00000000000E+00  0.00000000000E+00  0.17620799685E+03  0.17620799685E+03  0.00000000000E+00 0. -1.
         -1   -1    0    0    0  501 -0.00000000000E+00 -0.00000000000E+00 -0.97336875462E+02  0.97336875462E+02  0.00000000000E+00 0. -1.
         25    1    1    2    0    0  0.29343783652E+02 -0.38246981573E+02  0.61032369825E+02  0.14299943848E+03  0.12000000000E+03 0.  0.
         25    1    1    2    0    0 -0.29343783652E+02  0.38246981573E+02  0.17838751566E+02  0.13054543384E+03  0.12000000000E+03 0.  0.
<mgrwt>
<rscale>  0 0.26192774E+03</rscale>
<asrwt>0</asrwt>
<pdfrwt beam="1">  1        1 0.27108923E-01 0.26192774E+03</pdfrwt>
<pdfrwt beam="2">  1       -1 0.14974904E-01 0.26192774E+03</pdfrwt>
<totfact> 0.55017597E+03</totfact>
</mgrwt>
</event>
<event>
 4    1  0.1672993E-004  0.2441457E+03  0.7818608E-02  0.1117062E+00
         -2   -1    0    0    0  501 -0.00000000000E+00  0.00000000000E+00  0.55266933917E+02  0.55266933917E+02  0.00000000000E+00 0. -1.
          2   -1    0    0  501    0  0.00000000000E+00 -0.00000000000E+00 -0.26963276102E+03  0.26963276102E+03  0.00000000000E+00 0. -1.
         25    1    1    2    0    0  0.17276532057E+02  0.12964809851E+02 -0.99286311056E+02  0.15723974185E+03  0.12000000000E+03 0.  0.
         25    1    1    2    0    0 -0.17276532057E+02 -0.12964809851E+02 -0.11507951604E+03  0.16765995308E+03  0.12000000000E+03 0.  0.
<mgrwt>
<rscale>  0 0.24414566E+03</rscale>
<asrwt>0</asrwt>
<pdfrwt beam="1">  1        2 0.41481963E-01 0.24414566E+03</pdfrwt>
<pdfrwt beam="2">  1       -2 0.85026052E-02 0.24414566E+03</pdfrwt>
<totfact> 0.10381676E+04</totfact>
</mgrwt>
</event>
<event>
 4    1  0.1672993E-004  0.3538316E+03  0.7818608E-02  0.1061053E+00
         -1   -1    0    0    0  501 -0.00000000000E+00  0.00000000000E+00  0.15275927519E+03  0.15275927519E+03  0.00000000000E+00 0. -1.
          1   -1    0    0  501    0  0.00000000000E+00 -0.00000000000E+00 -0.20489231351E+03  0.20489231351E+03  0.00000000000E+00 0. -1.
         25    1    1    2    0    0 -0.10213315826E+02  0.24876045625E+02 -0.15462480371E+03  0.19756507634E+03  0.12000000000E+03 0.  0.
         25    1    1    2    0    0  0.10213315826E+02 -0.24876045625E+02  0.10249176539E+03  0.16008651236E+03  0.12000000000E+03 0.  0.
<mgrwt>
<rscale>  0 0.35383161E+03</rscale>
<asrwt>0</asrwt>
<pdfrwt beam="1">  1        1 0.31521895E-01 0.35383161E+03</pdfrwt>
<pdfrwt beam="2">  1       -1 0.23501427E-01 0.35383161E+03</pdfrwt>
<totfact> 0.22037389E+03</totfact>
</mgrwt>
</event>
<event>
 4    1  0.1672993E-004  0.2888126E+03  0.7818608E-02  0.1090971E+00
         -1   -1    0    0    0  501 -0.00000000000E+00  0.00000000000E+00  0.65552829401E+03  0.65552829401E+03  0.00000000000E+00 0.  1.
          1   -1    0    0  501    0  0.00000000000E+00 -0.00000000000E+00 -0.31811261485E+02  0.31811261485E+02  0.00000000000E+00 0.  1.
         25    1    1    2    0    0 -0.52632258670E+01  0.28996542581E+02  0.48970871665E+03  0.50505754938E+03  0.12000000000E+03 0.  0.
         25    1    1    2    0    0  0.52632258670E+01 -0.28996542581E+02  0.13400831588E+03  0.18228200612E+03  0.12000000000E+03 0.  0.
<mgrwt>
<rscale>  0 0.28881262E+03</rscale>
<asrwt>0</asrwt>
<pdfrwt beam="1">  1        1 0.48940407E-02 0.28881262E+03</pdfrwt>
<pdfrwt beam="2">  1       -1 0.10085050E+00 0.28881262E+03</pdfrwt>
<totfact> 0.16967891E+03</totfact>
</mgrwt>
</event>
<event>
 4    1  0.1672993E-004  0.3074412E+03  0.7818608E-02  0.1081579E+00
          2   -1    0    0  501    0  0.00000000000E+00  0.00000000000E+00  0.12774615424E+04  0.12774615424E+04  0.00000000000E+00 0.  1.
         -2   -1    0    0    0  501 -0.00000000000E+00 -0.00000000000E+00 -0.18497643589E+02  0.18497643589E+02  0.00000000000E+00 0.  1.
         25    1    1    2    0    0  0.69925871517E+02 -0.51836513575E+02  0.80088364319E+03  0.81448834343E+03  0.12000000000E+03 0.  0.
         25    1    1    2    0    0 -0.69925871517E+02  0.51836513575E+02  0.45808025560E+03  0.48147084254E+03  0.12000000000E+03 0.  0.
<mgrwt>
<rscale>  0 0.30744124E+03</rscale>
<asrwt>0</asrwt>
<pdfrwt beam="1">  1        2 0.19653248E+00 0.30744124E+03</pdfrwt>
<pdfrwt beam="2">  1       -2 0.28457923E-02 0.30744124E+03</pdfrwt>
<totfact> 0.82947797E+03</totfact>
</mgrwt>
</event>
<event>
 4    1  0.1672993E-004  0.4333329E+03  0.7818608E-02  0.1032812E+00
          1   -1    0    0  501    0  0.00000000000E+00  0.00000000000E+00  0.20197735990E+03  0.20197735990E+03  0.00000000000E+00 0.  1.
         -1   -1    0    0    0  501 -0.00000000000E+00 -0.00000000000E+00 -0.23242383279E+03  0.23242383279E+03  0.00000000000E+00 0.  1.
         25    1    1    2    0    0  0.37952694055E+02 -0.47354029744E+02 -0.18552890215E+03  0.22913704339E+03  0.12000000000E+03 0.  0.
         25    1    1    2    0    0 -0.37952694055E+02  0.47354029744E+02  0.15508242927E+03  0.20526414930E+03  0.12000000000E+03 0.  0.
<mgrwt>
<rscale>  0 0.43333291E+03</rscale>
<asrwt>0</asrwt>
<pdfrwt beam="1">  1        1 0.31073440E-01 0.43333291E+03</pdfrwt>
<pdfrwt beam="2">  1       -1 0.35757513E-01 0.43333291E+03</pdfrwt>
<totfact> 0.10959736E+03</totfact>
</mgrwt>
</event>
<event>
 4    1  0.1672993E-004  0.3739338E+03  0.7818608E-02  0.1053199E+00
          1   -1    0    0  501    0  0.00000000000E+00  0.00000000000E+00  0.55524994115E+03  0.55524994115E+03  0.00000000000E+00 0. -1.
         -1   -1    0    0    0  501 -0.00000000000E+00 -0.00000000000E+00 -0.62956559684E+02  0.62956559684E+02  0.00000000000E+00 0. -1.
         25    1    1    2    0    0  0.10514619309E+03  0.84644836633E+02  0.32605459051E+03  0.37273592030E+03  0.12000000000E+03 0.  0.
         25    1    1    2    0    0 -0.10514619309E+03 -0.84644836633E+02  0.16623879096E+03  0.24547058054E+03  0.12000000000E+03 0.  0.
<mgrwt>
<rscale>  0 0.37393382E+03</rscale>
<asrwt>0</asrwt>
<pdfrwt beam="1">  1        1 0.85423065E-01 0.37393382E+03</pdfrwt>
<pdfrwt beam="2">  1       -1 0.96856249E-02 0.37393382E+03</pdfrwt>
<totfact> 0.25182249E+03</totfact>
</mgrwt>
</event>
<event>
 4    1  0.1672993E-004  0.2724593E+03  0.7818608E-02  0.1099880E+00
         -2   -1    0    0    0  501 -0.00000000000E+00  0.00000000000E+00  0.12529767745E+04  0.12529767745E+04  0.00000000000E+00 0.  1.
          2   -1    0    0  501    0  0.00000000000E+00 -0.00000000000E+00 -0.14811541577E+02  0.14811541577E+02  0.00000000000E+00 0.  1.
         25    1    1    2    0    0  0.43086779118E+02 -0.30401630446E+02  0.79180009714E+03  0.80257593006E+03  0.12000000000E+03 0.  0.
         25    1    1    2    0    0 -0.43086779118E+02  0.30401630446E+02  0.44636513579E+03  0.46521238603E+03  0.12000000000E+03 0.  0.
<mgrwt>
<rscale>  0 0.27245930E+03</rscale>
<asrwt>0</asrwt>
<pdfrwt beam="1">  1        2 0.22786997E-02 0.27245930E+03</pdfrwt>
<pdfrwt beam="2">  1       -2 0.19276558E+00 0.27245930E+03</pdfrwt>
<totfact> 0.73339606E+02</totfact>
</mgrwt>
</event>
<event>
 4    1  0.1672993E-004  0.2760511E+03  0.7818608E-02  0.1097865E+00
          1   -1    0    0  501    0  0.00000000000E+00  0.00000000000E+00  0.20023389291E+04  0.20023389291E+04  0.00000000000E+00 0. -1.
         -1   -1    0    0    0  501 -0.00000000000E+00 -0.00000000000E+00 -0.95143994233E+01  0.95143994233E+01  0.00000000000E+00 0. -1.
         25    1    1    2    0    0 -0.45133238254E+02 -0.31869363770E+02  0.70504028934E+03  0.71731058485E+03  0.12000000000E+03 0.  0.
         25    1    1    2    0    0  0.45133238254E+02  0.31869363770E+02  0.12877842403E+04  0.12945427437E+04  0.12000000000E+03 0.  0.
<mgrwt>
<rscale>  0 0.27605110E+03</rscale>
<asrwt>0</asrwt>
<pdfrwt beam="1">  1        1 0.30805181E+00 0.27605110E+03</pdfrwt>
<pdfrwt beam="2">  1       -1 0.14637553E-02 0.27605110E+03</pdfrwt>
<totfact> 0.36362451E+03</totfact>
</mgrwt>
</event>
<event>
 4    1  0.1672993E-004  0.2636979E+03  0.7818608E-02  0.1104942E+00
          2   -1    0    0  501    0  0.00000000000E+00  0.00000000000E+00  0.29849775590E+02  0.29849775590E+02  0.00000000000E+00 0. -1.
         -2   -1    0    0    0  501 -0.00000000000E+00 -0.00000000000E+00 -0.58238766702E+03  0.58238766702E+03  0.00000000000E+00 0. -1.
         25    1    1    2    0    0 -0.43297244256E+02  0.26518702129E+02 -0.22947291480E+03  0.26388579263E+03  0.12000000000E+03 0.  0.
         25    1    1    2    0    0  0.43297244256E+02 -0.26518702129E+02 -0.32306497663E+03  0.34835164998E+03  0.12000000000E+03 0.  0.
<mgrwt>
<rscale>  0 0.26369787E+03</rscale>
<asrwt>0</asrwt>
<pdfrwt beam="1">  1        2 0.45922727E-02 0.26369787E+03</pdfrwt>
<pdfrwt beam="2">  1       -2 0.89598112E-01 0.26369787E+03</pdfrwt>
<totfact> 0.19385013E+03</totfact>
</mgrwt>
</event>
<event>
 4    1  0.1672993E-004  0.3190477E+03  0.7818608E-02  0.1076088E+00
         -2   -1    0    0    0  501 -0.00000000000E+00  0.00000000000E+00  0.15465980242E+02  0.15465980242E+02  0.00000000000E+00 0. -1.
          2   -1    0    0  501    0  0.00000000000E+00 -0.00000000000E+00 -0.16454086889E+04  0.16454086889E+04  0.00000000000E+00 0. -1.
         25    1    1    2    0    0 -0.67955597817E+02  0.94563465883E+01 -0.40045462858E+03  0.42364052606E+03  0.12000000000E+03 0.  0.
         25    1    1    2    0    0  0.67955597817E+02 -0.94563465883E+01 -0.12294880801E+04  0.12372341431E+04  0.12000000000E+03 0.  0.
<mgrwt>
<rscale>  0 0.31904770E+03</rscale>
<asrwt>0</asrwt>
<pdfrwt beam="1">  1        2 0.25313971E+00 0.31904770E+03</pdfrwt>
<pdfrwt beam="2">  1       -2 0.23793824E-02 0.31904770E+03</pdfrwt>
<totfact> 0.68398241E+03</totfact>
</mgrwt>
</event>
<event>
 4    1  0.1672993E-004  0.2688363E+03  0.7818608E-02  0.1101947E+00
         -2   -1    0    0    0  501 -0.00000000000E+00  0.00000000000E+00  0.81004567068E+01  0.81004567068E+01  0.00000000000E+00 0. -1.
          2   -1    0    0  501    0  0.00000000000E+00 -0.00000000000E+00 -0.22305212242E+04  0.22305212242E+04  0.00000000000E+00 0. -1.
         25    1    1    2    0    0 -0.32988844627E+02 -0.24651177469E+02 -0.14810205492E+04  0.14864446884E+04  0.12000000000E+03 0.  0.
         25    1    1    2    0    0  0.32988844627E+02  0.24651177469E+02 -0.74140021823E+03  0.75217699247E+03  0.12000000000E+03 0.  0.
<mgrwt>
<rscale>  0 0.26883631E+03</rscale>
<asrwt>0</asrwt>
<pdfrwt beam="1">  1        2 0.34315715E+00 0.26883631E+03</pdfrwt>
<pdfrwt beam="2">  1       -2 0.12462240E-02 0.26883631E+03</pdfrwt>
<totfact> 0.86755274E+03</totfact>
</mgrwt>
</event>
<event>
 4    1  0.1672993E-004  0.2669006E+03  0.7818608E-02  0.1103067E+00
         -4   -1    0    0    0  501 -0.00000000000E+00  0.00000000000E+00  0.67671072001E+02  0.67671072001E+02  0.00000000000E+00 0.  1.
          4   -1    0    0  501    0  0.00000000000E+00 -0.00000000000E+00 -0.26316981785E+03  0.26316981785E+03  0.00000000000E+00 0.  1.
         25    1    1    2    0    0  0.23515318438E+02 -0.41591323096E+02 -0.13934738934E+03  0.19000132440E+03  0.12000000000E+03 0.  0.
         25    1    1    2    0    0 -0.23515318438E+02  0.41591323096E+02 -0.56151356508E+02  0.14083956545E+03  0.12000000000E+03 0.  0.
<mgrwt>
<rscale>  0 0.26690061E+03</rscale>
<asrwt>0</asrwt>
<pdfrwt beam="1">  1        4 0.40487663E-01 0.26690061E+03</pdfrwt>
<pdfrwt beam="2">  1       -4 0.10410934E-01 0.26690061E+03</pdfrwt>
<totfact> 0.78578815E+02</totfact>
</mgrwt>
</event>
<event>
 4    1  0.1672993E-004  0.2520577E+03  0.7818608E-02  0.1112011E+00
         -2   -1    0    0    0  501 -0.00000000000E+00  0.00000000000E+00  0.23838553956E+02  0.23838553956E+02  0.00000000000E+00 0. -1.
          2   -1    0    0  501    0  0.00000000000E+00 -0.00000000000E+00 -0.66628513656E+03  0.66628513656E+03  0.00000000000E+00 0. -1.
         25    1    1    2    0    0 -0.43682943081E+00  0.30992717792E+02 -0.38381034885E+03  0.40332508385E+03  0.12000000000E+03 0.  0.
         25    1    1    2    0    0  0.43682943081E+00 -0.30992717792E+02 -0.25863623375E+03  0.28679860667E+03  0.12000000000E+03 0.  0.
<mgrwt>
<rscale>  0 0.25205772E+03</rscale>
<asrwt>0</asrwt>
<pdfrwt beam="1">  1        2 0.10250541E+00 0.25205772E+03</pdfrwt>
<pdfrwt beam="2">  1       -2 0.36674697E-02 0.25205772E+03</pdfrwt>
<totfact> 0.13823940E+04</totfact>
</mgrwt>
</event>
<event>
 4    1  0.1672993E-004  0.3404597E+03  0.7818608E-02  0.1066600E+00
         -2   -1    0    0    0  501 -0.00000000000E+00  0.00000000000E+00  0.25963378238E+02  0.25963378238E+02  0.00000000000E+00 0.  1.
          2   -1    0    0  501    0  0.00000000000E+00 -0.00000000000E+00 -0.11161180710E+04  0.11161180710E+04  0.00000000000E+00 0.  1.
         25    1    1    2    0    0  0.52318434287E+02  0.20785700514E+02 -0.90338319909E+03  0.91305556694E+03  0.12000000000E+03 0.  0.
         25    1    1    2    0    0 -0.52318434287E+02 -0.20785700514E+02 -0.18677149362E+03  0.22902588225E+03  0.12000000000E+03 0.  0.
<mgrwt>
<rscale>  0 0.34045966E+03</rscale>
<asrwt>0</asrwt>
<pdfrwt beam="1">  1        2 0.17171048E+00 0.34045966E+03</pdfrwt>
<pdfrwt beam="2">  1       -2 0.39943658E-02 0.34045966E+03</pdfrwt>
<totfact> 0.61789618E+03</totfact>
</mgrwt>
</event>
<event>
 4    1  0.1672993E-004  0.2669170E+03  0.7818608E-02  0.1103057E+00
          2   -1    0    0  501    0  0.00000000000E+00  0.00000000000E+00  0.25835120494E+03  0.25835120494E+03  0.00000000000E+00 0. -1.
         -2   -1    0    0    0  501 -0.00000000000E+00 -0.00000000000E+00 -0.68941682218E+02  0.68941682218E+02  0.00000000000E+00 0. -1.
         25    1    1    2    0    0  0.23964155207E+02  0.43632320831E+02  0.57248364431E+02  0.14196983971E+03  0.12000000000E+03 0.  0.
         25    1    1    2    0    0 -0.23964155207E+02 -0.43632320831E+02  0.13216115829E+03  0.18532304745E+03  0.12000000000E+03 0.  0.
<mgrwt>
<rscale>  0 0.26691697E+03</rscale>
<asrwt>0</asrwt>
<pdfrwt beam="1">  1        2 0.39746339E-01 0.26691697E+03</pdfrwt>
<pdfrwt beam="2">  1       -2 0.10606413E-01 0.26691697E+03</pdfrwt>
<totfact> 0.76940543E+03</totfact>
</mgrwt>
</event>
<event>
 4    1  0.1672993E-004  0.2989090E+03  0.7818608E-02  0.1085787E+00
          2   -1    0    0  501    0  0.00000000000E+00  0.00000000000E+00  0.12044167142E+02  0.12044167142E+02  0.00000000000E+00 0. -1.
         -2   -1    0    0    0  501 -0.00000000000E+00 -0.00000000000E+00 -0.18545614295E+04  0.18545614295E+04  0.00000000000E+00 0. -1.
         25    1    1    2    0    0 -0.60770018000E+02  0.46628453576E+02 -0.63717906531E+03  0.65288924715E+03  0.12000000000E+03 0.  0.
         25    1    1    2    0    0  0.60770018000E+02 -0.46628453576E+02 -0.12053381970E+04  0.12137163494E+04  0.12000000000E+03 0.  0.
<mgrwt>
<rscale>  0 0.29890900E+03</rscale>
<asrwt>0</asrwt>
<pdfrwt beam="1">  1        2 0.18529491E-02 0.29890900E+03</pdfrwt>
<pdfrwt beam="2">  1       -2 0.28531710E+00 0.29890900E+03</pdfrwt>
<totfact> 0.27136003E+02</totfact>
</mgrwt>
</event>
<event>
 4    1  0.1672993E-004  0.2845733E+03  0.7818608E-02  0.1093217E+00
          1   -1    0    0  501    0  0.00000000000E+00  0.00000000000E+00  0.17061103823E+03  0.17061103823E+03  0.00000000000E+00 0.  1.
         -1   -1    0    0    0  501 -0.00000000000E+00 -0.00000000000E+00 -0.11866460852E+03  0.11866460852E+03  0.00000000000E+00 0.  1.
         25    1    1    2    0    0  0.10829047407E+02  0.59005756930E+02 -0.22207719344E+02  0.13598577285E+03  0.12000000000E+03 0.  0.
         25    1    1    2    0    0 -0.10829047407E+02 -0.59005756930E+02  0.74154149053E+02  0.15328987390E+03  0.12000000000E+03 0.  0.
<mgrwt>
<rscale>  0 0.28457331E+03</rscale>
<asrwt>0</asrwt>
<pdfrwt beam="1">  1        1 0.26247852E-01 0.28457331E+03</pdfrwt>
<pdfrwt beam="2">  1       -1 0.18256094E-01 0.28457331E+03</pdfrwt>
<totfact> 0.41867705E+03</totfact>
</mgrwt>
</event>
<event>
 4    1  0.1672993E-004  0.3364984E+03  0.7818608E-02  0.1068297E+00
         -4   -1    0    0    0  501 -0.00000000000E+00  0.00000000000E+00  0.17206749270E+03  0.17206749270E+03  0.00000000000E+00 0. -1.
          4   -1    0    0  501    0  0.00000000000E+00 -0.00000000000E+00 -0.16451559336E+03  0.16451559336E+03  0.00000000000E+00 0. -1.
         25    1    1    2    0    0  0.94853462097E+01  0.22973636901E+02 -0.11153545336E+03  0.16570430634E+03  0.12000000000E+03 0.  0.
         25    1    1    2    0    0 -0.94853462097E+01 -0.22973636901E+02  0.11908735269E+03  0.17087877971E+03  0.12000000000E+03 0.  0.
<mgrwt>
<rscale>  0 0.33649835E+03</rscale>
<asrwt>0</asrwt>
<pdfrwt beam="1">  1        4 0.25310091E-01 0.33649835E+03</pdfrwt>
<pdfrwt beam="2">  1       -4 0.26471922E-01 0.33649835E+03</pdfrwt>
<totfact> 0.37812712E+02</totfact>
</mgrwt>
</event>
<event>
 4    1  0.1672993E-004  0.2777691E+03  0.7818608E-02  0.1096914E+00
          2   -1    0    0  501    0  0.00000000000E+00  0.00000000000E+00  0.19901999748E+04  0.19901999748E+04  0.00000000000E+00 0.  1.
         -2   -1    0    0    0  501 -0.00000000000E+00 -0.00000000000E+00 -0.96919526998E+01  0.96919526998E+01  0.00000000000E+00 0.  1.
         25    1    1    2    0    0 -0.47565989402E+02 -0.34351863897E+02  0.12640702798E+04  0.12711082748E+04  0.12000000000E+03 0.  0.
         25    1    1    2    0    0  0.47565989402E+02  0.34351863897E+02  0.71643774225E+03  0.72878365268E+03  0.12000000000E+03 0.  0.
<mgrwt>
<rscale>  0 0.27776914E+03</rscale>
<asrwt>0</asrwt>
<pdfrwt beam="1">  1        2 0.30618429E+00 0.27776914E+03</pdfrwt>
<pdfrwt beam="2">  1       -2 0.14910712E-02 0.27776914E+03</pdfrwt>
<totfact> 0.89489559E+03</totfact>
</mgrwt>
</event>
<event>
 4    1  0.1672993E-004  0.2767055E+03  0.7818608E-02  0.1097502E+00
         -4   -1    0    0    0  501 -0.00000000000E+00  0.00000000000E+00  0.41628433635E+02  0.41628433635E+02  0.00000000000E+00 0.  1.
          4   -1    0    0  501    0  0.00000000000E+00 -0.00000000000E+00 -0.45981741327E+03  0.45981741327E+03  0.00000000000E+00 0.  1.
         25    1    1    2    0    0 -0.89512032627E+01 -0.23200030830E+02 -0.92730412420E+02  0.15367919462E+03  0.12000000000E+03 0.  0.
         25    1    1    2    0    0  0.89512032627E+01  0.23200030830E+02 -0.32545856722E+03  0.34776665229E+03  0.12000000000E+03 0.  0.
<mgrwt>
<rscale>  0 0.27670547E+03</rscale>
<asrwt>0</asrwt>
<pdfrwt beam="1">  1        4 0.70741140E-01 0.27670547E+03</pdfrwt>
<pdfrwt beam="2">  1       -4 0.64043744E-02 0.27670547E+03</pdfrwt>
<totfact> 0.55725621E+02</totfact>
</mgrwt>
</event>
<event>
 4    1  0.1672993E-004  0.2440433E+03  0.7818608E-02  0.1117128E+00
          1   -1    0    0  501    0  0.00000000000E+00  0.00000000000E+00  0.33216497610E+03  0.33216497610E+03  0.00000000000E+00 0. -1.
         -1   -1    0    0    0  501 -0.00000000000E+00 -0.00000000000E+00 -0.44824962628E+02  0.44824962628E+02  0.00000000000E+00 0. -1.
         25    1    1    2    0    0  0.21921651434E+02  0.28587457490E+01  0.14481710536E+03  0.18936928271E+03  0.12000000000E+03 0.  0.
         25    1    1    2    0    0 -0.21921651434E+02 -0.28587457490E+01  0.14252290811E+03  0.18762065602E+03  0.12000000000E+03 0.  0.
<mgrwt>
<rscale>  0 0.24404330E+03</rscale>
<asrwt>0</asrwt>
<pdfrwt beam="1">  1        1 0.51102303E-01 0.24404330E+03</pdfrwt>
<pdfrwt beam="2">  1       -1 0.68961483E-02 0.24404330E+03</pdfrwt>
<totfact> 0.82042710E+03</totfact>
</mgrwt>
</event>
<event>
 4    1  0.1672993E-004  0.2757713E+03  0.7818608E-02  0.1098021E+00
         -2   -1    0    0    0  501 -0.00000000000E+00  0.00000000000E+00  0.11682592793E+03  0.11682592793E+03  0.00000000000E+00 0.  1.
          2   -1    0    0  501    0  0.00000000000E+00 -0.00000000000E+00 -0.16274173887E+03  0.16274173887E+03  0.00000000000E+00 0.  1.
         25    1    1    2    0    0  0.28435793157E+02 -0.55285306334E+02 -0.50672785987E+02  0.14433568744E+03  0.12000000000E+03 0.  0.
         25    1    1    2    0    0 -0.28435793157E+02  0.55285306334E+02  0.47569750472E+01  0.13523197936E+03  0.12000000000E+03 0.  0.
<mgrwt>
<rscale>  0 0.27577132E+03</rscale>
<asrwt>0</asrwt>
<pdfrwt beam="1">  1        2 0.25037190E-01 0.27577132E+03</pdfrwt>
<pdfrwt beam="2">  1       -2 0.17973220E-01 0.27577132E+03</pdfrwt>
<totfact> 0.53835522E+03</totfact>
</mgrwt>
</event>
<event>
 4    1  0.1672993E-004  0.3479261E+03  0.7818608E-02  0.1063469E+00
          2   -1    0    0  501    0  0.00000000000E+00  0.00000000000E+00  0.81464189184E+03  0.81464189184E+03  0.00000000000E+00 0.  1.
         -2   -1    0    0    0  501 -0.00000000000E+00 -0.00000000000E+00 -0.37149007636E+02  0.37149007636E+02  0.00000000000E+00 0.  1.
         25    1    1    2    0    0  0.23632165210E+02  0.11096527228E+03  0.52264653226E+03  0.54811601744E+03  0.12000000000E+03 0.  0.
         25    1    1    2    0    0 -0.23632165210E+02 -0.11096527228E+03  0.25484635194E+03  0.30367488204E+03  0.12000000000E+03 0.  0.
<mgrwt>
<rscale>  0 0.34792607E+03</rscale>
<asrwt>0</asrwt>
<pdfrwt beam="1">  1        2 0.12532951E+00 0.34792607E+03</pdfrwt>
<pdfrwt beam="2">  1       -2 0.57152326E-02 0.34792607E+03</pdfrwt>
<totfact> 0.55508871E+03</totfact>
</mgrwt>
</event>
<event>
 4    1  0.1672993E-004  0.2932181E+03  0.7818608E-02  0.1088681E+00
         -2   -1    0    0    0  501 -0.00000000000E+00  0.00000000000E+00  0.10978632364E+03  0.10978632364E+03  0.00000000000E+00 0.  1.
          2   -1    0    0  501    0  0.00000000000E+00 -0.00000000000E+00 -0.19578225354E+03  0.19578225354E+03  0.00000000000E+00 0.  1.
         25    1    1    2    0    0 -0.71669881857E+02 -0.41017969362E+02 -0.25711072280E+02  0.14791925167E+03  0.12000000000E+03 0.  0.
         25    1    1    2    0    0  0.71669881857E+02  0.41017969362E+02 -0.60284857627E+02  0.15764932551E+03  0.12000000000E+03 0.  0.
<mgrwt>
<rscale>  0 0.29321810E+03</rscale>
<asrwt>0</asrwt>
<pdfrwt beam="1">  1        2 0.30120346E-01 0.29321810E+03</pdfrwt>
<pdfrwt beam="2">  1       -2 0.16890204E-01 0.29321810E+03</pdfrwt>
<totfact> 0.48794656E+03</totfact>
</mgrwt>
</event>
<event>
 4    1  0.1672993E-004  0.3193382E+03  0.7818608E-02  0.1075954E+00
         -2   -1    0    0    0  501 -0.00000000000E+00  0.00000000000E+00  0.24665453266E+02  0.24665453266E+02  0.00000000000E+00 0.  1.
          2   -1    0    0  501    0  0.00000000000E+00 -0.00000000000E+00 -0.10336001668E+04  0.10336001668E+04  0.00000000000E+00 0.  1.
         25    1    1    2    0    0 -0.18021766832E+02 -0.99163103276E+01 -0.16213461606E+03  0.20275786302E+03  0.12000000000E+03 0.  0.
         25    1    1    2    0    0  0.18021766832E+02  0.99163103276E+01 -0.84680009751E+03  0.85550775708E+03  0.12000000000E+03 0.  0.
<mgrwt>
<rscale>  0 0.31933817E+03</rscale>
<asrwt>0</asrwt>
<pdfrwt beam="1">  1        2 0.15901543E+00 0.31933817E+03</pdfrwt>
<pdfrwt beam="2">  1       -2 0.37946847E-02 0.31933817E+03</pdfrwt>
<totfact> 0.74715772E+03</totfact>
</mgrwt>
</event>
<event>
 4    1  0.1672993E-004  0.2877712E+03  0.7818608E-02  0.1091519E+00
          2   -1    0    0  501    0  0.00000000000E+00  0.00000000000E+00  0.81361979661E+02  0.81361979661E+02  0.00000000000E+00 0. -1.
         -2   -1    0    0    0  501 -0.00000000000E+00 -0.00000000000E+00 -0.25445634339E+03  0.25445634339E+03  0.00000000000E+00 0. -1.
         25    1    1    2    0    0  0.20588463406E+02 -0.10730477630E+02 -0.17514451242E+03  0.21357581372E+03  0.12000000000E+03 0.  0.
         25    1    1    2    0    0 -0.20588463406E+02  0.10730477630E+02  0.20501486997E+01  0.12224250932E+03  0.12000000000E+03 0.  0.
<mgrwt>
<rscale>  0 0.28777124E+03</rscale>
<asrwt>0</asrwt>
<pdfrwt beam="1">  1        2 0.12517228E-01 0.28777124E+03</pdfrwt>
<pdfrwt beam="2">  1       -2 0.39147129E-01 0.28777124E+03</pdfrwt>
<totfact> 0.30062363E+03</totfact>
</mgrwt>
</event>
<event>
 4    1  0.1672993E-004  0.3275994E+03  0.7818608E-02  0.1072204E+00
          1   -1    0    0  501    0  0.00000000000E+00  0.00000000000E+00  0.80464377278E+02  0.80464377278E+02  0.00000000000E+00 0.  1.
         -1   -1    0    0    0  501 -0.00000000000E+00 -0.00000000000E+00 -0.33344376607E+03  0.33344376607E+03  0.00000000000E+00 0.  1.
         25    1    1    2    0    0 -0.10648918972E+03  0.12735621318E+02 -0.87996676641E+02  0.18342725718E+03  0.12000000000E+03 0.  0.
         25    1    1    2    0    0  0.10648918972E+03 -0.12735621318E+02 -0.16498271215E+03  0.23048088616E+03  0.12000000000E+03 0.  0.
<mgrwt>
<rscale>  0 0.32759942E+03</rscale>
<asrwt>0</asrwt>
<pdfrwt beam="1">  1        1 0.12379135E-01 0.32759942E+03</pdfrwt>
<pdfrwt beam="2">  1       -1 0.51299042E-01 0.32759942E+03</pdfrwt>
<totfact> 0.18889513E+03</totfact>
</mgrwt>
</event>
<event>
 4    1  0.1672993E-004  0.2469386E+03  0.7818608E-02  0.1115255E+00
         -2   -1    0    0    0  501 -0.00000000000E+00  0.00000000000E+00  0.18471749446E+03  0.18471749446E+03  0.00000000000E+00 0.  1.
          2   -1    0    0  501    0  0.00000000000E+00 -0.00000000000E+00 -0.82529637743E+02  0.82529637743E+02  0.00000000000E+00 0.  1.
         25    1    1    2    0    0 -0.56200688966E+01  0.15148802324E+02  0.24949423618E+02  0.12362663599E+03  0.12000000000E+03 0.  0.
         25    1    1    2    0    0  0.56200688966E+01 -0.15148802324E+02  0.77238433099E+02  0.14362049622E+03  0.12000000000E+03 0.  0.
<mgrwt>
<rscale>  0 0.24693860E+03</rscale>
<asrwt>0</asrwt>
<pdfrwt beam="1">  1        2 0.12696867E-01 0.24693860E+03</pdfrwt>
<pdfrwt beam="2">  1       -2 0.28418076E-01 0.24693860E+03</pdfrwt>
<totfact> 0.53144661E+03</totfact>
</mgrwt>
</event>
<event>
 4    1  0.1672993E-004  0.2496115E+03  0.7818608E-02  0.1113551E+00
         -1   -1    0    0    0  501 -0.00000000000E+00  0.00000000000E+00  0.12597729235E+02  0.12597729235E+02  0.00000000000E+00 0.  1.
          1   -1    0    0  501    0  0.00000000000E+00 -0.00000000000E+00 -0.12364505824E+04  0.12364505824E+04  0.00000000000E+00 0.  1.
         25    1    1    2    0    0 -0.91649502742E+01  0.16282655052E+02 -0.46799389593E+03  0.48349499252E+03  0.12000000000E+03 0.  0.
         25    1    1    2    0    0  0.91649502742E+01 -0.16282655052E+02 -0.75585895725E+03  0.76555331913E+03  0.12000000000E+03 0.  0.
<mgrwt>
<rscale>  0 0.24961146E+03</rscale>
<asrwt>0</asrwt>
<pdfrwt beam="1">  1        1 0.19022317E+00 0.24961146E+03</pdfrwt>
<pdfrwt beam="2">  1       -1 0.19381121E-02 0.24961146E+03</pdfrwt>
<totfact> 0.77279106E+03</totfact>
</mgrwt>
</event>
<event>
 4    1  0.1672993E-004  0.2784916E+03  0.7818608E-02  0.1096516E+00
          2   -1    0    0  501    0  0.00000000000E+00  0.00000000000E+00  0.26349839110E+03  0.26349839110E+03  0.00000000000E+00 0. -1.
         -2   -1    0    0    0  501 -0.00000000000E+00 -0.00000000000E+00 -0.73584478904E+02  0.73584478904E+02  0.00000000000E+00 0. -1.
         25    1    1    2    0    0 -0.30655505897E+01  0.61344952427E+01  0.18004957249E+03  0.21648297436E+03  0.12000000000E+03 0.  0.
         25    1    1    2    0    0  0.30655505897E+01 -0.61344952427E+01  0.98643397048E+01  0.12059989565E+03  0.12000000000E+03 0.  0.
<mgrwt>
<rscale>  0 0.27849159E+03</rscale>
<asrwt>0</asrwt>
<pdfrwt beam="1">  1        2 0.40538213E-01 0.27849159E+03</pdfrwt>
<pdfrwt beam="2">  1       -2 0.11320689E-01 0.27849159E+03</pdfrwt>
<totfact> 0.67968549E+03</totfact>
</mgrwt>
</event>
<event>
 4    1  0.1672993E-004  0.2524689E+03  0.7818608E-02  0.1111754E+00
          2   -1    0    0  501    0  0.00000000000E+00  0.00000000000E+00  0.28376165939E+04  0.28376165939E+04  0.00000000000E+00 0.  1.
         -2   -1    0    0    0  501 -0.00000000000E+00 -0.00000000000E+00 -0.56156780384E+01  0.56156780384E+01  0.00000000000E+00 0.  1.
         25    1    1    2    0    0 -0.18943178755E+01  0.35282022250E+02  0.16066967314E+04  0.16115591196E+04  0.12000000000E+03 0.  0.
         25    1    1    2    0    0  0.18943178755E+01 -0.35282022250E+02  0.12253041845E+04  0.12316731523E+04  0.12000000000E+03 0.  0.
<mgrwt>
<rscale>  0 0.25246894E+03</rscale>
<asrwt>0</asrwt>
<pdfrwt beam="1">  1        2 0.43655525E+00 0.25246894E+03</pdfrwt>
<pdfrwt beam="2">  1       -2 0.86395273E-03 0.25246894E+03</pdfrwt>
<totfact> 0.68385547E+03</totfact>
</mgrwt>
</event>
<event>
 4    1  0.1672993E-004  0.3466307E+03  0.7818608E-02  0.1064006E+00
          2   -1    0    0  501    0  0.00000000000E+00  0.00000000000E+00  0.73207667567E+03  0.73207667567E+03  0.00000000000E+00 0. -1.
         -2   -1    0    0    0  501 -0.00000000000E+00 -0.00000000000E+00 -0.41031510938E+02  0.41031510938E+02  0.00000000000E+00 0. -1.
         25    1    1    2    0    0  0.38182341358E+02  0.21458457892E+02  0.84277571357E+02  0.15303942512E+03  0.12000000000E+03 0.  0.
         25    1    1    2    0    0 -0.38182341358E+02 -0.21458457892E+02  0.60676759338E+03  0.62006876149E+03  0.12000000000E+03 0.  0.
<mgrwt>
<rscale>  0 0.34663071E+03</rscale>
<asrwt>0</asrwt>
<pdfrwt beam="1">  1        2 0.11262717E+00 0.34663071E+03</pdfrwt>
<pdfrwt beam="2">  1       -2 0.63125407E-02 0.34663071E+03</pdfrwt>
<totfact> 0.54518867E+03</totfact>
</mgrwt>
</event>
<event>
 4    1  0.1672993E-004  0.2438940E+03  0.7818608E-02  0.1117226E+00
          1   -1    0    0  501    0  0.00000000000E+00  0.00000000000E+00  0.23188718912E+03  0.23188718912E+03  0.00000000000E+00 0.  1.
         -1   -1    0    0    0  501 -0.00000000000E+00 -0.00000000000E+00 -0.64130650362E+02  0.64130650362E+02  0.00000000000E+00 0.  1.
         25    1    1    2    0    0  0.14601945390E+02 -0.11181633495E+02  0.69889947672E+02  0.14008158524E+03  0.12000000000E+03 0.  0.
         25    1    1    2    0    0 -0.14601945390E+02  0.11181633495E+02  0.97866591083E+02  0.15593625424E+03  0.12000000000E+03 0.  0.
<mgrwt>
<rscale>  0 0.24389404E+03</rscale>
<asrwt>0</asrwt>
<pdfrwt beam="1">  1        1 0.35674952E-01 0.24389404E+03</pdfrwt>
<pdfrwt beam="2">  1       -1 0.98662540E-02 0.24389404E+03</pdfrwt>
<totfact> 0.74507630E+03</totfact>
</mgrwt>
</event>
<event>
 4    1  0.1672993E-004  0.2588873E+03  0.7818608E-02  0.1107814E+00
          1   -1    0    0  501    0  0.00000000000E+00  0.00000000000E+00  0.96253609196E+02  0.96253609196E+02  0.00000000000E+00 0. -1.
         -1   -1    0    0    0  501 -0.00000000000E+00 -0.00000000000E+00 -0.17407820968E+03  0.17407820968E+03  0.00000000000E+00 0. -1.
         25    1    1    2    0    0 -0.34170629787E+02 -0.91434905689E+01 -0.73614236185E+02  0.14515609229E+03  0.12000000000E+03 0.  0.
         25    1    1    2    0    0  0.34170629787E+02  0.91434905689E+01 -0.42103643021E+01  0.12517572659E+03  0.12000000000E+03 0.  0.
<mgrwt>
<rscale>  0 0.25888728E+03</rscale>
<asrwt>0</asrwt>
<pdfrwt beam="1">  1        1 0.14808248E-01 0.25888728E+03</pdfrwt>
<pdfrwt beam="2">  1       -1 0.26781263E-01 0.25888728E+03</pdfrwt>
<totfact> 0.46557340E+03</totfact>
</mgrwt>
</event>
<event>
 4    1  0.1672993E-004  0.2772373E+03  0.7818608E-02  0.1097208E+00
          2   -1    0    0  501    0  0.00000000000E+00  0.00000000000E+00  0.14379288246E+04  0.14379288246E+04  0.00000000000E+00 0. -1.
         -2   -1    0    0    0  501 -0.00000000000E+00 -0.00000000000E+00 -0.13363056686E+02  0.13363056686E+02  0.00000000000E+00 0. -1.
         25    1    1    2    0    0 -0.15066113527E+00 -0.29926111236E+02  0.38454990765E+03  0.40394829658E+03  0.12000000000E+03 0.  0.
         25    1    1    2    0    0  0.15066113527E+00  0.29926111236E+02  0.10400158603E+04  0.10473435847E+04  0.12000000000E+03 0.  0.
<mgrwt>
<rscale>  0 0.27723726E+03</rscale>
<asrwt>0</asrwt>
<pdfrwt beam="1">  1        2 0.22121970E+00 0.27723726E+03</pdfrwt>
<pdfrwt beam="2">  1       -2 0.20558560E-02 0.27723726E+03</pdfrwt>
<totfact> 0.10939973E+04</totfact>
</mgrwt>
</event>
<event>
 4    1  0.1672993E-004  0.2664483E+03  0.7818608E-02  0.1103330E+00
          1   -1    0    0  501    0  0.00000000000E+00  0.00000000000E+00  0.20500334780E+04  0.20500334780E+04  0.00000000000E+00 0. -1.
         -1   -1    0    0    0  501 -0.00000000000E+00 -0.00000000000E+00 -0.86577468827E+01  0.86577468827E+01  0.00000000000E+00 0. -1.
         25    1    1    2    0    0 -0.57138262996E+00  0.56512963281E+02  0.92460976390E+03  0.93407561631E+03  0.12000000000E+03 0.  0.
         25    1    1    2    0    0  0.57138262996E+00 -0.56512963281E+02  0.11167659672E+04  0.11246156086E+04  0.12000000000E+03 0.  0.
<mgrwt>
<rscale>  0 0.26644828E+03</rscale>
<asrwt>0</asrwt>
<pdfrwt beam="1">  1        1 0.31538938E+00 0.26644828E+03</pdfrwt>
<pdfrwt beam="2">  1       -1 0.13319627E-02 0.26644828E+03</pdfrwt>
<totfact> 0.38841149E+03</totfact>
</mgrwt>
</event>
<event>
 4    1  0.1672993E-004  0.2756244E+03  0.7818608E-02  0.1098103E+00
          4   -1    0    0  501    0  0.00000000000E+00  0.00000000000E+00  0.25507069413E+03  0.25507069413E+03  0.00000000000E+00 0. -1.
         -4   -1    0    0    0  501 -0.00000000000E+00 -0.00000000000E+00 -0.74458568467E+02  0.74458568467E+02  0.00000000000E+00 0. -1.
         25    1    1    2    0    0 -0.51072951108E+02 -0.32529059525E+01  0.37198211497E+02  0.13565667942E+03  0.12000000000E+03 0.  0.
         25    1    1    2    0    0  0.51072951108E+02  0.32529059525E+01  0.14341391416E+03  0.19387258318E+03  0.12000000000E+03 0.  0.
<mgrwt>
<rscale>  0 0.27562437E+03</rscale>
<asrwt>0</asrwt>
<pdfrwt beam="1">  1        4 0.39241645E-01 0.27562437E+03</pdfrwt>
<pdfrwt beam="2">  1       -4 0.11455164E-01 0.27562437E+03</pdfrwt>
<totfact> 0.71312244E+02</totfact>
</mgrwt>
</event>
<event>
 4    1  0.1672993E-004  0.3681257E+03  0.7818608E-02  0.1055412E+00
         -2   -1    0    0    0  501 -0.00000000000E+00  0.00000000000E+00  0.12939686807E+04  0.12939686807E+04  0.00000000000E+00 0.  1.
          2   -1    0    0  501    0  0.00000000000E+00 -0.00000000000E+00 -0.26182346348E+02  0.26182346348E+02  0.00000000000E+00 0.  1.
         25    1    1    2    0    0 -0.31573462551E+02  0.13586858982E+03  0.61708073069E+03  0.64392995382E+03  0.12000000000E+03 0.  0.
         25    1    1    2    0    0  0.31573462551E+02 -0.13586858982E+03  0.65070560364E+03  0.67622107321E+03  0.12000000000E+03 0.  0.
<mgrwt>
<rscale>  0 0.36812572E+03</rscale>
<asrwt>0</asrwt>
<pdfrwt beam="1">  1        2 0.40280543E-02 0.36812572E+03</pdfrwt>
<pdfrwt beam="2">  1       -2 0.19907205E+00 0.36812572E+03</pdfrwt>
<totfact> 0.30718936E+02</totfact>
</mgrwt>
</event>
<event>
 4    1  0.1672993E-004  0.2670609E+03  0.7818608E-02  0.1102974E+00
         -3   -1    0    0    0  501 -0.00000000000E+00  0.00000000000E+00  0.21604809410E+04  0.21604809410E+04  0.00000000000E+00 0.  1.
          3   -1    0    0  501    0  0.00000000000E+00 -0.00000000000E+00 -0.82529684170E+01  0.82529684170E+01  0.00000000000E+00 0.  1.
         25    1    1    2    0    0 -0.25700715371E+02 -0.31539656339E+02  0.14182571749E+04  0.14239061384E+04  0.12000000000E+03 0.  0.
         25    1    1    2    0    0  0.25700715371E+02  0.31539656339E+02  0.73397079769E+03  0.74482777107E+03  0.12000000000E+03 0.  0.
<mgrwt>
<rscale>  0 0.26706090E+03</rscale>
<asrwt>0</asrwt>
<pdfrwt beam="1">  1        3 0.12696892E-02 0.26706090E+03</pdfrwt>
<pdfrwt beam="2">  1       -3 0.33238123E+00 0.26706090E+03</pdfrwt>
<totfact> 0.14186439E+02</totfact>
</mgrwt>
</event>
<event>
 4    1  0.1672993E-004  0.3141302E+03  0.7818608E-02  0.1078383E+00
          3   -1    0    0  501    0  0.00000000000E+00  0.00000000000E+00  0.33425080883E+03  0.33425080883E+03  0.00000000000E+00 0. -1.
         -3   -1    0    0    0  501 -0.00000000000E+00 -0.00000000000E+00 -0.73805216772E+02  0.73805216772E+02  0.00000000000E+00 0. -1.
         25    1    1    2    0    0  0.79853811470E+02 -0.41266599198E+02  0.19101126216E+03  0.24282682242E+03  0.12000000000E+03 0.  0.
         25    1    1    2    0    0 -0.79853811470E+02  0.41266599198E+02  0.69434329902E+02  0.16522920318E+03  0.12000000000E+03 0.  0.
<mgrwt>
<rscale>  0 0.31413025E+03</rscale>
<asrwt>0</asrwt>
<pdfrwt beam="1">  1        3 0.51423201E-01 0.31413025E+03</pdfrwt>
<pdfrwt beam="2">  1       -3 0.11354649E-01 0.31413025E+03</pdfrwt>
<totfact> 0.57920080E+02</totfact>
</mgrwt>
</event>
<event>
 4    1  0.1672993E-004  0.3314263E+03  0.7818608E-02  0.1070507E+00
         -3   -1    0    0    0  501 -0.00000000000E+00  0.00000000000E+00  0.41918007613E+02  0.41918007613E+02  0.00000000000E+00 0. -1.
          3   -1    0    0  501    0  0.00000000000E+00 -0.00000000000E+00 -0.65510878980E+03  0.65510878980E+03  0.00000000000E+00 0. -1.
         25    1    1    2    0    0  0.10294675999E+03  0.45553089380E+02 -0.26518298608E+03  0.31208193708E+03  0.12000000000E+03 0.  0.
         25    1    1    2    0    0 -0.10294675999E+03 -0.45553089380E+02 -0.34800779610E+03  0.38494486032E+03  0.12000000000E+03 0.  0.
<mgrwt>
<rscale>  0 0.33142634E+03</rscale>
<asrwt>0</asrwt>
<pdfrwt beam="1">  1        3 0.10078596E+00 0.33142634E+03</pdfrwt>
<pdfrwt beam="2">  1       -3 0.64489248E-02 0.33142634E+03</pdfrwt>
<totfact> 0.34725640E+02</totfact>
</mgrwt>
</event>
<event>
 4    1  0.1672993E-004  0.2685601E+03  0.7818608E-02  0.1102107E+00
         -2   -1    0    0    0  501 -0.00000000000E+00  0.00000000000E+00  0.80267728192E+01  0.80267728192E+01  0.00000000000E+00 0. -1.
          2   -1    0    0  501    0  0.00000000000E+00 -0.00000000000E+00 -0.22463742688E+04  0.22463742688E+04  0.00000000000E+00 0. -1.
         25    1    1    2    0    0  0.58082782710E+02 -0.16411828720E+01 -0.12531776038E+04  0.12602501378E+04  0.12000000000E+03 0.  0.
         25    1    1    2    0    0 -0.58082782710E+02  0.16411828720E+01 -0.98516989213E+03  0.99415090378E+03  0.12000000000E+03 0.  0.
<mgrwt>
<rscale>  0 0.26856013E+03</rscale>
<asrwt>0</asrwt>
<pdfrwt beam="1">  1        2 0.34559578E+00 0.26856013E+03</pdfrwt>
<pdfrwt beam="2">  1       -2 0.12348891E-02 0.26856013E+03</pdfrwt>
<totfact> 0.86223413E+03</totfact>
</mgrwt>
</event>
<event>
 4    1  0.1672993E-004  0.4341208E+03  0.7818608E-02  0.1032566E+00
         -1   -1    0    0    0  501 -0.00000000000E+00  0.00000000000E+00  0.28653585980E+03  0.28653585980E+03  0.00000000000E+00 0.  1.
          1   -1    0    0  501    0  0.00000000000E+00 -0.00000000000E+00 -0.16443047682E+03  0.16443047682E+03  0.00000000000E+00 0.  1.
         25    1    1    2    0    0  0.14709105304E+03  0.90156541888E+01  0.16999426841E+03  0.25498060945E+03  0.12000000000E+03 0.  0.
         25    1    1    2    0    0 -0.14709105304E+03 -0.90156541888E+01 -0.47888885429E+02  0.19598572717E+03  0.12000000000E+03 0.  0.
<mgrwt>
<rscale>  0 0.43412085E+03</rscale>
<asrwt>0</asrwt>
<pdfrwt beam="1">  1        1 0.25296996E-01 0.43412085E+03</pdfrwt>
<pdfrwt beam="2">  1       -1 0.44082440E-01 0.43412085E+03</pdfrwt>
<totfact> 0.98028888E+02</totfact>
</mgrwt>
</event>
<event>
 4    1  0.1672993E-004  0.2707417E+03  0.7818608E-02  0.1100856E+00
         -1   -1    0    0    0  501 -0.00000000000E+00  0.00000000000E+00  0.16211592273E+02  0.16211592273E+02  0.00000000000E+00 0.  1.
          1   -1    0    0  501    0  0.00000000000E+00 -0.00000000000E+00 -0.11303808684E+04  0.11303808684E+04  0.00000000000E+00 0.  1.
         25    1    1    2    0    0  0.44767540069E+02  0.39201897436E+02 -0.47405777714E+03  0.49261719161E+03  0.12000000000E+03 0.  0.
         25    1    1    2    0    0 -0.44767540069E+02 -0.39201897436E+02 -0.64011149901E+03  0.65397526908E+03  0.12000000000E+03 0.  0.
<mgrwt>
<rscale>  0 0.27074175E+03</rscale>
<asrwt>0</asrwt>
<pdfrwt beam="1">  1        1 0.17390484E+00 0.27074175E+03</pdfrwt>
<pdfrwt beam="2">  1       -1 0.24940898E-02 0.27074175E+03</pdfrwt>
<totfact> 0.63529836E+03</totfact>
</mgrwt>
</event>
<event>
 4    1  0.1672993E-004  0.2735954E+03  0.7818608E-02  0.1099239E+00
         -4   -1    0    0    0  501 -0.00000000000E+00  0.00000000000E+00  0.29640788229E+03  0.29640788229E+03  0.00000000000E+00 0.  1.
          4   -1    0    0  501    0  0.00000000000E+00 -0.00000000000E+00 -0.63134671806E+02  0.63134671806E+02  0.00000000000E+00 0.  1.
         25    1    1    2    0    0 -0.46867519931E+02  0.34215533368E+02  0.15706315906E+03  0.20600025020E+03  0.12000000000E+03 0.  0.
         25    1    1    2    0    0  0.46867519931E+02 -0.34215533368E+02  0.76210051426E+02  0.15354230390E+03  0.12000000000E+03 0.  0.
<mgrwt>
<rscale>  0 0.27359543E+03</rscale>
<asrwt>0</asrwt>
<pdfrwt beam="1">  1        4 0.97130266E-02 0.27359543E+03</pdfrwt>
<pdfrwt beam="2">  1       -4 0.45601212E-01 0.27359543E+03</pdfrwt>
<totfact> 0.69876481E+02</totfact>
</mgrwt>
</event>
<event>
 4    1  0.1672993E-004  0.2799236E+03  0.7818608E-02  0.1095731E+00
          1   -1    0    0  501    0  0.00000000000E+00  0.00000000000E+00  0.10752896727E+04  0.10752896727E+04  0.00000000000E+00 0. -1.
         -1   -1    0    0    0  501 -0.00000000000E+00 -0.00000000000E+00 -0.18217701191E+02  0.18217701191E+02  0.00000000000E+00 0. -1.
         25    1    1    2    0    0 -0.18370112615E+01 -0.63286636818E+02  0.39430337548E+03  0.41699367492E+03  0.12000000000E+03 0.  0.
         25    1    1    2    0    0  0.18370112615E+01  0.63286636818E+02  0.66276859605E+03  0.67651369899E+03  0.12000000000E+03 0.  0.
<mgrwt>
<rscale>  0 0.27992360E+03</rscale>
<asrwt>0</asrwt>
<pdfrwt beam="1">  1        1 0.16542913E+00 0.27992360E+03</pdfrwt>
<pdfrwt beam="2">  1       -1 0.28027241E-02 0.27992360E+03</pdfrwt>
<totfact> 0.58666517E+03</totfact>
</mgrwt>
</event>
<event>
 4    1  0.1672993E-004  0.3419299E+03  0.7818608E-02  0.1065977E+00
         -2   -1    0    0    0  501 -0.00000000000E+00  0.00000000000E+00  0.10642976765E+02  0.10642976765E+02  0.00000000000E+00 0. -1.
          2   -1    0    0  501    0  0.00000000000E+00 -0.00000000000E+00 -0.27463197805E+04  0.27463197805E+04  0.00000000000E+00 0. -1.
         25    1    1    2    0    0 -0.85965783677E+00 -0.23521640368E+02 -0.40449301814E+03  0.42257379036E+03  0.12000000000E+03 0.  0.
         25    1    1    2    0    0  0.85965783677E+00  0.23521640368E+02 -0.23311837856E+04  0.23343889669E+04  0.12000000000E+03 0.  0.
<mgrwt>
<rscale>  0 0.34192992E+03</rscale>
<asrwt>0</asrwt>
<pdfrwt beam="1">  1        2 0.42251065E+00 0.34192992E+03</pdfrwt>
<pdfrwt beam="2">  1       -2 0.16373814E-02 0.34192992E+03</pdfrwt>
<totfact> 0.30170302E+03</totfact>
</mgrwt>
</event>
<event>
 4    1  0.1672993E-004  0.2633497E+03  0.7818608E-02  0.1105147E+00
         -2   -1    0    0    0  501 -0.00000000000E+00  0.00000000000E+00  0.69952160135E+02  0.69952160135E+02  0.00000000000E+00 0.  1.
          2   -1    0    0  501    0  0.00000000000E+00 -0.00000000000E+00 -0.24785898250E+03  0.24785898250E+03  0.00000000000E+00 0.  1.
         25    1    1    2    0    0 -0.42220652874E+02 -0.91714342697E+01 -0.49448871338E+02  0.13679140913E+03  0.12000000000E+03 0.  0.
         25    1    1    2    0    0  0.42220652874E+02  0.91714342697E+01 -0.12845795103E+03  0.18101973351E+03  0.12000000000E+03 0.  0.
<mgrwt>
<rscale>  0 0.26334974E+03</rscale>
<asrwt>0</asrwt>
<pdfrwt beam="1">  1        2 0.38132152E-01 0.26334974E+03</pdfrwt>
<pdfrwt beam="2">  1       -2 0.10761871E-01 0.26334974E+03</pdfrwt>
<totfact> 0.78569977E+03</totfact>
</mgrwt>
</event>
<event>
 4    1  0.1672993E-004  0.2501507E+03  0.7818608E-02  0.1113210E+00
         -2   -1    0    0    0  501 -0.00000000000E+00  0.00000000000E+00  0.12696631246E+02  0.12696631246E+02  0.00000000000E+00 0. -1.
          2   -1    0    0  501    0  0.00000000000E+00 -0.00000000000E+00 -0.12321257497E+04  0.12321257497E+04  0.00000000000E+00 0. -1.
         25    1    1    2    0    0 -0.77251566716E+01 -0.20849667402E+02 -0.74594674990E+03  0.75586436638E+03  0.12000000000E+03 0.  0.
         25    1    1    2    0    0  0.77251566716E+01  0.20849667402E+02 -0.47348236856E+03  0.48895801457E+03  0.12000000000E+03 0.  0.
<mgrwt>
<rscale>  0 0.25015072E+03</rscale>
<asrwt>0</asrwt>
<pdfrwt beam="1">  1        2 0.18955778E+00 0.25015072E+03</pdfrwt>
<pdfrwt beam="2">  1       -2 0.19533282E-02 0.25015072E+03</pdfrwt>
<totfact> 0.15256746E+04</totfact>
</mgrwt>
</event>
<event>
 4    1  0.1672993E-004  0.2701365E+03  0.7818608E-02  0.1101201E+00
          1   -1    0    0  501    0  0.00000000000E+00  0.00000000000E+00  0.84357532988E+03  0.84357532988E+03  0.00000000000E+00 0.  1.
         -1   -1    0    0    0  501 -0.00000000000E+00 -0.00000000000E+00 -0.21626326342E+02  0.21626326342E+02  0.00000000000E+00 0.  1.
         25    1    1    2    0    0  0.57174813280E+02 -0.11677435403E+02  0.34393552056E+03  0.36891322024E+03  0.12000000000E+03 0.  0.
         25    1    1    2    0    0 -0.57174813280E+02  0.11677435403E+02  0.47801348298E+03  0.49628843598E+03  0.12000000000E+03 0.  0.
<mgrwt>
<rscale>  0 0.27013652E+03</rscale>
<asrwt>0</asrwt>
<pdfrwt beam="1">  1        1 0.12978079E+00 0.27013652E+03</pdfrwt>
<pdfrwt beam="2">  1       -1 0.33271278E-02 0.27013652E+03</pdfrwt>
<totfact> 0.68436530E+03</totfact>
</mgrwt>
</event>
<event>
 4    1  0.1672993E-004  0.2572035E+03  0.7818608E-02  0.1108835E+00
          1   -1    0    0  501    0  0.00000000000E+00  0.00000000000E+00  0.46698350318E+03  0.46698350318E+03  0.00000000000E+00 0.  1.
         -1   -1    0    0    0  501 -0.00000000000E+00 -0.00000000000E+00 -0.35415416002E+02  0.35415416002E+02  0.00000000000E+00 0.  1.
         25    1    1    2    0    0 -0.40655767869E+02 -0.16988306344E+02  0.18837349083E+03  0.22765339018E+03  0.12000000000E+03 0.  0.
         25    1    1    2    0    0  0.40655767869E+02  0.16988306344E+02  0.24319459634E+03  0.27474552900E+03  0.12000000000E+03 0.  0.
<mgrwt>
<rscale>  0 0.25720354E+03</rscale>
<asrwt>0</asrwt>
<pdfrwt beam="1">  1        1 0.71843611E-01 0.25720354E+03</pdfrwt>
<pdfrwt beam="2">  1       -1 0.54485259E-02 0.25720354E+03</pdfrwt>
<totfact> 0.75817024E+03</totfact>
</mgrwt>
</event>
<event>
 4    1  0.1672993E-004  0.2909065E+03  0.7818608E-02  0.1089877E+00
          2   -1    0    0  501    0  0.00000000000E+00  0.00000000000E+00  0.57461376084E+03  0.57461376084E+03  0.00000000000E+00 0. -1.
         -2   -1    0    0    0  501 -0.00000000000E+00 -0.00000000000E+00 -0.36818893585E+02  0.36818893585E+02  0.00000000000E+00 0. -1.
         25    1    1    2    0    0  0.48056688426E+02  0.58658084852E+02  0.20221885574E+03  0.24706817245E+03  0.12000000000E+03 0.  0.
         25    1    1    2    0    0 -0.48056688426E+02 -0.58658084852E+02  0.33557601152E+03  0.36436448198E+03  0.12000000000E+03 0.  0.
<mgrwt>
<rscale>  0 0.29090647E+03</rscale>
<asrwt>0</asrwt>
<pdfrwt beam="1">  1        2 0.88402111E-01 0.29090647E+03</pdfrwt>
<pdfrwt beam="2">  1       -2 0.56644456E-02 0.29090647E+03</pdfrwt>
<totfact> 0.85635720E+03</totfact>
</mgrwt>
</event>
<event>
 4    1  0.1672993E-004  0.2641272E+03  0.7818608E-02  0.1104689E+00
         -2   -1    0    0    0  501 -0.00000000000E+00  0.00000000000E+00  0.21834616855E+03  0.21834616855E+03  0.00000000000E+00 0.  1.
          2   -1    0    0  501    0  0.00000000000E+00 -0.00000000000E+00 -0.79876832993E+02  0.79876832993E+02  0.00000000000E+00 0.  1.
         25    1    1    2    0    0 -0.40697783415E+02  0.15409081696E+01  0.11121059087E+03  0.16860154061E+03  0.12000000000E+03 0.  0.
         25    1    1    2    0    0  0.40697783415E+02 -0.15409081696E+01  0.27258744681E+02  0.12962146093E+03  0.12000000000E+03 0.  0.
<mgrwt>
<rscale>  0 0.26412725E+03</rscale>
<asrwt>0</asrwt>
<pdfrwt beam="1">  1        2 0.12288744E-01 0.26412725E+03</pdfrwt>
<pdfrwt beam="2">  1       -2 0.33591718E-01 0.26412725E+03</pdfrwt>
<totfact> 0.40860795E+03</totfact>
</mgrwt>
</event>
<event>
 4    1  0.1672993E-004  0.2567316E+03  0.7818608E-02  0.1109123E+00
          2   -1    0    0  501    0  0.00000000000E+00  0.00000000000E+00  0.14228975341E+04  0.14228975341E+04  0.00000000000E+00 0. -1.
         -2   -1    0    0    0  501 -0.00000000000E+00 -0.00000000000E+00 -0.11580443591E+02  0.11580443591E+02  0.00000000000E+00 0. -1.
         25    1    1    2    0    0 -0.19108919782E+02  0.81519203127E+01  0.93235939087E+03  0.94027955330E+03  0.12000000000E+03 0.  0.
         25    1    1    2    0    0  0.19108919782E+02 -0.81519203127E+01  0.47895769960E+03  0.49419842435E+03  0.12000000000E+03 0.  0.
<mgrwt>
<rscale>  0 0.25673165E+03</rscale>
<asrwt>0</asrwt>
<pdfrwt beam="1">  1        2 0.21890717E+00 0.25673165E+03</pdfrwt>
<pdfrwt beam="2">  1       -2 0.17816078E-02 0.25673165E+03</pdfrwt>
<totfact> 0.13728074E+04</totfact>
</mgrwt>
</event>
<event>
 4    1  0.1672993E-004  0.3574111E+03  0.7818608E-02  0.1059614E+00
         -1   -1    0    0    0  501 -0.00000000000E+00  0.00000000000E+00  0.23536578142E+02  0.23536578142E+02  0.00000000000E+00 0. -1.
          1   -1    0    0  501    0  0.00000000000E+00 -0.00000000000E+00 -0.13568529950E+04  0.13568529950E+04  0.00000000000E+00 0. -1.
         25    1    1    2    0    0  0.47457613164E+02 -0.46206264222E+02 -0.22379397525E+03  0.26243282428E+03  0.12000000000E+03 0.  0.
         25    1    1    2    0    0 -0.47457613164E+02  0.46206264222E+02 -0.11095224416E+04  0.11179567488E+04  0.12000000000E+03 0.  0.
<mgrwt>
<rscale>  0 0.35741112E+03</rscale>
<asrwt>0</asrwt>
<pdfrwt beam="1">  1        1 0.20874664E+00 0.35741112E+03</pdfrwt>
<pdfrwt beam="2">  1       -1 0.36210116E-02 0.35741112E+03</pdfrwt>
<totfact> 0.25483751E+03</totfact>
</mgrwt>
</event>
<event>
 4    1  0.1672993E-004  0.3056142E+03  0.7818608E-02  0.1082467E+00
          2   -1    0    0  501    0  0.00000000000E+00  0.00000000000E+00  0.59497276366E+03  0.59497276366E+03  0.00000000000E+00 0.  1.
         -2   -1    0    0    0  501 -0.00000000000E+00 -0.00000000000E+00 -0.39245500208E+02  0.39245500208E+02  0.00000000000E+00 0.  1.
         25    1    1    2    0    0  0.41273942263E+02  0.81350235713E+02  0.22583360667E+03  0.27151835492E+03  0.12000000000E+03 0.  0.
         25    1    1    2    0    0 -0.41273942263E+02 -0.81350235713E+02  0.32989365679E+03  0.36269990895E+03  0.12000000000E+03 0.  0.
<mgrwt>
<rscale>  0 0.30561416E+03</rscale>
<asrwt>0</asrwt>
<pdfrwt beam="1">  1        2 0.91534265E-01 0.30561416E+03</pdfrwt>
<pdfrwt beam="2">  1       -2 0.60377697E-02 0.30561416E+03</pdfrwt>
<totfact> 0.74686784E+03</totfact>
</mgrwt>
</event>
<event>
 4    1  0.1672993E-004  0.3001772E+03  0.7818608E-02  0.1085152E+00
         -2   -1    0    0    0  501 -0.00000000000E+00  0.00000000000E+00  0.25808806086E+02  0.25808806086E+02  0.00000000000E+00 0. -1.
          2   -1    0    0  501    0  0.00000000000E+00 -0.00000000000E+00 -0.87282544442E+03  0.87282544442E+03  0.00000000000E+00 0. -1.
         25    1    1    2    0    0  0.81835183504E+02 -0.19895094305E+02 -0.51976201293E+03  0.54004200034E+03  0.12000000000E+03 0.  0.
         25    1    1    2    0    0 -0.81835183504E+02  0.19895094305E+02 -0.32725462540E+03  0.35859225017E+03  0.12000000000E+03 0.  0.
<mgrwt>
<rscale>  0 0.30017717E+03</rscale>
<asrwt>0</asrwt>
<pdfrwt beam="1">  1        2 0.13428084E+00 0.30017717E+03</pdfrwt>
<pdfrwt beam="2">  1       -2 0.39705854E-02 0.30017717E+03</pdfrwt>
<totfact> 0.88026341E+03</totfact>
</mgrwt>
</event>
<event>
 4    1  0.1672993E-004  0.3567185E+03  0.7818608E-02  0.1059891E+00
          1   -1    0    0  501    0  0.00000000000E+00  0.00000000000E+00  0.20121920553E+03  0.20121920553E+03  0.00000000000E+00 0. -1.
         -1   -1    0    0    0  501 -0.00000000000E+00 -0.00000000000E+00 -0.15809636551E+03  0.15809636551E+03  0.00000000000E+00 0. -1.
         25    1    1    2    0    0  0.38434183413E+02  0.12424386652E+03  0.44046577522E+02  0.18235631553E+03  0.12000000000E+03 0.  0.
         25    1    1    2    0    0 -0.38434183413E+02 -0.12424386652E+03 -0.92373750015E+00  0.17695925551E+03  0.12000000000E+03 0.  0.
<mgrwt>
<rscale>  0 0.35671852E+03</rscale>
<asrwt>0</asrwt>
<pdfrwt beam="1">  1        1 0.30956801E-01 0.35671852E+03</pdfrwt>
<pdfrwt beam="2">  1       -1 0.24322518E-01 0.35671852E+03</pdfrwt>
<totfact> 0.21297459E+03</totfact>
</mgrwt>
</event>
<event>
 4    1  0.1672993E-004  0.2639219E+03  0.7818608E-02  0.1104810E+00
         -1   -1    0    0    0  501 -0.00000000000E+00  0.00000000000E+00  0.96864136883E+01  0.96864136883E+01  0.00000000000E+00 0.  1.
          1   -1    0    0  501    0  0.00000000000E+00 -0.00000000000E+00 -0.17977441206E+04  0.17977441206E+04  0.00000000000E+00 0.  1.
         25    1    1    2    0    0 -0.39204374675E+02 -0.38343492744E+02 -0.91147109785E+03  0.92097055797E+03  0.12000000000E+03 0.  0.
         25    1    1    2    0    0  0.39204374675E+02  0.38343492744E+02 -0.87658660903E+03  0.88645997629E+03  0.12000000000E+03 0.  0.
<mgrwt>
<rscale>  0 0.26392191E+03</rscale>
<asrwt>0</asrwt>
<pdfrwt beam="1">  1        1 0.27657615E+00 0.26392191E+03</pdfrwt>
<pdfrwt beam="2">  1       -1 0.14902168E-02 0.26392191E+03</pdfrwt>
<totfact> 0.48094874E+03</totfact>
</mgrwt>
</event>
<event>
 4    1  0.1672993E-004  0.2703260E+03  0.7818608E-02  0.1101093E+00
          1   -1    0    0  501    0  0.00000000000E+00  0.00000000000E+00  0.19303572131E+04  0.19303572131E+04  0.00000000000E+00 0. -1.
         -1   -1    0    0    0  501 -0.00000000000E+00 -0.00000000000E+00 -0.94640674663E+01  0.94640674663E+01  0.00000000000E+00 0. -1.
         25    1    1    2    0    0 -0.95444612276E+00 -0.61496983159E+02  0.10270859369E+04  0.10358997595E+04  0.12000000000E+03 0.  0.
         25    1    1    2    0    0  0.95444612276E+00  0.61496983159E+02  0.89380720869E+03  0.90392152105E+03  0.12000000000E+03 0.  0.
<mgrwt>
<rscale>  0 0.27032596E+03</rscale>
<asrwt>0</asrwt>
<pdfrwt beam="1">  1        1 0.29697772E+00 0.27032596E+03</pdfrwt>
<pdfrwt beam="2">  1       -1 0.14560119E-02 0.27032596E+03</pdfrwt>
<totfact> 0.40807998E+03</totfact>
</mgrwt>
</event>
<event>
 4    1  0.1672993E-004  0.3068366E+03  0.7818608E-02  0.1081872E+00
         -1   -1    0    0    0  501 -0.00000000000E+00  0.00000000000E+00  0.20862895879E+03  0.20862895879E+03  0.00000000000E+00 0. -1.
          1   -1    0    0  501    0  0.00000000000E+00 -0.00000000000E+00 -0.11281832639E+03  0.11281832639E+03  0.00000000000E+00 0. -1.
         25    1    1    2    0    0 -0.79552239777E+02  0.52358872154E+02  0.39319990733E+02  0.15816469903E+03  0.12000000000E+03 0.  0.
         25    1    1    2    0    0  0.79552239777E+02 -0.52358872154E+02  0.56490641661E+02  0.16328258616E+03  0.12000000000E+03 0.  0.
<mgrwt>
<rscale>  0 0.30683657E+03</rscale>
<asrwt>0</asrwt>
<pdfrwt beam="1">  1        1 0.17356666E-01 0.30683657E+03</pdfrwt>
<pdfrwt beam="2">  1       -1 0.32096763E-01 0.30683657E+03</pdfrwt>
<totfact> 0.27944354E+03</totfact>
</mgrwt>
</event>
<event>
 4    1  0.1672993E-004  0.3035297E+03  0.7818608E-02  0.1083489E+00
          1   -1    0    0  501    0  0.00000000000E+00  0.00000000000E+00  0.12547729819E+03  0.12547729819E+03  0.00000000000E+00 0. -1.
         -1   -1    0    0    0  501 -0.00000000000E+00 -0.00000000000E+00 -0.18355960131E+03  0.18355960131E+03  0.00000000000E+00 0. -1.
         25    1    1    2    0    0 -0.57740360198E+02  0.65657694429E+02 -0.61038759664E+02  0.16053227780E+03  0.12000000000E+03 0.  0.
         25    1    1    2    0    0  0.57740360198E+02 -0.65657694429E+02  0.29564565461E+01  0.14850462171E+03  0.12000000000E+03 0.  0.
<mgrwt>
<rscale>  0 0.30352965E+03</rscale>
<asrwt>0</asrwt>
<pdfrwt beam="1">  1        1 0.19304200E-01 0.30352965E+03</pdfrwt>
<pdfrwt beam="2">  1       -1 0.28239939E-01 0.30352965E+03</pdfrwt>
<totfact> 0.30272088E+03</totfact>
</mgrwt>
</event>
<event>
 4    1  0.1672993E-004  0.6558244E+03  0.7818608E-02  0.9795911E-01
          2   -1    0    0  501    0  0.00000000000E+00  0.00000000000E+00  0.64377721763E+03  0.64377721763E+03  0.00000000000E+00 0.  1.
         -2   -1    0    0    0  501 -0.00000000000E+00 -0.00000000000E+00 -0.16702428087E+03  0.16702428087E+03  0.00000000000E+00 0.  1.
         25    1    1    2    0    0 -0.18744935143E+03  0.21801904055E+03  0.11195300044E+03  0.33106349195E+03  0.12000000000E+03 0.  0.
         25    1    1    2    0    0  0.18744935143E+03 -0.21801904055E+03  0.36479993632E+03  0.47973800655E+03  0.12000000000E+03 0.  0.
<mgrwt>
<rscale>  0 0.65582445E+03</rscale>
<asrwt>0</asrwt>
<pdfrwt beam="1">  1        2 0.99042648E-01 0.65582445E+03</pdfrwt>
<pdfrwt beam="2">  1       -2 0.25696044E-01 0.65582445E+03</pdfrwt>
<totfact> 0.62406550E+02</totfact>
</mgrwt>
</event>
<event>
 4    1  0.1672993E-004  0.2637503E+03  0.7818608E-02  0.1104911E+00
         -3   -1    0    0    0  501 -0.00000000000E+00  0.00000000000E+00  0.46383339340E+02  0.46383339340E+02  0.00000000000E+00 0.  1.
          3   -1    0    0  501    0  0.00000000000E+00 -0.00000000000E+00 -0.37494196240E+03  0.37494196240E+03  0.00000000000E+00 0.  1.
         25    1    1    2    0    0  0.25385112865E+02 -0.48390679876E+02 -0.16785073148E+03  0.21344772173E+03  0.12000000000E+03 0.  0.
         25    1    1    2    0    0 -0.25385112865E+02  0.48390679876E+02 -0.16070789159E+03  0.20787758001E+03  0.12000000000E+03 0.  0.
<mgrwt>
<rscale>  0 0.26375034E+03</rscale>
<asrwt>0</asrwt>
<pdfrwt beam="1">  1        3 0.57683380E-01 0.26375034E+03</pdfrwt>
<pdfrwt beam="2">  1       -3 0.71358982E-02 0.26375034E+03</pdfrwt>
<totfact> 0.97240191E+02</totfact>
</mgrwt>
</event>
<event>
 4    1  0.1672993E-004  0.2710855E+03  0.7818608E-02  0.1100660E+00
         -1   -1    0    0    0  501 -0.00000000000E+00  0.00000000000E+00  0.30938343387E+03  0.30938343387E+03  0.00000000000E+00 0. -1.
          1   -1    0    0  501    0  0.00000000000E+00 -0.00000000000E+00 -0.59382117350E+02  0.59382117350E+02  0.00000000000E+00 0. -1.
         25    1    1    2    0    0  0.15234305432E+02  0.57065396728E+02  0.15490624266E+03  0.20465699983E+03  0.12000000000E+03 0.  0.
         25    1    1    2    0    0 -0.15234305432E+02 -0.57065396728E+02  0.95095073862E+02  0.16410855139E+03  0.12000000000E+03 0.  0.
<mgrwt>
<rscale>  0 0.27108555E+03</rscale>
<asrwt>0</asrwt>
<pdfrwt beam="1">  1        1 0.91357106E-02 0.27108555E+03</pdfrwt>
<pdfrwt beam="2">  1       -1 0.47597450E-01 0.27108555E+03</pdfrwt>
<totfact> 0.32499335E+03</totfact>
</mgrwt>
</event>
<event>
 4    1  0.1672993E-004  0.2541119E+03  0.7818608E-02  0.1110733E+00
         -2   -1    0    0    0  501 -0.00000000000E+00  0.00000000000E+00  0.23765543575E+02  0.23765543575E+02  0.00000000000E+00 0. -1.
          2   -1    0    0  501    0  0.00000000000E+00 -0.00000000000E+00 -0.67926979926E+03  0.67926979926E+03  0.00000000000E+00 0. -1.
         25    1    1    2    0    0  0.28374665926E+02 -0.30608440831E+02 -0.33080509215E+03  0.35436422972E+03  0.12000000000E+03 0.  0.
         25    1    1    2    0    0 -0.28374665926E+02  0.30608440831E+02 -0.32469916353E+03  0.34867111311E+03  0.12000000000E+03 0.  0.
<mgrwt>
<rscale>  0 0.25411191E+03</rscale>
<asrwt>0</asrwt>
<pdfrwt beam="1">  1        2 0.10450302E+00 0.25411191E+03</pdfrwt>
<pdfrwt beam="2">  1       -2 0.36562383E-02 0.25411191E+03</pdfrwt>
<totfact> 0.13575626E+04</totfact>
</mgrwt>
</event>
<event>
 4    1  0.1672993E-004  0.3031610E+03  0.7818608E-02  0.1083671E+00
         -2   -1    0    0    0  501 -0.00000000000E+00  0.00000000000E+00  0.11572142167E+04  0.11572142167E+04  0.00000000000E+00 0. -1.
          2   -1    0    0  501    0  0.00000000000E+00 -0.00000000000E+00 -0.19855132705E+02  0.19855132705E+02  0.00000000000E+00 0. -1.
         25    1    1    2    0    0 -0.51813400604E+02  0.62615824036E+01  0.27164234333E+03  0.30151848796E+03  0.12000000000E+03 0.  0.
         25    1    1    2    0    0  0.51813400604E+02 -0.62615824036E+01  0.86571674062E+03  0.87555086140E+03  0.12000000000E+03 0.  0.
<mgrwt>
<rscale>  0 0.30316096E+03</rscale>
<asrwt>0</asrwt>
<pdfrwt beam="1">  1        2 0.30546367E-02 0.30316096E+03</pdfrwt>
<pdfrwt beam="2">  1       -2 0.17803290E+00 0.30316096E+03</pdfrwt>
<totfact> 0.61449896E+02</totfact>
</mgrwt>
</event>
<event>
 4    1  0.1672993E-004  0.2988125E+03  0.7818608E-02  0.1085836E+00
          2   -1    0    0  501    0  0.00000000000E+00  0.00000000000E+00  0.31631377150E+03  0.31631377150E+03  0.00000000000E+00 0.  1.
         -2   -1    0    0    0  501 -0.00000000000E+00 -0.00000000000E+00 -0.70569906004E+02  0.70569906004E+02  0.00000000000E+00 0.  1.
         25    1    1    2    0    0 -0.35444574565E+02 -0.32161954330E+02  0.22003351079E+03  0.25515770622E+03  0.12000000000E+03 0.  0.
         25    1    1    2    0    0  0.35444574565E+02  0.32161954330E+02  0.25710354709E+02  0.13172597129E+03  0.12000000000E+03 0.  0.
<mgrwt>
<rscale>  0 0.29881254E+03</rscale>
<asrwt>0</asrwt>
<pdfrwt beam="1">  1        2 0.48663656E-01 0.29881254E+03</pdfrwt>
<pdfrwt beam="2">  1       -2 0.10856909E-01 0.29881254E+03</pdfrwt>
<totfact> 0.59838335E+03</totfact>
</mgrwt>
</event>
<event>
 4    1  0.1672993E-004  0.3896333E+03  0.7818608E-02  0.1047430E+00
         -1   -1    0    0    0  501 -0.00000000000E+00  0.00000000000E+00  0.14337860473E+03  0.14337860473E+03  0.00000000000E+00 0. -1.
          1   -1    0    0  501    0  0.00000000000E+00 -0.00000000000E+00 -0.26470848642E+03  0.26470848642E+03  0.00000000000E+00 0. -1.
         25    1    1    2    0    0 -0.22803625184E+02 -0.14265435490E+03 -0.64113625317E+01  0.18791321364E+03  0.12000000000E+03 0.  0.
         25    1    1    2    0    0  0.22803625184E+02  0.14265435490E+03 -0.11491851916E+03  0.22017387751E+03  0.12000000000E+03 0.  0.
<mgrwt>
<rscale>  0 0.38963333E+03</rscale>
<asrwt>0</asrwt>
<pdfrwt beam="1">  1        1 0.40724382E-01 0.38963333E+03</pdfrwt>
<pdfrwt beam="2">  1       -1 0.22058247E-01 0.38963333E+03</pdfrwt>
<totfact> 0.17706280E+03</totfact>
</mgrwt>
</event>
<event>
 4    1  0.1672993E-004  0.2913231E+03  0.7818608E-02  0.1089660E+00
         -2   -1    0    0    0  501 -0.00000000000E+00  0.00000000000E+00  0.56842952639E+02  0.56842952639E+02  0.00000000000E+00 0.  1.
          2   -1    0    0  501    0  0.00000000000E+00 -0.00000000000E+00 -0.37326143309E+03  0.37326143309E+03  0.00000000000E+00 0.  1.
         25    1    1    2    0    0 -0.49481281551E+02  0.64361034084E+02 -0.13598773898E+03  0.19870431572E+03  0.12000000000E+03 0.  0.
         25    1    1    2    0    0  0.49481281551E+02 -0.64361034084E+02 -0.18043074147E+03  0.23140007001E+03  0.12000000000E+03 0.  0.
<mgrwt>
<rscale>  0 0.29132306E+03</rscale>
<asrwt>0</asrwt>
<pdfrwt beam="1">  1        2 0.57424837E-01 0.29132306E+03</pdfrwt>
<pdfrwt beam="2">  1       -2 0.87450695E-02 0.29132306E+03</pdfrwt>
<totfact> 0.70493736E+03</totfact>
</mgrwt>
</event>
<event>
 4    1  0.1672993E-004  0.4600504E+03  0.7818608E-02  0.1024767E+00
         -2   -1    0    0    0  501 -0.00000000000E+00  0.00000000000E+00  0.33574027565E+02  0.33574027565E+02  0.00000000000E+00 0. -1.
          2   -1    0    0  501    0  0.00000000000E+00 -0.00000000000E+00 -0.15759680344E+04  0.15759680344E+04  0.00000000000E+00 0. -1.
         25    1    1    2    0    0  0.12654645212E+03  0.13757996541E+03 -0.56217546433E+03  0.60446960562E+03  0.12000000000E+03 0.  0.
         25    1    1    2    0    0 -0.12654645212E+03 -0.13757996541E+03 -0.98021854247E+03  0.10050724563E+04  0.12000000000E+03 0.  0.
<mgrwt>
<rscale>  0 0.46005041E+03</rscale>
<asrwt>0</asrwt>
<pdfrwt beam="1">  1        2 0.24245660E+00 0.46005041E+03</pdfrwt>
<pdfrwt beam="2">  1       -2 0.51652355E-02 0.46005041E+03</pdfrwt>
<totfact> 0.23052048E+03</totfact>
</mgrwt>
</event>
<event>
 4    1  0.1672993E-004  0.4149417E+03  0.7818608E-02  0.1038725E+00
         -3   -1    0    0    0  501 -0.00000000000E+00  0.00000000000E+00  0.69574310691E+02  0.69574310691E+02  0.00000000000E+00 0. -1.
          3   -1    0    0  501    0  0.00000000000E+00 -0.00000000000E+00 -0.61867894509E+03  0.61867894509E+03  0.00000000000E+00 0. -1.
         25    1    1    2    0    0  0.46550153728E+02  0.13524308584E+03 -0.42462846327E+03  0.46386090685E+03  0.12000000000E+03 0.  0.
         25    1    1    2    0    0 -0.46550153728E+02 -0.13524308584E+03 -0.12447617113E+03  0.22439234893E+03  0.12000000000E+03 0.  0.
<mgrwt>
<rscale>  0 0.41494174E+03</rscale>
<asrwt>0</asrwt>
<pdfrwt beam="1">  1        3 0.95181378E-01 0.41494174E+03</pdfrwt>
<pdfrwt beam="2">  1       -3 0.10703740E-01 0.41494174E+03</pdfrwt>
<totfact> 0.17361671E+02</totfact>
</mgrwt>
</event>
<event>
 4    1  0.1672993E-004  0.3247171E+03  0.7818608E-02  0.1073499E+00
         -3   -1    0    0    0  501 -0.00000000000E+00  0.00000000000E+00  0.48182142511E+03  0.48182142511E+03  0.00000000000E+00 0. -1.
          3   -1    0    0  501    0  0.00000000000E+00 -0.00000000000E+00 -0.54709669703E+02  0.54709669703E+02  0.00000000000E+00 0. -1.
         25    1    1    2    0    0 -0.14429580587E+02  0.69669394871E+02  0.76322617680E+02  0.15901943072E+03  0.12000000000E+03 0.  0.
         25    1    1    2    0    0  0.14429580587E+02 -0.69669394871E+02  0.35078913773E+03  0.37751166409E+03  0.12000000000E+03 0.  0.
<mgrwt>
<rscale>  0 0.32471705E+03</rscale>
<asrwt>0</asrwt>
<pdfrwt beam="1">  1        3 0.84168726E-02 0.32471705E+03</pdfrwt>
<pdfrwt beam="2">  1       -3 0.74126370E-01 0.32471705E+03</pdfrwt>
<totfact> 0.44449397E+02</totfact>
</mgrwt>
</event>
<event>
 4    1  0.1672993E-004  0.3718005E+03  0.7818608E-02  0.1054007E+00
          2   -1    0    0  501    0  0.00000000000E+00  0.00000000000E+00  0.45769217393E+03  0.45769217393E+03  0.00000000000E+00 0.  1.
         -2   -1    0    0    0  501 -0.00000000000E+00 -0.00000000000E+00 -0.75506886743E+02  0.75506886743E+02  0.00000000000E+00 0.  1.
         25    1    1    2    0    0  0.80459926751E+02 -0.11431122971E+03  0.22674535776E+03  0.29215460687E+03  0.12000000000E+03 0.  0.
         25    1    1    2    0    0 -0.80459926751E+02  0.11431122971E+03  0.15543992943E+03  0.24104445381E+03  0.12000000000E+03 0.  0.
<mgrwt>
<rscale>  0 0.37180054E+03</rscale>
<asrwt>0</asrwt>
<pdfrwt beam="1">  1        2 0.70414179E-01 0.37180054E+03</pdfrwt>
<pdfrwt beam="2">  1       -2 0.11616444E-01 0.37180054E+03</pdfrwt>
<totfact> 0.36012573E+03</totfact>
</mgrwt>
</event>
<event>
 4    1  0.1672993E-004  0.3007090E+03  0.7818608E-02  0.1084887E+00
          1   -1    0    0  501    0  0.00000000000E+00  0.00000000000E+00  0.96568522450E+03  0.96568522450E+03  0.00000000000E+00 0.  1.
         -1   -1    0    0    0  501 -0.00000000000E+00 -0.00000000000E+00 -0.23409770485E+02  0.23409770485E+02  0.00000000000E+00 0.  1.
         25    1    1    2    0    0  0.11399058169E+02 -0.45707743576E+02  0.21662567748E+03  0.25208296351E+03  0.12000000000E+03 0.  0.
         25    1    1    2    0    0 -0.11399058169E+02  0.45707743576E+02  0.72564977654E+03  0.73701203148E+03  0.12000000000E+03 0.  0.
<mgrwt>
<rscale>  0 0.30070896E+03</rscale>
<asrwt>0</asrwt>
<pdfrwt beam="1">  1        1 0.14856693E+00 0.30070896E+03</pdfrwt>
<pdfrwt beam="2">  1       -1 0.36015039E-02 0.30070896E+03</pdfrwt>
<totfact> 0.48895580E+03</totfact>
</mgrwt>
</event>
<event>
 4    1  0.1672993E-004  0.2523088E+03  0.7818608E-02  0.1111854E+00
         -1   -1    0    0    0  501 -0.00000000000E+00  0.00000000000E+00  0.23735457156E+03  0.23735457156E+03  0.00000000000E+00 0.  1.
          1   -1    0    0  501    0  0.00000000000E+00 -0.00000000000E+00 -0.67051313594E+02  0.67051313594E+02  0.00000000000E+00 0.  1.
         25    1    1    2    0    0 -0.37890570580E+02 -0.85216077143E+01  0.82046802799E+02  0.15046591304E+03  0.12000000000E+03 0.  0.
         25    1    1    2    0    0  0.37890570580E+02  0.85216077143E+01  0.88256455171E+02  0.15393997212E+03  0.12000000000E+03 0.  0.
<mgrwt>
<rscale>  0 0.25230883E+03</rscale>
<asrwt>0</asrwt>
<pdfrwt beam="1">  1        1 0.10315587E-01 0.25230883E+03</pdfrwt>
<pdfrwt beam="2">  1       -1 0.36516087E-01 0.25230883E+03</pdfrwt>
<totfact> 0.44220300E+03</totfact>
</mgrwt>
</event>
<event>
 4    1  0.1672993E-004  0.2494844E+03  0.7818608E-02  0.1113631E+00
          3   -1    0    0  501    0  0.00000000000E+00  0.00000000000E+00  0.34612350065E+02  0.34612350065E+02  0.00000000000E+00 0.  1.
         -3   -1    0    0    0  501 -0.00000000000E+00 -0.00000000000E+00 -0.44956833283E+03  0.44956833283E+03  0.00000000000E+00 0.  1.
         25    1    1    2    0    0 -0.21547882001E+02  0.24461940371E+02 -0.22668222739E+03  0.25854889279E+03  0.12000000000E+03 0.  0.
         25    1    1    2    0    0  0.21547882001E+02 -0.24461940371E+02 -0.18827375537E+03  0.22563179011E+03  0.12000000000E+03 0.  0.
<mgrwt>
<rscale>  0 0.24948440E+03</rscale>
<asrwt>0</asrwt>
<pdfrwt beam="1">  1        3 0.53249778E-02 0.24948440E+03</pdfrwt>
<pdfrwt beam="2">  1       -3 0.69164348E-01 0.24948440E+03</pdfrwt>
<totfact> 0.10585562E+03</totfact>
</mgrwt>
</event>
<event>
 4    1  0.1672993E-004  0.2793306E+03  0.7818608E-02  0.1096055E+00
          4   -1    0    0  501    0  0.00000000000E+00  0.00000000000E+00  0.16265548086E+03  0.16265548086E+03  0.00000000000E+00 0.  1.
         -4   -1    0    0    0  501 -0.00000000000E+00 -0.00000000000E+00 -0.11992460135E+03  0.11992460135E+03  0.00000000000E+00 0.  1.
         25    1    1    2    0    0 -0.34665892446E+02 -0.55200937690E+02 -0.82587667985E+01  0.13681036090E+03  0.12000000000E+03 0.  0.
         25    1    1    2    0    0  0.34665892446E+02  0.55200937690E+02  0.50989646300E+02  0.14576972131E+03  0.12000000000E+03 0.  0.
<mgrwt>
<rscale>  0 0.27933058E+03</rscale>
<asrwt>0</asrwt>
<pdfrwt beam="1">  1        4 0.25023920E-01 0.27933058E+03</pdfrwt>
<pdfrwt beam="2">  1       -4 0.18449939E-01 0.27933058E+03</pdfrwt>
<totfact> 0.73341926E+02</totfact>
</mgrwt>
</event>
<event>
 4    1  0.1672993E-004  0.3003594E+03  0.7818608E-02  0.1085061E+00
          1   -1    0    0  501    0  0.00000000000E+00  0.00000000000E+00  0.75107199537E+03  0.75107199537E+03  0.00000000000E+00 0. -1.
         -1   -1    0    0    0  501 -0.00000000000E+00 -0.00000000000E+00 -0.30029002164E+02  0.30029002164E+02  0.00000000000E+00 0. -1.
         25    1    1    2    0    0  0.64758335859E+02 -0.27582156281E+02  0.50762016010E+03  0.52633890636E+03  0.12000000000E+03 0.  0.
         25    1    1    2    0    0 -0.64758335859E+02  0.27582156281E+02  0.21342283310E+03  0.25476209117E+03  0.12000000000E+03 0.  0.
<mgrwt>
<rscale>  0 0.30035940E+03</rscale>
<asrwt>0</asrwt>
<pdfrwt beam="1">  1        1 0.11554952E+00 0.30035940E+03</pdfrwt>
<pdfrwt beam="2">  1       -1 0.46198471E-02 0.30035940E+03</pdfrwt>
<totfact> 0.50328955E+03</totfact>
</mgrwt>
</event>
<event>
 4    1  0.1672993E-004  0.4250825E+03  0.7818608E-02  0.1035425E+00
         -2   -1    0    0    0  501 -0.00000000000E+00  0.00000000000E+00  0.12938125528E+03  0.12938125528E+03  0.00000000000E+00 0. -1.
          2   -1    0    0  501    0  0.00000000000E+00 -0.00000000000E+00 -0.34915237970E+03  0.34915237970E+03  0.00000000000E+00 0. -1.
         25    1    1    2    0    0  0.10003632927E+03  0.11642950131E+03 -0.20547883205E+03  0.28316893609E+03  0.12000000000E+03 0.  0.
         25    1    1    2    0    0 -0.10003632927E+03 -0.11642950131E+03 -0.14292292379E+02  0.19536469889E+03  0.12000000000E+03 0.  0.
<mgrwt>
<rscale>  0 0.42508245E+03</rscale>
<asrwt>0</asrwt>
<pdfrwt beam="1">  1        2 0.53715751E-01 0.42508245E+03</pdfrwt>
<pdfrwt beam="2">  1       -2 0.19904808E-01 0.42508245E+03</pdfrwt>
<totfact> 0.19771689E+03</totfact>
</mgrwt>
</event>
<event>
 4    1  0.1672993E-004  0.2936119E+03  0.7818608E-02  0.1088478E+00
          2   -1    0    0  501    0  0.00000000000E+00  0.00000000000E+00  0.10116967736E+04  0.10116967736E+04  0.00000000000E+00 0.  1.
         -2   -1    0    0    0  501 -0.00000000000E+00 -0.00000000000E+00 -0.21302808027E+02  0.21302808027E+02  0.00000000000E+00 0.  1.
         25    1    1    2    0    0  0.73940062298E+02  0.35957219625E+02  0.42554563624E+03  0.44972118360E+03  0.12000000000E+03 0.  0.
         25    1    1    2    0    0 -0.73940062298E+02 -0.35957219625E+02  0.56484832934E+03  0.58327839804E+03  0.12000000000E+03 0.  0.
<mgrwt>
<rscale>  0 0.29361187E+03</rscale>
<asrwt>0</asrwt>
<pdfrwt beam="1">  1        2 0.15564562E+00 0.29361187E+03</pdfrwt>
<pdfrwt beam="2">  1       -2 0.32773559E-02 0.29361187E+03</pdfrwt>
<totfact> 0.95827296E+03</totfact>
</mgrwt>
</event>
<event>
 4    1  0.1672993E-004  0.2737029E+03  0.7818608E-02  0.1099179E+00
         -2   -1    0    0    0  501 -0.00000000000E+00  0.00000000000E+00  0.22357917622E+02  0.22357917622E+02  0.00000000000E+00 0.  1.
          2   -1    0    0  501    0  0.00000000000E+00 -0.00000000000E+00 -0.83765931581E+03  0.83765931581E+03  0.00000000000E+00 0.  1.
         25    1    1    2    0    0 -0.37462591293E+02  0.11733700804E+02 -0.24176411925E+03  0.27274716284E+03  0.12000000000E+03 0.  0.
         25    1    1    2    0    0  0.37462591293E+02 -0.11733700804E+02 -0.57353727894E+03  0.58727007059E+03  0.12000000000E+03 0.  0.
<mgrwt>
<rscale>  0 0.27370289E+03</rscale>
<asrwt>0</asrwt>
<pdfrwt beam="1">  1        2 0.12887069E+00 0.27370289E+03</pdfrwt>
<pdfrwt beam="2">  1       -2 0.34396791E-02 0.27370289E+03</pdfrwt>
<totfact> 0.11491888E+04</totfact>
</mgrwt>
</event>
<event>
 4    1  0.1672993E-004  0.2632694E+03  0.7818608E-02  0.1105195E+00
         -1   -1    0    0    0  501 -0.00000000000E+00  0.00000000000E+00  0.49007089175E+02  0.49007089175E+02  0.00000000000E+00 0. -1.
          1   -1    0    0  501    0  0.00000000000E+00 -0.00000000000E+00 -0.35357532610E+03  0.35357532610E+03  0.00000000000E+00 0. -1.
         25    1    1    2    0    0  0.36104078240E+02  0.30234591900E+02 -0.19303177829E+03  0.23211829408E+03  0.12000000000E+03 0.  0.
         25    1    1    2    0    0 -0.36104078240E+02 -0.30234591900E+02 -0.11153645863E+03  0.17046412120E+03  0.12000000000E+03 0.  0.
<mgrwt>
<rscale>  0 0.26326943E+03</rscale>
<asrwt>0</asrwt>
<pdfrwt beam="1">  1        1 0.54396203E-01 0.26326943E+03</pdfrwt>
<pdfrwt beam="2">  1       -1 0.75395524E-02 0.26326943E+03</pdfrwt>
<totfact> 0.66412893E+03</totfact>
</mgrwt>
</event>
<event>
 4    1  0.1672993E-004  0.2505499E+03  0.7818608E-02  0.1112958E+00
         -1   -1    0    0    0  501 -0.00000000000E+00  0.00000000000E+00  0.14383659254E+02  0.14383659254E+02  0.00000000000E+00 0.  1.
          1   -1    0    0  501    0  0.00000000000E+00 -0.00000000000E+00 -0.10910864160E+04  0.10910864160E+04  0.00000000000E+00 0.  1.
         25    1    1    2    0    0  0.16529871406E+02 -0.11075159801E+01 -0.67922017799E+03  0.68993805042E+03  0.12000000000E+03 0.  0.
         25    1    1    2    0    0 -0.16529871406E+02  0.11075159801E+01 -0.39748257875E+03  0.41553202482E+03  0.12000000000E+03 0.  0.
<mgrwt>
<rscale>  0 0.25054992E+03</rscale>
<asrwt>0</asrwt>
<pdfrwt beam="1">  1        1 0.16785947E+00 0.25054992E+03</pdfrwt>
<pdfrwt beam="2">  1       -1 0.22128703E-02 0.25054992E+03</pdfrwt>
<totfact> 0.80632746E+03</totfact>
</mgrwt>
</event>
<event>
 4    1  0.1672993E-004  0.2410286E+03  0.7818608E-02  0.1119110E+00
          2   -1    0    0  501    0  0.00000000000E+00  0.00000000000E+00  0.15824392791E+03  0.15824392791E+03  0.00000000000E+00 0. -1.
         -2   -1    0    0    0  501 -0.00000000000E+00 -0.00000000000E+00 -0.91780421540E+02  0.91780421540E+02  0.00000000000E+00 0. -1.
         25    1    1    2    0    0 -0.31765391871E+01  0.45446764030E+01  0.43232634688E+02  0.12767069040E+03  0.12000000000E+03 0.  0.
         25    1    1    2    0    0  0.31765391871E+01 -0.45446764030E+01  0.23230871686E+02  0.12235365905E+03  0.12000000000E+03 0.  0.
<mgrwt>
<rscale>  0 0.24102858E+03</rscale>
<asrwt>0</asrwt>
<pdfrwt beam="1">  1        2 0.24345220E-01 0.24102858E+03</pdfrwt>
<pdfrwt beam="2">  1       -2 0.14120065E-01 0.24102858E+03</pdfrwt>
<totfact> 0.82490194E+03</totfact>
</mgrwt>
</event>
<event>
 4    1  0.1672993E-004  0.3537257E+03  0.7818608E-02  0.1061096E+00
         -3   -1    0    0    0  501 -0.00000000000E+00  0.00000000000E+00  0.24060979304E+03  0.24060979304E+03  0.00000000000E+00 0. -1.
          3   -1    0    0  501    0  0.00000000000E+00 -0.00000000000E+00 -0.13000493600E+03  0.13000493600E+03  0.00000000000E+00 0. -1.
         25    1    1    2    0    0 -0.12988328061E+03 -0.17905850559E+01  0.52416278546E+02  0.18444603285E+03  0.12000000000E+03 0.  0.
         25    1    1    2    0    0  0.12988328061E+03  0.17905850559E+01  0.58188578496E+02  0.18616869620E+03  0.12000000000E+03 0.  0.
<mgrwt>
<rscale>  0 0.35372566E+03</rscale>
<asrwt>0</asrwt>
<pdfrwt beam="1">  1        3 0.20000759E-01 0.35372566E+03</pdfrwt>
<pdfrwt beam="2">  1       -3 0.37016891E-01 0.35372566E+03</pdfrwt>
<totfact> 0.41959363E+02</totfact>
</mgrwt>
</event>
<event>
 4    1  0.1672993E-004  0.2802317E+03  0.7818608E-02  0.1095562E+00
          2   -1    0    0  501    0  0.00000000000E+00  0.00000000000E+00  0.12232305111E+04  0.12232305111E+04  0.00000000000E+00 0. -1.
         -2   -1    0    0    0  501 -0.00000000000E+00 -0.00000000000E+00 -0.16049669733E+02  0.16049669733E+02  0.00000000000E+00 0. -1.
         25    1    1    2    0    0 -0.51337551184E+02 -0.38965145075E+02  0.74883045493E+03  0.76111817539E+03  0.12000000000E+03 0.  0.
         25    1    1    2    0    0  0.51337551184E+02  0.38965145075E+02  0.45835038643E+03  0.47816200543E+03  0.12000000000E+03 0.  0.
<mgrwt>
<rscale>  0 0.28023166E+03</rscale>
<asrwt>0</asrwt>
<pdfrwt beam="1">  1        2 0.18818924E+00 0.28023166E+03</pdfrwt>
<pdfrwt beam="2">  1       -2 0.24691809E-02 0.28023166E+03</pdfrwt>
<totfact> 0.10964764E+04</totfact>
</mgrwt>
</event>
<event>
 4    1  0.1672993E-004  0.3180315E+03  0.7818608E-02  0.1076559E+00
         -2   -1    0    0    0  501 -0.00000000000E+00  0.00000000000E+00  0.49198231924E+03  0.49198231924E+03  0.00000000000E+00 0. -1.
          2   -1    0    0  501    0  0.00000000000E+00 -0.00000000000E+00 -0.51396169249E+02  0.51396169249E+02  0.00000000000E+00 0. -1.
         25    1    1    2    0    0  0.74580505811E+02 -0.70671417271E+02  0.18928807023E+03  0.24654953782E+03  0.12000000000E+03 0.  0.
         25    1    1    2    0    0 -0.74580505811E+02  0.70671417271E+02  0.25129807977E+03  0.29682895068E+03  0.12000000000E+03 0.  0.
<mgrwt>
<rscale>  0 0.31803149E+03</rscale>
<asrwt>0</asrwt>
<pdfrwt beam="1">  1        2 0.79071033E-02 0.31803149E+03</pdfrwt>
<pdfrwt beam="2">  1       -2 0.75689584E-01 0.31803149E+03</pdfrwt>
<totfact> 0.13938522E+03</totfact>
</mgrwt>
</event>
<event>
 4    1  0.1672993E-004  0.2795796E+03  0.7818608E-02  0.1095919E+00
          1   -1    0    0  501    0  0.00000000000E+00  0.00000000000E+00  0.19093556601E+04  0.19093556601E+04  0.00000000000E+00 0. -1.
         -1   -1    0    0    0  501 -0.00000000000E+00 -0.00000000000E+00 -0.10234442132E+02  0.10234442132E+02  0.00000000000E+00 0. -1.
         25    1    1    2    0    0  0.32780625053E+01 -0.29532180451E+02  0.13976048053E+04  0.14030616833E+04  0.12000000000E+03 0.  0.
         25    1    1    2    0    0 -0.32780625053E+01  0.29532180451E+02  0.50151641260E+03  0.51652841886E+03  0.12000000000E+03 0.  0.
<mgrwt>
<rscale>  0 0.27957961E+03</rscale>
<asrwt>0</asrwt>
<pdfrwt beam="1">  1        1 0.29374674E+00 0.27957961E+03</pdfrwt>
<pdfrwt beam="2">  1       -1 0.15745311E-02 0.27957961E+03</pdfrwt>
<totfact> 0.37572713E+03</totfact>
</mgrwt>
</event>
<event>
 4    1  0.1672993E-004  0.2749768E+03  0.7818608E-02  0.1098465E+00
          2   -1    0    0  501    0  0.00000000000E+00  0.00000000000E+00  0.94122637897E+03  0.94122637897E+03  0.00000000000E+00 0. -1.
         -2   -1    0    0    0  501 -0.00000000000E+00 -0.00000000000E+00 -0.20083437485E+02  0.20083437485E+02  0.00000000000E+00 0. -1.
         25    1    1    2    0    0 -0.13319071515E+02 -0.26805484674E+02  0.67053708514E+03  0.68184742737E+03  0.12000000000E+03 0.  0.
         25    1    1    2    0    0  0.13319071515E+02  0.26805484674E+02  0.25060585635E+03  0.27946238908E+03  0.12000000000E+03 0.  0.
<mgrwt>
<rscale>  0 0.27497681E+03</rscale>
<asrwt>0</asrwt>
<pdfrwt beam="1">  1        2 0.14480402E+00 0.27497681E+03</pdfrwt>
<pdfrwt beam="2">  1       -2 0.30897604E-02 0.27497681E+03</pdfrwt>
<totfact> 0.11550940E+04</totfact>
</mgrwt>
</event>
<event>
 4    1  0.1672993E-004  0.2549579E+03  0.7818608E-02  0.1110211E+00
          2   -1    0    0  501    0  0.00000000000E+00  0.00000000000E+00  0.18642642802E+03  0.18642642802E+03  0.00000000000E+00 0. -1.
         -2   -1    0    0    0  501 -0.00000000000E+00 -0.00000000000E+00 -0.87170520051E+02  0.87170520051E+02  0.00000000000E+00 0. -1.
         25    1    1    2    0    0 -0.14223038392E+01 -0.11337369201E+02  0.51188808548E+01  0.12065140625E+03  0.12000000000E+03 0.  0.
         25    1    1    2    0    0  0.14223038392E+01  0.11337369201E+02  0.94137027110E+02  0.15294554182E+03  0.12000000000E+03 0.  0.
<mgrwt>
<rscale>  0 0.25495795E+03</rscale>
<asrwt>0</asrwt>
<pdfrwt beam="1">  1        2 0.28680989E-01 0.25495795E+03</pdfrwt>
<pdfrwt beam="2">  1       -2 0.13410849E-01 0.25495795E+03</pdfrwt>
<totfact> 0.75015044E+03</totfact>
</mgrwt>
</event>
<event>
 4    1  0.1672993E-004  0.2617255E+03  0.7818608E-02  0.1106111E+00
         -2   -1    0    0    0  501 -0.00000000000E+00  0.00000000000E+00  0.21148679646E+02  0.21148679646E+02  0.00000000000E+00 0.  1.
          2   -1    0    0  501    0  0.00000000000E+00 -0.00000000000E+00 -0.80974627549E+03  0.80974627549E+03  0.00000000000E+00 0.  1.
         25    1    1    2    0    0  0.26454145498E+02 -0.44949788379E+02 -0.38737298288E+03  0.40887422657E+03  0.12000000000E+03 0.  0.
         25    1    1    2    0    0 -0.26454145498E+02  0.44949788379E+02 -0.40122461296E+03  0.42202072856E+03  0.12000000000E+03 0.  0.
<mgrwt>
<rscale>  0 0.26172554E+03</rscale>
<asrwt>0</asrwt>
<pdfrwt beam="1">  1        2 0.12457635E+00 0.26172554E+03</pdfrwt>
<pdfrwt beam="2">  1       -2 0.32536431E-02 0.26172554E+03</pdfrwt>
<totfact> 0.13021649E+04</totfact>
</mgrwt>
</event>
<event>
 4    1  0.1672993E-004  0.3373749E+03  0.7818608E-02  0.1067920E+00
         -4   -1    0    0    0  501 -0.00000000000E+00  0.00000000000E+00  0.21792981836E+03  0.21792981836E+03  0.00000000000E+00 0. -1.
          4   -1    0    0  501    0  0.00000000000E+00 -0.00000000000E+00 -0.13057165791E+03  0.13057165791E+03  0.00000000000E+00 0. -1.
         25    1    1    2    0    0 -0.38539307458E+02 -0.42468993683E+00 -0.72134493278E+02  0.14521998382E+03  0.12000000000E+03 0.  0.
         25    1    1    2    0    0  0.38539307458E+02  0.42468993683E+00  0.15949265373E+03  0.20328149245E+03  0.12000000000E+03 0.  0.
<mgrwt>
<rscale>  0 0.33737491E+03</rscale>
<asrwt>0</asrwt>
<pdfrwt beam="1">  1        4 0.20087947E-01 0.33737491E+03</pdfrwt>
<pdfrwt beam="2">  1       -4 0.33527664E-01 0.33737491E+03</pdfrwt>
<totfact> 0.36885463E+02</totfact>
</mgrwt>
</event>
<event>
 4    1  0.1672993E-004  0.2832957E+03  0.7818608E-02  0.1093902E+00
         -4   -1    0    0    0  501 -0.00000000000E+00  0.00000000000E+00  0.98828751070E+02  0.98828751070E+02  0.00000000000E+00 0.  1.
          4   -1    0    0  501    0  0.00000000000E+00 -0.00000000000E+00 -0.20301894998E+03  0.20301894998E+03  0.00000000000E+00 0.  1.
         25    1    1    2    0    0  0.18088271570E+02  0.33975495273E+02  0.16813044461E+02  0.12713850051E+03  0.12000000000E+03 0.  0.
         25    1    1    2    0    0 -0.18088271570E+02 -0.33975495273E+02 -0.12100324337E+03  0.17470920054E+03  0.12000000000E+03 0.  0.
<mgrwt>
<rscale>  0 0.28329567E+03</rscale>
<asrwt>0</asrwt>
<pdfrwt beam="1">  1        4 0.31233684E-01 0.28329567E+03</pdfrwt>
<pdfrwt beam="2">  1       -4 0.15204423E-01 0.28329567E+03</pdfrwt>
<totfact> 0.68212988E+02</totfact>
</mgrwt>
</event>
<event>
 4    1  0.1672993E-004  0.3224676E+03  0.7818608E-02  0.1074519E+00
          2   -1    0    0  501    0  0.00000000000E+00  0.00000000000E+00  0.15497603000E+04  0.15497603000E+04  0.00000000000E+00 0. -1.
         -2   -1    0    0    0  501 -0.00000000000E+00 -0.00000000000E+00 -0.16774420474E+02  0.16774420474E+02  0.00000000000E+00 0. -1.
         25    1    1    2    0    0 -0.42109384674E+02  0.98814779681E+02  0.80373482387E+03  0.81971167374E+03  0.12000000000E+03 0.  0.
         25    1    1    2    0    0  0.42109384674E+02 -0.98814779681E+02  0.72925105563E+03  0.74682304671E+03  0.12000000000E+03 0.  0.
<mgrwt>
<rscale>  0 0.32246755E+03</rscale>
<asrwt>0</asrwt>
<pdfrwt beam="1">  1        2 0.23842455E+00 0.32246755E+03</pdfrwt>
<pdfrwt beam="2">  1       -2 0.25806813E-02 0.32246755E+03</pdfrwt>
<totfact> 0.68184641E+03</totfact>
</mgrwt>
</event>
<event>
 4    1  0.1672993E-004  0.2924591E+03  0.7818608E-02  0.1089072E+00
         -1   -1    0    0    0  501 -0.00000000000E+00  0.00000000000E+00  0.10580222489E+03  0.10580222489E+03  0.00000000000E+00 0. -1.
          1   -1    0    0  501    0  0.00000000000E+00 -0.00000000000E+00 -0.20210431038E+03  0.20210431038E+03  0.00000000000E+00 0. -1.
         25    1    1    2    0    0  0.70646673548E+01 -0.70667691842E+02 -0.17880977091E+01  0.13945260660E+03  0.12000000000E+03 0.  0.
         25    1    1    2    0    0 -0.70646673548E+01  0.70667691842E+02 -0.94513987788E+02  0.16845392867E+03  0.12000000000E+03 0.  0.
<mgrwt>
<rscale>  0 0.29245913E+03</rscale>
<asrwt>0</asrwt>
<pdfrwt beam="1">  1        1 0.31092971E-01 0.29245913E+03</pdfrwt>
<pdfrwt beam="2">  1       -1 0.16277265E-01 0.29245913E+03</pdfrwt>
<totfact> 0.40649755E+03</totfact>
</mgrwt>
</event>
<event>
 4    1  0.1672993E-004  0.2794184E+03  0.7818608E-02  0.1096007E+00
         -2   -1    0    0    0  501 -0.00000000000E+00  0.00000000000E+00  0.10718627715E+02  0.10718627715E+02  0.00000000000E+00 0.  1.
          2   -1    0    0  501    0  0.00000000000E+00 -0.00000000000E+00 -0.18210041256E+04  0.18210041256E+04  0.00000000000E+00 0.  1.
         25    1    1    2    0    0  0.11183161406E+02 -0.56929449877E+02 -0.11795850403E+04  0.11870917794E+04  0.12000000000E+03 0.  0.
         25    1    1    2    0    0 -0.11183161406E+02  0.56929449877E+02 -0.63070045749E+03  0.64463097385E+03  0.12000000000E+03 0.  0.
<mgrwt>
<rscale>  0 0.27941843E+03</rscale>
<asrwt>0</asrwt>
<pdfrwt beam="1">  1        2 0.28015451E+00 0.27941843E+03</pdfrwt>
<pdfrwt beam="2">  1       -2 0.16490195E-02 0.27941843E+03</pdfrwt>
<totfact> 0.94765691E+03</totfact>
</mgrwt>
</event>
<event>
 4    1  0.1672993E-004  0.2570067E+03  0.7818608E-02  0.1108955E+00
         -2   -1    0    0    0  501 -0.00000000000E+00  0.00000000000E+00  0.77010270078E+03  0.77010270078E+03  0.00000000000E+00 0.  1.
          2   -1    0    0  501    0  0.00000000000E+00 -0.00000000000E+00 -0.21442732646E+02  0.21442732646E+02  0.00000000000E+00 0.  1.
         25    1    1    2    0    0  0.15936672268E+02  0.43116985575E+02  0.37361194236E+03  0.39509357809E+03  0.12000000000E+03 0.  0.
         25    1    1    2    0    0 -0.15936672268E+02 -0.43116985575E+02  0.37504802578E+03  0.39645185534E+03  0.12000000000E+03 0.  0.
<mgrwt>
<rscale>  0 0.25700666E+03</rscale>
<asrwt>0</asrwt>
<pdfrwt beam="1">  1        2 0.32988825E-02 0.25700666E+03</pdfrwt>
<pdfrwt beam="2">  1       -2 0.11847732E+00 0.25700666E+03</pdfrwt>
<totfact> 0.15717285E+03</totfact>
</mgrwt>
</event>
<event>
 4    1  0.1672993E-004  0.2467297E+03  0.7818608E-02  0.1115389E+00
         -2   -1    0    0    0  501 -0.00000000000E+00  0.00000000000E+00  0.58289382486E+01  0.58289382486E+01  0.00000000000E+00 0. -1.
          2   -1    0    0  501    0  0.00000000000E+00 -0.00000000000E+00 -0.26109191596E+04  0.26109191596E+04  0.00000000000E+00 0. -1.
         25    1    1    2    0    0 -0.13789229698E+02 -0.18592525776E+02 -0.11241097086E+04  0.11307335945E+04  0.12000000000E+03 0.  0.
         25    1    1    2    0    0  0.13789229698E+02  0.18592525776E+02 -0.14809805128E+04  0.14860145033E+04  0.12000000000E+03 0.  0.
<mgrwt>
<rscale>  0 0.24672970E+03</rscale>
<asrwt>0</asrwt>
<pdfrwt beam="1">  1        2 0.40168051E+00 0.24672970E+03</pdfrwt>
<pdfrwt beam="2">  1       -2 0.89675829E-03 0.24672970E+03</pdfrwt>
<totfact> 0.86967089E+03</totfact>
</mgrwt>
</event>
<event>
 4    1  0.1672993E-004  0.3385002E+03  0.7818608E-02  0.1067437E+00
         -1   -1    0    0    0  501 -0.00000000000E+00  0.00000000000E+00  0.44910663173E+03  0.44910663173E+03  0.00000000000E+00 0.  1.
          1   -1    0    0  501    0  0.00000000000E+00 -0.00000000000E+00 -0.63783504663E+02  0.63783504663E+02  0.00000000000E+00 0.  1.
         25    1    1    2    0    0  0.36748716493E+02 -0.10562809569E+03  0.12949760422E+03  0.20899136887E+03  0.12000000000E+03 0.  0.
         25    1    1    2    0    0 -0.36748716493E+02  0.10562809569E+03  0.25582552284E+03  0.30389876752E+03  0.12000000000E+03 0.  0.
<mgrwt>
<rscale>  0 0.33850019E+03</rscale>
<asrwt>0</asrwt>
<pdfrwt beam="1">  1        1 0.98128471E-02 0.33850019E+03</pdfrwt>
<pdfrwt beam="2">  1       -1 0.69093326E-01 0.33850019E+03</pdfrwt>
<totfact> 0.14530307E+03</totfact>
</mgrwt>
</event>
<event>
 4    1  0.1672993E-004  0.4563219E+03  0.7818608E-02  0.1025853E+00
          2   -1    0    0  501    0  0.00000000000E+00  0.00000000000E+00  0.74508711937E+03  0.74508711937E+03  0.00000000000E+00 0.  1.
         -2   -1    0    0    0  501 -0.00000000000E+00 -0.00000000000E+00 -0.69867558059E+02  0.69867558059E+02  0.00000000000E+00 0.  1.
         25    1    1    2    0    0 -0.10117734543E+03 -0.15329103713E+03  0.44946061132E+03  0.50014981598E+03  0.12000000000E+03 0.  0.
         25    1    1    2    0    0  0.10117734543E+03  0.15329103713E+03  0.22575894999E+03  0.31480486145E+03  0.12000000000E+03 0.  0.
<mgrwt>
<rscale>  0 0.45632189E+03</rscale>
<asrwt>0</asrwt>
<pdfrwt beam="1">  1        2 0.11462878E+00 0.45632189E+03</pdfrwt>
<pdfrwt beam="2">  1       -2 0.10748856E-01 0.45632189E+03</pdfrwt>
<totfact> 0.23039365E+03</totfact>
</mgrwt>
</event>
<event>
 4    1  0.1672993E-004  0.2719284E+03  0.7818608E-02  0.1100181E+00
          2   -1    0    0  501    0  0.00000000000E+00  0.00000000000E+00  0.18783857606E+04  0.18783857606E+04  0.00000000000E+00 0. -1.
         -2   -1    0    0    0  501 -0.00000000000E+00 -0.00000000000E+00 -0.98415660430E+01  0.98415660430E+01  0.00000000000E+00 0. -1.
         25    1    1    2    0    0  0.86058765464E+01  0.35048242668E+02  0.56790190533E+03  0.58156256284E+03  0.12000000000E+03 0.  0.
         25    1    1    2    0    0 -0.86058765464E+01 -0.35048242668E+02  0.13006422892E+04  0.13066647638E+04  0.12000000000E+03 0.  0.
<mgrwt>
<rscale>  0 0.27192835E+03</rscale>
<asrwt>0</asrwt>
<pdfrwt beam="1">  1        2 0.28898214E+00 0.27192835E+03</pdfrwt>
<pdfrwt beam="2">  1       -2 0.15140886E-02 0.27192835E+03</pdfrwt>
<totfact> 0.10015461E+04</totfact>
</mgrwt>
</event>
<event>
 4    1  0.1672993E-004  0.2403751E+03  0.7818608E-02  0.1119543E+00
         -2   -1    0    0    0  501 -0.00000000000E+00  0.00000000000E+00  0.54101795268E+02  0.54101795268E+02  0.00000000000E+00 0. -1.
          2   -1    0    0  501    0  0.00000000000E+00 -0.00000000000E+00 -0.26699748049E+03  0.26699748049E+03  0.00000000000E+00 0. -1.
         25    1    1    2    0    0 -0.35279300270E+01 -0.16341172774E+01 -0.99140202889E+02  0.15570451650E+03  0.12000000000E+03 0.  0.
         25    1    1    2    0    0  0.35279300270E+01  0.16341172774E+01 -0.11375548233E+03  0.16539475926E+03  0.12000000000E+03 0.  0.
<mgrwt>
<rscale>  0 0.24037507E+03</rscale>
<asrwt>0</asrwt>
<pdfrwt beam="1">  1        2 0.41076535E-01 0.24037507E+03</pdfrwt>
<pdfrwt beam="2">  1       -2 0.83233532E-02 0.24037507E+03</pdfrwt>
<totfact> 0.10839092E+04</totfact>
</mgrwt>
</event>
<event>
 4    1  0.1672993E-004  0.3044353E+03  0.7818608E-02  0.1083044E+00
          2   -1    0    0  501    0  0.00000000000E+00  0.00000000000E+00  0.38991089453E+03  0.38991089453E+03  0.00000000000E+00 0.  1.
         -2   -1    0    0    0  501 -0.00000000000E+00 -0.00000000000E+00 -0.59424384682E+02  0.59424384682E+02  0.00000000000E+00 0.  1.
         25    1    1    2    0    0 -0.87950018597E+02 -0.27800077897E+02  0.14134518915E+03  0.20709059031E+03  0.12000000000E+03 0.  0.
         25    1    1    2    0    0  0.87950018597E+02  0.27800077897E+02  0.18914132070E+03  0.24224468890E+03  0.12000000000E+03 0.  0.
<mgrwt>
<rscale>  0 0.30443531E+03</rscale>
<asrwt>0</asrwt>
<pdfrwt beam="1">  1        2 0.59986290E-01 0.30443531E+03</pdfrwt>
<pdfrwt beam="2">  1       -2 0.91422133E-02 0.30443531E+03</pdfrwt>
<totfact> 0.62765212E+03</totfact>
</mgrwt>
</event>
<event>
 4    1  0.1672993E-004  0.2626304E+03  0.7818608E-02  0.1105573E+00
         -2   -1    0    0    0  501 -0.00000000000E+00  0.00000000000E+00  0.61317593007E+02  0.61317593007E+02  0.00000000000E+00 0. -1.
          2   -1    0    0  501    0  0.00000000000E+00 -0.00000000000E+00 -0.28121908227E+03  0.28121908227E+03  0.00000000000E+00 0. -1.
         25    1    1    2    0    0 -0.10308105212E+02  0.17772311735E+02 -0.17413229703E+03  0.21247157214E+03  0.12000000000E+03 0.  0.
         25    1    1    2    0    0  0.10308105212E+02 -0.17772311735E+02 -0.45769192233E+02  0.13006510314E+03  0.12000000000E+03 0.  0.
<mgrwt>
<rscale>  0 0.26263037E+03</rscale>
<asrwt>0</asrwt>
<pdfrwt beam="1">  1        2 0.43264475E-01 0.26263037E+03</pdfrwt>
<pdfrwt beam="2">  1       -2 0.94334757E-02 0.26263037E+03</pdfrwt>
<totfact> 0.84545332E+03</totfact>
</mgrwt>
</event>
<event>
 4    1  0.1672993E-004  0.2469494E+03  0.7818608E-02  0.1115248E+00
          2   -1    0    0  501    0  0.00000000000E+00  0.00000000000E+00  0.10485724558E+04  0.10485724558E+04  0.00000000000E+00 0.  1.
         -2   -1    0    0    0  501 -0.00000000000E+00 -0.00000000000E+00 -0.14539767460E+02  0.14539767460E+02  0.00000000000E+00 0.  1.
         25    1    1    2    0    0  0.27878031964E+02 -0.11917385574E+01  0.55235778463E+03  0.56593085014E+03  0.12000000000E+03 0.  0.
         25    1    1    2    0    0 -0.27878031964E+02  0.11917385574E+01  0.48167490373E+03  0.49718137314E+03  0.12000000000E+03 0.  0.
<mgrwt>
<rscale>  0 0.24694938E+03</rscale>
<asrwt>0</asrwt>
<pdfrwt beam="1">  1        2 0.16131878E+00 0.24694938E+03</pdfrwt>
<pdfrwt beam="2">  1       -2 0.22368881E-02 0.24694938E+03</pdfrwt>
<totfact> 0.15950168E+04</totfact>
</mgrwt>
</event>
<event>
 4    1  0.1672993E-004  0.3899037E+03  0.7818608E-02  0.1047333E+00
          2   -1    0    0  501    0  0.00000000000E+00  0.00000000000E+00  0.26505448069E+04  0.26505448069E+04  0.00000000000E+00 0. -1.
         -2   -1    0    0    0  501 -0.00000000000E+00 -0.00000000000E+00 -0.14339021678E+02  0.14339021678E+02  0.00000000000E+00 0. -1.
         25    1    1    2    0    0 -0.30014030250E+02 -0.13445272453E+03  0.17830571467E+04  0.17923925813E+04  0.12000000000E+03 0.  0.
         25    1    1    2    0    0  0.30014030250E+02  0.13445272453E+03  0.85314863859E+03  0.87249124733E+03  0.12000000000E+03 0.  0.
<mgrwt>
<rscale>  0 0.38990368E+03</rscale>
<asrwt>0</asrwt>
<pdfrwt beam="1">  1        2 0.40777574E+00 0.38990368E+03</pdfrwt>
<pdfrwt beam="2">  1       -2 0.22060054E-02 0.38990368E+03</pdfrwt>
<totfact> 0.21903081E+03</totfact>
</mgrwt>
</event>
<event>
 4    1  0.1672993E-004  0.2512497E+03  0.7818608E-02  0.1112518E+00
         -2   -1    0    0    0  501 -0.00000000000E+00  0.00000000000E+00  0.16587262218E+02  0.16587262218E+02  0.00000000000E+00 0.  1.
          2   -1    0    0  501    0  0.00000000000E+00 -0.00000000000E+00 -0.95142933677E+03  0.95142933677E+03  0.00000000000E+00 0.  1.
         25    1    1    2    0    0 -0.32912309744E+02  0.50756800278E+01 -0.40380593830E+03  0.42257332910E+03  0.12000000000E+03 0.  0.
         25    1    1    2    0    0  0.32912309744E+02 -0.50756800278E+01 -0.53103613625E+03  0.54544326989E+03  0.12000000000E+03 0.  0.
<mgrwt>
<rscale>  0 0.25124974E+03</rscale>
<asrwt>0</asrwt>
<pdfrwt beam="1">  1        2 0.14637378E+00 0.25124974E+03</pdfrwt>
<pdfrwt beam="2">  1       -2 0.25518859E-02 0.25124974E+03</pdfrwt>
<totfact> 0.15066432E+04</totfact>
</mgrwt>
</event>
<event>
 4    1  0.1672993E-004  0.2544754E+03  0.7818608E-02  0.1110509E+00
          3   -1    0    0  501    0  0.00000000000E+00  0.00000000000E+00  0.19209247124E+02  0.19209247124E+02  0.00000000000E+00 0.  1.
         -3   -1    0    0    0  501 -0.00000000000E+00 -0.00000000000E+00 -0.84279371254E+03  0.84279371254E+03  0.00000000000E+00 0.  1.
         25    1    1    2    0    0 -0.23173470941E+01  0.22787034630E+02 -0.53226148604E+03  0.54610155518E+03  0.12000000000E+03 0.  0.
         25    1    1    2    0    0  0.23173470941E+01 -0.22787034630E+02 -0.29132297938E+03  0.31590140449E+03  0.12000000000E+03 0.  0.
<mgrwt>
<rscale>  0 0.25447540E+03</rscale>
<asrwt>0</asrwt>
<pdfrwt beam="1">  1        3 0.29552692E-02 0.25447540E+03</pdfrwt>
<pdfrwt beam="2">  1       -3 0.12966055E+00 0.25447540E+03</pdfrwt>
<totfact> 0.64418573E+02</totfact>
</mgrwt>
</event>
<event>
 4    1  0.1672993E-004  0.4472308E+03  0.7818608E-02  0.1028551E+00
         -1   -1    0    0    0  501 -0.00000000000E+00  0.00000000000E+00  0.18046961089E+03  0.18046961089E+03  0.00000000000E+00 0. -1.
          1   -1    0    0  501    0  0.00000000000E+00 -0.00000000000E+00 -0.27707625951E+03  0.27707625951E+03  0.00000000000E+00 0. -1.
         25    1    1    2    0    0 -0.57341679323E+02  0.10869766049E+03  0.98179322924E+02  0.19784445667E+03  0.12000000000E+03 0.  0.
         25    1    1    2    0    0  0.57341679323E+02 -0.10869766049E+03 -0.19478597155E+03  0.25970141374E+03  0.12000000000E+03 0.  0.
<mgrwt>
<rscale>  0 0.44723079E+03</rscale>
<asrwt>0</asrwt>
<pdfrwt beam="1">  1        1 0.42627117E-01 0.44723079E+03</pdfrwt>
<pdfrwt beam="2">  1       -1 0.27764556E-01 0.44723079E+03</pdfrwt>
<totfact> 0.11354795E+03</totfact>
</mgrwt>
</event>
<event>
 4    1  0.1672993E-004  0.2912377E+03  0.7818608E-02  0.1089705E+00
         -2   -1    0    0    0  501 -0.00000000000E+00  0.00000000000E+00  0.15752247171E+02  0.15752247171E+02  0.00000000000E+00 0.  1.
          2   -1    0    0  501    0  0.00000000000E+00 -0.00000000000E+00 -0.13461472483E+04  0.13461472483E+04  0.00000000000E+00 0.  1.
         25    1    1    2    0    0 -0.71543720002E+02  0.27204219543E+02 -0.80904596461E+03  0.82147059977E+03  0.12000000000E+03 0.  0.
         25    1    1    2    0    0  0.71543720002E+02 -0.27204219543E+02 -0.52134903654E+03  0.54042889573E+03  0.12000000000E+03 0.  0.
<mgrwt>
<rscale>  0 0.29123766E+03</rscale>
<asrwt>0</asrwt>
<pdfrwt beam="1">  1        2 0.20709956E+00 0.29123766E+03</pdfrwt>
<pdfrwt beam="2">  1       -2 0.24234228E-02 0.29123766E+03</pdfrwt>
<totfact> 0.96371055E+03</totfact>
</mgrwt>
</event>
<event>
 4    1  0.1672993E-004  0.2690185E+03  0.7818608E-02  0.1101843E+00
         -2   -1    0    0    0  501 -0.00000000000E+00  0.00000000000E+00  0.12147005864E+03  0.12147005864E+03  0.00000000000E+00 0. -1.
          2   -1    0    0  501    0  0.00000000000E+00 -0.00000000000E+00 -0.14894816415E+03  0.14894816415E+03  0.00000000000E+00 0. -1.
         25    1    1    2    0    0  0.31472298192E+02 -0.34520464047E+02 -0.52807378321E+02  0.13917897541E+03  0.12000000000E+03 0.  0.
         25    1    1    2    0    0 -0.31472298192E+02  0.34520464047E+02  0.25329272809E+02  0.13123924738E+03  0.12000000000E+03 0.  0.
<mgrwt>
<rscale>  0 0.26901853E+03</rscale>
<asrwt>0</asrwt>
<pdfrwt beam="1">  1        2 0.22915102E-01 0.26901853E+03</pdfrwt>
<pdfrwt beam="2">  1       -2 0.18687701E-01 0.26901853E+03</pdfrwt>
<totfact> 0.55619298E+03</totfact>
</mgrwt>
</event>
<event>
 4    1  0.1672993E-004  0.3185351E+03  0.7818608E-02  0.1076325E+00
          2   -1    0    0  501    0  0.00000000000E+00  0.00000000000E+00  0.13669081325E+03  0.13669081325E+03  0.00000000000E+00 0. -1.
         -2   -1    0    0    0  501 -0.00000000000E+00 -0.00000000000E+00 -0.18557316949E+03  0.18557316949E+03  0.00000000000E+00 0. -1.
         25    1    1    2    0    0 -0.13424786230E+02  0.80274346146E+02 -0.91106046057E+02  0.17124399891E+03  0.12000000000E+03 0.  0.
         25    1    1    2    0    0  0.13424786230E+02 -0.80274346146E+02  0.42223689811E+02  0.15101998383E+03  0.12000000000E+03 0.  0.
<mgrwt>
<rscale>  0 0.31853507E+03</rscale>
<asrwt>0</asrwt>
<pdfrwt beam="1">  1        2 0.21029356E-01 0.31853507E+03</pdfrwt>
<pdfrwt beam="2">  1       -2 0.28549718E-01 0.31853507E+03</pdfrwt>
<totfact> 0.29370871E+03</totfact>
</mgrwt>
</event>
<event>
 4    1  0.1672993E-004  0.3199045E+03  0.7818608E-02  0.1075693E+00
         -1   -1    0    0    0  501 -0.00000000000E+00  0.00000000000E+00  0.15757889468E+04  0.15757889468E+04  0.00000000000E+00 0. -1.
          1   -1    0    0  501    0  0.00000000000E+00 -0.00000000000E+00 -0.16236132418E+02  0.16236132418E+02  0.00000000000E+00 0. -1.
         25    1    1    2    0    0  0.39141875231E+02  0.83899188100E+02  0.52535968669E+03  0.54678511370E+03  0.12000000000E+03 0.  0.
         25    1    1    2    0    0 -0.39141875231E+02 -0.83899188100E+02  0.10341931277E+04  0.10452399656E+04  0.12000000000E+03 0.  0.
<mgrwt>
<rscale>  0 0.31990447E+03</rscale>
<asrwt>0</asrwt>
<pdfrwt beam="1">  1        1 0.24978678E-02 0.31990447E+03</pdfrwt>
<pdfrwt beam="2">  1       -1 0.24242895E+00 0.31990447E+03</pdfrwt>
<totfact> 0.39077844E+02</totfact>
</mgrwt>
</event>
<event>
 4    1  0.1672993E-004  0.2984814E+03  0.7818608E-02  0.1086002E+00
          2   -1    0    0  501    0  0.00000000000E+00  0.00000000000E+00  0.16128159577E+03  0.16128159577E+03  0.00000000000E+00 0. -1.
         -2   -1    0    0    0  501 -0.00000000000E+00 -0.00000000000E+00 -0.13809871930E+03  0.13809871930E+03  0.00000000000E+00 0. -1.
         25    1    1    2    0    0 -0.81577421897E+02  0.17078198307E+02 -0.18934432558E+02  0.14732634984E+03  0.12000000000E+03 0.  0.
         25    1    1    2    0    0  0.81577421897E+02 -0.17078198307E+02  0.42117309033E+02  0.15205396523E+03  0.12000000000E+03 0.  0.
<mgrwt>
<rscale>  0 0.29848137E+03</rscale>
<asrwt>0</asrwt>
<pdfrwt beam="1">  1        2 0.24812553E-01 0.29848137E+03</pdfrwt>
<pdfrwt beam="2">  1       -2 0.21245957E-01 0.29848137E+03</pdfrwt>
<totfact> 0.40971673E+03</totfact>
</mgrwt>
</event>
<event>
 4    1  0.1672993E-004  0.3091090E+03  0.7818608E-02  0.1080774E+00
         -2   -1    0    0    0  501 -0.00000000000E+00  0.00000000000E+00  0.41554346082E+03  0.41554346082E+03  0.00000000000E+00 0. -1.
          2   -1    0    0  501    0  0.00000000000E+00 -0.00000000000E+00 -0.57483983456E+02  0.57483983456E+02  0.00000000000E+00 0. -1.
         25    1    1    2    0    0 -0.89762667631E+02 -0.84618789392E+01  0.23542584523E+03  0.27920291635E+03  0.12000000000E+03 0.  0.
         25    1    1    2    0    0  0.89762667631E+02  0.84618789392E+01  0.12263363213E+03  0.19382452792E+03  0.12000000000E+03 0.  0.
<mgrwt>
<rscale>  0 0.30910900E+03</rscale>
<asrwt>0</asrwt>
<pdfrwt beam="1">  1        2 0.88436900E-02 0.30910900E+03</pdfrwt>
<pdfrwt beam="2">  1       -2 0.63929761E-01 0.30910900E+03</pdfrwt>
<totfact> 0.17356399E+03</totfact>
</mgrwt>
</event>
<event>
 4    1  0.1672993E-004  0.2873305E+03  0.7818608E-02  0.1091751E+00
         -2   -1    0    0    0  501 -0.00000000000E+00  0.00000000000E+00  0.19301175752E+03  0.19301175752E+03  0.00000000000E+00 0.  1.
          2   -1    0    0  501    0  0.00000000000E+00 -0.00000000000E+00 -0.10693493034E+03  0.10693493034E+03  0.00000000000E+00 0.  1.
         25    1    1    2    0    0 -0.18004691063E+02 -0.19324715085E+02 -0.34675539536E+02  0.12767147902E+03  0.12000000000E+03 0.  0.
         25    1    1    2    0    0  0.18004691063E+02  0.19324715085E+02  0.12075236671E+03  0.17227520884E+03  0.12000000000E+03 0.  0.
<mgrwt>
<rscale>  0 0.28733046E+03</rscale>
<asrwt>0</asrwt>
<pdfrwt beam="1">  1        2 0.16451528E-01 0.28733046E+03</pdfrwt>
<pdfrwt beam="2">  1       -2 0.29694117E-01 0.28733046E+03</pdfrwt>
<totfact> 0.36257590E+03</totfact>
</mgrwt>
</event>
<event>
 4    1  0.1672993E-004  0.3170389E+03  0.7818608E-02  0.1077020E+00
          2   -1    0    0  501    0  0.00000000000E+00  0.00000000000E+00  0.24892773766E+03  0.24892773766E+03  0.00000000000E+00 0. -1.
         -2   -1    0    0    0  501 -0.00000000000E+00 -0.00000000000E+00 -0.10094662672E+03  0.10094662672E+03  0.00000000000E+00 0. -1.
         25    1    1    2    0    0  0.44680242410E+02 -0.58198500209E+02  0.15467215198E+03  0.20906186665E+03  0.12000000000E+03 0.  0.
         25    1    1    2    0    0 -0.44680242410E+02  0.58198500209E+02 -0.66910410448E+01  0.14081249774E+03  0.12000000000E+03 0.  0.
<mgrwt>
<rscale>  0 0.31703890E+03</rscale>
<asrwt>0</asrwt>
<pdfrwt beam="1">  1        2 0.38296575E-01 0.31703890E+03</pdfrwt>
<pdfrwt beam="2">  1       -2 0.15530250E-01 0.31703890E+03</pdfrwt>
<totfact> 0.43284653E+03</totfact>
</mgrwt>
</event>
<event>
 4    1  0.1672993E-004  0.2538245E+03  0.7818608E-02  0.1110911E+00
          2   -1    0    0  501    0  0.00000000000E+00  0.00000000000E+00  0.21627488348E+04  0.21627488348E+04  0.00000000000E+00 0. -1.
         -2   -1    0    0    0  501 -0.00000000000E+00 -0.00000000000E+00 -0.74473372212E+01  0.74473372212E+01  0.00000000000E+00 0. -1.
         25    1    1    2    0    0  0.17202673078E+02 -0.24934951131E+02  0.13178180592E+04  0.13236170598E+04  0.12000000000E+03 0.  0.
         25    1    1    2    0    0 -0.17202673078E+02  0.24934951131E+02  0.83748343837E+03  0.84657911225E+03  0.12000000000E+03 0.  0.
<mgrwt>
<rscale>  0 0.25382451E+03</rscale>
<asrwt>0</asrwt>
<pdfrwt beam="1">  1        2 0.33273009E+00 0.25382451E+03</pdfrwt>
<pdfrwt beam="2">  1       -2 0.11457459E-02 0.25382451E+03</pdfrwt>
<totfact> 0.10645658E+04</totfact>
</mgrwt>
</event>
<event>
 4    1  0.1672993E-004  0.4124289E+03  0.7818608E-02  0.1039559E+00
         -2   -1    0    0    0  501 -0.00000000000E+00  0.00000000000E+00  0.12840472570E+02  0.12840472570E+02  0.00000000000E+00 0. -1.
          2   -1    0    0  501    0  0.00000000000E+00 -0.00000000000E+00 -0.33117475761E+04  0.33117475761E+04  0.00000000000E+00 0. -1.
         25    1    1    2    0    0 -0.14994276837E+03  0.71760521945E+02 -0.18282546676E+04  0.18397139821E+04  0.12000000000E+03 0.  0.
         25    1    1    2    0    0  0.14994276837E+03 -0.71760521945E+02 -0.14706524359E+04  0.14848740666E+04  0.12000000000E+03 0.  0.
<mgrwt>
<rscale>  0 0.41242892E+03</rscale>
<asrwt>0</asrwt>
<pdfrwt beam="1">  1        2 0.50949948E+00 0.41242892E+03</pdfrwt>
<pdfrwt beam="2">  1       -2 0.19754579E-02 0.41242892E+03</pdfrwt>
<totfact> 0.10329760E+03</totfact>
</mgrwt>
</event>
<event>
 4    1  0.1672993E-004  0.3875106E+03  0.7818608E-02  0.1048192E+00
          2   -1    0    0  501    0  0.00000000000E+00  0.00000000000E+00  0.72564012544E+03  0.72564012544E+03  0.00000000000E+00 0. -1.
         -2   -1    0    0    0  501 -0.00000000000E+00 -0.00000000000E+00 -0.51735164223E+02  0.51735164223E+02  0.00000000000E+00 0. -1.
         25    1    1    2    0    0 -0.12716841243E+03 -0.26980785827E+02  0.49543676563E+03  0.52607732955E+03  0.12000000000E+03 0.  0.
         25    1    1    2    0    0  0.12716841243E+03  0.26980785827E+02  0.17846819559E+03  0.25129796012E+03  0.12000000000E+03 0.  0.
<mgrwt>
<rscale>  0 0.38751057E+03</rscale>
<asrwt>0</asrwt>
<pdfrwt beam="1">  1        2 0.11163694E+00 0.38751057E+03</pdfrwt>
<pdfrwt beam="2">  1       -2 0.79592565E-02 0.38751057E+03</pdfrwt>
<totfact> 0.38443839E+03</totfact>
</mgrwt>
</event>
<event>
 4    1  0.1672993E-004  0.2550975E+03  0.7818608E-02  0.1110125E+00
          1   -1    0    0  501    0  0.00000000000E+00  0.00000000000E+00  0.86578528247E+02  0.86578528247E+02  0.00000000000E+00 0.  1.
         -1   -1    0    0    0  501 -0.00000000000E+00 -0.00000000000E+00 -0.18790675010E+03  0.18790675010E+03  0.00000000000E+00 0.  1.
         25    1    1    2    0    0 -0.13706439430E+01  0.26620979344E+02 -0.87281915401E+02  0.15076036602E+03  0.12000000000E+03 0.  0.
         25    1    1    2    0    0  0.13706439430E+01 -0.26620979344E+02 -0.14046306453E+02  0.12372491233E+03  0.12000000000E+03 0.  0.
<mgrwt>
<rscale>  0 0.25509755E+03</rscale>
<asrwt>0</asrwt>
<pdfrwt beam="1">  1        1 0.13319774E-01 0.25509755E+03</pdfrwt>
<pdfrwt beam="2">  1       -1 0.28908731E-01 0.25509755E+03</pdfrwt>
<totfact> 0.47035343E+03</totfact>
</mgrwt>
</event>
<event>
 4    1  0.1672993E-004  0.3347488E+03  0.7818608E-02  0.1069055E+00
          4   -1    0    0  501    0  0.00000000000E+00  0.00000000000E+00  0.31669816498E+02  0.31669816498E+02  0.00000000000E+00 0. -1.
         -4   -1    0    0    0  501 -0.00000000000E+00 -0.00000000000E+00 -0.88457077205E+03  0.88457077205E+03  0.00000000000E+00 0. -1.
         25    1    1    2    0    0  0.21115236511E+02  0.10066627804E+03 -0.57723061897E+03  0.59847701729E+03  0.12000000000E+03 0.  0.
         25    1    1    2    0    0 -0.21115236511E+02 -0.10066627804E+03 -0.27567033658E+03  0.31776357126E+03  0.12000000000E+03 0.  0.
<mgrwt>
<rscale>  0 0.33474883E+03</rscale>
<asrwt>0</asrwt>
<pdfrwt beam="1">  1        4 0.48722795E-02 0.33474883E+03</pdfrwt>
<pdfrwt beam="2">  1       -4 0.13608781E+00 0.33474883E+03</pdfrwt>
<totfact> 0.19241120E+02</totfact>
</mgrwt>
</event>
<event>
 4    1  0.1672993E-004  0.2660868E+03  0.7818608E-02  0.1103540E+00
         -1   -1    0    0    0  501 -0.00000000000E+00  0.00000000000E+00  0.37826335502E+02  0.37826335502E+02  0.00000000000E+00 0.  1.
          1   -1    0    0  501    0  0.00000000000E+00 -0.00000000000E+00 -0.46794254737E+03  0.46794254737E+03  0.00000000000E+00 0.  1.
         25    1    1    2    0    0  0.36351196158E+02  0.38381584276E+02 -0.17230158236E+03  0.21652341850E+03  0.12000000000E+03 0.  0.
         25    1    1    2    0    0 -0.36351196158E+02 -0.38381584276E+02 -0.25781462951E+03  0.28924546438E+03  0.12000000000E+03 0.  0.
<mgrwt>
<rscale>  0 0.26608684E+03</rscale>
<asrwt>0</asrwt>
<pdfrwt beam="1">  1        1 0.71991162E-01 0.26608684E+03</pdfrwt>
<pdfrwt beam="2">  1       -1 0.58194361E-02 0.26608684E+03</pdfrwt>
<totfact> 0.68569146E+03</totfact>
</mgrwt>
</event>
<event>
 4    1  0.1672993E-004  0.2859720E+03  0.7818608E-02  0.1092471E+00
         -2   -1    0    0    0  501 -0.00000000000E+00  0.00000000000E+00  0.16039905456E+02  0.16039905456E+02  0.00000000000E+00 0.  1.
          2   -1    0    0  501    0  0.00000000000E+00 -0.00000000000E+00 -0.12746331236E+04  0.12746331236E+04  0.00000000000E+00 0.  1.
         25    1    1    2    0    0 -0.29905933995E+02 -0.62425515744E+02 -0.78910034666E+03  0.80116831378E+03  0.12000000000E+03 0.  0.
         25    1    1    2    0    0  0.29905933995E+02  0.62425515744E+02 -0.46949287146E+03  0.48950471526E+03  0.12000000000E+03 0.  0.
<mgrwt>
<rscale>  0 0.28597199E+03</rscale>
<asrwt>0</asrwt>
<pdfrwt beam="1">  1        2 0.19609739E+00 0.28597199E+03</pdfrwt>
<pdfrwt beam="2">  1       -2 0.24676780E-02 0.28597199E+03</pdfrwt>
<totfact> 0.10274040E+04</totfact>
</mgrwt>
</event>
<event>
 4    1  0.1672993E-004  0.3032666E+03  0.7818608E-02  0.1083619E+00
         -2   -1    0    0    0  501 -0.00000000000E+00  0.00000000000E+00  0.20355666250E+02  0.20355666250E+02  0.00000000000E+00 0. -1.
          2   -1    0    0  501    0  0.00000000000E+00 -0.00000000000E+00 -0.11295461208E+04  0.11295461208E+04  0.00000000000E+00 0. -1.
         25    1    1    2    0    0 -0.11586573553E+02  0.74914760184E+02 -0.75688240147E+03  0.77007625573E+03  0.12000000000E+03 0.  0.
         25    1    1    2    0    0  0.11586573553E+02 -0.74914760184E+02 -0.35230805310E+03  0.37982553134E+03  0.12000000000E+03 0.  0.
<mgrwt>
<rscale>  0 0.30326664E+03</rscale>
<asrwt>0</asrwt>
<pdfrwt beam="1">  1        2 0.17377640E+00 0.30326664E+03</pdfrwt>
<pdfrwt beam="2">  1       -2 0.31316397E-02 0.30326664E+03</pdfrwt>
<totfact> 0.87307359E+03</totfact>
</mgrwt>
</event>
<event>
 4    1  0.1672993E-004  0.2940668E+03  0.7818608E-02  0.1088245E+00
          2   -1    0    0  501    0  0.00000000000E+00  0.00000000000E+00  0.13577799423E+03  0.13577799423E+03  0.00000000000E+00 0.  1.
         -2   -1    0    0    0  501 -0.00000000000E+00 -0.00000000000E+00 -0.15922182974E+03  0.15922182974E+03  0.00000000000E+00 0.  1.
         25    1    1    2    0    0 -0.60159774121E+02 -0.59495908453E+02 -0.19483334062E+02  0.14811671699E+03  0.12000000000E+03 0.  0.
         25    1    1    2    0    0  0.60159774121E+02  0.59495908453E+02 -0.39605014431E+01  0.14688310698E+03  0.12000000000E+03 0.  0.
<mgrwt>
<rscale>  0 0.29406680E+03</rscale>
<asrwt>0</asrwt>
<pdfrwt beam="1">  1        2 0.20888922E-01 0.29406680E+03</pdfrwt>
<pdfrwt beam="2">  1       -2 0.24495666E-01 0.29406680E+03</pdfrwt>
<totfact> 0.38818442E+03</totfact>
</mgrwt>
</event>
<event>
 4    1  0.1672993E-004  0.3658257E+03  0.7818608E-02  0.1056301E+00
         -2   -1    0    0    0  501 -0.00000000000E+00  0.00000000000E+00  0.33643445364E+03  0.33643445364E+03  0.00000000000E+00 0. -1.
          2   -1    0    0  501    0  0.00000000000E+00 -0.00000000000E+00 -0.99446146449E+02  0.99446146449E+02  0.00000000000E+00 0. -1.
         25    1    1    2    0    0 -0.11841306310E+03  0.10571781257E+02  0.34887882416E+02  0.17248356562E+03  0.12000000000E+03 0.  0.
         25    1    1    2    0    0  0.11841306310E+03 -0.10571781257E+02  0.20210042478E+03  0.26339703447E+03  0.12000000000E+03 0.  0.
<mgrwt>
<rscale>  0 0.36582570E+03</rscale>
<asrwt>0</asrwt>
<pdfrwt beam="1">  1        2 0.15299407E-01 0.36582570E+03</pdfrwt>
<pdfrwt beam="2">  1       -2 0.51759146E-01 0.36582570E+03</pdfrwt>
<totfact> 0.13716843E+03</totfact>
</mgrwt>
</event>
<event>
 4    1  0.1672993E-004  0.3461602E+03  0.7818608E-02  0.1064202E+00
         -1   -1    0    0    0  501 -0.00000000000E+00  0.00000000000E+00  0.10305685014E+02  0.10305685014E+02  0.00000000000E+00 0.  1.
          1   -1    0    0  501    0  0.00000000000E+00 -0.00000000000E+00 -0.29068157003E+04  0.29068157003E+04  0.00000000000E+00 0.  1.
         25    1    1    2    0    0 -0.69539017645E+02 -0.30081056729E+02 -0.22831822406E+04  0.22875886188E+04  0.12000000000E+03 0.  0.
         25    1    1    2    0    0  0.69539017645E+02  0.30081056729E+02 -0.61332777472E+03  0.62953276657E+03  0.12000000000E+03 0.  0.
<mgrwt>
<rscale>  0 0.34616023E+03</rscale>
<asrwt>0</asrwt>
<pdfrwt beam="1">  1        1 0.44720243E+00 0.34616023E+03</pdfrwt>
<pdfrwt beam="2">  1       -1 0.15854899E-02 0.34616023E+03</pdfrwt>
<totfact> 0.80136104E+02</totfact>
</mgrwt>
</event>
<event>
 4    1  0.1672993E-004  0.2661523E+03  0.7818608E-02  0.1103502E+00
          1   -1    0    0  501    0  0.00000000000E+00  0.00000000000E+00  0.15297448496E+03  0.15297448496E+03  0.00000000000E+00 0. -1.
         -1   -1    0    0    0  501 -0.00000000000E+00 -0.00000000000E+00 -0.11576611520E+03  0.11576611520E+03  0.00000000000E+00 0. -1.
         25    1    1    2    0    0 -0.35055863883E+02 -0.21747200714E+01  0.64606200418E+02  0.14073949031E+03  0.12000000000E+03 0.  0.
         25    1    1    2    0    0  0.35055863883E+02  0.21747200714E+01 -0.27397830656E+02  0.12800110986E+03  0.12000000000E+03 0.  0.
<mgrwt>
<rscale>  0 0.26615230E+03</rscale>
<asrwt>0</asrwt>
<pdfrwt beam="1">  1        1 0.23534536E-01 0.26615230E+03</pdfrwt>
<pdfrwt beam="2">  1       -1 0.17810172E-01 0.26615230E+03</pdfrwt>
<totfact> 0.49959072E+03</totfact>
</mgrwt>
</event>
<event>
 4    1  0.1672993E-004  0.2486103E+03  0.7818608E-02  0.1114186E+00
          1   -1    0    0  501    0  0.00000000000E+00  0.00000000000E+00  0.30587704100E+03  0.30587704100E+03  0.00000000000E+00 0. -1.
         -1   -1    0    0    0  501 -0.00000000000E+00 -0.00000000000E+00 -0.50516269990E+02  0.50516269990E+02  0.00000000000E+00 0. -1.
         25    1    1    2    0    0 -0.87937805200E+01 -0.27058431452E+02  0.10536690233E+03  0.16220873403E+03  0.12000000000E+03 0.  0.
         25    1    1    2    0    0  0.87937805200E+01  0.27058431452E+02  0.14999386867E+03  0.19418457696E+03  0.12000000000E+03 0.  0.
<mgrwt>
<rscale>  0 0.24861027E+03</rscale>
<asrwt>0</asrwt>
<pdfrwt beam="1">  1        1 0.47058005E-01 0.24861027E+03</pdfrwt>
<pdfrwt beam="2">  1       -1 0.77717340E-02 0.24861027E+03</pdfrwt>
<totfact> 0.75963406E+03</totfact>
</mgrwt>
</event>
<event>
 4    1  0.1672993E-004  0.2702471E+03  0.7818608E-02  0.1101138E+00
         -4   -1    0    0    0  501 -0.00000000000E+00  0.00000000000E+00  0.11889081294E+03  0.11889081294E+03  0.00000000000E+00 0. -1.
          4   -1    0    0  501    0  0.00000000000E+00 -0.00000000000E+00 -0.15357265536E+03  0.15357265536E+03  0.00000000000E+00 0. -1.
         25    1    1    2    0    0  0.22337826540E+02  0.56890439197E+02 -0.61650091778E+01  0.13480915364E+03  0.12000000000E+03 0.  0.
         25    1    1    2    0    0 -0.22337826540E+02 -0.56890439197E+02 -0.28516833240E+02  0.13765431466E+03  0.12000000000E+03 0.  0.
<mgrwt>
<rscale>  0 0.27024713E+03</rscale>
<asrwt>0</asrwt>
<pdfrwt beam="1">  1        4 0.23626562E-01 0.27024713E+03</pdfrwt>
<pdfrwt beam="2">  1       -4 0.18290894E-01 0.27024713E+03</pdfrwt>
<totfact> 0.82495449E+02</totfact>
</mgrwt>
</event>
<event>
 4    1  0.1672993E-004  0.4206780E+03  0.7818608E-02  0.1036846E+00
         -1   -1    0    0    0  501 -0.00000000000E+00  0.00000000000E+00  0.24801323610E+02  0.24801323610E+02  0.00000000000E+00 0.  1.
          1   -1    0    0  501    0  0.00000000000E+00 -0.00000000000E+00 -0.17838765027E+04  0.17838765027E+04  0.00000000000E+00 0.  1.
         25    1    1    2    0    0  0.13515461203E+03 -0.93255057850E+02 -0.11102383799E+04  0.11287127780E+04  0.12000000000E+03 0.  0.
         25    1    1    2    0    0 -0.13515461203E+03  0.93255057850E+02 -0.64883679914E+03  0.67996504828E+03  0.12000000000E+03 0.  0.
<mgrwt>
<rscale>  0 0.42067802E+03</rscale>
<asrwt>0</asrwt>
<pdfrwt beam="1">  1        1 0.27444263E+00 0.42067802E+03</pdfrwt>
<pdfrwt beam="2">  1       -1 0.38155869E-02 0.42067802E+03</pdfrwt>
<totfact> 0.12188837E+03</totfact>
</mgrwt>
</event>
<event>
 4    1  0.1672993E-004  0.5551717E+03  0.7818608E-02  0.1000304E+00
          2   -1    0    0  501    0  0.00000000000E+00  0.00000000000E+00  0.93252890660E+03  0.93252890660E+03  0.00000000000E+00 0. -1.
         -2   -1    0    0    0  501 -0.00000000000E+00 -0.00000000000E+00 -0.82628982575E+02  0.82628982575E+02  0.00000000000E+00 0. -1.
         25    1    1    2    0    0  0.62938350460E+02 -0.85487780017E+02  0.83944791393E+03  0.85460060654E+03  0.12000000000E+03 0.  0.
         25    1    1    2    0    0 -0.62938350460E+02  0.85487780017E+02  0.10452010086E+02  0.16055728263E+03  0.12000000000E+03 0.  0.
<mgrwt>
<rscale>  0 0.55517174E+03</rscale>
<asrwt>0</asrwt>
<pdfrwt beam="1">  1        2 0.14346598E+00 0.55517174E+03</pdfrwt>
<pdfrwt beam="2">  1       -2 0.12712152E-01 0.55517174E+03</pdfrwt>
<totfact> 0.12980367E+03</totfact>
</mgrwt>
</event>
<event>
 4    1  0.1672993E-004  0.2731484E+03  0.7818608E-02  0.1099491E+00
          2   -1    0    0  501    0  0.00000000000E+00  0.00000000000E+00  0.11724259122E+04  0.11724259122E+04  0.00000000000E+00 0.  1.
         -2   -1    0    0    0  501 -0.00000000000E+00 -0.00000000000E+00 -0.15909326726E+02  0.15909326726E+02  0.00000000000E+00 0.  1.
         25    1    1    2    0    0 -0.10263996221E+01  0.29516004258E+02  0.83119703679E+03  0.84033372060E+03  0.12000000000E+03 0.  0.
         25    1    1    2    0    0  0.10263996221E+01 -0.29516004258E+02  0.32531954867E+03  0.34800151832E+03  0.12000000000E+03 0.  0.
<mgrwt>
<rscale>  0 0.27314836E+03</rscale>
<asrwt>0</asrwt>
<pdfrwt beam="1">  1        2 0.18037315E+00 0.27314836E+03</pdfrwt>
<pdfrwt beam="2">  1       -2 0.24475896E-02 0.27314836E+03</pdfrwt>
<totfact> 0.11864215E+04</totfact>
</mgrwt>
</event>
<event>
 4    1  0.1672993E-004  0.2734391E+03  0.7818608E-02  0.1099327E+00
          1   -1    0    0  501    0  0.00000000000E+00  0.00000000000E+00  0.12190974384E+04  0.12190974384E+04  0.00000000000E+00 0. -1.
         -1   -1    0    0    0  501 -0.00000000000E+00 -0.00000000000E+00 -0.15332849542E+02  0.15332849542E+02  0.00000000000E+00 0. -1.
         25    1    1    2    0    0 -0.61220800505E+02 -0.13180559763E+02  0.68878116186E+03  0.70195527102E+03  0.12000000000E+03 0.  0.
         25    1    1    2    0    0  0.61220800505E+02  0.13180559763E+02  0.51498342696E+03  0.53247501690E+03  0.12000000000E+03 0.  0.
<mgrwt>
<rscale>  0 0.27343912E+03</rscale>
<asrwt>0</asrwt>
<pdfrwt beam="1">  1        1 0.18755338E+00 0.27343912E+03</pdfrwt>
<pdfrwt beam="2">  1       -1 0.23589009E-02 0.27343912E+03</pdfrwt>
<totfact> 0.59714774E+03</totfact>
</mgrwt>
</event>
<event>
 4    1  0.1672993E-004  0.2647159E+03  0.7818608E-02  0.1104342E+00
         -1   -1    0    0    0  501 -0.00000000000E+00  0.00000000000E+00  0.90506091205E+02  0.90506091205E+02  0.00000000000E+00 0. -1.
          1   -1    0    0  501    0  0.00000000000E+00 -0.00000000000E+00 -0.19356298435E+03  0.19356298435E+03  0.00000000000E+00 0. -1.
         25    1    1    2    0    0  0.46139044642E+02 -0.31451436196E+02 -0.50680190542E+02  0.14172680054E+03  0.12000000000E+03 0.  0.
         25    1    1    2    0    0 -0.46139044642E+02  0.31451436196E+02 -0.52376702601E+02  0.14234227501E+03  0.12000000000E+03 0.  0.
<mgrwt>
<rscale>  0 0.26471592E+03</rscale>
<asrwt>0</asrwt>
<pdfrwt beam="1">  1        1 0.29778920E-01 0.26471592E+03</pdfrwt>
<pdfrwt beam="2">  1       -1 0.13924014E-01 0.26471592E+03</pdfrwt>
<totfact> 0.54838424E+03</totfact>
</mgrwt>
</event>
<event>
 4    1  0.1672993E-004  0.2478293E+03  0.7818608E-02  0.1114684E+00
         -2   -1    0    0    0  501 -0.00000000000E+00  0.00000000000E+00  0.10118389531E+02  0.10118389531E+02  0.00000000000E+00 0. -1.
          2   -1    0    0  501    0  0.00000000000E+00 -0.00000000000E+00 -0.15175177497E+04  0.15175177497E+04  0.00000000000E+00 0. -1.
         25    1    1    2    0    0  0.27721762022E+02  0.13273180814E+02 -0.77334970965E+03  0.78320779289E+03  0.12000000000E+03 0.  0.
         25    1    1    2    0    0 -0.27721762022E+02 -0.13273180814E+02 -0.73404965051E+03  0.74442834634E+03  0.12000000000E+03 0.  0.
<mgrwt>
<rscale>  0 0.24782926E+03</rscale>
<asrwt>0</asrwt>
<pdfrwt beam="1">  1        2 0.23346420E+00 0.24782926E+03</pdfrwt>
<pdfrwt beam="2">  1       -2 0.15566758E-02 0.24782926E+03</pdfrwt>
<totfact> 0.14865544E+04</totfact>
</mgrwt>
</event>
<event>
 4    1  0.1672993E-004  0.4705923E+03  0.7818608E-02  0.1021753E+00
          2   -1    0    0  501    0  0.00000000000E+00  0.00000000000E+00  0.64356269917E+03  0.64356269917E+03  0.00000000000E+00 0.  1.
         -2   -1    0    0    0  501 -0.00000000000E+00 -0.00000000000E+00 -0.86027784113E+02  0.86027784113E+02  0.00000000000E+00 0.  1.
         25    1    1    2    0    0 -0.33291585824E+02  0.10401648387E+03  0.14583400892E+02  0.16291235124E+03  0.12000000000E+03 0.  0.
         25    1    1    2    0    0  0.33291585824E+02 -0.10401648387E+03  0.54295151416E+03  0.56667813204E+03  0.12000000000E+03 0.  0.
<mgrwt>
<rscale>  0 0.47059228E+03</rscale>
<asrwt>0</asrwt>
<pdfrwt beam="1">  1        2 0.99009643E-01 0.47059228E+03</pdfrwt>
<pdfrwt beam="2">  1       -2 0.13235044E-01 0.47059228E+03</pdfrwt>
<totfact> 0.19648732E+03</totfact>
</mgrwt>
</event>
<event>
 4    1  0.1672993E-004  0.2474114E+03  0.7818608E-02  0.1114952E+00
         -2   -1    0    0    0  501 -0.00000000000E+00  0.00000000000E+00  0.51485822586E+01  0.51485822586E+01  0.00000000000E+00 0.  1.
          2   -1    0    0  501    0  0.00000000000E+00 -0.00000000000E+00 -0.29722937009E+04  0.29722937009E+04  0.00000000000E+00 0.  1.
         25    1    1    2    0    0 -0.10223302951E+02 -0.25387835262E+02 -0.16329349121E+04  0.16375669407E+04  0.12000000000E+03 0.  0.
         25    1    1    2    0    0  0.10223302951E+02  0.25387835262E+02 -0.13342102065E+04  0.13398753425E+04  0.12000000000E+03 0.  0.
<mgrwt>
<rscale>  0 0.24741139E+03</rscale>
<asrwt>0</asrwt>
<pdfrwt beam="1">  1        2 0.45727531E+00 0.24741139E+03</pdfrwt>
<pdfrwt beam="2">  1       -2 0.79209070E-03 0.24741139E+03</pdfrwt>
<totfact> 0.64762606E+03</totfact>
</mgrwt>
</event>
<event>
 4    1  0.1672993E-004  0.2561599E+03  0.7818608E-02  0.1109473E+00
         -2   -1    0    0    0  501 -0.00000000000E+00  0.00000000000E+00  0.47166526115E+01  0.47166526115E+01  0.00000000000E+00 0. -1.
          2   -1    0    0  501    0  0.00000000000E+00 -0.00000000000E+00 -0.34779904998E+04  0.34779904998E+04  0.00000000000E+00 0. -1.
         25    1    1    2    0    0  0.20829434037E+02 -0.25270411436E+02 -0.13215710486E+04  0.13274119539E+04  0.12000000000E+03 0.  0.
         25    1    1    2    0    0 -0.20829434037E+02  0.25270411436E+02 -0.21517027986E+04  0.21552951984E+04  0.12000000000E+03 0.  0.
<mgrwt>
<rscale>  0 0.25615990E+03</rscale>
<asrwt>0</asrwt>
<pdfrwt beam="1">  1        2 0.53507684E+00 0.25615990E+03</pdfrwt>
<pdfrwt beam="2">  1       -2 0.72563699E-03 0.25615990E+03</pdfrwt>
<totfact> 0.35674780E+03</totfact>
</mgrwt>
</event>
<event>
 4    1  0.1672993E-004  0.2585506E+03  0.7818608E-02  0.1108017E+00
          4   -1    0    0  501    0  0.00000000000E+00  0.00000000000E+00  0.41862146735E+02  0.41862146735E+02  0.00000000000E+00 0. -1.
         -4   -1    0    0    0  501 -0.00000000000E+00 -0.00000000000E+00 -0.39921753188E+03  0.39921753188E+03  0.00000000000E+00 0. -1.
         25    1    1    2    0    0 -0.37269560933E+02  0.12996083985E+02 -0.13182761520E+03  0.18258268949E+03  0.12000000000E+03 0.  0.
         25    1    1    2    0    0  0.37269560933E+02 -0.12996083985E+02 -0.22552776995E+03  0.25849698913E+03  0.12000000000E+03 0.  0.
<mgrwt>
<rscale>  0 0.25855060E+03</rscale>
<asrwt>0</asrwt>
<pdfrwt beam="1">  1        4 0.64403305E-02 0.25855060E+03</pdfrwt>
<pdfrwt beam="2">  1       -4 0.61418080E-01 0.25855060E+03</pdfrwt>
<totfact> 0.74187684E+02</totfact>
</mgrwt>
</event>
<event>
 4    1  0.1672993E-004  0.3447871E+03  0.7818608E-02  0.1064775E+00
         -2   -1    0    0    0  501 -0.00000000000E+00  0.00000000000E+00  0.34128677806E+02  0.34128677806E+02  0.00000000000E+00 0.  1.
          2   -1    0    0  501    0  0.00000000000E+00 -0.00000000000E+00 -0.87080852025E+03  0.87080852025E+03  0.00000000000E+00 0.  1.
         25    1    1    2    0    0  0.23879199531E+02  0.11535423257E+02 -0.73565121290E+03  0.74584582133E+03  0.12000000000E+03 0.  0.
         25    1    1    2    0    0 -0.23879199531E+02 -0.11535423257E+02 -0.10102862954E+03  0.15909137672E+03  0.12000000000E+03 0.  0.
<mgrwt>
<rscale>  0 0.34478714E+03</rscale>
<asrwt>0</asrwt>
<pdfrwt beam="1">  1        2 0.13397052E+00 0.34478714E+03</pdfrwt>
<pdfrwt beam="2">  1       -2 0.52505667E-02 0.34478714E+03</pdfrwt>
<totfact> 0.57923386E+03</totfact>
</mgrwt>
</event>
<event>
 4    1  0.1672993E-004  0.4255833E+03  0.7818608E-02  0.1035264E+00
          2   -1    0    0  501    0  0.00000000000E+00  0.00000000000E+00  0.23320393139E+04  0.23320393139E+04  0.00000000000E+00 0. -1.
         -2   -1    0    0    0  501 -0.00000000000E+00 -0.00000000000E+00 -0.19416602278E+02  0.19416602278E+02  0.00000000000E+00 0. -1.
         25    1    1    2    0    0 -0.60191302537E+02  0.14339622516E+03  0.70422499131E+03  0.73110759036E+03  0.12000000000E+03 0.  0.
         25    1    1    2    0    0  0.60191302537E+02 -0.14339622516E+03  0.16083977203E+04  0.16203483258E+04  0.12000000000E+03 0.  0.
<mgrwt>
<rscale>  0 0.42558327E+03</rscale>
<asrwt>0</asrwt>
<pdfrwt beam="1">  1        2 0.35877506E+00 0.42558327E+03</pdfrwt>
<pdfrwt beam="2">  1       -2 0.29871714E-02 0.42558327E+03</pdfrwt>
<totfact> 0.20845966E+03</totfact>
</mgrwt>
</event>
<event>
 4    1  0.1672993E-004  0.3464634E+03  0.7818608E-02  0.1064076E+00
         -1   -1    0    0    0  501 -0.00000000000E+00  0.00000000000E+00  0.20583459109E+02  0.20583459109E+02  0.00000000000E+00 0. -1.
          1   -1    0    0  501    0  0.00000000000E+00 -0.00000000000E+00 -0.14579291684E+04  0.14579291684E+04  0.00000000000E+00 0. -1.
         25    1    1    2    0    0 -0.11352044293E+03  0.32890014806E+02 -0.89152172246E+03  0.90729246974E+03  0.12000000000E+03 0.  0.
         25    1    1    2    0    0  0.11352044293E+03 -0.32890014806E+02 -0.54582398686E+03  0.57122015779E+03  0.12000000000E+03 0.  0.
<mgrwt>
<rscale>  0 0.34646342E+03</rscale>
<asrwt>0</asrwt>
<pdfrwt beam="1">  1        1 0.22429688E+00 0.34646342E+03</pdfrwt>
<pdfrwt beam="2">  1       -1 0.31666848E-02 0.34646342E+03</pdfrwt>
<totfact> 0.26589427E+03</totfact>
</mgrwt>
</event>
<event>
 4    1  0.1672993E-004  0.2904623E+03  0.7818608E-02  0.1090108E+00
         -2   -1    0    0    0  501 -0.00000000000E+00  0.00000000000E+00  0.16353463069E+02  0.16353463069E+02  0.00000000000E+00 0. -1.
          2   -1    0    0  501    0  0.00000000000E+00 -0.00000000000E+00 -0.12897630407E+04  0.12897630407E+04  0.00000000000E+00 0. -1.
         25    1    1    2    0    0  0.23432266296E+02 -0.66516250471E+02 -0.45028985385E+03  0.47131139935E+03  0.12000000000E+03 0.  0.
         25    1    1    2    0    0 -0.23432266296E+02  0.66516250471E+02 -0.82311972374E+03  0.83480510438E+03  0.12000000000E+03 0.  0.
<mgrwt>
<rscale>  0 0.29046234E+03</rscale>
<asrwt>0</asrwt>
<pdfrwt beam="1">  1        2 0.19842506E+00 0.29046234E+03</pdfrwt>
<pdfrwt beam="2">  1       -2 0.25159176E-02 0.29046234E+03</pdfrwt>
<totfact> 0.97948838E+03</totfact>
</mgrwt>
</event>
<event>
 4    1  0.1672993E-004  0.2656917E+03  0.7818608E-02  0.1103771E+00
          3   -1    0    0  501    0  0.00000000000E+00  0.00000000000E+00  0.10805037869E+03  0.10805037869E+03  0.00000000000E+00 0.  1.
         -3   -1    0    0    0  501 -0.00000000000E+00 -0.00000000000E+00 -0.16333143644E+03  0.16333143644E+03  0.00000000000E+00 0.  1.
         25    1    1    2    0    0  0.31294591103E+02 -0.27607164451E+02  0.12004585052E+02  0.12761511283E+03  0.12000000000E+03 0.  0.
         25    1    1    2    0    0 -0.31294591103E+02  0.27607164451E+02 -0.67285642806E+02  0.14376670230E+03  0.12000000000E+03 0.  0.
<mgrwt>
<rscale>  0 0.26569173E+03</rscale>
<asrwt>0</asrwt>
<pdfrwt beam="1">  1        3 0.16623135E-01 0.26569173E+03</pdfrwt>
<pdfrwt beam="2">  1       -3 0.25127913E-01 0.26569173E+03</pdfrwt>
<totfact> 0.11717667E+03</totfact>
</mgrwt>
</event>
<event>
 4    1  0.1672993E-004  0.3386032E+03  0.7818608E-02  0.1067392E+00
          1   -1    0    0  501    0  0.00000000000E+00  0.00000000000E+00  0.26318754673E+04  0.26318754673E+04  0.00000000000E+00 0.  1.
         -1   -1    0    0    0  501 -0.00000000000E+00 -0.00000000000E+00 -0.10890726764E+02  0.10890726764E+02  0.00000000000E+00 0.  1.
         25    1    1    2    0    0 -0.56728733492E+02 -0.71125716131E+02  0.70663172615E+03  0.72249942083E+03  0.12000000000E+03 0.  0.
         25    1    1    2    0    0  0.56728733492E+02  0.71125716131E+02  0.19143530144E+04  0.19202667733E+04  0.12000000000E+03 0.  0.
<mgrwt>
<rscale>  0 0.33860323E+03</rscale>
<asrwt>0</asrwt>
<pdfrwt beam="1">  1        1 0.40490341E+00 0.33860323E+03</pdfrwt>
<pdfrwt beam="2">  1       -1 0.16754985E-02 0.33860323E+03</pdfrwt>
<totfact> 0.11417973E+03</totfact>
</mgrwt>
</event>
<event>
 4    1  0.1672993E-004  0.2408658E+03  0.7818608E-02  0.1119217E+00
         -2   -1    0    0    0  501 -0.00000000000E+00  0.00000000000E+00  0.13050680182E+03  0.13050680182E+03  0.00000000000E+00 0.  1.
          2   -1    0    0  501    0  0.00000000000E+00 -0.00000000000E+00 -0.11113660525E+03  0.11113660525E+03  0.00000000000E+00 0.  1.
         25    1    1    2    0    0 -0.99757457494E+00 -0.54923378565E+01  0.11180925043E+01  0.12013497018E+03  0.12000000000E+03 0.  0.
         25    1    1    2    0    0  0.99757457494E+00  0.54923378565E+01  0.18252104063E+02  0.12150843688E+03  0.12000000000E+03 0.  0.
<mgrwt>
<rscale>  0 0.24086580E+03</rscale>
<asrwt>0</asrwt>
<pdfrwt beam="1">  1        2 0.17097939E-01 0.24086580E+03</pdfrwt>
<pdfrwt beam="2">  1       -2 0.20077969E-01 0.24086580E+03</pdfrwt>
<totfact> 0.68529574E+03</totfact>
</mgrwt>
</event>
<event>
 4    1  0.1672993E-004  0.2478279E+03  0.7818608E-02  0.1114685E+00
         -2   -1    0    0    0  501 -0.00000000000E+00  0.00000000000E+00  0.10736174481E+02  0.10736174481E+02  0.00000000000E+00 0. -1.
          2   -1    0    0  501    0  0.00000000000E+00 -0.00000000000E+00 -0.14301809099E+04  0.14301809099E+04  0.00000000000E+00 0. -1.
         25    1    1    2    0    0 -0.44224799562E+01 -0.30367098928E+02 -0.73064758243E+03  0.74107193223E+03  0.12000000000E+03 0.  0.
         25    1    1    2    0    0  0.44224799562E+01  0.30367098928E+02 -0.68879715298E+03  0.69984515215E+03  0.12000000000E+03 0.  0.
<mgrwt>
<rscale>  0 0.24782794E+03</rscale>
<asrwt>0</asrwt>
<pdfrwt beam="1">  1        2 0.22002786E+00 0.24782794E+03</pdfrwt>
<pdfrwt beam="2">  1       -2 0.16517189E-02 0.24782794E+03</pdfrwt>
<totfact> 0.15181611E+04</totfact>
</mgrwt>
</event>
<event>
 4    1  0.1672993E-004  0.2697816E+03  0.7818608E-02  0.1101405E+00
          2   -1    0    0  501    0  0.00000000000E+00  0.00000000000E+00  0.66587747442E+03  0.66587747442E+03  0.00000000000E+00 0. -1.
         -2   -1    0    0    0  501 -0.00000000000E+00 -0.00000000000E+00 -0.27325635630E+02  0.27325635630E+02  0.00000000000E+00 0. -1.
         25    1    1    2    0    0 -0.34175061088E+02 -0.22339614892E+02  0.20072953710E+03  0.23740122211E+03  0.12000000000E+03 0.  0.
         25    1    1    2    0    0  0.34175061088E+02  0.22339614892E+02  0.43782230169E+03  0.45580188794E+03  0.12000000000E+03 0.  0.
<mgrwt>
<rscale>  0 0.26978158E+03</rscale>
<asrwt>0</asrwt>
<pdfrwt beam="1">  1        2 0.10244268E+00 0.26978158E+03</pdfrwt>
<pdfrwt beam="2">  1       -2 0.42039444E-02 0.26978158E+03</pdfrwt>
<totfact> 0.11301937E+04</totfact>
</mgrwt>
</event>
<event>
 4    1  0.1672993E-004  0.2639375E+03  0.7818608E-02  0.1104800E+00
         -3   -1    0    0    0  501 -0.00000000000E+00  0.00000000000E+00  0.10525588430E+03  0.10525588430E+03  0.00000000000E+00 0. -1.
          3   -1    0    0  501    0  0.00000000000E+00 -0.00000000000E+00 -0.16546110709E+03  0.16546110709E+03  0.00000000000E+00 0. -1.
         25    1    1    2    0    0  0.30027355269E+02  0.44843505669E+02 -0.19684294577E+02  0.13304154809E+03  0.12000000000E+03 0.  0.
         25    1    1    2    0    0 -0.30027355269E+02 -0.44843505669E+02 -0.40520928205E+02  0.13767544330E+03  0.12000000000E+03 0.  0.
<mgrwt>
<rscale>  0 0.26393753E+03</rscale>
<asrwt>0</asrwt>
<pdfrwt beam="1">  1        3 0.25455555E-01 0.26393753E+03</pdfrwt>
<pdfrwt beam="2">  1       -3 0.16193213E-01 0.26393753E+03</pdfrwt>
<totfact> 0.11970037E+03</totfact>
</mgrwt>
</event>
<event>
 4    1  0.1672993E-004  0.2577105E+03  0.7818608E-02  0.1108527E+00
          3   -1    0    0  501    0  0.00000000000E+00  0.00000000000E+00  0.11500545684E+03  0.11500545684E+03  0.00000000000E+00 0.  1.
         -3   -1    0    0    0  501 -0.00000000000E+00 -0.00000000000E+00 -0.14437297059E+03  0.14437297059E+03  0.00000000000E+00 0.  1.
         25    1    1    2    0    0  0.44594479327E+02 -0.11602876543E+02 -0.23707557339E+02  0.13071091234E+03  0.12000000000E+03 0.  0.
         25    1    1    2    0    0 -0.44594479327E+02  0.11602876543E+02 -0.56599564135E+01  0.12866751508E+03  0.12000000000E+03 0.  0.
<mgrwt>
<rscale>  0 0.25771053E+03</rscale>
<asrwt>0</asrwt>
<pdfrwt beam="1">  1        3 0.17693147E-01 0.25771053E+03</pdfrwt>
<pdfrwt beam="2">  1       -3 0.22211226E-01 0.25771053E+03</pdfrwt>
<totfact> 0.13093117E+03</totfact>
</mgrwt>
</event>
<event>
 4    1  0.1672993E-004  0.4006685E+03  0.7818608E-02  0.1043548E+00
          2   -1    0    0  501    0  0.00000000000E+00  0.00000000000E+00  0.11677072825E+04  0.11677072825E+04  0.00000000000E+00 0.  1.
         -2   -1    0    0    0  501 -0.00000000000E+00 -0.00000000000E+00 -0.34369760708E+02  0.34369760708E+02  0.00000000000E+00 0.  1.
         25    1    1    2    0    0 -0.33152696548E+02 -0.91497278059E+01  0.96578058570E+02  0.15782946558E+03  0.12000000000E+03 0.  0.
         25    1    1    2    0    0  0.33152696548E+02  0.91497278059E+01  0.10367594632E+04  0.10442475776E+04  0.12000000000E+03 0.  0.
<mgrwt>
<rscale>  0 0.40066854E+03</rscale>
<asrwt>0</asrwt>
<pdfrwt beam="1">  1        2 0.17964724E+00 0.40066854E+03</pdfrwt>
<pdfrwt beam="2">  1       -2 0.52876564E-02 0.40066854E+03</pdfrwt>
<totfact> 0.37612811E+03</totfact>
</mgrwt>
</event>
<event>
 4    1  0.1672993E-004  0.2662765E+03  0.7818608E-02  0.1103430E+00
          2   -1    0    0  501    0  0.00000000000E+00  0.00000000000E+00  0.17927243963E+04  0.17927243963E+04  0.00000000000E+00 0. -1.
         -2   -1    0    0    0  501 -0.00000000000E+00 -0.00000000000E+00 -0.98876307735E+01  0.98876307735E+01  0.00000000000E+00 0. -1.
         25    1    1    2    0    0 -0.53090086038E+02  0.20692777436E+02  0.95160730595E+03  0.96083464395E+03  0.12000000000E+03 0.  0.
         25    1    1    2    0    0  0.53090086038E+02 -0.20692777436E+02  0.83122945957E+03  0.84177738311E+03  0.12000000000E+03 0.  0.
<mgrwt>
<rscale>  0 0.26627652E+03</rscale>
<asrwt>0</asrwt>
<pdfrwt beam="1">  1        2 0.27580350E+00 0.26627652E+03</pdfrwt>
<pdfrwt beam="2">  1       -2 0.15211754E-02 0.26627652E+03</pdfrwt>
<totfact> 0.11027866E+04</totfact>
</mgrwt>
</event>
<event>
 4    1  0.1672993E-004  0.3195098E+03  0.7818608E-02  0.1075875E+00
          2   -1    0    0  501    0  0.00000000000E+00  0.00000000000E+00  0.42265846461E+03  0.42265846461E+03  0.00000000000E+00 0.  1.
         -2   -1    0    0    0  501 -0.00000000000E+00 -0.00000000000E+00 -0.60383554434E+02  0.60383554434E+02  0.00000000000E+00 0.  1.
         25    1    1    2    0    0 -0.20446637012E+02 -0.92742564265E+02  0.25045698307E+03  0.29350970778E+03  0.12000000000E+03 0.  0.
         25    1    1    2    0    0  0.20446637012E+02  0.92742564265E+02  0.11181792711E+03  0.18953231127E+03  0.12000000000E+03 0.  0.
<mgrwt>
<rscale>  0 0.31950975E+03</rscale>
<asrwt>0</asrwt>
<pdfrwt beam="1">  1        2 0.65024377E-01 0.31950975E+03</pdfrwt>
<pdfrwt beam="2">  1       -2 0.92897779E-02 0.31950975E+03</pdfrwt>
<totfact> 0.56104808E+03</totfact>
</mgrwt>
</event>
<event>
 4    1  0.1672993E-004  0.3113053E+03  0.7818608E-02  0.1079722E+00
          2   -1    0    0  501    0  0.00000000000E+00  0.00000000000E+00  0.28625529268E+03  0.28625529268E+03  0.00000000000E+00 0.  1.
         -2   -1    0    0    0  501 -0.00000000000E+00 -0.00000000000E+00 -0.84636847950E+02  0.84636847950E+02  0.00000000000E+00 0.  1.
         25    1    1    2    0    0  0.33719651171E+02 -0.49056685682E+02  0.19525557201E+03  0.23678748212E+03  0.12000000000E+03 0.  0.
         25    1    1    2    0    0 -0.33719651171E+02  0.49056685682E+02  0.63628727145E+01  0.13410465851E+03  0.12000000000E+03 0.  0.
<mgrwt>
<rscale>  0 0.31130529E+03</rscale>
<asrwt>0</asrwt>
<pdfrwt beam="1">  1        2 0.44039275E-01 0.31130529E+03</pdfrwt>
<pdfrwt beam="2">  1       -2 0.13021054E-01 0.31130529E+03</pdfrwt>
<totfact> 0.49727804E+03</totfact>
</mgrwt>
</event>
<event>
 4    1  0.1672993E-004  0.5061131E+03  0.7818608E-02  0.1012196E+00
         -2   -1    0    0    0  501 -0.00000000000E+00  0.00000000000E+00  0.58301719440E+03  0.58301719440E+03  0.00000000000E+00 0.  1.
          2   -1    0    0  501    0  0.00000000000E+00 -0.00000000000E+00 -0.10983829214E+03  0.10983829214E+03  0.00000000000E+00 0.  1.
         25    1    1    2    0    0  0.52654244522E+02 -0.99998134851E+02  0.49943780329E+03  0.52593746377E+03  0.12000000000E+03 0.  0.
         25    1    1    2    0    0 -0.52654244522E+02  0.99998134851E+02 -0.26258901029E+02  0.16691802276E+03  0.12000000000E+03 0.  0.
<mgrwt>
<rscale>  0 0.50611308E+03</rscale>
<asrwt>0</asrwt>
<pdfrwt beam="1">  1        2 0.16898199E-01 0.50611308E+03</pdfrwt>
<pdfrwt beam="2">  1       -2 0.89694951E-01 0.50611308E+03</pdfrwt>
<totfact> 0.37377197E+02</totfact>
</mgrwt>
</event>
<event>
 4    1  0.1672993E-004  0.3551462E+03  0.7818608E-02  0.1060522E+00
         -1   -1    0    0    0  501 -0.00000000000E+00  0.00000000000E+00  0.62186006666E+02  0.62186006666E+02  0.00000000000E+00 0. -1.
          1   -1    0    0  501    0  0.00000000000E+00 -0.00000000000E+00 -0.50706281311E+03  0.50706281311E+03  0.00000000000E+00 0. -1.
         25    1    1    2    0    0 -0.22415040559E+02 -0.96414115377E+02 -0.85170747482E+02  0.17734760194E+03  0.12000000000E+03 0.  0.
         25    1    1    2    0    0  0.22415040559E+02  0.96414115377E+02 -0.35970605896E+03  0.39190121783E+03  0.12000000000E+03 0.  0.
<mgrwt>
<rscale>  0 0.35514623E+03</rscale>
<asrwt>0</asrwt>
<pdfrwt beam="1">  1        1 0.78009662E-01 0.35514623E+03</pdfrwt>
<pdfrwt beam="2">  1       -1 0.95670782E-02 0.35514623E+03</pdfrwt>
<totfact> 0.29026988E+03</totfact>
</mgrwt>
</event>
<event>
 4    1  0.1672993E-004  0.2622800E+03  0.7818608E-02  0.1105781E+00
          2   -1    0    0  501    0  0.00000000000E+00  0.00000000000E+00  0.34155832783E+03  0.34155832783E+03  0.00000000000E+00 0. -1.
         -2   -1    0    0    0  501 -0.00000000000E+00 -0.00000000000E+00 -0.50350680424E+02  0.50350680424E+02  0.00000000000E+00 0. -1.
         25    1    1    2    0    0 -0.21258004900E+02 -0.46777463648E+02  0.12684172748E+03  0.18201334486E+03  0.12000000000E+03 0.  0.
         25    1    1    2    0    0  0.21258004900E+02  0.46777463648E+02  0.16436591992E+03  0.20989566339E+03  0.12000000000E+03 0.  0.
<mgrwt>
<rscale>  0 0.26227996E+03</rscale>
<asrwt>0</asrwt>
<pdfrwt beam="1">  1        2 0.52547434E-01 0.26227996E+03</pdfrwt>
<pdfrwt beam="2">  1       -2 0.77462588E-02 0.26227996E+03</pdfrwt>
<totfact> 0.93447816E+03</totfact>
</mgrwt>
</event>
<event>
 4    1  0.1672993E-004  0.2416138E+03  0.7818608E-02  0.1118722E+00
          2   -1    0    0  501    0  0.00000000000E+00  0.00000000000E+00  0.23613075447E+03  0.23613075447E+03  0.00000000000E+00 0. -1.
         -2   -1    0    0    0  501 -0.00000000000E+00 -0.00000000000E+00 -0.61806037223E+02  0.61806037223E+02  0.00000000000E+00 0. -1.
         25    1    1    2    0    0 -0.11936714282E+02  0.70909471464E+01  0.88692372068E+02  0.14986361647E+03  0.12000000000E+03 0.  0.
         25    1    1    2    0    0  0.11936714282E+02 -0.70909471464E+01  0.85632345183E+02  0.14807317522E+03  0.12000000000E+03 0.  0.
<mgrwt>
<rscale>  0 0.24161379E+03</rscale>
<asrwt>0</asrwt>
<pdfrwt beam="1">  1        2 0.36327808E-01 0.24161379E+03</pdfrwt>
<pdfrwt beam="2">  1       -2 0.95086212E-02 0.24161379E+03</pdfrwt>
<totfact> 0.10040170E+04</totfact>
</mgrwt>
</event>
<event>
 4    1  0.1672993E-004  0.3179467E+03  0.7818608E-02  0.1076598E+00
          2   -1    0    0  501    0  0.00000000000E+00  0.00000000000E+00  0.16094338824E+03  0.16094338824E+03  0.00000000000E+00 0. -1.
         -2   -1    0    0    0  501 -0.00000000000E+00 -0.00000000000E+00 -0.15702747158E+03  0.15702747158E+03  0.00000000000E+00 0. -1.
         25    1    1    2    0    0 -0.82626948911E+02 -0.51028726393E+02 -0.36010559723E+02  0.15851783501E+03  0.12000000000E+03 0.  0.
         25    1    1    2    0    0  0.82626948911E+02  0.51028726393E+02  0.39926476382E+02  0.15945302481E+03  0.12000000000E+03 0.  0.
<mgrwt>
<rscale>  0 0.31794675E+03</rscale>
<asrwt>0</asrwt>
<pdfrwt beam="1">  1        2 0.24760521E-01 0.31794675E+03</pdfrwt>
<pdfrwt beam="2">  1       -2 0.24158072E-01 0.31794675E+03</pdfrwt>
<totfact> 0.32878230E+03</totfact>
</mgrwt>
</event>
<event>
 4    1  0.1672993E-004  0.2761359E+03  0.7818608E-02  0.1097818E+00
         -2   -1    0    0    0  501 -0.00000000000E+00  0.00000000000E+00  0.17206941526E+02  0.17206941526E+02  0.00000000000E+00 0.  1.
          2   -1    0    0  501    0  0.00000000000E+00 -0.00000000000E+00 -0.11078531717E+04  0.11078531717E+04  0.00000000000E+00 0.  1.
         25    1    1    2    0    0  0.52206400080E+02 -0.42392539782E+02 -0.49709314795E+03  0.51577537105E+03  0.12000000000E+03 0.  0.
         25    1    1    2    0    0 -0.52206400080E+02  0.42392539782E+02 -0.59355308226E+03  0.60928474221E+03  0.12000000000E+03 0.  0.
<mgrwt>
<rscale>  0 0.27613594E+03</rscale>
<asrwt>0</asrwt>
<pdfrwt beam="1">  1        2 0.17043888E+00 0.27613594E+03</pdfrwt>
<pdfrwt beam="2">  1       -2 0.26472228E-02 0.27613594E+03</pdfrwt>
<totfact> 0.11517378E+04</totfact>
</mgrwt>
</event>
<event>
 4    1  0.1672993E-004  0.2558787E+03  0.7818608E-02  0.1109645E+00
         -1   -1    0    0    0  501 -0.00000000000E+00  0.00000000000E+00  0.10731059112E+03  0.10731059112E+03  0.00000000000E+00 0.  1.
          1   -1    0    0  501    0  0.00000000000E+00 -0.00000000000E+00 -0.15253361257E+03  0.15253361257E+03  0.00000000000E+00 0.  1.
         25    1    1    2    0    0 -0.26103891333E+02 -0.29119490258E+02 -0.13317008169E+01  0.12621858533E+03  0.12000000000E+03 0.  0.
         25    1    1    2    0    0  0.26103891333E+02  0.29119490258E+02 -0.43891320633E+02  0.13362561836E+03  0.12000000000E+03 0.  0.
<mgrwt>
<rscale>  0 0.25587866E+03</rscale>
<asrwt>0</asrwt>
<pdfrwt beam="1">  1        1 0.23466710E-01 0.25587866E+03</pdfrwt>
<pdfrwt beam="2">  1       -1 0.16509322E-01 0.25587866E+03</pdfrwt>
<totfact> 0.56541295E+03</totfact>
</mgrwt>
</event>
<event>
 4    1  0.1672993E-004  0.3395900E+03  0.7818608E-02  0.1066971E+00
         -2   -1    0    0    0  501 -0.00000000000E+00  0.00000000000E+00  0.86993322663E+02  0.86993322663E+02  0.00000000000E+00 0.  1.
          2   -1    0    0  501    0  0.00000000000E+00 -0.00000000000E+00 -0.33140871824E+03  0.33140871824E+03  0.00000000000E+00 0.  1.
         25    1    1    2    0    0 -0.76549773650E+02  0.62863881985E+02 -0.20594028743E+03  0.25811458209E+03  0.12000000000E+03 0.  0.
         25    1    1    2    0    0  0.76549773650E+02 -0.62863881985E+02 -0.38475108148E+02  0.16028745881E+03  0.12000000000E+03 0.  0.
<mgrwt>
<rscale>  0 0.33959002E+03</rscale>
<asrwt>0</asrwt>
<pdfrwt beam="1">  1        2 0.50985957E-01 0.33959002E+03</pdfrwt>
<pdfrwt beam="2">  1       -2 0.13383588E-01 0.33959002E+03</pdfrwt>
<totfact> 0.40664730E+03</totfact>
</mgrwt>
</event>
<event>
 4    1  0.1672993E-004  0.3734097E+03  0.7818608E-02  0.1053397E+00
          2   -1    0    0  501    0  0.00000000000E+00  0.00000000000E+00  0.32626851248E+03  0.32626851248E+03  0.00000000000E+00 0.  1.
         -2   -1    0    0    0  501 -0.00000000000E+00 -0.00000000000E+00 -0.10684050897E+03  0.10684050897E+03  0.00000000000E+00 0.  1.
         25    1    1    2    0    0 -0.13653045440E+03 -0.42252007322E+02  0.10306144326E+03  0.21318409460E+03  0.12000000000E+03 0.  0.
         25    1    1    2    0    0  0.13653045440E+03  0.42252007322E+02  0.11636656025E+03  0.21992492684E+03  0.12000000000E+03 0.  0.
<mgrwt>
<rscale>  0 0.37340966E+03</rscale>
<asrwt>0</asrwt>
<pdfrwt beam="1">  1        2 0.50195155E-01 0.37340966E+03</pdfrwt>
<pdfrwt beam="2">  1       -2 0.16437002E-01 0.37340966E+03</pdfrwt>
<totfact> 0.29453360E+03</totfact>
</mgrwt>
</event>
<event>
 4    1  0.1672993E-004  0.2426420E+03  0.7818608E-02  0.1118045E+00
          1   -1    0    0  501    0  0.00000000000E+00  0.00000000000E+00  0.18915058013E+02  0.18915058013E+02  0.00000000000E+00 0. -1.
         -1   -1    0    0    0  501 -0.00000000000E+00 -0.00000000000E+00 -0.77815153171E+03  0.77815153171E+03  0.00000000000E+00 0. -1.
         25    1    1    2    0    0  0.88074874937E+01 -0.14240602301E+02 -0.35925823419E+03  0.37913961205E+03  0.12000000000E+03 0.  0.
         25    1    1    2    0    0 -0.88074874937E+01  0.14240602301E+02 -0.39997823951E+03  0.41792697768E+03  0.12000000000E+03 0.  0.
<mgrwt>
<rscale>  0 0.24264197E+03</rscale>
<asrwt>0</asrwt>
<pdfrwt beam="1">  1        1 0.29100085E-02 0.24264197E+03</pdfrwt>
<pdfrwt beam="2">  1       -1 0.11971564E+00 0.24264197E+03</pdfrwt>
<totfact> 0.23532994E+03</totfact>
</mgrwt>
</event>
<event>
 4    1  0.1672993E-004  0.5104343E+03  0.7818608E-02  0.1011091E+00
         -2   -1    0    0    0  501 -0.00000000000E+00  0.00000000000E+00  0.14699971167E+02  0.14699971167E+02  0.00000000000E+00 0. -1.
          2   -1    0    0  501    0  0.00000000000E+00 -0.00000000000E+00 -0.44310142546E+04  0.44310142546E+04  0.00000000000E+00 0. -1.
         25    1    1    2    0    0 -0.22140754959E+03  0.37633138885E+02 -0.20577480078E+04  0.20734426492E+04  0.12000000000E+03 0.  0.
         25    1    1    2    0    0  0.22140754959E+03 -0.37633138885E+02 -0.23585662757E+04  0.23722715766E+04  0.12000000000E+03 0.  0.
<mgrwt>
<rscale>  0 0.51043425E+03</rscale>
<asrwt>0</asrwt>
<pdfrwt beam="1">  1        2 0.68169465E+00 0.51043425E+03</pdfrwt>
<pdfrwt beam="2">  1       -2 0.22615335E-02 0.51043425E+03</pdfrwt>
<totfact> 0.11774594E+02</totfact>
</mgrwt>
</event>
<event>
 4    1  0.1672993E-004  0.2635957E+03  0.7818608E-02  0.1105002E+00
         -2   -1    0    0    0  501 -0.00000000000E+00  0.00000000000E+00  0.20186994016E+03  0.20186994016E+03  0.00000000000E+00 0. -1.
          2   -1    0    0  501    0  0.00000000000E+00 -0.00000000000E+00 -0.86048859935E+02  0.86048859935E+02  0.00000000000E+00 0. -1.
         25    1    1    2    0    0  0.42142530511E+02 -0.48109063830E+01  0.20524428745E+02  0.12892009104E+03  0.12000000000E+03 0.  0.
         25    1    1    2    0    0 -0.42142530511E+02  0.48109063830E+01  0.95296651480E+02  0.15899870906E+03  0.12000000000E+03 0.  0.
<mgrwt>
<rscale>  0 0.26359574E+03</rscale>
<asrwt>0</asrwt>
<pdfrwt beam="1">  1        2 0.13238286E-01 0.26359574E+03</pdfrwt>
<pdfrwt beam="2">  1       -2 0.31056914E-01 0.26359574E+03</pdfrwt>
<totfact> 0.43136898E+03</totfact>
</mgrwt>
</event>
<event>
 4    1  0.1672993E-004  0.2742477E+03  0.7818608E-02  0.1098873E+00
          2   -1    0    0  501    0  0.00000000000E+00  0.00000000000E+00  0.26942741028E+04  0.26942741028E+04  0.00000000000E+00 0. -1.
         -2   -1    0    0    0  501 -0.00000000000E+00 -0.00000000000E+00 -0.69788557871E+01  0.69788557871E+01  0.00000000000E+00 0. -1.
         25    1    1    2    0    0  0.52010558728E+02 -0.32219823266E+02  0.10906554522E+04  0.10989415501E+04  0.12000000000E+03 0.  0.
         25    1    1    2    0    0 -0.52010558728E+02  0.32219823266E+02  0.15966397948E+04  0.16023114085E+04  0.12000000000E+03 0.  0.
<mgrwt>
<rscale>  0 0.27424770E+03</rscale>
<asrwt>0</asrwt>
<pdfrwt beam="1">  1        2 0.41450288E+00 0.27424770E+03</pdfrwt>
<pdfrwt beam="2">  1       -2 0.10736723E-02 0.27424770E+03</pdfrwt>
<totfact> 0.60146841E+03</totfact>
</mgrwt>
</event>
<event>
 4    1  0.1672993E-004  0.2746146E+03  0.7818608E-02  0.1098667E+00
          2   -1    0    0  501    0  0.00000000000E+00  0.00000000000E+00  0.11836920675E+03  0.11836920675E+03  0.00000000000E+00 0. -1.
         -2   -1    0    0    0  501 -0.00000000000E+00 -0.00000000000E+00 -0.15927534853E+03  0.15927534853E+03  0.00000000000E+00 0. -1.
         25    1    1    2    0    0  0.22323050554E+02 -0.56056838519E+02 -0.49273889386E+02  0.14306852871E+03  0.12000000000E+03 0.  0.
         25    1    1    2    0    0 -0.22323050554E+02  0.56056838519E+02  0.83677476067E+01  0.13457602658E+03  0.12000000000E+03 0.  0.
<mgrwt>
<rscale>  0 0.27461461E+03</rscale>
<asrwt>0</asrwt>
<pdfrwt beam="1">  1        2 0.18210647E-01 0.27461461E+03</pdfrwt>
<pdfrwt beam="2">  1       -2 0.24503900E-01 0.27461461E+03</pdfrwt>
<totfact> 0.45331043E+03</totfact>
</mgrwt>
</event>
<event>
 4    1  0.1672993E-004  0.3376535E+03  0.7818608E-02  0.1067800E+00
         -2   -1    0    0    0  501 -0.00000000000E+00  0.00000000000E+00  0.21242227238E+02  0.21242227238E+02  0.00000000000E+00 0. -1.
          2   -1    0    0  501    0  0.00000000000E+00 -0.00000000000E+00 -0.13417838327E+04  0.13417838327E+04  0.00000000000E+00 0. -1.
         25    1    1    2    0    0  0.38953369912E+02 -0.75970820768E+02 -0.99348191121E+03  0.10043382092E+04  0.12000000000E+03 0.  0.
         25    1    1    2    0    0 -0.38953369912E+02  0.75970820768E+02 -0.32705969427E+03  0.35868785072E+03  0.12000000000E+03 0.  0.
<mgrwt>
<rscale>  0 0.33765353E+03</rscale>
<asrwt>0</asrwt>
<pdfrwt beam="1">  1        2 0.20642832E+00 0.33765353E+03</pdfrwt>
<pdfrwt beam="2">  1       -2 0.32680344E-02 0.33765353E+03</pdfrwt>
<totfact> 0.62185310E+03</totfact>
</mgrwt>
</event>
<event>
 4    1  0.1672993E-004  0.2459153E+03  0.7818608E-02  0.1115914E+00
         -2   -1    0    0    0  501 -0.00000000000E+00  0.00000000000E+00  0.11461712975E+04  0.11461712975E+04  0.00000000000E+00 0.  1.
          2   -1    0    0  501    0  0.00000000000E+00 -0.00000000000E+00 -0.13190506115E+02  0.13190506115E+02  0.00000000000E+00 0.  1.
         25    1    1    2    0    0  0.15332888191E+02 -0.21969643514E+02  0.56222956007E+03  0.57551702052E+03  0.12000000000E+03 0.  0.
         25    1    1    2    0    0 -0.15332888191E+02  0.21969643514E+02  0.57075123136E+03  0.58384478314E+03  0.12000000000E+03 0.  0.
<mgrwt>
<rscale>  0 0.24591527E+03</rscale>
<asrwt>0</asrwt>
<pdfrwt beam="1">  1        2 0.20293095E-02 0.24591527E+03</pdfrwt>
<pdfrwt beam="2">  1       -2 0.17633397E+00 0.24591527E+03</pdfrwt>
<totfact> 0.11013490E+03</totfact>
</mgrwt>
</event>
<event>
 4    1  0.1672993E-004  0.3459036E+03  0.7818608E-02  0.1064309E+00
         -2   -1    0    0    0  501 -0.00000000000E+00  0.00000000000E+00  0.25637552377E+02  0.25637552377E+02  0.00000000000E+00 0. -1.
          2   -1    0    0  501    0  0.00000000000E+00 -0.00000000000E+00 -0.11667389218E+04  0.11667389218E+04  0.00000000000E+00 0. -1.
         25    1    1    2    0    0 -0.11971699907E+03  0.17124670920E+02 -0.67321027432E+03  0.69443321325E+03  0.12000000000E+03 0.  0.
         25    1    1    2    0    0  0.11971699907E+03 -0.17124670920E+02 -0.46789109508E+03  0.49794326090E+03  0.12000000000E+03 0.  0.
<mgrwt>
<rscale>  0 0.34590363E+03</rscale>
<asrwt>0</asrwt>
<pdfrwt beam="1">  1        2 0.17949833E+00 0.34590363E+03</pdfrwt>
<pdfrwt beam="2">  1       -2 0.39442381E-02 0.34590363E+03</pdfrwt>
<totfact> 0.58846021E+03</totfact>
</mgrwt>
</event>
<event>
 4    1  0.1672993E-004  0.4127617E+03  0.7818608E-02  0.1039448E+00
         -2   -1    0    0    0  501 -0.00000000000E+00  0.00000000000E+00  0.43820380076E+02  0.43820380076E+02  0.00000000000E+00 0.  1.
          2   -1    0    0  501    0  0.00000000000E+00 -0.00000000000E+00 -0.97199207786E+03  0.97199207786E+03  0.00000000000E+00 0.  1.
         25    1    1    2    0    0 -0.16541254156E+03  0.27244929961E+02 -0.44080783323E+03  0.48663655941E+03  0.12000000000E+03 0.  0.
         25    1    1    2    0    0  0.16541254156E+03 -0.27244929961E+02 -0.48736386455E+03  0.52917589853E+03  0.12000000000E+03 0.  0.
<mgrwt>
<rscale>  0 0.41276173E+03</rscale>
<asrwt>0</asrwt>
<pdfrwt beam="1">  1        2 0.14953723E+00 0.41276173E+03</pdfrwt>
<pdfrwt beam="2">  1       -2 0.67415975E-02 0.41276173E+03</pdfrwt>
<totfact> 0.33906869E+03</totfact>
</mgrwt>
</event>
<event>
 4    1  0.1672993E-004  0.2569460E+03  0.7818608E-02  0.1108992E+00
          3   -1    0    0  501    0  0.00000000000E+00  0.00000000000E+00  0.98719868933E+02  0.98719868933E+02  0.00000000000E+00 0.  1.
         -3   -1    0    0    0  501 -0.00000000000E+00 -0.00000000000E+00 -0.16719346884E+03  0.16719346884E+03  0.00000000000E+00 0.  1.
         25    1    1    2    0    0  0.85504084803E+01  0.43455305661E+02 -0.46648876554E+02  0.13615282134E+03  0.12000000000E+03 0.  0.
         25    1    1    2    0    0 -0.85504084803E+01 -0.43455305661E+02 -0.21824723351E+02  0.12976051643E+03  0.12000000000E+03 0.  0.
<mgrwt>
<rscale>  0 0.25694604E+03</rscale>
<asrwt>0</asrwt>
<pdfrwt beam="1">  1        3 0.15187672E-01 0.25694604E+03</pdfrwt>
<pdfrwt beam="2">  1       -3 0.25722072E-01 0.25694604E+03</pdfrwt>
<totfact> 0.13083742E+03</totfact>
</mgrwt>
</event>
<event>
 4    1  0.1672993E-004  0.2730106E+03  0.7818608E-02  0.1099569E+00
          1   -1    0    0  501    0  0.00000000000E+00  0.00000000000E+00  0.14410965364E+03  0.14410965364E+03  0.00000000000E+00 0. -1.
         -1   -1    0    0    0  501 -0.00000000000E+00 -0.00000000000E+00 -0.12930219009E+03  0.12930219009E+03  0.00000000000E+00 0. -1.
         25    1    1    2    0    0  0.34160394963E+02 -0.40217392395E+02 -0.30722192563E+02  0.13464109458E+03  0.12000000000E+03 0.  0.
         25    1    1    2    0    0 -0.34160394963E+02  0.40217392395E+02  0.45529656112E+02  0.13877074915E+03  0.12000000000E+03 0.  0.
<mgrwt>
<rscale>  0 0.27301058E+03</rscale>
<asrwt>0</asrwt>
<pdfrwt beam="1">  1        1 0.22170716E-01 0.27301058E+03</pdfrwt>
<pdfrwt beam="2">  1       -1 0.19892645E-01 0.27301058E+03</pdfrwt>
<totfact> 0.45134510E+03</totfact>
</mgrwt>
</event>
<event>
 4    1  0.1672993E-004  0.2700048E+03  0.7818608E-02  0.1101277E+00
          1   -1    0    0  501    0  0.00000000000E+00  0.00000000000E+00  0.28073255962E+03  0.28073255962E+03  0.00000000000E+00 0.  1.
         -1   -1    0    0    0  501 -0.00000000000E+00 -0.00000000000E+00 -0.64921750669E+02  0.64921750669E+02  0.00000000000E+00 0.  1.
         25    1    1    2    0    0 -0.43086807424E+02 -0.36764360822E+02  0.76092057121E+02  0.15296434996E+03  0.12000000000E+03 0.  0.
         25    1    1    2    0    0  0.43086807424E+02  0.36764360822E+02  0.13971875183E+03  0.19268996034E+03  0.12000000000E+03 0.  0.
<mgrwt>
<rscale>  0 0.27000481E+03</rscale>
<asrwt>0</asrwt>
<pdfrwt beam="1">  1        1 0.43189624E-01 0.27000481E+03</pdfrwt>
<pdfrwt beam="2">  1       -1 0.99879618E-02 0.27000481E+03</pdfrwt>
<totfact> 0.57762311E+03</totfact>
</mgrwt>
</event>
<event>
 4    1  0.1672993E-004  0.4004400E+03  0.7818608E-02  0.1043627E+00
         -3   -1    0    0    0  501 -0.00000000000E+00  0.00000000000E+00  0.24349419064E+03  0.24349419064E+03  0.00000000000E+00 0.  1.
          3   -1    0    0  501    0  0.00000000000E+00 -0.00000000000E+00 -0.16463661096E+03  0.16463661096E+03  0.00000000000E+00 0.  1.
         25    1    1    2    0    0 -0.35174002929E+02 -0.12332502983E+03  0.13740932181E+03  0.22299685017E+03  0.12000000000E+03 0.  0.
         25    1    1    2    0    0  0.35174002929E+02  0.12332502983E+03 -0.58551742127E+02  0.18513395143E+03  0.12000000000E+03 0.  0.
<mgrwt>
<rscale>  0 0.40044005E+03</rscale>
<asrwt>0</asrwt>
<pdfrwt beam="1">  1        3 0.25328709E-01 0.40044005E+03</pdfrwt>
<pdfrwt beam="2">  1       -3 0.37460645E-01 0.40044005E+03</pdfrwt>
<totfact> 0.26957532E+02</totfact>
</mgrwt>
</event>
<event>
 4    1  0.1672993E-004  0.2936472E+03  0.7818608E-02  0.1088460E+00
          2   -1    0    0  501    0  0.00000000000E+00  0.00000000000E+00  0.31707534199E+04  0.31707534199E+04  0.00000000000E+00 0. -1.
         -2   -1    0    0    0  501 -0.00000000000E+00 -0.00000000000E+00 -0.67987547352E+01  0.67987547352E+01  0.00000000000E+00 0. -1.
         25    1    1    2    0    0 -0.18564996944E+02  0.65506649101E+02  0.21253367334E+04  0.21298103226E+04  0.12000000000E+03 0.  0.
         25    1    1    2    0    0  0.18564996944E+02 -0.65506649101E+02  0.10386179318E+04  0.10477418520E+04  0.12000000000E+03 0.  0.
<mgrwt>
<rscale>  0 0.29364724E+03</rscale>
<asrwt>0</asrwt>
<pdfrwt beam="1">  1        2 0.48780704E+00 0.29364724E+03</pdfrwt>
<pdfrwt beam="2">  1       -2 0.10459648E-02 0.29364724E+03</pdfrwt>
<totfact> 0.32769280E+03</totfact>
</mgrwt>
</event>
<event>
 4    1  0.1672993E-004  0.3416486E+03  0.7818608E-02  0.1066096E+00
          2   -1    0    0  501    0  0.00000000000E+00  0.00000000000E+00  0.18425861922E+04  0.18425861922E+04  0.00000000000E+00 0.  1.
         -2   -1    0    0    0  501 -0.00000000000E+00 -0.00000000000E+00 -0.15836947674E+02  0.15836947674E+02  0.00000000000E+00 0.  1.
         25    1    1    2    0    0 -0.12067156268E+02  0.11691118063E+03  0.10825358424E+04  0.10954897035E+04  0.12000000000E+03 0.  0.
         25    1    1    2    0    0  0.12067156268E+02 -0.11691118063E+03  0.74421340207E+03  0.76293343631E+03  0.12000000000E+03 0.  0.
<mgrwt>
<rscale>  0 0.34164860E+03</rscale>
<asrwt>0</asrwt>
<pdfrwt beam="1">  1        2 0.28347463E+00 0.34164860E+03</pdfrwt>
<pdfrwt beam="2">  1       -2 0.24364550E-02 0.34164860E+03</pdfrwt>
<totfact> 0.51918825E+03</totfact>
</mgrwt>
</event>
<event>
 4    1  0.1672993E-004  0.2852775E+03  0.7818608E-02  0.1092841E+00
          1   -1    0    0  501    0  0.00000000000E+00  0.00000000000E+00  0.49375554629E+03  0.49375554629E+03  0.00000000000E+00 0.  1.
         -1   -1    0    0    0  501 -0.00000000000E+00 -0.00000000000E+00 -0.41206248572E+02  0.41206248572E+02  0.00000000000E+00 0.  1.
         25    1    1    2    0    0  0.53593717640E+02  0.25918896007E+02  0.31817518750E+03  0.34522387762E+03  0.12000000000E+03 0.  0.
         25    1    1    2    0    0 -0.53593717640E+02 -0.25918896007E+02  0.13437411021E+03  0.18973791723E+03  0.12000000000E+03 0.  0.
<mgrwt>
<rscale>  0 0.28527751E+03</rscale>
<asrwt>0</asrwt>
<pdfrwt beam="1">  1        1 0.75962388E-01 0.28527751E+03</pdfrwt>
<pdfrwt beam="2">  1       -1 0.63394232E-02 0.28527751E+03</pdfrwt>
<totfact> 0.56259972E+03</totfact>
</mgrwt>
</event>
<event>
 4    1  0.1672993E-004  0.2963305E+03  0.7818608E-02  0.1087089E+00
         -2   -1    0    0    0  501 -0.00000000000E+00  0.00000000000E+00  0.98211286800E+02  0.98211286800E+02  0.00000000000E+00 0.  1.
          2   -1    0    0  501    0  0.00000000000E+00 -0.00000000000E+00 -0.22352764263E+03  0.22352764263E+03  0.00000000000E+00 0.  1.
         25    1    1    2    0    0 -0.50534223343E+02  0.61071308673E+02 -0.23972704435E+02  0.14580158789E+03  0.12000000000E+03 0.  0.
         25    1    1    2    0    0  0.50534223343E+02 -0.61071308673E+02 -0.10134365140E+03  0.17593734155E+03  0.12000000000E+03 0.  0.
<mgrwt>
<rscale>  0 0.29633047E+03</rscale>
<asrwt>0</asrwt>
<pdfrwt beam="1">  1        2 0.34388868E-01 0.29633047E+03</pdfrwt>
<pdfrwt beam="2">  1       -2 0.15109429E-01 0.29633047E+03</pdfrwt>
<totfact> 0.50834728E+03</totfact>
</mgrwt>
</event>
<event>
 4    1  0.1672993E-004  0.2509740E+03  0.7818608E-02  0.1112691E+00
          2   -1    0    0  501    0  0.00000000000E+00  0.00000000000E+00  0.78866818983E+02  0.78866818983E+02  0.00000000000E+00 0. -1.
         -2   -1    0    0    0  501 -0.00000000000E+00 -0.00000000000E+00 -0.19966558189E+03  0.19966558189E+03  0.00000000000E+00 0. -1.
         25    1    1    2    0    0  0.42178882260E+01 -0.12134727042E+02 -0.98553900597E+02  0.15581371411E+03  0.12000000000E+03 0.  0.
         25    1    1    2    0    0 -0.42178882260E+01  0.12134727042E+02 -0.22244862307E+02  0.12271868676E+03  0.12000000000E+03 0.  0.
<mgrwt>
<rscale>  0 0.25097402E+03</rscale>
<asrwt>0</asrwt>
<pdfrwt beam="1">  1        2 0.12133357E-01 0.25097402E+03</pdfrwt>
<pdfrwt beam="2">  1       -2 0.30717782E-01 0.25097402E+03</pdfrwt>
<totfact> 0.48805826E+03</totfact>
</mgrwt>
</event>
<event>
 4    1  0.1672993E-004  0.2538964E+03  0.7818608E-02  0.1110867E+00
         -2   -1    0    0    0  501 -0.00000000000E+00  0.00000000000E+00  0.14721239250E+02  0.14721239250E+02  0.00000000000E+00 0. -1.
          2   -1    0    0  501    0  0.00000000000E+00 -0.00000000000E+00 -0.10947342831E+04  0.10947342831E+04  0.00000000000E+00 0. -1.
         25    1    1    2    0    0  0.23680341490E+02 -0.33723968942E+02 -0.52158069138E+03  0.53679091114E+03  0.12000000000E+03 0.  0.
         25    1    1    2    0    0 -0.23680341490E+02  0.33723968942E+02 -0.55843235242E+03  0.57266461117E+03  0.12000000000E+03 0.  0.
<mgrwt>
<rscale>  0 0.25389640E+03</rscale>
<asrwt>0</asrwt>
<pdfrwt beam="1">  1        2 0.16842065E+00 0.25389640E+03</pdfrwt>
<pdfrwt beam="2">  1       -2 0.22648062E-02 0.25389640E+03</pdfrwt>
<totfact> 0.14722342E+04</totfact>
</mgrwt>
</event>
<event>
 4    1  0.1672993E-004  0.3079401E+03  0.7818608E-02  0.1081337E+00
          2   -1    0    0  501    0  0.00000000000E+00  0.00000000000E+00  0.13417952755E+04  0.13417952755E+04  0.00000000000E+00 0. -1.
         -2   -1    0    0    0  501 -0.00000000000E+00 -0.00000000000E+00 -0.17667955477E+02  0.17667955477E+02  0.00000000000E+00 0. -1.
         25    1    1    2    0    0  0.68376694954E+02 -0.35875689372E+02  0.91736701030E+03  0.92839898163E+03  0.12000000000E+03 0.  0.
         25    1    1    2    0    0 -0.68376694954E+02  0.35875689372E+02  0.40676030970E+03  0.43106424932E+03  0.12000000000E+03 0.  0.
<mgrwt>
<rscale>  0 0.30794012E+03</rscale>
<asrwt>0</asrwt>
<pdfrwt beam="1">  1        2 0.20642996E+00 0.30794012E+03</pdfrwt>
<pdfrwt beam="2">  1       -2 0.27181480E-02 0.30794012E+03</pdfrwt>
<totfact> 0.81803671E+03</totfact>
</mgrwt>
</event>
<event>
 4    1  0.1672993E-004  0.2781014E+03  0.7818608E-02  0.1096730E+00
          1   -1    0    0  501    0  0.00000000000E+00  0.00000000000E+00  0.78097328734E+03  0.78097328734E+03  0.00000000000E+00 0.  1.
         -1   -1    0    0    0  501 -0.00000000000E+00 -0.00000000000E+00 -0.24757702062E+02  0.24757702062E+02  0.00000000000E+00 0.  1.
         25    1    1    2    0    0 -0.13995238512E+02 -0.51762932694E+02  0.24661463795E+03  0.27945312229E+03  0.12000000000E+03 0.  0.
         25    1    1    2    0    0  0.13995238512E+02  0.51762932694E+02  0.50960094732E+03  0.52627786712E+03  0.12000000000E+03 0.  0.
<mgrwt>
<rscale>  0 0.27810145E+03</rscale>
<asrwt>0</asrwt>
<pdfrwt beam="1">  1        1 0.12014972E+00 0.27810145E+03</pdfrwt>
<pdfrwt beam="2">  1       -1 0.38088778E-02 0.27810145E+03</pdfrwt>
<totfact> 0.63164552E+03</totfact>
</mgrwt>
</event>
<event>
 4    1  0.1672993E-004  0.2626266E+03  0.7818608E-02  0.1105575E+00
          2   -1    0    0  501    0  0.00000000000E+00  0.00000000000E+00  0.16880918619E+03  0.16880918619E+03  0.00000000000E+00 0.  1.
         -2   -1    0    0    0  501 -0.00000000000E+00 -0.00000000000E+00 -0.10214603158E+03  0.10214603158E+03  0.00000000000E+00 0.  1.
         25    1    1    2    0    0 -0.50119659624E+02  0.65888677147E+01  0.50834088416E+02  0.13978375443E+03  0.12000000000E+03 0.  0.
         25    1    1    2    0    0  0.50119659624E+02 -0.65888677147E+01  0.15829066198E+02  0.13117146334E+03  0.12000000000E+03 0.  0.
<mgrwt>
<rscale>  0 0.26262664E+03</rscale>
<asrwt>0</asrwt>
<pdfrwt beam="1">  1        2 0.25970644E-01 0.26262664E+03</pdfrwt>
<pdfrwt beam="2">  1       -2 0.15714774E-01 0.26262664E+03</pdfrwt>
<totfact> 0.64581572E+03</totfact>
</mgrwt>
</event>
<event>
 4    1  0.1672993E-004  0.3356452E+03  0.7818608E-02  0.1068666E+00
         -1   -1    0    0    0  501 -0.00000000000E+00  0.00000000000E+00  0.14627402777E+03  0.14627402777E+03  0.00000000000E+00 0. -1.
          1   -1    0    0  501    0  0.00000000000E+00 -0.00000000000E+00 -0.19254559034E+03  0.19254559034E+03  0.00000000000E+00 0. -1.
         25    1    1    2    0    0  0.10644445891E+03 -0.42394505015E+02 -0.48607386197E+02  0.17288838851E+03  0.12000000000E+03 0.  0.
         25    1    1    2    0    0 -0.10644445891E+03  0.42394505015E+02  0.23358236265E+01  0.16593122961E+03  0.12000000000E+03 0.  0.
<mgrwt>
<rscale>  0 0.33564516E+03</rscale>
<asrwt>0</asrwt>
<pdfrwt beam="1">  1        1 0.29622399E-01 0.33564516E+03</pdfrwt>
<pdfrwt beam="2">  1       -1 0.22503697E-01 0.33564516E+03</pdfrwt>
<totfact> 0.25607184E+03</totfact>
</mgrwt>
</event>
<event>
 4    1  0.1672993E-004  0.3420464E+03  0.7818608E-02  0.1065928E+00
         -2   -1    0    0    0  501 -0.00000000000E+00  0.00000000000E+00  0.38284652297E+02  0.38284652297E+02  0.00000000000E+00 0. -1.
          2   -1    0    0  501    0  0.00000000000E+00 -0.00000000000E+00 -0.76398598065E+03  0.76398598065E+03  0.00000000000E+00 0. -1.
         25    1    1    2    0    0  0.10347726158E+01  0.10033198111E+03 -0.20066532500E+03  0.25442906643E+03  0.12000000000E+03 0.  0.
         25    1    1    2    0    0 -0.10347726158E+01 -0.10033198111E+03 -0.52503600335E+03  0.54784156651E+03  0.12000000000E+03 0.  0.
<mgrwt>
<rscale>  0 0.34204642E+03</rscale>
<asrwt>0</asrwt>
<pdfrwt beam="1">  1        2 0.11753631E+00 0.34204642E+03</pdfrwt>
<pdfrwt beam="2">  1       -2 0.58899464E-02 0.34204642E+03</pdfrwt>
<totfact> 0.57507278E+03</totfact>
</mgrwt>
</event>
<event>
 4    1  0.1672993E-004  0.2606238E+03  0.7818608E-02  0.1106769E+00
          1   -1    0    0  501    0  0.00000000000E+00  0.00000000000E+00  0.14829929994E+04  0.14829929994E+04  0.00000000000E+00 0.  1.
         -1   -1    0    0    0  501 -0.00000000000E+00 -0.00000000000E+00 -0.11450619692E+02  0.11450619692E+02  0.00000000000E+00 0.  1.
         25    1    1    2    0    0 -0.33829173738E+02 -0.19706282317E+02  0.55010324551E+03  0.56439908865E+03  0.12000000000E+03 0.  0.
         25    1    1    2    0    0  0.33829173738E+02  0.19706282317E+02  0.92143913421E+03  0.93004453045E+03  0.12000000000E+03 0.  0.
<mgrwt>
<rscale>  0 0.26062378E+03</rscale>
<asrwt>0</asrwt>
<pdfrwt beam="1">  1        1 0.22815262E+00 0.26062378E+03</pdfrwt>
<pdfrwt beam="2">  1       -1 0.17616350E-02 0.26062378E+03</pdfrwt>
<totfact> 0.60580202E+03</totfact>
</mgrwt>
</event>
<event>
 4    1  0.1672993E-004  0.2835443E+03  0.7818608E-02  0.1093769E+00
          1   -1    0    0  501    0  0.00000000000E+00  0.00000000000E+00  0.58379704352E+03  0.58379704352E+03  0.00000000000E+00 0.  1.
         -1   -1    0    0    0  501 -0.00000000000E+00 -0.00000000000E+00 -0.34428637368E+02  0.34428637368E+02  0.00000000000E+00 0.  1.
         25    1    1    2    0    0 -0.42122625028E+02  0.56861549700E+02  0.21733705058E+03  0.25815294871E+03  0.12000000000E+03 0.  0.
         25    1    1    2    0    0  0.42122625028E+02 -0.56861549700E+02  0.33203135557E+03  0.36007273218E+03  0.12000000000E+03 0.  0.
<mgrwt>
<rscale>  0 0.28354426E+03</rscale>
<asrwt>0</asrwt>
<pdfrwt beam="1">  1        1 0.89814923E-01 0.28354426E+03</pdfrwt>
<pdfrwt beam="2">  1       -1 0.52967139E-02 0.28354426E+03</pdfrwt>
<totfact> 0.58808844E+03</totfact>
</mgrwt>
</event>
<event>
 4    1  0.1672993E-004  0.2485620E+03  0.7818608E-02  0.1114217E+00
          1   -1    0    0  501    0  0.00000000000E+00  0.00000000000E+00  0.13625623025E+04  0.13625623025E+04  0.00000000000E+00 0. -1.
         -1   -1    0    0    0  501 -0.00000000000E+00 -0.00000000000E+00 -0.11335822481E+02  0.11335822481E+02  0.00000000000E+00 0. -1.
         25    1    1    2    0    0 -0.12757054302E+02 -0.85195940472E+01  0.51825849100E+03  0.53219093323E+03  0.12000000000E+03 0.  0.
         25    1    1    2    0    0  0.12757054302E+02  0.85195940472E+01  0.83296798903E+03  0.84170719176E+03  0.12000000000E+03 0.  0.
<mgrwt>
<rscale>  0 0.24856198E+03</rscale>
<asrwt>0</asrwt>
<pdfrwt beam="1">  1        1 0.20962484E+00 0.24856198E+03</pdfrwt>
<pdfrwt beam="2">  1       -1 0.17439738E-02 0.24856198E+03</pdfrwt>
<totfact> 0.73925805E+03</totfact>
</mgrwt>
</event>
<event>
 4    1  0.1672993E-004  0.2967091E+03  0.7818608E-02  0.1086897E+00
          1   -1    0    0  501    0  0.00000000000E+00  0.00000000000E+00  0.60950225716E+03  0.60950225716E+03  0.00000000000E+00 0.  1.
         -1   -1    0    0    0  501 -0.00000000000E+00 -0.00000000000E+00 -0.36109909891E+02  0.36109909891E+02  0.00000000000E+00 0.  1.
         25    1    1    2    0    0 -0.46835509192E+02  0.32649334759E+02  0.14319287142E+03  0.19535542585E+03  0.12000000000E+03 0.  0.
         25    1    1    2    0    0  0.46835509192E+02 -0.32649334759E+02  0.43019947585E+03  0.45025674120E+03  0.12000000000E+03 0.  0.
<mgrwt>
<rscale>  0 0.29670909E+03</rscale>
<asrwt>0</asrwt>
<pdfrwt beam="1">  1        1 0.93769570E-01 0.29670909E+03</pdfrwt>
<pdfrwt beam="2">  1       -1 0.55553712E-02 0.29670909E+03</pdfrwt>
<totfact> 0.51612383E+03</totfact>
</mgrwt>
</event>
<event>
 4    1  0.1672993E-004  0.3536976E+03  0.7818608E-02  0.1061108E+00
         -1   -1    0    0    0  501 -0.00000000000E+00  0.00000000000E+00  0.27464152848E+02  0.27464152848E+02  0.00000000000E+00 0.  1.
          1   -1    0    0  501    0  0.00000000000E+00 -0.00000000000E+00 -0.11387755536E+04  0.11387755536E+04  0.00000000000E+00 0.  1.
         25    1    1    2    0    0 -0.10744475767E+03  0.29053389812E+02 -0.33478649688E+03  0.37265328914E+03  0.12000000000E+03 0.  0.
         25    1    1    2    0    0  0.10744475767E+03 -0.29053389812E+02 -0.77652490390E+03  0.79358641734E+03  0.12000000000E+03 0.  0.
<mgrwt>
<rscale>  0 0.35369764E+03</rscale>
<asrwt>0</asrwt>
<pdfrwt beam="1">  1        1 0.17519625E+00 0.35369764E+03</pdfrwt>
<pdfrwt beam="2">  1       -1 0.42252540E-02 0.35369764E+03</pdfrwt>
<totfact> 0.28730414E+03</totfact>
</mgrwt>
</event>
<event>
 4    1  0.1672993E-004  0.2608309E+03  0.7818608E-02  0.1106645E+00
         -1   -1    0    0    0  501 -0.00000000000E+00  0.00000000000E+00  0.89164749986E+01  0.89164749986E+01  0.00000000000E+00 0.  1.
          1   -1    0    0  501    0  0.00000000000E+00 -0.00000000000E+00 -0.19075018672E+04  0.19075018672E+04  0.00000000000E+00 0.  1.
         25    1    1    2    0    0  0.32759241883E+02 -0.33460496864E+02 -0.10990454794E+04  0.11065684518E+04  0.12000000000E+03 0.  0.
         25    1    1    2    0    0 -0.32759241883E+02  0.33460496864E+02 -0.79953991278E+03  0.80984989036E+03  0.12000000000E+03 0.  0.
<mgrwt>
<rscale>  0 0.26083092E+03</rscale>
<asrwt>0</asrwt>
<pdfrwt beam="1">  1        1 0.29346156E+00 0.26083092E+03</pdfrwt>
<pdfrwt beam="2">  1       -1 0.13717666E-02 0.26083092E+03</pdfrwt>
<totfact> 0.46041756E+03</totfact>
</mgrwt>
</event>
<event>
 4    1  0.1672993E-004  0.2509153E+03  0.7818608E-02  0.1112728E+00
         -2   -1    0    0    0  501 -0.00000000000E+00  0.00000000000E+00  0.39460378465E+03  0.39460378465E+03  0.00000000000E+00 0. -1.
          2   -1    0    0  501    0  0.00000000000E+00 -0.00000000000E+00 -0.39887160262E+02  0.39887160262E+02  0.00000000000E+00 0. -1.
         25    1    1    2    0    0  0.24228925701E+02  0.60552413228E+01  0.22369074181E+03  0.25507107786E+03  0.12000000000E+03 0.  0.
         25    1    1    2    0    0 -0.24228925701E+02 -0.60552413228E+01  0.13102588258E+03  0.17941986705E+03  0.12000000000E+03 0.  0.
<mgrwt>
<rscale>  0 0.25091532E+03</rscale>
<asrwt>0</asrwt>
<pdfrwt beam="1">  1        2 0.61364865E-02 0.25091532E+03</pdfrwt>
<pdfrwt beam="2">  1       -2 0.60708272E-01 0.25091532E+03</pdfrwt>
<totfact> 0.30708807E+03</totfact>
</mgrwt>
</event>
<event>
 4    1  0.1672993E-004  0.2886655E+03  0.7818608E-02  0.1091048E+00
         -2   -1    0    0    0  501 -0.00000000000E+00  0.00000000000E+00  0.11693425184E+02  0.11693425184E+02  0.00000000000E+00 0.  1.
          2   -1    0    0  501    0  0.00000000000E+00 -0.00000000000E+00 -0.17815086388E+04  0.17815086388E+04  0.00000000000E+00 0.  1.
         25    1    1    2    0    0 -0.81264443755E+01 -0.22875805906E+02 -0.41007849211E+03  0.42796461453E+03  0.12000000000E+03 0.  0.
         25    1    1    2    0    0  0.81264443755E+01  0.22875805906E+02 -0.13597367215E+04  0.13652374494E+04  0.12000000000E+03 0.  0.
<mgrwt>
<rscale>  0 0.28866547E+03</rscale>
<asrwt>0</asrwt>
<pdfrwt beam="1">  1        2 0.27407803E+00 0.28866547E+03</pdfrwt>
<pdfrwt beam="2">  1       -2 0.17989900E-02 0.28866547E+03</pdfrwt>
<totfact> 0.87516409E+03</totfact>
</mgrwt>
</event>
<event>
 4    1  0.1672993E-004  0.2729705E+03  0.7818608E-02  0.1099591E+00
          2   -1    0    0  501    0  0.00000000000E+00  0.00000000000E+00  0.14269226376E+03  0.14269226376E+03  0.00000000000E+00 0. -1.
         -2   -1    0    0    0  501 -0.00000000000E+00 -0.00000000000E+00 -0.13054826851E+03  0.13054826851E+03  0.00000000000E+00 0. -1.
         25    1    1    2    0    0 -0.52343086101E+02  0.32257069536E+02  0.27256833590E+02  0.13756181220E+03  0.12000000000E+03 0.  0.
         25    1    1    2    0    0  0.52343086101E+02 -0.32257069536E+02 -0.15112838339E+02  0.13567872007E+03  0.12000000000E+03 0.  0.
<mgrwt>
<rscale>  0 0.27297053E+03</rscale>
<asrwt>0</asrwt>
<pdfrwt beam="1">  1        2 0.21952656E-01 0.27297053E+03</pdfrwt>
<pdfrwt beam="2">  1       -2 0.20084349E-01 0.27297053E+03</pdfrwt>
<totfact> 0.51665532E+03</totfact>
</mgrwt>
</event>
<event>
 4    1  0.1672993E-004  0.2648421E+03  0.7818608E-02  0.1104268E+00
          2   -1    0    0  501    0  0.00000000000E+00  0.00000000000E+00  0.26540301151E+04  0.26540301151E+04  0.00000000000E+00 0.  1.
         -2   -1    0    0    0  501 -0.00000000000E+00 -0.00000000000E+00 -0.66070585422E+01  0.66070585422E+01  0.00000000000E+00 0.  1.
         25    1    1    2    0    0  0.63925284656E+01  0.48685063128E+02  0.15940685655E+04  0.15993328895E+04  0.12000000000E+03 0.  0.
         25    1    1    2    0    0 -0.63925284656E+01 -0.48685063128E+02  0.10533544910E+04  0.10613042841E+04  0.12000000000E+03 0.  0.
<mgrwt>
<rscale>  0 0.26484208E+03</rscale>
<asrwt>0</asrwt>
<pdfrwt beam="1">  1        2 0.40831147E+00 0.26484208E+03</pdfrwt>
<pdfrwt beam="2">  1       -2 0.10164727E-02 0.26484208E+03</pdfrwt>
<totfact> 0.68621041E+03</totfact>
</mgrwt>
</event>
<event>
 4    1  0.1672993E-004  0.2511793E+03  0.7818608E-02  0.1112562E+00
         -1   -1    0    0    0  501 -0.00000000000E+00  0.00000000000E+00  0.78298327697E+01  0.78298327697E+01  0.00000000000E+00 0.  1.
          1   -1    0    0  501    0  0.00000000000E+00 -0.00000000000E+00 -0.20144441184E+04  0.20144441184E+04  0.00000000000E+00 0.  1.
         25    1    1    2    0    0 -0.41939261387E+01  0.30636001625E+02 -0.11676381046E+04  0.11741954253E+04  0.12000000000E+03 0.  0.
         25    1    1    2    0    0  0.41939261387E+01 -0.30636001625E+02 -0.83897618110E+03  0.84807852589E+03  0.12000000000E+03 0.  0.
<mgrwt>
<rscale>  0 0.25117930E+03</rscale>
<asrwt>0</asrwt>
<pdfrwt beam="1">  1        1 0.30991483E+00 0.25117930E+03</pdfrwt>
<pdfrwt beam="2">  1       -1 0.12045883E-02 0.25117930E+03</pdfrwt>
<totfact> 0.47383202E+03</totfact>
</mgrwt>
</event>
<event>
 4    1  0.1672993E-004  0.3188914E+03  0.7818608E-02  0.1076161E+00
         -2   -1    0    0    0  501 -0.00000000000E+00  0.00000000000E+00  0.13095236995E+03  0.13095236995E+03  0.00000000000E+00 0. -1.
          2   -1    0    0  501    0  0.00000000000E+00 -0.00000000000E+00 -0.19413878751E+03  0.19413878751E+03  0.00000000000E+00 0. -1.
         25    1    1    2    0    0  0.88027342578E+02 -0.37162710385E+02  0.12761920765E+02  0.15392448378E+03  0.12000000000E+03 0.  0.
         25    1    1    2    0    0 -0.88027342578E+02  0.37162710385E+02 -0.75948338331E+02  0.17116667368E+03  0.12000000000E+03 0.  0.
<mgrwt>
<rscale>  0 0.31889142E+03</rscale>
<asrwt>0</asrwt>
<pdfrwt beam="1">  1        2 0.29867506E-01 0.31889142E+03</pdfrwt>
<pdfrwt beam="2">  1       -2 0.20146519E-01 0.31889142E+03</pdfrwt>
<totfact> 0.36598991E+03</totfact>
</mgrwt>
</event>
<event>
 4    1  0.1672993E-004  0.3591977E+03  0.7818608E-02  0.1058902E+00
         -2   -1    0    0    0  501 -0.00000000000E+00  0.00000000000E+00  0.17861662590E+02  0.17861662590E+02  0.00000000000E+00 0. -1.
          2   -1    0    0  501    0  0.00000000000E+00 -0.00000000000E+00 -0.18058642627E+04  0.18058642627E+04  0.00000000000E+00 0. -1.
         25    1    1    2    0    0 -0.10044806044E+03 -0.86695336588E+02 -0.81374844906E+03  0.83318211250E+03  0.12000000000E+03 0.  0.
         25    1    1    2    0    0  0.10044806044E+03  0.86695336588E+02 -0.97425415105E+03  0.99054381280E+03  0.12000000000E+03 0.  0.
<mgrwt>
<rscale>  0 0.35919765E+03</rscale>
<asrwt>0</asrwt>
<pdfrwt beam="1">  1        2 0.27782536E+00 0.35919765E+03</pdfrwt>
<pdfrwt beam="2">  1       -2 0.27479472E-02 0.35919765E+03</pdfrwt>
<totfact> 0.45368309E+03</totfact>
</mgrwt>
</event>
<event>
 4    1  0.1672993E-004  0.3074503E+03  0.7818608E-02  0.1081574E+00
          1   -1    0    0  501    0  0.00000000000E+00  0.00000000000E+00  0.47183545332E+03  0.47183545332E+03  0.00000000000E+00 0. -1.
         -1   -1    0    0    0  501 -0.00000000000E+00 -0.00000000000E+00 -0.50084018853E+02  0.50084018853E+02  0.00000000000E+00 0. -1.
         25    1    1    2    0    0 -0.93282782367E+02  0.22086346272E+02  0.19988314942E+03  0.25207688827E+03  0.12000000000E+03 0.  0.
         25    1    1    2    0    0  0.93282782367E+02 -0.22086346272E+02  0.22186828504E+03  0.26984258390E+03  0.12000000000E+03 0.  0.
<mgrwt>
<rscale>  0 0.30745026E+03</rscale>
<asrwt>0</asrwt>
<pdfrwt beam="1">  1        1 0.72590067E-01 0.30745026E+03</pdfrwt>
<pdfrwt beam="2">  1       -1 0.77052340E-02 0.30745026E+03</pdfrwt>
<totfact> 0.44481043E+03</totfact>
</mgrwt>
</event>
<event>
 4    1  0.1672993E-004  0.2554326E+03  0.7818608E-02  0.1109919E+00
         -2   -1    0    0    0  501 -0.00000000000E+00  0.00000000000E+00  0.32918805145E+03  0.32918805145E+03  0.00000000000E+00 0. -1.
          2   -1    0    0  501    0  0.00000000000E+00 -0.00000000000E+00 -0.49550564816E+02  0.49550564816E+02  0.00000000000E+00 0. -1.
         25    1    1    2    0    0  0.34649229484E+02 -0.23126718130E+02  0.12014583594E+03  0.17484403361E+03  0.12000000000E+03 0.  0.
         25    1    1    2    0    0 -0.34649229484E+02  0.23126718130E+02  0.15949165070E+03  0.20389458266E+03  0.12000000000E+03 0.  0.
<mgrwt>
<rscale>  0 0.25543260E+03</rscale>
<asrwt>0</asrwt>
<pdfrwt beam="1">  1        2 0.76231640E-02 0.25543260E+03</pdfrwt>
<pdfrwt beam="2">  1       -2 0.50644314E-01 0.25543260E+03</pdfrwt>
<totfact> 0.33609642E+03</totfact>
</mgrwt>
</event>
<event>
 4    1  0.1672993E-004  0.2438658E+03  0.7818608E-02  0.1117244E+00
         -2   -1    0    0    0  501 -0.00000000000E+00  0.00000000000E+00  0.10676414574E+03  0.10676414574E+03  0.00000000000E+00 0.  1.
          2   -1    0    0  501    0  0.00000000000E+00 -0.00000000000E+00 -0.13925673872E+03  0.13925673872E+03  0.00000000000E+00 0.  1.
         25    1    1    2    0    0  0.21545267739E+02  0.18288873302E+01 -0.15955028698E+02  0.12297197376E+03  0.12000000000E+03 0.  0.
         25    1    1    2    0    0 -0.21545267739E+02 -0.18288873302E+01 -0.16537564278E+02  0.12304891069E+03  0.12000000000E+03 0.  0.
<mgrwt>
<rscale>  0 0.24386576E+03</rscale>
<asrwt>0</asrwt>
<pdfrwt beam="1">  1        2 0.21424114E-01 0.24386576E+03</pdfrwt>
<pdfrwt beam="2">  1       -2 0.16425253E-01 0.24386576E+03</pdfrwt>
<totfact> 0.74240856E+03</totfact>
</mgrwt>
</event>
<event>
 4    1  0.1672993E-004  0.2634780E+03  0.7818608E-02  0.1105071E+00
         -2   -1    0    0    0  501 -0.00000000000E+00  0.00000000000E+00  0.11686871110E+02  0.11686871110E+02  0.00000000000E+00 0.  1.
          2   -1    0    0  501    0  0.00000000000E+00 -0.00000000000E+00 -0.14850135871E+04  0.14850135871E+04  0.00000000000E+00 0.  1.
         25    1    1    2    0    0  0.51608888423E+02 -0.17061583557E+02 -0.74101701536E+03  0.75263589607E+03  0.12000000000E+03 0.  0.
         25    1    1    2    0    0 -0.51608888423E+02  0.17061583557E+02 -0.73230970059E+03  0.74406456210E+03  0.12000000000E+03 0.  0.
<mgrwt>
<rscale>  0 0.26347799E+03</rscale>
<asrwt>0</asrwt>
<pdfrwt beam="1">  1        2 0.22846363E+00 0.26347799E+03</pdfrwt>
<pdfrwt beam="2">  1       -2 0.17979802E-02 0.26347799E+03</pdfrwt>
<totfact> 0.12551843E+04</totfact>
</mgrwt>
</event>
<event>
 4    1  0.1672993E-004  0.2591513E+03  0.7818608E-02  0.1107654E+00
          2   -1    0    0  501    0  0.00000000000E+00  0.00000000000E+00  0.11630119509E+04  0.11630119509E+04  0.00000000000E+00 0. -1.
         -2   -1    0    0    0  501 -0.00000000000E+00 -0.00000000000E+00 -0.14436521326E+02  0.14436521326E+02  0.00000000000E+00 0. -1.
         25    1    1    2    0    0 -0.28980022351E+02 -0.31882754051E+02  0.67923078778E+03  0.69109392616E+03  0.12000000000E+03 0.  0.
         25    1    1    2    0    0  0.28980022351E+02  0.31882754051E+02  0.46934464178E+03  0.48635454605E+03  0.12000000000E+03 0.  0.
<mgrwt>
<rscale>  0 0.25915128E+03</rscale>
<asrwt>0</asrwt>
<pdfrwt beam="1">  1        2 0.17892484E+00 0.25915128E+03</pdfrwt>
<pdfrwt beam="2">  1       -2 0.22210042E-02 0.25915128E+03</pdfrwt>
<totfact> 0.13841770E+04</totfact>
</mgrwt>
</event>
<event>
 4    1  0.1672993E-004  0.2580692E+03  0.7818608E-02  0.1108309E+00
         -1   -1    0    0    0  501 -0.00000000000E+00  0.00000000000E+00  0.54157970266E+02  0.54157970266E+02  0.00000000000E+00 0.  1.
          1   -1    0    0  501    0  0.00000000000E+00 -0.00000000000E+00 -0.30743258850E+03  0.30743258850E+03  0.00000000000E+00 0.  1.
         25    1    1    2    0    0  0.46852121949E+02 -0.62586405416E+01 -0.13217722457E+03  0.18467569036E+03  0.12000000000E+03 0.  0.
         25    1    1    2    0    0 -0.46852121949E+02  0.62586405416E+01 -0.12109739366E+03  0.17691486841E+03  0.12000000000E+03 0.  0.
<mgrwt>
<rscale>  0 0.25806918E+03</rscale>
<asrwt>0</asrwt>
<pdfrwt beam="1">  1        1 0.47297321E-01 0.25806918E+03</pdfrwt>
<pdfrwt beam="2">  1       -1 0.83319954E-02 0.25806918E+03</pdfrwt>
<totfact> 0.67976901E+03</totfact>
</mgrwt>
</event>
<event>
 4    1  0.1672993E-004  0.3280061E+03  0.7818608E-02  0.1072023E+00
         -1   -1    0    0    0  501 -0.00000000000E+00  0.00000000000E+00  0.16027456504E+02  0.16027456504E+02  0.00000000000E+00 0.  1.
          1   -1    0    0  501    0  0.00000000000E+00 -0.00000000000E+00 -0.16781822271E+04  0.16781822271E+04  0.00000000000E+00 0.  1.
         25    1    1    2    0    0  0.78991433169E+02 -0.22947471146E+02 -0.44006420118E+03  0.46348973462E+03  0.12000000000E+03 0.  0.
         25    1    1    2    0    0 -0.78991433169E+02  0.22947471146E+02 -0.12220905694E+04  0.12307199489E+04  0.12000000000E+03 0.  0.
<mgrwt>
<rscale>  0 0.32800605E+03</rscale>
<asrwt>0</asrwt>
<pdfrwt beam="1">  1        1 0.25818193E+00 0.32800605E+03</pdfrwt>
<pdfrwt beam="2">  1       -1 0.24657621E-02 0.32800605E+03</pdfrwt>
<totfact> 0.27524755E+03</totfact>
</mgrwt>
</event>
<event>
 4    1  0.1672993E-004  0.4597452E+03  0.7818608E-02  0.1024855E+00
         -1   -1    0    0    0  501 -0.00000000000E+00  0.00000000000E+00  0.52330139556E+02  0.52330139556E+02  0.00000000000E+00 0. -1.
          1   -1    0    0  501    0  0.00000000000E+00 -0.00000000000E+00 -0.10097700849E+04  0.10097700849E+04  0.00000000000E+00 0. -1.
         25    1    1    2    0    0 -0.18057305624E+03 -0.12110363088E+02 -0.65295388174E+03  0.68811486048E+03  0.12000000000E+03 0.  0.
         25    1    1    2    0    0  0.18057305624E+03  0.12110363088E+02 -0.30448606357E+03  0.37398536395E+03  0.12000000000E+03 0.  0.
<mgrwt>
<rscale>  0 0.45974519E+03</rscale>
<asrwt>0</asrwt>
<pdfrwt beam="1">  1        1 0.15534924E+00 0.45974519E+03</pdfrwt>
<pdfrwt beam="2">  1       -1 0.80507908E-02 0.45974519E+03</pdfrwt>
<totfact> 0.13373239E+03</totfact>
</mgrwt>
</event>
<event>
 4    1  0.1672993E-004  0.2676870E+03  0.7818608E-02  0.1102611E+00
          2   -1    0    0  501    0  0.00000000000E+00  0.00000000000E+00  0.75618316541E+02  0.75618316541E+02  0.00000000000E+00 0.  1.
         -2   -1    0    0    0  501 -0.00000000000E+00 -0.00000000000E+00 -0.23690129906E+03  0.23690129906E+03  0.00000000000E+00 0.  1.
         25    1    1    2    0    0  0.52770452381E+01  0.47543718030E+02 -0.39765874789E+02  0.13516499964E+03  0.12000000000E+03 0.  0.
         25    1    1    2    0    0 -0.52770452381E+01 -0.47543718030E+02 -0.12151710773E+03  0.17735461596E+03  0.12000000000E+03 0.  0.
<mgrwt>
<rscale>  0 0.26768696E+03</rscale>
<asrwt>0</asrwt>
<pdfrwt beam="1">  1        2 0.11633587E-01 0.26768696E+03</pdfrwt>
<pdfrwt beam="2">  1       -2 0.36446353E-01 0.26768696E+03</pdfrwt>
<totfact> 0.37537388E+03</totfact>
</mgrwt>
</event>
<event>
 4    1  0.1672993E-004  0.2576397E+03  0.7818608E-02  0.1108570E+00
          2   -1    0    0  501    0  0.00000000000E+00  0.00000000000E+00  0.17466305180E+03  0.17466305180E+03  0.00000000000E+00 0. -1.
         -2   -1    0    0    0  501 -0.00000000000E+00 -0.00000000000E+00 -0.95008970663E+02  0.95008970663E+02  0.00000000000E+00 0. -1.
         25    1    1    2    0    0 -0.36023201813E+01  0.39722336824E+02  0.65545172220E+02  0.14243247647E+03  0.12000000000E+03 0.  0.
         25    1    1    2    0    0  0.36023201813E+01 -0.39722336824E+02  0.14108908923E+02  0.12723954599E+03  0.12000000000E+03 0.  0.
<mgrwt>
<rscale>  0 0.25763972E+03</rscale>
<asrwt>0</asrwt>
<pdfrwt beam="1">  1        2 0.26871239E-01 0.25763972E+03</pdfrwt>
<pdfrwt beam="2">  1       -2 0.14616765E-01 0.25763972E+03</pdfrwt>
<totfact> 0.70035320E+03</totfact>
</mgrwt>
</event>
<event>
 4    1  0.1672993E-004  0.2730834E+03  0.7818608E-02  0.1099528E+00
         -3   -1    0    0    0  501 -0.00000000000E+00  0.00000000000E+00  0.30312037714E+02  0.30312037714E+02  0.00000000000E+00 0. -1.
          3   -1    0    0  501    0  0.00000000000E+00 -0.00000000000E+00 -0.61505705556E+03  0.61505705556E+03  0.00000000000E+00 0. -1.
         25    1    1    2    0    0  0.63117659036E+02 -0.15531239457E+02 -0.30255772148E+03  0.33191299027E+03  0.12000000000E+03 0.  0.
         25    1    1    2    0    0 -0.63117659036E+02  0.15531239457E+02 -0.28218729636E+03  0.31345610300E+03  0.12000000000E+03 0.  0.
<mgrwt>
<rscale>  0 0.27308338E+03</rscale>
<asrwt>0</asrwt>
<pdfrwt beam="1">  1        3 0.94624150E-01 0.27308338E+03</pdfrwt>
<pdfrwt beam="2">  1       -3 0.46633911E-02 0.27308338E+03</pdfrwt>
<totfact> 0.66428775E+02</totfact>
</mgrwt>
</event>
<event>
 4    1  0.1672993E-004  0.2416728E+03  0.7818608E-02  0.1118683E+00
         -2   -1    0    0    0  501 -0.00000000000E+00  0.00000000000E+00  0.30793317259E+03  0.30793317259E+03  0.00000000000E+00 0. -1.
          2   -1    0    0  501    0  0.00000000000E+00 -0.00000000000E+00 -0.47417538500E+02  0.47417538500E+02  0.00000000000E+00 0. -1.
         25    1    1    2    0    0  0.63985949310E+00 -0.70424846128E+01  0.11216395839E+03  0.16441033900E+03  0.12000000000E+03 0.  0.
         25    1    1    2    0    0 -0.63985949310E+00  0.70424846128E+01  0.14835167570E+03  0.19094037209E+03  0.12000000000E+03 0.  0.
<mgrwt>
<rscale>  0 0.24167278E+03</rscale>
<asrwt>0</asrwt>
<pdfrwt beam="1">  1        2 0.72950061E-02 0.24167278E+03</pdfrwt>
<pdfrwt beam="2">  1       -2 0.47374333E-01 0.24167278E+03</pdfrwt>
<totfact> 0.40500984E+03</totfact>
</mgrwt>
</event>
<event>
 4    1  0.1672993E-004  0.2908056E+03  0.7818608E-02  0.1089929E+00
         -2   -1    0    0    0  501 -0.00000000000E+00  0.00000000000E+00  0.19976152315E+03  0.19976152315E+03  0.00000000000E+00 0. -1.
          2   -1    0    0  501    0  0.00000000000E+00 -0.00000000000E+00 -0.10583604525E+03  0.10583604525E+03  0.00000000000E+00 0. -1.
         25    1    1    2    0    0 -0.62953796050E+01 -0.78410582696E+02  0.71699818793E+02  0.16040173097E+03  0.12000000000E+03 0.  0.
         25    1    1    2    0    0  0.62953796050E+01  0.78410582696E+02  0.22225659111E+02  0.14519583743E+03  0.12000000000E+03 0.  0.
<mgrwt>
<rscale>  0 0.29080557E+03</rscale>
<asrwt>0</asrwt>
<pdfrwt beam="1">  1        2 0.16282469E-01 0.29080557E+03</pdfrwt>
<pdfrwt beam="2">  1       -2 0.30732542E-01 0.29080557E+03</pdfrwt>
<totfact> 0.34485517E+03</totfact>
</mgrwt>
</event>
<event>
 4    1  0.1672993E-004  0.4330450E+03  0.7818608E-02  0.1032902E+00
         -2   -1    0    0    0  501 -0.00000000000E+00  0.00000000000E+00  0.74992675028E+02  0.74992675028E+02  0.00000000000E+00 0. -1.
          2   -1    0    0  501    0  0.00000000000E+00 -0.00000000000E+00 -0.62515443231E+03  0.62515443231E+03  0.00000000000E+00 0. -1.
         25    1    1    2    0    0 -0.89254310954E+02  0.10457883121E+03 -0.86677301006E+02  0.20202974650E+03  0.12000000000E+03 0.  0.
         25    1    1    2    0    0  0.89254310954E+02 -0.10457883121E+03 -0.46348445628E+03  0.49811736084E+03  0.12000000000E+03 0.  0.
<mgrwt>
<rscale>  0 0.43304505E+03</rscale>
<asrwt>0</asrwt>
<pdfrwt beam="1">  1        2 0.96177607E-01 0.43304505E+03</pdfrwt>
<pdfrwt beam="2">  1       -2 0.11537334E-01 0.43304505E+03</pdfrwt>
<totfact> 0.25474957E+03</totfact>
</mgrwt>
</event>
<event>
 4    1  0.1672993E-004  0.2507995E+03  0.7818608E-02  0.1112801E+00
         -2   -1    0    0    0  501 -0.00000000000E+00  0.00000000000E+00  0.27643232927E+02  0.27643232927E+02  0.00000000000E+00 0.  1.
          2   -1    0    0  501    0  0.00000000000E+00 -0.00000000000E+00 -0.56885899083E+03  0.56885899083E+03  0.00000000000E+00 0.  1.
         25    1    1    2    0    0 -0.12034451830E+02  0.28335079520E+02 -0.22440335903E+03  0.25632903134E+03  0.12000000000E+03 0.  0.
         25    1    1    2    0    0  0.12034451830E+02 -0.28335079520E+02 -0.31681239887E+03  0.34017319241E+03  0.12000000000E+03 0.  0.
<mgrwt>
<rscale>  0 0.25079953E+03</rscale>
<asrwt>0</asrwt>
<pdfrwt beam="1">  1        2 0.87516768E-01 0.25079953E+03</pdfrwt>
<pdfrwt beam="2">  1       -2 0.42528050E-02 0.25079953E+03</pdfrwt>
<totfact> 0.13307945E+04</totfact>
</mgrwt>
</event>
<event>
 4    1  0.1672993E-004  0.3138438E+03  0.7818608E-02  0.1078518E+00
         -1   -1    0    0    0  501 -0.00000000000E+00  0.00000000000E+00  0.25815560459E+03  0.25815560459E+03  0.00000000000E+00 0.  1.
          1   -1    0    0  501    0  0.00000000000E+00 -0.00000000000E+00 -0.95386208598E+02  0.95386208598E+02  0.00000000000E+00 0.  1.
         25    1    1    2    0    0 -0.38241539160E+01 -0.99378030074E+02  0.10196795907E+03  0.18624736694E+03  0.12000000000E+03 0.  0.
         25    1    1    2    0    0  0.38241539160E+01  0.99378030074E+02  0.60801436924E+02  0.16729444625E+03  0.12000000000E+03 0.  0.
<mgrwt>
<rscale>  0 0.31384381E+03</rscale>
<asrwt>0</asrwt>
<pdfrwt beam="1">  1        1 0.14674801E-01 0.31384381E+03</pdfrwt>
<pdfrwt beam="2">  1       -1 0.39716247E-01 0.31384381E+03</pdfrwt>
<totfact> 0.24005910E+03</totfact>
</mgrwt>
</event>
<event>
 4    1  0.1672993E-004  0.3034262E+03  0.7818608E-02  0.1083540E+00
          1   -1    0    0  501    0  0.00000000000E+00  0.00000000000E+00  0.66658843389E+02  0.66658843389E+02  0.00000000000E+00 0.  1.
         -1   -1    0    0    0  501 -0.00000000000E+00 -0.00000000000E+00 -0.34529355811E+03  0.34529355811E+03  0.00000000000E+00 0.  1.
         25    1    1    2    0    0  0.78338567261E+01 -0.39640775502E+02 -0.25277909151E+03  0.28271899387E+03  0.12000000000E+03 0.  0.
         25    1    1    2    0    0 -0.78338567261E+01  0.39640775502E+02 -0.25855623208E+02  0.12923340762E+03  0.12000000000E+03 0.  0.
<mgrwt>
<rscale>  0 0.30342623E+03</rscale>
<asrwt>0</asrwt>
<pdfrwt beam="1">  1        1 0.10255206E-01 0.30342623E+03</pdfrwt>
<pdfrwt beam="2">  1       -1 0.53122087E-01 0.30342623E+03</pdfrwt>
<totfact> 0.22745571E+03</totfact>
</mgrwt>
</event>
<event>
 4    1  0.1672993E-004  0.2910135E+03  0.7818608E-02  0.1089821E+00
          1   -1    0    0  501    0  0.00000000000E+00  0.00000000000E+00  0.39106311862E+02  0.39106311862E+02  0.00000000000E+00 0.  1.
         -1   -1    0    0    0  501 -0.00000000000E+00 -0.00000000000E+00 -0.54140132226E+03  0.54140132226E+03  0.00000000000E+00 0.  1.
         25    1    1    2    0    0 -0.36328931375E+02  0.65674741845E+02 -0.18381828162E+03  0.23199595606E+03  0.12000000000E+03 0.  0.
         25    1    1    2    0    0  0.36328931375E+02 -0.65674741845E+02 -0.31847672878E+03  0.34851167806E+03  0.12000000000E+03 0.  0.
<mgrwt>
<rscale>  0 0.29101346E+03</rscale>
<asrwt>0</asrwt>
<pdfrwt beam="1">  1        1 0.60163557E-02 0.29101346E+03</pdfrwt>
<pdfrwt beam="2">  1       -1 0.83292511E-01 0.29101346E+03</pdfrwt>
<totfact> 0.19298410E+03</totfact>
</mgrwt>
</event>
<event>
 4    1  0.1672993E-004  0.3181739E+03  0.7818608E-02  0.1076493E+00
          1   -1    0    0  501    0  0.00000000000E+00  0.00000000000E+00  0.12621263520E+03  0.12621263520E+03  0.00000000000E+00 0. -1.
         -1   -1    0    0    0  501 -0.00000000000E+00 -0.00000000000E+00 -0.20052398927E+03  0.20052398927E+03  0.00000000000E+00 0. -1.
         25    1    1    2    0    0 -0.32110557732E+02 -0.79731065368E+02  0.23775179996E+02  0.14951050092E+03  0.12000000000E+03 0.  0.
         25    1    1    2    0    0  0.32110557732E+02  0.79731065368E+02 -0.98086534062E+02  0.17722612354E+03  0.12000000000E+03 0.  0.
<mgrwt>
<rscale>  0 0.31817392E+03</rscale>
<asrwt>0</asrwt>
<pdfrwt beam="1">  1        1 0.19417329E-01 0.31817392E+03</pdfrwt>
<pdfrwt beam="2">  1       -1 0.30849844E-01 0.31817392E+03</pdfrwt>
<totfact> 0.25869136E+03</totfact>
</mgrwt>
</event>
<event>
 4    1  0.1672993E-004  0.3453525E+03  0.7818608E-02  0.1064539E+00
         -2   -1    0    0    0  501 -0.00000000000E+00  0.00000000000E+00  0.13307797449E+02  0.13307797449E+02  0.00000000000E+00 0. -1.
          2   -1    0    0  501    0  0.00000000000E+00 -0.00000000000E+00 -0.22405728301E+04  0.22405728301E+04  0.00000000000E+00 0. -1.
         25    1    1    2    0    0  0.40644892430E+02  0.98051880370E+02 -0.69315769434E+03  0.71143078914E+03  0.12000000000E+03 0.  0.
         25    1    1    2    0    0 -0.40644892430E+02 -0.98051880370E+02 -0.15341073383E+04  0.15424498384E+04  0.12000000000E+03 0.  0.
<mgrwt>
<rscale>  0 0.34535251E+03</rscale>
<asrwt>0</asrwt>
<pdfrwt beam="1">  1        2 0.34470320E+00 0.34535251E+03</pdfrwt>
<pdfrwt beam="2">  1       -2 0.20473553E-02 0.34535251E+03</pdfrwt>
<totfact> 0.41277045E+03</totfact>
</mgrwt>
</event>
<event>
 4    1  0.1672993E-004  0.3368735E+03  0.7818608E-02  0.1068135E+00
         -2   -1    0    0    0  501 -0.00000000000E+00  0.00000000000E+00  0.22617698916E+03  0.22617698916E+03  0.00000000000E+00 0.  1.
          2   -1    0    0  501    0  0.00000000000E+00 -0.00000000000E+00 -0.12543687802E+03  0.12543687802E+03  0.00000000000E+00 0.  1.
         25    1    1    2    0    0 -0.10744827196E+02 -0.11756169536E+03  0.56521303900E+02  0.17756931413E+03  0.12000000000E+03 0.  0.
         25    1    1    2    0    0  0.10744827196E+02  0.11756169536E+03  0.44218807240E+02  0.17404455304E+03  0.12000000000E+03 0.  0.
<mgrwt>
<rscale>  0 0.33687348E+03</rscale>
<asrwt>0</asrwt>
<pdfrwt beam="1">  1        2 0.19297981E-01 0.33687348E+03</pdfrwt>
<pdfrwt beam="2">  1       -2 0.34796460E-01 0.33687348E+03</pdfrwt>
<totfact> 0.22560671E+03</totfact>
</mgrwt>
</event>
<event>
 4    1  0.1672993E-004  0.2639817E+03  0.7818608E-02  0.1104774E+00
          3   -1    0    0  501    0  0.00000000000E+00  0.00000000000E+00  0.25356152104E+03  0.25356152104E+03  0.00000000000E+00 0. -1.
         -3   -1    0    0    0  501 -0.00000000000E+00 -0.00000000000E+00 -0.68707501831E+02  0.68707501831E+02  0.00000000000E+00 0. -1.
         25    1    1    2    0    0 -0.76038919805E+01  0.32461305072E+02  0.14578065909E+03  0.19173824883E+03  0.12000000000E+03 0.  0.
         25    1    1    2    0    0  0.76038919805E+01 -0.32461305072E+02  0.39073360120E+02  0.13053077404E+03  0.12000000000E+03 0.  0.
<mgrwt>
<rscale>  0 0.26398166E+03</rscale>
<asrwt>0</asrwt>
<pdfrwt beam="1">  1        3 0.39009464E-01 0.26398166E+03</pdfrwt>
<pdfrwt beam="2">  1       -3 0.10570385E-01 0.26398166E+03</pdfrwt>
<totfact> 0.11105324E+03</totfact>
</mgrwt>
</event>
<event>
 4    1  0.1672993E-004  0.3797115E+03  0.7818608E-02  0.1051040E+00
         -1   -1    0    0    0  501 -0.00000000000E+00  0.00000000000E+00  0.50712793364E+02  0.50712793364E+02  0.00000000000E+00 0. -1.
          1   -1    0    0  501    0  0.00000000000E+00 -0.00000000000E+00 -0.71077128448E+03  0.71077128448E+03  0.00000000000E+00 0. -1.
         25    1    1    2    0    0  0.42656767720E+02  0.12796871513E+03 -0.21224374359E+03  0.27864493280E+03  0.12000000000E+03 0.  0.
         25    1    1    2    0    0 -0.42656767720E+02 -0.12796871513E+03 -0.44781474753E+03  0.48283914504E+03  0.12000000000E+03 0.  0.
<mgrwt>
<rscale>  0 0.37971146E+03</rscale>
<asrwt>0</asrwt>
<pdfrwt beam="1">  1        1 0.10934943E+00 0.37971146E+03</pdfrwt>
<pdfrwt beam="2">  1       -1 0.78019684E-02 0.37971146E+03</pdfrwt>
<totfact> 0.24742966E+03</totfact>
</mgrwt>
</event>
<event>
 4    1  0.1672993E-004  0.3029903E+03  0.7818608E-02  0.1083755E+00
         -2   -1    0    0    0  501 -0.00000000000E+00  0.00000000000E+00  0.23144893893E+02  0.23144893893E+02  0.00000000000E+00 0. -1.
          2   -1    0    0  501    0  0.00000000000E+00 -0.00000000000E+00 -0.99161325233E+03  0.99161325233E+03  0.00000000000E+00 0. -1.
         25    1    1    2    0    0 -0.81801005907E+02  0.24038406974E+02 -0.36433979343E+03  0.39295385817E+03  0.12000000000E+03 0.  0.
         25    1    1    2    0    0  0.81801005907E+02 -0.24038406974E+02 -0.60412856501E+03  0.62180428805E+03  0.12000000000E+03 0.  0.
<mgrwt>
<rscale>  0 0.30299032E+03</rscale>
<asrwt>0</asrwt>
<pdfrwt beam="1">  1        2 0.15255587E+00 0.30299032E+03</pdfrwt>
<pdfrwt beam="2">  1       -2 0.35607532E-02 0.30299032E+03</pdfrwt>
<totfact> 0.87134450E+03</totfact>
</mgrwt>
</event>
<event>
 4    1  0.1672993E-004  0.3609465E+03  0.7818608E-02  0.1058210E+00
         -2   -1    0    0    0  501 -0.00000000000E+00  0.00000000000E+00  0.71054641295E+02  0.71054641295E+02  0.00000000000E+00 0. -1.
          2   -1    0    0  501    0  0.00000000000E+00 -0.00000000000E+00 -0.45838797261E+03  0.45838797261E+03  0.00000000000E+00 0. -1.
         25    1    1    2    0    0  0.20102952055E+02  0.28416227412E+02 -0.26479330555E+01  0.12497448624E+03  0.12000000000E+03 0.  0.
         25    1    1    2    0    0 -0.20102952055E+02 -0.28416227412E+02 -0.38468539826E+03  0.40446812766E+03  0.12000000000E+03 0.  0.
<mgrwt>
<rscale>  0 0.36094649E+03</rscale>
<asrwt>0</asrwt>
<pdfrwt beam="1">  1        2 0.70521225E-01 0.36094649E+03</pdfrwt>
<pdfrwt beam="2">  1       -2 0.10931483E-01 0.36094649E+03</pdfrwt>
<totfact> 0.39644221E+03</totfact>
</mgrwt>
</event>
<event>
 4    1  0.1672993E-004  0.3405835E+03  0.7818608E-02  0.1066548E+00
          2   -1    0    0  501    0  0.00000000000E+00  0.00000000000E+00  0.50704536218E+03  0.50704536218E+03  0.00000000000E+00 0. -1.
         -2   -1    0    0    0  501 -0.00000000000E+00 -0.00000000000E+00 -0.57192688751E+02  0.57192688751E+02  0.00000000000E+00 0. -1.
         25    1    1    2    0    0 -0.34997479472E+02 -0.10755282608E+03  0.29534701357E+03  0.33826364332E+03  0.12000000000E+03 0.  0.
         25    1    1    2    0    0  0.34997479472E+02  0.10755282608E+03  0.15450565986E+03  0.22597440761E+03  0.12000000000E+03 0.  0.
<mgrwt>
<rscale>  0 0.34058354E+03</rscale>
<asrwt>0</asrwt>
<pdfrwt beam="1">  1        2 0.78006976E-01 0.34058354E+03</pdfrwt>
<pdfrwt beam="2">  1       -2 0.87988756E-02 0.34058354E+03</pdfrwt>
<totfact> 0.50004229E+03</totfact>
</mgrwt>
</event>
<event>
 4    1  0.1672993E-004  0.2790339E+03  0.7818608E-02  0.1096218E+00
          1   -1    0    0  501    0  0.00000000000E+00  0.00000000000E+00  0.69238642137E+03  0.69238642137E+03  0.00000000000E+00 0.  1.
         -1   -1    0    0    0  501 -0.00000000000E+00 -0.00000000000E+00 -0.28112878361E+02  0.28112878361E+02  0.00000000000E+00 0.  1.
         25    1    1    2    0    0  0.16426646533E+02  0.69229287623E+02  0.33617534614E+03  0.36397306540E+03  0.12000000000E+03 0.  0.
         25    1    1    2    0    0 -0.16426646533E+02 -0.69229287623E+02  0.32809819687E+03  0.35652623433E+03  0.12000000000E+03 0.  0.
<mgrwt>
<rscale>  0 0.27903387E+03</rscale>
<asrwt>0</asrwt>
<pdfrwt beam="1">  1        1 0.10652097E+00 0.27903387E+03</pdfrwt>
<pdfrwt beam="2">  1       -1 0.43250587E-02 0.27903387E+03</pdfrwt>
<totfact> 0.62539993E+03</totfact>
</mgrwt>
</event>
<event>
 4    1  0.1672993E-004  0.2645748E+03  0.7818608E-02  0.1104425E+00
         -2   -1    0    0    0  501 -0.00000000000E+00  0.00000000000E+00  0.44196723571E+02  0.44196723571E+02  0.00000000000E+00 0.  1.
          2   -1    0    0  501    0  0.00000000000E+00 -0.00000000000E+00 -0.39595608868E+03  0.39595608868E+03  0.00000000000E+00 0.  1.
         25    1    1    2    0    0 -0.26871102068E+02 -0.41581639637E+02 -0.13350223855E+03  0.18620938907E+03  0.12000000000E+03 0.  0.
         25    1    1    2    0    0  0.26871102068E+02  0.41581639637E+02 -0.21825712656E+03  0.25394342318E+03  0.12000000000E+03 0.  0.
<mgrwt>
<rscale>  0 0.26457484E+03</rscale>
<asrwt>0</asrwt>
<pdfrwt beam="1">  1        2 0.60916320E-01 0.26457484E+03</pdfrwt>
<pdfrwt beam="2">  1       -2 0.67994961E-02 0.26457484E+03</pdfrwt>
<totfact> 0.97541165E+03</totfact>
</mgrwt>
</event>
<event>
 4    1  0.1672993E-004  0.2514977E+03  0.7818608E-02  0.1112362E+00
          1   -1    0    0  501    0  0.00000000000E+00  0.00000000000E+00  0.52557693418E+02  0.52557693418E+02  0.00000000000E+00 0. -1.
         -1   -1    0    0    0  501 -0.00000000000E+00 -0.00000000000E+00 -0.30086517282E+03  0.30086517282E+03  0.00000000000E+00 0. -1.
         25    1    1    2    0    0 -0.23716779827E+02 -0.26158970650E+02 -0.14225952481E+03  0.18943217728E+03  0.12000000000E+03 0.  0.
         25    1    1    2    0    0  0.23716779827E+02  0.26158970650E+02 -0.10604795459E+03  0.16399068895E+03  0.12000000000E+03 0.  0.
<mgrwt>
<rscale>  0 0.25149775E+03</rscale>
<asrwt>0</asrwt>
<pdfrwt beam="1">  1        1 0.80857987E-02 0.25149775E+03</pdfrwt>
<pdfrwt beam="2">  1       -1 0.46286951E-01 0.25149775E+03</pdfrwt>
<totfact> 0.40247312E+03</totfact>
</mgrwt>
</event>
<event>
 4    1  0.1672993E-004  0.3807145E+03  0.7818608E-02  0.1050670E+00
          1   -1    0    0  501    0  0.00000000000E+00  0.00000000000E+00  0.92932844224E+03  0.92932844224E+03  0.00000000000E+00 0. -1.
         -1   -1    0    0    0  501 -0.00000000000E+00 -0.00000000000E+00 -0.38991476590E+02  0.38991476590E+02  0.00000000000E+00 0. -1.
         25    1    1    2    0    0 -0.12183189644E+03  0.62075525682E+02  0.58768004322E+03  0.61519445306E+03  0.12000000000E+03 0.  0.
         25    1    1    2    0    0  0.12183189644E+03 -0.62075525682E+02  0.30265692243E+03  0.35312546577E+03  0.12000000000E+03 0.  0.
<mgrwt>
<rscale>  0 0.38071453E+03</rscale>
<asrwt>0</asrwt>
<pdfrwt beam="1">  1        1 0.14297359E+00 0.38071453E+03</pdfrwt>
<pdfrwt beam="2">  1       -1 0.59986894E-02 0.38071453E+03</pdfrwt>
<totfact> 0.24264817E+03</totfact>
</mgrwt>
</event>
<event>
 4    1  0.1672993E-004  0.3324305E+03  0.7818608E-02  0.1070066E+00
         -2   -1    0    0    0  501 -0.00000000000E+00  0.00000000000E+00  0.13210681605E+02  0.13210681605E+02  0.00000000000E+00 0.  1.
          2   -1    0    0  501    0  0.00000000000E+00 -0.00000000000E+00 -0.20913007289E+04  0.20913007289E+04  0.00000000000E+00 0.  1.
         25    1    1    2    0    0 -0.25315944585E+02 -0.63619169452E+02 -0.16240496995E+04  0.16299158636E+04  0.12000000000E+03 0.  0.
         25    1    1    2    0    0  0.25315944585E+02  0.63619169452E+02 -0.45404034774E+03  0.47459554691E+03  0.12000000000E+03 0.  0.
<mgrwt>
<rscale>  0 0.33243049E+03</rscale>
<asrwt>0</asrwt>
<pdfrwt beam="1">  1        2 0.32173876E+00 0.33243049E+03</pdfrwt>
<pdfrwt beam="2">  1       -2 0.20324114E-02 0.33243049E+03</pdfrwt>
<totfact> 0.50169103E+03</totfact>
</mgrwt>
</event>
<event>
 4    1  0.1672993E-004  0.2550594E+03  0.7818608E-02  0.1110148E+00
         -1   -1    0    0    0  501 -0.00000000000E+00  0.00000000000E+00  0.12151119492E+02  0.12151119492E+02  0.00000000000E+00 0.  1.
          1   -1    0    0  501    0  0.00000000000E+00 -0.00000000000E+00 -0.13384635631E+04  0.13384635631E+04  0.00000000000E+00 0.  1.
         25    1    1    2    0    0  0.13591616293E+02 -0.24000450267E+01 -0.44654450586E+03  0.46259322083E+03  0.12000000000E+03 0.  0.
         25    1    1    2    0    0 -0.13591616293E+02  0.24000450267E+01 -0.87976793774E+03  0.88802146175E+03  0.12000000000E+03 0.  0.
<mgrwt>
<rscale>  0 0.25505945E+03</rscale>
<asrwt>0</asrwt>
<pdfrwt beam="1">  1        1 0.20591734E+00 0.25505945E+03</pdfrwt>
<pdfrwt beam="2">  1       -1 0.18694042E-02 0.25505945E+03</pdfrwt>
<totfact> 0.69400766E+03</totfact>
</mgrwt>
</event>
<event>
 4    1  0.1672993E-004  0.2798932E+03  0.7818608E-02  0.1095747E+00
          1   -1    0    0  501    0  0.00000000000E+00  0.00000000000E+00  0.23217012475E+03  0.23217012475E+03  0.00000000000E+00 0.  1.
         -1   -1    0    0    0  501 -0.00000000000E+00 -0.00000000000E+00 -0.84356491753E+02  0.84356491753E+02  0.00000000000E+00 0.  1.
         25    1    1    2    0    0 -0.60602802664E+02 -0.19332361045E+02  0.11206667135E+03  0.17608344244E+03  0.12000000000E+03 0.  0.
         25    1    1    2    0    0  0.60602802664E+02  0.19332361045E+02  0.35746961653E+02  0.14044317407E+03  0.12000000000E+03 0.  0.
<mgrwt>
<rscale>  0 0.27989325E+03</rscale>
<asrwt>0</asrwt>
<pdfrwt beam="1">  1        1 0.35718481E-01 0.27989325E+03</pdfrwt>
<pdfrwt beam="2">  1       -1 0.12977922E-01 0.27989325E+03</pdfrwt>
<totfact> 0.48818445E+03</totfact>
</mgrwt>
</event>
<event>
 4    1  0.1672993E-004  0.2676502E+03  0.7818608E-02  0.1102632E+00
         -2   -1    0    0    0  501 -0.00000000000E+00  0.00000000000E+00  0.27359093878E+02  0.27359093878E+02  0.00000000000E+00 0.  1.
          2   -1    0    0  501    0  0.00000000000E+00 -0.00000000000E+00 -0.65459634330E+03  0.65459634330E+03  0.00000000000E+00 0.  1.
         25    1    1    2    0    0 -0.18479542812E+02 -0.42542814338E+02 -0.40750504548E+03  0.42733095681E+03  0.12000000000E+03 0.  0.
         25    1    1    2    0    0  0.18479542812E+02  0.42542814338E+02 -0.21973220393E+03  0.25462448036E+03  0.12000000000E+03 0.  0.
<mgrwt>
<rscale>  0 0.26765024E+03</rscale>
<asrwt>0</asrwt>
<pdfrwt beam="1">  1        2 0.10070712E+00 0.26765024E+03</pdfrwt>
<pdfrwt beam="2">  1       -2 0.42090919E-02 0.26765024E+03</pdfrwt>
<totfact> 0.11509511E+04</totfact>
</mgrwt>
</event>
<event>
 4    1  0.1672993E-004  0.2661275E+03  0.7818608E-02  0.1103517E+00
          2   -1    0    0  501    0  0.00000000000E+00  0.00000000000E+00  0.13159937226E+02  0.13159937226E+02  0.00000000000E+00 0. -1.
         -2   -1    0    0    0  501 -0.00000000000E+00 -0.00000000000E+00 -0.13454440995E+04  0.13454440995E+04  0.00000000000E+00 0. -1.
         25    1    1    2    0    0  0.27459233400E+02  0.23285281388E+01 -0.92376080495E+03  0.93192996320E+03  0.12000000000E+03 0.  0.
         25    1    1    2    0    0 -0.27459233400E+02 -0.23285281388E+01 -0.40852335732E+03  0.42667407353E+03  0.12000000000E+03 0.  0.
<mgrwt>
<rscale>  0 0.26612749E+03</rscale>
<asrwt>0</asrwt>
<pdfrwt beam="1">  1        2 0.20246063E-02 0.26612749E+03</pdfrwt>
<pdfrwt beam="2">  1       -2 0.20699134E+00 0.26612749E+03</pdfrwt>
<totfact> 0.70129550E+02</totfact>
</mgrwt>
</event>
<event>
 4    1  0.1672993E-004  0.2913520E+03  0.7818608E-02  0.1089645E+00
         -3   -1    0    0    0  501 -0.00000000000E+00  0.00000000000E+00  0.40332407838E+03  0.40332407838E+03  0.00000000000E+00 0.  1.
          3   -1    0    0  501    0  0.00000000000E+00 -0.00000000000E+00 -0.52616495012E+02  0.52616495012E+02  0.00000000000E+00 0.  1.
         25    1    1    2    0    0  0.15179932952E+02  0.34867871271E+02  0.29008764747E+03  0.31622308902E+03  0.12000000000E+03 0.  0.
         25    1    1    2    0    0 -0.15179932952E+02 -0.34867871271E+02  0.60619935891E+02  0.13971748437E+03  0.12000000000E+03 0.  0.
<mgrwt>
<rscale>  0 0.29135202E+03</rscale>
<asrwt>0</asrwt>
<pdfrwt beam="1">  1        3 0.80948457E-02 0.29135202E+03</pdfrwt>
<pdfrwt beam="2">  1       -3 0.62049856E-01 0.29135202E+03</pdfrwt>
<totfact> 0.68600123E+02</totfact>
</mgrwt>
</event>
<event>
 4    1  0.1672993E-004  0.2600408E+03  0.7818608E-02  0.1107119E+00
         -2   -1    0    0    0  501 -0.00000000000E+00  0.00000000000E+00  0.90459737735E+03  0.90459737735E+03  0.00000000000E+00 0.  1.
          2   -1    0    0  501    0  0.00000000000E+00 -0.00000000000E+00 -0.18688210492E+02  0.18688210492E+02  0.00000000000E+00 0.  1.
         25    1    1    2    0    0  0.25246463824E+02 -0.41682368724E+02  0.48351512917E+03  0.50056136880E+03  0.12000000000E+03 0.  0.
         25    1    1    2    0    0 -0.25246463824E+02  0.41682368724E+02  0.40239403769E+03  0.42272421904E+03  0.12000000000E+03 0.  0.
<mgrwt>
<rscale>  0 0.26004081E+03</rscale>
<asrwt>0</asrwt>
<pdfrwt beam="1">  1        2 0.28751100E-02 0.26004081E+03</pdfrwt>
<pdfrwt beam="2">  1       -2 0.13916879E+00 0.26004081E+03</pdfrwt>
<totfact> 0.12735043E+03</totfact>
</mgrwt>
</event>
<event>
 4    1  0.1672993E-004  0.2873116E+03  0.7818608E-02  0.1091761E+00
          2   -1    0    0  501    0  0.00000000000E+00  0.00000000000E+00  0.53650442039E+03  0.53650442039E+03  0.00000000000E+00 0. -1.
         -2   -1    0    0    0  501 -0.00000000000E+00 -0.00000000000E+00 -0.38465648889E+02  0.38465648889E+02  0.00000000000E+00 0. -1.
         25    1    1    2    0    0  0.43104819553E+02 -0.62469218726E+02  0.20533243634E+03  0.24964342204E+03  0.12000000000E+03 0.  0.
         25    1    1    2    0    0 -0.43104819553E+02  0.62469218726E+02  0.29270633516E+03  0.32532664724E+03  0.12000000000E+03 0.  0.
<mgrwt>
<rscale>  0 0.28731161E+03</rscale>
<asrwt>0</asrwt>
<pdfrwt beam="1">  1        2 0.82539136E-01 0.28731161E+03</pdfrwt>
<pdfrwt beam="2">  1       -2 0.59177925E-02 0.28731161E+03</pdfrwt>
<totfact> 0.86579838E+03</totfact>
</mgrwt>
</event>
<event>
 4    1  0.1672993E-004  0.2824938E+03  0.7818608E-02  0.1094335E+00
          1   -1    0    0  501    0  0.00000000000E+00  0.00000000000E+00  0.20977025590E+03  0.20977025590E+03  0.00000000000E+00 0. -1.
         -1   -1    0    0    0  501 -0.00000000000E+00 -0.00000000000E+00 -0.95107326085E+02  0.95107326085E+02  0.00000000000E+00 0. -1.
         25    1    1    2    0    0  0.62163445575E+02  0.22544457846E+02  0.94375245119E+02  0.16637077098E+03  0.12000000000E+03 0.  0.
         25    1    1    2    0    0 -0.62163445575E+02 -0.22544457846E+02  0.20287684700E+02  0.13850681101E+03  0.12000000000E+03 0.  0.
<mgrwt>
<rscale>  0 0.28249381E+03</rscale>
<asrwt>0</asrwt>
<pdfrwt beam="1">  1        1 0.32272347E-01 0.28249381E+03</pdfrwt>
<pdfrwt beam="2">  1       -1 0.14631896E-01 0.28249381E+03</pdfrwt>
<totfact> 0.45913916E+03</totfact>
</mgrwt>
</event>
<event>
 4    1  0.1672993E-004  0.2608521E+03  0.7818608E-02  0.1106632E+00
          1   -1    0    0  501    0  0.00000000000E+00  0.00000000000E+00  0.27888966541E+04  0.27888966541E+04  0.00000000000E+00 0.  1.
         -1   -1    0    0    0  501 -0.00000000000E+00 -0.00000000000E+00 -0.60995291748E+01  0.60995291748E+01  0.00000000000E+00 0.  1.
         25    1    1    2    0    0 -0.30940903235E+02  0.21458846388E+02  0.17615092581E+04  0.17659933997E+04  0.12000000000E+03 0.  0.
         25    1    1    2    0    0  0.30940903235E+02 -0.21458846388E+02  0.10212878668E+04  0.10290027835E+04  0.12000000000E+03 0.  0.
<mgrwt>
<rscale>  0 0.26085212E+03</rscale>
<asrwt>0</asrwt>
<pdfrwt beam="1">  1        1 0.42906000E+00 0.26085212E+03</pdfrwt>
<pdfrwt beam="2">  1       -1 0.93839133E-03 0.26085212E+03</pdfrwt>
<totfact> 0.20911589E+03</totfact>
</mgrwt>
</event>
<event>
 4    1  0.1672993E-004  0.2767586E+03  0.7818608E-02  0.1097473E+00
          2   -1    0    0  501    0  0.00000000000E+00  0.00000000000E+00  0.11729889705E+04  0.11729889705E+04  0.00000000000E+00 0.  1.
         -2   -1    0    0    0  501 -0.00000000000E+00 -0.00000000000E+00 -0.16324818652E+02  0.16324818652E+02  0.00000000000E+00 0.  1.
         25    1    1    2    0    0  0.10700022306E+02  0.51381861659E+02  0.38642778717E+03  0.40802085839E+03  0.12000000000E+03 0.  0.
         25    1    1    2    0    0 -0.10700022306E+02 -0.51381861659E+02  0.77023636472E+03  0.78129293080E+03  0.12000000000E+03 0.  0.
<mgrwt>
<rscale>  0 0.27675861E+03</rscale>
<asrwt>0</asrwt>
<pdfrwt beam="1">  1        2 0.18045978E+00 0.27675861E+03</pdfrwt>
<pdfrwt beam="2">  1       -2 0.25115115E-02 0.27675861E+03</pdfrwt>
<totfact> 0.11415930E+04</totfact>
</mgrwt>
</event>
<event>
 4    1  0.1672993E-004  0.2832067E+03  0.7818608E-02  0.1093950E+00
          1   -1    0    0  501    0  0.00000000000E+00  0.00000000000E+00  0.13737255481E+04  0.13737255481E+04  0.00000000000E+00 0. -1.
         -1   -1    0    0    0  501 -0.00000000000E+00 -0.00000000000E+00 -0.14596440740E+02  0.14596440740E+02  0.00000000000E+00 0. -1.
         25    1    1    2    0    0  0.72536155582E+02 -0.13379742850E+02  0.75077109706E+03  0.76387024524E+03  0.12000000000E+03 0.  0.
         25    1    1    2    0    0 -0.72536155582E+02  0.13379742850E+02  0.60835801030E+03  0.62445174359E+03  0.12000000000E+03 0.  0.
<mgrwt>
<rscale>  0 0.28320666E+03</rscale>
<asrwt>0</asrwt>
<pdfrwt beam="1">  1        1 0.21134229E+00 0.28320666E+03</pdfrwt>
<pdfrwt beam="2">  1       -1 0.22456073E-02 0.28320666E+03</pdfrwt>
<totfact> 0.50317785E+03</totfact>
</mgrwt>
</event>
<event>
 4    1  0.1672993E-004  0.2641933E+03  0.7818608E-02  0.1104650E+00
          2   -1    0    0  501    0  0.00000000000E+00  0.00000000000E+00  0.50420274375E+03  0.50420274375E+03  0.00000000000E+00 0.  1.
         -2   -1    0    0    0  501 -0.00000000000E+00 -0.00000000000E+00 -0.34608154066E+02  0.34608154066E+02  0.00000000000E+00 0.  1.
         25    1    1    2    0    0  0.43135189541E+02  0.10389590719E+02  0.16774479705E+03  0.21096659714E+03  0.12000000000E+03 0.  0.
         25    1    1    2    0    0 -0.43135189541E+02 -0.10389590719E+02  0.30184979263E+03  0.32784430067E+03  0.12000000000E+03 0.  0.
<mgrwt>
<rscale>  0 0.26419331E+03</rscale>
<asrwt>0</asrwt>
<pdfrwt beam="1">  1        2 0.77569648E-01 0.26419331E+03</pdfrwt>
<pdfrwt beam="2">  1       -2 0.53243317E-02 0.26419331E+03</pdfrwt>
<totfact> 0.10879042E+04</totfact>
</mgrwt>
</event>
<event>
 4    1  0.1672993E-004  0.4126074E+03  0.7818608E-02  0.1039500E+00
          4   -1    0    0  501    0  0.00000000000E+00  0.00000000000E+00  0.16637368029E+03  0.16637368029E+03  0.00000000000E+00 0.  1.
         -4   -1    0    0    0  501 -0.00000000000E+00 -0.00000000000E+00 -0.25581697438E+03  0.25581697438E+03  0.00000000000E+00 0.  1.
         25    1    1    2    0    0  0.10332434155E+03  0.11526122925E+03  0.21592099263E+02  0.19704641401E+03  0.12000000000E+03 0.  0.
         25    1    1    2    0    0 -0.10332434155E+03 -0.11526122925E+03 -0.11103539336E+03  0.22514424066E+03  0.12000000000E+03 0.  0.
<mgrwt>
<rscale>  0 0.41260738E+03</rscale>
<asrwt>0</asrwt>
<pdfrwt beam="1">  1        4 0.25595951E-01 0.41260738E+03</pdfrwt>
<pdfrwt beam="2">  1       -4 0.39356458E-01 0.41260738E+03</pdfrwt>
<totfact> 0.17528427E+02</totfact>
</mgrwt>
</event>
<event>
 4    1  0.1672993E-004  0.2531032E+03  0.7818608E-02  0.1111359E+00
          3   -1    0    0  501    0  0.00000000000E+00  0.00000000000E+00  0.19898305171E+03  0.19898305171E+03  0.00000000000E+00 0. -1.
         -3   -1    0    0    0  501 -0.00000000000E+00 -0.00000000000E+00 -0.80485781328E+02  0.80485781328E+02  0.00000000000E+00 0. -1.
         25    1    1    2    0    0 -0.25015715517E+02 -0.10506672223E+02  0.26509865055E+02  0.12585288685E+03  0.12000000000E+03 0.  0.
         25    1    1    2    0    0  0.25015715517E+02  0.10506672223E+02  0.91987405332E+02  0.15361594619E+03  0.12000000000E+03 0.  0.
<mgrwt>
<rscale>  0 0.25310319E+03</rscale>
<asrwt>0</asrwt>
<pdfrwt beam="1">  1        3 0.30612777E-01 0.25310319E+03</pdfrwt>
<pdfrwt beam="2">  1       -3 0.12382428E-01 0.25310319E+03</pdfrwt>
<totfact> 0.13427163E+03</totfact>
</mgrwt>
</event>
<event>
 4    1  0.1672993E-004  0.2614293E+03  0.7818608E-02  0.1106287E+00
         -2   -1    0    0    0  501 -0.00000000000E+00  0.00000000000E+00  0.57954192857E+02  0.57954192857E+02  0.00000000000E+00 0. -1.
          2   -1    0    0  501    0  0.00000000000E+00 -0.00000000000E+00 -0.29482460878E+03  0.29482460878E+03  0.00000000000E+00 0. -1.
         25    1    1    2    0    0  0.30227568878E+02 -0.25463951874E+02 -0.16368021390E+03  0.20676878678E+03  0.12000000000E+03 0.  0.
         25    1    1    2    0    0 -0.30227568878E+02  0.25463951874E+02 -0.73190202021E+02  0.14601001485E+03  0.12000000000E+03 0.  0.
<mgrwt>
<rscale>  0 0.26142932E+03</rscale>
<asrwt>0</asrwt>
<pdfrwt beam="1">  1        2 0.45357632E-01 0.26142932E+03</pdfrwt>
<pdfrwt beam="2">  1       -2 0.89160296E-02 0.26142932E+03</pdfrwt>
<totfact> 0.87822182E+03</totfact>
</mgrwt>
</event>
<event>
 4    1  0.1672993E-004  0.3771026E+03  0.7818608E-02  0.1052010E+00
         -2   -1    0    0    0  501 -0.00000000000E+00  0.00000000000E+00  0.19602817454E+02  0.19602817454E+02  0.00000000000E+00 0. -1.
          2   -1    0    0  501    0  0.00000000000E+00 -0.00000000000E+00 -0.18135963742E+04  0.18135963742E+04  0.00000000000E+00 0. -1.
         25    1    1    2    0    0  0.11225150464E+03  0.83473373147E+02 -0.10904360455E+04  0.11059018825E+04  0.12000000000E+03 0.  0.
         25    1    1    2    0    0 -0.11225150464E+03 -0.83473373147E+02 -0.70355751122E+03  0.72729730917E+03  0.12000000000E+03 0.  0.
<mgrwt>
<rscale>  0 0.37710263E+03</rscale>
<asrwt>0</asrwt>
<pdfrwt beam="1">  1        2 0.27901478E+00 0.37710263E+03</pdfrwt>
<pdfrwt beam="2">  1       -2 0.30158185E-02 0.37710263E+03</pdfrwt>
<totfact> 0.39080097E+03</totfact>
</mgrwt>
</event>
<event>
 4    1  0.1672993E-004  0.3070190E+03  0.7818608E-02  0.1081784E+00
         -2   -1    0    0    0  501 -0.00000000000E+00  0.00000000000E+00  0.15285897819E+04  0.15285897819E+04  0.00000000000E+00 0.  1.
          2   -1    0    0  501    0  0.00000000000E+00 -0.00000000000E+00 -0.15416283139E+02  0.15416283139E+02  0.00000000000E+00 0.  1.
         25    1    1    2    0    0 -0.74584928818E+02  0.54113880568E+02  0.88714288104E+03  0.89995206264E+03  0.12000000000E+03 0.  0.
         25    1    1    2    0    0  0.74584928818E+02 -0.54113880568E+02  0.62603061773E+03  0.64405400240E+03  0.12000000000E+03 0.  0.
<mgrwt>
<rscale>  0 0.30701904E+03</rscale>
<asrwt>0</asrwt>
<pdfrwt beam="1">  1        2 0.23717371E-02 0.30701904E+03</pdfrwt>
<pdfrwt beam="2">  1       -2 0.23516754E+00 0.30701904E+03</pdfrwt>
<totfact> 0.38009915E+02</totfact>
</mgrwt>
</event>
<event>
 4    1  0.1672993E-004  0.3469536E+03  0.7818608E-02  0.1063872E+00
          2   -1    0    0  501    0  0.00000000000E+00  0.00000000000E+00  0.26548575085E+03  0.26548575085E+03  0.00000000000E+00 0.  1.
         -2   -1    0    0    0  501 -0.00000000000E+00 -0.00000000000E+00 -0.11335520699E+03  0.11335520699E+03  0.00000000000E+00 0.  1.
         25    1    1    2    0    0  0.30489839981E+02  0.55540955717E+02  0.19407087296E+03  0.23680779513E+03  0.12000000000E+03 0.  0.
         25    1    1    2    0    0 -0.30489839981E+02 -0.55540955717E+02 -0.41940329100E+02  0.14203316271E+03  0.12000000000E+03 0.  0.
<mgrwt>
<rscale>  0 0.34695355E+03</rscale>
<asrwt>0</asrwt>
<pdfrwt beam="1">  1        2 0.40843962E-01 0.34695355E+03</pdfrwt>
<pdfrwt beam="2">  1       -2 0.17439263E-01 0.34695355E+03</pdfrwt>
<totfact> 0.33301102E+03</totfact>
</mgrwt>
</event>
<event>
 4    1  0.1672993E-004  0.3345376E+03  0.7818608E-02  0.1069147E+00
         -1   -1    0    0    0  501 -0.00000000000E+00  0.00000000000E+00  0.18375722680E+03  0.18375722680E+03  0.00000000000E+00 0. -1.
          1   -1    0    0  501    0  0.00000000000E+00 -0.00000000000E+00 -0.15225986614E+03  0.15225986614E+03  0.00000000000E+00 0. -1.
         25    1    1    2    0    0 -0.10213776403E+03 -0.55971100769E+02  0.19502022257E+02  0.16836037489E+03  0.12000000000E+03 0.  0.
         25    1    1    2    0    0  0.10213776403E+03  0.55971100769E+02  0.11995338399E+02  0.16765671805E+03  0.12000000000E+03 0.  0.
<mgrwt>
<rscale>  0 0.33453760E+03</rscale>
<asrwt>0</asrwt>
<pdfrwt beam="1">  1        1 0.23424595E-01 0.33453760E+03</pdfrwt>
<pdfrwt beam="2">  1       -1 0.28270342E-01 0.33453760E+03</pdfrwt>
<totfact> 0.23587072E+03</totfact>
</mgrwt>
</event>
<event>
 4    1  0.1672993E-004  0.2779437E+03  0.7818608E-02  0.1096817E+00
          2   -1    0    0  501    0  0.00000000000E+00  0.00000000000E+00  0.26702798321E+04  0.26702798321E+04  0.00000000000E+00 0.  1.
         -2   -1    0    0    0  501 -0.00000000000E+00 -0.00000000000E+00 -0.72326386396E+01  0.72326386396E+01  0.00000000000E+00 0.  1.
         25    1    1    2    0    0 -0.50178424075E+02 -0.39701381557E+02  0.16072268641E+04  0.16129700142E+04  0.12000000000E+03 0.  0.
         25    1    1    2    0    0  0.50178424075E+02  0.39701381557E+02  0.10558203294E+04  0.10645424566E+04  0.12000000000E+03 0.  0.
<mgrwt>
<rscale>  0 0.27794366E+03</rscale>
<asrwt>0</asrwt>
<pdfrwt beam="1">  1        2 0.41081149E+00 0.27794366E+03</pdfrwt>
<pdfrwt beam="2">  1       -2 0.11127158E-02 0.27794366E+03</pdfrwt>
<totfact> 0.58892392E+03</totfact>
</mgrwt>
</event>
<event>
 4    1  0.1672993E-004  0.2911297E+03  0.7818608E-02  0.1089761E+00
         -1   -1    0    0    0  501 -0.00000000000E+00  0.00000000000E+00  0.23554887432E+02  0.23554887432E+02  0.00000000000E+00 0. -1.
          1   -1    0    0  501    0  0.00000000000E+00 -0.00000000000E+00 -0.89956369493E+03  0.89956369493E+03  0.00000000000E+00 0. -1.
         25    1    1    2    0    0  0.43839204429E+02  0.67854032785E+02 -0.48943382117E+03  0.51036409642E+03  0.12000000000E+03 0.  0.
         25    1    1    2    0    0 -0.43839204429E+02 -0.67854032785E+02 -0.38657498633E+03  0.41275448594E+03  0.12000000000E+03 0.  0.
<mgrwt>
<rscale>  0 0.29112967E+03</rscale>
<asrwt>0</asrwt>
<pdfrwt beam="1">  1        1 0.13839442E+00 0.29112967E+03</pdfrwt>
<pdfrwt beam="2">  1       -1 0.36238287E-02 0.29112967E+03</pdfrwt>
<totfact> 0.54485068E+03</totfact>
</mgrwt>
</event>
<event>
 4    1  0.1672993E-004  0.2745743E+03  0.7818608E-02  0.1098690E+00
          1   -1    0    0  501    0  0.00000000000E+00  0.00000000000E+00  0.11565734899E+04  0.11565734899E+04  0.00000000000E+00 0.  1.
         -1   -1    0    0    0  501 -0.00000000000E+00 -0.00000000000E+00 -0.16296202138E+02  0.16296202138E+02  0.00000000000E+00 0.  1.
         25    1    1    2    0    0 -0.27794410519E+02 -0.59993646791E+02  0.53290257782E+03  0.55023351802E+03  0.12000000000E+03 0.  0.
         25    1    1    2    0    0  0.27794410519E+02  0.59993646791E+02  0.60737470992E+03  0.62263617399E+03  0.12000000000E+03 0.  0.
<mgrwt>
<rscale>  0 0.27457426E+03</rscale>
<asrwt>0</asrwt>
<pdfrwt beam="1">  1        1 0.17793432E+00 0.27457426E+03</pdfrwt>
<pdfrwt beam="2">  1       -1 0.25071089E-02 0.27457426E+03</pdfrwt>
<totfact> 0.60416018E+03</totfact>
</mgrwt>
</event>
<event>
 4    1  0.1672993E-004  0.2668578E+03  0.7818608E-02  0.1103092E+00
         -1   -1    0    0    0  501 -0.00000000000E+00  0.00000000000E+00  0.19519215922E+02  0.19519215922E+02  0.00000000000E+00 0.  1.
          1   -1    0    0  501    0  0.00000000000E+00 -0.00000000000E+00 -0.91208921765E+03  0.91208921765E+03  0.00000000000E+00 0.  1.
         25    1    1    2    0    0  0.15928137190E+02 -0.55726425890E+02 -0.42309492126E+03  0.44358590204E+03  0.12000000000E+03 0.  0.
         25    1    1    2    0    0 -0.15928137190E+02  0.55726425890E+02 -0.46947508047E+03  0.48802253153E+03  0.12000000000E+03 0.  0.
<mgrwt>
<rscale>  0 0.26685776E+03</rscale>
<asrwt>0</asrwt>
<pdfrwt beam="1">  1        1 0.14032143E+00 0.26685776E+03</pdfrwt>
<pdfrwt beam="2">  1       -1 0.30029561E-02 0.26685776E+03</pdfrwt>
<totfact> 0.70213607E+03</totfact>
</mgrwt>
</event>
<event>
 4    1  0.1672993E-004  0.2547537E+03  0.7818608E-02  0.1110337E+00
          1   -1    0    0  501    0  0.00000000000E+00  0.00000000000E+00  0.12936148078E+03  0.12936148078E+03  0.00000000000E+00 0. -1.
         -1   -1    0    0    0  501 -0.00000000000E+00 -0.00000000000E+00 -0.12542267915E+03  0.12542267915E+03  0.00000000000E+00 0. -1.
         25    1    1    2    0    0 -0.28150414798E+02  0.43029376958E+01 -0.29876238521E+02  0.12689976657E+03  0.12000000000E+03 0.  0.
         25    1    1    2    0    0  0.28150414798E+02 -0.43029376958E+01  0.33815040157E+02  0.12788439337E+03  0.12000000000E+03 0.  0.
<mgrwt>
<rscale>  0 0.25475371E+03</rscale>
<asrwt>0</asrwt>
<pdfrwt beam="1">  1        1 0.19901766E-01 0.25475371E+03</pdfrwt>
<pdfrwt beam="2">  1       -1 0.19295797E-01 0.25475371E+03</pdfrwt>
<totfact> 0.54340023E+03</totfact>
</mgrwt>
</event>
<event>
 4    1  0.1672993E-004  0.5740897E+03  0.7818608E-02  0.9960669E-01
         -2   -1    0    0    0  501 -0.00000000000E+00  0.00000000000E+00  0.18990733393E+03  0.18990733393E+03  0.00000000000E+00 0.  1.
          2   -1    0    0  501    0  0.00000000000E+00 -0.00000000000E+00 -0.43386816234E+03  0.43386816234E+03  0.00000000000E+00 0.  1.
         25    1    1    2    0    0  0.66186507343E+02  0.23568536448E+03 -0.24393596376E+02  0.27372119452E+03  0.12000000000E+03 0.  0.
         25    1    1    2    0    0 -0.66186507343E+02 -0.23568536448E+03 -0.21956723204E+03  0.35005430175E+03  0.12000000000E+03 0.  0.
<mgrwt>
<rscale>  0 0.57408970E+03</rscale>
<asrwt>0</asrwt>
<pdfrwt beam="1">  1        2 0.66748948E-01 0.57408970E+03</pdfrwt>
<pdfrwt beam="2">  1       -2 0.29216513E-01 0.57408970E+03</pdfrwt>
<totfact> 0.78457682E+02</totfact>
</mgrwt>
</event>
<event>
 4    1  0.1672993E-004  0.2429128E+03  0.7818608E-02  0.1117868E+00
         -1   -1    0    0    0  501 -0.00000000000E+00  0.00000000000E+00  0.33541950068E+02  0.33541950068E+02  0.00000000000E+00 0.  1.
          1   -1    0    0  501    0  0.00000000000E+00 -0.00000000000E+00 -0.43979710933E+03  0.43979710933E+03  0.00000000000E+00 0.  1.
         25    1    1    2    0    0 -0.17292833166E+02 -0.70475703486E+01 -0.19978509435E+03  0.23380075759E+03  0.12000000000E+03 0.  0.
         25    1    1    2    0    0  0.17292833166E+02  0.70475703486E+01 -0.20647006491E+03  0.23953830180E+03  0.12000000000E+03 0.  0.
<mgrwt>
<rscale>  0 0.24291276E+03</rscale>
<asrwt>0</asrwt>
<pdfrwt beam="1">  1        1 0.67661089E-01 0.24291276E+03</pdfrwt>
<pdfrwt beam="2">  1       -1 0.51603004E-02 0.24291276E+03</pdfrwt>
<totfact> 0.88729929E+03</totfact>
</mgrwt>
</event>
<event>
 4    1  0.1672993E-004  0.2729194E+03  0.7818608E-02  0.1099620E+00
         -2   -1    0    0    0  501 -0.00000000000E+00  0.00000000000E+00  0.31890712852E+02  0.31890712852E+02  0.00000000000E+00 0. -1.
          2   -1    0    0  501    0  0.00000000000E+00 -0.00000000000E+00 -0.58390810332E+03  0.58390810332E+03  0.00000000000E+00 0. -1.
         25    1    1    2    0    0 -0.39420057427E+02 -0.36350597236E+02 -0.35878711796E+03  0.38210404717E+03  0.12000000000E+03 0.  0.
         25    1    1    2    0    0  0.39420057427E+02  0.36350597236E+02 -0.19323027251E+03  0.23369476900E+03  0.12000000000E+03 0.  0.
<mgrwt>
<rscale>  0 0.27291937E+03</rscale>
<asrwt>0</asrwt>
<pdfrwt beam="1">  1        2 0.89832013E-01 0.27291937E+03</pdfrwt>
<pdfrwt beam="2">  1       -2 0.49062637E-02 0.27291937E+03</pdfrwt>
<totfact> 0.10442276E+04</totfact>
</mgrwt>
</event>
<event>
 4    1  0.1672993E-004  0.2716516E+03  0.7818608E-02  0.1100338E+00
          1   -1    0    0  501    0  0.00000000000E+00  0.00000000000E+00  0.10808067019E+04  0.10808067019E+04  0.00000000000E+00 0. -1.
         -1   -1    0    0    0  501 -0.00000000000E+00 -0.00000000000E+00 -0.17069333676E+02  0.17069333676E+02  0.00000000000E+00 0. -1.
         25    1    1    2    0    0 -0.16606978561E+02  0.20850202490E+02  0.76537168965E+03  0.77518020228E+03  0.12000000000E+03 0.  0.
         25    1    1    2    0    0  0.16606978561E+02 -0.20850202490E+02  0.29836567860E+03  0.32269583333E+03  0.12000000000E+03 0.  0.
<mgrwt>
<rscale>  0 0.27165162E+03</rscale>
<asrwt>0</asrwt>
<pdfrwt beam="1">  1        1 0.16627790E+00 0.27165162E+03</pdfrwt>
<pdfrwt beam="2">  1       -1 0.26260522E-02 0.27165162E+03</pdfrwt>
<totfact> 0.63937938E+03</totfact>
</mgrwt>
</event>
<event>
 4    1  0.1672993E-004  0.3514033E+03  0.7818608E-02  0.1062041E+00
          1   -1    0    0  501    0  0.00000000000E+00  0.00000000000E+00  0.24445272785E+03  0.24445272785E+03  0.00000000000E+00 0.  1.
         -1   -1    0    0    0  501 -0.00000000000E+00 -0.00000000000E+00 -0.12628644421E+03  0.12628644421E+03  0.00000000000E+00 0.  1.
         25    1    1    2    0    0 -0.12615186898E+03 -0.17593049110E+02  0.42493523392E+02  0.18008195066E+03  0.12000000000E+03 0.  0.
         25    1    1    2    0    0  0.12615186898E+03  0.17593049110E+02  0.75672760246E+02  0.19065722139E+03  0.12000000000E+03 0.  0.
<mgrwt>
<rscale>  0 0.35140328E+03</rscale>
<asrwt>0</asrwt>
<pdfrwt beam="1">  1        1 0.37608112E-01 0.35140328E+03</pdfrwt>
<pdfrwt beam="2">  1       -1 0.19428684E-01 0.35140328E+03</pdfrwt>
<totfact> 0.24104988E+03</totfact>
</mgrwt>
</event>
<event>
 4    1  0.1672993E-004  0.3361064E+03  0.7818608E-02  0.1068466E+00
          2   -1    0    0  501    0  0.00000000000E+00  0.00000000000E+00  0.18880404722E+04  0.18880404722E+04  0.00000000000E+00 0.  1.
         -2   -1    0    0    0  501 -0.00000000000E+00 -0.00000000000E+00 -0.14958298226E+02  0.14958298226E+02  0.00000000000E+00 0.  1.
         25    1    1    2    0    0  0.65370673406E+01  0.16025919255E+02  0.27765834898E+03  0.30297478789E+03  0.12000000000E+03 0.  0.
         25    1    1    2    0    0 -0.65370673406E+01 -0.16025919255E+02  0.15954238250E+04  0.16000239825E+04  0.12000000000E+03 0.  0.
<mgrwt>
<rscale>  0 0.33610637E+03</rscale>
<asrwt>0</asrwt>
<pdfrwt beam="1">  1        2 0.29046758E+00 0.33610637E+03</pdfrwt>
<pdfrwt beam="2">  1       -2 0.23012781E-02 0.33610637E+03</pdfrwt>
<totfact> 0.53475056E+03</totfact>
</mgrwt>
</event>
<event>
 4    1  0.1672993E-004  0.3052750E+03  0.7818608E-02  0.1082633E+00
          2   -1    0    0  501    0  0.00000000000E+00  0.00000000000E+00  0.46726855755E+03  0.46726855755E+03  0.00000000000E+00 0. -1.
         -2   -1    0    0    0  501 -0.00000000000E+00 -0.00000000000E+00 -0.49860432041E+02  0.49860432041E+02  0.00000000000E+00 0. -1.
         25    1    1    2    0    0 -0.93559489759E+02 -0.10260893677E+02  0.19805110072E+03  0.24996580278E+03  0.12000000000E+03 0.  0.
         25    1    1    2    0    0  0.93559489759E+02  0.10260893677E+02  0.21935702479E+03  0.26716318681E+03  0.12000000000E+03 0.  0.
<mgrwt>
<rscale>  0 0.30527504E+03</rscale>
<asrwt>0</asrwt>
<pdfrwt beam="1">  1        2 0.71887467E-01 0.30527504E+03</pdfrwt>
<pdfrwt beam="2">  1       -2 0.76708360E-02 0.30527504E+03</pdfrwt>
<totfact> 0.67789265E+03</totfact>
</mgrwt>
</event>
<event>
 4    1  0.1672993E-004  0.5097176E+03  0.7818608E-02  0.1011273E+00
          2   -1    0    0  501    0  0.00000000000E+00  0.00000000000E+00  0.65458263313E+02  0.65458263313E+02  0.00000000000E+00 0. -1.
         -2   -1    0    0    0  501 -0.00000000000E+00 -0.00000000000E+00 -0.99228136811E+03  0.99228136811E+03  0.00000000000E+00 0. -1.
         25    1    1    2    0    0 -0.92011107514E+02  0.33496193542E+02 -0.43405569615E+02  0.16084801013E+03  0.12000000000E+03 0.  0.
         25    1    1    2    0    0  0.92011107514E+02 -0.33496193542E+02 -0.88341753519E+03  0.89689162130E+03  0.12000000000E+03 0.  0.
<mgrwt>
<rscale>  0 0.50971763E+03</rscale>
<asrwt>0</asrwt>
<pdfrwt beam="1">  1        2 0.10070502E-01 0.50971763E+03</pdfrwt>
<pdfrwt beam="2">  1       -2 0.15265867E+00 0.50971763E+03</pdfrwt>
<totfact> 0.19177945E+02</totfact>
</mgrwt>
</event>
<event>
 4    1  0.1672993E-004  0.2852274E+03  0.7818608E-02  0.1092868E+00
         -1   -1    0    0    0  501 -0.00000000000E+00  0.00000000000E+00  0.11205854902E+02  0.11205854902E+02  0.00000000000E+00 0.  1.
          1   -1    0    0  501    0  0.00000000000E+00 -0.00000000000E+00 -0.18150033156E+04  0.18150033156E+04  0.00000000000E+00 0.  1.
         25    1    1    2    0    0 -0.24938666245E+02  0.24402766734E+02 -0.13418321680E+04  0.13476390463E+04  0.12000000000E+03 0.  0.
         25    1    1    2    0    0  0.24938666245E+02 -0.24402766734E+02 -0.46196529274E+03  0.47857012422E+03  0.12000000000E+03 0.  0.
<mgrwt>
<rscale>  0 0.28522737E+03</rscale>
<asrwt>0</asrwt>
<pdfrwt beam="1">  1        1 0.27923173E+00 0.28522737E+03</pdfrwt>
<pdfrwt beam="2">  1       -1 0.17239749E-02 0.28522737E+03</pdfrwt>
<totfact> 0.37908072E+03</totfact>
</mgrwt>
</event>
<event>
 4    1  0.1672993E-004  0.2442614E+03  0.7818608E-02  0.1116986E+00
          2   -1    0    0  501    0  0.00000000000E+00  0.00000000000E+00  0.24053430220E+04  0.24053430220E+04  0.00000000000E+00 0. -1.
         -2   -1    0    0    0  501 -0.00000000000E+00 -0.00000000000E+00 -0.62011554821E+01  0.62011554821E+01  0.00000000000E+00 0. -1.
         25    1    1    2    0    0  0.20721406604E+02  0.92097984539E+01  0.11866643902E+04  0.11929319226E+04  0.12000000000E+03 0.  0.
         25    1    1    2    0    0 -0.20721406604E+02 -0.92097984539E+01  0.12124774764E+04  0.12186122549E+04  0.12000000000E+03 0.  0.
<mgrwt>
<rscale>  0 0.24426139E+03</rscale>
<asrwt>0</asrwt>
<pdfrwt beam="1">  1        2 0.37005203E+00 0.24426139E+03</pdfrwt>
<pdfrwt beam="2">  1       -2 0.95402584E-03 0.24426139E+03</pdfrwt>
<totfact> 0.10299043E+04</totfact>
</mgrwt>
</event>
<event>
 4    1  0.1672993E-004  0.6401828E+03  0.7818608E-02  0.9825377E-01
         -2   -1    0    0    0  501 -0.00000000000E+00  0.00000000000E+00  0.45645687814E+02  0.45645687814E+02  0.00000000000E+00 0.  1.
          2   -1    0    0  501    0  0.00000000000E+00 -0.00000000000E+00 -0.22446482027E+04  0.22446482027E+04  0.00000000000E+00 0.  1.
         25    1    1    2    0    0  0.27766709355E+03  0.62659432670E+02 -0.13995325243E+04  0.14332189316E+04  0.12000000000E+03 0.  0.
         25    1    1    2    0    0 -0.27766709355E+03 -0.62659432670E+02 -0.79946999064E+03  0.85707495896E+03  0.12000000000E+03 0.  0.
<mgrwt>
<rscale>  0 0.64018282E+03</rscale>
<asrwt>0</asrwt>
<pdfrwt beam="1">  1        2 0.34533046E+00 0.64018282E+03</pdfrwt>
<pdfrwt beam="2">  1       -2 0.70224141E-02 0.64018282E+03</pdfrwt>
<totfact> 0.61308583E+02</totfact>
</mgrwt>
</event>
<event>
 4    1  0.1672993E-004  0.2971838E+03  0.7818608E-02  0.1086657E+00
         -1   -1    0    0    0  501 -0.00000000000E+00  0.00000000000E+00  0.42816964175E+02  0.42816964175E+02  0.00000000000E+00 0. -1.
          1   -1    0    0  501    0  0.00000000000E+00 -0.00000000000E+00 -0.51567287532E+03  0.51567287532E+03  0.00000000000E+00 0. -1.
         25    1    1    2    0    0 -0.69925346502E+01  0.86566499924E+02 -0.21444023784E+03  0.26062860560E+03  0.12000000000E+03 0.  0.
         25    1    1    2    0    0  0.69925346502E+01 -0.86566499924E+02 -0.25841567330E+03  0.29786123390E+03  0.12000000000E+03 0.  0.
<mgrwt>
<rscale>  0 0.29718376E+03</rscale>
<asrwt>0</asrwt>
<pdfrwt beam="1">  1        1 0.79334292E-01 0.29718376E+03</pdfrwt>
<pdfrwt beam="2">  1       -1 0.65872250E-02 0.29718376E+03</pdfrwt>
<totfact> 0.50146871E+03</totfact>
</mgrwt>
</event>
<event>
 4    1  0.1672993E-004  0.2789508E+03  0.7818608E-02  0.1096263E+00
         -2   -1    0    0    0  501 -0.00000000000E+00  0.00000000000E+00  0.11837747068E+02  0.11837747068E+02  0.00000000000E+00 0.  1.
          2   -1    0    0  501    0  0.00000000000E+00 -0.00000000000E+00 -0.16433348863E+04  0.16433348863E+04  0.00000000000E+00 0.  1.
         25    1    1    2    0    0 -0.83075054566E+01 -0.37090106208E+02 -0.11721920295E+04  0.11789312298E+04  0.12000000000E+03 0.  0.
         25    1    1    2    0    0  0.83075054566E+01  0.37090106208E+02 -0.45930510971E+03  0.47624140353E+03  0.12000000000E+03 0.  0.
<mgrwt>
<rscale>  0 0.27895077E+03</rscale>
<asrwt>0</asrwt>
<pdfrwt beam="1">  1        2 0.25282051E+00 0.27895077E+03</pdfrwt>
<pdfrwt beam="2">  1       -2 0.18211936E-02 0.27895077E+03</pdfrwt>
<totfact> 0.10159988E+04</totfact>
</mgrwt>
</event>
<event>
 4    1  0.1672993E-004  0.2497838E+03  0.7818608E-02  0.1113442E+00
          1   -1    0    0  501    0  0.00000000000E+00  0.00000000000E+00  0.12098572400E+03  0.12098572400E+03  0.00000000000E+00 0. -1.
         -1   -1    0    0    0  501 -0.00000000000E+00 -0.00000000000E+00 -0.12892420403E+03  0.12892420403E+03  0.00000000000E+00 0. -1.
         25    1    1    2    0    0 -0.73617563883E+01 -0.32114692564E+02  0.66398503973E+01  0.12461796238E+03  0.12000000000E+03 0.  0.
         25    1    1    2    0    0  0.73617563883E+01  0.32114692564E+02 -0.14578330429E+02  0.12529196564E+03  0.12000000000E+03 0.  0.
<mgrwt>
<rscale>  0 0.24978381E+03</rscale>
<asrwt>0</asrwt>
<pdfrwt beam="1">  1        1 0.18613188E-01 0.24978381E+03</pdfrwt>
<pdfrwt beam="2">  1       -1 0.19834493E-01 0.24978381E+03</pdfrwt>
<totfact> 0.56611653E+03</totfact>
</mgrwt>
</event>
<event>
 4    1  0.1672993E-004  0.5652946E+03  0.7818608E-02  0.9980145E-01
          2   -1    0    0  501    0  0.00000000000E+00  0.00000000000E+00  0.12879192848E+04  0.12879192848E+04  0.00000000000E+00 0.  1.
         -2   -1    0    0    0  501 -0.00000000000E+00 -0.00000000000E+00 -0.62029892668E+02  0.62029892668E+02  0.00000000000E+00 0.  1.
         25    1    1    2    0    0  0.59150329672E+02 -0.24278877549E+03  0.48118291796E+03  0.55532166493E+03  0.12000000000E+03 0.  0.
         25    1    1    2    0    0 -0.59150329672E+02  0.24278877549E+03  0.74470647414E+03  0.79462751250E+03  0.12000000000E+03 0.  0.
<mgrwt>
<rscale>  0 0.56529460E+03</rscale>
<asrwt>0</asrwt>
<pdfrwt beam="1">  1        2 0.19814141E+00 0.56529460E+03</pdfrwt>
<pdfrwt beam="2">  1       -2 0.95430613E-02 0.56529460E+03</pdfrwt>
<totfact> 0.12617923E+03</totfact>
</mgrwt>
</event>
<event>
 4    1  0.1672993E-004  0.3063701E+03  0.7818608E-02  0.1082099E+00
          3   -1    0    0  501    0  0.00000000000E+00  0.00000000000E+00  0.75166049901E+01  0.75166049901E+01  0.00000000000E+00 0.  1.
         -3   -1    0    0    0  501 -0.00000000000E+00 -0.00000000000E+00 -0.31218432657E+04  0.31218432657E+04  0.00000000000E+00 0.  1.
         25    1    1    2    0    0 -0.56793608635E+02 -0.63041730116E+02 -0.19983800876E+04  0.20037771204E+04  0.12000000000E+03 0.  0.
         25    1    1    2    0    0  0.56793608635E+02  0.63041730116E+02 -0.11159465732E+04  0.11255827503E+04  0.12000000000E+03 0.  0.
<mgrwt>
<rscale>  0 0.30637012E+03</rscale>
<asrwt>0</asrwt>
<pdfrwt beam="1">  1        3 0.11564019E-02 0.30637012E+03</pdfrwt>
<pdfrwt beam="2">  1       -3 0.48028312E+00 0.30637012E+03</pdfrwt>
<totfact> 0.26849638E+01</totfact>
</mgrwt>
</event>
<event>
 4    1  0.1672993E-004  0.2635946E+03  0.7818608E-02  0.1105003E+00
          1   -1    0    0  501    0  0.00000000000E+00  0.00000000000E+00  0.10647960134E+03  0.10647960134E+03  0.00000000000E+00 0.  1.
         -1   -1    0    0    0  501 -0.00000000000E+00 -0.00000000000E+00 -0.16313478206E+03  0.16313478206E+03  0.00000000000E+00 0.  1.
         25    1    1    2    0    0  0.37197383275E+02 -0.36843707553E+02 -0.12834982575E+02  0.13155166622E+03  0.12000000000E+03 0.  0.
         25    1    1    2    0    0 -0.37197383275E+02  0.36843707553E+02 -0.43820198141E+02  0.13806271718E+03  0.12000000000E+03 0.  0.
<mgrwt>
<rscale>  0 0.26359459E+03</rscale>
<asrwt>0</asrwt>
<pdfrwt beam="1">  1        1 0.16381477E-01 0.26359459E+03</pdfrwt>
<pdfrwt beam="2">  1       -1 0.25097659E-01 0.26359459E+03</pdfrwt>
<totfact> 0.45495246E+03</totfact>
</mgrwt>
</event>
<event>
 4    1  0.1672993E-004  0.2966368E+03  0.7818608E-02  0.1086934E+00
          4   -1    0    0  501    0  0.00000000000E+00  0.00000000000E+00  0.17471622123E+03  0.17471622123E+03  0.00000000000E+00 0. -1.
         -4   -1    0    0    0  501 -0.00000000000E+00 -0.00000000000E+00 -0.12590900345E+03  0.12590900345E+03  0.00000000000E+00 0. -1.
         25    1    1    2    0    0  0.51499287373E+01 -0.84861865333E+02  0.43905191240E+02  0.15347874045E+03  0.12000000000E+03 0.  0.
         25    1    1    2    0    0 -0.51499287373E+01  0.84861865333E+02  0.49020265445E+01  0.14714648422E+03  0.12000000000E+03 0.  0.
<mgrwt>
<rscale>  0 0.29663678E+03</rscale>
<asrwt>0</asrwt>
<pdfrwt beam="1">  1        4 0.26879419E-01 0.29663678E+03</pdfrwt>
<pdfrwt beam="2">  1       -4 0.19370616E-01 0.29663678E+03</pdfrwt>
<totfact> 0.59206012E+02</totfact>
</mgrwt>
</event>
<event>
 4    1  0.1672993E-004  0.2491913E+03  0.7818608E-02  0.1113817E+00
          2   -1    0    0  501    0  0.00000000000E+00  0.00000000000E+00  0.87214532318E+03  0.87214532318E+03  0.00000000000E+00 0. -1.
         -2   -1    0    0    0  501 -0.00000000000E+00 -0.00000000000E+00 -0.17799879199E+02  0.17799879199E+02  0.00000000000E+00 0. -1.
         25    1    1    2    0    0 -0.14020078534E+02 -0.50478171257E+01  0.53443396184E+03  0.54794315638E+03  0.12000000000E+03 0.  0.
         25    1    1    2    0    0  0.14020078534E+02  0.50478171257E+01  0.31991148215E+03  0.34200204600E+03  0.12000000000E+03 0.  0.
<mgrwt>
<rscale>  0 0.24919134E+03</rscale>
<asrwt>0</asrwt>
<pdfrwt beam="1">  1        2 0.13417617E+00 0.24919134E+03</pdfrwt>
<pdfrwt beam="2">  1       -2 0.27384436E-02 0.24919134E+03</pdfrwt>
<totfact> 0.15249444E+04</totfact>
</mgrwt>
</event>
<event>
 4    1  0.1672993E-004  0.2602051E+03  0.7818608E-02  0.1107020E+00
          1   -1    0    0  501    0  0.00000000000E+00  0.00000000000E+00  0.10684760958E+03  0.10684760958E+03  0.00000000000E+00 0. -1.
         -1   -1    0    0    0  501 -0.00000000000E+00 -0.00000000000E+00 -0.15841886300E+03  0.15841886300E+03  0.00000000000E+00 0. -1.
         25    1    1    2    0    0 -0.22195705771E+02  0.40416956310E+02 -0.46187319798E+02  0.13659959086E+03  0.12000000000E+03 0.  0.
         25    1    1    2    0    0  0.22195705771E+02 -0.40416956310E+02 -0.53839336213E+01  0.12866688173E+03  0.12000000000E+03 0.  0.
<mgrwt>
<rscale>  0 0.26020513E+03</rscale>
<asrwt>0</asrwt>
<pdfrwt beam="1">  1        1 0.16438094E-01 0.26020513E+03</pdfrwt>
<pdfrwt beam="2">  1       -1 0.24372133E-01 0.26020513E+03</pdfrwt>
<totfact> 0.47529931E+03</totfact>
</mgrwt>
</event>
<event>
 4    1  0.1672993E-004  0.2759890E+03  0.7818608E-02  0.1097900E+00
          2   -1    0    0  501    0  0.00000000000E+00  0.00000000000E+00  0.16771895475E+04  0.16771895475E+04  0.00000000000E+00 0.  1.
         -2   -1    0    0    0  501 -0.00000000000E+00 -0.00000000000E+00 -0.11353805797E+02  0.11353805797E+02  0.00000000000E+00 0.  1.
         25    1    1    2    0    0 -0.52320966564E+02  0.11154097316E+02  0.57475010762E+03  0.58957576581E+03  0.12000000000E+03 0.  0.
         25    1    1    2    0    0  0.52320966564E+02 -0.11154097316E+02  0.10910856341E+04  0.10989675875E+04  0.12000000000E+03 0.  0.
<mgrwt>
<rscale>  0 0.27598902E+03</rscale>
<asrwt>0</asrwt>
<pdfrwt beam="1">  1        2 0.25802896E+00 0.27598902E+03</pdfrwt>
<pdfrwt beam="2">  1       -2 0.17467407E-02 0.27598902E+03</pdfrwt>
<totfact> 0.10364622E+04</totfact>
</mgrwt>
</event>
<event>
 4    1  0.1672993E-004  0.2912193E+03  0.7818608E-02  0.1089714E+00
         -2   -1    0    0    0  501 -0.00000000000E+00  0.00000000000E+00  0.26296893202E+02  0.26296893202E+02  0.00000000000E+00 0.  1.
          2   -1    0    0  501    0  0.00000000000E+00 -0.00000000000E+00 -0.80626118543E+03  0.80626118543E+03  0.00000000000E+00 0.  1.
         25    1    1    2    0    0 -0.38479531507E+02  0.86972233182E+01 -0.59704505342E+03  0.61026151104E+03  0.12000000000E+03 0.  0.
         25    1    1    2    0    0  0.38479531507E+02 -0.86972233182E+01 -0.18291923881E+03  0.22229656759E+03  0.12000000000E+03 0.  0.
<mgrwt>
<rscale>  0 0.29121926E+03</rscale>
<asrwt>0</asrwt>
<pdfrwt beam="1">  1        2 0.12404019E+00 0.29121926E+03</pdfrwt>
<pdfrwt beam="2">  1       -2 0.40456756E-02 0.29121926E+03</pdfrwt>
<totfact> 0.94806275E+03</totfact>
</mgrwt>
</event>
<event>
 4    1  0.1672993E-004  0.3151060E+03  0.7818608E-02  0.1077924E+00
          1   -1    0    0  501    0  0.00000000000E+00  0.00000000000E+00  0.65062040575E+03  0.65062040575E+03  0.00000000000E+00 0.  1.
         -1   -1    0    0    0  501 -0.00000000000E+00 -0.00000000000E+00 -0.38152744470E+02  0.38152744470E+02  0.00000000000E+00 0.  1.
         25    1    1    2    0    0 -0.15920966958E+02 -0.67707905941E+02  0.46959002026E+03  0.48964540726E+03  0.12000000000E+03 0.  0.
         25    1    1    2    0    0  0.15920966958E+02  0.67707905941E+02  0.14287764102E+03  0.19912774297E+03  0.12000000000E+03 0.  0.
<mgrwt>
<rscale>  0 0.31510604E+03</rscale>
<asrwt>0</asrwt>
<pdfrwt beam="1">  1        1 0.10009544E+00 0.31510604E+03</pdfrwt>
<pdfrwt beam="2">  1       -1 0.58696535E-02 0.31510604E+03</pdfrwt>
<totfact> 0.43360379E+03</totfact>
</mgrwt>
</event>
<event>
 4    1  0.1672993E-004  0.2783645E+03  0.7818608E-02  0.1096586E+00
         -2   -1    0    0    0  501 -0.00000000000E+00  0.00000000000E+00  0.17178187054E+02  0.17178187054E+02  0.00000000000E+00 0. -1.
          2   -1    0    0  501    0  0.00000000000E+00 -0.00000000000E+00 -0.11276913251E+04  0.11276913251E+04  0.00000000000E+00 0. -1.
         25    1    1    2    0    0  0.13337070120E+01  0.94442811804E+01 -0.26792448243E+03  0.29372521429E+03  0.12000000000E+03 0.  0.
         25    1    1    2    0    0 -0.13337070120E+01 -0.94442811804E+01 -0.84258865556E+03  0.85114429782E+03  0.12000000000E+03 0.  0.
<mgrwt>
<rscale>  0 0.27836446E+03</rscale>
<asrwt>0</asrwt>
<pdfrwt beam="1">  1        2 0.17349104E+00 0.27836446E+03</pdfrwt>
<pdfrwt beam="2">  1       -2 0.26427970E-02 0.27836446E+03</pdfrwt>
<totfact> 0.11244730E+04</totfact>
</mgrwt>
</event>
<event>
 4    1  0.1672993E-004  0.2527495E+03  0.7818608E-02  0.1111579E+00
         -2   -1    0    0    0  501 -0.00000000000E+00  0.00000000000E+00  0.85646216956E+01  0.85646216956E+01  0.00000000000E+00 0. -1.
          2   -1    0    0  501    0  0.00000000000E+00 -0.00000000000E+00 -0.18647151534E+04  0.18647151534E+04  0.00000000000E+00 0. -1.
         25    1    1    2    0    0  0.96426240610E+01  0.38112518895E+02 -0.89099088852E+03  0.89989460923E+03  0.12000000000E+03 0.  0.
         25    1    1    2    0    0 -0.96426240610E+01 -0.38112518895E+02 -0.96515964318E+03  0.97338516586E+03  0.12000000000E+03 0.  0.
<mgrwt>
<rscale>  0 0.25274952E+03</rscale>
<asrwt>0</asrwt>
<pdfrwt beam="1">  1        2 0.28687943E+00 0.25274952E+03</pdfrwt>
<pdfrwt beam="2">  1       -2 0.13176333E-02 0.25274952E+03</pdfrwt>
<totfact> 0.12455811E+04</totfact>
</mgrwt>
</event>
<event>
 4    1  0.1672993E-004  0.2947704E+03  0.7818608E-02  0.1087884E+00
          2   -1    0    0  501    0  0.00000000000E+00  0.00000000000E+00  0.28862592136E+04  0.28862592136E+04  0.00000000000E+00 0. -1.
         -2   -1    0    0    0  501 -0.00000000000E+00 -0.00000000000E+00 -0.75261441369E+01  0.75261441369E+01  0.00000000000E+00 0. -1.
         25    1    1    2    0    0  0.27166558046E+02  0.76310502088E+02  0.17101984847E+04  0.17163158717E+04  0.12000000000E+03 0.  0.
         25    1    1    2    0    0 -0.27166558046E+02 -0.76310502088E+02  0.11685345848E+04  0.11774694860E+04  0.12000000000E+03 0.  0.
<mgrwt>
<rscale>  0 0.29477044E+03</rscale>
<asrwt>0</asrwt>
<pdfrwt beam="1">  1        2 0.44403900E+00 0.29477044E+03</pdfrwt>
<pdfrwt beam="2">  1       -2 0.11578706E-02 0.29477044E+03</pdfrwt>
<totfact> 0.41796844E+03</totfact>
</mgrwt>
</event>
<event>
 4    1  0.1672993E-004  0.4127563E+03  0.7818608E-02  0.1039450E+00
         -1   -1    0    0    0  501 -0.00000000000E+00  0.00000000000E+00  0.27842800565E+02  0.27842800565E+02  0.00000000000E+00 0.  1.
          1   -1    0    0  501    0  0.00000000000E+00 -0.00000000000E+00 -0.15297291311E+04  0.15297291311E+04  0.00000000000E+00 0.  1.
         25    1    1    2    0    0 -0.20710821915E+02  0.13924284543E+03 -0.10962714465E+04  0.11117682279E+04  0.12000000000E+03 0.  0.
         25    1    1    2    0    0  0.20710821915E+02 -0.13924284543E+03 -0.40561488408E+03  0.44580370382E+03  0.12000000000E+03 0.  0.
<mgrwt>
<rscale>  0 0.41275631E+03</rscale>
<asrwt>0</asrwt>
<pdfrwt beam="1">  1        1 0.23534287E+00 0.41275631E+03</pdfrwt>
<pdfrwt beam="2">  1       -1 0.42835090E-02 0.41275631E+03</pdfrwt>
<totfact> 0.15107189E+03</totfact>
</mgrwt>
</event>
<event>
 4    1  0.1672993E-004  0.2638115E+03  0.7818608E-02  0.1104875E+00
         -1   -1    0    0    0  501 -0.00000000000E+00  0.00000000000E+00  0.17766605943E+02  0.17766605943E+02  0.00000000000E+00 0.  1.
          1   -1    0    0  501    0  0.00000000000E+00 -0.00000000000E+00 -0.97931632358E+03  0.97931632358E+03  0.00000000000E+00 0.  1.
         25    1    1    2    0    0  0.27342300330E+01  0.45374458827E+02 -0.36534077048E+03  0.38722112043E+03  0.12000000000E+03 0.  0.
         25    1    1    2    0    0 -0.27342300330E+01 -0.45374458827E+02 -0.59620894716E+03  0.60986180910E+03  0.12000000000E+03 0.  0.
<mgrwt>
<rscale>  0 0.26381150E+03</rscale>
<asrwt>0</asrwt>
<pdfrwt beam="1">  1        1 0.15066408E+00 0.26381150E+03</pdfrwt>
<pdfrwt beam="2">  1       -1 0.27333234E-02 0.26381150E+03</pdfrwt>
<totfact> 0.71600763E+03</totfact>
</mgrwt>
</event>
<event>
 4    1  0.1672993E-004  0.2847734E+03  0.7818608E-02  0.1093110E+00
          2   -1    0    0  501    0  0.00000000000E+00  0.00000000000E+00  0.85340088361E+03  0.85340088361E+03  0.00000000000E+00 0. -1.
         -2   -1    0    0    0  501 -0.00000000000E+00 -0.00000000000E+00 -0.23756680967E+02  0.23756680967E+02  0.00000000000E+00 0. -1.
         25    1    1    2    0    0  0.65278896194E+02 -0.34423080293E+02  0.47852257017E+03  0.49882876111E+03  0.12000000000E+03 0.  0.
         25    1    1    2    0    0 -0.65278896194E+02  0.34423080293E+02  0.35112163247E+03  0.37832880347E+03  0.12000000000E+03 0.  0.
<mgrwt>
<rscale>  0 0.28477340E+03</rscale>
<asrwt>0</asrwt>
<pdfrwt beam="1">  1        2 0.13129242E+00 0.28477340E+03</pdfrwt>
<pdfrwt beam="2">  1       -2 0.36548746E-02 0.28477340E+03</pdfrwt>
<totfact> 0.10255298E+04</totfact>
</mgrwt>
</event>
<event>
 4    1  0.1672993E-004  0.3415251E+03  0.7818608E-02  0.1066148E+00
         -2   -1    0    0    0  501 -0.00000000000E+00  0.00000000000E+00  0.27806454344E+02  0.27806454344E+02  0.00000000000E+00 0. -1.
          2   -1    0    0  501    0  0.00000000000E+00 -0.00000000000E+00 -0.10486721431E+04  0.10486721431E+04  0.00000000000E+00 0. -1.
         25    1    1    2    0    0  0.12070344968E+02  0.28413167395E+02 -0.88079796298E+03  0.88947065882E+03  0.12000000000E+03 0.  0.
         25    1    1    2    0    0 -0.12070344968E+02 -0.28413167395E+02 -0.14006772582E+03  0.18700793867E+03  0.12000000000E+03 0.  0.
<mgrwt>
<rscale>  0 0.34152513E+03</rscale>
<asrwt>0</asrwt>
<pdfrwt beam="1">  1        2 0.16133419E+00 0.34152513E+03</pdfrwt>
<pdfrwt beam="2">  1       -2 0.42779158E-02 0.34152513E+03</pdfrwt>
<totfact> 0.61102729E+03</totfact>
</mgrwt>
</event>
<event>
 4    1  0.1672993E-004  0.3467088E+03  0.7818608E-02  0.1063974E+00
         -1   -1    0    0    0  501 -0.00000000000E+00  0.00000000000E+00  0.30015106292E+02  0.30015106292E+02  0.00000000000E+00 0. -1.
          1   -1    0    0  501    0  0.00000000000E+00 -0.00000000000E+00 -0.10012208946E+04  0.10012208946E+04  0.00000000000E+00 0. -1.
         25    1    1    2    0    0 -0.43019789169E+02  0.84234221085E+02 -0.72916709975E+03  0.74500386953E+03  0.12000000000E+03 0.  0.
         25    1    1    2    0    0  0.43019789169E+02 -0.84234221085E+02 -0.24203868854E+03  0.28623213134E+03  0.12000000000E+03 0.  0.
<mgrwt>
<rscale>  0 0.34670882E+03</rscale>
<asrwt>0</asrwt>
<pdfrwt beam="1">  1        1 0.15403400E+00 0.34670882E+03</pdfrwt>
<pdfrwt beam="2">  1       -1 0.46177083E-02 0.34670882E+03</pdfrwt>
<totfact> 0.31735077E+03</totfact>
</mgrwt>
</event>
<event>
 4    1  0.1672993E-004  0.2772841E+03  0.7818608E-02  0.1097182E+00
          2   -1    0    0  501    0  0.00000000000E+00  0.00000000000E+00  0.38992752912E+02  0.38992752912E+02  0.00000000000E+00 0. -1.
         -2   -1    0    0    0  501 -0.00000000000E+00 -0.00000000000E+00 -0.49295346011E+03  0.49295346011E+03  0.00000000000E+00 0. -1.
         25    1    1    2    0    0  0.15488944058E+02  0.13825429130E+02 -0.99863567655E+02  0.15749216496E+03  0.12000000000E+03 0.  0.
         25    1    1    2    0    0 -0.15488944058E+02 -0.13825429130E+02 -0.35409713954E+03  0.37445404806E+03  0.12000000000E+03 0.  0.
<mgrwt>
<rscale>  0 0.27728406E+03</rscale>
<asrwt>0</asrwt>
<pdfrwt beam="1">  1        2 0.59988851E-02 0.27728406E+03</pdfrwt>
<pdfrwt beam="2">  1       -2 0.75838993E-01 0.27728406E+03</pdfrwt>
<totfact> 0.19769648E+03</totfact>
</mgrwt>
</event>
<event>
 4    1  0.1672993E-004  0.2572601E+03  0.7818608E-02  0.1108801E+00
         -1   -1    0    0    0  501 -0.00000000000E+00  0.00000000000E+00  0.14896214509E+03  0.14896214509E+03  0.00000000000E+00 0. -1.
          1   -1    0    0  501    0  0.00000000000E+00 -0.00000000000E+00 -0.11107308519E+03  0.11107308519E+03  0.00000000000E+00 0. -1.
         25    1    1    2    0    0 -0.38499302512E+01  0.23649947636E+00 -0.27714090159E+02  0.12321910845E+03  0.12000000000E+03 0.  0.
         25    1    1    2    0    0  0.38499302512E+01 -0.23649947636E+00  0.65603150052E+02  0.13681612183E+03  0.12000000000E+03 0.  0.
<mgrwt>
<rscale>  0 0.25726006E+03</rscale>
<asrwt>0</asrwt>
<pdfrwt beam="1">  1        1 0.17088167E-01 0.25726006E+03</pdfrwt>
<pdfrwt beam="2">  1       -1 0.22917253E-01 0.25726006E+03</pdfrwt>
<totfact> 0.50004786E+03</totfact>
</mgrwt>
</event>
<event>
 4    1  0.1672993E-004  0.2703717E+03  0.7818608E-02  0.1101067E+00
          2   -1    0    0  501    0  0.00000000000E+00  0.00000000000E+00  0.51269327719E+03  0.51269327719E+03  0.00000000000E+00 0.  1.
         -2   -1    0    0    0  501 -0.00000000000E+00 -0.00000000000E+00 -0.35645512362E+02  0.35645512362E+02  0.00000000000E+00 0.  1.
         25    1    1    2    0    0 -0.51913897058E+02 -0.17231522128E+02  0.29879735758E+03  0.32660655070E+03  0.12000000000E+03 0.  0.
         25    1    1    2    0    0  0.51913897058E+02  0.17231522128E+02  0.17825040725E+03  0.22173223885E+03  0.12000000000E+03 0.  0.
<mgrwt>
<rscale>  0 0.27037170E+03</rscale>
<asrwt>0</asrwt>
<pdfrwt beam="1">  1        2 0.78875883E-01 0.27037170E+03</pdfrwt>
<pdfrwt beam="2">  1       -2 0.54839254E-02 0.27037170E+03</pdfrwt>
<totfact> 0.10216784E+04</totfact>
</mgrwt>
</event>
<event>
 4    1  0.1672993E-004  0.3930319E+03  0.7818608E-02  0.1046220E+00
         -2   -1    0    0    0  501 -0.00000000000E+00  0.00000000000E+00  0.14669382579E+02  0.14669382579E+02  0.00000000000E+00 0. -1.
          2   -1    0    0  501    0  0.00000000000E+00 -0.00000000000E+00 -0.26325934477E+04  0.26325934477E+04  0.00000000000E+00 0. -1.
         25    1    1    2    0    0 -0.20577344929E+02 -0.68706353448E+02 -0.22392045324E+04  0.22435643357E+04  0.12000000000E+03 0.  0.
         25    1    1    2    0    0  0.20577344929E+02  0.68706353448E+02 -0.37871953272E+03  0.40369849466E+03  0.12000000000E+03 0.  0.
<mgrwt>
<rscale>  0 0.39303191E+03</rscale>
<asrwt>0</asrwt>
<pdfrwt beam="1">  1        2 0.40501458E+00 0.39303191E+03</pdfrwt>
<pdfrwt beam="2">  1       -2 0.22568269E-02 0.39303191E+03</pdfrwt>
<totfact> 0.21666562E+03</totfact>
</mgrwt>
</event>
<event>
 4    1  0.1672993E-004  0.2596206E+03  0.7818608E-02  0.1107371E+00
          2   -1    0    0  501    0  0.00000000000E+00  0.00000000000E+00  0.11732910336E+04  0.11732910336E+04  0.00000000000E+00 0. -1.
         -2   -1    0    0    0  501 -0.00000000000E+00 -0.00000000000E+00 -0.14361918728E+02  0.14361918728E+02  0.00000000000E+00 0. -1.
         25    1    1    2    0    0 -0.96093953161E+01  0.16680715048E+02  0.78810333693E+03  0.79741924758E+03  0.12000000000E+03 0.  0.
         25    1    1    2    0    0  0.96093953161E+01 -0.16680715048E+02  0.37082577792E+03  0.39023370473E+03  0.12000000000E+03 0.  0.
<mgrwt>
<rscale>  0 0.25962057E+03</rscale>
<asrwt>0</asrwt>
<pdfrwt beam="1">  1        2 0.18050624E+00 0.25962057E+03</pdfrwt>
<pdfrwt beam="2">  1       -2 0.22095269E-02 0.25962057E+03</pdfrwt>
<totfact> 0.13760924E+04</totfact>
</mgrwt>
</event>
<event>
 4    1  0.1672993E-004  0.2616211E+03  0.7818608E-02  0.1106173E+00
         -2   -1    0    0    0  501 -0.00000000000E+00  0.00000000000E+00  0.52701626125E+01  0.52701626125E+01  0.00000000000E+00 0. -1.
          2   -1    0    0  501    0  0.00000000000E+00 -0.00000000000E+00 -0.32468458856E+04  0.32468458856E+04  0.00000000000E+00 0. -1.
         25    1    1    2    0    0 -0.34339676050E+02 -0.35775865274E+02 -0.18182275809E+04  0.18228578282E+04  0.12000000000E+03 0.  0.
         25    1    1    2    0    0  0.34339676050E+02  0.35775865274E+02 -0.14233481421E+04  0.14292582200E+04  0.12000000000E+03 0.  0.
<mgrwt>
<rscale>  0 0.26162114E+03</rscale>
<asrwt>0</asrwt>
<pdfrwt beam="1">  1        2 0.49951470E+00 0.26162114E+03</pdfrwt>
<pdfrwt beam="2">  1       -2 0.81079433E-03 0.26162114E+03</pdfrwt>
<totfact> 0.42685822E+03</totfact>
</mgrwt>
</event>
<event>
 4    1  0.1672993E-004  0.2637037E+03  0.7818608E-02  0.1104938E+00
         -2   -1    0    0    0  501 -0.00000000000E+00  0.00000000000E+00  0.43657447482E+02  0.43657447482E+02  0.00000000000E+00 0. -1.
          2   -1    0    0  501    0  0.00000000000E+00 -0.00000000000E+00 -0.39821172711E+03  0.39821172711E+03  0.00000000000E+00 0. -1.
         25    1    1    2    0    0 -0.17519637930E+01  0.51903671441E+02 -0.14884834631E+03  0.19812342286E+03  0.12000000000E+03 0.  0.
         25    1    1    2    0    0  0.17519637930E+01 -0.51903671441E+02 -0.20570593333E+03  0.24374575174E+03  0.12000000000E+03 0.  0.
<mgrwt>
<rscale>  0 0.26370368E+03</rscale>
<asrwt>0</asrwt>
<pdfrwt beam="1">  1        2 0.61263343E-01 0.26370368E+03</pdfrwt>
<pdfrwt beam="2">  1       -2 0.67165304E-02 0.26370368E+03</pdfrwt>
<totfact> 0.98783196E+03</totfact>
</mgrwt>
</event>
<event>
 4    1  0.1672993E-004  0.2619546E+03  0.7818608E-02  0.1105975E+00
          2   -1    0    0  501    0  0.00000000000E+00  0.00000000000E+00  0.19950452597E+04  0.19950452597E+04  0.00000000000E+00 0.  1.
         -2   -1    0    0    0  501 -0.00000000000E+00 -0.00000000000E+00 -0.85988289863E+01  0.85988289863E+01  0.00000000000E+00 0.  1.
         25    1    1    2    0    0 -0.23991919542E+02 -0.43079469241E+02  0.11308170261E+04  0.11382348612E+04  0.12000000000E+03 0.  0.
         25    1    1    2    0    0  0.23991919542E+02  0.43079469241E+02  0.85562940469E+03  0.86540922750E+03  0.12000000000E+03 0.  0.
<mgrwt>
<rscale>  0 0.26195460E+03</rscale>
<asrwt>0</asrwt>
<pdfrwt beam="1">  1        2 0.30692967E+00 0.26195460E+03</pdfrwt>
<pdfrwt beam="2">  1       -2 0.13228984E-02 0.26195460E+03</pdfrwt>
<totfact> 0.10588496E+04</totfact>
</mgrwt>
</event>
<event>
 4    1  0.1672993E-004  0.3438490E+03  0.7818608E-02  0.1065168E+00
         -2   -1    0    0    0  501 -0.00000000000E+00  0.00000000000E+00  0.52443795030E+02  0.52443795030E+02  0.00000000000E+00 0. -1.
          2   -1    0    0  501    0  0.00000000000E+00 -0.00000000000E+00 -0.56361350598E+03  0.56361350598E+03  0.00000000000E+00 0. -1.
         25    1    1    2    0    0  0.74501690554E+02 -0.58038284901E+02 -0.11406614108E+03  0.19060437810E+03  0.12000000000E+03 0.  0.
         25    1    1    2    0    0 -0.74501690554E+02  0.58038284901E+02 -0.39710356987E+03  0.42545292291E+03  0.12000000000E+03 0.  0.
<mgrwt>
<rscale>  0 0.34384899E+03</rscale>
<asrwt>0</asrwt>
<pdfrwt beam="1">  1        2 0.86709769E-01 0.34384899E+03</pdfrwt>
<pdfrwt beam="2">  1       -2 0.80682762E-02 0.34384899E+03</pdfrwt>
<totfact> 0.50814612E+03</totfact>
</mgrwt>
</event>
<event>
 4    1  0.1672993E-004  0.2662965E+03  0.7818608E-02  0.1103418E+00
          2   -1    0    0  501    0  0.00000000000E+00  0.00000000000E+00  0.23367117596E+04  0.23367117596E+04  0.00000000000E+00 0. -1.
         -2   -1    0    0    0  501 -0.00000000000E+00 -0.00000000000E+00 -0.75869263638E+01  0.75869263638E+01  0.00000000000E+00 0. -1.
         25    1    1    2    0    0 -0.20811050525E+02  0.45746317758E+02  0.91515670691E+03  0.92435795210E+03  0.12000000000E+03 0.  0.
         25    1    1    2    0    0  0.20811050525E+02 -0.45746317758E+02  0.14139681263E+04  0.14199407338E+04  0.12000000000E+03 0.  0.
<mgrwt>
<rscale>  0 0.26629653E+03</rscale>
<asrwt>0</asrwt>
<pdfrwt beam="1">  1        2 0.35949355E+00 0.26629653E+03</pdfrwt>
<pdfrwt beam="2">  1       -2 0.11672213E-02 0.26629653E+03</pdfrwt>
<totfact> 0.83728653E+03</totfact>
</mgrwt>
</event>
<event>
 4    1  0.1672993E-004  0.2575468E+03  0.7818608E-02  0.1108626E+00
          2   -1    0    0  501    0  0.00000000000E+00  0.00000000000E+00  0.16067478595E+03  0.16067478595E+03  0.00000000000E+00 0. -1.
         -2   -1    0    0    0  501 -0.00000000000E+00 -0.00000000000E+00 -0.10320593331E+03  0.10320593331E+03  0.00000000000E+00 0. -1.
         25    1    1    2    0    0  0.16394418446E+02 -0.37970958136E+01 -0.15919460286E+02  0.12221548228E+03  0.12000000000E+03 0.  0.
         25    1    1    2    0    0 -0.16394418446E+02  0.37970958136E+01  0.73388312932E+02  0.14166523698E+03  0.12000000000E+03 0.  0.
<mgrwt>
<rscale>  0 0.25754682E+03</rscale>
<asrwt>0</asrwt>
<pdfrwt beam="1">  1        2 0.24719198E-01 0.25754682E+03</pdfrwt>
<pdfrwt beam="2">  1       -2 0.15877836E-01 0.25754682E+03</pdfrwt>
<totfact> 0.67024528E+03</totfact>
</mgrwt>
</event>
<event>
 4    1  0.1672993E-004  0.3258445E+03  0.7818608E-02  0.1072991E+00
          1   -1    0    0  501    0  0.00000000000E+00  0.00000000000E+00  0.86918662106E+02  0.86918662106E+02  0.00000000000E+00 0. -1.
         -1   -1    0    0    0  501 -0.00000000000E+00 -0.00000000000E+00 -0.30538497626E+03  0.30538497626E+03  0.00000000000E+00 0. -1.
         25    1    1    2    0    0 -0.80896836973E+02 -0.35423614340E+02 -0.18858975379E+03  0.24034397417E+03  0.12000000000E+03 0.  0.
         25    1    1    2    0    0  0.80896836973E+02  0.35423614340E+02 -0.29876560372E+02  0.15195966420E+03  0.12000000000E+03 0.  0.
<mgrwt>
<rscale>  0 0.32584446E+03</rscale>
<asrwt>0</asrwt>
<pdfrwt beam="1">  1        1 0.13372102E-01 0.32584446E+03</pdfrwt>
<pdfrwt beam="2">  1       -1 0.46982304E-01 0.32584446E+03</pdfrwt>
<totfact> 0.20054535E+03</totfact>
</mgrwt>
</event>
<event>
 4    1  0.1672993E-004  0.3131422E+03  0.7818608E-02  0.1078849E+00
          1   -1    0    0  501    0  0.00000000000E+00  0.00000000000E+00  0.12741961793E+04  0.12741961793E+04  0.00000000000E+00 0. -1.
         -1   -1    0    0    0  501 -0.00000000000E+00 -0.00000000000E+00 -0.19239199272E+02  0.19239199272E+02  0.00000000000E+00 0. -1.
         25    1    1    2    0    0 -0.16373712730E+01  0.17000360475E+02  0.21810359249E+03  0.24952128225E+03  0.12000000000E+03 0.  0.
         25    1    1    2    0    0  0.16373712730E+01 -0.17000360475E+02  0.10368533875E+04  0.10439140963E+04  0.12000000000E+03 0.  0.
<mgrwt>
<rscale>  0 0.31314223E+03</rscale>
<asrwt>0</asrwt>
<pdfrwt beam="1">  1        1 0.19603012E+00 0.31314223E+03</pdfrwt>
<pdfrwt beam="2">  1       -1 0.29598778E-02 0.31314223E+03</pdfrwt>
<totfact> 0.39196482E+03</totfact>
</mgrwt>
</event>
<event>
 4    1  0.1672993E-004  0.2414862E+03  0.7818608E-02  0.1118807E+00
          1   -1    0    0  501    0  0.00000000000E+00  0.00000000000E+00  0.19257110523E+03  0.19257110523E+03  0.00000000000E+00 0.  1.
         -1   -1    0    0    0  501 -0.00000000000E+00 -0.00000000000E+00 -0.75706566003E+02  0.75706566003E+02  0.00000000000E+00 0.  1.
         25    1    1    2    0    0  0.10472231535E+02 -0.78989127423E+01  0.55527489181E+02  0.13287348310E+03  0.12000000000E+03 0.  0.
         25    1    1    2    0    0 -0.10472231535E+02  0.78989127423E+01  0.61337050043E+02  0.13540418813E+03  0.12000000000E+03 0.  0.
<mgrwt>
<rscale>  0 0.24148621E+03</rscale>
<asrwt>0</asrwt>
<pdfrwt beam="1">  1        1 0.29626324E-01 0.24148621E+03</pdfrwt>
<pdfrwt beam="2">  1       -1 0.11647164E-01 0.24148621E+03</pdfrwt>
<totfact> 0.72737725E+03</totfact>
</mgrwt>
</event>
<event>
 4    1  0.1672993E-004  0.2811234E+03  0.7818608E-02  0.1095077E+00
          4   -1    0    0  501    0  0.00000000000E+00  0.00000000000E+00  0.26713201677E+02  0.26713201677E+02  0.00000000000E+00 0.  1.
         -4   -1    0    0    0  501 -0.00000000000E+00 -0.00000000000E+00 -0.73961885642E+03  0.73961885642E+03  0.00000000000E+00 0.  1.
         25    1    1    2    0    0  0.70636415527E+02  0.19168568702E+02 -0.35425432306E+03  0.38112079795E+03  0.12000000000E+03 0.  0.
         25    1    1    2    0    0 -0.70636415527E+02 -0.19168568702E+02 -0.35865133168E+03  0.38521126014E+03  0.12000000000E+03 0.  0.
<mgrwt>
<rscale>  0 0.28112337E+03</rscale>
<asrwt>0</asrwt>
<pdfrwt beam="1">  1        4 0.41097232E-02 0.28112337E+03</pdfrwt>
<pdfrwt beam="2">  1       -4 0.11378752E+00 0.28112337E+03</pdfrwt>
<totfact> 0.38641248E+02</totfact>
</mgrwt>
</event>
<event>
 4    1  0.1672993E-004  0.5450070E+03  0.7818608E-02  0.1002656E+00
         -3   -1    0    0    0  501 -0.00000000000E+00  0.00000000000E+00  0.37263338929E+03  0.37263338929E+03  0.00000000000E+00 0. -1.
          3   -1    0    0  501    0  0.00000000000E+00 -0.00000000000E+00 -0.19927938918E+03  0.19927938918E+03  0.00000000000E+00 0. -1.
         25    1    1    2    0    0  0.24098560731E+02  0.23382103469E+03  0.15465682432E+02  0.26437133776E+03  0.12000000000E+03 0.  0.
         25    1    1    2    0    0 -0.24098560731E+02 -0.23382103469E+03  0.15788831767E+03  0.30754144071E+03  0.12000000000E+03 0.  0.
<mgrwt>
<rscale>  0 0.54500699E+03</rscale>
<asrwt>0</asrwt>
<pdfrwt beam="1">  1        3 0.30658368E-01 0.54500699E+03</pdfrwt>
<pdfrwt beam="2">  1       -3 0.57328214E-01 0.54500699E+03</pdfrwt>
<totfact> 0.81374767E+01</totfact>
</mgrwt>
</event>
<event>
 4    1  0.1672993E-004  0.3226204E+03  0.7818608E-02  0.1074450E+00
         -1   -1    0    0    0  501 -0.00000000000E+00  0.00000000000E+00  0.77485282169E+02  0.77485282169E+02  0.00000000000E+00 0.  1.
          1   -1    0    0  501    0  0.00000000000E+00 -0.00000000000E+00 -0.33581838552E+03  0.33581838552E+03  0.00000000000E+00 0.  1.
         25    1    1    2    0    0 -0.31999148122E+02 -0.10141787113E+03 -0.10655797683E+03  0.19252047292E+03  0.12000000000E+03 0.  0.
         25    1    1    2    0    0  0.31999148122E+02  0.10141787113E+03 -0.15177512651E+03  0.22078319477E+03  0.12000000000E+03 0.  0.
<mgrwt>
<rscale>  0 0.32262041E+03</rscale>
<asrwt>0</asrwt>
<pdfrwt beam="1">  1        1 0.51664368E-01 0.32262041E+03</pdfrwt>
<pdfrwt beam="2">  1       -1 0.11920812E-01 0.32262041E+03</pdfrwt>
<totfact> 0.35149055E+03</totfact>
</mgrwt>
</event>
<event>
 4    1  0.1672993E-004  0.3682892E+03  0.7818608E-02  0.1055349E+00
          1   -1    0    0  501    0  0.00000000000E+00  0.00000000000E+00  0.79419116229E+03  0.79419116229E+03  0.00000000000E+00 0.  1.
         -1   -1    0    0    0  501 -0.00000000000E+00 -0.00000000000E+00 -0.42696559763E+02  0.42696559763E+02  0.00000000000E+00 0.  1.
         25    1    1    2    0    0 -0.12660541156E+03 -0.47802957621E+02  0.29718857638E+03  0.34790099586E+03  0.12000000000E+03 0.  0.
         25    1    1    2    0    0  0.12660541156E+03  0.47802957621E+02  0.45430602615E+03  0.48898672619E+03  0.12000000000E+03 0.  0.
<mgrwt>
<rscale>  0 0.36828918E+03</rscale>
<asrwt>0</asrwt>
<pdfrwt beam="1">  1        1 0.12218325E+00 0.36828918E+03</pdfrwt>
<pdfrwt beam="2">  1       -1 0.65687021E-02 0.36828918E+03</pdfrwt>
<totfact> 0.27213940E+03</totfact>
</mgrwt>
</event>
<event>
 4    1  0.1672993E-004  0.2976549E+03  0.7818608E-02  0.1086419E+00
          3   -1    0    0  501    0  0.00000000000E+00  0.00000000000E+00  0.68354125044E+02  0.68354125044E+02  0.00000000000E+00 0. -1.
         -3   -1    0    0    0  501 -0.00000000000E+00 -0.00000000000E+00 -0.32404192916E+03  0.32404192916E+03  0.00000000000E+00 0. -1.
         25    1    1    2    0    0  0.21728751126E+02  0.74466540156E+02 -0.18271080840E+03  0.23194965776E+03  0.12000000000E+03 0.  0.
         25    1    1    2    0    0 -0.21728751126E+02 -0.74466540156E+02 -0.72976995714E+02  0.16044639644E+03  0.12000000000E+03 0.  0.
<mgrwt>
<rscale>  0 0.29765485E+03</rscale>
<asrwt>0</asrwt>
<pdfrwt beam="1">  1        3 0.10516019E-01 0.29765485E+03</pdfrwt>
<pdfrwt beam="2">  1       -3 0.49852605E-01 0.29765485E+03</pdfrwt>
<totfact> 0.69796733E+02</totfact>
</mgrwt>
</event>
<event>
 4    1  0.1672993E-004  0.3398768E+03  0.7818608E-02  0.1066848E+00
          1   -1    0    0  501    0  0.00000000000E+00  0.00000000000E+00  0.19135660127E+03  0.19135660127E+03  0.00000000000E+00 0. -1.
         -1   -1    0    0    0  501 -0.00000000000E+00 -0.00000000000E+00 -0.15091753657E+03  0.15091753657E+03  0.00000000000E+00 0. -1.
         25    1    1    2    0    0  0.52679918188E+02  0.40261313357E+02 -0.80902471339E+02  0.15918968874E+03  0.12000000000E+03 0.  0.
         25    1    1    2    0    0 -0.52679918188E+02 -0.40261313357E+02  0.12134153604E+03  0.18308444910E+03  0.12000000000E+03 0.  0.
<mgrwt>
<rscale>  0 0.33987684E+03</rscale>
<asrwt>0</asrwt>
<pdfrwt beam="1">  1        1 0.29439477E-01 0.33987684E+03</pdfrwt>
<pdfrwt beam="2">  1       -1 0.23218082E-01 0.33987684E+03</pdfrwt>
<totfact> 0.24512615E+03</totfact>
</mgrwt>
</event>
<event>
 4    1  0.1672993E-004  0.3450289E+03  0.7818608E-02  0.1064674E+00
          2   -1    0    0  501    0  0.00000000000E+00  0.00000000000E+00  0.47699847534E+03  0.47699847534E+03  0.00000000000E+00 0. -1.
         -2   -1    0    0    0  501 -0.00000000000E+00 -0.00000000000E+00 -0.62392736367E+02  0.62392736367E+02  0.00000000000E+00 0. -1.
         25    1    1    2    0    0  0.11848477258E+03  0.31918693854E+02  0.23455115737E+03  0.29064013793E+03  0.12000000000E+03 0.  0.
         25    1    1    2    0    0 -0.11848477258E+03 -0.31918693854E+02  0.18005458160E+03  0.24875107378E+03  0.12000000000E+03 0.  0.
<mgrwt>
<rscale>  0 0.34502893E+03</rscale>
<asrwt>0</asrwt>
<pdfrwt beam="1">  1        2 0.73384379E-01 0.34502893E+03</pdfrwt>
<pdfrwt beam="2">  1       -2 0.95988828E-02 0.34502893E+03</pdfrwt>
<totfact> 0.46662946E+03</totfact>
</mgrwt>
</event>
<event>
 4    1  0.1672993E-004  0.3014449E+03  0.7818608E-02  0.1084521E+00
          2   -1    0    0  501    0  0.00000000000E+00  0.00000000000E+00  0.18520663358E+04  0.18520663358E+04  0.00000000000E+00 0.  1.
         -2   -1    0    0    0  501 -0.00000000000E+00 -0.00000000000E+00 -0.12265897784E+02  0.12265897784E+02  0.00000000000E+00 0.  1.
         25    1    1    2    0    0 -0.84562465057E+02 -0.29795209741E+02  0.81665329689E+03  0.83027776818E+03  0.12000000000E+03 0.  0.
         25    1    1    2    0    0  0.84562465057E+02  0.29795209741E+02  0.10231471411E+04  0.10340544654E+04  0.12000000000E+03 0.  0.
<mgrwt>
<rscale>  0 0.30144490E+03</rscale>
<asrwt>0</asrwt>
<pdfrwt beam="1">  1        2 0.28493306E+00 0.30144490E+03</pdfrwt>
<pdfrwt beam="2">  1       -2 0.18870627E-02 0.30144490E+03</pdfrwt>
<totfact> 0.74913704E+03</totfact>
</mgrwt>
</event>
<event>
 4    1  0.1672993E-004  0.4067432E+03  0.7818608E-02  0.1041469E+00
          2   -1    0    0  501    0  0.00000000000E+00  0.00000000000E+00  0.89168176082E+03  0.89168176082E+03  0.00000000000E+00 0. -1.
         -2   -1    0    0    0  501 -0.00000000000E+00 -0.00000000000E+00 -0.46384261308E+02  0.46384261308E+02  0.00000000000E+00 0. -1.
         25    1    1    2    0    0  0.65356817783E+02  0.64829444702E+02  0.73621568796E+03  0.75159025388E+03  0.12000000000E+03 0.  0.
         25    1    1    2    0    0 -0.65356817783E+02 -0.64829444702E+02  0.10908181155E+03  0.18647576824E+03  0.12000000000E+03 0.  0.
<mgrwt>
<rscale>  0 0.40674316E+03</rscale>
<asrwt>0</asrwt>
<pdfrwt beam="1">  1        2 0.13718180E+00 0.40674316E+03</pdfrwt>
<pdfrwt beam="2">  1       -2 0.71360409E-02 0.40674316E+03</pdfrwt>
<totfact> 0.34950886E+03</totfact>
</mgrwt>
</event>
<event>
 4    1  0.1672993E-004  0.3846303E+03  0.7818608E-02  0.1049236E+00
          2   -1    0    0  501    0  0.00000000000E+00  0.00000000000E+00  0.13710490012E+04  0.13710490012E+04  0.00000000000E+00 0.  1.
         -2   -1    0    0    0  501 -0.00000000000E+00 -0.00000000000E+00 -0.26975783948E+02  0.26975783948E+02  0.00000000000E+00 0.  1.
         25    1    1    2    0    0 -0.74637275658E+02  0.12335248197E+03  0.51788988893E+03  0.55081439231E+03  0.12000000000E+03 0.  0.
         25    1    1    2    0    0  0.74637275658E+02 -0.12335248197E+03  0.82618332836E+03  0.84721039287E+03  0.12000000000E+03 0.  0.
<mgrwt>
<rscale>  0 0.38463032E+03</rscale>
<asrwt>0</asrwt>
<pdfrwt beam="1">  1        2 0.21093056E+00 0.38463032E+03</pdfrwt>
<pdfrwt beam="2">  1       -2 0.41501217E-02 0.38463032E+03</pdfrwt>
<totfact> 0.41780943E+03</totfact>
</mgrwt>
</event>
<event>
 4    1  0.1672993E-004  0.3021027E+03  0.7818608E-02  0.1084194E+00
          1   -1    0    0  501    0  0.00000000000E+00  0.00000000000E+00  0.16432036554E+02  0.16432036554E+02  0.00000000000E+00 0.  1.
         -1   -1    0    0    0  501 -0.00000000000E+00 -0.00000000000E+00 -0.13885379308E+04  0.13885379308E+04  0.00000000000E+00 0.  1.
         25    1    1    2    0    0  0.69525640363E+02  0.79583282329E+01 -0.41015777648E+03  0.43304335956E+03  0.12000000000E+03 0.  0.
         25    1    1    2    0    0 -0.69525640363E+02 -0.79583282329E+01 -0.96194811777E+03  0.97192660780E+03  0.12000000000E+03 0.  0.
<mgrwt>
<rscale>  0 0.30210267E+03</rscale>
<asrwt>0</asrwt>
<pdfrwt beam="1">  1        1 0.25280048E-02 0.30210267E+03</pdfrwt>
<pdfrwt beam="2">  1       -1 0.21362129E+00 0.30210267E+03</pdfrwt>
<totfact> 0.58931440E+02</totfact>
</mgrwt>
</event>
<event>
 4    1  0.1672993E-004  0.4793036E+03  0.7818608E-02  0.1019327E+00
          2   -1    0    0  501    0  0.00000000000E+00  0.00000000000E+00  0.49820985787E+03  0.49820985787E+03  0.00000000000E+00 0. -1.
         -2   -1    0    0    0  501 -0.00000000000E+00 -0.00000000000E+00 -0.11527869524E+03  0.11527869524E+03  0.00000000000E+00 0. -1.
         25    1    1    2    0    0 -0.91539417794E+02  0.72358165336E+02 -0.28068007555E+02  0.16971441350E+03  0.12000000000E+03 0.  0.
         25    1    1    2    0    0  0.91539417794E+02 -0.72358165336E+02  0.41099917018E+03  0.44377413961E+03  0.12000000000E+03 0.  0.
<mgrwt>
<rscale>  0 0.47930359E+03</rscale>
<asrwt>0</asrwt>
<pdfrwt beam="1">  1        2 0.76647669E-01 0.47930359E+03</pdfrwt>
<pdfrwt beam="2">  1       -2 0.17735184E-01 0.47930359E+03</pdfrwt>
<totfact> 0.16230102E+03</totfact>
</mgrwt>
</event>
<event>
 4    1  0.1672993E-004  0.3649871E+03  0.7818608E-02  0.1056626E+00
          1   -1    0    0  501    0  0.00000000000E+00  0.00000000000E+00  0.58993390114E+03  0.58993390114E+03  0.00000000000E+00 0.  1.
         -1   -1    0    0    0  501 -0.00000000000E+00 -0.00000000000E+00 -0.56453601326E+02  0.56453601326E+02  0.00000000000E+00 0.  1.
         25    1    1    2    0    0 -0.24451363542E+02 -0.54753902330E+02  0.47623608052E+02  0.14235121019E+03  0.12000000000E+03 0.  0.
         25    1    1    2    0    0  0.24451363542E+02  0.54753902330E+02  0.48585669176E+03  0.50403629227E+03  0.12000000000E+03 0.  0.
<mgrwt>
<rscale>  0 0.36498709E+03</rscale>
<asrwt>0</asrwt>
<pdfrwt beam="1">  1        1 0.90759057E-01 0.36498709E+03</pdfrwt>
<pdfrwt beam="2">  1       -1 0.86851699E-02 0.36498709E+03</pdfrwt>
<totfact> 0.27411800E+03</totfact>
</mgrwt>
</event>
<event>
 4    1  0.1672993E-004  0.3031781E+03  0.7818608E-02  0.1083663E+00
         -2   -1    0    0    0  501 -0.00000000000E+00  0.00000000000E+00  0.15712073142E+04  0.15712073142E+04  0.00000000000E+00 0.  1.
          2   -1    0    0  501    0  0.00000000000E+00 -0.00000000000E+00 -0.14625210721E+02  0.14625210721E+02  0.00000000000E+00 0.  1.
         25    1    1    2    0    0 -0.55582253202E+02 -0.14905139471E+02  0.11579289280E+04  0.11655517802E+04  0.12000000000E+03 0.  0.
         25    1    1    2    0    0  0.55582253202E+02  0.14905139471E+02  0.39865317547E+03  0.42028074470E+03  0.12000000000E+03 0.  0.
<mgrwt>
<rscale>  0 0.30317809E+03</rscale>
<asrwt>0</asrwt>
<pdfrwt beam="1">  1        2 0.22500337E-02 0.30317809E+03</pdfrwt>
<pdfrwt beam="2">  1       -2 0.24172407E+00 0.30317809E+03</pdfrwt>
<totfact> 0.37362108E+02</totfact>
</mgrwt>
</event>
<event>
 4    1  0.1672993E-004  0.2481204E+03  0.7818608E-02  0.1114498E+00
          3   -1    0    0  501    0  0.00000000000E+00  0.00000000000E+00  0.13173538707E+02  0.13173538707E+02  0.00000000000E+00 0. -1.
         -3   -1    0    0    0  501 -0.00000000000E+00 -0.00000000000E+00 -0.11683221629E+04  0.11683221629E+04  0.00000000000E+00 0. -1.
         25    1    1    2    0    0 -0.30880403573E+01  0.31216104961E+02 -0.56501544610E+03  0.57846904458E+03  0.12000000000E+03 0.  0.
         25    1    1    2    0    0  0.30880403573E+01 -0.31216104961E+02 -0.59013317809E+03  0.60302665702E+03  0.12000000000E+03 0.  0.
<mgrwt>
<rscale>  0 0.24812043E+03</rscale>
<asrwt>0</asrwt>
<pdfrwt beam="1">  1        3 0.20266989E-02 0.24812043E+03</pdfrwt>
<pdfrwt beam="2">  1       -3 0.17974181E+00 0.24812043E+03</pdfrwt>
<totfact> 0.50131421E+02</totfact>
</mgrwt>
</event>
<event>
 4    1  0.1672993E-004  0.2550999E+03  0.7818608E-02  0.1110124E+00
          1   -1    0    0  501    0  0.00000000000E+00  0.00000000000E+00  0.76787345039E+03  0.76787345039E+03  0.00000000000E+00 0. -1.
         -1   -1    0    0    0  501 -0.00000000000E+00 -0.00000000000E+00 -0.21187079456E+02  0.21187079456E+02  0.00000000000E+00 0. -1.
         25    1    1    2    0    0  0.10160314377E+02  0.29400872675E+02  0.46620716382E+03  0.48240725834E+03  0.12000000000E+03 0.  0.
         25    1    1    2    0    0 -0.10160314377E+02 -0.29400872675E+02  0.28047920711E+03  0.30665327150E+03  0.12000000000E+03 0.  0.
<mgrwt>
<rscale>  0 0.25509995E+03</rscale>
<asrwt>0</asrwt>
<pdfrwt beam="1">  1        1 0.11813436E+00 0.25509995E+03</pdfrwt>
<pdfrwt beam="2">  1       -1 0.32595513E-02 0.25509995E+03</pdfrwt>
<totfact> 0.81415523E+03</totfact>
</mgrwt>
</event>
<event>
 4    1  0.1672993E-004  0.4067052E+03  0.7818608E-02  0.1041482E+00
          2   -1    0    0  501    0  0.00000000000E+00  0.00000000000E+00  0.12220918948E+03  0.12220918948E+03  0.00000000000E+00 0. -1.
         -2   -1    0    0    0  501 -0.00000000000E+00 -0.00000000000E+00 -0.33837292561E+03  0.33837292561E+03  0.00000000000E+00 0. -1.
         25    1    1    2    0    0 -0.75918819515E+01 -0.35743455276E+02 -0.28933766064E+03  0.31535933970E+03  0.12000000000E+03 0.  0.
         25    1    1    2    0    0  0.75918819515E+01  0.35743455276E+02  0.73173924512E+02  0.14522277540E+03  0.12000000000E+03 0.  0.
<mgrwt>
<rscale>  0 0.40670521E+03</rscale>
<asrwt>0</asrwt>
<pdfrwt beam="1">  1        2 0.18801414E-01 0.40670521E+03</pdfrwt>
<pdfrwt beam="2">  1       -2 0.52057373E-01 0.40670521E+03</pdfrwt>
<totfact> 0.10640679E+03</totfact>
</mgrwt>
</event>
<event>
 4    1  0.1672993E-004  0.3014885E+03  0.7818608E-02  0.1084499E+00
         -1   -1    0    0    0  501 -0.00000000000E+00  0.00000000000E+00  0.17214876808E+02  0.17214876808E+02  0.00000000000E+00 0.  1.
          1   -1    0    0  501    0  0.00000000000E+00 -0.00000000000E+00 -0.13200114333E+04  0.13200114333E+04  0.00000000000E+00 0.  1.
         25    1    1    2    0    0 -0.71371274518E+02 -0.37220206026E+02 -0.46090092821E+03  0.48302056704E+03  0.12000000000E+03 0.  0.
         25    1    1    2    0    0  0.71371274518E+02  0.37220206026E+02 -0.84189562832E+03  0.85420574310E+03  0.12000000000E+03 0.  0.
<mgrwt>
<rscale>  0 0.30148854E+03</rscale>
<asrwt>0</asrwt>
<pdfrwt beam="1">  1        1 0.20307873E+00 0.30148854E+03</pdfrwt>
<pdfrwt beam="2">  1       -1 0.26484420E-02 0.30148854E+03</pdfrwt>
<totfact> 0.42955987E+03</totfact>
</mgrwt>
</event>
<event>
 4    1  0.1672993E-004  0.2890921E+03  0.7818608E-02  0.1090824E+00
          2   -1    0    0  501    0  0.00000000000E+00  0.00000000000E+00  0.85474486523E+03  0.85474486523E+03  0.00000000000E+00 0.  1.
         -2   -1    0    0    0  501 -0.00000000000E+00 -0.00000000000E+00 -0.24444200026E+02  0.24444200026E+02  0.00000000000E+00 0.  1.
         25    1    1    2    0    0 -0.74969890398E+02  0.28156679280E+02  0.38790283995E+03  0.41386217065E+03  0.12000000000E+03 0.  0.
         25    1    1    2    0    0  0.74969890398E+02 -0.28156679280E+02  0.44239782526E+03  0.46532689461E+03  0.12000000000E+03 0.  0.
<mgrwt>
<rscale>  0 0.28909206E+03</rscale>
<asrwt>0</asrwt>
<pdfrwt beam="1">  1        2 0.13149919E+00 0.28909206E+03</pdfrwt>
<pdfrwt beam="2">  1       -2 0.37606468E-02 0.28909206E+03</pdfrwt>
<totfact> 0.98094411E+03</totfact>
</mgrwt>
</event>
<event>
 4    1  0.1672993E-004  0.3966642E+03  0.7818608E-02  0.1044941E+00
         -2   -1    0    0    0  501 -0.00000000000E+00  0.00000000000E+00  0.86394778747E+02  0.86394778747E+02  0.00000000000E+00 0. -1.
          2   -1    0    0  501    0  0.00000000000E+00 -0.00000000000E+00 -0.45530086088E+03  0.45530086088E+03  0.00000000000E+00 0. -1.
         25    1    1    2    0    0  0.35096550655E+02 -0.35382063053E+02  0.20172329591E+02  0.13149365435E+03  0.12000000000E+03 0.  0.
         25    1    1    2    0    0 -0.35096550655E+02  0.35382063053E+02 -0.38907841172E+03  0.41020198527E+03  0.12000000000E+03 0.  0.
<mgrwt>
<rscale>  0 0.39666418E+03</rscale>
<asrwt>0</asrwt>
<pdfrwt beam="1">  1        2 0.70046286E-01 0.39666418E+03</pdfrwt>
<pdfrwt beam="2">  1       -2 0.13291504E-01 0.39666418E+03</pdfrwt>
<totfact> 0.29095980E+03</totfact>
</mgrwt>
</event>
<event>
 4    1  0.1672993E-004  0.3336959E+03  0.7818608E-02  0.1069513E+00
          1   -1    0    0  501    0  0.00000000000E+00  0.00000000000E+00  0.19755070762E+03  0.19755070762E+03  0.00000000000E+00 0. -1.
         -1   -1    0    0    0  501 -0.00000000000E+00 -0.00000000000E+00 -0.14091688529E+03  0.14091688529E+03  0.00000000000E+00 0. -1.
         25    1    1    2    0    0  0.40226243767E+02 -0.97457450978E+02 -0.20560599429E+02  0.16105540565E+03  0.12000000000E+03 0.  0.
         25    1    1    2    0    0 -0.40226243767E+02  0.97457450978E+02  0.77194421759E+02  0.17741218726E+03  0.12000000000E+03 0.  0.
<mgrwt>
<rscale>  0 0.33369585E+03</rscale>
<asrwt>0</asrwt>
<pdfrwt beam="1">  1        1 0.30392417E-01 0.33369585E+03</pdfrwt>
<pdfrwt beam="2">  1       -1 0.21679521E-01 0.33369585E+03</pdfrwt>
<totfact> 0.26357713E+03</totfact>
</mgrwt>
</event>
<event>
 4    1  0.1672993E-004  0.2613407E+03  0.7818608E-02  0.1106340E+00
          3   -1    0    0  501    0  0.00000000000E+00  0.00000000000E+00  0.10105211795E+04  0.10105211795E+04  0.00000000000E+00 0.  1.
         -3   -1    0    0    0  501 -0.00000000000E+00 -0.00000000000E+00 -0.16896968112E+02  0.16896968112E+02  0.00000000000E+00 0.  1.
         25    1    1    2    0    0  0.42476283523E+01  0.51542550503E+02  0.49783189035E+03  0.51469531561E+03  0.12000000000E+03 0.  0.
         25    1    1    2    0    0 -0.42476283523E+01 -0.51542550503E+02  0.49579232108E+03  0.51272283204E+03  0.12000000000E+03 0.  0.
<mgrwt>
<rscale>  0 0.26134073E+03</rscale>
<asrwt>0</asrwt>
<pdfrwt beam="1">  1        3 0.15546475E+00 0.26134073E+03</pdfrwt>
<pdfrwt beam="2">  1       -3 0.25995343E-02 0.26134073E+03</pdfrwt>
<totfact> 0.50379670E+02</totfact>
</mgrwt>
</event>
<event>
 4    1  0.1672993E-004  0.3445239E+03  0.7818608E-02  0.1064885E+00
         -2   -1    0    0    0  501 -0.00000000000E+00  0.00000000000E+00  0.13738373937E+02  0.13738373937E+02  0.00000000000E+00 0.  1.
          2   -1    0    0  501    0  0.00000000000E+00 -0.00000000000E+00 -0.21599487286E+04  0.21599487286E+04  0.00000000000E+00 0.  1.
         25    1    1    2    0    0  0.19100974625E+02 -0.97831508125E+02 -0.15340834321E+04  0.15419947561E+04  0.12000000000E+03 0.  0.
         25    1    1    2    0    0 -0.19100974625E+02  0.97831508125E+02 -0.61212692255E+03  0.63169234642E+03  0.12000000000E+03 0.  0.
<mgrwt>
<rscale>  0 0.34452392E+03</rscale>
<asrwt>0</asrwt>
<pdfrwt beam="1">  1        2 0.33229990E+00 0.34452392E+03</pdfrwt>
<pdfrwt beam="2">  1       -2 0.21135954E-02 0.34452392E+03</pdfrwt>
<totfact> 0.43497833E+03</totfact>
</mgrwt>
</event>
<event>
 4    1  0.1672993E-004  0.3425625E+03  0.7818608E-02  0.1065710E+00
         -1   -1    0    0    0  501 -0.00000000000E+00  0.00000000000E+00  0.68645711986E+02  0.68645711986E+02  0.00000000000E+00 0.  1.
          1   -1    0    0  501    0  0.00000000000E+00 -0.00000000000E+00 -0.42737216282E+03  0.42737216282E+03  0.00000000000E+00 0.  1.
         25    1    1    2    0    0 -0.64933677039E+02 -0.34665722493E+01 -0.32920374454E+03  0.35637551116E+03  0.12000000000E+03 0.  0.
         25    1    1    2    0    0  0.64933677039E+02  0.34665722493E+01 -0.29522706292E+02  0.13964236364E+03  0.12000000000E+03 0.  0.
<mgrwt>
<rscale>  0 0.34256250E+03</rscale>
<asrwt>0</asrwt>
<pdfrwt beam="1">  1        1 0.65749565E-01 0.34256250E+03</pdfrwt>
<pdfrwt beam="2">  1       -1 0.10560879E-01 0.34256250E+03</pdfrwt>
<totfact> 0.31193034E+03</totfact>
</mgrwt>
</event>
<event>
 4    1  0.1672993E-004  0.2448922E+03  0.7818608E-02  0.1116576E+00
          1   -1    0    0  501    0  0.00000000000E+00  0.00000000000E+00  0.95244662691E+02  0.95244662691E+02  0.00000000000E+00 0. -1.
         -1   -1    0    0    0  501 -0.00000000000E+00 -0.00000000000E+00 -0.15741619285E+03  0.15741619285E+03  0.00000000000E+00 0. -1.
         25    1    1    2    0    0 -0.61293909651E+01 -0.17312001310E+01 -0.68351106973E+01  0.12036313898E+03  0.12000000000E+03 0.  0.
         25    1    1    2    0    0  0.61293909651E+01  0.17312001310E+01 -0.55336419461E+02  0.13229771656E+03  0.12000000000E+03 0.  0.
<mgrwt>
<rscale>  0 0.24489224E+03</rscale>
<asrwt>0</asrwt>
<pdfrwt beam="1">  1        1 0.14653025E-01 0.24489224E+03</pdfrwt>
<pdfrwt beam="2">  1       -1 0.24217875E-01 0.24489224E+03</pdfrwt>
<totfact> 0.55693836E+03</totfact>
</mgrwt>
</event>
<event>
 4    1  0.1672993E-004  0.2779476E+03  0.7818608E-02  0.1096815E+00
          1   -1    0    0  501    0  0.00000000000E+00  0.00000000000E+00  0.78048393217E+03  0.78048393217E+03  0.00000000000E+00 0.  1.
         -1   -1    0    0    0  501 -0.00000000000E+00 -0.00000000000E+00 -0.24745814070E+02  0.24745814070E+02  0.00000000000E+00 0.  1.
         25    1    1    2    0    0  0.56026325785E+02 -0.15824460067E+02  0.26475959173E+03  0.29645742381E+03  0.12000000000E+03 0.  0.
         25    1    1    2    0    0 -0.56026325785E+02  0.15824460067E+02  0.49097852636E+03  0.50877232243E+03  0.12000000000E+03 0.  0.
<mgrwt>
<rscale>  0 0.27794755E+03</rscale>
<asrwt>0</asrwt>
<pdfrwt beam="1">  1        1 0.12007443E+00 0.27794755E+03</pdfrwt>
<pdfrwt beam="2">  1       -1 0.38070489E-02 0.27794755E+03</pdfrwt>
<totfact> 0.63269196E+03</totfact>
</mgrwt>
</event>
<event>
 4    1  0.1672993E-004  0.3317244E+03  0.7818608E-02  0.1070376E+00
          2   -1    0    0  501    0  0.00000000000E+00  0.00000000000E+00  0.11299282748E+04  0.11299282748E+04  0.00000000000E+00 0. -1.
         -2   -1    0    0    0  501 -0.00000000000E+00 -0.00000000000E+00 -0.24346910592E+02  0.24346910592E+02  0.00000000000E+00 0. -1.
         25    1    1    2    0    0 -0.69798779389E+02 -0.15060655958E+02  0.86424245199E+03  0.87545057473E+03  0.12000000000E+03 0.  0.
         25    1    1    2    0    0  0.69798779389E+02  0.15060655958E+02  0.24133891219E+03  0.27882461064E+03  0.12000000000E+03 0.  0.
<mgrwt>
<rscale>  0 0.33172436E+03</rscale>
<asrwt>0</asrwt>
<pdfrwt beam="1">  1        2 0.17383508E+00 0.33172436E+03</pdfrwt>
<pdfrwt beam="2">  1       -2 0.37456794E-02 0.33172436E+03</pdfrwt>
<totfact> 0.66804581E+03</totfact>
</mgrwt>
</event>
<event>
 4    1  0.1672993E-004  0.2749766E+03  0.7818608E-02  0.1098465E+00
          1   -1    0    0  501    0  0.00000000000E+00  0.00000000000E+00  0.20860081896E+02  0.20860081896E+02  0.00000000000E+00 0.  1.
         -1   -1    0    0    0  501 -0.00000000000E+00 -0.00000000000E+00 -0.90618183084E+03  0.90618183084E+03  0.00000000000E+00 0.  1.
         25    1    1    2    0    0 -0.65226375740E+02  0.73999160061E+01 -0.39572903978E+03  0.41870122017E+03  0.12000000000E+03 0.  0.
         25    1    1    2    0    0  0.65226375740E+02 -0.73999160061E+01 -0.48959270916E+03  0.50834069256E+03  0.12000000000E+03 0.  0.
<mgrwt>
<rscale>  0 0.27497656E+03</rscale>
<asrwt>0</asrwt>
<pdfrwt beam="1">  1        1 0.32092435E-02 0.27497656E+03</pdfrwt>
<pdfrwt beam="2">  1       -1 0.13941258E+00 0.27497656E+03</pdfrwt>
<totfact> 0.14156430E+03</totfact>
</mgrwt>
</event>
<event>
 4    1  0.1672993E-004  0.3348979E+03  0.7818608E-02  0.1068990E+00
          1   -1    0    0  501    0  0.00000000000E+00  0.00000000000E+00  0.37581199237E+02  0.37581199237E+02  0.00000000000E+00 0. -1.
         -1   -1    0    0    0  501 -0.00000000000E+00 -0.00000000000E+00 -0.74609517998E+03  0.74609517998E+03  0.00000000000E+00 0. -1.
         25    1    1    2    0    0  0.11280570523E+03  0.17761240245E+02 -0.29700650195E+03  0.34007859531E+03  0.12000000000E+03 0.  0.
         25    1    1    2    0    0 -0.11280570523E+03 -0.17761240245E+02 -0.41150747880E+03  0.44359778391E+03  0.12000000000E+03 0.  0.
<mgrwt>
<rscale>  0 0.33489790E+03</rscale>
<asrwt>0</asrwt>
<pdfrwt beam="1">  1        1 0.57817231E-02 0.33489790E+03</pdfrwt>
<pdfrwt beam="2">  1       -1 0.11478387E+00 0.33489790E+03</pdfrwt>
<totfact> 0.10019625E+03</totfact>
</mgrwt>
</event>
<event>
 4    1  0.1672993E-004  0.5083744E+03  0.7818608E-02  0.1011616E+00
         -2   -1    0    0    0  501 -0.00000000000E+00  0.00000000000E+00  0.10260259331E+03  0.10260259331E+03  0.00000000000E+00 0. -1.
          2   -1    0    0  501    0  0.00000000000E+00 -0.00000000000E+00 -0.62972213929E+03  0.62972213929E+03  0.00000000000E+00 0. -1.
         25    1    1    2    0    0 -0.50490276179E+02 -0.76115257826E+02 -0.55831590222E+03  0.57832469006E+03  0.12000000000E+03 0.  0.
         25    1    1    2    0    0  0.50490276179E+02  0.76115257826E+02  0.31196356238E+02  0.15400004255E+03  0.12000000000E+03 0.  0.
<mgrwt>
<rscale>  0 0.50837437E+03</rscale>
<asrwt>0</asrwt>
<pdfrwt beam="1">  1        2 0.96880331E-01 0.50837437E+03</pdfrwt>
<pdfrwt beam="2">  1       -2 0.15785014E-01 0.50837437E+03</pdfrwt>
<totfact> 0.15030474E+03</totfact>
</mgrwt>
</event>
<event>
 4    1  0.1672993E-004  0.2784900E+03  0.7818608E-02  0.1096517E+00
         -1   -1    0    0    0  501 -0.00000000000E+00  0.00000000000E+00  0.19336302408E+03  0.19336302408E+03  0.00000000000E+00 0.  1.
          1   -1    0    0  501    0  0.00000000000E+00 -0.00000000000E+00 -0.10027342382E+03  0.10027342382E+03  0.00000000000E+00 0.  1.
         25    1    1    2    0    0  0.37864821045E+02  0.16402474749E+02 -0.13900098812E+02  0.12765578169E+03  0.12000000000E+03 0.  0.
         25    1    1    2    0    0 -0.37864821045E+02 -0.16402474749E+02  0.10698969907E+03  0.16598066621E+03  0.12000000000E+03 0.  0.
<mgrwt>
<rscale>  0 0.27849002E+03</rscale>
<asrwt>0</asrwt>
<pdfrwt beam="1">  1        1 0.15426681E-01 0.27849002E+03</pdfrwt>
<pdfrwt beam="2">  1       -1 0.29748157E-01 0.27849002E+03</pdfrwt>
<totfact> 0.37042913E+03</totfact>
</mgrwt>
</event>
<event>
 4    1  0.1672993E-004  0.2572212E+03  0.7818608E-02  0.1108824E+00
          1   -1    0    0  501    0  0.00000000000E+00  0.00000000000E+00  0.26992370078E+03  0.26992370078E+03  0.00000000000E+00 0. -1.
         -1   -1    0    0    0  501 -0.00000000000E+00 -0.00000000000E+00 -0.61279132559E+02  0.61279132559E+02  0.00000000000E+00 0. -1.
         25    1    1    2    0    0  0.31128782229E+02  0.32260327851E+02  0.11905752494E+03  0.17488403038E+03  0.12000000000E+03 0.  0.
         25    1    1    2    0    0 -0.31128782229E+02 -0.32260327851E+02  0.89587043283E+02  0.15631880296E+03  0.12000000000E+03 0.  0.
<mgrwt>
<rscale>  0 0.25722123E+03</rscale>
<asrwt>0</asrwt>
<pdfrwt beam="1">  1        1 0.41526723E-01 0.25722123E+03</pdfrwt>
<pdfrwt beam="2">  1       -1 0.94275590E-02 0.25722123E+03</pdfrwt>
<totfact> 0.66209202E+03</totfact>
</mgrwt>
</event>
<event>
 4    1  0.1672993E-004  0.3628250E+03  0.7818608E-02  0.1057471E+00
          2   -1    0    0  501    0  0.00000000000E+00  0.00000000000E+00  0.32810192094E+03  0.32810192094E+03  0.00000000000E+00 0. -1.
         -2   -1    0    0    0  501 -0.00000000000E+00 -0.00000000000E+00 -0.10030572116E+03  0.10030572116E+03  0.00000000000E+00 0. -1.
         25    1    1    2    0    0  0.88211371526E+02  0.94590545974E+02  0.64055637856E+02  0.18770120457E+03  0.12000000000E+03 0.  0.
         25    1    1    2    0    0 -0.88211371526E+02 -0.94590545974E+02  0.16374056193E+03  0.24070643754E+03  0.12000000000E+03 0.  0.
<mgrwt>
<rscale>  0 0.36282503E+03</rscale>
<asrwt>0</asrwt>
<pdfrwt beam="1">  1        2 0.50477218E-01 0.36282503E+03</pdfrwt>
<pdfrwt beam="2">  1       -2 0.15431650E-01 0.36282503E+03</pdfrwt>
<totfact> 0.32522652E+03</totfact>
</mgrwt>
</event>
<event>
 4    1  0.1672993E-004  0.2805212E+03  0.7818608E-02  0.1095405E+00
          2   -1    0    0  501    0  0.00000000000E+00  0.00000000000E+00  0.74458070081E+03  0.74458070081E+03  0.00000000000E+00 0. -1.
         -2   -1    0    0    0  501 -0.00000000000E+00 -0.00000000000E+00 -0.26421635847E+02  0.26421635847E+02  0.00000000000E+00 0. -1.
         25    1    1    2    0    0  0.32753182080E+02 -0.23310350505E+02  0.19287368109E+03  0.23068680117E+03  0.12000000000E+03 0.  0.
         25    1    1    2    0    0 -0.32753182080E+02  0.23310350505E+02  0.52528538387E+03  0.54031553548E+03  0.12000000000E+03 0.  0.
<mgrwt>
<rscale>  0 0.28052123E+03</rscale>
<asrwt>0</asrwt>
<pdfrwt beam="1">  1        2 0.11455086E+00 0.28052123E+03</pdfrwt>
<pdfrwt beam="2">  1       -2 0.40648676E-02 0.28052123E+03</pdfrwt>
<totfact> 0.10393673E+04</totfact>
</mgrwt>
</event>
<event>
 4    1  0.1672993E-004  0.3233663E+03  0.7818608E-02  0.1074110E+00
          2   -1    0    0  501    0  0.00000000000E+00  0.00000000000E+00  0.25563547192E+02  0.25563547192E+02  0.00000000000E+00 0. -1.
         -2   -1    0    0    0  501 -0.00000000000E+00 -0.00000000000E+00 -0.10226059527E+04  0.10226059527E+04  0.00000000000E+00 0. -1.
         25    1    1    2    0    0 -0.26120538921E+01 -0.99723215847E+02 -0.36138556451E+03  0.39363824616E+03  0.12000000000E+03 0.  0.
         25    1    1    2    0    0  0.26120538921E+01  0.99723215847E+02 -0.63565684101E+03  0.65453125374E+03  0.12000000000E+03 0.  0.
<mgrwt>
<rscale>  0 0.32336627E+03</rscale>
<asrwt>0</asrwt>
<pdfrwt beam="1">  1        2 0.39328544E-02 0.32336627E+03</pdfrwt>
<pdfrwt beam="2">  1       -2 0.15732395E+00 0.32336627E+03</pdfrwt>
<totfact> 0.60932240E+02</totfact>
</mgrwt>
</event>
<event>
 4    1  0.1672993E-004  0.2754767E+03  0.7818608E-02  0.1098185E+00
          2   -1    0    0  501    0  0.00000000000E+00  0.00000000000E+00  0.22871359616E+04  0.22871359616E+04  0.00000000000E+00 0.  1.
         -2   -1    0    0    0  501 -0.00000000000E+00 -0.00000000000E+00 -0.82950270933E+01  0.82950270933E+01  0.00000000000E+00 0.  1.
         25    1    1    2    0    0  0.13324824334E+02  0.65654572244E+02  0.10631507679E+04  0.10719970285E+04  0.12000000000E+03 0.  0.
         25    1    1    2    0    0 -0.13324824334E+02 -0.65654572244E+02  0.12156901666E+04  0.12234339602E+04  0.12000000000E+03 0.  0.
<mgrwt>
<rscale>  0 0.27547671E+03</rscale>
<asrwt>0</asrwt>
<pdfrwt beam="1">  1        2 0.35186657E+00 0.27547671E+03</pdfrwt>
<pdfrwt beam="2">  1       -2 0.12761598E-02 0.27547671E+03</pdfrwt>
<totfact> 0.78172757E+03</totfact>
</mgrwt>
</event>
<event>
 4    1  0.1672993E-004  0.2482874E+03  0.7818608E-02  0.1114392E+00
          4   -1    0    0  501    0  0.00000000000E+00  0.00000000000E+00  0.44054703279E+02  0.44054703279E+02  0.00000000000E+00 0. -1.
         -4   -1    0    0    0  501 -0.00000000000E+00 -0.00000000000E+00 -0.34982996741E+03  0.34982996741E+03  0.00000000000E+00 0. -1.
         25    1    1    2    0    0  0.67708974546E+01  0.28588380580E+02 -0.17222063815E+03  0.21195067530E+03  0.12000000000E+03 0.  0.
         25    1    1    2    0    0 -0.67708974546E+01 -0.28588380580E+02 -0.13355462598E+03  0.18193399539E+03  0.12000000000E+03 0.  0.
<mgrwt>
<rscale>  0 0.24828738E+03</rscale>
<asrwt>0</asrwt>
<pdfrwt beam="1">  1        4 0.67776467E-02 0.24828738E+03</pdfrwt>
<pdfrwt beam="2">  1       -4 0.53819994E-01 0.24828738E+03</pdfrwt>
<totfact> 0.89514080E+02</totfact>
</mgrwt>
</event>
<event>
 4    1  0.1672993E-004  0.2539208E+03  0.7818608E-02  0.1110852E+00
         -3   -1    0    0    0  501 -0.00000000000E+00  0.00000000000E+00  0.42295675518E+03  0.42295675518E+03  0.00000000000E+00 0.  1.
          3   -1    0    0  501    0  0.00000000000E+00 -0.00000000000E+00 -0.38110130397E+02  0.38110130397E+02  0.00000000000E+00 0.  1.
         25    1    1    2    0    0  0.30169138233E+02 -0.99471719853E+01  0.14404641586E+03  0.19015386679E+03  0.12000000000E+03 0.  0.
         25    1    1    2    0    0 -0.30169138233E+02  0.99471719853E+01  0.24080020893E+03  0.27091301879E+03  0.12000000000E+03 0.  0.
<mgrwt>
<rscale>  0 0.25392075E+03</rscale>
<asrwt>0</asrwt>
<pdfrwt beam="1">  1        3 0.58630973E-02 0.25392075E+03</pdfrwt>
<pdfrwt beam="2">  1       -3 0.65070267E-01 0.25392075E+03</pdfrwt>
<totfact> 0.10343521E+03</totfact>
</mgrwt>
</event>
<event>
 4    1  0.1672993E-004  0.2403859E+03  0.7818608E-02  0.1119536E+00
         -2   -1    0    0    0  501 -0.00000000000E+00  0.00000000000E+00  0.90287325798E+01  0.90287325798E+01  0.00000000000E+00 0. -1.
          2   -1    0    0  501    0  0.00000000000E+00 -0.00000000000E+00 -0.16000414420E+04  0.16000414420E+04  0.00000000000E+00 0. -1.
         25    1    1    2    0    0 -0.24492582816E+01 -0.54458980337E+01 -0.81739138821E+03  0.82617452042E+03  0.12000000000E+03 0.  0.
         25    1    1    2    0    0  0.24492582816E+01  0.54458980337E+01 -0.77362132122E+03  0.78289565417E+03  0.12000000000E+03 0.  0.
<mgrwt>
<rscale>  0 0.24038591E+03</rscale>
<asrwt>0</asrwt>
<pdfrwt beam="1">  1        2 0.24616035E+00 0.24038591E+03</pdfrwt>
<pdfrwt beam="2">  1       -2 0.13890350E-02 0.24038591E+03</pdfrwt>
<totfact> 0.15856246E+04</totfact>
</mgrwt>
</event>
<event>
 4    1  0.1672993E-004  0.2816802E+03  0.7818608E-02  0.1094775E+00
          1   -1    0    0  501    0  0.00000000000E+00  0.00000000000E+00  0.26372548128E+03  0.26372548128E+03  0.00000000000E+00 0. -1.
         -1   -1    0    0    0  501 -0.00000000000E+00 -0.00000000000E+00 -0.75214346385E+02  0.75214346385E+02  0.00000000000E+00 0. -1.
         25    1    1    2    0    0  0.95483136454E+01  0.23770389114E+02  0.11066115141E+02  0.12320170695E+03  0.12000000000E+03 0.  0.
         25    1    1    2    0    0 -0.95483136454E+01 -0.23770389114E+02  0.17744501976E+03  0.21573812071E+03  0.12000000000E+03 0.  0.
<mgrwt>
<rscale>  0 0.28168024E+03</rscale>
<asrwt>0</asrwt>
<pdfrwt beam="1">  1        1 0.40573150E-01 0.28168024E+03</pdfrwt>
<pdfrwt beam="2">  1       -1 0.11571438E-01 0.28168024E+03</pdfrwt>
<totfact> 0.49786388E+03</totfact>
</mgrwt>
</event>
<event>
 4    1  0.1672993E-004  0.3772751E+03  0.7818608E-02  0.1051946E+00
          1   -1    0    0  501    0  0.00000000000E+00  0.00000000000E+00  0.86727460926E+03  0.86727460926E+03  0.00000000000E+00 0. -1.
         -1   -1    0    0    0  501 -0.00000000000E+00 -0.00000000000E+00 -0.41029825260E+02  0.41029825260E+02  0.00000000000E+00 0. -1.
         25    1    1    2    0    0  0.51582373818E+01  0.12100298965E+03  0.21878472400E+03  0.27737174761E+03  0.12000000000E+03 0.  0.
         25    1    1    2    0    0 -0.51582373818E+01 -0.12100298965E+03  0.60746006001E+03  0.63093268692E+03  0.12000000000E+03 0.  0.
<mgrwt>
<rscale>  0 0.37727510E+03</rscale>
<asrwt>0</asrwt>
<pdfrwt beam="1">  1        1 0.13342685E+00 0.37727510E+03</pdfrwt>
<pdfrwt beam="2">  1       -1 0.63122815E-02 0.37727510E+03</pdfrwt>
<totfact> 0.25157052E+03</totfact>
</mgrwt>
</event>
<event>
 4    1  0.1672993E-004  0.2720273E+03  0.7818608E-02  0.1100125E+00
         -2   -1    0    0    0  501 -0.00000000000E+00  0.00000000000E+00  0.40829761135E+02  0.40829761135E+02  0.00000000000E+00 0. -1.
          2   -1    0    0  501    0  0.00000000000E+00 -0.00000000000E+00 -0.45309388590E+03  0.45309388590E+03  0.00000000000E+00 0. -1.
         25    1    1    2    0    0  0.62723505914E+02 -0.11140018723E+02 -0.21781161994E+03  0.25671042050E+03  0.12000000000E+03 0.  0.
         25    1    1    2    0    0 -0.62723505914E+02  0.11140018723E+02 -0.19445250483E+03  0.23721322654E+03  0.12000000000E+03 0.  0.
<mgrwt>
<rscale>  0 0.27202732E+03</rscale>
<asrwt>0</asrwt>
<pdfrwt beam="1">  1        2 0.69706749E-01 0.27202732E+03</pdfrwt>
<pdfrwt beam="2">  1       -2 0.62815020E-02 0.27202732E+03</pdfrwt>
<totfact> 0.95225792E+03</totfact>
</mgrwt>
</event>
<event>
 4    1  0.1672993E-004  0.2554386E+03  0.7818608E-02  0.1109915E+00
          1   -1    0    0  501    0  0.00000000000E+00  0.00000000000E+00  0.89351256054E+02  0.89351256054E+02  0.00000000000E+00 0.  1.
         -1   -1    0    0    0  501 -0.00000000000E+00 -0.00000000000E+00 -0.18256286570E+03  0.18256286570E+03  0.00000000000E+00 0.  1.
         25    1    1    2    0    0  0.18590237037E+02 -0.35054824897E+02 -0.66170115795E+02  0.14266366701E+03  0.12000000000E+03 0.  0.
         25    1    1    2    0    0 -0.18590237037E+02  0.35054824897E+02 -0.27041493854E+02  0.12925045474E+03  0.12000000000E+03 0.  0.
<mgrwt>
<rscale>  0 0.25543861E+03</rscale>
<asrwt>0</asrwt>
<pdfrwt beam="1">  1        1 0.13746347E-01 0.25543861E+03</pdfrwt>
<pdfrwt beam="2">  1       -1 0.28086594E-01 0.25543861E+03</pdfrwt>
<totfact> 0.47374153E+03</totfact>
</mgrwt>
</event>
<event>
 4    1  0.1672993E-004  0.2871806E+03  0.7818608E-02  0.1091830E+00
         -1   -1    0    0    0  501 -0.00000000000E+00  0.00000000000E+00  0.28202322080E+02  0.28202322080E+02  0.00000000000E+00 0. -1.
          1   -1    0    0  501    0  0.00000000000E+00 -0.00000000000E+00 -0.73108077553E+03  0.73108077553E+03  0.00000000000E+00 0. -1.
         25    1    1    2    0    0  0.84788536534E+01 -0.65561430197E+02 -0.23778184309E+03  0.27442739840E+03  0.12000000000E+03 0.  0.
         25    1    1    2    0    0 -0.84788536534E+01  0.65561430197E+02 -0.46509661036E+03  0.48485569921E+03  0.12000000000E+03 0.  0.
<mgrwt>
<rscale>  0 0.28718061E+03</rscale>
<asrwt>0</asrwt>
<pdfrwt beam="1">  1        1 0.11247396E+00 0.28718061E+03</pdfrwt>
<pdfrwt beam="2">  1       -1 0.43388192E-02 0.28718061E+03</pdfrwt>
<totfact> 0.57502235E+03</totfact>
</mgrwt>
</event>
<event>
 4    1  0.1672993E-004  0.4001779E+03  0.7818608E-02  0.1043718E+00
         -3   -1    0    0    0  501 -0.00000000000E+00  0.00000000000E+00  0.53154649349E+03  0.53154649349E+03  0.00000000000E+00 0. -1.
          3   -1    0    0  501    0  0.00000000000E+00 -0.00000000000E+00 -0.75319068579E+02  0.75319068579E+02  0.00000000000E+00 0. -1.
         25    1    1    2    0    0 -0.89101117584E+02  0.29814846571E+02  0.31509449928E+02  0.15563026590E+03  0.12000000000E+03 0.  0.
         25    1    1    2    0    0  0.89101117584E+02 -0.29814846571E+02  0.42471797498E+03  0.45123529616E+03  0.12000000000E+03 0.  0.
<mgrwt>
<rscale>  0 0.40017789E+03</rscale>
<asrwt>0</asrwt>
<pdfrwt beam="1">  1        3 0.11587549E-01 0.40017789E+03</pdfrwt>
<pdfrwt beam="2">  1       -3 0.81776381E-01 0.40017789E+03</pdfrwt>
<totfact> 0.21281537E+02</totfact>
</mgrwt>
</event>
<event>
 4    1  0.1672993E-004  0.2640691E+03  0.7818608E-02  0.1104723E+00
          2   -1    0    0  501    0  0.00000000000E+00  0.00000000000E+00  0.19120179671E+03  0.19120179671E+03  0.00000000000E+00 0.  1.
         -2   -1    0    0    0  501 -0.00000000000E+00 -0.00000000000E+00 -0.91176575258E+02  0.91176575258E+02  0.00000000000E+00 0.  1.
         25    1    1    2    0    0 -0.19136577290E+02 -0.51627587237E+02  0.48699175952E+02  0.14072393575E+03  0.12000000000E+03 0.  0.
         25    1    1    2    0    0  0.19136577290E+02  0.51627587237E+02  0.51326045502E+02  0.14165443622E+03  0.12000000000E+03 0.  0.
<mgrwt>
<rscale>  0 0.26406912E+03</rscale>
<asrwt>0</asrwt>
<pdfrwt beam="1">  1        2 0.29415661E-01 0.26406912E+03</pdfrwt>
<pdfrwt beam="2">  1       -2 0.14027166E-01 0.26406912E+03</pdfrwt>
<totfact> 0.67888626E+03</totfact>
</mgrwt>
</event>
<event>
 4    1  0.1672993E-004  0.3380865E+03  0.7818608E-02  0.1067614E+00
          2   -1    0    0  501    0  0.00000000000E+00  0.00000000000E+00  0.36914617579E+04  0.36914617579E+04  0.00000000000E+00 0. -1.
         -2   -1    0    0    0  501 -0.00000000000E+00 -0.00000000000E+00 -0.77410033898E+01  0.77410033898E+01  0.00000000000E+00 0. -1.
         25    1    1    2    0    0  0.50546809821E+02 -0.98433277800E+02  0.13609869166E+04  0.13707404850E+04  0.12000000000E+03 0.  0.
         25    1    1    2    0    0 -0.50546809821E+02  0.98433277800E+02  0.23227338380E+04  0.23284622763E+04  0.12000000000E+03 0.  0.
<mgrwt>
<rscale>  0 0.33808649E+03</rscale>
<asrwt>0</asrwt>
<pdfrwt beam="1">  1        2 0.56791579E+00 0.33808649E+03</pdfrwt>
<pdfrwt beam="2">  1       -2 0.11909265E-02 0.33808649E+03</pdfrwt>
<totfact> 0.12277664E+03</totfact>
</mgrwt>
</event>
<event>
 4    1  0.1672993E-004  0.2426567E+03  0.7818608E-02  0.1118036E+00
          2   -1    0    0  501    0  0.00000000000E+00  0.00000000000E+00  0.82332218166E+02  0.82332218166E+02  0.00000000000E+00 0.  1.
         -2   -1    0    0    0  501 -0.00000000000E+00 -0.00000000000E+00 -0.17879481450E+03  0.17879481450E+03  0.00000000000E+00 0.  1.
         25    1    1    2    0    0 -0.47328952309E+01 -0.50970756635E+01 -0.65985375334E+02  0.13712202681E+03  0.12000000000E+03 0.  0.
         25    1    1    2    0    0  0.47328952309E+01  0.50970756635E+01 -0.30477220997E+02  0.12400500586E+03  0.12000000000E+03 0.  0.
<mgrwt>
<rscale>  0 0.24265674E+03</rscale>
<asrwt>0</asrwt>
<pdfrwt beam="1">  1        2 0.12666495E-01 0.24265674E+03</pdfrwt>
<pdfrwt beam="2">  1       -2 0.27506894E-01 0.24265674E+03</pdfrwt>
<totfact> 0.56463428E+03</totfact>
</mgrwt>
</event>
<event>
 4    1  0.1672993E-004  0.2781772E+03  0.7818608E-02  0.1096689E+00
          2   -1    0    0  501    0  0.00000000000E+00  0.00000000000E+00  0.64219289961E+03  0.64219289961E+03  0.00000000000E+00 0.  1.
         -2   -1    0    0    0  501 -0.00000000000E+00 -0.00000000000E+00 -0.30124334330E+02  0.30124334330E+02  0.00000000000E+00 0.  1.
         25    1    1    2    0    0  0.16406244253E+02 -0.27057281696E+02  0.15424478715E+03  0.19797150226E+03  0.12000000000E+03 0.  0.
         25    1    1    2    0    0 -0.16406244253E+02  0.27057281696E+02  0.45782377813E+03  0.47434573168E+03  0.12000000000E+03 0.  0.
<mgrwt>
<rscale>  0 0.27817716E+03</rscale>
<asrwt>0</asrwt>
<pdfrwt beam="1">  1        2 0.98798897E-01 0.27817716E+03</pdfrwt>
<pdfrwt beam="2">  1       -2 0.46345135E-02 0.27817716E+03</pdfrwt>
<totfact> 0.10194629E+04</totfact>
</mgrwt>
</event>
<event>
 4    1  0.1672993E-004  0.2776806E+03  0.7818608E-02  0.1096963E+00
          2   -1    0    0  501    0  0.00000000000E+00  0.00000000000E+00  0.10913526569E+04  0.10913526569E+04  0.00000000000E+00 0.  1.
         -2   -1    0    0    0  501 -0.00000000000E+00 -0.00000000000E+00 -0.17663059434E+02  0.17663059434E+02  0.00000000000E+00 0.  1.
         25    1    1    2    0    0 -0.68505476804E+02 -0.78715605622E+01  0.49279184236E+03  0.51185814609E+03  0.12000000000E+03 0.  0.
         25    1    1    2    0    0  0.68505476804E+02  0.78715605622E+01  0.58089775509E+03  0.59715757023E+03  0.12000000000E+03 0.  0.
<mgrwt>
<rscale>  0 0.27768059E+03</rscale>
<asrwt>0</asrwt>
<pdfrwt beam="1">  1        2 0.16790036E+00 0.27768059E+03</pdfrwt>
<pdfrwt beam="2">  1       -2 0.27173946E-02 0.27768059E+03</pdfrwt>
<totfact> 0.11331007E+04</totfact>
</mgrwt>
</event>
<event>
 4    1  0.1672993E-004  0.3039711E+03  0.7818608E-02  0.1083272E+00
         -2   -1    0    0    0  501 -0.00000000000E+00  0.00000000000E+00  0.28015183574E+02  0.28015183574E+02  0.00000000000E+00 0. -1.
          2   -1    0    0  501    0  0.00000000000E+00 -0.00000000000E+00 -0.82453887739E+03  0.82453887739E+03  0.00000000000E+00 0. -1.
         25    1    1    2    0    0 -0.49144126848E+02  0.69574038673E+02 -0.50483813343E+03  0.52584905917E+03  0.12000000000E+03 0.  0.
         25    1    1    2    0    0  0.49144126848E+02 -0.69574038673E+02 -0.29168556038E+03  0.32670500179E+03  0.12000000000E+03 0.  0.
<mgrwt>
<rscale>  0 0.30397110E+03</rscale>
<asrwt>0</asrwt>
<pdfrwt beam="1">  1        2 0.12685213E+00 0.30397110E+03</pdfrwt>
<pdfrwt beam="2">  1       -2 0.43100284E-02 0.30397110E+03</pdfrwt>
<totfact> 0.83813427E+03</totfact>
</mgrwt>
</event>
<event>
 4    1  0.1672993E-004  0.2556109E+03  0.7818608E-02  0.1109809E+00
          3   -1    0    0  501    0  0.00000000000E+00  0.00000000000E+00  0.35703573733E+03  0.35703573733E+03  0.00000000000E+00 0.  1.
         -3   -1    0    0    0  501 -0.00000000000E+00 -0.00000000000E+00 -0.45749592079E+02  0.45749592079E+02  0.00000000000E+00 0.  1.
         25    1    1    2    0    0 -0.34406584738E+02  0.37568041985E+00  0.11248049615E+03  0.16803516365E+03  0.12000000000E+03 0.  0.
         25    1    1    2    0    0  0.34406584738E+02 -0.37568041985E+00  0.19880564910E+03  0.23475016576E+03  0.12000000000E+03 0.  0.
<mgrwt>
<rscale>  0 0.25561095E+03</rscale>
<asrwt>0</asrwt>
<pdfrwt beam="1">  1        3 0.54928573E-01 0.25561095E+03</pdfrwt>
<pdfrwt beam="2">  1       -3 0.70383990E-02 0.25561095E+03</pdfrwt>
<totfact> 0.10958210E+03</totfact>
</mgrwt>
</event>
<event>
 4    1  0.1672993E-004  0.2785033E+03  0.7818608E-02  0.1096509E+00
         -2   -1    0    0    0  501 -0.00000000000E+00  0.00000000000E+00  0.13911376576E+02  0.13911376576E+02  0.00000000000E+00 0.  1.
          2   -1    0    0  501    0  0.00000000000E+00 -0.00000000000E+00 -0.13938970924E+04  0.13938970924E+04  0.00000000000E+00 0.  1.
         25    1    1    2    0    0  0.59463697243E+02  0.14829633384E+02 -0.86764806848E+03  0.87804841555E+03  0.12000000000E+03 0.  0.
         25    1    1    2    0    0 -0.59463697243E+02 -0.14829633384E+02 -0.51233764732E+03  0.52976005340E+03  0.12000000000E+03 0.  0.
<mgrwt>
<rscale>  0 0.27850334E+03</rscale>
<asrwt>0</asrwt>
<pdfrwt beam="1">  1        2 0.21444564E+00 0.27850334E+03</pdfrwt>
<pdfrwt beam="2">  1       -2 0.21402125E-02 0.27850334E+03</pdfrwt>
<totfact> 0.10893974E+04</totfact>
</mgrwt>
</event>
<event>
 4    1  0.1672993E-004  0.2457095E+03  0.7818608E-02  0.1116047E+00
          1   -1    0    0  501    0  0.00000000000E+00  0.00000000000E+00  0.10920805733E+04  0.10920805733E+04  0.00000000000E+00 0. -1.
         -1   -1    0    0    0  501 -0.00000000000E+00 -0.00000000000E+00 -0.13820674173E+02  0.13820674173E+02  0.00000000000E+00 0. -1.
         25    1    1    2    0    0  0.11694781829E+02  0.90931146748E+01  0.63710352013E+03  0.64847540278E+03  0.12000000000E+03 0.  0.
         25    1    1    2    0    0 -0.11694781829E+02 -0.90931146748E+01  0.44115637897E+03  0.45742584466E+03  0.12000000000E+03 0.  0.
<mgrwt>
<rscale>  0 0.24570950E+03</rscale>
<asrwt>0</asrwt>
<pdfrwt beam="1">  1        1 0.16801233E+00 0.24570950E+03</pdfrwt>
<pdfrwt beam="2">  1       -1 0.21262584E-02 0.24570950E+03</pdfrwt>
<totfact> 0.85290295E+03</totfact>
</mgrwt>
</event>
<event>
 4    1  0.1672993E-004  0.2708319E+03  0.7818608E-02  0.1100804E+00
         -1   -1    0    0    0  501 -0.00000000000E+00  0.00000000000E+00  0.36030851363E+02  0.36030851363E+02  0.00000000000E+00 0.  1.
          1   -1    0    0  501    0  0.00000000000E+00 -0.00000000000E+00 -0.50893825297E+03  0.50893825297E+03  0.00000000000E+00 0.  1.
         25    1    1    2    0    0  0.17821902616E+02 -0.60154996485E+02 -0.23421777060E+03  0.27054428081E+03  0.12000000000E+03 0.  0.
         25    1    1    2    0    0 -0.17821902616E+02  0.60154996485E+02 -0.23868963101E+03  0.27442482353E+03  0.12000000000E+03 0.  0.
<mgrwt>
<rscale>  0 0.27083189E+03</rscale>
<asrwt>0</asrwt>
<pdfrwt beam="1">  1        1 0.78298193E-01 0.27083189E+03</pdfrwt>
<pdfrwt beam="2">  1       -1 0.55432079E-02 0.27083189E+03</pdfrwt>
<totfact> 0.66061703E+03</totfact>
</mgrwt>
</event>
<event>
 4    1  0.1672993E-004  0.2716473E+03  0.7818608E-02  0.1100340E+00
          1   -1    0    0  501    0  0.00000000000E+00  0.00000000000E+00  0.15714817473E+04  0.15714817473E+04  0.00000000000E+00 0. -1.
         -1   -1    0    0    0  501 -0.00000000000E+00 -0.00000000000E+00 -0.11739280736E+02  0.11739280736E+02  0.00000000000E+00 0. -1.
         25    1    1    2    0    0 -0.15556371298E+02  0.30907747903E+02  0.10910555302E+04  0.10981800670E+04  0.12000000000E+03 0.  0.
         25    1    1    2    0    0  0.15556371298E+02 -0.30907747903E+02  0.46868693640E+03  0.48504096108E+03  0.12000000000E+03 0.  0.
<mgrwt>
<rscale>  0 0.27164731E+03</rscale>
<asrwt>0</asrwt>
<pdfrwt beam="1">  1        1 0.24176626E+00 0.27164731E+03</pdfrwt>
<pdfrwt beam="2">  1       -1 0.18060444E-02 0.27164731E+03</pdfrwt>
<totfact> 0.51088024E+03</totfact>
</mgrwt>
</event>
<event>
 4    1  0.1672993E-004  0.2917539E+03  0.7818608E-02  0.1089437E+00
         -2   -1    0    0    0  501 -0.00000000000E+00  0.00000000000E+00  0.22353515623E+02  0.22353515623E+02  0.00000000000E+00 0. -1.
          2   -1    0    0  501    0  0.00000000000E+00 -0.00000000000E+00 -0.95197912610E+03  0.95197912610E+03  0.00000000000E+00 0. -1.
         25    1    1    2    0    0 -0.26582324234E+02  0.70437367947E+02 -0.34854789657E+03  0.37623620104E+03  0.12000000000E+03 0.  0.
         25    1    1    2    0    0  0.26582324234E+02 -0.70437367947E+02 -0.58107771391E+03  0.59809644069E+03  0.12000000000E+03 0.  0.
<mgrwt>
<rscale>  0 0.29175387E+03</rscale>
<asrwt>0</asrwt>
<pdfrwt beam="1">  1        2 0.14645837E+00 0.29175387E+03</pdfrwt>
<pdfrwt beam="2">  1       -2 0.34390013E-02 0.29175387E+03</pdfrwt>
<totfact> 0.97080061E+03</totfact>
</mgrwt>
</event>
<event>
 4    1  0.1672993E-004  0.2772629E+03  0.7818608E-02  0.1097193E+00
         -1   -1    0    0    0  501 -0.00000000000E+00  0.00000000000E+00  0.75825040467E+02  0.75825040467E+02  0.00000000000E+00 0. -1.
          1   -1    0    0  501    0  0.00000000000E+00 -0.00000000000E+00 -0.25346079163E+03  0.25346079163E+03  0.00000000000E+00 0. -1.
         25    1    1    2    0    0 -0.54514669072E+02 -0.36466060812E+02 -0.61812609460E+02  0.15007471947E+03  0.12000000000E+03 0.  0.
         25    1    1    2    0    0  0.54514669072E+02  0.36466060812E+02 -0.11582314170E+03  0.17921111262E+03  0.12000000000E+03 0.  0.
<mgrwt>
<rscale>  0 0.27726287E+03</rscale>
<asrwt>0</asrwt>
<pdfrwt beam="1">  1        1 0.38993968E-01 0.27726287E+03</pdfrwt>
<pdfrwt beam="2">  1       -1 0.11665391E-01 0.27726287E+03</pdfrwt>
<totfact> 0.51648883E+03</totfact>
</mgrwt>
</event>
<event>
 4    1  0.1672993E-004  0.2950558E+03  0.7818608E-02  0.1087739E+00
          2   -1    0    0  501    0  0.00000000000E+00  0.00000000000E+00  0.64599556368E+03  0.64599556368E+03  0.00000000000E+00 0. -1.
         -2   -1    0    0    0  501 -0.00000000000E+00 -0.00000000000E+00 -0.33691386364E+02  0.33691386364E+02  0.00000000000E+00 0. -1.
         25    1    1    2    0    0  0.68771437616E+02  0.14255293757E+02  0.41974867200E+03  0.44217832565E+03  0.12000000000E+03 0.  0.
         25    1    1    2    0    0 -0.68771437616E+02 -0.14255293757E+02  0.19255550531E+03  0.23750862439E+03  0.12000000000E+03 0.  0.
<mgrwt>
<rscale>  0 0.29505583E+03</rscale>
<asrwt>0</asrwt>
<pdfrwt beam="1">  1        2 0.99383924E-01 0.29505583E+03</pdfrwt>
<pdfrwt beam="2">  1       -2 0.51832907E-02 0.29505583E+03</pdfrwt>
<totfact> 0.85566631E+03</totfact>
</mgrwt>
</event>
<event>
 4    1  0.1672993E-004  0.2697032E+03  0.7818608E-02  0.1101450E+00
          2   -1    0    0  501    0  0.00000000000E+00  0.00000000000E+00  0.15753404567E+04  0.15753404567E+04  0.00000000000E+00 0.  1.
         -2   -1    0    0    0  501 -0.00000000000E+00 -0.00000000000E+00 -0.11543507898E+02  0.11543507898E+02  0.00000000000E+00 0.  1.
         25    1    1    2    0    0 -0.17985177857E+02 -0.33075005735E+02  0.49560791708E+03  0.51131656545E+03  0.12000000000E+03 0.  0.
         25    1    1    2    0    0  0.17985177857E+02  0.33075005735E+02  0.10681890317E+04  0.10755673992E+04  0.12000000000E+03 0.  0.
<mgrwt>
<rscale>  0 0.26970321E+03</rscale>
<asrwt>0</asrwt>
<pdfrwt beam="1">  1        2 0.24235990E+00 0.26970321E+03</pdfrwt>
<pdfrwt beam="2">  1       -2 0.17759255E-02 0.26970321E+03</pdfrwt>
<totfact> 0.11446403E+04</totfact>
</mgrwt>
</event>
<event>
 4    1  0.1672993E-004  0.3138262E+03  0.7818608E-02  0.1078526E+00
         -2   -1    0    0    0  501 -0.00000000000E+00  0.00000000000E+00  0.30527766185E+02  0.30527766185E+02  0.00000000000E+00 0. -1.
          2   -1    0    0  501    0  0.00000000000E+00 -0.00000000000E+00 -0.80653508752E+03  0.80653508752E+03  0.00000000000E+00 0. -1.
         25    1    1    2    0    0 -0.65379326849E+02  0.13042957134E+02 -0.59073708388E+03  0.60647743353E+03  0.12000000000E+03 0.  0.
         25    1    1    2    0    0  0.65379326849E+02 -0.13042957134E+02 -0.18527023745E+03  0.23058542017E+03  0.12000000000E+03 0.  0.
<mgrwt>
<rscale>  0 0.31382616E+03</rscale>
<asrwt>0</asrwt>
<pdfrwt beam="1">  1        2 0.12408232E+00 0.31382616E+03</pdfrwt>
<pdfrwt beam="2">  1       -2 0.46965795E-02 0.31382616E+03</pdfrwt>
<totfact> 0.75760513E+03</totfact>
</mgrwt>
</event>
<event>
 4    1  0.1672993E-004  0.3202524E+03  0.7818608E-02  0.1075533E+00
         -1   -1    0    0    0  501 -0.00000000000E+00  0.00000000000E+00  0.26211219764E+02  0.26211219764E+02  0.00000000000E+00 0.  1.
          1   -1    0    0  501    0  0.00000000000E+00 -0.00000000000E+00 -0.97822228862E+03  0.97822228862E+03  0.00000000000E+00 0.  1.
         25    1    1    2    0    0  0.93831451219E+02  0.15359105570E+02 -0.32889101280E+03  0.36278029393E+03  0.12000000000E+03 0.  0.
         25    1    1    2    0    0 -0.93831451219E+02 -0.15359105570E+02 -0.62312005605E+03  0.64165321445E+03  0.12000000000E+03 0.  0.
<mgrwt>
<rscale>  0 0.32025240E+03</rscale>
<asrwt>0</asrwt>
<pdfrwt beam="1">  1        1 0.15049573E+00 0.32025240E+03</pdfrwt>
<pdfrwt beam="2">  1       -1 0.40324954E-02 0.32025240E+03</pdfrwt>
<totfact> 0.40449760E+03</totfact>
</mgrwt>
</event>
<event>
 4    1  0.1672993E-004  0.2710167E+03  0.7818608E-02  0.1100699E+00
         -1   -1    0    0    0  501 -0.00000000000E+00  0.00000000000E+00  0.30193944485E+02  0.30193944485E+02  0.00000000000E+00 0. -1.
          1   -1    0    0  501    0  0.00000000000E+00 -0.00000000000E+00 -0.60815234213E+03  0.60815234213E+03  0.00000000000E+00 0. -1.
         25    1    1    2    0    0 -0.18771120086E+02 -0.45560546491E+02 -0.19671579415E+03  0.23563790445E+03  0.12000000000E+03 0.  0.
         25    1    1    2    0    0  0.18771120086E+02  0.45560546491E+02 -0.38124260349E+03  0.40270838216E+03  0.12000000000E+03 0.  0.
<mgrwt>
<rscale>  0 0.27101674E+03</rscale>
<asrwt>0</asrwt>
<pdfrwt beam="1">  1        1 0.93561901E-01 0.27101674E+03</pdfrwt>
<pdfrwt beam="2">  1       -1 0.46452221E-02 0.27101674E+03</pdfrwt>
<totfact> 0.67556706E+03</totfact>
</mgrwt>
</event>
<event>
 4    1  0.1672993E-004  0.2857217E+03  0.7818608E-02  0.1092604E+00
         -3   -1    0    0    0  501 -0.00000000000E+00  0.00000000000E+00  0.37378688646E+03  0.37378688646E+03  0.00000000000E+00 0. -1.
          3   -1    0    0  501    0  0.00000000000E+00 -0.00000000000E+00 -0.54601216889E+02  0.54601216889E+02  0.00000000000E+00 0. -1.
         25    1    1    2    0    0 -0.38912046060E+02 -0.66376895403E+02  0.14543404253E+03  0.20364454400E+03  0.12000000000E+03 0.  0.
         25    1    1    2    0    0  0.38912046060E+02  0.66376895403E+02  0.17375162704E+03  0.22474355935E+03  0.12000000000E+03 0.  0.
<mgrwt>
<rscale>  0 0.28572167E+03</rscale>
<asrwt>0</asrwt>
<pdfrwt beam="1">  1        3 0.84001875E-02 0.28572167E+03</pdfrwt>
<pdfrwt beam="2">  1       -3 0.57505673E-01 0.28572167E+03</pdfrwt>
<totfact> 0.75470822E+02</totfact>
</mgrwt>
</event>
<event>
 4    1  0.1672993E-004  0.2775176E+03  0.7818608E-02  0.1097053E+00
         -2   -1    0    0    0  501 -0.00000000000E+00  0.00000000000E+00  0.23092447049E+03  0.23092447049E+03  0.00000000000E+00 0. -1.
          2   -1    0    0  501    0  0.00000000000E+00 -0.00000000000E+00 -0.83377935878E+02  0.83377935878E+02  0.00000000000E+00 0. -1.
         25    1    1    2    0    0 -0.44253842414E+02 -0.18703933464E+02  0.13091671022E+03  0.18397669611E+03  0.12000000000E+03 0.  0.
         25    1    1    2    0    0  0.44253842414E+02  0.18703933464E+02  0.16629824390E+02  0.13032571026E+03  0.12000000000E+03 0.  0.
<mgrwt>
<rscale>  0 0.27751761E+03</rscale>
<asrwt>0</asrwt>
<pdfrwt beam="1">  1        2 0.12827375E-01 0.27751761E+03</pdfrwt>
<pdfrwt beam="2">  1       -2 0.35526841E-01 0.27751761E+03</pdfrwt>
<totfact> 0.35012547E+03</totfact>
</mgrwt>
</event>
<event>
 4    1  0.1672993E-004  0.2729574E+03  0.7818608E-02  0.1099599E+00
          2   -1    0    0  501    0  0.00000000000E+00  0.00000000000E+00  0.14710515014E+03  0.14710515014E+03  0.00000000000E+00 0. -1.
         -2   -1    0    0    0  501 -0.00000000000E+00 -0.00000000000E+00 -0.12661989701E+03  0.12661989701E+03  0.00000000000E+00 0. -1.
         25    1    1    2    0    0  0.36367160364E+02  0.53419972876E+02  0.17345985678E+02  0.13739413042E+03  0.12000000000E+03 0.  0.
         25    1    1    2    0    0 -0.36367160364E+02 -0.53419972876E+02  0.31392674543E+01  0.13633091673E+03  0.12000000000E+03 0.  0.
<mgrwt>
<rscale>  0 0.27295742E+03</rscale>
<asrwt>0</asrwt>
<pdfrwt beam="1">  1        2 0.22631562E-01 0.27295742E+03</pdfrwt>
<pdfrwt beam="2">  1       -2 0.19479984E-01 0.27295742E+03</pdfrwt>
<totfact> 0.52590000E+03</totfact>
</mgrwt>
</event>
<event>
 4    1  0.1672993E-004  0.2546923E+03  0.7818608E-02  0.1110375E+00
          3   -1    0    0  501    0  0.00000000000E+00  0.00000000000E+00  0.26619147960E+03  0.26619147960E+03  0.00000000000E+00 0.  1.
         -3   -1    0    0    0  501 -0.00000000000E+00 -0.00000000000E+00 -0.60922472204E+02  0.60922472204E+02  0.00000000000E+00 0.  1.
         25    1    1    2    0    0 -0.44513636292E+01  0.30727226971E+02  0.65122131478E+02  0.14001738865E+03  0.12000000000E+03 0.  0.
         25    1    1    2    0    0  0.44513636292E+01 -0.30727226971E+02  0.14014687592E+03  0.18709656316E+03  0.12000000000E+03 0.  0.
<mgrwt>
<rscale>  0 0.25469231E+03</rscale>
<asrwt>0</asrwt>
<pdfrwt beam="1">  1        3 0.40952535E-01 0.25469231E+03</pdfrwt>
<pdfrwt beam="2">  1       -3 0.93726882E-02 0.25469231E+03</pdfrwt>
<totfact> 0.12297846E+03</totfact>
</mgrwt>
</event>
<event>
 4    1  0.1672993E-004  0.2968641E+03  0.7818608E-02  0.1086819E+00
          1   -1    0    0  501    0  0.00000000000E+00  0.00000000000E+00  0.49473831915E+02  0.49473831915E+02  0.00000000000E+00 0.  1.
         -1   -1    0    0    0  501 -0.00000000000E+00 -0.00000000000E+00 -0.44532794225E+03  0.44532794225E+03  0.00000000000E+00 0.  1.
         25    1    1    2    0    0  0.71297686171E+02  0.18170091970E+02 -0.11941979430E+03  0.18459306479E+03  0.12000000000E+03 0.  0.
         25    1    1    2    0    0 -0.71297686171E+02 -0.18170091970E+02 -0.27643431603E+03  0.31020870938E+03  0.12000000000E+03 0.  0.
<mgrwt>
<rscale>  0 0.29686414E+03</rscale>
<asrwt>0</asrwt>
<pdfrwt beam="1">  1        1 0.76113588E-02 0.29686414E+03</pdfrwt>
<pdfrwt beam="2">  1       -1 0.68511991E-01 0.29686414E+03</pdfrwt>
<totfact> 0.20840513E+03</totfact>
</mgrwt>
</event>
<event>
 4    1  0.1672993E-004  0.3569519E+03  0.7818608E-02  0.1059797E+00
          2   -1    0    0  501    0  0.00000000000E+00  0.00000000000E+00  0.40103798605E+03  0.40103798605E+03  0.00000000000E+00 0. -1.
         -2   -1    0    0    0  501 -0.00000000000E+00 -0.00000000000E+00 -0.79428050247E+02  0.79428050247E+02  0.00000000000E+00 0. -1.
         25    1    1    2    0    0  0.16530905496E+02 -0.80693346006E+02  0.21773083592E+02  0.14716913432E+03  0.12000000000E+03 0.  0.
         25    1    1    2    0    0 -0.16530905496E+02  0.80693346006E+02  0.29983685221E+03  0.33329690198E+03  0.12000000000E+03 0.  0.
<mgrwt>
<rscale>  0 0.35695190E+03</rscale>
<asrwt>0</asrwt>
<pdfrwt beam="1">  1        2 0.61698151E-01 0.35695190E+03</pdfrwt>
<pdfrwt beam="2">  1       -2 0.12219700E-01 0.35695190E+03</pdfrwt>
<totfact> 0.38362078E+03</totfact>
</mgrwt>
</event>
<event>
 4    1  0.1672993E-004  0.3125493E+03  0.7818608E-02  0.1079130E+00
          2   -1    0    0  501    0  0.00000000000E+00  0.00000000000E+00  0.39943646558E+03  0.39943646558E+03  0.00000000000E+00 0.  1.
         -2   -1    0    0    0  501 -0.00000000000E+00 -0.00000000000E+00 -0.61140566066E+02  0.61140566066E+02  0.00000000000E+00 0.  1.
         25    1    1    2    0    0  0.58034793790E+02 -0.81342242049E+02  0.16016325688E+03  0.22368921853E+03  0.12000000000E+03 0.  0.
         25    1    1    2    0    0 -0.58034793790E+02  0.81342242049E+02  0.17813264264E+03  0.23688781312E+03  0.12000000000E+03 0.  0.
<mgrwt>
<rscale>  0 0.31254933E+03</rscale>
<asrwt>0</asrwt>
<pdfrwt beam="1">  1        2 0.61451762E-01 0.31254933E+03</pdfrwt>
<pdfrwt beam="2">  1       -2 0.94062412E-02 0.31254933E+03</pdfrwt>
<totfact> 0.58483322E+03</totfact>
</mgrwt>
</event>
<event>
 4    1  0.1672993E-004  0.2992314E+03  0.7818608E-02  0.1085625E+00
          2   -1    0    0  501    0  0.00000000000E+00  0.00000000000E+00  0.16415258228E+03  0.16415258228E+03  0.00000000000E+00 0.  1.
         -2   -1    0    0    0  501 -0.00000000000E+00 -0.00000000000E+00 -0.13636617374E+03  0.13636617374E+03  0.00000000000E+00 0.  1.
         25    1    1    2    0    0 -0.63336935233E+02 -0.13060156027E+02 -0.48038328979E+02  0.14453309687E+03  0.12000000000E+03 0.  0.
         25    1    1    2    0    0  0.63336935233E+02  0.13060156027E+02  0.75824737522E+02  0.15598565915E+03  0.12000000000E+03 0.  0.
<mgrwt>
<rscale>  0 0.29923141E+03</rscale>
<asrwt>0</asrwt>
<pdfrwt beam="1">  1        2 0.25254244E-01 0.29923141E+03</pdfrwt>
<pdfrwt beam="2">  1       -2 0.20979411E-01 0.29923141E+03</pdfrwt>
<totfact> 0.41057694E+03</totfact>
</mgrwt>
</event>
<event>
 4    1  0.1672993E-004  0.2658809E+03  0.7818608E-02  0.1103660E+00
         -1   -1    0    0    0  501 -0.00000000000E+00  0.00000000000E+00  0.25884623469E+03  0.25884623469E+03  0.00000000000E+00 0.  1.
          1   -1    0    0  501    0  0.00000000000E+00 -0.00000000000E+00 -0.68276698383E+02  0.68276698383E+02  0.00000000000E+00 0.  1.
         25    1    1    2    0    0 -0.53977027829E+02  0.15596047705E+02  0.82010240916E+02  0.15582822547E+03  0.12000000000E+03 0.  0.
         25    1    1    2    0    0  0.53977027829E+02 -0.15596047705E+02  0.10855929539E+03  0.17129470760E+03  0.12000000000E+03 0.  0.
<mgrwt>
<rscale>  0 0.26588092E+03</rscale>
<asrwt>0</asrwt>
<pdfrwt beam="1">  1        1 0.10504108E-01 0.26588092E+03</pdfrwt>
<pdfrwt beam="2">  1       -1 0.39822497E-01 0.26588092E+03</pdfrwt>
<totfact> 0.37121123E+03</totfact>
</mgrwt>
</event>
<event>
 4    1  0.1672993E-004  0.2650904E+03  0.7818608E-02  0.1104123E+00
          2   -1    0    0  501    0  0.00000000000E+00  0.00000000000E+00  0.27073694497E+02  0.27073694497E+02  0.00000000000E+00 0.  1.
         -2   -1    0    0    0  501 -0.00000000000E+00 -0.00000000000E+00 -0.64890413996E+03  0.64890413996E+03  0.00000000000E+00 0.  1.
         25    1    1    2    0    0  0.48202705772E+02  0.20701148327E+02 -0.25889330442E+03  0.29013407497E+03  0.12000000000E+03 0.  0.
         25    1    1    2    0    0 -0.48202705772E+02 -0.20701148327E+02 -0.36293714104E+03  0.38584375948E+03  0.12000000000E+03 0.  0.
<mgrwt>
<rscale>  0 0.26509042E+03</rscale>
<asrwt>0</asrwt>
<pdfrwt beam="1">  1        2 0.41651837E-02 0.26509042E+03</pdfrwt>
<pdfrwt beam="2">  1       -2 0.99831407E-01 0.26509042E+03</pdfrwt>
<totfact> 0.17240189E+03</totfact>
</mgrwt>
</event>
<event>
 4    1  0.1672993E-004  0.3036106E+03  0.7818608E-02  0.1083450E+00
         -2   -1    0    0    0  501 -0.00000000000E+00  0.00000000000E+00  0.34259116219E+02  0.34259116219E+02  0.00000000000E+00 0. -1.
          2   -1    0    0  501    0  0.00000000000E+00 -0.00000000000E+00 -0.67266328171E+03  0.67266328171E+03  0.00000000000E+00 0. -1.
         25    1    1    2    0    0  0.33659360794E+02  0.47045122132E+02 -0.48868954077E+03  0.50652113810E+03  0.12000000000E+03 0.  0.
         25    1    1    2    0    0 -0.33659360794E+02 -0.47045122132E+02 -0.14971462473E+03  0.20040125983E+03  0.12000000000E+03 0.  0.
<mgrwt>
<rscale>  0 0.30361060E+03</rscale>
<asrwt>0</asrwt>
<pdfrwt beam="1">  1        2 0.10348666E+00 0.30361060E+03</pdfrwt>
<pdfrwt beam="2">  1       -2 0.52706333E-02 0.30361060E+03</pdfrwt>
<totfact> 0.79540691E+03</totfact>
</mgrwt>
</event>
<event>
 4    1  0.1672993E-004  0.2642111E+03  0.7818608E-02  0.1104639E+00
         -1   -1    0    0    0  501 -0.00000000000E+00  0.00000000000E+00  0.44648444215E+03  0.44648444215E+03  0.00000000000E+00 0.  1.
          1   -1    0    0  501    0  0.00000000000E+00 -0.00000000000E+00 -0.39087318349E+02  0.39087318349E+02  0.00000000000E+00 0.  1.
         25    1    1    2    0    0 -0.29403434967E+02  0.40370449021E+02  0.24709379706E+03  0.27919469853E+03  0.12000000000E+03 0.  0.
         25    1    1    2    0    0  0.29403434967E+02 -0.40370449021E+02  0.16030332674E+03  0.20637706197E+03  0.12000000000E+03 0.  0.
<mgrwt>
<rscale>  0 0.26421112E+03</rscale>
<asrwt>0</asrwt>
<pdfrwt beam="1">  1        1 0.60134339E-02 0.26421112E+03</pdfrwt>
<pdfrwt beam="2">  1       -1 0.68689911E-01 0.26421112E+03</pdfrwt>
<totfact> 0.28565581E+03</totfact>
</mgrwt>
</event>
<event>
 4    1  0.1672993E-004  0.2825318E+03  0.7818608E-02  0.1094314E+00
          1   -1    0    0  501    0  0.00000000000E+00  0.00000000000E+00  0.25221320696E+03  0.25221320696E+03  0.00000000000E+00 0. -1.
         -1   -1    0    0    0  501 -0.00000000000E+00 -0.00000000000E+00 -0.79123737753E+02  0.79123737753E+02  0.00000000000E+00 0. -1.
         25    1    1    2    0    0  0.15161331519E+02  0.71626797483E+02  0.70135244040E+02  0.15709620157E+03  0.12000000000E+03 0.  0.
         25    1    1    2    0    0 -0.15161331519E+02 -0.71626797483E+02  0.10295422516E+03  0.17424074314E+03  0.12000000000E+03 0.  0.
<mgrwt>
<rscale>  0 0.28253178E+03</rscale>
<asrwt>0</asrwt>
<pdfrwt beam="1">  1        1 0.38802031E-01 0.28253178E+03</pdfrwt>
<pdfrwt beam="2">  1       -1 0.12172883E-01 0.28253178E+03</pdfrwt>
<totfact> 0.48653377E+03</totfact>
</mgrwt>
</event>
<event>
 4    1  0.1672993E-004  0.3209726E+03  0.7818608E-02  0.1075203E+00
          1   -1    0    0  501    0  0.00000000000E+00  0.00000000000E+00  0.32418461016E+02  0.32418461016E+02  0.00000000000E+00 0. -1.
         -1   -1    0    0    0  501 -0.00000000000E+00 -0.00000000000E+00 -0.79448089382E+03  0.79448089382E+03  0.00000000000E+00 0. -1.
         25    1    1    2    0    0 -0.59939168269E+02  0.71273085577E+00 -0.15405030115E+03  0.20426626536E+03  0.12000000000E+03 0.  0.
         25    1    1    2    0    0  0.59939168269E+02 -0.71273085577E+00 -0.60801213166E+03  0.62263308948E+03  0.12000000000E+03 0.  0.
<mgrwt>
<rscale>  0 0.32097257E+03</rscale>
<asrwt>0</asrwt>
<pdfrwt beam="1">  1        1 0.49874556E-02 0.32097257E+03</pdfrwt>
<pdfrwt beam="2">  1       -1 0.12222783E+00 0.32097257E+03</pdfrwt>
<totfact> 0.10593190E+03</totfact>
</mgrwt>
</event>
<event>
 4    1  0.1672993E-004  0.2857815E+03  0.7818608E-02  0.1092572E+00
         -2   -1    0    0    0  501 -0.00000000000E+00  0.00000000000E+00  0.17966215220E+03  0.17966215220E+03  0.00000000000E+00 0. -1.
          2   -1    0    0  501    0  0.00000000000E+00 -0.00000000000E+00 -0.11364534268E+03  0.11364534268E+03  0.00000000000E+00 0. -1.
         25    1    1    2    0    0  0.50362696729E+02  0.58331050623E+02  0.42122243954E+02  0.14870506422E+03  0.12000000000E+03 0.  0.
         25    1    1    2    0    0 -0.50362696729E+02 -0.58331050623E+02  0.23894565566E+02  0.14460243066E+03  0.12000000000E+03 0.  0.
<mgrwt>
<rscale>  0 0.28578150E+03</rscale>
<asrwt>0</asrwt>
<pdfrwt beam="1">  1        2 0.17483899E-01 0.28578150E+03</pdfrwt>
<pdfrwt beam="2">  1       -2 0.27640331E-01 0.28578150E+03</pdfrwt>
<totfact> 0.38422393E+03</totfact>
</mgrwt>
</event>
<event>
 4    1  0.1672993E-004  0.2733097E+03  0.7818608E-02  0.1099400E+00
          2   -1    0    0  501    0  0.00000000000E+00  0.00000000000E+00  0.21410487600E+03  0.21410487600E+03  0.00000000000E+00 0. -1.
         -2   -1    0    0    0  501 -0.00000000000E+00 -0.00000000000E+00 -0.87221510284E+02  0.87221510284E+02  0.00000000000E+00 0. -1.
         25    1    1    2    0    0  0.46132334005E+02  0.30366492318E+02  0.10201743503E+03  0.16690677981E+03  0.12000000000E+03 0.  0.
         25    1    1    2    0    0 -0.46132334005E+02 -0.30366492318E+02  0.24865930692E+02  0.13441960648E+03  0.12000000000E+03 0.  0.
<mgrwt>
<rscale>  0 0.27330972E+03</rscale>
<asrwt>0</asrwt>
<pdfrwt beam="1">  1        2 0.32939212E-01 0.27330972E+03</pdfrwt>
<pdfrwt beam="2">  1       -2 0.13418694E-01 0.27330972E+03</pdfrwt>
<totfact> 0.64585392E+03</totfact>
</mgrwt>
</event>
<event>
 4    1  0.1672993E-004  0.3111902E+03  0.7818608E-02  0.1079777E+00
         -3   -1    0    0    0  501 -0.00000000000E+00  0.00000000000E+00  0.13184010881E+03  0.13184010881E+03  0.00000000000E+00 0. -1.
          3   -1    0    0  501    0  0.00000000000E+00 -0.00000000000E+00 -0.18363028907E+03  0.18363028907E+03  0.00000000000E+00 0. -1.
         25    1    1    2    0    0  0.86471579143E+02 -0.35296813696E+02  0.75225035037E+01  0.15224909562E+03  0.12000000000E+03 0.  0.
         25    1    1    2    0    0 -0.86471579143E+02  0.35296813696E+02 -0.59312683766E+02  0.16322130226E+03  0.12000000000E+03 0.  0.
<mgrwt>
<rscale>  0 0.31119021E+03</rscale>
<asrwt>0</asrwt>
<pdfrwt beam="1">  1        3 0.28250814E-01 0.31119021E+03</pdfrwt>
<pdfrwt beam="2">  1       -3 0.20283094E-01 0.31119021E+03</pdfrwt>
<totfact> 0.67550763E+02</totfact>
</mgrwt>
</event>
<event>
 4    1  0.1672993E-004  0.2833355E+03  0.7818608E-02  0.1093881E+00
          2   -1    0    0  501    0  0.00000000000E+00  0.00000000000E+00  0.10545834641E+03  0.10545834641E+03  0.00000000000E+00 0.  1.
         -2   -1    0    0    0  501 -0.00000000000E+00 -0.00000000000E+00 -0.19030977144E+03  0.19030977144E+03  0.00000000000E+00 0.  1.
         25    1    1    2    0    0 -0.57760268926E+02  0.31283787976E+02 -0.80848839039E+02  0.15890707609E+03  0.12000000000E+03 0.  0.
         25    1    1    2    0    0  0.57760268926E+02 -0.31283787976E+02 -0.40025859865E+01  0.13686104176E+03  0.12000000000E+03 0.  0.
<mgrwt>
<rscale>  0 0.28333552E+03</rscale>
<asrwt>0</asrwt>
<pdfrwt beam="1">  1        2 0.16224361E-01 0.28333552E+03</pdfrwt>
<pdfrwt beam="2">  1       -2 0.29278427E-01 0.28333552E+03</pdfrwt>
<totfact> 0.37793938E+03</totfact>
</mgrwt>
</event>
<event>
 4    1  0.1672993E-004  0.2986492E+03  0.7818608E-02  0.1085918E+00
          2   -1    0    0  501    0  0.00000000000E+00  0.00000000000E+00  0.17347462948E+04  0.17347462948E+04  0.00000000000E+00 0. -1.
         -2   -1    0    0    0  501 -0.00000000000E+00 -0.00000000000E+00 -0.12853660425E+02  0.12853660425E+02  0.00000000000E+00 0. -1.
         25    1    1    2    0    0 -0.22254687853E+02 -0.86028917744E+02  0.85355840305E+03  0.86652074022E+03  0.12000000000E+03 0.  0.
         25    1    1    2    0    0  0.22254687853E+02  0.86028917744E+02  0.86833423135E+03  0.88107921503E+03  0.12000000000E+03 0.  0.
<mgrwt>
<rscale>  0 0.29864922E+03</rscale>
<asrwt>0</asrwt>
<pdfrwt beam="1">  1        2 0.26688386E+00 0.29864922E+03</pdfrwt>
<pdfrwt beam="2">  1       -2 0.19774876E-02 0.29864922E+03</pdfrwt>
<totfact> 0.80610893E+03</totfact>
</mgrwt>
</event>
<event>
 4    1  0.1672993E-004  0.2752483E+03  0.7818608E-02  0.1098313E+00
         -1   -1    0    0    0  501 -0.00000000000E+00  0.00000000000E+00  0.17127893022E+03  0.17127893022E+03  0.00000000000E+00 0.  1.
          1   -1    0    0  501    0  0.00000000000E+00 -0.00000000000E+00 -0.11058223368E+03  0.11058223368E+03  0.00000000000E+00 0.  1.
         25    1    1    2    0    0  0.12969891317E+02 -0.39811493452E+02  0.84410991989E+02  0.15257256851E+03  0.12000000000E+03 0.  0.
         25    1    1    2    0    0 -0.12969891317E+02  0.39811493452E+02 -0.23714295449E+02  0.12928859540E+03  0.12000000000E+03 0.  0.
<mgrwt>
<rscale>  0 0.27524830E+03</rscale>
<asrwt>0</asrwt>
<pdfrwt beam="1">  1        1 0.17012651E-01 0.27524830E+03</pdfrwt>
<pdfrwt beam="2">  1       -1 0.26350605E-01 0.27524830E+03</pdfrwt>
<totfact> 0.39983124E+03</totfact>
</mgrwt>
</event>
<event>
 4    1  0.1672993E-004  0.3142108E+03  0.7818608E-02  0.1078345E+00
         -1   -1    0    0    0  501 -0.00000000000E+00  0.00000000000E+00  0.66005875767E+01  0.66005875767E+01  0.00000000000E+00 0.  1.
          1   -1    0    0  501    0  0.00000000000E+00 -0.00000000000E+00 -0.37393812370E+04  0.37393812370E+04  0.00000000000E+00 0.  1.
         25    1    1    2    0    0  0.16521038924E+02  0.79085004552E+02 -0.11358673248E+04  0.11450423408E+04  0.12000000000E+03 0.  0.
         25    1    1    2    0    0 -0.16521038924E+02 -0.79085004552E+02 -0.25969133246E+04  0.26009394838E+04  0.12000000000E+03 0.  0.
<mgrwt>
<rscale>  0 0.31421084E+03</rscale>
<asrwt>0</asrwt>
<pdfrwt beam="1">  1        1 0.57528856E+00 0.31421084E+03</pdfrwt>
<pdfrwt beam="2">  1       -1 0.10154765E-02 0.31421084E+03</pdfrwt>
<totfact> 0.37371092E+02</totfact>
</mgrwt>
</event>
<event>
 4    1  0.1672993E-004  0.3243953E+03  0.7818608E-02  0.1073644E+00
         -4   -1    0    0    0  501 -0.00000000000E+00  0.00000000000E+00  0.15702026411E+03  0.15702026411E+03  0.00000000000E+00 0. -1.
          4   -1    0    0  501    0  0.00000000000E+00 -0.00000000000E+00 -0.16754569771E+03  0.16754569771E+03  0.00000000000E+00 0. -1.
         25    1    1    2    0    0 -0.43208069650E+02 -0.32066524350E+01  0.94944118890E+02  0.15903334749E+03  0.12000000000E+03 0.  0.
         25    1    1    2    0    0  0.43208069650E+02  0.32066524350E+01 -0.10546955249E+03  0.16553261433E+03  0.12000000000E+03 0.  0.
<mgrwt>
<rscale>  0 0.32439525E+03</rscale>
<asrwt>0</asrwt>
<pdfrwt beam="1">  1        4 0.25776261E-01 0.32439525E+03</pdfrwt>
<pdfrwt beam="2">  1       -4 0.24156964E-01 0.32439525E+03</pdfrwt>
<totfact> 0.43181449E+02</totfact>
</mgrwt>
</event>
<event>
 4    1  0.1672993E-004  0.3201921E+03  0.7818608E-02  0.1075561E+00
         -1   -1    0    0    0  501 -0.00000000000E+00  0.00000000000E+00  0.24043346157E+04  0.24043346157E+04  0.00000000000E+00 0. -1.
          1   -1    0    0  501    0  0.00000000000E+00 -0.00000000000E+00 -0.10660221132E+02  0.10660221132E+02  0.00000000000E+00 0. -1.
         25    1    1    2    0    0 -0.17076574127E+02 -0.89685814153E+02  0.79097954738E+03  0.80522282569E+03  0.12000000000E+03 0.  0.
         25    1    1    2    0    0  0.17076574127E+02  0.89685814153E+02  0.16026948472E+04  0.16097720111E+04  0.12000000000E+03 0.  0.
<mgrwt>
<rscale>  0 0.32019206E+03</rscale>
<asrwt>0</asrwt>
<pdfrwt beam="1">  1        1 0.16400359E-02 0.32019206E+03</pdfrwt>
<pdfrwt beam="2">  1       -1 0.36989720E+00 0.32019206E+03</pdfrwt>
<totfact> 0.11061441E+02</totfact>
</mgrwt>
</event>
<event>
 4    1  0.1672993E-004  0.2833078E+03  0.7818608E-02  0.1093896E+00
          2   -1    0    0  501    0  0.00000000000E+00  0.00000000000E+00  0.81909518529E+03  0.81909518529E+03  0.00000000000E+00 0.  1.
         -2   -1    0    0    0  501 -0.00000000000E+00 -0.00000000000E+00 -0.24497549659E+02  0.24497549659E+02  0.00000000000E+00 0.  1.
         25    1    1    2    0    0  0.65958092801E+02 -0.36119020566E+02  0.38752624601E+03  0.41259137776E+03  0.12000000000E+03 0.  0.
         25    1    1    2    0    0 -0.65958092801E+02  0.36119020566E+02  0.40707138962E+03  0.43100135719E+03  0.12000000000E+03 0.  0.
<mgrwt>
<rscale>  0 0.28330778E+03</rscale>
<asrwt>0</asrwt>
<pdfrwt beam="1">  1        2 0.12601462E+00 0.28330778E+03</pdfrwt>
<pdfrwt beam="2">  1       -2 0.37688544E-02 0.28330778E+03</pdfrwt>
<totfact> 0.10327281E+04</totfact>
</mgrwt>
</event>
<event>
 4    1  0.1672993E-004  0.3260294E+03  0.7818608E-02  0.1072907E+00
          1   -1    0    0  501    0  0.00000000000E+00  0.00000000000E+00  0.24367016004E+03  0.24367016004E+03  0.00000000000E+00 0.  1.
         -1   -1    0    0    0  501 -0.00000000000E+00 -0.00000000000E+00 -0.10905639573E+03  0.10905639573E+03  0.00000000000E+00 0.  1.
         25    1    1    2    0    0 -0.76361312914E+02  0.52705574975E+02  0.13190245560E+03  0.20101538632E+03  0.12000000000E+03 0.  0.
         25    1    1    2    0    0  0.76361312914E+02 -0.52705574975E+02  0.27113087094E+01  0.15171116946E+03  0.12000000000E+03 0.  0.
<mgrwt>
<rscale>  0 0.32602938E+03</rscale>
<asrwt>0</asrwt>
<pdfrwt beam="1">  1        1 0.37487717E-01 0.32602938E+03</pdfrwt>
<pdfrwt beam="2">  1       -1 0.16777907E-01 0.32602938E+03</pdfrwt>
<totfact> 0.30655470E+03</totfact>
</mgrwt>
</event>
<event>
 4    1  0.1672993E-004  0.2817721E+03  0.7818608E-02  0.1094725E+00
          2   -1    0    0  501    0  0.00000000000E+00  0.00000000000E+00  0.23576049199E+04  0.23576049199E+04  0.00000000000E+00 0.  1.
         -2   -1    0    0    0  501 -0.00000000000E+00 -0.00000000000E+00 -0.84190875453E+01  0.84190875453E+01  0.00000000000E+00 0.  1.
         25    1    1    2    0    0 -0.20964889317E+02 -0.62622117344E+02  0.89764324621E+03  0.90803328883E+03  0.12000000000E+03 0.  0.
         25    1    1    2    0    0  0.20964889317E+02  0.62622117344E+02  0.14515425862E+04  0.14579907187E+04  0.12000000000E+03 0.  0.
<mgrwt>
<rscale>  0 0.28177212E+03</rscale>
<asrwt>0</asrwt>
<pdfrwt beam="1">  1        2 0.36270792E+00 0.28177212E+03</pdfrwt>
<pdfrwt beam="2">  1       -2 0.12952461E-02 0.28177212E+03</pdfrwt>
<totfact> 0.70103906E+03</totfact>
</mgrwt>
</event>
<event>
 4    1  0.1672993E-004  0.3180594E+03  0.7818608E-02  0.1076546E+00
          2   -1    0    0  501    0  0.00000000000E+00  0.00000000000E+00  0.10176826089E+04  0.10176826089E+04  0.00000000000E+00 0.  1.
         -2   -1    0    0    0  501 -0.00000000000E+00 -0.00000000000E+00 -0.24851010637E+02  0.24851010637E+02  0.00000000000E+00 0.  1.
         25    1    1    2    0    0 -0.90155675191E+02  0.23567959299E+02  0.65040058295E+03  0.66791048261E+03  0.12000000000E+03 0.  0.
         25    1    1    2    0    0  0.90155675191E+02 -0.23567959299E+02  0.34243101530E+03  0.37462313692E+03  0.12000000000E+03 0.  0.
<mgrwt>
<rscale>  0 0.31805937E+03</rscale>
<asrwt>0</asrwt>
<pdfrwt beam="1">  1        2 0.15656652E+00 0.31805937E+03</pdfrwt>
<pdfrwt beam="2">  1       -2 0.38232332E-02 0.31805937E+03</pdfrwt>
<totfact> 0.75538501E+03</totfact>
</mgrwt>
</event>
<event>
 4    1  0.1672993E-004  0.3454029E+03  0.7818608E-02  0.1064518E+00
         -3   -1    0    0    0  501 -0.00000000000E+00  0.00000000000E+00  0.83266366619E+02  0.83266366619E+02  0.00000000000E+00 0.  1.
          3   -1    0    0  501    0  0.00000000000E+00 -0.00000000000E+00 -0.35819741491E+03  0.35819741491E+03  0.00000000000E+00 0.  1.
         25    1    1    2    0    0  0.70432868206E+02 -0.92980274314E+02 -0.82944224722E+02  0.18677758096E+03  0.12000000000E+03 0.  0.
         25    1    1    2    0    0 -0.70432868206E+02  0.92980274314E+02 -0.19198682357E+03  0.25468620057E+03  0.12000000000E+03 0.  0.
<mgrwt>
<rscale>  0 0.34540294E+03</rscale>
<asrwt>0</asrwt>
<pdfrwt beam="1">  1        3 0.55107295E-01 0.34540294E+03</pdfrwt>
<pdfrwt beam="2">  1       -3 0.12810210E-01 0.34540294E+03</pdfrwt>
<totfact> 0.41291183E+02</totfact>
</mgrwt>
</event>
<event>
 4    1  0.1672993E-004  0.2690071E+03  0.7818608E-02  0.1101849E+00
         -2   -1    0    0    0  501 -0.00000000000E+00  0.00000000000E+00  0.49948145615E+02  0.49948145615E+02  0.00000000000E+00 0.  1.
          2   -1    0    0  501    0  0.00000000000E+00 -0.00000000000E+00 -0.36219961714E+03  0.36219961714E+03  0.00000000000E+00 0.  1.
         25    1    1    2    0    0 -0.54042778258E+02 -0.23273005365E+02 -0.17930792440E+03  0.22363717583E+03  0.12000000000E+03 0.  0.
         25    1    1    2    0    0  0.54042778258E+02  0.23273005365E+02 -0.13294354712E+03  0.18851058692E+03  0.12000000000E+03 0.  0.
<mgrwt>
<rscale>  0 0.26900706E+03</rscale>
<asrwt>0</asrwt>
<pdfrwt beam="1">  1        2 0.55723017E-01 0.26900706E+03</pdfrwt>
<pdfrwt beam="2">  1       -2 0.76843303E-02 0.26900706E+03</pdfrwt>
<totfact> 0.88912880E+03</totfact>
</mgrwt>
</event>
<event>
 4    1  0.1672993E-004  0.3807074E+03  0.7818608E-02  0.1050673E+00
         -2   -1    0    0    0  501 -0.00000000000E+00  0.00000000000E+00  0.25088631603E+02  0.25088631603E+02  0.00000000000E+00 0.  1.
          2   -1    0    0  501    0  0.00000000000E+00 -0.00000000000E+00 -0.14442608523E+04  0.14442608523E+04  0.00000000000E+00 0.  1.
         25    1    1    2    0    0 -0.91941779068E+02  0.39181833650E+02 -0.28951766173E+03  0.32895133878E+03  0.12000000000E+03 0.  0.
         25    1    1    2    0    0  0.91941779068E+02 -0.39181833650E+02 -0.11296545590E+04  0.11403981452E+04  0.12000000000E+03 0.  0.
<mgrwt>
<rscale>  0 0.38070739E+03</rscale>
<asrwt>0</asrwt>
<pdfrwt beam="1">  1        2 0.22219400E+00 0.38070739E+03</pdfrwt>
<pdfrwt beam="2">  1       -2 0.38597891E-02 0.38070739E+03</pdfrwt>
<totfact> 0.42513911E+03</totfact>
</mgrwt>
</event>
<event>
 4    1  0.1672993E-004  0.2754848E+03  0.7818608E-02  0.1098181E+00
         -2   -1    0    0    0  501 -0.00000000000E+00  0.00000000000E+00  0.78967008885E+01  0.78967008885E+01  0.00000000000E+00 0. -1.
          2   -1    0    0  501    0  0.00000000000E+00 -0.00000000000E+00 -0.24026451398E+04  0.24026451398E+04  0.00000000000E+00 0. -1.
         25    1    1    2    0    0  0.18019319890E+02  0.39862644133E+02 -0.74614616883E+03  0.75699922824E+03  0.12000000000E+03 0.  0.
         25    1    1    2    0    0 -0.18019319890E+02 -0.39862644133E+02 -0.16486022701E+04  0.16535426125E+04  0.12000000000E+03 0.  0.
<mgrwt>
<rscale>  0 0.27548481E+03</rscale>
<asrwt>0</asrwt>
<pdfrwt beam="1">  1        2 0.36963789E+00 0.27548481E+03</pdfrwt>
<pdfrwt beam="2">  1       -2 0.12148765E-02 0.27548481E+03</pdfrwt>
<totfact> 0.72774553E+03</totfact>
</mgrwt>
</event>
<event>
 4    1  0.1672993E-004  0.2587235E+03  0.7818608E-02  0.1107913E+00
          2   -1    0    0  501    0  0.00000000000E+00  0.00000000000E+00  0.24464802463E+03  0.24464802463E+03  0.00000000000E+00 0. -1.
         -2   -1    0    0    0  501 -0.00000000000E+00 -0.00000000000E+00 -0.68402216713E+02  0.68402216713E+02  0.00000000000E+00 0. -1.
         25    1    1    2    0    0 -0.13203289804E+02  0.80200733838E+01  0.32729894041E+02  0.12533911761E+03  0.12000000000E+03 0.  0.
         25    1    1    2    0    0  0.13203289804E+02 -0.80200733838E+01  0.14351591388E+03  0.18771112374E+03  0.12000000000E+03 0.  0.
<mgrwt>
<rscale>  0 0.25872354E+03</rscale>
<asrwt>0</asrwt>
<pdfrwt beam="1">  1        2 0.37638157E-01 0.25872354E+03</pdfrwt>
<pdfrwt beam="2">  1       -2 0.10523418E-01 0.25872354E+03</pdfrwt>
<totfact> 0.82524724E+03</totfact>
</mgrwt>
</event>
<event>
 4    1  0.1672993E-004  0.1059289E+04  0.7818608E-02  0.9245806E-01
         -2   -1    0    0    0  501 -0.00000000000E+00  0.00000000000E+00  0.17482069639E+03  0.17482069639E+03  0.00000000000E+00 0. -1.
          2   -1    0    0  501    0  0.00000000000E+00 -0.00000000000E+00 -0.16046354606E+04  0.16046354606E+04  0.00000000000E+00 0. -1.
         25    1    1    2    0    0  0.99850664532E+02  0.35355668720E+03 -0.10655041236E+03  0.40090582017E+03  0.12000000000E+03 0.  0.
         25    1    1    2    0    0 -0.99850664532E+02 -0.35355668720E+03 -0.13232643518E+04  0.13785503368E+04  0.12000000000E+03 0.  0.
<mgrwt>
<rscale>  0 0.10592894E+04</rscale>
<asrwt>0</asrwt>
<pdfrwt beam="1">  1        2 0.24686699E+00 0.10592894E+04</pdfrwt>
<pdfrwt beam="2">  1       -2 0.26895492E-01 0.10592894E+04</pdfrwt>
<totfact> 0.13843996E+02</totfact>
</mgrwt>
</event>
<event>
 4    1  0.1672993E-004  0.2550056E+03  0.7818608E-02  0.1110182E+00
          2   -1    0    0  501    0  0.00000000000E+00  0.00000000000E+00  0.11344039192E+04  0.11344039192E+04  0.00000000000E+00 0. -1.
         -2   -1    0    0    0  501 -0.00000000000E+00 -0.00000000000E+00 -0.14330839588E+02  0.14330839588E+02  0.00000000000E+00 0. -1.
         25    1    1    2    0    0  0.67184242067E+01  0.24113723254E+02  0.71804659718E+03  0.72843498309E+03  0.12000000000E+03 0.  0.
         25    1    1    2    0    0 -0.67184242067E+01 -0.24113723254E+02  0.40202648246E+03  0.42029977572E+03  0.12000000000E+03 0.  0.
<mgrwt>
<rscale>  0 0.25500557E+03</rscale>
<asrwt>0</asrwt>
<pdfrwt beam="1">  1        2 0.17452361E+00 0.25500557E+03</pdfrwt>
<pdfrwt beam="2">  1       -2 0.22047454E-02 0.25500557E+03</pdfrwt>
<totfact> 0.14525302E+04</totfact>
</mgrwt>
</event>
<event>
 4    1  0.1672993E-004  0.2453118E+03  0.7818608E-02  0.1116304E+00
         -1   -1    0    0    0  501 -0.00000000000E+00  0.00000000000E+00  0.17017976974E+02  0.17017976974E+02  0.00000000000E+00 0. -1.
          1   -1    0    0  501    0  0.00000000000E+00 -0.00000000000E+00 -0.88403381219E+03  0.88403381219E+03  0.00000000000E+00 0. -1.
         25    1    1    2    0    0 -0.26921635982E+01 -0.20377781181E+02 -0.37878440769E+03  0.39786948768E+03  0.12000000000E+03 0.  0.
         25    1    1    2    0    0  0.26921635982E+01  0.20377781181E+02 -0.48823142752E+03  0.50318230149E+03  0.12000000000E+03 0.  0.
<mgrwt>
<rscale>  0 0.24531178E+03</rscale>
<asrwt>0</asrwt>
<pdfrwt beam="1">  1        1 0.13600524E+00 0.24531178E+03</pdfrwt>
<pdfrwt beam="2">  1       -1 0.26181496E-02 0.24531178E+03</pdfrwt>
<totfact> 0.90145328E+03</totfact>
</mgrwt>
</event>
<event>
 4    1  0.1672993E-004  0.4646370E+03  0.7818608E-02  0.1023445E+00
          3   -1    0    0  501    0  0.00000000000E+00  0.00000000000E+00  0.49811661277E+03  0.49811661277E+03  0.00000000000E+00 0.  1.
         -3   -1    0    0    0  501 -0.00000000000E+00 -0.00000000000E+00 -0.10835190744E+03  0.10835190744E+03  0.00000000000E+00 0.  1.
         25    1    1    2    0    0  0.12914333627E+03  0.72942534440E+02  0.21852606537E+02  0.19203164074E+03  0.12000000000E+03 0.  0.
         25    1    1    2    0    0 -0.12914333627E+03 -0.72942534440E+02  0.36791209879E+03  0.41443687947E+03  0.12000000000E+03 0.  0.
<mgrwt>
<rscale>  0 0.46463700E+03</rscale>
<asrwt>0</asrwt>
<pdfrwt beam="1">  1        3 0.76633324E-01 0.46463700E+03</pdfrwt>
<pdfrwt beam="2">  1       -3 0.16669524E-01 0.46463700E+03</pdfrwt>
<totfact> 0.13216576E+02</totfact>
</mgrwt>
</event>
<event>
 4    1  0.1672993E-004  0.2944100E+03  0.7818608E-02  0.1088069E+00
          2   -1    0    0  501    0  0.00000000000E+00  0.00000000000E+00  0.26308108211E+04  0.26308108211E+04  0.00000000000E+00 0.  1.
         -2   -1    0    0    0  501 -0.00000000000E+00 -0.00000000000E+00 -0.82367401064E+01  0.82367401064E+01  0.00000000000E+00 0.  1.
         25    1    1    2    0    0  0.43616542301E+02  0.14980235264E+02  0.66847846700E+03  0.68072775105E+03  0.12000000000E+03 0.  0.
         25    1    1    2    0    0 -0.43616542301E+02 -0.14980235264E+02  0.19540956140E+04  0.19583198102E+04  0.12000000000E+03 0.  0.
<mgrwt>
<rscale>  0 0.29440995E+03</rscale>
<asrwt>0</asrwt>
<pdfrwt beam="1">  1        2 0.40473946E+00 0.29440995E+03</pdfrwt>
<pdfrwt beam="2">  1       -2 0.12671929E-02 0.29440995E+03</pdfrwt>
<totfact> 0.51233553E+03</totfact>
</mgrwt>
</event>
<event>
 4    1  0.1672993E-004  0.2438268E+03  0.7818608E-02  0.1117269E+00
          1   -1    0    0  501    0  0.00000000000E+00  0.00000000000E+00  0.80256211824E+03  0.80256211824E+03  0.00000000000E+00 0. -1.
         -1   -1    0    0    0  501 -0.00000000000E+00 -0.00000000000E+00 -0.18519282385E+02  0.18519282385E+02  0.00000000000E+00 0. -1.
         25    1    1    2    0    0 -0.63841023190E+00  0.61123556256E+01  0.32259041297E+03  0.34424169271E+03  0.12000000000E+03 0.  0.
         25    1    1    2    0    0  0.63841023190E+00 -0.61123556256E+01  0.46145242288E+03  0.47683970791E+03  0.12000000000E+03 0.  0.
<mgrwt>
<rscale>  0 0.24382678E+03</rscale>
<asrwt>0</asrwt>
<pdfrwt beam="1">  1        1 0.12347107E+00 0.24382678E+03</pdfrwt>
<pdfrwt beam="2">  1       -1 0.28491210E-02 0.24382678E+03</pdfrwt>
<totfact> 0.92662855E+03</totfact>
</mgrwt>
</event>
<event>
 4    1  0.1672993E-004  0.2997424E+03  0.7818608E-02  0.1085369E+00
         -2   -1    0    0    0  501 -0.00000000000E+00  0.00000000000E+00  0.87171026648E+01  0.87171026648E+01  0.00000000000E+00 0.  1.
          2   -1    0    0  501    0  0.00000000000E+00 -0.00000000000E+00 -0.25767015246E+04  0.25767015246E+04  0.00000000000E+00 0.  1.
         25    1    1    2    0    0 -0.73366749500E+02 -0.48572865515E+02 -0.14381369829E+04  0.14458146440E+04  0.12000000000E+03 0.  0.
         25    1    1    2    0    0  0.73366749500E+02  0.48572865515E+02 -0.11298474390E+04  0.11396039833E+04  0.12000000000E+03 0.  0.
<mgrwt>
<rscale>  0 0.29974237E+03</rscale>
<asrwt>0</asrwt>
<pdfrwt beam="1">  1        2 0.39641576E+00 0.29974237E+03</pdfrwt>
<pdfrwt beam="2">  1       -2 0.13410922E-02 0.29974237E+03</pdfrwt>
<totfact> 0.50536458E+03</totfact>
</mgrwt>
</event>
<event>
 4    1  0.1672993E-004  0.3345022E+03  0.7818608E-02  0.1069162E+00
          1   -1    0    0  501    0  0.00000000000E+00  0.00000000000E+00  0.16304887300E+04  0.16304887300E+04  0.00000000000E+00 0. -1.
         -1   -1    0    0    0  501 -0.00000000000E+00 -0.00000000000E+00 -0.17156165604E+02  0.17156165604E+02  0.00000000000E+00 0. -1.
         25    1    1    2    0    0  0.73942060239E+02  0.31924350473E+02  0.39202201270E+03  0.41781317699E+03  0.12000000000E+03 0.  0.
         25    1    1    2    0    0 -0.73942060239E+02 -0.31924350473E+02  0.12213105517E+04  0.12298317186E+04  0.12000000000E+03 0.  0.
<mgrwt>
<rscale>  0 0.33450223E+03</rscale>
<asrwt>0</asrwt>
<pdfrwt beam="1">  1        1 0.25084430E+00 0.33450223E+03</pdfrwt>
<pdfrwt beam="2">  1       -1 0.26394114E-02 0.33450223E+03</pdfrwt>
<totfact> 0.26753230E+03</totfact>
</mgrwt>
</event>
<event>
 4    1  0.1672993E-004  0.2853582E+03  0.7818608E-02  0.1092798E+00
         -1   -1    0    0    0  501 -0.00000000000E+00  0.00000000000E+00  0.96974669593E+02  0.96974669593E+02  0.00000000000E+00 0. -1.
          1   -1    0    0  501    0  0.00000000000E+00 -0.00000000000E+00 -0.20992415311E+03  0.20992415311E+03  0.00000000000E+00 0. -1.
         25    1    1    2    0    0  0.59694109804E+02 -0.45147945356E+02 -0.36193863169E+02  0.14598533983E+03  0.12000000000E+03 0.  0.
         25    1    1    2    0    0 -0.59694109804E+02  0.45147945356E+02 -0.76755620353E+02  0.16091348287E+03  0.12000000000E+03 0.  0.
<mgrwt>
<rscale>  0 0.28535820E+03</rscale>
<asrwt>0</asrwt>
<pdfrwt beam="1">  1        1 0.32296023E-01 0.28535820E+03</pdfrwt>
<pdfrwt beam="2">  1       -1 0.14919180E-01 0.28535820E+03</pdfrwt>
<totfact> 0.44490549E+03</totfact>
</mgrwt>
</event>
<event>
 4    1  0.1672993E-004  0.3566838E+03  0.7818608E-02  0.1059905E+00
         -1   -1    0    0    0  501 -0.00000000000E+00  0.00000000000E+00  0.36894603798E+03  0.36894603798E+03  0.00000000000E+00 0. -1.
          1   -1    0    0  501    0  0.00000000000E+00 -0.00000000000E+00 -0.86207288669E+02  0.86207288669E+02  0.00000000000E+00 0. -1.
         25    1    1    2    0    0  0.11222323030E+03  0.56240672649E+02  0.19318425106E+03  0.25976378026E+03  0.12000000000E+03 0.  0.
         25    1    1    2    0    0 -0.11222323030E+03 -0.56240672649E+02  0.89554498249E+02  0.19538954638E+03  0.12000000000E+03 0.  0.
<mgrwt>
<rscale>  0 0.35668382E+03</rscale>
<asrwt>0</asrwt>
<pdfrwt beam="1">  1        1 0.13262660E-01 0.35668382E+03</pdfrwt>
<pdfrwt beam="2">  1       -1 0.56760928E-01 0.35668382E+03</pdfrwt>
<totfact> 0.14245514E+03</totfact>
</mgrwt>
</event>
<event>
 4    1  0.1672993E-004  0.2820242E+03  0.7818608E-02  0.1094588E+00
          2   -1    0    0  501    0  0.00000000000E+00  0.00000000000E+00  0.83637444621E+03  0.83637444621E+03  0.00000000000E+00 0.  1.
         -2   -1    0    0    0  501 -0.00000000000E+00 -0.00000000000E+00 -0.23774527182E+02  0.23774527182E+02  0.00000000000E+00 0.  1.
         25    1    1    2    0    0  0.62840739799E+02 -0.29564188576E+02  0.32786280853E+03  0.35597334316E+03  0.12000000000E+03 0.  0.
         25    1    1    2    0    0 -0.62840739799E+02  0.29564188576E+02  0.48473711050E+03  0.50417563023E+03  0.12000000000E+03 0.  0.
<mgrwt>
<rscale>  0 0.28202416E+03</rscale>
<asrwt>0</asrwt>
<pdfrwt beam="1">  1        2 0.12867297E+00 0.28202416E+03</pdfrwt>
<pdfrwt beam="2">  1       -2 0.36576202E-02 0.28202416E+03</pdfrwt>
<totfact> 0.10513270E+04</totfact>
</mgrwt>
</event>
<event>
 4    1  0.1672993E-004  0.2919584E+03  0.7818608E-02  0.1089331E+00
          2   -1    0    0  501    0  0.00000000000E+00  0.00000000000E+00  0.82228861651E+03  0.82228861651E+03  0.00000000000E+00 0. -1.
         -2   -1    0    0    0  501 -0.00000000000E+00 -0.00000000000E+00 -0.25915383030E+02  0.25915383030E+02  0.00000000000E+00 0. -1.
         25    1    1    2    0    0  0.41990470064E+02  0.21256915880E+02  0.19912337271E+03  0.23720281113E+03  0.12000000000E+03 0.  0.
         25    1    1    2    0    0 -0.41990470064E+02 -0.21256915880E+02  0.59724986077E+03  0.61100118841E+03  0.12000000000E+03 0.  0.
<mgrwt>
<rscale>  0 0.29195838E+03</rscale>
<asrwt>0</asrwt>
<pdfrwt beam="1">  1        2 0.12650592E+00 0.29195838E+03</pdfrwt>
<pdfrwt beam="2">  1       -2 0.39869826E-02 0.29195838E+03</pdfrwt>
<totfact> 0.94503322E+03</totfact>
</mgrwt>
</event>
<event>
 4    1  0.1672993E-004  0.2642696E+03  0.7818608E-02  0.1104605E+00
          2   -1    0    0  501    0  0.00000000000E+00  0.00000000000E+00  0.85935249380E+02  0.85935249380E+02  0.00000000000E+00 0. -1.
         -2   -1    0    0    0  501 -0.00000000000E+00 -0.00000000000E+00 -0.20317166427E+03  0.20317166427E+03  0.00000000000E+00 0. -1.
         25    1    1    2    0    0 -0.36889446742E+02  0.17390955826E+01 -0.10366795880E+03  0.16282168595E+03  0.12000000000E+03 0.  0.
         25    1    1    2    0    0  0.36889446742E+02 -0.17390955826E+01 -0.13568456092E+02  0.12628522770E+03  0.12000000000E+03 0.  0.
<mgrwt>
<rscale>  0 0.26426962E+03</rscale>
<asrwt>0</asrwt>
<pdfrwt beam="1">  1        2 0.13220808E-01 0.26426962E+03</pdfrwt>
<pdfrwt beam="2">  1       -2 0.31257178E-01 0.26426962E+03</pdfrwt>
<totfact> 0.42705084E+03</totfact>
</mgrwt>
</event>
<event>
 4    1  0.1672993E-004  0.2925024E+03  0.7818608E-02  0.1089050E+00
         -3   -1    0    0    0  501 -0.00000000000E+00  0.00000000000E+00  0.51394308092E+02  0.51394308092E+02  0.00000000000E+00 0.  1.
          3   -1    0    0  501    0  0.00000000000E+00 -0.00000000000E+00 -0.41618254512E+03  0.41618254512E+03  0.00000000000E+00 0.  1.
         25    1    1    2    0    0  0.71149580162E+02  0.51905119696E+01 -0.11271151969E+03  0.17942433180E+03  0.12000000000E+03 0.  0.
         25    1    1    2    0    0 -0.71149580162E+02 -0.51905119696E+01 -0.25207671734E+03  0.28815252142E+03  0.12000000000E+03 0.  0.
<mgrwt>
<rscale>  0 0.29250240E+03</rscale>
<asrwt>0</asrwt>
<pdfrwt beam="1">  1        3 0.64028084E-01 0.29250240E+03</pdfrwt>
<pdfrwt beam="2">  1       -3 0.79068166E-02 0.29250240E+03</pdfrwt>
<totfact> 0.66837304E+02</totfact>
</mgrwt>
</event>
<event>
 4    1  0.1672993E-004  0.2463653E+03  0.7818608E-02  0.1115624E+00
         -2   -1    0    0    0  501 -0.00000000000E+00  0.00000000000E+00  0.39758948769E+03  0.39758948769E+03  0.00000000000E+00 0.  1.
          2   -1    0    0  501    0  0.00000000000E+00 -0.00000000000E+00 -0.38164905127E+02  0.38164905127E+02  0.00000000000E+00 0.  1.
         25    1    1    2    0    0 -0.27614445515E+02  0.28393743217E-01  0.18568596740E+03  0.22280448132E+03  0.12000000000E+03 0.  0.
         25    1    1    2    0    0  0.27614445515E+02 -0.28393743217E-01  0.17373861516E+03  0.21294991149E+03  0.12000000000E+03 0.  0.
<mgrwt>
<rscale>  0 0.24636530E+03</rscale>
<asrwt>0</asrwt>
<pdfrwt beam="1">  1        2 0.58715242E-02 0.24636530E+03</pdfrwt>
<pdfrwt beam="2">  1       -2 0.61167611E-01 0.24636530E+03</pdfrwt>
<totfact> 0.31997840E+03</totfact>
</mgrwt>
</event>
<event>
 4    1  0.1672993E-004  0.3371176E+03  0.7818608E-02  0.1068030E+00
          1   -1    0    0  501    0  0.00000000000E+00  0.00000000000E+00  0.12172628384E+04  0.12172628384E+04  0.00000000000E+00 0. -1.
         -1   -1    0    0    0  501 -0.00000000000E+00 -0.00000000000E+00 -0.23340950833E+02  0.23340950833E+02  0.00000000000E+00 0. -1.
         25    1    1    2    0    0 -0.47038618380E+02 -0.46296231128E+01  0.19757979805E+03  0.23594881145E+03  0.12000000000E+03 0.  0.
         25    1    1    2    0    0  0.47038618380E+02  0.46296231128E+01  0.99634208950E+03  0.10046549778E+04  0.12000000000E+03 0.  0.
<mgrwt>
<rscale>  0 0.33711762E+03</rscale>
<asrwt>0</asrwt>
<pdfrwt beam="1">  1        1 0.18727116E+00 0.33711762E+03</pdfrwt>
<pdfrwt beam="2">  1       -1 0.35909165E-02 0.33711762E+03</pdfrwt>
<totfact> 0.32231144E+03</totfact>
</mgrwt>
</event>
<event>
 4    1  0.1672993E-004  0.3748642E+03  0.7818608E-02  0.1052848E+00
          2   -1    0    0  501    0  0.00000000000E+00  0.00000000000E+00  0.63616122695E+02  0.63616122695E+02  0.00000000000E+00 0. -1.
         -2   -1    0    0    0  501 -0.00000000000E+00 -0.00000000000E+00 -0.55223106217E+03  0.55223106217E+03  0.00000000000E+00 0. -1.
         25    1    1    2    0    0  0.14194866004E+03  0.40338601224E+01 -0.28336128651E+03  0.33890900373E+03  0.12000000000E+03 0.  0.
         25    1    1    2    0    0 -0.14194866004E+03 -0.40338601224E+01 -0.20525365296E+03  0.27693818113E+03  0.12000000000E+03 0.  0.
<mgrwt>
<rscale>  0 0.37486424E+03</rscale>
<asrwt>0</asrwt>
<pdfrwt beam="1">  1        2 0.97870958E-02 0.37486424E+03</pdfrwt>
<pdfrwt beam="2">  1       -2 0.84958625E-01 0.37486424E+03</pdfrwt>
<totfact> 0.82495836E+02</totfact>
</mgrwt>
</event>
<event>
 4    1  0.1672993E-004  0.3085012E+03  0.7818608E-02  0.1081067E+00
         -1   -1    0    0    0  501 -0.00000000000E+00  0.00000000000E+00  0.41187636237E+02  0.41187636237E+02  0.00000000000E+00 0.  1.
          1   -1    0    0  501    0  0.00000000000E+00 -0.00000000000E+00 -0.57767939516E+03  0.57767939516E+03  0.00000000000E+00 0.  1.
         25    1    1    2    0    0  0.42210328733E+02 -0.31725466391E+02 -0.43127978510E+03  0.45076653614E+03  0.12000000000E+03 0.  0.
         25    1    1    2    0    0 -0.42210328733E+02  0.31725466391E+02 -0.10521197382E+03  0.16810049526E+03  0.12000000000E+03 0.  0.
<mgrwt>
<rscale>  0 0.30850121E+03</rscale>
<asrwt>0</asrwt>
<pdfrwt beam="1">  1        1 0.88873738E-01 0.30850121E+03</pdfrwt>
<pdfrwt beam="2">  1       -1 0.63365605E-02 0.30850121E+03</pdfrwt>
<totfact> 0.45613818E+03</totfact>
</mgrwt>
</event>
<event>
 4    1  0.1672993E-004  0.2811652E+03  0.7818608E-02  0.1095054E+00
          2   -1    0    0  501    0  0.00000000000E+00  0.00000000000E+00  0.23025775792E+03  0.23025775792E+03  0.00000000000E+00 0. -1.
         -2   -1    0    0    0  501 -0.00000000000E+00 -0.00000000000E+00 -0.85831908382E+02  0.85831908382E+02  0.00000000000E+00 0. -1.
         25    1    1    2    0    0  0.70295591799E+02 -0.12444919456E+02  0.53839116993E+02  0.14964957990E+03  0.12000000000E+03 0.  0.
         25    1    1    2    0    0 -0.70295591799E+02  0.12444919456E+02  0.90586732541E+02  0.16644008639E+03  0.12000000000E+03 0.  0.
<mgrwt>
<rscale>  0 0.28116517E+03</rscale>
<asrwt>0</asrwt>
<pdfrwt beam="1">  1        2 0.35424270E-01 0.28116517E+03</pdfrwt>
<pdfrwt beam="2">  1       -2 0.13204909E-01 0.28116517E+03</pdfrwt>
<totfact> 0.61320750E+03</totfact>
</mgrwt>
</event>
<event>
 4    1  0.1672993E-004  0.3019830E+03  0.7818608E-02  0.1084254E+00
          2   -1    0    0  501    0  0.00000000000E+00  0.00000000000E+00  0.22475361053E+03  0.22475361053E+03  0.00000000000E+00 0. -1.
         -2   -1    0    0    0  501 -0.00000000000E+00 -0.00000000000E+00 -0.10143745672E+03  0.10143745672E+03  0.00000000000E+00 0. -1.
         25    1    1    2    0    0 -0.86371035024E+02 -0.34955508763E+01  0.94532339935E+02  0.17552361055E+03  0.12000000000E+03 0.  0.
         25    1    1    2    0    0  0.86371035024E+02  0.34955508763E+01  0.28783813879E+02  0.15066745670E+03  0.12000000000E+03 0.  0.
<mgrwt>
<rscale>  0 0.30198301E+03</rscale>
<asrwt>0</asrwt>
<pdfrwt beam="1">  1        2 0.34577478E-01 0.30198301E+03</pdfrwt>
<pdfrwt beam="2">  1       -2 0.15605763E-01 0.30198301E+03</pdfrwt>
<totfact> 0.47919697E+03</totfact>
</mgrwt>
</event>
<event>
 4    1  0.1672993E-004  0.2478520E+03  0.7818608E-02  0.1114670E+00
          2   -1    0    0  501    0  0.00000000000E+00  0.00000000000E+00  0.12527599049E+03  0.12527599049E+03  0.00000000000E+00 0.  1.
         -2   -1    0    0    0  501 -0.00000000000E+00 -0.00000000000E+00 -0.12259058996E+03  0.12259058996E+03  0.00000000000E+00 0.  1.
         25    1    1    2    0    0  0.27116163315E+02 -0.15147493706E+00 -0.13569523767E+02  0.12377173035E+03  0.12000000000E+03 0.  0.
         25    1    1    2    0    0 -0.27116163315E+02  0.15147493706E+00  0.16254924292E+02  0.12409485010E+03  0.12000000000E+03 0.  0.
<mgrwt>
<rscale>  0 0.24785203E+03</rscale>
<asrwt>0</asrwt>
<pdfrwt beam="1">  1        2 0.19273229E-01 0.24785203E+03</pdfrwt>
<pdfrwt beam="2">  1       -2 0.18860091E-01 0.24785203E+03</pdfrwt>
<totfact> 0.66455130E+03</totfact>
</mgrwt>
</event>
<event>
 4    1  0.1672993E-004  0.2827506E+03  0.7818608E-02  0.1094196E+00
          2   -1    0    0  501    0  0.00000000000E+00  0.00000000000E+00  0.76746053594E+03  0.76746053594E+03  0.00000000000E+00 0. -1.
         -2   -1    0    0    0  501 -0.00000000000E+00 -0.00000000000E+00 -0.26042996742E+02  0.26042996742E+02  0.00000000000E+00 0. -1.
         25    1    1    2    0    0  0.25416220091E+02  0.77585360527E+01  0.17464806284E+03  0.21356058855E+03  0.12000000000E+03 0.  0.
         25    1    1    2    0    0 -0.25416220091E+02 -0.77585360527E+01  0.56676947635E+03  0.57994294413E+03  0.12000000000E+03 0.  0.
<mgrwt>
<rscale>  0 0.28275058E+03</rscale>
<asrwt>0</asrwt>
<pdfrwt beam="1">  1        2 0.11807083E+00 0.28275058E+03</pdfrwt>
<pdfrwt beam="2">  1       -2 0.40066155E-02 0.28275058E+03</pdfrwt>
<totfact> 0.10231277E+04</totfact>
</mgrwt>
</event>
<event>
 4    1  0.1672993E-004  0.2456662E+03  0.7818608E-02  0.1116075E+00
         -2   -1    0    0    0  501 -0.00000000000E+00  0.00000000000E+00  0.52472263900E+02  0.52472263900E+02  0.00000000000E+00 0.  1.
          2   -1    0    0  501    0  0.00000000000E+00 -0.00000000000E+00 -0.28754172328E+03  0.28754172328E+03  0.00000000000E+00 0.  1.
         25    1    1    2    0    0  0.14528338327E+02  0.19316403127E+02 -0.13163364049E+03  0.17975430830E+03  0.12000000000E+03 0.  0.
         25    1    1    2    0    0 -0.14528338327E+02 -0.19316403127E+02 -0.10343581889E+03  0.16025967888E+03  0.12000000000E+03 0.  0.
<mgrwt>
<rscale>  0 0.24566616E+03</rscale>
<asrwt>0</asrwt>
<pdfrwt beam="1">  1        2 0.44237189E-01 0.24566616E+03</pdfrwt>
<pdfrwt beam="2">  1       -2 0.80726558E-02 0.24566616E+03</pdfrwt>
<totfact> 0.10511142E+04</totfact>
</mgrwt>
</event>
<event>
 4    1  0.1672993E-004  0.2677323E+03  0.7818608E-02  0.1102585E+00
          2   -1    0    0  501    0  0.00000000000E+00  0.00000000000E+00  0.17970799884E+03  0.17970799884E+03  0.00000000000E+00 0.  1.
         -2   -1    0    0    0  501 -0.00000000000E+00 -0.00000000000E+00 -0.99718158655E+02  0.99718158655E+02  0.00000000000E+00 0.  1.
         25    1    1    2    0    0  0.19405676031E+01  0.46257332544E+02  0.78718640552E+02  0.15079831228E+03  0.12000000000E+03 0.  0.
         25    1    1    2    0    0 -0.19405676031E+01 -0.46257332544E+02  0.12711996379E+01  0.12862784522E+03  0.12000000000E+03 0.  0.
<mgrwt>
<rscale>  0 0.26773233E+03</rscale>
<asrwt>0</asrwt>
<pdfrwt beam="1">  1        2 0.27647384E-01 0.26773233E+03</pdfrwt>
<pdfrwt beam="2">  1       -2 0.15341255E-01 0.26773233E+03</pdfrwt>
<totfact> 0.62751447E+03</totfact>
</mgrwt>
</event>
<event>
 4    1  0.1672993E-004  0.2555825E+03  0.7818608E-02  0.1109827E+00
          1   -1    0    0  501    0  0.00000000000E+00  0.00000000000E+00  0.41560665037E+03  0.41560665037E+03  0.00000000000E+00 0. -1.
         -1   -1    0    0    0  501 -0.00000000000E+00 -0.00000000000E+00 -0.39293425776E+02  0.39293425776E+02  0.00000000000E+00 0. -1.
         25    1    1    2    0    0  0.86047288610E+01 -0.33910081274E+02  0.14084209552E+03  0.18830940189E+03  0.12000000000E+03 0.  0.
         25    1    1    2    0    0 -0.86047288610E+01  0.33910081274E+02  0.23547112907E+03  0.26659067425E+03  0.12000000000E+03 0.  0.
<mgrwt>
<rscale>  0 0.25558254E+03</rscale>
<asrwt>0</asrwt>
<pdfrwt beam="1">  1        1 0.63939481E-01 0.25558254E+03</pdfrwt>
<pdfrwt beam="2">  1       -1 0.60451427E-02 0.25558254E+03</pdfrwt>
<totfact> 0.75418292E+03</totfact>
</mgrwt>
</event>
<event>
 4    1  0.1672993E-004  0.3079880E+03  0.7818608E-02  0.1081314E+00
          1   -1    0    0  501    0  0.00000000000E+00  0.00000000000E+00  0.10410751449E+03  0.10410751449E+03  0.00000000000E+00 0. -1.
         -1   -1    0    0    0  501 -0.00000000000E+00 -0.00000000000E+00 -0.22778525829E+03  0.22778525829E+03  0.00000000000E+00 0. -1.
         25    1    1    2    0    0  0.52098374473E+02  0.80088336860E+02 -0.76526690536E+02  0.17141970916E+03  0.12000000000E+03 0.  0.
         25    1    1    2    0    0 -0.52098374473E+02 -0.80088336860E+02 -0.47151053269E+02  0.16047306362E+03  0.12000000000E+03 0.  0.
<mgrwt>
<rscale>  0 0.30798803E+03</rscale>
<asrwt>0</asrwt>
<pdfrwt beam="1">  1        1 0.16016541E-01 0.30798803E+03</pdfrwt>
<pdfrwt beam="2">  1       -1 0.35043886E-01 0.30798803E+03</pdfrwt>
<totfact> 0.26661572E+03</totfact>
</mgrwt>
</event>
<event>
 4    1  0.1672993E-004  0.2820554E+03  0.7818608E-02  0.1094572E+00
          1   -1    0    0  501    0  0.00000000000E+00  0.00000000000E+00  0.46615550592E+02  0.46615550592E+02  0.00000000000E+00 0.  1.
         -1   -1    0    0    0  501 -0.00000000000E+00 -0.00000000000E+00 -0.42665608013E+03  0.42665608013E+03  0.00000000000E+00 0.  1.
         25    1    1    2    0    0 -0.48076697932E+01 -0.44135311070E+02 -0.90500408679E+02  0.15672065385E+03  0.12000000000E+03 0.  0.
         25    1    1    2    0    0  0.48076697932E+01  0.44135311070E+02 -0.28954012086E+03  0.31655097687E+03  0.12000000000E+03 0.  0.
<mgrwt>
<rscale>  0 0.28205537E+03</rscale>
<asrwt>0</asrwt>
<pdfrwt beam="1">  1        1 0.71716234E-02 0.28205537E+03</pdfrwt>
<pdfrwt beam="2">  1       -1 0.65639395E-01 0.28205537E+03</pdfrwt>
<totfact> 0.24583112E+03</totfact>
</mgrwt>
</event>
<event>
 4    1  0.1672993E-004  0.2579430E+03  0.7818608E-02  0.1108385E+00
          2   -1    0    0  501    0  0.00000000000E+00  0.00000000000E+00  0.37783409575E+03  0.37783409575E+03  0.00000000000E+00 0.  1.
         -2   -1    0    0    0  501 -0.00000000000E+00 -0.00000000000E+00 -0.44023673384E+02  0.44023673384E+02  0.00000000000E+00 0.  1.
         25    1    1    2    0    0 -0.32122428647E+02  0.45795566052E+01  0.22310498579E+03  0.25539901614E+03  0.12000000000E+03 0.  0.
         25    1    1    2    0    0  0.32122428647E+02 -0.45795566052E+01  0.11070543658E+03  0.16645875299E+03  0.12000000000E+03 0.  0.
<mgrwt>
<rscale>  0 0.25794298E+03</rscale>
<asrwt>0</asrwt>
<pdfrwt beam="1">  1        2 0.58128320E-01 0.25794298E+03</pdfrwt>
<pdfrwt beam="2">  1       -2 0.67728731E-02 0.25794298E+03</pdfrwt>
<totfact> 0.10312653E+04</totfact>
</mgrwt>
</event>
<event>
 4    1  0.1672993E-004  0.3219804E+03  0.7818608E-02  0.1074741E+00
          1   -1    0    0  501    0  0.00000000000E+00  0.00000000000E+00  0.44365659725E+03  0.44365659725E+03  0.00000000000E+00 0.  1.
         -1   -1    0    0    0  501 -0.00000000000E+00 -0.00000000000E+00 -0.58418709601E+02  0.58418709601E+02  0.00000000000E+00 0.  1.
         25    1    1    2    0    0 -0.63739124400E+02 -0.65280815629E+02  0.28073978986E+03  0.31865198960E+03  0.12000000000E+03 0.  0.
         25    1    1    2    0    0  0.63739124400E+02  0.65280815629E+02  0.10449809779E+03  0.18342331725E+03  0.12000000000E+03 0.  0.
<mgrwt>
<rscale>  0 0.32198041E+03</rscale>
<asrwt>0</asrwt>
<pdfrwt beam="1">  1        1 0.68254859E-01 0.32198041E+03</pdfrwt>
<pdfrwt beam="2">  1       -1 0.89874941E-02 0.32198041E+03</pdfrwt>
<totfact> 0.38110123E+03</totfact>
</mgrwt>
</event>
<event>
 4    1  0.1672993E-004  0.3424253E+03  0.7818608E-02  0.1065768E+00
         -2   -1    0    0    0  501 -0.00000000000E+00  0.00000000000E+00  0.37743838966E+03  0.37743838966E+03  0.00000000000E+00 0.  1.
          2   -1    0    0  501    0  0.00000000000E+00 -0.00000000000E+00 -0.77665063090E+02  0.77665063090E+02  0.00000000000E+00 0.  1.
         25    1    1    2    0    0 -0.96369589309E+02  0.24443975524E+02  0.24413906736E+03  0.28963509783E+03  0.12000000000E+03 0.  0.
         25    1    1    2    0    0  0.96369589309E+02 -0.24443975524E+02  0.55634259215E+02  0.16546835492E+03  0.12000000000E+03 0.  0.
<mgrwt>
<rscale>  0 0.34242533E+03</rscale>
<asrwt>0</asrwt>
<pdfrwt beam="1">  1        2 0.11948471E-01 0.34242533E+03</pdfrwt>
<pdfrwt beam="2">  1       -2 0.58067444E-01 0.34242533E+03</pdfrwt>
<totfact> 0.14610674E+03</totfact>
</mgrwt>
</event>
<event>
 4    1  0.1672993E-004  0.2550741E+03  0.7818608E-02  0.1110139E+00
          2   -1    0    0  501    0  0.00000000000E+00  0.00000000000E+00  0.55368668273E+03  0.55368668273E+03  0.00000000000E+00 0.  1.
         -2   -1    0    0    0  501 -0.00000000000E+00 -0.00000000000E+00 -0.29377090477E+02  0.29377090477E+02  0.00000000000E+00 0.  1.
         25    1    1    2    0    0 -0.19551925519E+02 -0.84752134767E+01  0.17627224097E+03  0.21430354634E+03  0.12000000000E+03 0.  0.
         25    1    1    2    0    0  0.19551925519E+02  0.84752134767E+01  0.34803735128E+03  0.36876022687E+03  0.12000000000E+03 0.  0.
<mgrwt>
<rscale>  0 0.25507414E+03</rscale>
<asrwt>0</asrwt>
<pdfrwt beam="1">  1        2 0.85182559E-01 0.25507414E+03</pdfrwt>
<pdfrwt beam="2">  1       -2 0.45195528E-02 0.25507414E+03</pdfrwt>
<totfact> 0.12531299E+04</totfact>
</mgrwt>
</event>
<event>
 4    1  0.1672993E-004  0.2713801E+03  0.7818608E-02  0.1100492E+00
         -1   -1    0    0    0  501 -0.00000000000E+00  0.00000000000E+00  0.12225037692E+02  0.12225037692E+02  0.00000000000E+00 0.  1.
          1   -1    0    0  501    0  0.00000000000E+00 -0.00000000000E+00 -0.15060726044E+04  0.15060726044E+04  0.00000000000E+00 0.  1.
         25    1    1    2    0    0  0.28079304512E+02 -0.39037766374E+02 -0.51628802252E+03  0.53222712891E+03  0.12000000000E+03 0.  0.
         25    1    1    2    0    0 -0.28079304512E+02  0.39037766374E+02 -0.97755954422E+03  0.98607051322E+03  0.12000000000E+03 0.  0.
<mgrwt>
<rscale>  0 0.27138013E+03</rscale>
<asrwt>0</asrwt>
<pdfrwt beam="1">  1        1 0.23170334E+00 0.27138013E+03</pdfrwt>
<pdfrwt beam="2">  1       -1 0.18807761E-02 0.27138013E+03</pdfrwt>
<totfact> 0.53184457E+03</totfact>
</mgrwt>
</event>
<event>
 4    1  0.1672993E-004  0.2442681E+03  0.7818608E-02  0.1116982E+00
         -2   -1    0    0    0  501 -0.00000000000E+00  0.00000000000E+00  0.80816928125E+01  0.80816928125E+01  0.00000000000E+00 0. -1.
          2   -1    0    0  501    0  0.00000000000E+00 -0.00000000000E+00 -0.18457430088E+04  0.18457430088E+04  0.00000000000E+00 0. -1.
         25    1    1    2    0    0 -0.16872044993E+02  0.15228334812E+02 -0.92186566262E+03  0.92992089341E+03  0.12000000000E+03 0.  0.
         25    1    1    2    0    0  0.16872044993E+02 -0.15228334812E+02 -0.91579565336E+03  0.92390380819E+03  0.12000000000E+03 0.  0.
<mgrwt>
<rscale>  0 0.24426812E+03</rscale>
<asrwt>0</asrwt>
<pdfrwt beam="1">  1        2 0.28396065E+00 0.24426812E+03</pdfrwt>
<pdfrwt beam="2">  1       -2 0.12433365E-02 0.24426812E+03</pdfrwt>
<totfact> 0.13855544E+04</totfact>
</mgrwt>
</event>
<event>
 4    1  0.1672993E-004  0.2851991E+03  0.7818608E-02  0.1092883E+00
          2   -1    0    0  501    0  0.00000000000E+00  0.00000000000E+00  0.23447763874E+03  0.23447763874E+03  0.00000000000E+00 0.  1.
         -2   -1    0    0    0  501 -0.00000000000E+00 -0.00000000000E+00 -0.86723088128E+02  0.86723088128E+02  0.00000000000E+00 0.  1.
         25    1    1    2    0    0  0.57875377708E+02  0.47746083263E+02  0.54196296867E+02  0.15154697755E+03  0.12000000000E+03 0.  0.
         25    1    1    2    0    0 -0.57875377708E+02 -0.47746083263E+02  0.93558253743E+02  0.16965374931E+03  0.12000000000E+03 0.  0.
<mgrwt>
<rscale>  0 0.28519905E+03</rscale>
<asrwt>0</asrwt>
<pdfrwt beam="1">  1        2 0.36073483E-01 0.28519905E+03</pdfrwt>
<pdfrwt beam="2">  1       -2 0.13342014E-01 0.28519905E+03</pdfrwt>
<totfact> 0.59145654E+03</totfact>
</mgrwt>
</event>
<event>
 4    1  0.1672993E-004  0.2664213E+03  0.7818608E-02  0.1103345E+00
         -1   -1    0    0    0  501 -0.00000000000E+00  0.00000000000E+00  0.17101916367E+03  0.17101916367E+03  0.00000000000E+00 0. -1.
          1   -1    0    0  501    0  0.00000000000E+00 -0.00000000000E+00 -0.10376075573E+03  0.10376075573E+03  0.00000000000E+00 0. -1.
         25    1    1    2    0    0  0.28188442653E+01  0.19393632476E+02  0.89751654598E+02  0.15112715959E+03  0.12000000000E+03 0.  0.
         25    1    1    2    0    0 -0.28188442653E+01 -0.19393632476E+02 -0.22493246660E+02  0.12365275981E+03  0.12000000000E+03 0.  0.
<mgrwt>
<rscale>  0 0.26642130E+03</rscale>
<asrwt>0</asrwt>
<pdfrwt beam="1">  1        1 0.15963193E-01 0.26642130E+03</pdfrwt>
<pdfrwt beam="2">  1       -1 0.26310641E-01 0.26642130E+03</pdfrwt>
<totfact> 0.43511094E+03</totfact>
</mgrwt>
</event>
<event>
 4    1  0.1672993E-004  0.2583190E+03  0.7818608E-02  0.1108157E+00
         -1   -1    0    0    0  501 -0.00000000000E+00  0.00000000000E+00  0.11296308093E+02  0.11296308093E+02  0.00000000000E+00 0.  1.
          1   -1    0    0  501    0  0.00000000000E+00 -0.00000000000E+00 -0.14767809129E+04  0.14767809129E+04  0.00000000000E+00 0.  1.
         25    1    1    2    0    0  0.11161584591E+01  0.25684458771E+02 -0.50079349082E+03  0.51561134363E+03  0.12000000000E+03 0.  0.
         25    1    1    2    0    0 -0.11161584591E+01 -0.25684458771E+02 -0.96469111403E+03  0.97246587741E+03  0.12000000000E+03 0.  0.
<mgrwt>
<rscale>  0 0.25831897E+03</rscale>
<asrwt>0</asrwt>
<pdfrwt beam="1">  1        1 0.22719699E+00 0.25831897E+03</pdfrwt>
<pdfrwt beam="2">  1       -1 0.17378941E-02 0.25831897E+03</pdfrwt>
<totfact> 0.62370639E+03</totfact>
</mgrwt>
</event>
<event>
 4    1  0.1672993E-004  0.2849491E+03  0.7818608E-02  0.1093016E+00
         -3   -1    0    0    0  501 -0.00000000000E+00  0.00000000000E+00  0.26695653091E+03  0.26695653091E+03  0.00000000000E+00 0.  1.
          3   -1    0    0  501    0  0.00000000000E+00 -0.00000000000E+00 -0.76038597194E+02  0.76038597194E+02  0.00000000000E+00 0.  1.
         25    1    1    2    0    0 -0.56711018900E+02  0.46810652336E+02  0.12214824668E+03  0.18635334986E+03  0.12000000000E+03 0.  0.
         25    1    1    2    0    0  0.56711018900E+02 -0.46810652336E+02  0.68769687038E+02  0.15664177825E+03  0.12000000000E+03 0.  0.
<mgrwt>
<rscale>  0 0.28494912E+03</rscale>
<asrwt>0</asrwt>
<pdfrwt beam="1">  1        3 0.11698246E-01 0.28494912E+03</pdfrwt>
<pdfrwt beam="2">  1       -3 0.41070235E-01 0.28494912E+03</pdfrwt>
<totfact> 0.85366096E+02</totfact>
</mgrwt>
</event>
<event>
 4    1  0.1672993E-004  0.2570928E+03  0.7818608E-02  0.1108903E+00
         -2   -1    0    0    0  501 -0.00000000000E+00  0.00000000000E+00  0.23784635267E+03  0.23784635267E+03  0.00000000000E+00 0. -1.
          2   -1    0    0  501    0  0.00000000000E+00 -0.00000000000E+00 -0.69474178979E+02  0.69474178979E+02  0.00000000000E+00 0. -1.
         25    1    1    2    0    0  0.10758705436E+02  0.44446291485E+02  0.77323643272E+02  0.14990052828E+03  0.12000000000E+03 0.  0.
         25    1    1    2    0    0 -0.10758705436E+02 -0.44446291485E+02  0.91048530417E+02  0.15742000337E+03  0.12000000000E+03 0.  0.
<mgrwt>
<rscale>  0 0.25709282E+03</rscale>
<asrwt>0</asrwt>
<pdfrwt beam="1">  1        2 0.10688335E-01 0.25709282E+03</pdfrwt>
<pdfrwt beam="2">  1       -2 0.36591746E-01 0.25709282E+03</pdfrwt>
<totfact> 0.41280342E+03</totfact>
</mgrwt>
</event>
<event>
 4    1  0.1672993E-004  0.2436036E+03  0.7818608E-02  0.1117415E+00
          2   -1    0    0  501    0  0.00000000000E+00  0.00000000000E+00  0.22605460003E+02  0.22605460003E+02  0.00000000000E+00 0.  1.
         -2   -1    0    0    0  501 -0.00000000000E+00 -0.00000000000E+00 -0.65628721177E+03  0.65628721177E+03  0.00000000000E+00 0.  1.
         25    1    1    2    0    0 -0.14608943652E+02  0.14356782393E+02 -0.32803561095E+03  0.34989555654E+03  0.12000000000E+03 0.  0.
         25    1    1    2    0    0  0.14608943652E+02 -0.14356782393E+02 -0.30564614081E+03  0.32899711523E+03  0.12000000000E+03 0.  0.
<mgrwt>
<rscale>  0 0.24360357E+03</rscale>
<asrwt>0</asrwt>
<pdfrwt beam="1">  1        2 0.34777633E-02 0.24360357E+03</pdfrwt>
<pdfrwt beam="2">  1       -2 0.10096726E+00 0.24360357E+03</pdfrwt>
<totfact> 0.21333170E+03</totfact>
</mgrwt>
</event>
<event>
 4    1  0.1672993E-004  0.3142340E+03  0.7818608E-02  0.1078334E+00
          1   -1    0    0  501    0  0.00000000000E+00  0.00000000000E+00  0.13629187433E+04  0.13629187433E+04  0.00000000000E+00 0. -1.
         -1   -1    0    0    0  501 -0.00000000000E+00 -0.00000000000E+00 -0.18112420168E+02  0.18112420168E+02  0.00000000000E+00 0. -1.
         25    1    1    2    0    0 -0.70216615931E+02  0.46545881005E+02  0.42422228840E+03  0.44884456348E+03  0.12000000000E+03 0.  0.
         25    1    1    2    0    0  0.70216615931E+02 -0.46545881005E+02  0.92058403469E+03  0.93218659994E+03  0.12000000000E+03 0.  0.
<mgrwt>
<rscale>  0 0.31423403E+03</rscale>
<asrwt>0</asrwt>
<pdfrwt beam="1">  1        1 0.20967973E+00 0.31423403E+03</pdfrwt>
<pdfrwt beam="2">  1       -1 0.27865273E-02 0.31423403E+03</pdfrwt>
<totfact> 0.37264000E+03</totfact>
</mgrwt>
</event>
<event>
 4    1  0.1672993E-004  0.2507856E+03  0.7818608E-02  0.1112809E+00
         -2   -1    0    0    0  501 -0.00000000000E+00  0.00000000000E+00  0.24677117510E+02  0.24677117510E+02  0.00000000000E+00 0.  1.
          2   -1    0    0  501    0  0.00000000000E+00 -0.00000000000E+00 -0.63716347168E+03  0.63716347168E+03  0.00000000000E+00 0.  1.
         25    1    1    2    0    0  0.22614137359E+02 -0.21333214777E+02 -0.35609662351E+03  0.37705611060E+03  0.12000000000E+03 0.  0.
         25    1    1    2    0    0 -0.22614137359E+02  0.21333214777E+02 -0.25638973066E+03  0.28478447859E+03  0.12000000000E+03 0.  0.
<mgrwt>
<rscale>  0 0.25078563E+03</rscale>
<asrwt>0</asrwt>
<pdfrwt beam="1">  1        2 0.98025161E-01 0.25078563E+03</pdfrwt>
<pdfrwt beam="2">  1       -2 0.37964792E-02 0.25078563E+03</pdfrwt>
<totfact> 0.13836785E+04</totfact>
</mgrwt>
</event>
<event>
 4    1  0.1672993E-004  0.2850974E+03  0.7818608E-02  0.1092937E+00
         -3   -1    0    0    0  501 -0.00000000000E+00  0.00000000000E+00  0.36796649040E+03  0.36796649040E+03  0.00000000000E+00 0. -1.
          3   -1    0    0  501    0  0.00000000000E+00 -0.00000000000E+00 -0.55222770579E+02  0.55222770579E+02  0.00000000000E+00 0. -1.
         25    1    1    2    0    0  0.55744862142E+02  0.42291775300E+02  0.20387266467E+03  0.24669849475E+03  0.12000000000E+03 0.  0.
         25    1    1    2    0    0 -0.55744862142E+02 -0.42291775300E+02  0.10887105515E+03  0.17649076622E+03  0.12000000000E+03 0.  0.
<mgrwt>
<rscale>  0 0.28509738E+03</rscale>
<asrwt>0</asrwt>
<pdfrwt beam="1">  1        3 0.84958111E-02 0.28509738E+03</pdfrwt>
<pdfrwt beam="2">  1       -3 0.56610228E-01 0.28509738E+03</pdfrwt>
<totfact> 0.76497238E+02</totfact>
</mgrwt>
</event>
<event>
 4    1  0.1672993E-004  0.3251809E+03  0.7818608E-02  0.1073289E+00
          2   -1    0    0  501    0  0.00000000000E+00  0.00000000000E+00  0.10729958103E+04  0.10729958103E+04  0.00000000000E+00 0.  1.
         -2   -1    0    0    0  501 -0.00000000000E+00 -0.00000000000E+00 -0.24637244060E+02  0.24637244060E+02  0.00000000000E+00 0.  1.
         25    1    1    2    0    0 -0.58981443858E+02  0.88818831566E+02  0.61142440844E+03  0.63214508050E+03  0.12000000000E+03 0.  0.
         25    1    1    2    0    0  0.58981443858E+02 -0.88818831566E+02  0.43693415782E+03  0.46548797389E+03  0.12000000000E+03 0.  0.
<mgrwt>
<rscale>  0 0.32518093E+03</rscale>
<asrwt>0</asrwt>
<pdfrwt beam="1">  1        2 0.16507624E+00 0.32518093E+03</pdfrwt>
<pdfrwt beam="2">  1       -2 0.37903461E-02 0.32518093E+03</pdfrwt>
<totfact> 0.70889088E+03</totfact>
</mgrwt>
</event>
<event>
 4    1  0.1672993E-004  0.3054677E+03  0.7818608E-02  0.1082539E+00
          2   -1    0    0  501    0  0.00000000000E+00  0.00000000000E+00  0.26815884938E+03  0.26815884938E+03  0.00000000000E+00 0. -1.
         -2   -1    0    0    0  501 -0.00000000000E+00 -0.00000000000E+00 -0.86991831417E+02  0.86991831417E+02  0.00000000000E+00 0. -1.
         25    1    1    2    0    0  0.32395220297E+02 -0.45545640038E+02  0.17915676107E+03  0.22275771740E+03  0.12000000000E+03 0.  0.
         25    1    1    2    0    0 -0.32395220297E+02  0.45545640038E+02  0.20102568962E+01  0.13239296340E+03  0.12000000000E+03 0.  0.
<mgrwt>
<rscale>  0 0.30546770E+03</rscale>
<asrwt>0</asrwt>
<pdfrwt beam="1">  1        2 0.41255207E-01 0.30546770E+03</pdfrwt>
<pdfrwt beam="2">  1       -2 0.13383359E-01 0.30546770E+03</pdfrwt>
<totfact> 0.50993226E+03</totfact>
</mgrwt>
</event>
<event>
 4    1  0.1672993E-004  0.2657919E+03  0.7818608E-02  0.1103712E+00
          2   -1    0    0  501    0  0.00000000000E+00  0.00000000000E+00  0.11394950609E+04  0.11394950609E+04  0.00000000000E+00 0. -1.
         -2   -1    0    0    0  501 -0.00000000000E+00 -0.00000000000E+00 -0.15499264749E+02  0.15499264749E+02  0.00000000000E+00 0. -1.
         25    1    1    2    0    0 -0.52422070327E+02 -0.11153144882E+02  0.47630594506E+03  0.49410506919E+03  0.12000000000E+03 0.  0.
         25    1    1    2    0    0  0.52422070327E+02  0.11153144882E+02  0.64768985109E+03  0.66088925646E+03  0.12000000000E+03 0.  0.
<mgrwt>
<rscale>  0 0.26579192E+03</rscale>
<asrwt>0</asrwt>
<pdfrwt beam="1">  1        2 0.17530687E+00 0.26579192E+03</pdfrwt>
<pdfrwt beam="2">  1       -2 0.23845032E-02 0.26579192E+03</pdfrwt>
<totfact> 0.12870452E+04</totfact>
</mgrwt>
</event>
<event>
 4    1  0.1672993E-004  0.2644958E+03  0.7818608E-02  0.1104472E+00
         -2   -1    0    0    0  501 -0.00000000000E+00  0.00000000000E+00  0.11977747131E+02  0.11977747131E+02  0.00000000000E+00 0. -1.
          2   -1    0    0  501    0  0.00000000000E+00 -0.00000000000E+00 -0.14601663943E+04  0.14601663943E+04  0.00000000000E+00 0. -1.
         25    1    1    2    0    0  0.19786593126E+02  0.16125316031E+02 -0.99891263233E+03  0.10064183932E+04  0.12000000000E+03 0.  0.
         25    1    1    2    0    0 -0.19786593126E+02 -0.16125316031E+02 -0.44927601489E+03  0.46572574831E+03  0.12000000000E+03 0.  0.
<mgrwt>
<rscale>  0 0.26449578E+03</rscale>
<asrwt>0</asrwt>
<pdfrwt beam="1">  1        2 0.22464095E+00 0.26449578E+03</pdfrwt>
<pdfrwt beam="2">  1       -2 0.18427306E-02 0.26449578E+03</pdfrwt>
<totfact> 0.12485841E+04</totfact>
</mgrwt>
</event>
<event>
 4    1  0.1672993E-004  0.2514608E+03  0.7818608E-02  0.1112385E+00
          2   -1    0    0  501    0  0.00000000000E+00  0.00000000000E+00  0.28733573329E+03  0.28733573329E+03  0.00000000000E+00 0. -1.
         -2   -1    0    0    0  501 -0.00000000000E+00 -0.00000000000E+00 -0.55016240349E+02  0.55016240349E+02  0.00000000000E+00 0. -1.
         25    1    1    2    0    0 -0.45328246073E+01 -0.73379039027E+01  0.16588055989E+03  0.20491645001E+03  0.12000000000E+03 0.  0.
         25    1    1    2    0    0  0.45328246073E+01  0.73379039027E+01  0.66438933053E+02  0.13743552364E+03  0.12000000000E+03 0.  0.
<mgrwt>
<rscale>  0 0.25146079E+03</rscale>
<asrwt>0</asrwt>
<pdfrwt beam="1">  1        2 0.44205497E-01 0.25146079E+03</pdfrwt>
<pdfrwt beam="2">  1       -2 0.84640371E-02 0.25146079E+03</pdfrwt>
<totfact> 0.97795541E+03</totfact>
</mgrwt>
</event>
<event>
 4    1  0.1672993E-004  0.3424669E+03  0.7818608E-02  0.1065750E+00
         -1   -1    0    0    0  501 -0.00000000000E+00  0.00000000000E+00  0.15430777687E+02  0.15430777687E+02  0.00000000000E+00 0.  1.
          1   -1    0    0  501    0  0.00000000000E+00 -0.00000000000E+00 -0.19001564351E+04  0.19001564351E+04  0.00000000000E+00 0.  1.
         25    1    1    2    0    0  0.14430886146E+02  0.11837249117E+03 -0.10904156448E+04  0.11034611799E+04  0.12000000000E+03 0.  0.
         25    1    1    2    0    0 -0.14430886146E+02 -0.11837249117E+03 -0.79431001264E+03  0.81212603291E+03  0.12000000000E+03 0.  0.
<mgrwt>
<rscale>  0 0.34246688E+03</rscale>
<asrwt>0</asrwt>
<pdfrwt beam="1">  1        1 0.29233174E+00 0.34246688E+03</pdfrwt>
<pdfrwt beam="2">  1       -1 0.23739659E-02 0.34246688E+03</pdfrwt>
<totfact> 0.20820466E+03</totfact>
</mgrwt>
</event>
<event>
 4    1  0.1672993E-004  0.3780333E+03  0.7818608E-02  0.1051663E+00
          2   -1    0    0  501    0  0.00000000000E+00  0.00000000000E+00  0.36266028277E+03  0.36266028277E+03  0.00000000000E+00 0. -1.
         -2   -1    0    0    0  501 -0.00000000000E+00 -0.00000000000E+00 -0.98514513021E+02  0.98514513021E+02  0.00000000000E+00 0. -1.
         25    1    1    2    0    0 -0.91205421309E+02 -0.11265789329E+03  0.15379559291E+03  0.24302945129E+03  0.12000000000E+03 0.  0.
         25    1    1    2    0    0  0.91205421309E+02  0.11265789329E+03  0.11035017684E+03  0.21814534450E+03  0.12000000000E+03 0.  0.
<mgrwt>
<rscale>  0 0.37803334E+03</rscale>
<asrwt>0</asrwt>
<pdfrwt beam="1">  1        2 0.55793889E-01 0.37803334E+03</pdfrwt>
<pdfrwt beam="2">  1       -2 0.15156079E-01 0.37803334E+03</pdfrwt>
<totfact> 0.30068709E+03</totfact>
</mgrwt>
</event>
<event>
 4    1  0.1672993E-004  0.3901224E+03  0.7818608E-02  0.1047255E+00
          2   -1    0    0  501    0  0.00000000000E+00  0.00000000000E+00  0.13091557675E+04  0.13091557675E+04  0.00000000000E+00 0. -1.
         -2   -1    0    0    0  501 -0.00000000000E+00 -0.00000000000E+00 -0.29063676846E+02  0.29063676846E+02  0.00000000000E+00 0. -1.
         25    1    1    2    0    0  0.14001404608E+03  0.44932028947E+02  0.79444790776E+03  0.81680493294E+03  0.12000000000E+03 0.  0.
         25    1    1    2    0    0 -0.14001404608E+03 -0.44932028947E+02  0.48564418284E+03  0.52141451136E+03  0.12000000000E+03 0.  0.
<mgrwt>
<rscale>  0 0.39012244E+03</rscale>
<asrwt>0</asrwt>
<pdfrwt beam="1">  1        2 0.20140853E+00 0.39012244E+03</pdfrwt>
<pdfrwt beam="2">  1       -2 0.44713359E-02 0.39012244E+03</pdfrwt>
<totfact> 0.40377438E+03</totfact>
</mgrwt>
</event>
<event>
 4    1  0.1672993E-004  0.3187288E+03  0.7818608E-02  0.1076236E+00
         -2   -1    0    0    0  501 -0.00000000000E+00  0.00000000000E+00  0.67765280882E+03  0.67765280882E+03  0.00000000000E+00 0. -1.
          2   -1    0    0  501    0  0.00000000000E+00 -0.00000000000E+00 -0.37477909271E+02  0.37477909271E+02  0.00000000000E+00 0. -1.
         25    1    1    2    0    0 -0.17258936571E+02 -0.96088069703E+02  0.23417342361E+03  0.28065633853E+03  0.12000000000E+03 0.  0.
         25    1    1    2    0    0  0.17258936571E+02  0.96088069703E+02  0.40600147594E+03  0.43447437956E+03  0.12000000000E+03 0.  0.
<mgrwt>
<rscale>  0 0.31872879E+03</rscale>
<asrwt>0</asrwt>
<pdfrwt beam="1">  1        2 0.57658327E-02 0.31872879E+03</pdfrwt>
<pdfrwt beam="2">  1       -2 0.10425427E+00 0.31872879E+03</pdfrwt>
<totfact> 0.10161464E+03</totfact>
</mgrwt>
</event>
<event>
 4    1  0.1672993E-004  0.4263459E+03  0.7818608E-02  0.1035021E+00
          1   -1    0    0  501    0  0.00000000000E+00  0.00000000000E+00  0.78505630045E+03  0.78505630045E+03  0.00000000000E+00 0. -1.
         -1   -1    0    0    0  501 -0.00000000000E+00 -0.00000000000E+00 -0.57884650277E+02  0.57884650277E+02  0.00000000000E+00 0. -1.
         25    1    1    2    0    0 -0.10098403973E+03 -0.43150191591E+01  0.78259888413E+02  0.17533113188E+03  0.12000000000E+03 0.  0.
         25    1    1    2    0    0  0.10098403973E+03  0.43150191591E+01  0.64891176176E+03  0.66760981885E+03  0.12000000000E+03 0.  0.
<mgrwt>
<rscale>  0 0.42634591E+03</rscale>
<asrwt>0</asrwt>
<pdfrwt beam="1">  1        1 0.12077789E+00 0.42634591E+03</pdfrwt>
<pdfrwt beam="2">  1       -1 0.89053313E-02 0.42634591E+03</pdfrwt>
<totfact> 0.17343048E+03</totfact>
</mgrwt>
</event>
<event>
 4    1  0.1672993E-004  0.3100805E+03  0.7818608E-02  0.1080307E+00
          1   -1    0    0  501    0  0.00000000000E+00  0.00000000000E+00  0.57928410430E+03  0.57928410430E+03  0.00000000000E+00 0. -1.
         -1   -1    0    0    0  501 -0.00000000000E+00 -0.00000000000E+00 -0.41495148838E+02  0.41495148838E+02  0.00000000000E+00 0. -1.
         25    1    1    2    0    0  0.33354799407E+02  0.87584115463E+02  0.21039101864E+03  0.25970733653E+03  0.12000000000E+03 0.  0.
         25    1    1    2    0    0 -0.33354799407E+02 -0.87584115463E+02  0.32739793683E+03  0.36107191661E+03  0.12000000000E+03 0.  0.
<mgrwt>
<rscale>  0 0.31008051E+03</rscale>
<asrwt>0</asrwt>
<pdfrwt beam="1">  1        1 0.89120626E-01 0.31008051E+03</pdfrwt>
<pdfrwt beam="2">  1       -1 0.63838695E-02 0.31008051E+03</pdfrwt>
<totfact> 0.44934212E+03</totfact>
</mgrwt>
</event>
<event>
 4    1  0.1672993E-004  0.2542643E+03  0.7818608E-02  0.1110639E+00
         -1   -1    0    0    0  501 -0.00000000000E+00  0.00000000000E+00  0.12248694284E+03  0.12248694284E+03  0.00000000000E+00 0.  1.
          1   -1    0    0  501    0  0.00000000000E+00 -0.00000000000E+00 -0.13195355175E+03  0.13195355175E+03  0.00000000000E+00 0.  1.
         25    1    1    2    0    0  0.15462865562E+02 -0.12888833499E+02 -0.41601264200E+02  0.12859194152E+03  0.12000000000E+03 0.  0.
         25    1    1    2    0    0 -0.15462865562E+02  0.12888833499E+02  0.32134655295E+02  0.12584855308E+03  0.12000000000E+03 0.  0.
<mgrwt>
<rscale>  0 0.25426433E+03</rscale>
<asrwt>0</asrwt>
<pdfrwt beam="1">  1        1 0.20300546E-01 0.25426433E+03</pdfrwt>
<pdfrwt beam="2">  1       -1 0.18844145E-01 0.25426433E+03</pdfrwt>
<totfact> 0.55034250E+03</totfact>
</mgrwt>
</event>
<event>
 4    1  0.1672993E-004  0.2686823E+03  0.7818608E-02  0.1102036E+00
         -2   -1    0    0    0  501 -0.00000000000E+00  0.00000000000E+00  0.22744761122E+02  0.22744761122E+02  0.00000000000E+00 0. -1.
          2   -1    0    0  501    0  0.00000000000E+00 -0.00000000000E+00 -0.79348156045E+03  0.79348156045E+03  0.00000000000E+00 0. -1.
         25    1    1    2    0    0  0.32534197767E+02  0.76895354869E+01 -0.53816971028E+03  0.55239862423E+03  0.12000000000E+03 0.  0.
         25    1    1    2    0    0 -0.32534197767E+02 -0.76895354869E+01 -0.23256708905E+03  0.26382769735E+03  0.12000000000E+03 0.  0.
<mgrwt>
<rscale>  0 0.26868233E+03</rscale>
<asrwt>0</asrwt>
<pdfrwt beam="1">  1        2 0.12207407E+00 0.26868233E+03</pdfrwt>
<pdfrwt beam="2">  1       -2 0.34991944E-02 0.26868233E+03</pdfrwt>
<totfact> 0.11998554E+04</totfact>
</mgrwt>
</event>
<event>
 4    1  0.1672993E-004  0.2706297E+03  0.7818608E-02  0.1100920E+00
          1   -1    0    0  501    0  0.00000000000E+00  0.00000000000E+00  0.78145448522E+03  0.78145448522E+03  0.00000000000E+00 0. -1.
         -1   -1    0    0    0  501 -0.00000000000E+00 -0.00000000000E+00 -0.23430809214E+02  0.23430809214E+02  0.00000000000E+00 0. -1.
         25    1    1    2    0    0  0.17558480573E+02 -0.99066961225E+01  0.20296834073E+03  0.23664866407E+03  0.12000000000E+03 0.  0.
         25    1    1    2    0    0 -0.17558480573E+02  0.99066961225E+01  0.55505533527E+03  0.56823663036E+03  0.12000000000E+03 0.  0.
<mgrwt>
<rscale>  0 0.27062972E+03</rscale>
<asrwt>0</asrwt>
<pdfrwt beam="1">  1        1 0.12022375E+00 0.27062972E+03</pdfrwt>
<pdfrwt beam="2">  1       -1 0.36047405E-02 0.27062972E+03</pdfrwt>
<totfact> 0.68431500E+03</totfact>
</mgrwt>
</event>
<event>
 4    1  0.1672993E-004  0.2472496E+03  0.7818608E-02  0.1115055E+00
          2   -1    0    0  501    0  0.00000000000E+00  0.00000000000E+00  0.36946993520E+03  0.36946993520E+03  0.00000000000E+00 0. -1.
         -2   -1    0    0    0  501 -0.00000000000E+00 -0.00000000000E+00 -0.41364906256E+02  0.41364906256E+02  0.00000000000E+00 0. -1.
         25    1    1    2    0    0 -0.36567536159E+01 -0.11350452799E+02  0.20928047283E+03  0.24153782506E+03  0.12000000000E+03 0.  0.
         25    1    1    2    0    0  0.36567536159E+01  0.11350452799E+02  0.11882455611E+03  0.16929701640E+03  0.12000000000E+03 0.  0.
<mgrwt>
<rscale>  0 0.24724958E+03</rscale>
<asrwt>0</asrwt>
<pdfrwt beam="1">  1        2 0.56841526E-01 0.24724958E+03</pdfrwt>
<pdfrwt beam="2">  1       -2 0.63638320E-02 0.24724958E+03</pdfrwt>
<totfact> 0.11606136E+04</totfact>
</mgrwt>
</event>
<event>
 4    1  0.1672993E-004  0.2551685E+03  0.7818608E-02  0.1110081E+00
         -2   -1    0    0    0  501 -0.00000000000E+00  0.00000000000E+00  0.21149797548E+02  0.21149797548E+02  0.00000000000E+00 0.  1.
          2   -1    0    0  501    0  0.00000000000E+00 -0.00000000000E+00 -0.76964049961E+03  0.76964049961E+03  0.00000000000E+00 0.  1.
         25    1    1    2    0    0  0.97615097846E+01 -0.18076288967E+02 -0.25600371484E+03  0.28347829072E+03  0.12000000000E+03 0.  0.
         25    1    1    2    0    0 -0.97615097846E+01  0.18076288967E+02 -0.49248698722E+03  0.50731200644E+03  0.12000000000E+03 0.  0.
<mgrwt>
<rscale>  0 0.25516850E+03</rscale>
<asrwt>0</asrwt>
<pdfrwt beam="1">  1        2 0.11840624E+00 0.25516850E+03</pdfrwt>
<pdfrwt beam="2">  1       -2 0.32538147E-02 0.25516850E+03</pdfrwt>
<totfact> 0.13869629E+04</totfact>
</mgrwt>
</event>
<event>
 4    1  0.1672993E-004  0.3569444E+03  0.7818608E-02  0.1059800E+00
          1   -1    0    0  501    0  0.00000000000E+00  0.00000000000E+00  0.76336079379E+03  0.76336079379E+03  0.00000000000E+00 0.  1.
         -1   -1    0    0    0  501 -0.00000000000E+00 -0.00000000000E+00 -0.41726442259E+02  0.41726442259E+02  0.00000000000E+00 0.  1.
         25    1    1    2    0    0 -0.83941913675E+02 -0.47528994391E+02  0.15723332264E+03  0.22006264546E+03  0.12000000000E+03 0.  0.
         25    1    1    2    0    0  0.83941913675E+02  0.47528994391E+02  0.56440102889E+03  0.58502459059E+03  0.12000000000E+03 0.  0.
<mgrwt>
<rscale>  0 0.35694442E+03</rscale>
<asrwt>0</asrwt>
<pdfrwt beam="1">  1        1 0.11744011E+00 0.35694442E+03</pdfrwt>
<pdfrwt beam="2">  1       -1 0.64194532E-02 0.35694442E+03</pdfrwt>
<totfact> 0.29948583E+03</totfact>
</mgrwt>
</event>
<event>
 4    1  0.1672993E-004  0.2751090E+03  0.7818608E-02  0.1098391E+00
         -4   -1    0    0    0  501 -0.00000000000E+00  0.00000000000E+00  0.74447725916E+02  0.74447725916E+02  0.00000000000E+00 0. -1.
          4   -1    0    0  501    0  0.00000000000E+00 -0.00000000000E+00 -0.25415464427E+03  0.25415464427E+03  0.00000000000E+00 0. -1.
         25    1    1    2    0    0 -0.25415662142E+02  0.26603348644E+02 -0.22629034706E+02  0.12753731710E+03  0.12000000000E+03 0.  0.
         25    1    1    2    0    0  0.25415662142E+02 -0.26603348644E+02 -0.15707788365E+03  0.20106505308E+03  0.12000000000E+03 0.  0.
<mgrwt>
<rscale>  0 0.27510896E+03</rscale>
<asrwt>0</asrwt>
<pdfrwt beam="1">  1        4 0.39100715E-01 0.27510896E+03</pdfrwt>
<pdfrwt beam="2">  1       -4 0.11453496E-01 0.27510896E+03</pdfrwt>
<totfact> 0.71821386E+02</totfact>
</mgrwt>
</event>
<event>
 4    1  0.1672993E-004  0.2729295E+03  0.7818608E-02  0.1099615E+00
          1   -1    0    0  501    0  0.00000000000E+00  0.00000000000E+00  0.83462569472E+03  0.83462569472E+03  0.00000000000E+00 0.  1.
         -1   -1    0    0    0  501 -0.00000000000E+00 -0.00000000000E+00 -0.22312548337E+02  0.22312548337E+02  0.00000000000E+00 0.  1.
         25    1    1    2    0    0 -0.29527730872E+02 -0.52069357735E+02  0.32675546625E+03  0.35320283072E+03  0.12000000000E+03 0.  0.
         25    1    1    2    0    0  0.29527730872E+02  0.52069357735E+02  0.48555768013E+03  0.50373541234E+03  0.12000000000E+03 0.  0.
<mgrwt>
<rscale>  0 0.27292949E+03</rscale>
<asrwt>0</asrwt>
<pdfrwt beam="1">  1        1 0.12840393E+00 0.27292949E+03</pdfrwt>
<pdfrwt beam="2">  1       -1 0.34327004E-02 0.27292949E+03</pdfrwt>
<totfact> 0.66468052E+03</totfact>
</mgrwt>
</event>
<event>
 4    1  0.1672993E-004  0.2708642E+03  0.7818608E-02  0.1100786E+00
         -1   -1    0    0    0  501 -0.00000000000E+00  0.00000000000E+00  0.56892140474E+02  0.56892140474E+02  0.00000000000E+00 0. -1.
          1   -1    0    0  501    0  0.00000000000E+00 -0.00000000000E+00 -0.32239698910E+03  0.32239698910E+03  0.00000000000E+00 0. -1.
         25    1    1    2    0    0  0.25085588960E+02 -0.57327182409E+02 -0.13991477706E+03  0.19465825812E+03  0.12000000000E+03 0.  0.
         25    1    1    2    0    0 -0.25085588960E+02  0.57327182409E+02 -0.12559007157E+03  0.18463087145E+03  0.12000000000E+03 0.  0.
<mgrwt>
<rscale>  0 0.27086421E+03</rscale>
<asrwt>0</asrwt>
<pdfrwt beam="1">  1        1 0.49599536E-01 0.27086421E+03</pdfrwt>
<pdfrwt beam="2">  1       -1 0.87526371E-02 0.27086421E+03</pdfrwt>
<totfact> 0.59481015E+03</totfact>
</mgrwt>
</event>
<event>
 4    1  0.1672993E-004  0.3795139E+03  0.7818608E-02  0.1051114E+00
         -2   -1    0    0    0  501 -0.00000000000E+00  0.00000000000E+00  0.18818030210E+02  0.18818030210E+02  0.00000000000E+00 0.  1.
          2   -1    0    0  501    0  0.00000000000E+00 -0.00000000000E+00 -0.19134683945E+04  0.19134683945E+04  0.00000000000E+00 0.  1.
         25    1    1    2    0    0  0.87351539359E+02  0.75463346672E+02 -0.14106970798E+04  0.14204897955E+04  0.12000000000E+03 0.  0.
         25    1    1    2    0    0 -0.87351539359E+02 -0.75463346672E+02 -0.48395328450E+03  0.51179662924E+03  0.12000000000E+03 0.  0.
<mgrwt>
<rscale>  0 0.37951393E+03</rscale>
<asrwt>0</asrwt>
<pdfrwt beam="1">  1        2 0.29437969E+00 0.37951393E+03</pdfrwt>
<pdfrwt beam="2">  1       -2 0.28950822E-02 0.37951393E+03</pdfrwt>
<totfact> 0.36769895E+03</totfact>
</mgrwt>
</event>
<event>
 4    1  0.1672993E-004  0.2721680E+03  0.7818608E-02  0.1100045E+00
          2   -1    0    0  501    0  0.00000000000E+00  0.00000000000E+00  0.49690915148E+03  0.49690915148E+03  0.00000000000E+00 0. -1.
         -2   -1    0    0    0  501 -0.00000000000E+00 -0.00000000000E+00 -0.37268092738E+02  0.37268092738E+02  0.00000000000E+00 0. -1.
         25    1    1    2    0    0 -0.57043519323E+02  0.99736526072E+01  0.28412030892E+03  0.31381170594E+03  0.12000000000E+03 0.  0.
         25    1    1    2    0    0  0.57043519323E+02 -0.99736526072E+01  0.17552074982E+03  0.22036553828E+03  0.12000000000E+03 0.  0.
<mgrwt>
<rscale>  0 0.27216801E+03</rscale>
<asrwt>0</asrwt>
<pdfrwt beam="1">  1        2 0.76447557E-01 0.27216801E+03</pdfrwt>
<pdfrwt beam="2">  1       -2 0.57335531E-02 0.27216801E+03</pdfrwt>
<totfact> 0.98878100E+03</totfact>
</mgrwt>
</event>
<event>
 4    1  0.1672993E-004  0.2572585E+03  0.7818608E-02  0.1108802E+00
         -2   -1    0    0    0  501 -0.00000000000E+00  0.00000000000E+00  0.25555586997E+02  0.25555586997E+02  0.00000000000E+00 0. -1.
          2   -1    0    0  501    0  0.00000000000E+00 -0.00000000000E+00 -0.64743104459E+03  0.64743104459E+03  0.00000000000E+00 0. -1.
         25    1    1    2    0    0 -0.36434120916E+02  0.74604772581E+01 -0.38316837508E+03  0.40323827639E+03  0.12000000000E+03 0.  0.
         25    1    1    2    0    0  0.36434120916E+02 -0.74604772581E+01 -0.23870708252E+03  0.26974835520E+03  0.12000000000E+03 0.  0.
<mgrwt>
<rscale>  0 0.25725847E+03</rscale>
<asrwt>0</asrwt>
<pdfrwt beam="1">  1        2 0.99604768E-01 0.25725847E+03</pdfrwt>
<pdfrwt beam="2">  1       -2 0.39316291E-02 0.25725847E+03</pdfrwt>
<totfact> 0.12898864E+04</totfact>
</mgrwt>
</event>
<event>
 4    1  0.1672993E-004  0.3135732E+03  0.7818608E-02  0.1078646E+00
          2   -1    0    0  501    0  0.00000000000E+00  0.00000000000E+00  0.41489678777E+03  0.41489678777E+03  0.00000000000E+00 0. -1.
         -2   -1    0    0    0  501 -0.00000000000E+00 -0.00000000000E+00 -0.59248570772E+02  0.59248570772E+02  0.00000000000E+00 0. -1.
         25    1    1    2    0    0  0.65707070940E+02 -0.51166433288E+02  0.26398063279E+03  0.30169719514E+03  0.12000000000E+03 0.  0.
         25    1    1    2    0    0 -0.65707070940E+02  0.51166433288E+02  0.91667584214E+02  0.17244816341E+03  0.12000000000E+03 0.  0.
<mgrwt>
<rscale>  0 0.31357322E+03</rscale>
<asrwt>0</asrwt>
<pdfrwt beam="1">  1        2 0.63830273E-01 0.31357322E+03</pdfrwt>
<pdfrwt beam="2">  1       -2 0.91151650E-02 0.31357322E+03</pdfrwt>
<totfact> 0.58974821E+03</totfact>
</mgrwt>
</event>
<event>
 4    1  0.1672993E-004  0.2919501E+03  0.7818608E-02  0.1089335E+00
         -1   -1    0    0    0  501 -0.00000000000E+00  0.00000000000E+00  0.28876677133E+02  0.28876677133E+02  0.00000000000E+00 0.  1.
          1   -1    0    0  501    0  0.00000000000E+00 -0.00000000000E+00 -0.73792130128E+03  0.73792130128E+03  0.00000000000E+00 0.  1.
         25    1    1    2    0    0 -0.14502434424E+02  0.79489169706E+02 -0.40571262768E+03  0.43073377505E+03  0.12000000000E+03 0.  0.
         25    1    1    2    0    0  0.14502434424E+02 -0.79489169706E+02 -0.30333199647E+03  0.33606420337E+03  0.12000000000E+03 0.  0.
<mgrwt>
<rscale>  0 0.29195010E+03</rscale>
<asrwt>0</asrwt>
<pdfrwt beam="1">  1        1 0.11352635E+00 0.29195010E+03</pdfrwt>
<pdfrwt beam="2">  1       -1 0.44425658E-02 0.29195010E+03</pdfrwt>
<totfact> 0.54763081E+03</totfact>
</mgrwt>
</event>
<event>
 4    1  0.1672993E-004  0.2627836E+03  0.7818608E-02  0.1105482E+00
          1   -1    0    0  501    0  0.00000000000E+00  0.00000000000E+00  0.10894807852E+02  0.10894807852E+02  0.00000000000E+00 0. -1.
         -1   -1    0    0    0  501 -0.00000000000E+00 -0.00000000000E+00 -0.15845902387E+04  0.15845902387E+04  0.00000000000E+00 0. -1.
         25    1    1    2    0    0  0.49997849638E+02  0.18197809974E+02 -0.82165212863E+03  0.83207161095E+03  0.12000000000E+03 0.  0.
         25    1    1    2    0    0 -0.49997849638E+02 -0.18197809974E+02 -0.75204330219E+03  0.76341343558E+03  0.12000000000E+03 0.  0.
<mgrwt>
<rscale>  0 0.26278361E+03</rscale>
<asrwt>0</asrwt>
<pdfrwt beam="1">  1        1 0.16761259E-02 0.26278361E+03</pdfrwt>
<pdfrwt beam="2">  1       -1 0.24378287E+00 0.26278361E+03</pdfrwt>
<totfact> 0.67487574E+02</totfact>
</mgrwt>
</event>
<event>
 4    1  0.1672993E-004  0.3080493E+03  0.7818608E-02  0.1081285E+00
          1   -1    0    0  501    0  0.00000000000E+00  0.00000000000E+00  0.55129023146E+02  0.55129023146E+02  0.00000000000E+00 0. -1.
         -1   -1    0    0    0  501 -0.00000000000E+00 -0.00000000000E+00 -0.43032862300E+03  0.43032862300E+03  0.00000000000E+00 0. -1.
         25    1    1    2    0    0 -0.14655205933E+02  0.66842228866E+02 -0.29495769003E+03  0.32570338888E+03  0.12000000000E+03 0.  0.
         25    1    1    2    0    0  0.14655205933E+02 -0.66842228866E+02 -0.80241909816E+02  0.15975425726E+03  0.12000000000E+03 0.  0.
<mgrwt>
<rscale>  0 0.30804932E+03</rscale>
<asrwt>0</asrwt>
<pdfrwt beam="1">  1        1 0.84813882E-02 0.30804932E+03</pdfrwt>
<pdfrwt beam="2">  1       -1 0.66204403E-01 0.30804932E+03</pdfrwt>
<totfact> 0.19257849E+03</totfact>
</mgrwt>
</event>
<event>
 4    1  0.1672993E-004  0.2794683E+03  0.7818608E-02  0.1095980E+00
          1   -1    0    0  501    0  0.00000000000E+00  0.00000000000E+00  0.15996634041E+03  0.15996634041E+03  0.00000000000E+00 0.  1.
         -1   -1    0    0    0  501 -0.00000000000E+00 -0.00000000000E+00 -0.12206088043E+03  0.12206088043E+03  0.00000000000E+00 0.  1.
         25    1    1    2    0    0 -0.48330327784E+02  0.52441629660E+02  0.12595265373E+02  0.14015914460E+03  0.12000000000E+03 0.  0.
         25    1    1    2    0    0  0.48330327784E+02 -0.52441629660E+02  0.25310194608E+02  0.14186807624E+03  0.12000000000E+03 0.  0.
<mgrwt>
<rscale>  0 0.27946830E+03</rscale>
<asrwt>0</asrwt>
<pdfrwt beam="1">  1        1 0.24610206E-01 0.27946830E+03</pdfrwt>
<pdfrwt beam="2">  1       -1 0.18778597E-01 0.27946830E+03</pdfrwt>
<totfact> 0.43398658E+03</totfact>
</mgrwt>
</event>
<event>
 4    1  0.1672993E-004  0.3471507E+03  0.7818608E-02  0.1063791E+00
         -1   -1    0    0    0  501 -0.00000000000E+00  0.00000000000E+00  0.11559289697E+03  0.11559289697E+03  0.00000000000E+00 0. -1.
          1   -1    0    0  501    0  0.00000000000E+00 -0.00000000000E+00 -0.26064227052E+03  0.26064227052E+03  0.00000000000E+00 0. -1.
         25    1    1    2    0    0  0.98362522340E+02  0.52088464170E+02 -0.98900294744E+01  0.16397013930E+03  0.12000000000E+03 0.  0.
         25    1    1    2    0    0 -0.98362522340E+02 -0.52088464170E+02 -0.13515934407E+03  0.21226502819E+03  0.12000000000E+03 0.  0.
<mgrwt>
<rscale>  0 0.34715066E+03</rscale>
<asrwt>0</asrwt>
<pdfrwt beam="1">  1        1 0.40098811E-01 0.34715066E+03</pdfrwt>
<pdfrwt beam="2">  1       -1 0.17783523E-01 0.34715066E+03</pdfrwt>
<totfact> 0.25659659E+03</totfact>
</mgrwt>
</event>
<event>
 4    1  0.1672993E-004  0.2574929E+03  0.7818608E-02  0.1108659E+00
         -1   -1    0    0    0  501 -0.00000000000E+00  0.00000000000E+00  0.35084494358E+03  0.35084494358E+03  0.00000000000E+00 0. -1.
          1   -1    0    0  501    0  0.00000000000E+00 -0.00000000000E+00 -0.47244925174E+02  0.47244925174E+02  0.00000000000E+00 0. -1.
         25    1    1    2    0    0  0.44730312242E+02 -0.11402728752E+02  0.16215028945E+03  0.20693849189E+03  0.12000000000E+03 0.  0.
         25    1    1    2    0    0 -0.44730312242E+02  0.11402728752E+02  0.14144972896E+03  0.19115137687E+03  0.12000000000E+03 0.  0.
<mgrwt>
<rscale>  0 0.25749286E+03</rscale>
<asrwt>0</asrwt>
<pdfrwt beam="1">  1        1 0.72684503E-02 0.25749286E+03</pdfrwt>
<pdfrwt beam="2">  1       -1 0.53976143E-01 0.25749286E+03</pdfrwt>
<totfact> 0.35057564E+03</totfact>
</mgrwt>
</event>
<event>
 4    1  0.1672993E-004  0.3208037E+03  0.7818608E-02  0.1075280E+00
          2   -1    0    0  501    0  0.00000000000E+00  0.00000000000E+00  0.63789632049E+03  0.63789632049E+03  0.00000000000E+00 0. -1.
         -2   -1    0    0    0  501 -0.00000000000E+00 -0.00000000000E+00 -0.40333759579E+02  0.40333759579E+02  0.00000000000E+00 0. -1.
         25    1    1    2    0    0 -0.80144145998E+02 -0.26477527768E+02  0.16169289054E+03  0.21833170742E+03  0.12000000000E+03 0.  0.
         25    1    1    2    0    0  0.80144145998E+02  0.26477527768E+02  0.43586967037E+03  0.45989837264E+03  0.12000000000E+03 0.  0.
<mgrwt>
<rscale>  0 0.32080372E+03</rscale>
<asrwt>0</asrwt>
<pdfrwt beam="1">  1        2 0.98137888E-01 0.32080372E+03</pdfrwt>
<pdfrwt beam="2">  1       -2 0.62051942E-02 0.32080372E+03</pdfrwt>
<totfact> 0.66061100E+03</totfact>
</mgrwt>
</event>
<event>
 4    1  0.1672993E-004  0.3699264E+03  0.7818608E-02  0.1054721E+00
         -2   -1    0    0    0  501 -0.00000000000E+00  0.00000000000E+00  0.45897503019E+02  0.45897503019E+02  0.00000000000E+00 0.  1.
          2   -1    0    0  501    0  0.00000000000E+00 -0.00000000000E+00 -0.74538662577E+03  0.74538662577E+03  0.00000000000E+00 0.  1.
         25    1    1    2    0    0  0.19581744763E+02  0.12700471127E+03 -0.47258053366E+03  0.50422812516E+03  0.12000000000E+03 0.  0.
         25    1    1    2    0    0 -0.19581744763E+02 -0.12700471127E+03 -0.22690858909E+03  0.28705600363E+03  0.12000000000E+03 0.  0.
<mgrwt>
<rscale>  0 0.36992640E+03</rscale>
<asrwt>0</asrwt>
<pdfrwt beam="1">  1        2 0.11467486E+00 0.36992640E+03</pdfrwt>
<pdfrwt beam="2">  1       -2 0.70611549E-02 0.36992640E+03</pdfrwt>
<totfact> 0.44827837E+03</totfact>
</mgrwt>
</event>
<event>
 4    1  0.1672993E-004  0.2833541E+03  0.7818608E-02  0.1093871E+00
          2   -1    0    0  501    0  0.00000000000E+00  0.00000000000E+00  0.90708356169E+03  0.90708356169E+03  0.00000000000E+00 0.  1.
         -2   -1    0    0    0  501 -0.00000000000E+00 -0.00000000000E+00 -0.22128486041E+02  0.22128486041E+02  0.00000000000E+00 0.  1.
         25    1    1    2    0    0  0.35475686340E+02 -0.27593253742E+02  0.24428883223E+03  0.27585674820E+03  0.12000000000E+03 0.  0.
         25    1    1    2    0    0 -0.35475686340E+02  0.27593253742E+02  0.64066624342E+03  0.65335529954E+03  0.12000000000E+03 0.  0.
<mgrwt>
<rscale>  0 0.28335410E+03</rscale>
<asrwt>0</asrwt>
<pdfrwt beam="1">  1        2 0.13955129E+00 0.28335410E+03</pdfrwt>
<pdfrwt beam="2">  1       -2 0.34043832E-02 0.28335410E+03</pdfrwt>
<totfact> 0.10517706E+04</totfact>
</mgrwt>
</event>
<event>
 4    1  0.1672993E-004  0.3057151E+03  0.7818608E-02  0.1082418E+00
         -3   -1    0    0    0  501 -0.00000000000E+00  0.00000000000E+00  0.60134295612E+03  0.60134295612E+03  0.00000000000E+00 0. -1.
          3   -1    0    0  501    0  0.00000000000E+00 -0.00000000000E+00 -0.38855418369E+02  0.38855418369E+02  0.00000000000E+00 0. -1.
         25    1    1    2    0    0 -0.55291705431E+02 -0.73014592928E+02  0.23093612377E+03  0.27589816369E+03  0.12000000000E+03 0.  0.
         25    1    1    2    0    0  0.55291705431E+02  0.73014592928E+02  0.33155141398E+03  0.36430021079E+03  0.12000000000E+03 0.  0.
<mgrwt>
<rscale>  0 0.30571511E+03</rscale>
<asrwt>0</asrwt>
<pdfrwt beam="1">  1        3 0.59777571E-02 0.30571511E+03</pdfrwt>
<pdfrwt beam="2">  1       -3 0.92514294E-01 0.30571511E+03</pdfrwt>
<totfact> 0.47347414E+02</totfact>
</mgrwt>
</event>
<event>
 4    1  0.1672993E-004  0.3630304E+03  0.7818608E-02  0.1057390E+00
         -2   -1    0    0    0  501 -0.00000000000E+00  0.00000000000E+00  0.11736554780E+03  0.11736554780E+03  0.00000000000E+00 0. -1.
          2   -1    0    0  501    0  0.00000000000E+00 -0.00000000000E+00 -0.28072776053E+03  0.28072776053E+03  0.00000000000E+00 0. -1.
         25    1    1    2    0    0  0.88076323461E+02 -0.10115801525E+03 -0.10757035023E+03  0.20967060608E+03  0.12000000000E+03 0.  0.
         25    1    1    2    0    0 -0.88076323461E+02  0.10115801525E+03 -0.55791862505E+02  0.18842270226E+03  0.12000000000E+03 0.  0.
<mgrwt>
<rscale>  0 0.36303040E+03</rscale>
<asrwt>0</asrwt>
<pdfrwt beam="1">  1        2 0.43188886E-01 0.36303040E+03</pdfrwt>
<pdfrwt beam="2">  1       -2 0.18056238E-01 0.36303040E+03</pdfrwt>
<totfact> 0.29574128E+03</totfact>
</mgrwt>
</event>
<event>
 4    1  0.1672993E-004  0.2598558E+03  0.7818608E-02  0.1107230E+00
         -2   -1    0    0    0  501 -0.00000000000E+00  0.00000000000E+00  0.48554980293E+02  0.48554980293E+02  0.00000000000E+00 0. -1.
          2   -1    0    0  501    0  0.00000000000E+00 -0.00000000000E+00 -0.34767308999E+03  0.34767308999E+03  0.00000000000E+00 0. -1.
         25    1    1    2    0    0 -0.44111284269E+02 -0.15921588060E+02 -0.17516287498E+03  0.21744271691E+03  0.12000000000E+03 0.  0.
         25    1    1    2    0    0  0.44111284269E+02  0.15921588060E+02 -0.12395523472E+03  0.17878535337E+03  0.12000000000E+03 0.  0.
<mgrwt>
<rscale>  0 0.25985581E+03</rscale>
<asrwt>0</asrwt>
<pdfrwt beam="1">  1        2 0.53488168E-01 0.25985581E+03</pdfrwt>
<pdfrwt beam="2">  1       -2 0.74699969E-02 0.25985581E+03</pdfrwt>
<totfact> 0.96967497E+03</totfact>
</mgrwt>
</event>
<event>
 4    1  0.1672993E-004  0.2686859E+03  0.7818608E-02  0.1102034E+00
          2   -1    0    0  501    0  0.00000000000E+00  0.00000000000E+00  0.30091818012E+03  0.30091818012E+03  0.00000000000E+00 0.  1.
         -2   -1    0    0    0  501 -0.00000000000E+00 -0.00000000000E+00 -0.59976541519E+02  0.59976541519E+02  0.00000000000E+00 0.  1.
         25    1    1    2    0    0 -0.55485222833E+02 -0.57185210457E+01  0.15158867178E+03  0.20122235673E+03  0.12000000000E+03 0.  0.
         25    1    1    2    0    0  0.55485222833E+02  0.57185210457E+01  0.89352966814E+02  0.15967236490E+03  0.12000000000E+03 0.  0.
<mgrwt>
<rscale>  0 0.26868593E+03</rscale>
<asrwt>0</asrwt>
<pdfrwt beam="1">  1        2 0.46295104E-01 0.26868593E+03</pdfrwt>
<pdfrwt beam="2">  1       -2 0.92271604E-02 0.26868593E+03</pdfrwt>
<totfact> 0.81483831E+03</totfact>
</mgrwt>
</event>
<event>
 4    1  0.1672993E-004  0.2886038E+03  0.7818608E-02  0.1091080E+00
         -2   -1    0    0    0  501 -0.00000000000E+00  0.00000000000E+00  0.12125261566E+02  0.12125261566E+02  0.00000000000E+00 0. -1.
          2   -1    0    0  501    0  0.00000000000E+00 -0.00000000000E+00 -0.17173271141E+04  0.17173271141E+04  0.00000000000E+00 0. -1.
         25    1    1    2    0    0  0.21565889368E+02 -0.98269962151E+01 -0.13113831593E+04  0.13170753387E+04  0.12000000000E+03 0.  0.
         25    1    1    2    0    0 -0.21565889368E+02  0.98269962151E+01 -0.39381869325E+03  0.41237703694E+03  0.12000000000E+03 0.  0.
<mgrwt>
<rscale>  0 0.28860381E+03</rscale>
<asrwt>0</asrwt>
<pdfrwt beam="1">  1        2 0.26420437E+00 0.28860381E+03</pdfrwt>
<pdfrwt beam="2">  1       -2 0.18654234E-02 0.28860381E+03</pdfrwt>
<totfact> 0.89687294E+03</totfact>
</mgrwt>
</event>
<event>
 4    1  0.1672993E-004  0.2544853E+03  0.7818608E-02  0.1110503E+00
          2   -1    0    0  501    0  0.00000000000E+00  0.00000000000E+00  0.29074812217E+04  0.29074812217E+04  0.00000000000E+00 0.  1.
         -2   -1    0    0    0  501 -0.00000000000E+00 -0.00000000000E+00 -0.55686334727E+01  0.55686334727E+01  0.00000000000E+00 0.  1.
         25    1    1    2    0    0  0.98700267934E+01 -0.16265814638E+02  0.10182869364E+04  0.10255097655E+04  0.12000000000E+03 0.  0.
         25    1    1    2    0    0 -0.98700267934E+01  0.16265814638E+02  0.18836256518E+04  0.18875400897E+04  0.12000000000E+03 0.  0.
<mgrwt>
<rscale>  0 0.25448534E+03</rscale>
<asrwt>0</asrwt>
<pdfrwt beam="1">  1        2 0.44730359E+00 0.25448534E+03</pdfrwt>
<pdfrwt beam="2">  1       -2 0.85671516E-03 0.25448534E+03</pdfrwt>
<totfact> 0.63075182E+03</totfact>
</mgrwt>
</event>
<event>
 4    1  0.1672993E-004  0.2622057E+03  0.7818608E-02  0.1105825E+00
          1   -1    0    0  501    0  0.00000000000E+00  0.00000000000E+00  0.75103769760E+02  0.75103769760E+02  0.00000000000E+00 0. -1.
         -1   -1    0    0    0  501 -0.00000000000E+00 -0.00000000000E+00 -0.22885614897E+03  0.22885614897E+03  0.00000000000E+00 0. -1.
         25    1    1    2    0    0  0.32601165720E+02 -0.23250668470E+02 -0.11677382731E+03  0.17216142522E+03  0.12000000000E+03 0.  0.
         25    1    1    2    0    0 -0.32601165720E+02  0.23250668470E+02 -0.36978551904E+02  0.13179849351E+03  0.12000000000E+03 0.  0.
<mgrwt>
<rscale>  0 0.26220572E+03</rscale>
<asrwt>0</asrwt>
<pdfrwt beam="1">  1        1 0.11554426E-01 0.26220572E+03</pdfrwt>
<pdfrwt beam="2">  1       -1 0.35208638E-01 0.26220572E+03</pdfrwt>
<totfact> 0.40549450E+03</totfact>
</mgrwt>
</event>
<event>
 4    1  0.1672993E-004  0.2849523E+03  0.7818608E-02  0.1093014E+00
          2   -1    0    0  501    0  0.00000000000E+00  0.00000000000E+00  0.76351319398E+03  0.76351319398E+03  0.00000000000E+00 0. -1.
         -2   -1    0    0    0  501 -0.00000000000E+00 -0.00000000000E+00 -0.26586907665E+02  0.26586907665E+02  0.00000000000E+00 0. -1.
         25    1    1    2    0    0 -0.31507678622E+02 -0.51805895348E+02  0.49919065205E+03  0.51697958538E+03  0.12000000000E+03 0.  0.
         25    1    1    2    0    0  0.31507678622E+02  0.51805895348E+02  0.23773563426E+03  0.27312051626E+03  0.12000000000E+03 0.  0.
<mgrwt>
<rscale>  0 0.28495231E+03</rscale>
<asrwt>0</asrwt>
<pdfrwt beam="1">  1        2 0.11746355E+00 0.28495231E+03</pdfrwt>
<pdfrwt beam="2">  1       -2 0.40902941E-02 0.28495231E+03</pdfrwt>
<totfact> 0.99843871E+03</totfact>
</mgrwt>
</event>
<event>
 4    1  0.1672993E-004  0.4046369E+03  0.7818608E-02  0.1042186E+00
         -1   -1    0    0    0  501 -0.00000000000E+00  0.00000000000E+00  0.10175210577E+03  0.10175210577E+03  0.00000000000E+00 0. -1.
          1   -1    0    0  501    0  0.00000000000E+00 -0.00000000000E+00 -0.40227919032E+03  0.40227919032E+03  0.00000000000E+00 0. -1.
         25    1    1    2    0    0 -0.63111856589E+02  0.51925620065E+02  0.25249433526E+02  0.14736658493E+03  0.12000000000E+03 0.  0.
         25    1    1    2    0    0  0.63111856589E+02 -0.51925620065E+02 -0.32577651807E+03  0.35666471116E+03  0.12000000000E+03 0.  0.
<mgrwt>
<rscale>  0 0.40463690E+03</rscale>
<asrwt>0</asrwt>
<pdfrwt beam="1">  1        1 0.61889105E-01 0.40463690E+03</pdfrwt>
<pdfrwt beam="2">  1       -1 0.15654170E-01 0.40463690E+03</pdfrwt>
<totfact> 0.18133508E+03</totfact>
</mgrwt>
</event>
<event>
 4    1  0.1672993E-004  0.2692122E+03  0.7818608E-02  0.1101731E+00
          2   -1    0    0  501    0  0.00000000000E+00  0.00000000000E+00  0.28541202767E+03  0.28541202767E+03  0.00000000000E+00 0.  1.
         -2   -1    0    0    0  501 -0.00000000000E+00 -0.00000000000E+00 -0.63482973066E+02  0.63482973066E+02  0.00000000000E+00 0.  1.
         25    1    1    2    0    0  0.27001969859E+02  0.48273534412E+02  0.77686125649E+02  0.15327940051E+03  0.12000000000E+03 0.  0.
         25    1    1    2    0    0 -0.27001969859E+02 -0.48273534412E+02  0.14424292896E+03  0.19561560024E+03  0.12000000000E+03 0.  0.
<mgrwt>
<rscale>  0 0.26921221E+03</rscale>
<asrwt>0</asrwt>
<pdfrwt beam="1">  1        2 0.43909542E-01 0.26921221E+03</pdfrwt>
<pdfrwt beam="2">  1       -2 0.97666114E-02 0.26921221E+03</pdfrwt>
<totfact> 0.78842327E+03</totfact>
</mgrwt>
</event>
<event>
 4    1  0.1672993E-004  0.2874552E+03  0.7818608E-02  0.1091685E+00
         -2   -1    0    0    0  501 -0.00000000000E+00  0.00000000000E+00  0.16070552214E+03  0.16070552214E+03  0.00000000000E+00 0.  1.
          2   -1    0    0  501    0  0.00000000000E+00 -0.00000000000E+00 -0.12854332472E+03  0.12854332472E+03  0.00000000000E+00 0.  1.
         25    1    1    2    0    0  0.14226542767E+02 -0.77552385580E+02  0.22512780468E+02  0.14533957587E+03  0.12000000000E+03 0.  0.
         25    1    1    2    0    0 -0.14226542767E+02  0.77552385580E+02  0.96494169517E+01  0.14390927099E+03  0.12000000000E+03 0.  0.
<mgrwt>
<rscale>  0 0.28745519E+03</rscale>
<asrwt>0</asrwt>
<pdfrwt beam="1">  1        2 0.19775896E-01 0.28745519E+03</pdfrwt>
<pdfrwt beam="2">  1       -2 0.24723927E-01 0.28745519E+03</pdfrwt>
<totfact> 0.40633581E+03</totfact>
</mgrwt>
</event>
<event>
 4    1  0.1672993E-004  0.3047717E+03  0.7818608E-02  0.1082879E+00
         -2   -1    0    0    0  501 -0.00000000000E+00  0.00000000000E+00  0.45495567334E+02  0.45495567334E+02  0.00000000000E+00 0. -1.
          2   -1    0    0  501    0  0.00000000000E+00 -0.00000000000E+00 -0.51041108916E+03  0.51041108916E+03  0.00000000000E+00 0. -1.
         25    1    1    2    0    0  0.62742818063E+01 -0.71964338788E+02 -0.12296837077E+03  0.18638522709E+03  0.12000000000E+03 0.  0.
         25    1    1    2    0    0 -0.62742818063E+01  0.71964338788E+02 -0.34194715106E+03  0.36952142940E+03  0.12000000000E+03 0.  0.
<mgrwt>
<rscale>  0 0.30477167E+03</rscale>
<asrwt>0</asrwt>
<pdfrwt beam="1">  1        2 0.78524779E-01 0.30477167E+03</pdfrwt>
<pdfrwt beam="2">  1       -2 0.69993184E-02 0.30477167E+03</pdfrwt>
<totfact> 0.70824948E+03</totfact>
</mgrwt>
</event>
<event>
 4    1  0.1672993E-004  0.2721624E+03  0.7818608E-02  0.1100048E+00
          2   -1    0    0  501    0  0.00000000000E+00  0.00000000000E+00  0.12849542213E+04  0.12849542213E+04  0.00000000000E+00 0.  1.
         -2   -1    0    0    0  501 -0.00000000000E+00 -0.00000000000E+00 -0.14411483766E+02  0.14411483766E+02  0.00000000000E+00 0.  1.
         25    1    1    2    0    0  0.36943329169E+02  0.49357014803E+02  0.55024552789E+03  0.56654308349E+03  0.12000000000E+03 0.  0.
         25    1    1    2    0    0 -0.36943329169E+02 -0.49357014803E+02  0.72029720963E+03  0.73282262157E+03  0.12000000000E+03 0.  0.
<mgrwt>
<rscale>  0 0.27216243E+03</rscale>
<asrwt>0</asrwt>
<pdfrwt beam="1">  1        2 0.19768517E+00 0.27216243E+03</pdfrwt>
<pdfrwt beam="2">  1       -2 0.22171524E-02 0.27216243E+03</pdfrwt>
<totfact> 0.11862489E+04</totfact>
</mgrwt>
</event>
<event>
 4    1  0.1672993E-004  0.3137680E+03  0.7818608E-02  0.1078554E+00
          1   -1    0    0  501    0  0.00000000000E+00  0.00000000000E+00  0.64520803771E+02  0.64520803771E+02  0.00000000000E+00 0. -1.
         -1   -1    0    0    0  501 -0.00000000000E+00 -0.00000000000E+00 -0.38146757606E+03  0.38146757606E+03  0.00000000000E+00 0. -1.
         25    1    1    2    0    0  0.62475772296E+02  0.77827050785E+02 -0.13589499578E+03  0.20694859709E+03  0.12000000000E+03 0.  0.
         25    1    1    2    0    0 -0.62475772296E+02 -0.77827050785E+02 -0.18105177652E+03  0.23903978275E+03  0.12000000000E+03 0.  0.
<mgrwt>
<rscale>  0 0.31376803E+03</rscale>
<asrwt>0</asrwt>
<pdfrwt beam="1">  1        1 0.99262776E-02 0.31376803E+03</pdfrwt>
<pdfrwt beam="2">  1       -1 0.58687319E-01 0.31376803E+03</pdfrwt>
<totfact> 0.19683520E+03</totfact>
</mgrwt>
</event>
<event>
 4    1  0.1672993E-004  0.2612889E+03  0.7818608E-02  0.1106371E+00
          2   -1    0    0  501    0  0.00000000000E+00  0.00000000000E+00  0.56699471495E+03  0.56699471495E+03  0.00000000000E+00 0. -1.
         -2   -1    0    0    0  501 -0.00000000000E+00 -0.00000000000E+00 -0.30102522566E+02  0.30102522566E+02  0.00000000000E+00 0. -1.
         25    1    1    2    0    0  0.57469228427E+01  0.19072676594E+02  0.15954064601E+03  0.20062405599E+03  0.12000000000E+03 0.  0.
         25    1    1    2    0    0 -0.57469228427E+01 -0.19072676594E+02  0.37735154638E+03  0.39647318153E+03  0.12000000000E+03 0.  0.
<mgrwt>
<rscale>  0 0.26128889E+03</rscale>
<asrwt>0</asrwt>
<pdfrwt beam="1">  1        2 0.87229948E-01 0.26128889E+03</pdfrwt>
<pdfrwt beam="2">  1       -2 0.46311577E-02 0.26128889E+03</pdfrwt>
<totfact> 0.11767140E+04</totfact>
</mgrwt>
</event>
<event>
 4    1  0.1672993E-004  0.2514379E+03  0.7818608E-02  0.1112399E+00
          1   -1    0    0  501    0  0.00000000000E+00  0.00000000000E+00  0.75070198376E+02  0.75070198376E+02  0.00000000000E+00 0. -1.
         -1   -1    0    0    0  501 -0.00000000000E+00 -0.00000000000E+00 -0.21053969507E+03  0.21053969507E+03  0.00000000000E+00 0. -1.
         25    1    1    2    0    0  0.38649095234E+01 -0.37078456044E+02 -0.72207860896E+02  0.14492661800E+03  0.12000000000E+03 0.  0.
         25    1    1    2    0    0 -0.38649095234E+01  0.37078456044E+02 -0.63261635800E+02  0.14068327545E+03  0.12000000000E+03 0.  0.
<mgrwt>
<rscale>  0 0.25143792E+03</rscale>
<asrwt>0</asrwt>
<pdfrwt beam="1">  1        1 0.11549262E-01 0.25143792E+03</pdfrwt>
<pdfrwt beam="2">  1       -1 0.32390721E-01 0.25143792E+03</pdfrwt>
<totfact> 0.46792236E+03</totfact>
</mgrwt>
</event>
<event>
 4    1  0.1672993E-004  0.2483185E+03  0.7818608E-02  0.1114372E+00
         -4   -1    0    0    0  501 -0.00000000000E+00  0.00000000000E+00  0.87439115650E+02  0.87439115650E+02  0.00000000000E+00 0.  1.
          4   -1    0    0  501    0  0.00000000000E+00 -0.00000000000E+00 -0.17630003440E+03  0.17630003440E+03  0.00000000000E+00 0.  1.
         25    1    1    2    0    0 -0.28724235430E+02  0.13588588832E+02 -0.41875307902E+02  0.13100867475E+03  0.12000000000E+03 0.  0.
         25    1    1    2    0    0  0.28724235430E+02 -0.13588588832E+02 -0.46985610852E+02  0.13273047530E+03  0.12000000000E+03 0.  0.
<mgrwt>
<rscale>  0 0.24831850E+03</rscale>
<asrwt>0</asrwt>
<pdfrwt beam="1">  1        4 0.27123082E-01 0.24831850E+03</pdfrwt>
<pdfrwt beam="2">  1       -4 0.13452172E-01 0.24831850E+03</pdfrwt>
<totfact> 0.10845986E+03</totfact>
</mgrwt>
</event>
<event>
 4    1  0.1672993E-004  0.2573155E+03  0.7818608E-02  0.1108767E+00
         -2   -1    0    0    0  501 -0.00000000000E+00  0.00000000000E+00  0.93005500483E+02  0.93005500483E+02  0.00000000000E+00 0.  1.
          2   -1    0    0  501    0  0.00000000000E+00 -0.00000000000E+00 -0.17797681107E+03  0.17797681107E+03  0.00000000000E+00 0.  1.
         25    1    1    2    0    0 -0.12698057359E+02 -0.38162863311E+02 -0.66848269061E+02  0.14313048548E+03  0.12000000000E+03 0.  0.
         25    1    1    2    0    0  0.12698057359E+02  0.38162863311E+02 -0.18123041528E+02  0.12785182608E+03  0.12000000000E+03 0.  0.
<mgrwt>
<rscale>  0 0.25731554E+03</rscale>
<asrwt>0</asrwt>
<pdfrwt beam="1">  1        2 0.27381048E-01 0.25731554E+03</pdfrwt>
<pdfrwt beam="2">  1       -2 0.14308539E-01 0.25731554E+03</pdfrwt>
<totfact> 0.71035823E+03</totfact>
</mgrwt>
</event>
<event>
 4    1  0.1672993E-004  0.2664169E+03  0.7818608E-02  0.1103348E+00
         -2   -1    0    0    0  501 -0.00000000000E+00  0.00000000000E+00  0.38579474259E+02  0.38579474259E+02  0.00000000000E+00 0.  1.
          2   -1    0    0  501    0  0.00000000000E+00 -0.00000000000E+00 -0.45994653776E+03  0.45994653776E+03  0.00000000000E+00 0.  1.
         25    1    1    2    0    0  0.36190412769E+02 -0.57137375222E+01 -0.29441123720E+03  0.32003182554E+03  0.12000000000E+03 0.  0.
         25    1    1    2    0    0 -0.36190412769E+02  0.57137375222E+01 -0.12695582631E+03  0.17849418648E+03  0.12000000000E+03 0.  0.
<mgrwt>
<rscale>  0 0.26641693E+03</rscale>
<asrwt>0</asrwt>
<pdfrwt beam="1">  1        2 0.70761004E-01 0.26641693E+03</pdfrwt>
<pdfrwt beam="2">  1       -2 0.59353039E-02 0.26641693E+03</pdfrwt>
<totfact> 0.10209318E+04</totfact>
</mgrwt>
</event>
<event>
 4    1  0.1672993E-004  0.2676616E+03  0.7818608E-02  0.1102625E+00
         -2   -1    0    0    0  501 -0.00000000000E+00  0.00000000000E+00  0.50653895708E+01  0.50653895708E+01  0.00000000000E+00 0.  1.
          2   -1    0    0  501    0  0.00000000000E+00 -0.00000000000E+00 -0.35358957774E+04  0.35358957774E+04  0.00000000000E+00 0.  1.
         25    1    1    2    0    0  0.46814013795E+02 -0.29835750289E+02 -0.14914178806E+04  0.14972671834E+04  0.12000000000E+03 0.  0.
         25    1    1    2    0    0 -0.46814013795E+02  0.29835750289E+02 -0.20394125072E+04  0.20436939836E+04  0.12000000000E+03 0.  0.
<mgrwt>
<rscale>  0 0.26766165E+03</rscale>
<asrwt>0</asrwt>
<pdfrwt beam="1">  1        2 0.54398334E+00 0.26766165E+03</pdfrwt>
<pdfrwt beam="2">  1       -2 0.77929159E-03 0.26766165E+03</pdfrwt>
<totfact> 0.29415343E+03</totfact>
</mgrwt>
</event>
<event>
 4    1  0.1672993E-004  0.2523722E+03  0.7818608E-02  0.1111815E+00
         -3   -1    0    0    0  501 -0.00000000000E+00  0.00000000000E+00  0.76803911683E+03  0.76803911683E+03  0.00000000000E+00 0.  1.
          3   -1    0    0  501    0  0.00000000000E+00 -0.00000000000E+00 -0.20731926951E+02  0.20731926951E+02  0.00000000000E+00 0.  1.
         25    1    1    2    0    0 -0.28798578640E+01 -0.29202086305E+02  0.45406128606E+03  0.47056636824E+03  0.12000000000E+03 0.  0.
         25    1    1    2    0    0  0.28798578640E+01  0.29202086305E+02  0.29324590383E+03  0.31820467554E+03  0.12000000000E+03 0.  0.
<mgrwt>
<rscale>  0 0.25237219E+03</rscale>
<asrwt>0</asrwt>
<pdfrwt beam="1">  1        3 0.31895278E-02 0.25237219E+03</pdfrwt>
<pdfrwt beam="2">  1       -3 0.11815984E+00 0.25237219E+03</pdfrwt>
<totfact> 0.71460934E+02</totfact>
</mgrwt>
</event>
<event>
 4    1  0.1672993E-004  0.2601806E+03  0.7818608E-02  0.1107035E+00
         -2   -1    0    0    0  501 -0.00000000000E+00  0.00000000000E+00  0.32388597101E+02  0.32388597101E+02  0.00000000000E+00 0.  1.
          2   -1    0    0  501    0  0.00000000000E+00 -0.00000000000E+00 -0.52251384820E+03  0.52251384820E+03  0.00000000000E+00 0.  1.
         25    1    1    2    0    0  0.67538113242E+01 -0.41557802811E+02 -0.18662249219E+03  0.22583316748E+03  0.12000000000E+03 0.  0.
         25    1    1    2    0    0 -0.67538113242E+01  0.41557802811E+02 -0.30350275891E+03  0.32906927782E+03  0.12000000000E+03 0.  0.
<mgrwt>
<rscale>  0 0.26018063E+03</rscale>
<asrwt>0</asrwt>
<pdfrwt beam="1">  1        2 0.80386739E-01 0.26018063E+03</pdfrwt>
<pdfrwt beam="2">  1       -2 0.49828615E-02 0.26018063E+03</pdfrwt>
<totfact> 0.11552772E+04</totfact>
</mgrwt>
</event>
<event>
 4    1  0.1672993E-004  0.5553450E+03  0.7818608E-02  0.1000264E+00
         -3   -1    0    0    0  501 -0.00000000000E+00  0.00000000000E+00  0.16065257173E+04  0.16065257173E+04  0.00000000000E+00 0.  1.
          3   -1    0    0  501    0  0.00000000000E+00 -0.00000000000E+00 -0.47993014915E+02  0.47993014915E+02  0.00000000000E+00 0.  1.
         25    1    1    2    0    0  0.82145690066E+02  0.21164719990E+03  0.46454051784E+03  0.53079218564E+03  0.12000000000E+03 0.  0.
         25    1    1    2    0    0 -0.82145690066E+02 -0.21164719990E+03  0.10939921845E+04  0.11237265466E+04  0.12000000000E+03 0.  0.
<mgrwt>
<rscale>  0 0.55534498E+03</rscale>
<asrwt>0</asrwt>
<pdfrwt beam="1">  1        3 0.73835420E-02 0.55534498E+03</pdfrwt>
<pdfrwt beam="2">  1       -3 0.24715776E+00 0.55534498E+03</pdfrwt>
<totfact> 0.26164348E+01</totfact>
</mgrwt>
</event>
<event>
 4    1  0.1672993E-004  0.3868145E+03  0.7818608E-02  0.1048443E+00
          1   -1    0    0  501    0  0.00000000000E+00  0.00000000000E+00  0.51083349271E+03  0.51083349271E+03  0.00000000000E+00 0. -1.
         -1   -1    0    0    0  501 -0.00000000000E+00 -0.00000000000E+00 -0.73226124293E+02  0.73226124293E+02  0.00000000000E+00 0. -1.
         25    1    1    2    0    0  0.12116632318E+03 -0.73629484220E+02  0.13743895497E+03  0.23106718755E+03  0.12000000000E+03 0.  0.
         25    1    1    2    0    0 -0.12116632318E+03  0.73629484220E+02  0.30016841346E+03  0.35299242946E+03  0.12000000000E+03 0.  0.
<mgrwt>
<rscale>  0 0.38681446E+03</rscale>
<asrwt>0</asrwt>
<pdfrwt beam="1">  1        1 0.78589766E-01 0.38681446E+03</pdfrwt>
<pdfrwt beam="2">  1       -1 0.11265558E-01 0.38681446E+03</pdfrwt>
<totfact> 0.22284697E+03</totfact>
</mgrwt>
</event>
<event>
 4    1  0.1672993E-004  0.2441335E+03  0.7818608E-02  0.1117069E+00
          2   -1    0    0  501    0  0.00000000000E+00  0.00000000000E+00  0.22230022756E+03  0.22230022756E+03  0.00000000000E+00 0.  1.
         -2   -1    0    0    0  501 -0.00000000000E+00 -0.00000000000E+00 -0.67027776801E+02  0.67027776801E+02  0.00000000000E+00 0.  1.
         25    1    1    2    0    0 -0.82894864033E+01 -0.14800778529E+02  0.94912664614E+02  0.15393567661E+03  0.12000000000E+03 0.  0.
         25    1    1    2    0    0  0.82894864033E+01  0.14800778529E+02  0.60359786146E+02  0.13539232775E+03  0.12000000000E+03 0.  0.
<mgrwt>
<rscale>  0 0.24413349E+03</rscale>
<asrwt>0</asrwt>
<pdfrwt beam="1">  1        2 0.34200035E-01 0.24413349E+03</pdfrwt>
<pdfrwt beam="2">  1       -2 0.10311966E-01 0.24413349E+03</pdfrwt>
<totfact> 0.94301100E+03</totfact>
</mgrwt>
</event>
<event>
 4    1  0.1672993E-004  0.2908882E+03  0.7818608E-02  0.1089886E+00
          1   -1    0    0  501    0  0.00000000000E+00  0.00000000000E+00  0.84137778843E+02  0.84137778843E+02  0.00000000000E+00 0.  1.
         -1   -1    0    0    0  501 -0.00000000000E+00 -0.00000000000E+00 -0.25142086855E+03  0.25142086855E+03  0.00000000000E+00 0.  1.
         25    1    1    2    0    0 -0.35517641605E+02 -0.39285970141E+02 -0.15613378058E+03  0.20391823791E+03  0.12000000000E+03 0.  0.
         25    1    1    2    0    0  0.35517641605E+02  0.39285970141E+02 -0.11149309130E+02  0.13164040948E+03  0.12000000000E+03 0.  0.
<mgrwt>
<rscale>  0 0.29088825E+03</rscale>
<asrwt>0</asrwt>
<pdfrwt beam="1">  1        1 0.12944274E-01 0.29088825E+03</pdfrwt>
<pdfrwt beam="2">  1       -1 0.38680134E-01 0.29088825E+03</pdfrwt>
<totfact> 0.29655163E+03</totfact>
</mgrwt>
</event>
<event>
 4    1  0.1672993E-004  0.2464596E+03  0.7818608E-02  0.1115563E+00
         -2   -1    0    0    0  501 -0.00000000000E+00  0.00000000000E+00  0.46901358489E+02  0.46901358489E+02  0.00000000000E+00 0.  1.
          2   -1    0    0  501    0  0.00000000000E+00 -0.00000000000E+00 -0.32377698722E+03  0.32377698722E+03  0.00000000000E+00 0.  1.
         25    1    1    2    0    0 -0.20751064947E+02  0.60054017103E+01 -0.16529650952E+03  0.20540108959E+03  0.12000000000E+03 0.  0.
         25    1    1    2    0    0  0.20751064947E+02 -0.60054017103E+01 -0.11157911921E+03  0.16527725612E+03  0.12000000000E+03 0.  0.
<mgrwt>
<rscale>  0 0.24645958E+03</rscale>
<asrwt>0</asrwt>
<pdfrwt beam="1">  1        2 0.49811847E-01 0.24645958E+03</pdfrwt>
<pdfrwt beam="2">  1       -2 0.72155933E-02 0.24645958E+03</pdfrwt>
<totfact> 0.11019897E+04</totfact>
</mgrwt>
</event>
<event>
 4    1  0.1672993E-004  0.3107129E+03  0.7818608E-02  0.1080005E+00
         -2   -1    0    0    0  501 -0.00000000000E+00  0.00000000000E+00  0.79238614255E+01  0.79238614255E+01  0.00000000000E+00 0.  1.
          2   -1    0    0  501    0  0.00000000000E+00 -0.00000000000E+00 -0.30459429449E+04  0.30459429449E+04  0.00000000000E+00 0.  1.
         25    1    1    2    0    0  0.20458191017E+02  0.77887926827E+02 -0.95864573490E+03  0.96947754577E+03  0.12000000000E+03 0.  0.
         25    1    1    2    0    0 -0.20458191017E+02 -0.77887926827E+02 -0.20793733486E+04  0.20843892606E+04  0.12000000000E+03 0.  0.
<mgrwt>
<rscale>  0 0.31071292E+03</rscale>
<asrwt>0</asrwt>
<pdfrwt beam="1">  1        2 0.46860737E+00 0.31071292E+03</pdfrwt>
<pdfrwt beam="2">  1       -2 0.12190536E-02 0.31071292E+03</pdfrwt>
<totfact> 0.31154156E+03</totfact>
</mgrwt>
</event>
<event>
 4    1  0.1672993E-004  0.2626148E+03  0.7818608E-02  0.1105582E+00
         -1   -1    0    0    0  501 -0.00000000000E+00  0.00000000000E+00  0.10568813616E+02  0.10568813616E+02  0.00000000000E+00 0.  1.
          1   -1    0    0  501    0  0.00000000000E+00 -0.00000000000E+00 -0.16313694473E+04  0.16313694473E+04  0.00000000000E+00 0.  1.
         25    1    1    2    0    0  0.37568041265E+02  0.13482729328E+02 -0.58948213727E+03  0.60289495924E+03  0.12000000000E+03 0.  0.
         25    1    1    2    0    0 -0.37568041265E+02 -0.13482729328E+02 -0.10313184964E+04  0.10390433016E+04  0.12000000000E+03 0.  0.
<mgrwt>
<rscale>  0 0.26261485E+03</rscale>
<asrwt>0</asrwt>
<pdfrwt beam="1">  1        1 0.25097990E+00 0.26261485E+03</pdfrwt>
<pdfrwt beam="2">  1       -1 0.16259715E-02 0.26261485E+03</pdfrwt>
<totfact> 0.54372534E+03</totfact>
</mgrwt>
</event>
<event>
 4    1  0.1672993E-004  0.2562584E+03  0.7818608E-02  0.1109412E+00
         -4   -1    0    0    0  501 -0.00000000000E+00  0.00000000000E+00  0.60673186086E+03  0.60673186086E+03  0.00000000000E+00 0. -1.
          4   -1    0    0  501    0  0.00000000000E+00 -0.00000000000E+00 -0.27058226193E+02  0.27058226193E+02  0.00000000000E+00 0. -1.
         25    1    1    2    0    0  0.19597933157E+02 -0.36750947620E+02  0.24827620991E+03  0.27888310731E+03  0.12000000000E+03 0.  0.
         25    1    1    2    0    0 -0.19597933157E+02  0.36750947620E+02  0.33139742476E+03  0.35490697975E+03  0.12000000000E+03 0.  0.
<mgrwt>
<rscale>  0 0.25625837E+03</rscale>
<asrwt>0</asrwt>
<pdfrwt beam="1">  1        4 0.41628045E-02 0.25625837E+03</pdfrwt>
<pdfrwt beam="2">  1       -4 0.93343352E-01 0.25625837E+03</pdfrwt>
<totfact> 0.59633928E+02</totfact>
</mgrwt>
</event>
<event>
 4    1  0.1672993E-004  0.3253611E+03  0.7818608E-02  0.1073208E+00
         -2   -1    0    0    0  501 -0.00000000000E+00  0.00000000000E+00  0.11220272634E+02  0.11220272634E+02  0.00000000000E+00 0.  1.
          2   -1    0    0  501    0  0.00000000000E+00 -0.00000000000E+00 -0.23586739893E+04  0.23586739893E+04  0.00000000000E+00 0.  1.
         25    1    1    2    0    0 -0.42234570224E+02 -0.67039730527E+01 -0.43678363657E+03  0.45498202971E+03  0.12000000000E+03 0.  0.
         25    1    1    2    0    0  0.42234570224E+02  0.67039730527E+01 -0.19106700801E+04  0.19149122322E+04  0.12000000000E+03 0.  0.
<mgrwt>
<rscale>  0 0.32536112E+03</rscale>
<asrwt>0</asrwt>
<pdfrwt beam="1">  1        2 0.36287265E+00 0.32536112E+03</pdfrwt>
<pdfrwt beam="2">  1       -2 0.17261971E-02 0.32536112E+03</pdfrwt>
<totfact> 0.45894369E+03</totfact>
</mgrwt>
</event>
<event>
 4    1  0.1672993E-004  0.2617792E+03  0.7818608E-02  0.1106079E+00
         -3   -1    0    0    0  501 -0.00000000000E+00  0.00000000000E+00  0.71076951310E+03  0.71076951310E+03  0.00000000000E+00 0.  1.
          3   -1    0    0  501    0  0.00000000000E+00 -0.00000000000E+00 -0.24103567749E+02  0.24103567749E+02  0.00000000000E+00 0.  1.
         25    1    1    2    0    0  0.27653764322E+02 -0.43588858689E+02  0.32029288004E+03  0.34590786098E+03  0.12000000000E+03 0.  0.
         25    1    1    2    0    0 -0.27653764322E+02  0.43588858689E+02  0.36637306531E+03  0.38896521987E+03  0.12000000000E+03 0.  0.
<mgrwt>
<rscale>  0 0.26177915E+03</rscale>
<asrwt>0</asrwt>
<pdfrwt beam="1">  1        3 0.37082417E-02 0.26177915E+03</pdfrwt>
<pdfrwt beam="2">  1       -3 0.10934914E+00 0.26177915E+03</pdfrwt>
<totfact> 0.67963743E+02</totfact>
</mgrwt>
</event>
<event>
 4    1  0.1672993E-004  0.3114186E+03  0.7818608E-02  0.1079668E+00
         -2   -1    0    0    0  501 -0.00000000000E+00  0.00000000000E+00  0.10178347034E+03  0.10178347034E+03  0.00000000000E+00 0. -1.
          2   -1    0    0  501    0  0.00000000000E+00 -0.00000000000E+00 -0.23820553593E+03  0.23820553593E+03  0.00000000000E+00 0. -1.
         25    1    1    2    0    0  0.74391452803E+02  0.54014534777E+02 -0.27453365412E+02  0.15364031206E+03  0.12000000000E+03 0.  0.
         25    1    1    2    0    0 -0.74391452803E+02 -0.54014534777E+02 -0.10896870018E+03  0.18634869422E+03  0.12000000000E+03 0.  0.
<mgrwt>
<rscale>  0 0.31141860E+03</rscale>
<asrwt>0</asrwt>
<pdfrwt beam="1">  1        2 0.36647005E-01 0.31141860E+03</pdfrwt>
<pdfrwt beam="2">  1       -2 0.15658996E-01 0.31141860E+03</pdfrwt>
<totfact> 0.44765218E+03</totfact>
</mgrwt>
</event>
<event>
 4    1  0.1672993E-004  0.2637250E+03  0.7818608E-02  0.1104926E+00
         -2   -1    0    0    0  501 -0.00000000000E+00  0.00000000000E+00  0.11156088309E+02  0.11156088309E+02  0.00000000000E+00 0. -1.
          2   -1    0    0  501    0  0.00000000000E+00 -0.00000000000E+00 -0.15585859076E+04  0.15585859076E+04  0.00000000000E+00 0. -1.
         25    1    1    2    0    0 -0.39291353489E+01 -0.30816384247E+02 -0.10414070560E+04  0.10487581914E+04  0.12000000000E+03 0.  0.
         25    1    1    2    0    0  0.39291353489E+01  0.30816384247E+02 -0.50602276331E+03  0.52098380458E+03  0.12000000000E+03 0.  0.
<mgrwt>
<rscale>  0 0.26372502E+03</rscale>
<asrwt>0</asrwt>
<pdfrwt beam="1">  1        2 0.23978246E+00 0.26372502E+03</pdfrwt>
<pdfrwt beam="2">  1       -2 0.17163212E-02 0.26372502E+03</pdfrwt>
<totfact> 0.12276576E+04</totfact>
</mgrwt>
</event>
<event>
 4    1  0.1672993E-004  0.3215819E+03  0.7818608E-02  0.1074924E+00
          2   -1    0    0  501    0  0.00000000000E+00  0.00000000000E+00  0.52159483965E+02  0.52159483965E+02  0.00000000000E+00 0. -1.
         -2   -1    0    0    0  501 -0.00000000000E+00 -0.00000000000E+00 -0.49566685629E+03  0.49566685629E+03  0.00000000000E+00 0. -1.
         25    1    1    2    0    0 -0.47127930392E+02 -0.94741642725E+02 -0.19445951074E+03  0.25181644507E+03  0.12000000000E+03 0.  0.
         25    1    1    2    0    0  0.47127930392E+02  0.94741642725E+02 -0.24904786158E+03  0.29600989518E+03  0.12000000000E+03 0.  0.
<mgrwt>
<rscale>  0 0.32158189E+03</rscale>
<asrwt>0</asrwt>
<pdfrwt beam="1">  1        2 0.80245358E-02 0.32158189E+03</pdfrwt>
<pdfrwt beam="2">  1       -2 0.76256441E-01 0.32158189E+03</pdfrwt>
<totfact> 0.13459667E+03</totfact>
</mgrwt>
</event>
<event>
 4    1  0.1672993E-004  0.3346876E+03  0.7818608E-02  0.1069081E+00
          1   -1    0    0  501    0  0.00000000000E+00  0.00000000000E+00  0.10668702341E+04  0.10668702341E+04  0.00000000000E+00 0.  1.
         -1   -1    0    0    0  501 -0.00000000000E+00 -0.00000000000E+00 -0.26248686575E+02  0.26248686575E+02  0.00000000000E+00 0.  1.
         25    1    1    2    0    0  0.50225790412E+02  0.96458947545E+02  0.38263118406E+03  0.41549197537E+03  0.12000000000E+03 0.  0.
         25    1    1    2    0    0 -0.50225790412E+02 -0.96458947545E+02  0.65799036342E+03  0.67762694525E+03  0.12000000000E+03 0.  0.
<mgrwt>
<rscale>  0 0.33468757E+03</rscale>
<asrwt>0</asrwt>
<pdfrwt beam="1">  1        1 0.16413385E+00 0.33468757E+03</pdfrwt>
<pdfrwt beam="2">  1       -1 0.40382603E-02 0.33468757E+03</pdfrwt>
<totfact> 0.34669413E+03</totfact>
</mgrwt>
</event>
<event>
 4    1  0.1672993E-004  0.2968852E+03  0.7818608E-02  0.1086808E+00
         -2   -1    0    0    0  501 -0.00000000000E+00  0.00000000000E+00  0.16093906353E+02  0.16093906353E+02  0.00000000000E+00 0. -1.
          2   -1    0    0  501    0  0.00000000000E+00 -0.00000000000E+00 -0.13691645258E+04  0.13691645258E+04  0.00000000000E+00 0. -1.
         25    1    1    2    0    0 -0.47739045892E+02  0.20294985270E+02 -0.10046266590E+04  0.10130970471E+04  0.12000000000E+03 0.  0.
         25    1    1    2    0    0  0.47739045892E+02 -0.20294985270E+02 -0.34844396045E+03  0.37216138503E+03  0.12000000000E+03 0.  0.
<mgrwt>
<rscale>  0 0.29688520E+03</rscale>
<asrwt>0</asrwt>
<pdfrwt beam="1">  1        2 0.21064072E+00 0.29688520E+03</pdfrwt>
<pdfrwt beam="2">  1       -2 0.24759853E-02 0.29688520E+03</pdfrwt>
<totfact> 0.90711314E+03</totfact>
</mgrwt>
</event>
<event>
 4    1  0.1672993E-004  0.2805686E+03  0.7818608E-02  0.1095379E+00
          4   -1    0    0  501    0  0.00000000000E+00  0.00000000000E+00  0.11261630093E+04  0.11261630093E+04  0.00000000000E+00 0.  1.
         -4   -1    0    0    0  501 -0.00000000000E+00 -0.00000000000E+00 -0.17474993889E+02  0.17474993889E+02  0.00000000000E+00 0.  1.
         25    1    1    2    0    0  0.29842105817E+02  0.36293432202E+02  0.78026412121E+03  0.79083491536E+03  0.12000000000E+03 0.  0.
         25    1    1    2    0    0 -0.29842105817E+02 -0.36293432202E+02  0.32842389418E+03  0.35280308781E+03  0.12000000000E+03 0.  0.
<mgrwt>
<rscale>  0 0.28056865E+03</rscale>
<asrwt>0</asrwt>
<pdfrwt beam="1">  1        4 0.17325579E+00 0.28056865E+03</pdfrwt>
<pdfrwt beam="2">  1       -4 0.26884615E-02 0.28056865E+03</pdfrwt>
<totfact> 0.25920752E+02</totfact>
</mgrwt>
</event>
<event>
 4    1  0.1672993E-004  0.2774023E+03  0.7818608E-02  0.1097116E+00
         -1   -1    0    0    0  501 -0.00000000000E+00  0.00000000000E+00  0.21826404784E+02  0.21826404784E+02  0.00000000000E+00 0. -1.
          1   -1    0    0  501    0  0.00000000000E+00 -0.00000000000E+00 -0.88140962186E+03  0.88140962186E+03  0.00000000000E+00 0. -1.
         25    1    1    2    0    0 -0.57826104856E+02 -0.35531500124E+02 -0.38023355510E+03  0.40445506836E+03  0.12000000000E+03 0.  0.
         25    1    1    2    0    0  0.57826104856E+02  0.35531500124E+02 -0.47934966198E+03  0.49878095828E+03  0.12000000000E+03 0.  0.
<mgrwt>
<rscale>  0 0.27740226E+03</rscale>
<asrwt>0</asrwt>
<pdfrwt beam="1">  1        1 0.13560151E+00 0.27740226E+03</pdfrwt>
<pdfrwt beam="2">  1       -1 0.33579076E-02 0.27740226E+03</pdfrwt>
<totfact> 0.62992207E+03</totfact>
</mgrwt>
</event>
<event>
 4    1  0.1672993E-004  0.2535256E+03  0.7818608E-02  0.1111097E+00
          1   -1    0    0  501    0  0.00000000000E+00  0.00000000000E+00  0.11932495517E+04  0.11932495517E+04  0.00000000000E+00 0.  1.
         -1   -1    0    0    0  501 -0.00000000000E+00 -0.00000000000E+00 -0.13466428838E+02  0.13466428838E+02  0.00000000000E+00 0.  1.
         25    1    1    2    0    0 -0.36165342309E+02  0.17969609062E+02  0.56056162193E+03  0.57468266967E+03  0.12000000000E+03 0.  0.
         25    1    1    2    0    0  0.36165342309E+02 -0.17969609062E+02  0.61922150093E+03  0.63203331087E+03  0.12000000000E+03 0.  0.
<mgrwt>
<rscale>  0 0.25352562E+03</rscale>
<asrwt>0</asrwt>
<pdfrwt beam="1">  1        1 0.18357677E+00 0.25352562E+03</pdfrwt>
<pdfrwt beam="2">  1       -1 0.20717592E-02 0.25352562E+03</pdfrwt>
<totfact> 0.75159895E+03</totfact>
</mgrwt>
</event>
<event>
 4    1  0.1672993E-004  0.2678894E+03  0.7818608E-02  0.1102494E+00
          2   -1    0    0  501    0  0.00000000000E+00  0.00000000000E+00  0.14018244681E+04  0.14018244681E+04  0.00000000000E+00 0.  1.
         -2   -1    0    0    0  501 -0.00000000000E+00 -0.00000000000E+00 -0.12798456286E+02  0.12798456286E+02  0.00000000000E+00 0.  1.
         25    1    1    2    0    0 -0.35070893393E+02 -0.14079239961E+02  0.45177684226E+03  0.46896749116E+03  0.12000000000E+03 0.  0.
         25    1    1    2    0    0  0.35070893393E+02  0.14079239961E+02  0.93724916953E+03  0.94565543320E+03  0.12000000000E+03 0.  0.
<mgrwt>
<rscale>  0 0.26788945E+03</rscale>
<asrwt>0</asrwt>
<pdfrwt beam="1">  1        2 0.21566518E+00 0.26788945E+03</pdfrwt>
<pdfrwt beam="2">  1       -2 0.19689944E-02 0.26788945E+03</pdfrwt>
<totfact> 0.12183853E+04</totfact>
</mgrwt>
</event>
<event>
 4    1  0.1672993E-004  0.2500625E+03  0.7818608E-02  0.1113265E+00
          2   -1    0    0  501    0  0.00000000000E+00  0.00000000000E+00  0.86704675356E+03  0.86704675356E+03  0.00000000000E+00 0. -1.
         -2   -1    0    0    0  501 -0.00000000000E+00 -0.00000000000E+00 -0.18029947743E+02  0.18029947743E+02  0.00000000000E+00 0. -1.
         25    1    1    2    0    0  0.75418129249E+01  0.11768170164E+02  0.53851072091E+03  0.55189597327E+03  0.12000000000E+03 0.  0.
         25    1    1    2    0    0 -0.75418129249E+01 -0.11768170164E+02  0.31050608491E+03  0.33318072804E+03  0.12000000000E+03 0.  0.
<mgrwt>
<rscale>  0 0.25006245E+03</rscale>
<asrwt>0</asrwt>
<pdfrwt beam="1">  1        2 0.13339178E+00 0.25006245E+03</pdfrwt>
<pdfrwt beam="2">  1       -2 0.27738388E-02 0.25006245E+03</pdfrwt>
<totfact> 0.15080062E+04</totfact>
</mgrwt>
</event>
<event>
 4    1  0.1672993E-004  0.2921717E+03  0.7818608E-02  0.1089221E+00
         -1   -1    0    0    0  501 -0.00000000000E+00  0.00000000000E+00  0.92674125855E+01  0.92674125855E+01  0.00000000000E+00 0.  1.
          1   -1    0    0  501    0  0.00000000000E+00 -0.00000000000E+00 -0.23028087158E+04  0.23028087158E+04  0.00000000000E+00 0.  1.
         25    1    1    2    0    0 -0.22897197501E+02 -0.26666420152E+02 -0.17445189876E+04  0.17489945333E+04  0.12000000000E+03 0.  0.
         25    1    1    2    0    0  0.22897197501E+02  0.26666420152E+02 -0.54902231563E+03  0.56308159505E+03  0.12000000000E+03 0.  0.
<mgrwt>
<rscale>  0 0.29217172E+03</rscale>
<asrwt>0</asrwt>
<pdfrwt beam="1">  1        1 0.35427779E+00 0.29217172E+03</pdfrwt>
<pdfrwt beam="2">  1       -1 0.14257577E-02 0.29217172E+03</pdfrwt>
<totfact> 0.24038840E+03</totfact>
</mgrwt>
</event>
<event>
 4    1  0.1672993E-004  0.7419563E+03  0.7818608E-02  0.9648055E-01
         -2   -1    0    0    0  501 -0.00000000000E+00  0.00000000000E+00  0.12043337186E+03  0.12043337186E+03  0.00000000000E+00 0. -1.
          2   -1    0    0  501    0  0.00000000000E+00 -0.00000000000E+00 -0.11427461648E+04  0.11427461648E+04  0.00000000000E+00 0. -1.
         25    1    1    2    0    0 -0.18814182848E+03 -0.49703881146E+02 -0.13755891400E+02  0.22903503656E+03  0.12000000000E+03 0.  0.
         25    1    1    2    0    0  0.18814182848E+03  0.49703881146E+02 -0.10085569015E+04  0.10341445001E+04  0.12000000000E+03 0.  0.
<mgrwt>
<rscale>  0 0.74195626E+03</rscale>
<asrwt>0</asrwt>
<pdfrwt beam="1">  1        2 0.17580710E+00 0.74195626E+03</pdfrwt>
<pdfrwt beam="2">  1       -2 0.18528211E-01 0.74195626E+03</pdfrwt>
<totfact> 0.50391387E+02</totfact>
</mgrwt>
</event>
<event>
 4    1  0.1672993E-004  0.2611537E+03  0.7818608E-02  0.1106452E+00
          1   -1    0    0  501    0  0.00000000000E+00  0.00000000000E+00  0.18947724788E+03  0.18947724788E+03  0.00000000000E+00 0.  1.
         -1   -1    0    0    0  501 -0.00000000000E+00 -0.00000000000E+00 -0.89986050867E+02  0.89986050867E+02  0.00000000000E+00 0.  1.
         25    1    1    2    0    0  0.86417374368E+00 -0.59281280279E+01 -0.49706501226E+01  0.12025222185E+03  0.12000000000E+03 0.  0.
         25    1    1    2    0    0 -0.86417374368E+00  0.59281280279E+01  0.10446184713E+03  0.15921107689E+03  0.12000000000E+03 0.  0.
<mgrwt>
<rscale>  0 0.26115367E+03</rscale>
<asrwt>0</asrwt>
<pdfrwt beam="1">  1        1 0.29150346E-01 0.26115367E+03</pdfrwt>
<pdfrwt beam="2">  1       -1 0.13844008E-01 0.26115367E+03</pdfrwt>
<totfact> 0.56820678E+03</totfact>
</mgrwt>
</event>
<event>
 4    1  0.1672993E-004  0.3252049E+03  0.7818608E-02  0.1073278E+00
         -2   -1    0    0    0  501 -0.00000000000E+00  0.00000000000E+00  0.72910064966E+02  0.72910064966E+02  0.00000000000E+00 0. -1.
          2   -1    0    0  501    0  0.00000000000E+00 -0.00000000000E+00 -0.36263250507E+03  0.36263250507E+03  0.00000000000E+00 0. -1.
         25    1    1    2    0    0 -0.50058099839E+02 -0.97536412573E+02 -0.15090945445E+03  0.22179456391E+03  0.12000000000E+03 0.  0.
         25    1    1    2    0    0  0.50058099839E+02  0.97536412573E+02 -0.13881298566E+03  0.21374800613E+03  0.12000000000E+03 0.  0.
<mgrwt>
<rscale>  0 0.32520492E+03</rscale>
<asrwt>0</asrwt>
<pdfrwt beam="1">  1        2 0.55789616E-01 0.32520492E+03</pdfrwt>
<pdfrwt beam="2">  1       -2 0.11216933E-01 0.32520492E+03</pdfrwt>
<totfact> 0.49087811E+03</totfact>
</mgrwt>
</event>
<event>
 4    1  0.1672993E-004  0.2861858E+03  0.7818608E-02  0.1092358E+00
         -2   -1    0    0    0  501 -0.00000000000E+00  0.00000000000E+00  0.21823341352E+02  0.21823341352E+02  0.00000000000E+00 0. -1.
          2   -1    0    0  501    0  0.00000000000E+00 -0.00000000000E+00 -0.93824186982E+03  0.93824186982E+03  0.00000000000E+00 0. -1.
         25    1    1    2    0    0  0.25665355557E+02  0.69741213933E+02 -0.37931868042E+03  0.40472856177E+03  0.12000000000E+03 0.  0.
         25    1    1    2    0    0 -0.25665355557E+02 -0.69741213933E+02 -0.53709984805E+03  0.55533664940E+03  0.12000000000E+03 0.  0.
<mgrwt>
<rscale>  0 0.28618576E+03</rscale>
<asrwt>0</asrwt>
<pdfrwt beam="1">  1        2 0.14434489E+00 0.28618576E+03</pdfrwt>
<pdfrwt beam="2">  1       -2 0.33574375E-02 0.28618576E+03</pdfrwt>
<totfact> 0.10260561E+04</totfact>
</mgrwt>
</event>
<event>
 4    1  0.1672993E-004  0.2509001E+03  0.7818608E-02  0.1112737E+00
         -2   -1    0    0    0  501 -0.00000000000E+00  0.00000000000E+00  0.53723979232E+02  0.53723979232E+02  0.00000000000E+00 0.  1.
          2   -1    0    0  501    0  0.00000000000E+00 -0.00000000000E+00 -0.29293649847E+03  0.29293649847E+03  0.00000000000E+00 0.  1.
         25    1    1    2    0    0 -0.17715439046E+02 -0.17677030116E+02 -0.15645821133E+03  0.19875987036E+03  0.12000000000E+03 0.  0.
         25    1    1    2    0    0  0.17715439046E+02  0.17677030116E+02 -0.82754307913E+02  0.14790060734E+03  0.12000000000E+03 0.  0.
<mgrwt>
<rscale>  0 0.25090009E+03</rscale>
<asrwt>0</asrwt>
<pdfrwt beam="1">  1        2 0.45067153E-01 0.25090009E+03</pdfrwt>
<pdfrwt beam="2">  1       -2 0.82652278E-02 0.25090009E+03</pdfrwt>
<totfact> 0.99409825E+03</totfact>
</mgrwt>
</event>
<event>
 4    1  0.1672993E-004  0.2869882E+03  0.7818608E-02  0.1091932E+00
          1   -1    0    0  501    0  0.00000000000E+00  0.00000000000E+00  0.14664625221E+04  0.14664625221E+04  0.00000000000E+00 0.  1.
         -1   -1    0    0    0  501 -0.00000000000E+00 -0.00000000000E+00 -0.14040970726E+02  0.14040970726E+02  0.00000000000E+00 0.  1.
         25    1    1    2    0    0 -0.10207608091E+02  0.91042937181E+01  0.11259223310E+04  0.11323816401E+04  0.12000000000E+03 0.  0.
         25    1    1    2    0    0  0.10207608091E+02 -0.91042937181E+01  0.32649922032E+03  0.34812185266E+03  0.12000000000E+03 0.  0.
<mgrwt>
<rscale>  0 0.28698820E+03</rscale>
<asrwt>0</asrwt>
<pdfrwt beam="1">  1        1 0.22560950E+00 0.28698820E+03</pdfrwt>
<pdfrwt beam="2">  1       -1 0.21601505E-02 0.28698820E+03</pdfrwt>
<totfact> 0.46161638E+03</totfact>
</mgrwt>
</event>
<event>
 4    1  0.1672993E-004  0.2930362E+03  0.7818608E-02  0.1088774E+00
          2   -1    0    0  501    0  0.00000000000E+00  0.00000000000E+00  0.28429253777E+04  0.28429253777E+04  0.00000000000E+00 0. -1.
         -2   -1    0    0    0  501 -0.00000000000E+00 -0.00000000000E+00 -0.75512211505E+01  0.75512211505E+01  0.00000000000E+00 0. -1.
         25    1    1    2    0    0  0.53525744148E+02  0.61483167822E+02  0.12177725996E+04  0.12263830109E+04  0.12000000000E+03 0.  0.
         25    1    1    2    0    0 -0.53525744148E+02 -0.61483167822E+02  0.16176015570E+04  0.16240935879E+04  0.12000000000E+03 0.  0.
<mgrwt>
<rscale>  0 0.29303623E+03</rscale>
<asrwt>0</asrwt>
<pdfrwt beam="1">  1        2 0.43737228E+00 0.29303623E+03</pdfrwt>
<pdfrwt beam="2">  1       -2 0.11617286E-02 0.29303623E+03</pdfrwt>
<totfact> 0.44076797E+03</totfact>
</mgrwt>
</event>
<event>
 4    1  0.1672993E-004  0.2908398E+03  0.7818608E-02  0.1089912E+00
          2   -1    0    0  501    0  0.00000000000E+00  0.00000000000E+00  0.66496908076E+03  0.66496908076E+03  0.00000000000E+00 0. -1.
         -2   -1    0    0    0  501 -0.00000000000E+00 -0.00000000000E+00 -0.31801390476E+02  0.31801390476E+02  0.00000000000E+00 0. -1.
         25    1    1    2    0    0 -0.65887931126E+02 -0.72735909083E+01  0.43279023702E+03  0.45398404581E+03  0.12000000000E+03 0.  0.
         25    1    1    2    0    0  0.65887931126E+02  0.72735909083E+01  0.20037745326E+03  0.24278642542E+03  0.12000000000E+03 0.  0.
<mgrwt>
<rscale>  0 0.29083976E+03</rscale>
<asrwt>0</asrwt>
<pdfrwt beam="1">  1        2 0.10230292E+00 0.29083976E+03</pdfrwt>
<pdfrwt beam="2">  1       -2 0.48925221E-02 0.29083976E+03</pdfrwt>
<totfact> 0.90218903E+03</totfact>
</mgrwt>
</event>
<event>
 4    1  0.1672993E-004  0.2838216E+03  0.7818608E-02  0.1093620E+00
         -2   -1    0    0    0  501 -0.00000000000E+00  0.00000000000E+00  0.61626146773E+01  0.61626146773E+01  0.00000000000E+00 0. -1.
          2   -1    0    0  501    0  0.00000000000E+00 -0.00000000000E+00 -0.32678790214E+04  0.32678790214E+04  0.00000000000E+00 0. -1.
         25    1    1    2    0    0  0.38796118173E+02 -0.11617986161E+02 -0.23693650210E+04  0.23727475043E+04  0.12000000000E+03 0.  0.
         25    1    1    2    0    0 -0.38796118173E+02  0.11617986161E+02 -0.89235138567E+03  0.90129413173E+03  0.12000000000E+03 0.  0.
<mgrwt>
<rscale>  0 0.28382163E+03</rscale>
<asrwt>0</asrwt>
<pdfrwt beam="1">  1        2 0.50274968E+00 0.28382163E+03</pdfrwt>
<pdfrwt beam="2">  1       -2 0.94809633E-03 0.28382163E+03</pdfrwt>
<totfact> 0.32933483E+03</totfact>
</mgrwt>
</event>
<event>
 4    1  0.1672993E-004  0.2611315E+03  0.7818608E-02  0.1106465E+00
          2   -1    0    0  501    0  0.00000000000E+00  0.00000000000E+00  0.11092923428E+04  0.11092923428E+04  0.00000000000E+00 0.  1.
         -2   -1    0    0    0  501 -0.00000000000E+00 -0.00000000000E+00 -0.15367826634E+02  0.15367826634E+02  0.00000000000E+00 0.  1.
         25    1    1    2    0    0  0.17049071966E+02 -0.46980799596E+02  0.49429393108E+03  0.51110112178E+03  0.12000000000E+03 0.  0.
         25    1    1    2    0    0 -0.17049071966E+02  0.46980799596E+02  0.59963058514E+03  0.61355904770E+03  0.12000000000E+03 0.  0.
<mgrwt>
<rscale>  0 0.26113148E+03</rscale>
<asrwt>0</asrwt>
<pdfrwt beam="1">  1        2 0.17066030E+00 0.26113148E+03</pdfrwt>
<pdfrwt beam="2">  1       -2 0.23642819E-02 0.26113148E+03</pdfrwt>
<totfact> 0.13563074E+04</totfact>
</mgrwt>
</event>
<event>
 4    1  0.1672993E-004  0.2466245E+03  0.7818608E-02  0.1115457E+00
         -2   -1    0    0    0  501 -0.00000000000E+00  0.00000000000E+00  0.17981710228E+03  0.17981710228E+03  0.00000000000E+00 0. -1.
          2   -1    0    0  501    0  0.00000000000E+00 -0.00000000000E+00 -0.84563240756E+02  0.84563240756E+02  0.00000000000E+00 0. -1.
         25    1    1    2    0    0  0.20794219610E+02 -0.19273418973E+02  0.46091070192E+02  0.13163681476E+03  0.12000000000E+03 0.  0.
         25    1    1    2    0    0 -0.20794219610E+02  0.19273418973E+02  0.49162791333E+02  0.13274352828E+03  0.12000000000E+03 0.  0.
<mgrwt>
<rscale>  0 0.24662455E+03</rscale>
<asrwt>0</asrwt>
<pdfrwt beam="1">  1        2 0.13009729E-01 0.24662455E+03</pdfrwt>
<pdfrwt beam="2">  1       -2 0.27664170E-01 0.24662455E+03</pdfrwt>
<totfact> 0.54155109E+03</totfact>
</mgrwt>
</event>
<event>
 4    1  0.1672993E-004  0.2624182E+03  0.7818608E-02  0.1105699E+00
          1   -1    0    0  501    0  0.00000000000E+00  0.00000000000E+00  0.77289807500E+03  0.77289807500E+03  0.00000000000E+00 0.  1.
         -1   -1    0    0    0  501 -0.00000000000E+00 -0.00000000000E+00 -0.22274378284E+02  0.22274378284E+02  0.00000000000E+00 0.  1.
         25    1    1    2    0    0 -0.36084198623E+02  0.38906971625E+02  0.37545610056E+03  0.39772239725E+03  0.12000000000E+03 0.  0.
         25    1    1    2    0    0  0.36084198623E+02 -0.38906971625E+02  0.37516759616E+03  0.39745005603E+03  0.12000000000E+03 0.  0.
<mgrwt>
<rscale>  0 0.26241817E+03</rscale>
<asrwt>0</asrwt>
<pdfrwt beam="1">  1        1 0.11890738E+00 0.26241817E+03</pdfrwt>
<pdfrwt beam="2">  1       -1 0.34268280E-02 0.26241817E+03</pdfrwt>
<totfact> 0.74935729E+03</totfact>
</mgrwt>
</event>
<event>
 4    1  0.1672993E-004  0.3080016E+03  0.7818608E-02  0.1081308E+00
          2   -1    0    0  501    0  0.00000000000E+00  0.00000000000E+00  0.72542109793E+03  0.72542109793E+03  0.00000000000E+00 0.  1.
         -2   -1    0    0    0  501 -0.00000000000E+00 -0.00000000000E+00 -0.32693084333E+02  0.32693084333E+02  0.00000000000E+00 0.  1.
         25    1    1    2    0    0  0.62152167121E+02  0.33808028989E+02  0.18476477671E+03  0.23139554320E+03  0.12000000000E+03 0.  0.
         25    1    1    2    0    0 -0.62152167121E+02 -0.33808028989E+02  0.50796323689E+03  0.52671863906E+03  0.12000000000E+03 0.  0.
<mgrwt>
<rscale>  0 0.30800164E+03</rscale>
<asrwt>0</asrwt>
<pdfrwt beam="1">  1        2 0.11160323E+00 0.30800164E+03</pdfrwt>
<pdfrwt beam="2">  1       -2 0.50297058E-02 0.30800164E+03</pdfrwt>
<totfact> 0.77952139E+03</totfact>
</mgrwt>
</event>
<event>
 4    1  0.1672993E-004  0.2529782E+03  0.7818608E-02  0.1111437E+00
         -1   -1    0    0    0  501 -0.00000000000E+00  0.00000000000E+00  0.49128485611E+02  0.49128485611E+02  0.00000000000E+00 0. -1.
          1   -1    0    0  501    0  0.00000000000E+00 -0.00000000000E+00 -0.32566631849E+03  0.32566631849E+03  0.00000000000E+00 0. -1.
         25    1    1    2    0    0  0.34937956606E+02  0.97886685266E+01 -0.16319273420E+03  0.20578714085E+03  0.12000000000E+03 0.  0.
         25    1    1    2    0    0 -0.34937956606E+02 -0.97886685266E+01 -0.11334509868E+03  0.16900766325E+03  0.12000000000E+03 0.  0.
<mgrwt>
<rscale>  0 0.25297820E+03</rscale>
<asrwt>0</asrwt>
<pdfrwt beam="1">  1        1 0.50102513E-01 0.25297820E+03</pdfrwt>
<pdfrwt beam="2">  1       -1 0.75582282E-02 0.25297820E+03</pdfrwt>
<totfact> 0.73296403E+03</totfact>
</mgrwt>
</event>
<event>
 4    1  0.1672993E-004  0.3045977E+03  0.7818608E-02  0.1082965E+00
         -2   -1    0    0    0  501 -0.00000000000E+00  0.00000000000E+00  0.20920140612E+02  0.20920140612E+02  0.00000000000E+00 0.  1.
          2   -1    0    0  501    0  0.00000000000E+00 -0.00000000000E+00 -0.11087374081E+04  0.11087374081E+04  0.00000000000E+00 0.  1.
         25    1    1    2    0    0 -0.40710198865E+02 -0.67229579848E+02 -0.35415553607E+03  0.38210375610E+03  0.12000000000E+03 0.  0.
         25    1    1    2    0    0  0.40710198865E+02  0.67229579848E+02 -0.73366173142E+03  0.74755379262E+03  0.12000000000E+03 0.  0.
<mgrwt>
<rscale>  0 0.30459772E+03</rscale>
<asrwt>0</asrwt>
<pdfrwt beam="1">  1        2 0.17057503E+00 0.30459772E+03</pdfrwt>
<pdfrwt beam="2">  1       -2 0.32184823E-02 0.30459772E+03</pdfrwt>
<totfact> 0.86201803E+03</totfact>
</mgrwt>
</event>
<event>
 4    1  0.1672993E-004  0.3142798E+03  0.7818608E-02  0.1078312E+00
          3   -1    0    0  501    0  0.00000000000E+00  0.00000000000E+00  0.56884698516E+02  0.56884698516E+02  0.00000000000E+00 0. -1.
         -3   -1    0    0    0  501 -0.00000000000E+00 -0.00000000000E+00 -0.43408769868E+03  0.43408769868E+03  0.00000000000E+00 0. -1.
         25    1    1    2    0    0 -0.27468161465E+02 -0.81764512633E+02 -0.10515801310E+03  0.18137845280E+03  0.12000000000E+03 0.  0.
         25    1    1    2    0    0  0.27468161465E+02  0.81764512633E+02 -0.27204498707E+03  0.30959394440E+03  0.12000000000E+03 0.  0.
<mgrwt>
<rscale>  0 0.31427980E+03</rscale>
<asrwt>0</asrwt>
<pdfrwt beam="1">  1        3 0.87514920E-02 0.31427980E+03</pdfrwt>
<pdfrwt beam="2">  1       -3 0.66782723E-01 0.31427980E+03</pdfrwt>
<totfact> 0.51995816E+02</totfact>
</mgrwt>
</event>
<event>
 4    1  0.1672993E-004  0.2790253E+03  0.7818608E-02  0.1096222E+00
          1   -1    0    0  501    0  0.00000000000E+00  0.00000000000E+00  0.17078473716E+03  0.17078473716E+03  0.00000000000E+00 0.  1.
         -1   -1    0    0    0  501 -0.00000000000E+00 -0.00000000000E+00 -0.11396673523E+03  0.11396673523E+03  0.00000000000E+00 0.  1.
         25    1    1    2    0    0 -0.38436390521E+02 -0.40150168585E+02  0.73754952234E+02  0.15142385919E+03  0.12000000000E+03 0.  0.
         25    1    1    2    0    0  0.38436390521E+02  0.40150168585E+02 -0.16936950305E+02  0.13332761319E+03  0.12000000000E+03 0.  0.
<mgrwt>
<rscale>  0 0.27902530E+03</rscale>
<asrwt>0</asrwt>
<pdfrwt beam="1">  1        1 0.26274575E-01 0.27902530E+03</pdfrwt>
<pdfrwt beam="2">  1       -1 0.17533344E-01 0.27902530E+03</pdfrwt>
<totfact> 0.44598902E+03</totfact>
</mgrwt>
</event>
<event>
 4    1  0.1672993E-004  0.3762918E+03  0.7818608E-02  0.1052313E+00
          2   -1    0    0  501    0  0.00000000000E+00  0.00000000000E+00  0.23429836590E+04  0.23429836590E+04  0.00000000000E+00 0. -1.
         -2   -1    0    0    0  501 -0.00000000000E+00 -0.00000000000E+00 -0.15108465826E+02  0.15108465826E+02  0.00000000000E+00 0. -1.
         25    1    1    2    0    0 -0.60245953123E+02 -0.12587532874E+03  0.14086355501E+04  0.14206084211E+04  0.12000000000E+03 0.  0.
         25    1    1    2    0    0  0.60245953123E+02  0.12587532874E+03  0.91923964311E+03  0.93748370371E+03  0.12000000000E+03 0.  0.
<mgrwt>
<rscale>  0 0.37629185E+03</rscale>
<asrwt>0</asrwt>
<pdfrwt beam="1">  1        2 0.36045874E+00 0.37629185E+03</pdfrwt>
<pdfrwt beam="2">  1       -2 0.23243812E-02 0.37629185E+03</pdfrwt>
<totfact> 0.30039634E+03</totfact>
</mgrwt>
</event>
<event>
 4    1  0.1672993E-004  0.2904480E+03  0.7818608E-02  0.1090115E+00
          1   -1    0    0  501    0  0.00000000000E+00  0.00000000000E+00  0.35843649114E+03  0.35843649114E+03  0.00000000000E+00 0. -1.
         -1   -1    0    0    0  501 -0.00000000000E+00 -0.00000000000E+00 -0.58838913011E+02  0.58838913011E+02  0.00000000000E+00 0. -1.
         25    1    1    2    0    0 -0.57012980881E+02 -0.39987814960E+02  0.21143319844E+03  0.25289029783E+03  0.12000000000E+03 0.  0.
         25    1    1    2    0    0  0.57012980881E+02  0.39987814960E+02  0.88164379691E+02  0.16438510632E+03  0.12000000000E+03 0.  0.
<mgrwt>
<rscale>  0 0.29044802E+03</rscale>
<asrwt>0</asrwt>
<pdfrwt beam="1">  1        1 0.55144074E-01 0.29044802E+03</pdfrwt>
<pdfrwt beam="2">  1       -1 0.90521407E-02 0.29044802E+03</pdfrwt>
<totfact> 0.49493376E+03</totfact>
</mgrwt>
</event>
<event>
 4    1  0.1672993E-004  0.2594332E+03  0.7818608E-02  0.1107484E+00
          1   -1    0    0  501    0  0.00000000000E+00  0.00000000000E+00  0.69491657283E+02  0.69491657283E+02  0.00000000000E+00 0. -1.
         -1   -1    0    0    0  501 -0.00000000000E+00 -0.00000000000E+00 -0.24213540101E+03  0.24213540101E+03  0.00000000000E+00 0. -1.
         25    1    1    2    0    0 -0.76761656931E+01  0.15957171557E+02 -0.31108722053E+02  0.12522502718E+03  0.12000000000E+03 0.  0.
         25    1    1    2    0    0  0.76761656931E+01 -0.15957171557E+02 -0.14153502167E+03  0.18640203111E+03  0.12000000000E+03 0.  0.
<mgrwt>
<rscale>  0 0.25943315E+03</rscale>
<asrwt>0</asrwt>
<pdfrwt beam="1">  1        1 0.10691024E-01 0.25943315E+03</pdfrwt>
<pdfrwt beam="2">  1       -1 0.37251600E-01 0.25943315E+03</pdfrwt>
<totfact> 0.40747963E+03</totfact>
</mgrwt>
</event>
<event>
 4    1  0.1672993E-004  0.3689927E+03  0.7818608E-02  0.1055079E+00
         -1   -1    0    0    0  501 -0.00000000000E+00  0.00000000000E+00  0.43569210646E+02  0.43569210646E+02  0.00000000000E+00 0.  1.
          1   -1    0    0  501    0  0.00000000000E+00 -0.00000000000E+00 -0.78126030817E+03  0.78126030817E+03  0.00000000000E+00 0.  1.
         25    1    1    2    0    0 -0.43070278059E+02  0.63756692967E+02 -0.10702327136E+03  0.17825247646E+03  0.12000000000E+03 0.  0.
         25    1    1    2    0    0  0.43070278059E+02 -0.63756692967E+02 -0.63066782616E+03  0.64657704236E+03  0.12000000000E+03 0.  0.
<mgrwt>
<rscale>  0 0.36899266E+03</rscale>
<asrwt>0</asrwt>
<pdfrwt beam="1">  1        1 0.12019389E+00 0.36899266E+03</pdfrwt>
<pdfrwt beam="2">  1       -1 0.67029555E-02 0.36899266E+03</pdfrwt>
<totfact> 0.27064794E+03</totfact>
</mgrwt>
</event>
<event>
 4    1  0.1672993E-004  0.4297063E+03  0.7818608E-02  0.1033953E+00
         -2   -1    0    0    0  501 -0.00000000000E+00  0.00000000000E+00  0.72399693216E+02  0.72399693216E+02  0.00000000000E+00 0. -1.
          2   -1    0    0  501    0  0.00000000000E+00 -0.00000000000E+00 -0.63759753298E+03  0.63759753298E+03  0.00000000000E+00 0. -1.
         25    1    1    2    0    0  0.17634818017E+03  0.13271544421E+01 -0.24010518671E+03  0.32117120462E+03  0.12000000000E+03 0.  0.
         25    1    1    2    0    0 -0.17634818017E+03 -0.13271544421E+01 -0.32509265305E+03  0.38882602158E+03  0.12000000000E+03 0.  0.
<mgrwt>
<rscale>  0 0.42970625E+03</rscale>
<asrwt>0</asrwt>
<pdfrwt beam="1">  1        2 0.98091933E-01 0.42970625E+03</pdfrwt>
<pdfrwt beam="2">  1       -2 0.11138414E-01 0.42970625E+03</pdfrwt>
<totfact> 0.26343021E+03</totfact>
</mgrwt>
</event>
<event>
 4    1  0.1672993E-004  0.2552397E+03  0.7818608E-02  0.1110038E+00
          1   -1    0    0  501    0  0.00000000000E+00  0.00000000000E+00  0.13682134889E+03  0.13682134889E+03  0.00000000000E+00 0. -1.
         -1   -1    0    0    0  501 -0.00000000000E+00 -0.00000000000E+00 -0.11903717030E+03  0.11903717030E+03  0.00000000000E+00 0. -1.
         25    1    1    2    0    0 -0.51619366857E+01 -0.27071372060E+02 -0.24764921133E+02  0.12558983277E+03  0.12000000000E+03 0.  0.
         25    1    1    2    0    0  0.51619366857E+01  0.27071372060E+02  0.42549099722E+02  0.13026868642E+03  0.12000000000E+03 0.  0.
<mgrwt>
<rscale>  0 0.25523970E+03</rscale>
<asrwt>0</asrwt>
<pdfrwt beam="1">  1        1 0.21049438E-01 0.25523970E+03</pdfrwt>
<pdfrwt beam="2">  1       -1 0.18313411E-01 0.25523970E+03</pdfrwt>
<totfact> 0.55016968E+03</totfact>
</mgrwt>
</event>
<event>
 4    1  0.1672993E-004  0.2773573E+03  0.7818608E-02  0.1097141E+00
         -3   -1    0    0    0  501 -0.00000000000E+00  0.00000000000E+00  0.35312975237E+02  0.35312975237E+02  0.00000000000E+00 0. -1.
          3   -1    0    0  501    0  0.00000000000E+00 -0.00000000000E+00 -0.54460908261E+03  0.54460908261E+03  0.00000000000E+00 0. -1.
         25    1    1    2    0    0  0.43863700605E+02  0.46615935726E+02 -0.19797400028E+03  0.24018903905E+03  0.12000000000E+03 0.  0.
         25    1    1    2    0    0 -0.43863700605E+02 -0.46615935726E+02 -0.31132210710E+03  0.33973301880E+03  0.12000000000E+03 0.  0.
<mgrwt>
<rscale>  0 0.27735729E+03</rscale>
<asrwt>0</asrwt>
<pdfrwt beam="1">  1        3 0.83786006E-01 0.27735729E+03</pdfrwt>
<pdfrwt beam="2">  1       -3 0.54327659E-02 0.27735729E+03</pdfrwt>
<totfact> 0.68437977E+02</totfact>
</mgrwt>
</event>
<event>
 4    1  0.1672993E-004  0.2659292E+03  0.7818608E-02  0.1103632E+00
          1   -1    0    0  501    0  0.00000000000E+00  0.00000000000E+00  0.69584535750E+03  0.69584535750E+03  0.00000000000E+00 0. -1.
         -1   -1    0    0    0  501 -0.00000000000E+00 -0.00000000000E+00 -0.25407353456E+02  0.25407353456E+02  0.00000000000E+00 0. -1.
         25    1    1    2    0    0 -0.13247275657E+02 -0.55155892221E+02  0.35656215416E+03  0.38046580995E+03  0.12000000000E+03 0.  0.
         25    1    1    2    0    0  0.13247275657E+02  0.55155892221E+02  0.31387584988E+03  0.34078690100E+03  0.12000000000E+03 0.  0.
<mgrwt>
<rscale>  0 0.26592923E+03</rscale>
<asrwt>0</asrwt>
<pdfrwt beam="1">  1        1 0.10705312E+00 0.26592923E+03</pdfrwt>
<pdfrwt beam="2">  1       -1 0.39088241E-02 0.26592923E+03</pdfrwt>
<totfact> 0.72080653E+03</totfact>
</mgrwt>
</event>
<event>
 4    1  0.1672993E-004  0.2644406E+03  0.7818608E-02  0.1104504E+00
          3   -1    0    0  501    0  0.00000000000E+00  0.00000000000E+00  0.60725510226E+02  0.60725510226E+02  0.00000000000E+00 0. -1.
         -3   -1    0    0    0  501 -0.00000000000E+00 -0.00000000000E+00 -0.28788904542E+03  0.28788904542E+03  0.00000000000E+00 0. -1.
         25    1    1    2    0    0  0.38260441888E+01  0.31630401223E+02 -0.17351902632E+03  0.21336347717E+03  0.12000000000E+03 0.  0.
         25    1    1    2    0    0 -0.38260441888E+01 -0.31630401223E+02 -0.53644508869E+02  0.13525107847E+03  0.12000000000E+03 0.  0.
<mgrwt>
<rscale>  0 0.26444061E+03</rscale>
<asrwt>0</asrwt>
<pdfrwt beam="1">  1        3 0.93423862E-02 0.26444061E+03</pdfrwt>
<pdfrwt beam="2">  1       -3 0.44290622E-01 0.26444061E+03</pdfrwt>
<totfact> 0.10641541E+03</totfact>
</mgrwt>
</event>
<event>
 4    1  0.1672993E-004  0.2661075E+03  0.7818608E-02  0.1103528E+00
          2   -1    0    0  501    0  0.00000000000E+00  0.00000000000E+00  0.14697314346E+04  0.14697314346E+04  0.00000000000E+00 0.  1.
         -2   -1    0    0    0  501 -0.00000000000E+00 -0.00000000000E+00 -0.12045259927E+02  0.12045259927E+02  0.00000000000E+00 0.  1.
         25    1    1    2    0    0 -0.16136209055E+02  0.44903733766E+02  0.90725380604E+03  0.91639848927E+03  0.12000000000E+03 0.  0.
         25    1    1    2    0    0  0.16136209055E+02 -0.44903733766E+02  0.55043236866E+03  0.56537820529E+03  0.12000000000E+03 0.  0.
<mgrwt>
<rscale>  0 0.26610748E+03</rscale>
<asrwt>0</asrwt>
<pdfrwt beam="1">  1        2 0.22611239E+00 0.26610748E+03</pdfrwt>
<pdfrwt beam="2">  1       -2 0.18531181E-02 0.26610748E+03</pdfrwt>
<totfact> 0.12239560E+04</totfact>
</mgrwt>
</event>
<event>
 4    1  0.1672993E-004  0.3881409E+03  0.7818608E-02  0.1047965E+00
          2   -1    0    0  501    0  0.00000000000E+00  0.00000000000E+00  0.28268194377E+04  0.28268194377E+04  0.00000000000E+00 0.  1.
         -2   -1    0    0    0  501 -0.00000000000E+00 -0.00000000000E+00 -0.13323576280E+02  0.13323576280E+02  0.00000000000E+00 0.  1.
         25    1    1    2    0    0  0.14868951715E+03  0.31677047535E+01  0.16543211912E+04  0.16653219540E+04  0.12000000000E+03 0.  0.
         25    1    1    2    0    0 -0.14868951715E+03 -0.31677047535E+01  0.11591746703E+04  0.11748210600E+04  0.12000000000E+03 0.  0.
<mgrwt>
<rscale>  0 0.38814092E+03</rscale>
<asrwt>0</asrwt>
<pdfrwt beam="1">  1        2 0.43489482E+00 0.38814092E+03</pdfrwt>
<pdfrwt beam="2">  1       -2 0.20497832E-02 0.38814092E+03</pdfrwt>
<totfact> 0.19362642E+03</totfact>
</mgrwt>
</event>
<event>
 4    1  0.1672993E-004  0.2750137E+03  0.7818608E-02  0.1098444E+00
          4   -1    0    0  501    0  0.00000000000E+00  0.00000000000E+00  0.10720021420E+04  0.10720021420E+04  0.00000000000E+00 0.  1.
         -4   -1    0    0    0  501 -0.00000000000E+00 -0.00000000000E+00 -0.17638149369E+02  0.17638149369E+02  0.00000000000E+00 0.  1.
         25    1    1    2    0    0  0.27841440447E+02  0.22494965009E+02  0.30210768646E+03  0.32703245019E+03  0.12000000000E+03 0.  0.
         25    1    1    2    0    0 -0.27841440447E+02 -0.22494965009E+02  0.75225630616E+03  0.76260784117E+03  0.12000000000E+03 0.  0.
<mgrwt>
<rscale>  0 0.27501370E+03</rscale>
<asrwt>0</asrwt>
<pdfrwt beam="1">  1        4 0.16492335E+00 0.27501370E+03</pdfrwt>
<pdfrwt beam="2">  1       -4 0.27135623E-02 0.27501370E+03</pdfrwt>
<totfact> 0.29125656E+02</totfact>
</mgrwt>
</event>
<event>
 4    1  0.1672993E-004  0.3604022E+03  0.7818608E-02  0.1058425E+00
         -1   -1    0    0    0  501 -0.00000000000E+00  0.00000000000E+00  0.54392901064E+03  0.54392901064E+03  0.00000000000E+00 0.  1.
          1   -1    0    0  501    0  0.00000000000E+00 -0.00000000000E+00 -0.59699755303E+02  0.59699755303E+02  0.00000000000E+00 0.  1.
         25    1    1    2    0    0 -0.13320915342E+03 -0.18075382494E+02  0.24381512563E+03  0.30317851754E+03  0.12000000000E+03 0.  0.
         25    1    1    2    0    0  0.13320915342E+03  0.18075382494E+02  0.24041412971E+03  0.30045024841E+03  0.12000000000E+03 0.  0.
<mgrwt>
<rscale>  0 0.36040216E+03</rscale>
<asrwt>0</asrwt>
<pdfrwt beam="1">  1        1 0.91845781E-02 0.36040216E+03</pdfrwt>
<pdfrwt beam="2">  1       -1 0.83681383E-01 0.36040216E+03</pdfrwt>
<totfact> 0.10723269E+03</totfact>
</mgrwt>
</event>
<event>
 4    1  0.1672993E-004  0.2421310E+03  0.7818608E-02  0.1118381E+00
         -2   -1    0    0    0  501 -0.00000000000E+00  0.00000000000E+00  0.18870033061E+02  0.18870033061E+02  0.00000000000E+00 0.  1.
          2   -1    0    0  501    0  0.00000000000E+00 -0.00000000000E+00 -0.77672658980E+03  0.77672658980E+03  0.00000000000E+00 0.  1.
         25    1    1    2    0    0 -0.15361241010E+02  0.65294618909E+00 -0.39379175590E+03  0.41195672234E+03  0.12000000000E+03 0.  0.
         25    1    1    2    0    0  0.15361241010E+02 -0.65294618909E+00 -0.36406480083E+03  0.38363990052E+03  0.12000000000E+03 0.  0.
<mgrwt>
<rscale>  0 0.24213101E+03</rscale>
<asrwt>0</asrwt>
<pdfrwt beam="1">  1        2 0.11949638E+00 0.24213101E+03</pdfrwt>
<pdfrwt beam="2">  1       -2 0.29030826E-02 0.24213101E+03</pdfrwt>
<totfact> 0.16206870E+04</totfact>
</mgrwt>
</event>
<event>
 4    1  0.1672993E-004  0.2691206E+03  0.7818608E-02  0.1101784E+00
          2   -1    0    0  501    0  0.00000000000E+00  0.00000000000E+00  0.25401902441E+04  0.25401902441E+04  0.00000000000E+00 0. -1.
         -2   -1    0    0    0  501 -0.00000000000E+00 -0.00000000000E+00 -0.71279976165E+01  0.71279976165E+01  0.00000000000E+00 0. -1.
         25    1    1    2    0    0  0.26667133795E+02 -0.24794282802E+02  0.80470608016E+03  0.81441866870E+03  0.12000000000E+03 0.  0.
         25    1    1    2    0    0 -0.26667133795E+02  0.24794282802E+02  0.17283561664E+04  0.17328995731E+04  0.12000000000E+03 0.  0.
<mgrwt>
<rscale>  0 0.26912057E+03</rscale>
<asrwt>0</asrwt>
<pdfrwt beam="1">  1        2 0.39079778E+00 0.26912057E+03</pdfrwt>
<pdfrwt beam="2">  1       -2 0.10966170E-02 0.26912057E+03</pdfrwt>
<totfact> 0.71064873E+03</totfact>
</mgrwt>
</event>
<event>
 4    1  0.1672993E-004  0.3186000E+03  0.7818608E-02  0.1076295E+00
          2   -1    0    0  501    0  0.00000000000E+00  0.00000000000E+00  0.11580490564E+04  0.11580490564E+04  0.00000000000E+00 0. -1.
         -2   -1    0    0    0  501 -0.00000000000E+00 -0.00000000000E+00 -0.21913134191E+02  0.21913134191E+02  0.00000000000E+00 0. -1.
         25    1    1    2    0    0  0.73987249401E+02 -0.61156628082E+02  0.41259507292E+03  0.44028279598E+03  0.12000000000E+03 0.  0.
         25    1    1    2    0    0 -0.73987249401E+02  0.61156628082E+02  0.72354084926E+03  0.73967939459E+03  0.12000000000E+03 0.  0.
<mgrwt>
<rscale>  0 0.31859996E+03</rscale>
<asrwt>0</asrwt>
<pdfrwt beam="1">  1        2 0.17816135E+00 0.31859996E+03</pdfrwt>
<pdfrwt beam="2">  1       -2 0.33712523E-02 0.31859996E+03</pdfrwt>
<totfact> 0.75325801E+03</totfact>
</mgrwt>
</event>
<event>
 4    1  0.1672993E-004  0.3431207E+03  0.7818608E-02  0.1065475E+00
          1   -1    0    0  501    0  0.00000000000E+00  0.00000000000E+00  0.12646643471E+02  0.12646643471E+02  0.00000000000E+00 0. -1.
         -1   -1    0    0    0  501 -0.00000000000E+00 -0.00000000000E+00 -0.23273329499E+04  0.23273329499E+04  0.00000000000E+00 0. -1.
         25    1    1    2    0    0  0.78344371346E+02 -0.87772693536E+02 -0.13927031725E+04  0.14028057645E+04  0.12000000000E+03 0.  0.
         25    1    1    2    0    0 -0.78344371346E+02  0.87772693536E+02 -0.92198313392E+03  0.93717382885E+03  0.12000000000E+03 0.  0.
<mgrwt>
<rscale>  0 0.34312068E+03</rscale>
<asrwt>0</asrwt>
<pdfrwt beam="1">  1        1 0.19456374E-02 0.34312068E+03</pdfrwt>
<pdfrwt beam="2">  1       -1 0.35805124E+00 0.34312068E+03</pdfrwt>
<totfact> 0.10327317E+02</totfact>
</mgrwt>
</event>
<event>
 4    1  0.1672993E-004  0.2496581E+03  0.7818608E-02  0.1113521E+00
          2   -1    0    0  501    0  0.00000000000E+00  0.00000000000E+00  0.85773018275E+03  0.85773018275E+03  0.00000000000E+00 0.  1.
         -2   -1    0    0    0  501 -0.00000000000E+00 -0.00000000000E+00 -0.18166890389E+02  0.18166890389E+02  0.00000000000E+00 0.  1.
         25    1    1    2    0    0 -0.18166448904E+02  0.37427098977E+01  0.31820416335E+03  0.34058466982E+03  0.12000000000E+03 0.  0.
         25    1    1    2    0    0  0.18166448904E+02 -0.37427098977E+01  0.52135912900E+03  0.53531240331E+03  0.12000000000E+03 0.  0.
<mgrwt>
<rscale>  0 0.24965809E+03</rscale>
<asrwt>0</asrwt>
<pdfrwt beam="1">  1        2 0.13195846E+00 0.24965809E+03</pdfrwt>
<pdfrwt beam="2">  1       -2 0.27949069E-02 0.24965809E+03</pdfrwt>
<totfact> 0.15123277E+04</totfact>
</mgrwt>
</event>
<event>
 4    1  0.1672993E-004  0.2595614E+03  0.7818608E-02  0.1107407E+00
          1   -1    0    0  501    0  0.00000000000E+00  0.00000000000E+00  0.97015829350E+03  0.97015829350E+03  0.00000000000E+00 0.  1.
         -1   -1    0    0    0  501 -0.00000000000E+00 -0.00000000000E+00 -0.17361120481E+02  0.17361120481E+02  0.00000000000E+00 0.  1.
         25    1    1    2    0    0 -0.39488759089E+02  0.15420437767E+02  0.57308877475E+03  0.58705016459E+03  0.12000000000E+03 0.  0.
         25    1    1    2    0    0  0.39488759089E+02 -0.15420437767E+02  0.37970839827E+03  0.40046924939E+03  0.12000000000E+03 0.  0.
<mgrwt>
<rscale>  0 0.25956144E+03</rscale>
<asrwt>0</asrwt>
<pdfrwt beam="1">  1        1 0.14925508E+00 0.25956144E+03</pdfrwt>
<pdfrwt beam="2">  1       -1 0.26709424E-02 0.25956144E+03</pdfrwt>
<totfact> 0.75230848E+03</totfact>
</mgrwt>
</event>
<event>
 4    1  0.1672993E-004  0.3729927E+03  0.7818608E-02  0.1053555E+00
          1   -1    0    0  501    0  0.00000000000E+00  0.00000000000E+00  0.56941912811E+03  0.56941912811E+03  0.00000000000E+00 0. -1.
         -1   -1    0    0    0  501 -0.00000000000E+00 -0.00000000000E+00 -0.61081349892E+02  0.61081349892E+02  0.00000000000E+00 0. -1.
         25    1    1    2    0    0 -0.14099347885E+03 -0.40427862898E+01  0.21692734120E+03  0.28522443192E+03  0.12000000000E+03 0.  0.
         25    1    1    2    0    0  0.14099347885E+03  0.40427862898E+01  0.29141043701E+03  0.34527604608E+03  0.12000000000E+03 0.  0.
<mgrwt>
<rscale>  0 0.37299270E+03</rscale>
<asrwt>0</asrwt>
<pdfrwt beam="1">  1        1 0.87602939E-01 0.37299270E+03</pdfrwt>
<pdfrwt beam="2">  1       -1 0.93971312E-02 0.37299270E+03</pdfrwt>
<totfact> 0.25491099E+03</totfact>
</mgrwt>
</event>
<event>
 4    1  0.1672993E-004  0.3816711E+03  0.7818608E-02  0.1050318E+00
          2   -1    0    0  501    0  0.00000000000E+00  0.00000000000E+00  0.28230131395E+04  0.28230131395E+04  0.00000000000E+00 0.  1.
         -2   -1    0    0    0  501 -0.00000000000E+00 -0.00000000000E+00 -0.12900472230E+02  0.12900472230E+02  0.00000000000E+00 0.  1.
         25    1    1    2    0    0  0.79667715193E+02 -0.11104684485E+03  0.18344618505E+04  0.18434556212E+04  0.12000000000E+03 0.  0.
         25    1    1    2    0    0 -0.79667715193E+02  0.11104684485E+03  0.97565081681E+03  0.99245799052E+03  0.12000000000E+03 0.  0.
<mgrwt>
<rscale>  0 0.38167108E+03</rscale>
<asrwt>0</asrwt>
<pdfrwt beam="1">  1        2 0.43430922E+00 0.38167108E+03</pdfrwt>
<pdfrwt beam="2">  1       -2 0.19846903E-02 0.38167108E+03</pdfrwt>
<totfact> 0.20430622E+03</totfact>
</mgrwt>
</event>
<event>
 4    1  0.1672993E-004  0.2963316E+03  0.7818608E-02  0.1087089E+00
          2   -1    0    0  501    0  0.00000000000E+00  0.00000000000E+00  0.20751651489E+04  0.20751651489E+04  0.00000000000E+00 0.  1.
         -2   -1    0    0    0  501 -0.00000000000E+00 -0.00000000000E+00 -0.10578968527E+02  0.10578968527E+02  0.00000000000E+00 0.  1.
         25    1    1    2    0    0 -0.10806741718E+02  0.85076547916E+02  0.11314097647E+04  0.11409832867E+04  0.12000000000E+03 0.  0.
         25    1    1    2    0    0  0.10806741718E+02 -0.85076547916E+02  0.93317641563E+03  0.94476083077E+03  0.12000000000E+03 0.  0.
<mgrwt>
<rscale>  0 0.29633162E+03</rscale>
<asrwt>0</asrwt>
<pdfrwt beam="1">  1        2 0.31925585E+00 0.29633162E+03</pdfrwt>
<pdfrwt beam="2">  1       -2 0.16275353E-02 0.29633162E+03</pdfrwt>
<totfact> 0.71016294E+03</totfact>
</mgrwt>
</event>
<event>
 4    1  0.1672993E-004  0.2996218E+03  0.7818608E-02  0.1085430E+00
         -2   -1    0    0    0  501 -0.00000000000E+00  0.00000000000E+00  0.17185372818E+02  0.17185372818E+02  0.00000000000E+00 0. -1.
          2   -1    0    0  501    0  0.00000000000E+00 -0.00000000000E+00 -0.13059543081E+04  0.13059543081E+04  0.00000000000E+00 0. -1.
         25    1    1    2    0    0 -0.23029389967E+02 -0.26267743259E+02 -0.10091541920E+04  0.10168640668E+04  0.12000000000E+03 0.  0.
         25    1    1    2    0    0  0.23029389967E+02  0.26267743259E+02 -0.27961474331E+03  0.30627561414E+03  0.12000000000E+03 0.  0.
<mgrwt>
<rscale>  0 0.29962184E+03</rscale>
<asrwt>0</asrwt>
<pdfrwt beam="1">  1        2 0.20091606E+00 0.29962184E+03</pdfrwt>
<pdfrwt beam="2">  1       -2 0.26439034E-02 0.29962184E+03</pdfrwt>
<totfact> 0.89183486E+03</totfact>
</mgrwt>
</event>
<event>
 4    1  0.1672993E-004  0.2417236E+03  0.7818608E-02  0.1118650E+00
          1   -1    0    0  501    0  0.00000000000E+00  0.00000000000E+00  0.35824865299E+03  0.35824865299E+03  0.00000000000E+00 0. -1.
         -1   -1    0    0    0  501 -0.00000000000E+00 -0.00000000000E+00 -0.40774945456E+02  0.40774945456E+02  0.00000000000E+00 0. -1.
         25    1    1    2    0    0 -0.11014105521E+02  0.91767634667E+01  0.16109792324E+03  0.20139032842E+03  0.12000000000E+03 0.  0.
         25    1    1    2    0    0  0.11014105521E+02 -0.91767634667E+01  0.15637578429E+03  0.19763327003E+03  0.12000000000E+03 0.  0.
<mgrwt>
<rscale>  0 0.24172356E+03</rscale>
<asrwt>0</asrwt>
<pdfrwt beam="1">  1        1 0.55115175E-01 0.24172356E+03</pdfrwt>
<pdfrwt beam="2">  1       -1 0.62730688E-02 0.24172356E+03</pdfrwt>
<totfact> 0.86004243E+03</totfact>
</mgrwt>
</event>
<event>
 4    1  0.1672993E-004  0.2995138E+03  0.7818608E-02  0.1085484E+00
          2   -1    0    0  501    0  0.00000000000E+00  0.00000000000E+00  0.15544649102E+04  0.15544649102E+04  0.00000000000E+00 0. -1.
         -2   -1    0    0    0  501 -0.00000000000E+00 -0.00000000000E+00 -0.14427555611E+02  0.14427555611E+02  0.00000000000E+00 0. -1.
         25    1    1    2    0    0 -0.87121384974E+02 -0.13262922767E+02  0.68537980310E+03  0.70136403910E+03  0.12000000000E+03 0.  0.
         25    1    1    2    0    0  0.87121384974E+02  0.13262922767E+02  0.85465755147E+03  0.86752842670E+03  0.12000000000E+03 0.  0.
<mgrwt>
<rscale>  0 0.29951380E+03</rscale>
<asrwt>0</asrwt>
<pdfrwt beam="1">  1        2 0.23914832E+00 0.29951380E+03</pdfrwt>
<pdfrwt beam="2">  1       -2 0.22196252E-02 0.29951380E+03</pdfrwt>
<totfact> 0.84708448E+03</totfact>
</mgrwt>
</event>
<event>
 4    1  0.1672993E-004  0.2727780E+03  0.7818608E-02  0.1099700E+00
         -2   -1    0    0    0  501 -0.00000000000E+00  0.00000000000E+00  0.19740140065E+04  0.19740140065E+04  0.00000000000E+00 0. -1.
          2   -1    0    0  501    0  0.00000000000E+00 -0.00000000000E+00 -0.94234174951E+01  0.94234174951E+01  0.00000000000E+00 0. -1.
         25    1    1    2    0    0  0.21725503226E+02  0.59056654881E+02  0.86911757943E+03  0.87961642370E+03  0.12000000000E+03 0.  0.
         25    1    1    2    0    0 -0.21725503226E+02 -0.59056654881E+02  0.10954730096E+04  0.11038210003E+04  0.12000000000E+03 0.  0.
<mgrwt>
<rscale>  0 0.27277799E+03</rscale>
<asrwt>0</asrwt>
<pdfrwt beam="1">  1        2 0.14497581E-02 0.27277799E+03</pdfrwt>
<pdfrwt beam="2">  1       -2 0.30369413E+00 0.27277799E+03</pdfrwt>
<totfact> 0.29847874E+02</totfact>
</mgrwt>
</event>
<event>
 4    1  0.1672993E-004  0.3970223E+03  0.7818608E-02  0.1044816E+00
         -1   -1    0    0    0  501 -0.00000000000E+00  0.00000000000E+00  0.15926016153E+03  0.15926016153E+03  0.00000000000E+00 0. -1.
          1   -1    0    0  501    0  0.00000000000E+00 -0.00000000000E+00 -0.24743585958E+03  0.24743585958E+03  0.00000000000E+00 0. -1.
         25    1    1    2    0    0 -0.13926075340E+03 -0.74847800411E+02 -0.47473575301E+02  0.20408206932E+03  0.12000000000E+03 0.  0.
         25    1    1    2    0    0  0.13926075340E+03  0.74847800411E+02 -0.40702122747E+02  0.20261395179E+03  0.12000000000E+03 0.  0.
<mgrwt>
<rscale>  0 0.39702229E+03</rscale>
<asrwt>0</asrwt>
<pdfrwt beam="1">  1        1 0.38067055E-01 0.39702229E+03</pdfrwt>
<pdfrwt beam="2">  1       -1 0.24501563E-01 0.39702229E+03</pdfrwt>
<totfact> 0.16195006E+03</totfact>
</mgrwt>
</event>
<event>
 4    1  0.1672993E-004  0.2650464E+03  0.7818608E-02  0.1104149E+00
         -1   -1    0    0    0  501 -0.00000000000E+00  0.00000000000E+00  0.29571511829E+03  0.29571511829E+03  0.00000000000E+00 0.  1.
          1   -1    0    0  501    0  0.00000000000E+00 -0.00000000000E+00 -0.59389583876E+02  0.59389583876E+02  0.00000000000E+00 0.  1.
         25    1    1    2    0    0 -0.19367883019E+02  0.52770910806E+02  0.11603850267E+03  0.17613863296E+03  0.12000000000E+03 0.  0.
         25    1    1    2    0    0  0.19367883019E+02 -0.52770910806E+02  0.12028703174E+03  0.17896606920E+03  0.12000000000E+03 0.  0.
<mgrwt>
<rscale>  0 0.26504639E+03</rscale>
<asrwt>0</asrwt>
<pdfrwt beam="1">  1        1 0.91368592E-02 0.26504639E+03</pdfrwt>
<pdfrwt beam="2">  1       -1 0.45494633E-01 0.26504639E+03</pdfrwt>
<totfact> 0.35260277E+03</totfact>
</mgrwt>
</event>
<event>
 4    1  0.1672993E-004  0.2463452E+03  0.7818608E-02  0.1115637E+00
         -2   -1    0    0    0  501 -0.00000000000E+00  0.00000000000E+00  0.24280884379E+03  0.24280884379E+03  0.00000000000E+00 0.  1.
          2   -1    0    0  501    0  0.00000000000E+00 -0.00000000000E+00 -0.62483275431E+02  0.62483275431E+02  0.00000000000E+00 0.  1.
         25    1    1    2    0    0  0.23344990525E+02 -0.12941068299E+02  0.99684502332E+02  0.15827021146E+03  0.12000000000E+03 0.  0.
         25    1    1    2    0    0 -0.23344990525E+02  0.12941068299E+02  0.80641066031E+02  0.14702190776E+03  0.12000000000E+03 0.  0.
<mgrwt>
<rscale>  0 0.24634522E+03</rscale>
<asrwt>0</asrwt>
<pdfrwt beam="1">  1        2 0.96128117E-02 0.24634522E+03</pdfrwt>
<pdfrwt beam="2">  1       -2 0.37355206E-01 0.24634522E+03</pdfrwt>
<totfact> 0.45208269E+03</totfact>
</mgrwt>
</event>
<event>
 4    1  0.1672993E-004  0.3689737E+03  0.7818608E-02  0.1055086E+00
         -1   -1    0    0    0  501 -0.00000000000E+00  0.00000000000E+00  0.10072898335E+03  0.10072898335E+03  0.00000000000E+00 0.  1.
          1   -1    0    0  501    0  0.00000000000E+00 -0.00000000000E+00 -0.33789079232E+03  0.33789079232E+03  0.00000000000E+00 0.  1.
         25    1    1    2    0    0 -0.12436315178E+02 -0.74054272594E+02  0.22058045999E+02  0.14326637644E+03  0.12000000000E+03 0.  0.
         25    1    1    2    0    0  0.12436315178E+02  0.74054272594E+02 -0.25921985497E+03  0.29535339923E+03  0.12000000000E+03 0.  0.
<mgrwt>
<rscale>  0 0.36897369E+03</rscale>
<asrwt>0</asrwt>
<pdfrwt beam="1">  1        1 0.51983198E-01 0.36897369E+03</pdfrwt>
<pdfrwt beam="2">  1       -1 0.15496767E-01 0.36897369E+03</pdfrwt>
<totfact> 0.23056577E+03</totfact>
</mgrwt>
</event>
<event>
 4    1  0.1672993E-004  0.2708436E+03  0.7818608E-02  0.1100798E+00
         -1   -1    0    0    0  501 -0.00000000000E+00  0.00000000000E+00  0.15955067716E+03  0.15955067716E+03  0.00000000000E+00 0.  1.
          1   -1    0    0  501    0  0.00000000000E+00 -0.00000000000E+00 -0.11494196511E+03  0.11494196511E+03  0.00000000000E+00 0.  1.
         25    1    1    2    0    0 -0.17237049988E+01 -0.34321268983E+02 -0.30921277228E+02  0.12859644649E+03  0.12000000000E+03 0.  0.
         25    1    1    2    0    0  0.17237049988E+01  0.34321268983E+02  0.75529989279E+02  0.14589619578E+03  0.12000000000E+03 0.  0.
<mgrwt>
<rscale>  0 0.27084363E+03</rscale>
<asrwt>0</asrwt>
<pdfrwt beam="1">  1        1 0.17683379E-01 0.27084363E+03</pdfrwt>
<pdfrwt beam="2">  1       -1 0.24546258E-01 0.27084363E+03</pdfrwt>
<totfact> 0.42772180E+03</totfact>
</mgrwt>
</event>
<event>
 4    1  0.1672993E-004  0.3565127E+03  0.7818608E-02  0.1059973E+00
          2   -1    0    0  501    0  0.00000000000E+00  0.00000000000E+00  0.16375067023E+04  0.16375067023E+04  0.00000000000E+00 0.  1.
         -2   -1    0    0    0  501 -0.00000000000E+00 -0.00000000000E+00 -0.19404699718E+02  0.19404699718E+02  0.00000000000E+00 0.  1.
         25    1    1    2    0    0  0.48585157883E+02 -0.10769173302E+03  0.10807360687E+04  0.10937771606E+04  0.12000000000E+03 0.  0.
         25    1    1    2    0    0 -0.48585157883E+02  0.10769173302E+03  0.53736593393E+03  0.56313424144E+03  0.12000000000E+03 0.  0.
<mgrwt>
<rscale>  0 0.35651270E+03</rscale>
<asrwt>0</asrwt>
<pdfrwt beam="1">  1        2 0.25192400E+00 0.35651270E+03</pdfrwt>
<pdfrwt beam="2">  1       -2 0.29853397E-02 0.35651270E+03</pdfrwt>
<totfact> 0.49253236E+03</totfact>
</mgrwt>
</event>
<event>
 4    1  0.1672993E-004  0.2777217E+03  0.7818608E-02  0.1096940E+00
         -2   -1    0    0    0  501 -0.00000000000E+00  0.00000000000E+00  0.98844213396E+01  0.98844213396E+01  0.00000000000E+00 0. -1.
          2   -1    0    0  501    0  0.00000000000E+00 -0.00000000000E+00 -0.19507804792E+04  0.19507804792E+04  0.00000000000E+00 0. -1.
         25    1    1    2    0    0  0.62651129282E+02 -0.41662767968E+00 -0.75204975150E+03  0.76413622236E+03  0.12000000000E+03 0.  0.
         25    1    1    2    0    0 -0.62651129282E+02  0.41662767968E+00 -0.11888463063E+04  0.11965286782E+04  0.12000000000E+03 0.  0.
<mgrwt>
<rscale>  0 0.27772170E+03</rscale>
<asrwt>0</asrwt>
<pdfrwt beam="1">  1        2 0.30012002E+00 0.27772170E+03</pdfrwt>
<pdfrwt beam="2">  1       -2 0.15206805E-02 0.27772170E+03</pdfrwt>
<totfact> 0.91201808E+03</totfact>
</mgrwt>
</event>
<event>
 4    1  0.1672993E-004  0.2485211E+03  0.7818608E-02  0.1114243E+00
          1   -1    0    0  501    0  0.00000000000E+00  0.00000000000E+00  0.11373424225E+04  0.11373424225E+04  0.00000000000E+00 0.  1.
         -1   -1    0    0    0  501 -0.00000000000E+00 -0.00000000000E+00 -0.13576104868E+02  0.13576104868E+02  0.00000000000E+00 0.  1.
         25    1    1    2    0    0  0.32174153159E+02 -0.21951804296E+01  0.55805012803E+03  0.57171666089E+03  0.12000000000E+03 0.  0.
         25    1    1    2    0    0 -0.32174153159E+02  0.21951804296E+01  0.56571618959E+03  0.57920186646E+03  0.12000000000E+03 0.  0.
<mgrwt>
<rscale>  0 0.24852107E+03</rscale>
<asrwt>0</asrwt>
<pdfrwt beam="1">  1        1 0.17497568E+00 0.24852107E+03</pdfrwt>
<pdfrwt beam="2">  1       -1 0.20886324E-02 0.24852107E+03</pdfrwt>
<totfact> 0.81283733E+03</totfact>
</mgrwt>
</event>
<event>
 4    1  0.1672993E-004  0.2473351E+03  0.7818608E-02  0.1115001E+00
         -1   -1    0    0    0  501 -0.00000000000E+00  0.00000000000E+00  0.20201681342E+02  0.20201681342E+02  0.00000000000E+00 0. -1.
          1   -1    0    0  501    0  0.00000000000E+00 -0.00000000000E+00 -0.75704925202E+03  0.75704925202E+03  0.00000000000E+00 0. -1.
         25    1    1    2    0    0  0.23470811470E+02  0.17953825647E+02 -0.38263432070E+03  0.40209730442E+03  0.12000000000E+03 0.  0.
         25    1    1    2    0    0 -0.23470811470E+02 -0.17953825647E+02 -0.35421324997E+03  0.37515362894E+03  0.12000000000E+03 0.  0.
<mgrwt>
<rscale>  0 0.24733514E+03</rscale>
<asrwt>0</asrwt>
<pdfrwt beam="1">  1        1 0.11646909E+00 0.24733514E+03</pdfrwt>
<pdfrwt beam="2">  1       -1 0.31079515E-02 0.24733514E+03</pdfrwt>
<totfact> 0.89130749E+03</totfact>
</mgrwt>
</event>
<event>
 4    1  0.1672993E-004  0.2781745E+03  0.7818608E-02  0.1096690E+00
         -1   -1    0    0    0  501 -0.00000000000E+00  0.00000000000E+00  0.10457079657E+03  0.10457079657E+03  0.00000000000E+00 0.  1.
          1   -1    0    0  501    0  0.00000000000E+00 -0.00000000000E+00 -0.18499683912E+03  0.18499683912E+03  0.00000000000E+00 0.  1.
         25    1    1    2    0    0 -0.45553908997E+02  0.51327561412E+02 -0.56190592432E+02  0.14922151274E+03  0.12000000000E+03 0.  0.
         25    1    1    2    0    0  0.45553908997E+02 -0.51327561412E+02 -0.24235450121E+02  0.14034612295E+03  0.12000000000E+03 0.  0.
<mgrwt>
<rscale>  0 0.27817453E+03</rscale>
<asrwt>0</asrwt>
<pdfrwt beam="1">  1        1 0.28461052E-01 0.27817453E+03</pdfrwt>
<pdfrwt beam="2">  1       -1 0.16087815E-01 0.27817453E+03</pdfrwt>
<totfact> 0.46251025E+03</totfact>
</mgrwt>
</event>
<event>
 4    1  0.1672993E-004  0.3477484E+03  0.7818608E-02  0.1063543E+00
         -1   -1    0    0    0  501 -0.00000000000E+00  0.00000000000E+00  0.21985593959E+02  0.21985593959E+02  0.00000000000E+00 0. -1.
          1   -1    0    0  501    0  0.00000000000E+00 -0.00000000000E+00 -0.13750932430E+04  0.13750932430E+04  0.00000000000E+00 0. -1.
         25    1    1    2    0    0  0.12047883195E+03  0.94317824733E+00 -0.82230672567E+03  0.83970494200E+03  0.12000000000E+03 0.  0.
         25    1    1    2    0    0 -0.12047883195E+03 -0.94317824733E+00 -0.53080092337E+03  0.55737389496E+03  0.12000000000E+03 0.  0.
<mgrwt>
<rscale>  0 0.34774842E+03</rscale>
<asrwt>0</asrwt>
<pdfrwt beam="1">  1        1 0.21155274E+00 0.34774842E+03</pdfrwt>
<pdfrwt beam="2">  1       -1 0.33824002E-02 0.34774842E+03</pdfrwt>
<totfact> 0.27419818E+03</totfact>
</mgrwt>
</event>
<event>
 4    1  0.1672993E-004  0.3185911E+03  0.7818608E-02  0.1076300E+00
         -2   -1    0    0    0  501 -0.00000000000E+00  0.00000000000E+00  0.23181784717E+03  0.23181784717E+03  0.00000000000E+00 0. -1.
          2   -1    0    0  501    0  0.00000000000E+00 -0.00000000000E+00 -0.10946124567E+03  0.10946124567E+03  0.00000000000E+00 0. -1.
         25    1    1    2    0    0 -0.67295210888E+02  0.57303041215E+02  0.93469043345E+00  0.14904079169E+03  0.12000000000E+03 0.  0.
         25    1    1    2    0    0  0.67295210888E+02 -0.57303041215E+02  0.12142191106E+03  0.19223830115E+03  0.12000000000E+03 0.  0.
<mgrwt>
<rscale>  0 0.31859109E+03</rscale>
<asrwt>0</asrwt>
<pdfrwt beam="1">  1        2 0.16840192E-01 0.31859109E+03</pdfrwt>
<pdfrwt beam="2">  1       -2 0.35664284E-01 0.31859109E+03</pdfrwt>
<totfact> 0.25222147E+03</totfact>
</mgrwt>
</event>
<event>
 4    1  0.1672993E-004  0.2493287E+03  0.7818608E-02  0.1113730E+00
          2   -1    0    0  501    0  0.00000000000E+00  0.00000000000E+00  0.27363054479E+02  0.27363054479E+02  0.00000000000E+00 0.  1.
         -2   -1    0    0    0  501 -0.00000000000E+00 -0.00000000000E+00 -0.56796304854E+03  0.56796304854E+03  0.00000000000E+00 0.  1.
         25    1    1    2    0    0 -0.25721816706E+02 -0.46993351370E+01 -0.32137190215E+03  0.34404010682E+03  0.12000000000E+03 0.  0.
         25    1    1    2    0    0  0.25721816706E+02  0.46993351370E+01 -0.21922809191E+03  0.25128599620E+03  0.12000000000E+03 0.  0.
<mgrwt>
<rscale>  0 0.24932873E+03</rscale>
<asrwt>0</asrwt>
<pdfrwt beam="1">  1        2 0.42097007E-02 0.24932873E+03</pdfrwt>
<pdfrwt beam="2">  1       -2 0.87378931E-01 0.24932873E+03</pdfrwt>
<totfact> 0.22987431E+03</totfact>
</mgrwt>
</event>
<event>
 4    1  0.1672993E-004  0.3405896E+03  0.7818608E-02  0.1066545E+00
          1   -1    0    0  501    0  0.00000000000E+00  0.00000000000E+00  0.25153471071E+04  0.25153471071E+04  0.00000000000E+00 0.  1.
         -1   -1    0    0    0  501 -0.00000000000E+00 -0.00000000000E+00 -0.11529348649E+02  0.11529348649E+02  0.00000000000E+00 0.  1.
         25    1    1    2    0    0  0.11170450011E+03  0.29601974947E+02  0.15138093900E+04  0.15229487981E+04  0.12000000000E+03 0.  0.
         25    1    1    2    0    0 -0.11170450011E+03 -0.29601974947E+02  0.99000836844E+03  0.10039276577E+04  0.12000000000E+03 0.  0.
<mgrwt>
<rscale>  0 0.34058957E+03</rscale>
<asrwt>0</asrwt>
<pdfrwt beam="1">  1        1 0.38697604E+00 0.34058957E+03</pdfrwt>
<pdfrwt beam="2">  1       -1 0.17737480E-02 0.34058957E+03</pdfrwt>
<totfact> 0.12578208E+03</totfact>
</mgrwt>
</event>
<event>
 4    1  0.1672993E-004  0.2985125E+03  0.7818608E-02  0.1085987E+00
          1   -1    0    0  501    0  0.00000000000E+00  0.00000000000E+00  0.28133436095E+02  0.28133436095E+02  0.00000000000E+00 0.  1.
         -1   -1    0    0    0  501 -0.00000000000E+00 -0.00000000000E+00 -0.79184875915E+03  0.79184875915E+03  0.00000000000E+00 0.  1.
         25    1    1    2    0    0  0.51698959597E+02 -0.58412735639E+02 -0.26555673576E+03  0.30167069797E+03  0.12000000000E+03 0.  0.
         25    1    1    2    0    0 -0.51698959597E+02  0.58412735639E+02 -0.49815858729E+03  0.51831149727E+03  0.12000000000E+03 0.  0.
<mgrwt>
<rscale>  0 0.29851249E+03</rscale>
<asrwt>0</asrwt>
<pdfrwt beam="1">  1        1 0.43282212E-02 0.29851249E+03</pdfrwt>
<pdfrwt beam="2">  1       -1 0.12182288E+00 0.29851249E+03</pdfrwt>
<totfact> 0.13004193E+03</totfact>
</mgrwt>
</event>
<event>
 4    1  0.1672993E-004  0.2497770E+03  0.7818608E-02  0.1113446E+00
         -2   -1    0    0    0  501 -0.00000000000E+00  0.00000000000E+00  0.15961279944E+02  0.15961279944E+02  0.00000000000E+00 0. -1.
          2   -1    0    0  501    0  0.00000000000E+00 -0.00000000000E+00 -0.97718552027E+03  0.97718552027E+03  0.00000000000E+00 0. -1.
         25    1    1    2    0    0 -0.57334927127E+01  0.14799159093E+02 -0.60285764105E+03  0.61488960263E+03  0.12000000000E+03 0.  0.
         25    1    1    2    0    0  0.57334927127E+01 -0.14799159093E+02 -0.35836659928E+03  0.37825719759E+03  0.12000000000E+03 0.  0.
<mgrwt>
<rscale>  0 0.24977695E+03</rscale>
<asrwt>0</asrwt>
<pdfrwt beam="1">  1        2 0.15033621E+00 0.24977695E+03</pdfrwt>
<pdfrwt beam="2">  1       -2 0.24555819E-02 0.24977695E+03</pdfrwt>
<totfact> 0.15366575E+04</totfact>
</mgrwt>
</event>
<event>
 4    1  0.1672993E-004  0.2476460E+03  0.7818608E-02  0.1114802E+00
         -1   -1    0    0    0  501 -0.00000000000E+00  0.00000000000E+00  0.54409665244E+01  0.54409665244E+01  0.00000000000E+00 0. -1.
          1   -1    0    0  501    0  0.00000000000E+00 -0.00000000000E+00 -0.28179059188E+04  0.28179059188E+04  0.00000000000E+00 0. -1.
         25    1    1    2    0    0  0.95014947204E+01  0.20989392197E+02 -0.16346171181E+04  0.16391778293E+04  0.12000000000E+03 0.  0.
         25    1    1    2    0    0 -0.95014947204E+01 -0.20989392197E+02 -0.11778478341E+04  0.11841690560E+04  0.12000000000E+03 0.  0.
<mgrwt>
<rscale>  0 0.24764597E+03</rscale>
<asrwt>0</asrwt>
<pdfrwt beam="1">  1        1 0.43352467E+00 0.24764597E+03</pdfrwt>
<pdfrwt beam="2">  1       -1 0.83707045E-03 0.24764597E+03</pdfrwt>
<totfact> 0.23580171E+03</totfact>
</mgrwt>
</event>
<event>
 4    1  0.1672993E-004  0.2492992E+03  0.7818608E-02  0.1113748E+00
         -1   -1    0    0    0  501 -0.00000000000E+00  0.00000000000E+00  0.84618842389E+02  0.84618842389E+02  0.00000000000E+00 0.  1.
          1   -1    0    0  501    0  0.00000000000E+00 -0.00000000000E+00 -0.18361782782E+03  0.18361782782E+03  0.00000000000E+00 0.  1.
         25    1    1    2    0    0 -0.24750686746E+02 -0.31752091348E+01 -0.73913404697E+02  0.14312885747E+03  0.12000000000E+03 0.  0.
         25    1    1    2    0    0  0.24750686746E+02  0.31752091348E+01 -0.25085580737E+02  0.12510781274E+03  0.12000000000E+03 0.  0.
<mgrwt>
<rscale>  0 0.24929924E+03</rscale>
<asrwt>0</asrwt>
<pdfrwt beam="1">  1        1 0.28248896E-01 0.24929924E+03</pdfrwt>
<pdfrwt beam="2">  1       -1 0.13018284E-01 0.24929924E+03</pdfrwt>
<totfact> 0.65002404E+03</totfact>
</mgrwt>
</event>
<event>
 4    1  0.1672993E-004  0.3562260E+03  0.7818608E-02  0.1060088E+00
         -1   -1    0    0    0  501 -0.00000000000E+00  0.00000000000E+00  0.22077327223E+03  0.22077327223E+03  0.00000000000E+00 0.  1.
          1   -1    0    0  501    0  0.00000000000E+00 -0.00000000000E+00 -0.14369603519E+03  0.14369603519E+03  0.00000000000E+00 0.  1.
         25    1    1    2    0    0 -0.74906667730E+02  0.10821101471E+03  0.40482941247E+02  0.18264583517E+03  0.12000000000E+03 0.  0.
         25    1    1    2    0    0  0.74906667730E+02 -0.10821101471E+03  0.36594295792E+02  0.18182347224E+03  0.12000000000E+03 0.  0.
<mgrwt>
<rscale>  0 0.35622602E+03</rscale>
<asrwt>0</asrwt>
<pdfrwt beam="1">  1        1 0.22107082E-01 0.35622602E+03</pdfrwt>
<pdfrwt beam="2">  1       -1 0.33965119E-01 0.35622602E+03</pdfrwt>
<totfact> 0.18552395E+03</totfact>
</mgrwt>
</event>
<event>
 4    1  0.1672993E-004  0.2792195E+03  0.7818608E-02  0.1096116E+00
         -1   -1    0    0    0  501 -0.00000000000E+00  0.00000000000E+00  0.98917317608E+03  0.98917317608E+03  0.00000000000E+00 0. -1.
          1   -1    0    0  501    0  0.00000000000E+00 -0.00000000000E+00 -0.19704213771E+02  0.19704213771E+02  0.00000000000E+00 0. -1.
         25    1    1    2    0    0  0.36163185635E+02 -0.61327318243E+02  0.46776250403E+03  0.48812967144E+03  0.12000000000E+03 0.  0.
         25    1    1    2    0    0 -0.36163185635E+02  0.61327318243E+02  0.50170645828E+03  0.52074771842E+03  0.12000000000E+03 0.  0.
<mgrwt>
<rscale>  0 0.27921948E+03</rscale>
<asrwt>0</asrwt>
<pdfrwt beam="1">  1        1 0.30314183E-02 0.27921948E+03</pdfrwt>
<pdfrwt beam="2">  1       -1 0.15218045E+00 0.27921948E+03</pdfrwt>
<totfact> 0.12224547E+03</totfact>
</mgrwt>
</event>
<event>
 4    1  0.1672993E-004  0.2642999E+03  0.7818608E-02  0.1104587E+00
          2   -1    0    0  501    0  0.00000000000E+00  0.00000000000E+00  0.60824545222E+02  0.60824545222E+02  0.00000000000E+00 0.  1.
         -2   -1    0    0    0  501 -0.00000000000E+00 -0.00000000000E+00 -0.28711447376E+03  0.28711447376E+03  0.00000000000E+00 0.  1.
         25    1    1    2    0    0  0.35904716165E+02  0.37309887012E+02 -0.13888935952E+03  0.19071295315E+03  0.12000000000E+03 0.  0.
         25    1    1    2    0    0 -0.35904716165E+02 -0.37309887012E+02 -0.87400569019E+02  0.15722606583E+03  0.12000000000E+03 0.  0.
<mgrwt>
<rscale>  0 0.26429988E+03</rscale>
<asrwt>0</asrwt>
<pdfrwt beam="1">  1        2 0.93576224E-02 0.26429988E+03</pdfrwt>
<pdfrwt beam="2">  1       -2 0.44171457E-01 0.26429988E+03</pdfrwt>
<totfact> 0.34010708E+03</totfact>
</mgrwt>
</event>
<event>
 4    1  0.1672993E-004  0.2494204E+03  0.7818608E-02  0.1113672E+00
          2   -1    0    0  501    0  0.00000000000E+00  0.00000000000E+00  0.18315959871E+04  0.18315959871E+04  0.00000000000E+00 0. -1.
         -2   -1    0    0    0  501 -0.00000000000E+00 -0.00000000000E+00 -0.84913008635E+01  0.84913008635E+01  0.00000000000E+00 0. -1.
         25    1    1    2    0    0 -0.26985028092E+02  0.18604251724E+02  0.84626181261E+03  0.85535569525E+03  0.12000000000E+03 0.  0.
         25    1    1    2    0    0  0.26985028092E+02 -0.18604251724E+02  0.97684287363E+03  0.98473159271E+03  0.12000000000E+03 0.  0.
<mgrwt>
<rscale>  0 0.24942039E+03</rscale>
<asrwt>0</asrwt>
<pdfrwt beam="1">  1        2 0.28178368E+00 0.24942039E+03</pdfrwt>
<pdfrwt beam="2">  1       -2 0.13063554E-02 0.24942039E+03</pdfrwt>
<totfact> 0.13122165E+04</totfact>
</mgrwt>
</event>
<event>
 4    1  0.1672993E-004  0.2473428E+03  0.7818608E-02  0.1114996E+00
         -1   -1    0    0    0  501 -0.00000000000E+00  0.00000000000E+00  0.29644992592E+02  0.29644992592E+02  0.00000000000E+00 0. -1.
          1   -1    0    0  501    0  0.00000000000E+00 -0.00000000000E+00 -0.51592595483E+03  0.51592595483E+03  0.00000000000E+00 0. -1.
         25    1    1    2    0    0 -0.20356141576E+02 -0.10773453626E+02 -0.20104740130E+03  0.23526686416E+03  0.12000000000E+03 0.  0.
         25    1    1    2    0    0  0.20356141576E+02  0.10773453626E+02 -0.28523356095E+03  0.31030408327E+03  0.12000000000E+03 0.  0.
<mgrwt>
<rscale>  0 0.24734285E+03</rscale>
<asrwt>0</asrwt>
<pdfrwt beam="1">  1        1 0.79373220E-01 0.24734285E+03</pdfrwt>
<pdfrwt beam="2">  1       -1 0.45607683E-02 0.24734285E+03</pdfrwt>
<totfact> 0.86587058E+03</totfact>
</mgrwt>
</event>
<event>
 4    1  0.1672993E-004  0.2865997E+03  0.7818608E-02  0.1092138E+00
          2   -1    0    0  501    0  0.00000000000E+00  0.00000000000E+00  0.90249282970E+03  0.90249282970E+03  0.00000000000E+00 0.  1.
         -2   -1    0    0    0  501 -0.00000000000E+00 -0.00000000000E+00 -0.22753470288E+02  0.22753470288E+02  0.00000000000E+00 0.  1.
         25    1    1    2    0    0  0.32752574494E+02 -0.67828456512E+02  0.37052284586E+03  0.39668704284E+03  0.12000000000E+03 0.  0.
         25    1    1    2    0    0 -0.32752574494E+02  0.67828456512E+02  0.50921651355E+03  0.52855925715E+03  0.12000000000E+03 0.  0.
<mgrwt>
<rscale>  0 0.28659968E+03</rscale>
<asrwt>0</asrwt>
<pdfrwt beam="1">  1        2 0.13884502E+00 0.28659968E+03</pdfrwt>
<pdfrwt beam="2">  1       -2 0.35005346E-02 0.28659968E+03</pdfrwt>
<totfact> 0.10160584E+04</totfact>
</mgrwt>
</event>
<event>
 4    1  0.1672993E-004  0.2803685E+03  0.7818608E-02  0.1095488E+00
          2   -1    0    0  501    0  0.00000000000E+00  0.00000000000E+00  0.18350906684E+04  0.18350906684E+04  0.00000000000E+00 0. -1.
         -2   -1    0    0    0  501 -0.00000000000E+00 -0.00000000000E+00 -0.10708804329E+02  0.10708804329E+02  0.00000000000E+00 0. -1.
         25    1    1    2    0    0  0.67772751469E+02  0.24628659321E+02  0.86475782403E+03  0.87601701520E+03  0.12000000000E+03 0.  0.
         25    1    1    2    0    0 -0.67772751469E+02 -0.24628659321E+02  0.95962404001E+03  0.96978245750E+03  0.12000000000E+03 0.  0.
<mgrwt>
<rscale>  0 0.28036852E+03</rscale>
<asrwt>0</asrwt>
<pdfrwt beam="1">  1        2 0.28232139E+00 0.28036852E+03</pdfrwt>
<pdfrwt beam="2">  1       -2 0.16475098E-02 0.28036852E+03</pdfrwt>
<totfact> 0.93294007E+03</totfact>
</mgrwt>
</event>
<event>
 4    1  0.1672993E-004  0.2827126E+03  0.7818608E-02  0.1094217E+00
         -3   -1    0    0    0  501 -0.00000000000E+00  0.00000000000E+00  0.88054756102E+02  0.88054756102E+02  0.00000000000E+00 0. -1.
          3   -1    0    0  501    0  0.00000000000E+00 -0.00000000000E+00 -0.22692253108E+03  0.22692253108E+03  0.00000000000E+00 0. -1.
         25    1    1    2    0    0 -0.49316634321E+02 -0.53478954367E+02 -0.50478063558E+02  0.14913136451E+03  0.12000000000E+03 0.  0.
         25    1    1    2    0    0  0.49316634321E+02  0.53478954367E+02 -0.88389711418E+02  0.16584592267E+03  0.12000000000E+03 0.  0.
<mgrwt>
<rscale>  0 0.28271263E+03</rscale>
<asrwt>0</asrwt>
<pdfrwt beam="1">  1        3 0.34911159E-01 0.28271263E+03</pdfrwt>
<pdfrwt beam="2">  1       -3 0.13546886E-01 0.28271263E+03</pdfrwt>
<totfact> 0.90979335E+02</totfact>
</mgrwt>
</event>
<event>
 4    1  0.1672993E-004  0.2500940E+03  0.7818608E-02  0.1113245E+00
         -1   -1    0    0    0  501 -0.00000000000E+00  0.00000000000E+00  0.15787061658E+02  0.15787061658E+02  0.00000000000E+00 0.  1.
          1   -1    0    0  501    0  0.00000000000E+00 -0.00000000000E+00 -0.99047912209E+03  0.99047912209E+03  0.00000000000E+00 0.  1.
         25    1    1    2    0    0 -0.18223150045E+02  0.13303585214E+02 -0.59588400021E+03  0.60826541105E+03  0.12000000000E+03 0.  0.
         25    1    1    2    0    0  0.18223150045E+02 -0.13303585214E+02 -0.37880806023E+03  0.39800077270E+03  0.12000000000E+03 0.  0.
<mgrwt>
<rscale>  0 0.25009402E+03</rscale>
<asrwt>0</asrwt>
<pdfrwt beam="1">  1        1 0.15238143E+00 0.25009402E+03</pdfrwt>
<pdfrwt beam="2">  1       -1 0.24287784E-02 0.25009402E+03</pdfrwt>
<totfact> 0.83406217E+03</totfact>
</mgrwt>
</event>
<event>
 4    1  0.1672993E-004  0.3359826E+03  0.7818608E-02  0.1068520E+00
         -2   -1    0    0    0  501 -0.00000000000E+00  0.00000000000E+00  0.16655352791E+02  0.16655352791E+02  0.00000000000E+00 0.  1.
          2   -1    0    0  501    0  0.00000000000E+00 -0.00000000000E+00 -0.16944146252E+04  0.16944146252E+04  0.00000000000E+00 0.  1.
         25    1    1    2    0    0  0.64183352431E+01 -0.73131641061E+02 -0.13065147088E+04  0.13140662526E+04  0.12000000000E+03 0.  0.
         25    1    1    2    0    0 -0.64183352431E+01  0.73131641061E+02 -0.37124456358E+03  0.39700372535E+03  0.12000000000E+03 0.  0.
<mgrwt>
<rscale>  0 0.33598258E+03</rscale>
<asrwt>0</asrwt>
<pdfrwt beam="1">  1        2 0.26067922E+00 0.33598258E+03</pdfrwt>
<pdfrwt beam="2">  1       -2 0.25623615E-02 0.33598258E+03</pdfrwt>
<totfact> 0.57711585E+03</totfact>
</mgrwt>
</event>
<event>
 4    1  0.1672993E-004  0.2640376E+03  0.7818608E-02  0.1104741E+00
          2   -1    0    0  501    0  0.00000000000E+00  0.00000000000E+00  0.62857944209E+03  0.62857944209E+03  0.00000000000E+00 0.  1.
         -2   -1    0    0    0  501 -0.00000000000E+00 -0.00000000000E+00 -0.27727534760E+02  0.27727534760E+02  0.00000000000E+00 0.  1.
         25    1    1    2    0    0  0.20667424819E+02 -0.50743438174E+02  0.28752939898E+03  0.31634663622E+03  0.12000000000E+03 0.  0.
         25    1    1    2    0    0 -0.20667424819E+02  0.50743438174E+02  0.31332250835E+03  0.33996034063E+03  0.12000000000E+03 0.  0.
<mgrwt>
<rscale>  0 0.26403756E+03</rscale>
<asrwt>0</asrwt>
<pdfrwt beam="1">  1        2 0.96704519E-01 0.26403756E+03</pdfrwt>
<pdfrwt beam="2">  1       -2 0.42657751E-02 0.26403756E+03</pdfrwt>
<totfact> 0.11826760E+04</totfact>
</mgrwt>
</event>
<event>
 4    1  0.1672993E-004  0.2570130E+03  0.7818608E-02  0.1108951E+00
          1   -1    0    0  501    0  0.00000000000E+00  0.00000000000E+00  0.17193041593E+03  0.17193041593E+03  0.00000000000E+00 0.  1.
         -1   -1    0    0    0  501 -0.00000000000E+00 -0.00000000000E+00 -0.96050011145E+02  0.96050011145E+02  0.00000000000E+00 0.  1.
         25    1    1    2    0    0 -0.32714103169E+02 -0.25412196458E+02  0.17140878380E+02  0.12810074936E+03  0.12000000000E+03 0.  0.
         25    1    1    2    0    0  0.32714103169E+02  0.25412196458E+02  0.58739526401E+02  0.13987967771E+03  0.12000000000E+03 0.  0.
<mgrwt>
<rscale>  0 0.25701298E+03</rscale>
<asrwt>0</asrwt>
<pdfrwt beam="1">  1        1 0.26450833E-01 0.25701298E+03</pdfrwt>
<pdfrwt beam="2">  1       -1 0.14776925E-01 0.25701298E+03</pdfrwt>
<totfact> 0.57926604E+03</totfact>
</mgrwt>
</event>
<event>
 4    1  0.1672993E-004  0.4257562E+03  0.7818608E-02  0.1035209E+00
          2   -1    0    0  501    0  0.00000000000E+00  0.00000000000E+00  0.26318380651E+03  0.26318380651E+03  0.00000000000E+00 0.  1.
         -2   -1    0    0    0  501 -0.00000000000E+00 -0.00000000000E+00 -0.17218796153E+03  0.17218796153E+03  0.00000000000E+00 0.  1.
         25    1    1    2    0    0 -0.15215535171E+03 -0.85807066301E+02  0.66025644364E+02  0.22197632620E+03  0.12000000000E+03 0.  0.
         25    1    1    2    0    0  0.15215535171E+03  0.85807066301E+02  0.24970200615E+02  0.21339544184E+03  0.12000000000E+03 0.  0.
<mgrwt>
<rscale>  0 0.42575619E+03</rscale>
<asrwt>0</asrwt>
<pdfrwt beam="1">  1        2 0.40489816E-01 0.42575619E+03</pdfrwt>
<pdfrwt beam="2">  1       -2 0.26490456E-01 0.42575619E+03</pdfrwt>
<totfact> 0.16276650E+03</totfact>
</mgrwt>
</event>
<event>
 4    1  0.1672993E-004  0.4008717E+03  0.7818608E-02  0.1043478E+00
         -2   -1    0    0    0  501 -0.00000000000E+00  0.00000000000E+00  0.15140991740E+02  0.15140991740E+02  0.00000000000E+00 0. -1.
          2   -1    0    0  501    0  0.00000000000E+00 -0.00000000000E+00 -0.26533620017E+04  0.26533620017E+04  0.00000000000E+00 0. -1.
         25    1    1    2    0    0  0.89880420846E+02 -0.13285002286E+03 -0.13647048857E+04  0.13793284756E+04  0.12000000000E+03 0.  0.
         25    1    1    2    0    0 -0.89880420846E+02  0.13285002286E+03 -0.12735161243E+04  0.12891745178E+04  0.12000000000E+03 0.  0.
<mgrwt>
<rscale>  0 0.40087171E+03</rscale>
<asrwt>0</asrwt>
<pdfrwt beam="1">  1        2 0.40820953E+00 0.40087171E+03</pdfrwt>
<pdfrwt beam="2">  1       -2 0.23293834E-02 0.40087171E+03</pdfrwt>
<totfact> 0.20101767E+03</totfact>
</mgrwt>
</event>
<event>
 4    1  0.1672993E-004  0.3304508E+03  0.7818608E-02  0.1070938E+00
         -1   -1    0    0    0  501 -0.00000000000E+00  0.00000000000E+00  0.19184512185E+03  0.19184512185E+03  0.00000000000E+00 0. -1.
          1   -1    0    0  501    0  0.00000000000E+00 -0.00000000000E+00 -0.14229933218E+03  0.14229933218E+03  0.00000000000E+00 0. -1.
         25    1    1    2    0    0  0.87150376468E+02 -0.54241638351E+02  0.73917472118E+02  0.17435921580E+03  0.12000000000E+03 0.  0.
         25    1    1    2    0    0 -0.87150376468E+02  0.54241638351E+02 -0.24371682450E+02  0.15978523823E+03  0.12000000000E+03 0.  0.
<mgrwt>
<rscale>  0 0.33045080E+03</rscale>
<asrwt>0</asrwt>
<pdfrwt beam="1">  1        1 0.21892205E-01 0.33045080E+03</pdfrwt>
<pdfrwt beam="2">  1       -1 0.29514634E-01 0.33045080E+03</pdfrwt>
<totfact> 0.23909576E+03</totfact>
</mgrwt>
</event>
<event>
 4    1  0.1672993E-004  0.2558502E+03  0.7818608E-02  0.1109662E+00
         -2   -1    0    0    0  501 -0.00000000000E+00  0.00000000000E+00  0.31622052683E+02  0.31622052683E+02  0.00000000000E+00 0.  1.
          2   -1    0    0  501    0  0.00000000000E+00 -0.00000000000E+00 -0.51751310601E+03  0.51751310601E+03  0.00000000000E+00 0.  1.
         25    1    1    2    0    0 -0.20843446428E+02 -0.37816554208E+02 -0.26443931619E+03  0.29358592095E+03  0.12000000000E+03 0.  0.
         25    1    1    2    0    0  0.20843446428E+02  0.37816554208E+02 -0.22145173713E+03  0.25554923774E+03  0.12000000000E+03 0.  0.
<mgrwt>
<rscale>  0 0.25585016E+03</rscale>
<asrwt>0</asrwt>
<pdfrwt beam="1">  1        2 0.79617403E-01 0.25585016E+03</pdfrwt>
<pdfrwt beam="2">  1       -2 0.48649311E-02 0.25585016E+03</pdfrwt>
<totfact> 0.12101492E+04</totfact>
</mgrwt>
</event>
<event>
 4    1  0.1672993E-004  0.4051110E+03  0.7818608E-02  0.1042024E+00
         -2   -1    0    0    0  501 -0.00000000000E+00  0.00000000000E+00  0.24970449560E+02  0.24970449560E+02  0.00000000000E+00 0.  1.
          2   -1    0    0  501    0  0.00000000000E+00 -0.00000000000E+00 -0.16430914340E+04  0.16430914340E+04  0.00000000000E+00 0.  1.
         25    1    1    2    0    0 -0.10391656419E+02 -0.11940359292E+02 -0.14031560742E+03  0.18530792856E+03  0.12000000000E+03 0.  0.
         25    1    1    2    0    0  0.10391656419E+02  0.11940359292E+02 -0.14778053770E+04  0.14827539549E+04  0.12000000000E+03 0.  0.
<mgrwt>
<rscale>  0 0.40511101E+03</rscale>
<asrwt>0</asrwt>
<pdfrwt beam="1">  1        2 0.25278331E+00 0.40511101E+03</pdfrwt>
<pdfrwt beam="2">  1       -2 0.38416075E-02 0.40511101E+03</pdfrwt>
<totfact> 0.33416489E+03</totfact>
</mgrwt>
</event>
<event>
 4    1  0.1672993E-004  0.2610164E+03  0.7818608E-02  0.1106534E+00
         -2   -1    0    0    0  501 -0.00000000000E+00  0.00000000000E+00  0.72474495341E+02  0.72474495341E+02  0.00000000000E+00 0. -1.
          2   -1    0    0  501    0  0.00000000000E+00 -0.00000000000E+00 -0.23501227973E+03  0.23501227973E+03  0.00000000000E+00 0. -1.
         25    1    1    2    0    0 -0.34382777009E+02  0.82738678259E+01 -0.12505895068E+03  0.17689085163E+03  0.12000000000E+03 0.  0.
         25    1    1    2    0    0  0.34382777009E+02 -0.82738678259E+01 -0.37478833703E+02  0.13059592344E+03  0.12000000000E+03 0.  0.
<mgrwt>
<rscale>  0 0.26101645E+03</rscale>
<asrwt>0</asrwt>
<pdfrwt beam="1">  1        2 0.36155735E-01 0.26101645E+03</pdfrwt>
<pdfrwt beam="2">  1       -2 0.11149922E-01 0.26101645E+03</pdfrwt>
<totfact> 0.78609470E+03</totfact>
</mgrwt>
</event>
<event>
 4    1  0.1672993E-004  0.3005991E+03  0.7818608E-02  0.1084942E+00
         -1   -1    0    0    0  501 -0.00000000000E+00  0.00000000000E+00  0.24919744876E+02  0.24919744876E+02  0.00000000000E+00 0. -1.
          1   -1    0    0  501    0  0.00000000000E+00 -0.00000000000E+00 -0.90650814813E+03  0.90650814813E+03  0.00000000000E+00 0. -1.
         25    1    1    2    0    0 -0.87670445758E+02 -0.14925100869E+02 -0.49274368874E+03  0.51488368443E+03  0.12000000000E+03 0.  0.
         25    1    1    2    0    0  0.87670445758E+02  0.14925100869E+02 -0.38884471451E+03  0.41654420858E+03  0.12000000000E+03 0.  0.
<mgrwt>
<rscale>  0 0.30059908E+03</rscale>
<asrwt>0</asrwt>
<pdfrwt beam="1">  1        1 0.13946279E+00 0.30059908E+03</pdfrwt>
<pdfrwt beam="2">  1       -1 0.38338068E-02 0.30059908E+03</pdfrwt>
<totfact> 0.49507557E+03</totfact>
</mgrwt>
</event>
<event>
 4    1  0.1672993E-004  0.3395678E+03  0.7818608E-02  0.1066980E+00
         -1   -1    0    0    0  501 -0.00000000000E+00  0.00000000000E+00  0.60223570761E+02  0.60223570761E+02  0.00000000000E+00 0.  1.
          1   -1    0    0  501    0  0.00000000000E+00 -0.00000000000E+00 -0.47865922329E+03  0.47865922329E+03  0.00000000000E+00 0.  1.
         25    1    1    2    0    0 -0.99493137114E+02  0.11077711259E+02 -0.31454470468E+03  0.35122638179E+03  0.12000000000E+03 0.  0.
         25    1    1    2    0    0  0.99493137114E+02 -0.11077711259E+02 -0.10389094785E+03  0.18765641226E+03  0.12000000000E+03 0.  0.
<mgrwt>
<rscale>  0 0.33956777E+03</rscale>
<asrwt>0</asrwt>
<pdfrwt beam="1">  1        1 0.73639880E-01 0.33956777E+03</pdfrwt>
<pdfrwt beam="2">  1       -1 0.92651647E-02 0.33956777E+03</pdfrwt>
<totfact> 0.32929366E+03</totfact>
</mgrwt>
</event>
<event>
 4    1  0.1672993E-004  0.3331645E+03  0.7818608E-02  0.1069745E+00
         -2   -1    0    0    0  501 -0.00000000000E+00  0.00000000000E+00  0.28361882913E+02  0.28361882913E+02  0.00000000000E+00 0. -1.
          2   -1    0    0  501    0  0.00000000000E+00 -0.00000000000E+00 -0.97841351489E+03  0.97841351489E+03  0.00000000000E+00 0. -1.
         25    1    1    2    0    0 -0.58793523864E+02  0.73151986592E+02 -0.27137514740E+03  0.31121112162E+03  0.12000000000E+03 0.  0.
         25    1    1    2    0    0  0.58793523864E+02 -0.73151986592E+02 -0.67867648458E+03  0.69556427619E+03  0.12000000000E+03 0.  0.
<mgrwt>
<rscale>  0 0.33316452E+03</rscale>
<asrwt>0</asrwt>
<pdfrwt beam="1">  1        2 0.15052516E+00 0.33316452E+03</pdfrwt>
<pdfrwt beam="2">  1       -2 0.43633666E-02 0.33316452E+03</pdfrwt>
<totfact> 0.65463526E+03</totfact>
</mgrwt>
</event>
<event>
 4    1  0.1672993E-004  0.2707520E+03  0.7818608E-02  0.1100850E+00
          2   -1    0    0  501    0  0.00000000000E+00  0.00000000000E+00  0.82914849676E+03  0.82914849676E+03  0.00000000000E+00 0.  1.
         -2   -1    0    0    0  501 -0.00000000000E+00 -0.00000000000E+00 -0.22102983568E+02  0.22102983568E+02  0.00000000000E+00 0.  1.
         25    1    1    2    0    0  0.27020571958E+01  0.51820213119E+01  0.20736718445E+03  0.23965663697E+03  0.12000000000E+03 0.  0.
         25    1    1    2    0    0 -0.27020571958E+01 -0.51820213119E+01  0.59967832875E+03  0.61159484336E+03  0.12000000000E+03 0.  0.
<mgrwt>
<rscale>  0 0.27075196E+03</rscale>
<asrwt>0</asrwt>
<pdfrwt beam="1">  1        2 0.12756128E+00 0.27075196E+03</pdfrwt>
<pdfrwt beam="2">  1       -2 0.34004596E-02 0.27075196E+03</pdfrwt>
<totfact> 0.11841521E+04</totfact>
</mgrwt>
</event>
<event>
 4    1  0.1672993E-004  0.2972729E+03  0.7818608E-02  0.1086612E+00
         -2   -1    0    0    0  501 -0.00000000000E+00  0.00000000000E+00  0.34980666742E+02  0.34980666742E+02  0.00000000000E+00 0. -1.
          2   -1    0    0  501    0  0.00000000000E+00 -0.00000000000E+00 -0.63157151417E+03  0.63157151417E+03  0.00000000000E+00 0. -1.
         25    1    1    2    0    0  0.86384609257E+02 -0.71789928564E+01 -0.26830037565E+03  0.30642932339E+03  0.12000000000E+03 0.  0.
         25    1    1    2    0    0 -0.86384609257E+02  0.71789928564E+01 -0.32829047178E+03  0.36012285753E+03  0.12000000000E+03 0.  0.
<mgrwt>
<rscale>  0 0.29727289E+03</rscale>
<asrwt>0</asrwt>
<pdfrwt beam="1">  1        2 0.97164840E-01 0.29727289E+03</pdfrwt>
<pdfrwt beam="2">  1       -2 0.53816415E-02 0.29727289E+03</pdfrwt>
<totfact> 0.83007591E+03</totfact>
</mgrwt>
</event>
<event>
 4    1  0.1672993E-004  0.2866153E+03  0.7818608E-02  0.1092130E+00
         -1   -1    0    0    0  501 -0.00000000000E+00  0.00000000000E+00  0.25726720334E+03  0.25726720334E+03  0.00000000000E+00 0. -1.
          1   -1    0    0  501    0  0.00000000000E+00 -0.00000000000E+00 -0.79827802325E+02  0.79827802325E+02  0.00000000000E+00 0. -1.
         25    1    1    2    0    0 -0.30583916122E+02 -0.72092278216E+02  0.86251815817E+02  0.16724846258E+03  0.12000000000E+03 0.  0.
         25    1    1    2    0    0  0.30583916122E+02  0.72092278216E+02  0.91187585196E+02  0.16984654308E+03  0.12000000000E+03 0.  0.
<mgrwt>
<rscale>  0 0.28661525E+03</rscale>
<asrwt>0</asrwt>
<pdfrwt beam="1">  1        1 0.12281200E-01 0.28661525E+03</pdfrwt>
<pdfrwt beam="2">  1       -1 0.39579569E-01 0.28661525E+03</pdfrwt>
<totfact> 0.30522151E+03</totfact>
</mgrwt>
</event>
<event>
 4    1  0.1672993E-004  0.3701219E+03  0.7818608E-02  0.1054646E+00
          1   -1    0    0  501    0  0.00000000000E+00  0.00000000000E+00  0.36865491880E+03  0.36865491880E+03  0.00000000000E+00 0.  1.
         -1   -1    0    0    0  501 -0.00000000000E+00 -0.00000000000E+00 -0.92898678387E+02  0.92898678387E+02  0.00000000000E+00 0.  1.
         25    1    1    2    0    0  0.82390143904E+02 -0.46141137123E+02  0.26825352615E+03  0.30866987971E+03  0.12000000000E+03 0.  0.
         25    1    1    2    0    0 -0.82390143904E+02  0.46141137123E+02  0.75027142592E+01  0.15288371747E+03  0.12000000000E+03 0.  0.
<mgrwt>
<rscale>  0 0.37012190E+03</rscale>
<asrwt>0</asrwt>
<pdfrwt beam="1">  1        1 0.56716141E-01 0.37012190E+03</pdfrwt>
<pdfrwt beam="2">  1       -1 0.14292105E-01 0.37012190E+03</pdfrwt>
<totfact> 0.23467815E+03</totfact>
</mgrwt>
</event>
<event>
 4    1  0.1672993E-004  0.2539754E+03  0.7818608E-02  0.1110818E+00
         -2   -1    0    0    0  501 -0.00000000000E+00  0.00000000000E+00  0.69412494382E+02  0.69412494382E+02  0.00000000000E+00 0. -1.
          2   -1    0    0  501    0  0.00000000000E+00 -0.00000000000E+00 -0.23231950177E+03  0.23231950177E+03  0.00000000000E+00 0. -1.
         25    1    1    2    0    0  0.31674529302E+02  0.26499887538E+02 -0.86813676152E+02  0.15375998899E+03  0.12000000000E+03 0.  0.
         25    1    1    2    0    0 -0.31674529302E+02 -0.26499887538E+02 -0.76093331234E+02  0.14797200716E+03  0.12000000000E+03 0.  0.
<mgrwt>
<rscale>  0 0.25397540E+03</rscale>
<asrwt>0</asrwt>
<pdfrwt beam="1">  1        2 0.35741462E-01 0.25397540E+03</pdfrwt>
<pdfrwt beam="2">  1       -2 0.10678845E-01 0.25397540E+03</pdfrwt>
<totfact> 0.85185652E+03</totfact>
</mgrwt>
</event>
<event>
 4    1  0.1672993E-004  0.2847876E+03  0.7818608E-02  0.1093102E+00
          2   -1    0    0  501    0  0.00000000000E+00  0.00000000000E+00  0.51050496386E+02  0.51050496386E+02  0.00000000000E+00 0. -1.
         -2   -1    0    0    0  501 -0.00000000000E+00 -0.00000000000E+00 -0.39717538008E+03  0.39717538008E+03  0.00000000000E+00 0. -1.
         25    1    1    2    0    0  0.31256358618E+02 -0.58825936488E+02 -0.11336740875E+03  0.17801578617E+03  0.12000000000E+03 0.  0.
         25    1    1    2    0    0 -0.31256358618E+02  0.58825936488E+02 -0.23275747494E+03  0.27021009030E+03  0.12000000000E+03 0.  0.
<mgrwt>
<rscale>  0 0.28478764E+03</rscale>
<asrwt>0</asrwt>
<pdfrwt beam="1">  1        2 0.78539225E-02 0.28478764E+03</pdfrwt>
<pdfrwt beam="2">  1       -2 0.61103905E-01 0.28478764E+03</pdfrwt>
<totfact> 0.22139359E+03</totfact>
</mgrwt>
</event>
<event>
 4    1  0.1672993E-004  0.2516492E+03  0.7818608E-02  0.1112267E+00
         -2   -1    0    0    0  501 -0.00000000000E+00  0.00000000000E+00  0.69236844670E+02  0.69236844670E+02  0.00000000000E+00 0.  1.
          2   -1    0    0  501    0  0.00000000000E+00 -0.00000000000E+00 -0.22866200925E+03  0.22866200925E+03  0.00000000000E+00 0.  1.
         25    1    1    2    0    0  0.26219815538E+02 -0.26370173028E+02 -0.87996654061E+02  0.15338277569E+03  0.12000000000E+03 0.  0.
         25    1    1    2    0    0 -0.26219815538E+02  0.26370173028E+02 -0.71428510522E+02  0.14451607823E+03  0.12000000000E+03 0.  0.
<mgrwt>
<rscale>  0 0.25164925E+03</rscale>
<asrwt>0</asrwt>
<pdfrwt beam="1">  1        2 0.35178771E-01 0.25164925E+03</pdfrwt>
<pdfrwt beam="2">  1       -2 0.10651822E-01 0.25164925E+03</pdfrwt>
<totfact> 0.86978018E+03</totfact>
</mgrwt>
</event>
<event>
 4    1  0.1672993E-004  0.2619705E+03  0.7818608E-02  0.1105965E+00
          3   -1    0    0  501    0  0.00000000000E+00  0.00000000000E+00  0.19539152698E+02  0.19539152698E+02  0.00000000000E+00 0. -1.
         -3   -1    0    0    0  501 -0.00000000000E+00 -0.00000000000E+00 -0.87808983707E+03  0.87808983707E+03  0.00000000000E+00 0. -1.
         25    1    1    2    0    0 -0.40698938847E+02 -0.20636211708E+02 -0.34026180450E+03  0.36367616427E+03  0.12000000000E+03 0.  0.
         25    1    1    2    0    0  0.40698938847E+02  0.20636211708E+02 -0.51828887987E+03  0.53395282549E+03  0.12000000000E+03 0.  0.
<mgrwt>
<rscale>  0 0.26197047E+03</rscale>
<asrwt>0</asrwt>
<pdfrwt beam="1">  1        3 0.30060231E-02 0.26197047E+03</pdfrwt>
<pdfrwt beam="2">  1       -3 0.13509076E+00 0.26197047E+03</pdfrwt>
<totfact> 0.56918454E+02</totfact>
</mgrwt>
</event>
<event>
 4    1  0.1672993E-004  0.2450661E+03  0.7818608E-02  0.1116463E+00
         -2   -1    0    0    0  501 -0.00000000000E+00  0.00000000000E+00  0.40346448971E+01  0.40346448971E+01  0.00000000000E+00 0. -1.
          2   -1    0    0  501    0  0.00000000000E+00 -0.00000000000E+00 -0.37213554563E+04  0.37213554563E+04  0.00000000000E+00 0. -1.
         25    1    1    2    0    0  0.22341634581E+02  0.91498397000E+01 -0.19439513899E+04  0.19478012924E+04  0.12000000000E+03 0.  0.
         25    1    1    2    0    0 -0.22341634581E+02 -0.91498397000E+01 -0.17733694215E+04  0.17775888088E+04  0.12000000000E+03 0.  0.
<mgrwt>
<rscale>  0 0.24506610E+03</rscale>
<asrwt>0</asrwt>
<pdfrwt beam="1">  1        2 0.57251350E+00 0.24506610E+03</pdfrwt>
<pdfrwt beam="2">  1       -2 0.62071756E-03 0.24506610E+03</pdfrwt>
<totfact> 0.30596308E+03</totfact>
</mgrwt>
</event>
<event>
 4    1  0.1672993E-004  0.3073328E+03  0.7818608E-02  0.1081631E+00
          1   -1    0    0  501    0  0.00000000000E+00  0.00000000000E+00  0.37013696660E+02  0.37013696660E+02  0.00000000000E+00 0. -1.
         -1   -1    0    0    0  501 -0.00000000000E+00 -0.00000000000E+00 -0.63796286764E+03  0.63796286764E+03  0.00000000000E+00 0. -1.
         25    1    1    2    0    0  0.59889038919E+02  0.73241050266E+02 -0.26489715151E+03  0.30581276838E+03  0.12000000000E+03 0.  0.
         25    1    1    2    0    0 -0.59889038919E+02 -0.73241050266E+02 -0.33605201946E+03  0.36916379591E+03  0.12000000000E+03 0.  0.
<mgrwt>
<rscale>  0 0.30733281E+03</rscale>
<asrwt>0</asrwt>
<pdfrwt beam="1">  1        1 0.56944148E-02 0.30733281E+03</pdfrwt>
<pdfrwt beam="2">  1       -1 0.98148135E-01 0.30733281E+03</pdfrwt>
<totfact> 0.14623547E+03</totfact>
</mgrwt>
</event>
<event>
 4    1  0.1672993E-004  0.2659779E+03  0.7818608E-02  0.1103604E+00
          1   -1    0    0  501    0  0.00000000000E+00  0.00000000000E+00  0.12305241936E+03  0.12305241936E+03  0.00000000000E+00 0.  1.
         -1   -1    0    0    0  501 -0.00000000000E+00 -0.00000000000E+00 -0.14372785853E+03  0.14372785853E+03  0.00000000000E+00 0.  1.
         25    1    1    2    0    0 -0.90603094636E+01  0.56550663137E+02 -0.78820663585E+01  0.13319982612E+03  0.12000000000E+03 0.  0.
         25    1    1    2    0    0  0.90603094636E+01 -0.56550663137E+02 -0.12793372813E+02  0.13358045178E+03  0.12000000000E+03 0.  0.
<mgrwt>
<rscale>  0 0.26597790E+03</rscale>
<asrwt>0</asrwt>
<pdfrwt beam="1">  1        1 0.18931142E-01 0.26597790E+03</pdfrwt>
<pdfrwt beam="2">  1       -1 0.22111978E-01 0.26597790E+03</pdfrwt>
<totfact> 0.46493069E+03</totfact>
</mgrwt>
</event>
<event>
 4    1  0.1672993E-004  0.2729165E+03  0.7818608E-02  0.1099622E+00
          1   -1    0    0  501    0  0.00000000000E+00  0.00000000000E+00  0.98608062380E+02  0.98608062380E+02  0.00000000000E+00 0. -1.
         -1   -1    0    0    0  501 -0.00000000000E+00 -0.00000000000E+00 -0.18883696539E+03  0.18883696539E+03  0.00000000000E+00 0. -1.
         25    1    1    2    0    0  0.91404983594E+01 -0.13210517710E+02  0.21187316535E+02  0.12291040993E+03  0.12000000000E+03 0.  0.
         25    1    1    2    0    0 -0.91404983594E+01  0.13210517710E+02 -0.11141621954E+03  0.16453461783E+03  0.12000000000E+03 0.  0.
<mgrwt>
<rscale>  0 0.27291645E+03</rscale>
<asrwt>0</asrwt>
<pdfrwt beam="1">  1        1 0.15170471E-01 0.27291645E+03</pdfrwt>
<pdfrwt beam="2">  1       -1 0.29051841E-01 0.27291645E+03</pdfrwt>
<totfact> 0.39394514E+03</totfact>
</mgrwt>
</event>
<event>
 4    1  0.1672993E-004  0.3045569E+03  0.7818608E-02  0.1082985E+00
          1   -1    0    0  501    0  0.00000000000E+00  0.00000000000E+00  0.30688561860E+03  0.30688561860E+03  0.00000000000E+00 0. -1.
         -1   -1    0    0    0  501 -0.00000000000E+00 -0.00000000000E+00 -0.75561453448E+02  0.75561453448E+02  0.00000000000E+00 0. -1.
         25    1    1    2    0    0 -0.81878601989E+02  0.14494107634E+02  0.17003093141E+03  0.22410868402E+03  0.12000000000E+03 0.  0.
         25    1    1    2    0    0  0.81878601989E+02 -0.14494107634E+02  0.61293233749E+02  0.15833838803E+03  0.12000000000E+03 0.  0.
<mgrwt>
<rscale>  0 0.30455688E+03</rscale>
<asrwt>0</asrwt>
<pdfrwt beam="1">  1        1 0.47213171E-01 0.30455688E+03</pdfrwt>
<pdfrwt beam="2">  1       -1 0.11624839E-01 0.30455688E+03</pdfrwt>
<totfact> 0.40928665E+03</totfact>
</mgrwt>
</event>
<event>
 4    1  0.1672993E-004  0.2656632E+03  0.7818608E-02  0.1103788E+00
         -4   -1    0    0    0  501 -0.00000000000E+00  0.00000000000E+00  0.45097003449E+02  0.45097003449E+02  0.00000000000E+00 0.  1.
          4   -1    0    0  501    0  0.00000000000E+00 -0.00000000000E+00 -0.39125081767E+03  0.39125081767E+03  0.00000000000E+00 0.  1.
         25    1    1    2    0    0  0.32739183364E+02  0.21045779029E+02 -0.24138256395E+03  0.27236064532E+03  0.12000000000E+03 0.  0.
         25    1    1    2    0    0 -0.32739183364E+02 -0.21045779029E+02 -0.10477125027E+03  0.16398717580E+03  0.12000000000E+03 0.  0.
<mgrwt>
<rscale>  0 0.26566324E+03</rscale>
<asrwt>0</asrwt>
<pdfrwt beam="1">  1        4 0.60192430E-01 0.26566324E+03</pdfrwt>
<pdfrwt beam="2">  1       -4 0.69380010E-02 0.26566324E+03</pdfrwt>
<totfact> 0.68747699E+02</totfact>
</mgrwt>
</event>
<event>
 4    1  0.1672993E-004  0.2720825E+03  0.7818608E-02  0.1100094E+00
         -1   -1    0    0    0  501 -0.00000000000E+00  0.00000000000E+00  0.31249804406E+02  0.31249804406E+02  0.00000000000E+00 0. -1.
          1   -1    0    0  501    0  0.00000000000E+00 -0.00000000000E+00 -0.59223462050E+03  0.59223462050E+03  0.00000000000E+00 0. -1.
         25    1    1    2    0    0 -0.54599545496E+02  0.18447316419E+01 -0.35727405787E+03  0.38082708128E+03  0.12000000000E+03 0.  0.
         25    1    1    2    0    0  0.54599545496E+02 -0.18447316419E+01 -0.20371075822E+03  0.24265734363E+03  0.12000000000E+03 0.  0.
<mgrwt>
<rscale>  0 0.27208246E+03</rscale>
<asrwt>0</asrwt>
<pdfrwt beam="1">  1        1 0.91113011E-01 0.27208246E+03</pdfrwt>
<pdfrwt beam="2">  1       -1 0.48076626E-02 0.27208246E+03</pdfrwt>
<totfact> 0.66588175E+03</totfact>
</mgrwt>
</event>
<event>
 4    1  0.1672993E-004  0.2973877E+03  0.7818608E-02  0.1086554E+00
          2   -1    0    0  501    0  0.00000000000E+00  0.00000000000E+00  0.12131554549E+04  0.12131554549E+04  0.00000000000E+00 0. -1.
         -2   -1    0    0    0  501 -0.00000000000E+00 -0.00000000000E+00 -0.18225080131E+02  0.18225080131E+02  0.00000000000E+00 0. -1.
         25    1    1    2    0    0 -0.26389535499E+02 -0.51048095538E+02  0.32256979802E+03  0.34893207109E+03  0.12000000000E+03 0.  0.
         25    1    1    2    0    0  0.26389535499E+02  0.51048095538E+02  0.87236057670E+03  0.88244846389E+03  0.12000000000E+03 0.  0.
<mgrwt>
<rscale>  0 0.29738766E+03</rscale>
<asrwt>0</asrwt>
<pdfrwt beam="1">  1        2 0.18663924E+00 0.29738766E+03</pdfrwt>
<pdfrwt beam="2">  1       -2 0.28038594E-02 0.29738766E+03</pdfrwt>
<totfact> 0.92123042E+03</totfact>
</mgrwt>
</event>
<event>
 4    1  0.1672993E-004  0.2838264E+03  0.7818608E-02  0.1093617E+00
          2   -1    0    0  501    0  0.00000000000E+00  0.00000000000E+00  0.71828637170E+03  0.71828637170E+03  0.00000000000E+00 0.  1.
         -2   -1    0    0    0  501 -0.00000000000E+00 -0.00000000000E+00 -0.28038066850E+02  0.28038066850E+02  0.00000000000E+00 0.  1.
         25    1    1    2    0    0  0.65284783363E+02 -0.87511943293E+01  0.44353512049E+03  0.46417894120E+03  0.12000000000E+03 0.  0.
         25    1    1    2    0    0 -0.65284783363E+02  0.87511943293E+01  0.24671318436E+03  0.28214549736E+03  0.12000000000E+03 0.  0.
<mgrwt>
<rscale>  0 0.28382644E+03</rscale>
<asrwt>0</asrwt>
<pdfrwt beam="1">  1        2 0.11050558E+00 0.28382644E+03</pdfrwt>
<pdfrwt beam="2">  1       -2 0.43135493E-02 0.28382644E+03</pdfrwt>
<totfact> 0.99377396E+03</totfact>
</mgrwt>
</event>
<event>
 4    1  0.1672993E-004  0.5653088E+03  0.7818608E-02  0.9980114E-01
          1   -1    0    0  501    0  0.00000000000E+00  0.00000000000E+00  0.10557625319E+03  0.10557625319E+03  0.00000000000E+00 0. -1.
         -1   -1    0    0    0  501 -0.00000000000E+00 -0.00000000000E+00 -0.75673760988E+03  0.75673760988E+03  0.00000000000E+00 0. -1.
         25    1    1    2    0    0  0.17796191831E+03  0.11473949734E+01 -0.60610963473E+03  0.64299350712E+03  0.12000000000E+03 0.  0.
         25    1    1    2    0    0 -0.17796191831E+03 -0.11473949734E+01 -0.45051721962E+02  0.21932035595E+03  0.12000000000E+03 0.  0.
<mgrwt>
<rscale>  0 0.56530884E+03</rscale>
<asrwt>0</asrwt>
<pdfrwt beam="1">  1        1 0.16242500E-01 0.56530884E+03</pdfrwt>
<pdfrwt beam="2">  1       -1 0.11642117E+00 0.56530884E+03</pdfrwt>
<totfact> 0.23546025E+02</totfact>
</mgrwt>
</event>
<event>
 4    1  0.1672993E-004  0.2831711E+03  0.7818608E-02  0.1093969E+00
          2   -1    0    0  501    0  0.00000000000E+00  0.00000000000E+00  0.14702010007E+04  0.14702010007E+04  0.00000000000E+00 0.  1.
         -2   -1    0    0    0  501 -0.00000000000E+00 -0.00000000000E+00 -0.13635186048E+02  0.13635186048E+02  0.00000000000E+00 0.  1.
         25    1    1    2    0    0  0.28684780482E+02  0.58281033407E+02  0.92622779644E+03  0.93622509387E+03  0.12000000000E+03 0.  0.
         25    1    1    2    0    0 -0.28684780482E+02 -0.58281033407E+02  0.53033801821E+03  0.54761109288E+03  0.12000000000E+03 0.  0.
<mgrwt>
<rscale>  0 0.28317107E+03</rscale>
<asrwt>0</asrwt>
<pdfrwt beam="1">  1        2 0.22618464E+00 0.28317107E+03</pdfrwt>
<pdfrwt beam="2">  1       -2 0.20977221E-02 0.28317107E+03</pdfrwt>
<totfact> 0.10207255E+04</totfact>
</mgrwt>
</event>
<event>
 4    1  0.1672993E-004  0.2452393E+03  0.7818608E-02  0.1116351E+00
         -4   -1    0    0    0  501 -0.00000000000E+00  0.00000000000E+00  0.12197595643E+02  0.12197595643E+02  0.00000000000E+00 0. -1.
          4   -1    0    0  501    0  0.00000000000E+00 -0.00000000000E+00 -0.12326677583E+04  0.12326677583E+04  0.00000000000E+00 0. -1.
         25    1    1    2    0    0 -0.14129202029E+02  0.16916886739E+02 -0.67235644749E+03  0.68333667243E+03  0.12000000000E+03 0.  0.
         25    1    1    2    0    0  0.14129202029E+02 -0.16916886739E+02 -0.54811371512E+03  0.56152868146E+03  0.12000000000E+03 0.  0.
<mgrwt>
<rscale>  0 0.24523934E+03</rscale>
<asrwt>0</asrwt>
<pdfrwt beam="1">  1        4 0.18964118E+00 0.24523934E+03</pdfrwt>
<pdfrwt beam="2">  1       -4 0.18765533E-02 0.24523934E+03</pdfrwt>
<totfact> 0.34780410E+02</totfact>
</mgrwt>
</event>
<event>
 4    1  0.1672993E-004  0.2481956E+03  0.7818608E-02  0.1114451E+00
         -4   -1    0    0    0  501 -0.00000000000E+00  0.00000000000E+00  0.49038363473E+02  0.49038363473E+02  0.00000000000E+00 0. -1.
          4   -1    0    0  501    0  0.00000000000E+00 -0.00000000000E+00 -0.31404510594E+03  0.31404510594E+03  0.00000000000E+00 0. -1.
         25    1    1    2    0    0  0.20005596357E+02 -0.24210185144E+02 -0.13795764702E+03  0.18552269220E+03  0.12000000000E+03 0.  0.
         25    1    1    2    0    0 -0.20005596357E+02  0.24210185144E+02 -0.12704909544E+03  0.17756077721E+03  0.12000000000E+03 0.  0.
<mgrwt>
<rscale>  0 0.24819555E+03</rscale>
<asrwt>0</asrwt>
<pdfrwt beam="1">  1        4 0.48314631E-01 0.24819555E+03</pdfrwt>
<pdfrwt beam="2">  1       -4 0.75443637E-02 0.24819555E+03</pdfrwt>
<totfact> 0.93620020E+02</totfact>
</mgrwt>
</event>
<event>
 4    1  0.1672993E-004  0.4038039E+03  0.7818608E-02  0.1042470E+00
         -2   -1    0    0    0  501 -0.00000000000E+00  0.00000000000E+00  0.25002092329E+02  0.25002092329E+02  0.00000000000E+00 0. -1.
          2   -1    0    0  501    0  0.00000000000E+00 -0.00000000000E+00 -0.16304390594E+04  0.16304390594E+04  0.00000000000E+00 0. -1.
         25    1    1    2    0    0  0.75686594902E+02 -0.26167467451E+02 -0.22365297082E+03  0.26614629127E+03  0.12000000000E+03 0.  0.
         25    1    1    2    0    0 -0.75686594902E+02  0.26167467451E+02 -0.13817839963E+04  0.13892948605E+04  0.12000000000E+03 0.  0.
<mgrwt>
<rscale>  0 0.40380385E+03</rscale>
<asrwt>0</asrwt>
<pdfrwt beam="1">  1        2 0.25083677E+00 0.40380385E+03</pdfrwt>
<pdfrwt beam="2">  1       -2 0.38464758E-02 0.40380385E+03</pdfrwt>
<totfact> 0.33879002E+03</totfact>
</mgrwt>
</event>
<event>
 4    1  0.1672993E-004  0.2766928E+03  0.7818608E-02  0.1097509E+00
         -2   -1    0    0    0  501 -0.00000000000E+00  0.00000000000E+00  0.14241024186E+02  0.14241024186E+02  0.00000000000E+00 0. -1.
          2   -1    0    0  501    0  0.00000000000E+00 -0.00000000000E+00 -0.13439853148E+04  0.13439853148E+04  0.00000000000E+00 0. -1.
         25    1    1    2    0    0  0.21512617911E+02 -0.58980697513E+01 -0.98459019640E+03  0.99212672316E+03  0.12000000000E+03 0.  0.
         25    1    1    2    0    0 -0.21512617911E+02  0.58980697513E+01 -0.34515409421E+03  0.36609961582E+03  0.12000000000E+03 0.  0.
<mgrwt>
<rscale>  0 0.27669281E+03</rscale>
<asrwt>0</asrwt>
<pdfrwt beam="1">  1        2 0.20676700E+00 0.27669281E+03</pdfrwt>
<pdfrwt beam="2">  1       -2 0.21909265E-02 0.27669281E+03</pdfrwt>
<totfact> 0.11204412E+04</totfact>
</mgrwt>
</event>
<event>
 4    1  0.1672993E-004  0.2419730E+03  0.7818608E-02  0.1118485E+00
          2   -1    0    0  501    0  0.00000000000E+00  0.00000000000E+00  0.95087634015E+03  0.95087634015E+03  0.00000000000E+00 0.  1.
         -2   -1    0    0    0  501 -0.00000000000E+00 -0.00000000000E+00 -0.15393940024E+02  0.15393940024E+02  0.00000000000E+00 0.  1.
         25    1    1    2    0    0 -0.82093133033E+01 -0.70543913671E+01  0.42389193637E+03  0.44068302779E+03  0.12000000000E+03 0.  0.
         25    1    1    2    0    0  0.82093133033E+01  0.70543913671E+01  0.51159046375E+03  0.52558725238E+03  0.12000000000E+03 0.  0.
<mgrwt>
<rscale>  0 0.24197300E+03</rscale>
<asrwt>0</asrwt>
<pdfrwt beam="1">  1        2 0.14628862E+00 0.24197300E+03</pdfrwt>
<pdfrwt beam="2">  1       -2 0.23682992E-02 0.24197300E+03</pdfrwt>
<totfact> 0.16807922E+04</totfact>
</mgrwt>
</event>
<event>
 4    1  0.1672993E-004  0.2846200E+03  0.7818608E-02  0.1093192E+00
         -2   -1    0    0    0  501 -0.00000000000E+00  0.00000000000E+00  0.12017227621E+03  0.12017227621E+03  0.00000000000E+00 0. -1.
          2   -1    0    0  501    0  0.00000000000E+00 -0.00000000000E+00 -0.16852588852E+03  0.16852588852E+03  0.00000000000E+00 0. -1.
         25    1    1    2    0    0  0.11922786994E+02  0.54509061753E+02 -0.77259711393E+02  0.15323985665E+03  0.12000000000E+03 0.  0.
         25    1    1    2    0    0 -0.11922786994E+02 -0.54509061753E+02  0.28906099088E+02  0.13545830808E+03  0.12000000000E+03 0.  0.
<mgrwt>
<rscale>  0 0.28462002E+03</rscale>
<asrwt>0</asrwt>
<pdfrwt beam="1">  1        2 0.25927060E-01 0.28462002E+03</pdfrwt>
<pdfrwt beam="2">  1       -2 0.18488043E-01 0.28462002E+03</pdfrwt>
<totfact> 0.49415794E+03</totfact>
</mgrwt>
</event>
<event>
 4    1  0.1672993E-004  0.2913045E+03  0.7818608E-02  0.1089670E+00
         -2   -1    0    0    0  501 -0.00000000000E+00  0.00000000000E+00  0.65738155330E+02  0.65738155330E+02  0.00000000000E+00 0.  1.
          2   -1    0    0  501    0  0.00000000000E+00 -0.00000000000E+00 -0.32271327376E+03  0.32271327376E+03  0.00000000000E+00 0.  1.
         25    1    1    2    0    0 -0.30191398905E+02  0.64060168562E+01 -0.26390526700E+02  0.12668471699E+03  0.12000000000E+03 0.  0.
         25    1    1    2    0    0  0.30191398905E+02 -0.64060168562E+01 -0.23058459173E+03  0.26176671210E+03  0.12000000000E+03 0.  0.
<mgrwt>
<rscale>  0 0.29130448E+03</rscale>
<asrwt>0</asrwt>
<pdfrwt beam="1">  1        2 0.49648195E-01 0.29130448E+03</pdfrwt>
<pdfrwt beam="2">  1       -2 0.10113563E-01 0.29130448E+03</pdfrwt>
<totfact> 0.65536295E+03</totfact>
</mgrwt>
</event>
<event>
 4    1  0.1672993E-004  0.2605935E+03  0.7818608E-02  0.1106787E+00
         -1   -1    0    0    0  501 -0.00000000000E+00  0.00000000000E+00  0.10899649413E+03  0.10899649413E+03  0.00000000000E+00 0.  1.
          1   -1    0    0  501    0  0.00000000000E+00 -0.00000000000E+00 -0.15575956653E+03  0.15575956653E+03  0.00000000000E+00 0.  1.
         25    1    1    2    0    0  0.14119616126E+02  0.47089630842E+02 -0.36250745293E+02  0.13465108030E+03  0.12000000000E+03 0.  0.
         25    1    1    2    0    0 -0.14119616126E+02 -0.47089630842E+02 -0.10512327102E+02  0.13010498036E+03  0.12000000000E+03 0.  0.
<mgrwt>
<rscale>  0 0.26059353E+03</rscale>
<asrwt>0</asrwt>
<pdfrwt beam="1">  1        1 0.23963010E-01 0.26059353E+03</pdfrwt>
<pdfrwt beam="2">  1       -1 0.16768691E-01 0.26059353E+03</pdfrwt>
<totfact> 0.53734878E+03</totfact>
</mgrwt>
</event>
<event>
 4    1  0.1672993E-004  0.3988464E+03  0.7818608E-02  0.1044180E+00
         -2   -1    0    0    0  501 -0.00000000000E+00  0.00000000000E+00  0.40922263028E+02  0.40922263028E+02  0.00000000000E+00 0. -1.
          2   -1    0    0  501    0  0.00000000000E+00 -0.00000000000E+00 -0.97183326270E+03  0.97183326270E+03  0.00000000000E+00 0. -1.
         25    1    1    2    0    0  0.11113847406E+03 -0.74542766348E+02 -0.68478860940E+03  0.70798575127E+03  0.12000000000E+03 0.  0.
         25    1    1    2    0    0 -0.11113847406E+03  0.74542766348E+02 -0.24612239027E+03  0.30476977446E+03  0.12000000000E+03 0.  0.
<mgrwt>
<rscale>  0 0.39884642E+03</rscale>
<asrwt>0</asrwt>
<pdfrwt beam="1">  1        2 0.14951279E+00 0.39884642E+03</pdfrwt>
<pdfrwt beam="2">  1       -2 0.62957337E-02 0.39884642E+03</pdfrwt>
<totfact> 0.37722919E+03</totfact>
</mgrwt>
</event>
<event>
 4    1  0.1672993E-004  0.3840533E+03  0.7818608E-02  0.1049446E+00
          2   -1    0    0  501    0  0.00000000000E+00  0.00000000000E+00  0.29207995031E+03  0.29207995031E+03  0.00000000000E+00 0.  1.
         -2   -1    0    0    0  501 -0.00000000000E+00 -0.00000000000E+00 -0.12624708553E+03  0.12624708553E+03  0.00000000000E+00 0.  1.
         25    1    1    2    0    0  0.13130924853E+03  0.28838445189E+02  0.15517241438E+03  0.23780717579E+03  0.12000000000E+03 0.  0.
         25    1    1    2    0    0 -0.13130924853E+03 -0.28838445189E+02  0.10660450399E+02  0.18051986005E+03  0.12000000000E+03 0.  0.
<mgrwt>
<rscale>  0 0.38405334E+03</rscale>
<asrwt>0</asrwt>
<pdfrwt beam="1">  1        2 0.44935377E-01 0.38405334E+03</pdfrwt>
<pdfrwt beam="2">  1       -2 0.19422629E-01 0.38405334E+03</pdfrwt>
<totfact> 0.25030480E+03</totfact>
</mgrwt>
</event>
<event>
 4    1  0.1672993E-004  0.2800591E+03  0.7818608E-02  0.1095657E+00
         -2   -1    0    0    0  501 -0.00000000000E+00  0.00000000000E+00  0.21018078792E+03  0.21018078792E+03  0.00000000000E+00 0. -1.
          2   -1    0    0  501    0  0.00000000000E+00 -0.00000000000E+00 -0.93292451722E+02  0.93292451722E+02  0.00000000000E+00 0. -1.
         25    1    1    2    0    0  0.37556157983E+02 -0.11095379982E+02 -0.72432352047E+01  0.12643590042E+03  0.12000000000E+03 0.  0.
         25    1    1    2    0    0 -0.37556157983E+02  0.11095379982E+02  0.12413157140E+03  0.17703733922E+03  0.12000000000E+03 0.  0.
<mgrwt>
<rscale>  0 0.28005914E+03</rscale>
<asrwt>0</asrwt>
<pdfrwt beam="1">  1        2 0.14352685E-01 0.28005914E+03</pdfrwt>
<pdfrwt beam="2">  1       -2 0.32335506E-01 0.28005914E+03</pdfrwt>
<totfact> 0.36440970E+03</totfact>
</mgrwt>
</event>
<event>
 4    1  0.1672993E-004  0.2569719E+03  0.7818608E-02  0.1108976E+00
          3   -1    0    0  501    0  0.00000000000E+00  0.00000000000E+00  0.66996029989E+02  0.66996029989E+02  0.00000000000E+00 0.  1.
         -3   -1    0    0    0  501 -0.00000000000E+00 -0.00000000000E+00 -0.24641215986E+03  0.24641215986E+03  0.00000000000E+00 0.  1.
         25    1    1    2    0    0  0.45340943317E+02  0.19511393809E+01 -0.81168250122E+02  0.15181532503E+03  0.12000000000E+03 0.  0.
         25    1    1    2    0    0 -0.45340943317E+02 -0.19511393809E+01 -0.98247879748E+02  0.16159286482E+03  0.12000000000E+03 0.  0.
<mgrwt>
<rscale>  0 0.25697188E+03</rscale>
<asrwt>0</asrwt>
<pdfrwt beam="1">  1        3 0.10307082E-01 0.25697188E+03</pdfrwt>
<pdfrwt beam="2">  1       -3 0.37909562E-01 0.25697188E+03</pdfrwt>
<totfact> 0.12202063E+03</totfact>
</mgrwt>
</event>
<event>
 4    1  0.1672993E-004  0.2672986E+03  0.7818608E-02  0.1102836E+00
          1   -1    0    0  501    0  0.00000000000E+00  0.00000000000E+00  0.31314755584E+04  0.31314755584E+04  0.00000000000E+00 0. -1.
         -1   -1    0    0    0  501 -0.00000000000E+00 -0.00000000000E+00 -0.57040637330E+01  0.57040637330E+01  0.00000000000E+00 0. -1.
         25    1    1    2    0    0  0.16495122634E+02 -0.53259687727E+02  0.17835380064E+04  0.17884396841E+04  0.12000000000E+03 0.  0.
         25    1    1    2    0    0 -0.16495122634E+02  0.53259687727E+02  0.13422334883E+04  0.13487399380E+04  0.12000000000E+03 0.  0.
<mgrwt>
<rscale>  0 0.26729861E+03</rscale>
<asrwt>0</asrwt>
<pdfrwt beam="1">  1        1 0.48176410E+00 0.26729861E+03</pdfrwt>
<pdfrwt beam="2">  1       -1 0.87755077E-03 0.26729861E+03</pdfrwt>
<totfact> 0.13292379E+03</totfact>
</mgrwt>
</event>
<event>
 4    1  0.1672993E-004  0.3436660E+03  0.7818608E-02  0.1065245E+00
         -1   -1    0    0    0  501 -0.00000000000E+00  0.00000000000E+00  0.43336083036E+02  0.43336083036E+02  0.00000000000E+00 0. -1.
          1   -1    0    0  501    0  0.00000000000E+00 -0.00000000000E+00 -0.68133951577E+03  0.68133951577E+03  0.00000000000E+00 0. -1.
         25    1    1    2    0    0 -0.15724084959E+02  0.77869603801E+02 -0.12101569170E+03  0.18803116679E+03  0.12000000000E+03 0.  0.
         25    1    1    2    0    0  0.15724084959E+02 -0.77869603801E+02 -0.51698774103E+03  0.53664443202E+03  0.12000000000E+03 0.  0.
<mgrwt>
<rscale>  0 0.34366603E+03</rscale>
<asrwt>0</asrwt>
<pdfrwt beam="1">  1        1 0.10482146E+00 0.34366603E+03</pdfrwt>
<pdfrwt beam="2">  1       -1 0.66670900E-02 0.34366603E+03</pdfrwt>
<totfact> 0.33473782E+03</totfact>
</mgrwt>
</event>
<event>
 4    1  0.1672993E-004  0.2923718E+03  0.7818608E-02  0.1089117E+00
          2   -1    0    0  501    0  0.00000000000E+00  0.00000000000E+00  0.12057979361E+03  0.12057979361E+03  0.00000000000E+00 0. -1.
         -2   -1    0    0    0  501 -0.00000000000E+00 -0.00000000000E+00 -0.17722971865E+03  0.17722971865E+03  0.00000000000E+00 0. -1.
         25    1    1    2    0    0 -0.21657164136E+02  0.73453831494E+02 -0.62197379396E+02  0.15534803547E+03  0.12000000000E+03 0.  0.
         25    1    1    2    0    0  0.21657164136E+02 -0.73453831494E+02  0.55474543640E+01  0.14246147679E+03  0.12000000000E+03 0.  0.
<mgrwt>
<rscale>  0 0.29237184E+03</rscale>
<asrwt>0</asrwt>
<pdfrwt beam="1">  1        2 0.18550737E-01 0.29237184E+03</pdfrwt>
<pdfrwt beam="2">  1       -2 0.27266111E-01 0.29237184E+03</pdfrwt>
<totfact> 0.36778057E+03</totfact>
</mgrwt>
</event>
<event>
 4    1  0.1672993E-004  0.2871460E+03  0.7818608E-02  0.1091849E+00
          2   -1    0    0  501    0  0.00000000000E+00  0.00000000000E+00  0.23106004920E+04  0.23106004920E+04  0.00000000000E+00 0. -1.
         -2   -1    0    0    0  501 -0.00000000000E+00 -0.00000000000E+00 -0.89211494607E+01  0.89211494607E+01  0.00000000000E+00 0. -1.
         25    1    1    2    0    0  0.17435750581E+02  0.51998885190E+02  0.69350778110E+03  0.70594683363E+03  0.12000000000E+03 0.  0.
         25    1    1    2    0    0 -0.17435750581E+02 -0.51998885190E+02  0.16081715615E+04  0.16135748079E+04  0.12000000000E+03 0.  0.
<mgrwt>
<rscale>  0 0.28714604E+03</rscale>
<asrwt>0</asrwt>
<pdfrwt beam="1">  1        2 0.35547652E+00 0.28714604E+03</pdfrwt>
<pdfrwt beam="2">  1       -2 0.13724864E-02 0.28714604E+03</pdfrwt>
<totfact> 0.68282436E+03</totfact>
</mgrwt>
</event>
<event>
 4    1  0.1672993E-004  0.2552163E+03  0.7818608E-02  0.1110052E+00
         -2   -1    0    0    0  501 -0.00000000000E+00  0.00000000000E+00  0.77117113081E+01  0.77117113081E+01  0.00000000000E+00 0.  1.
          2   -1    0    0  501    0  0.00000000000E+00 -0.00000000000E+00 -0.21115729697E+04  0.21115729697E+04  0.00000000000E+00 0.  1.
         25    1    1    2    0    0  0.33363514574E+02 -0.11265094103E+02 -0.84123219005E+03  0.85047729190E+03  0.12000000000E+03 0.  0.
         25    1    1    2    0    0 -0.33363514574E+02  0.11265094103E+02 -0.12626290683E+04  0.12688073891E+04  0.12000000000E+03 0.  0.
<mgrwt>
<rscale>  0 0.25521631E+03</rscale>
<asrwt>0</asrwt>
<pdfrwt beam="1">  1        2 0.32485742E+00 0.25521631E+03</pdfrwt>
<pdfrwt beam="2">  1       -2 0.11864170E-02 0.25521631E+03</pdfrwt>
<totfact> 0.10769903E+04</totfact>
</mgrwt>
</event>
<event>
 4    1  0.1672993E-004  0.2535215E+03  0.7818608E-02  0.1111099E+00
          1   -1    0    0  501    0  0.00000000000E+00  0.00000000000E+00  0.16845581969E+03  0.16845581969E+03  0.00000000000E+00 0. -1.
         -1   -1    0    0    0  501 -0.00000000000E+00 -0.00000000000E+00 -0.95385781055E+02  0.95385781055E+02  0.00000000000E+00 0. -1.
         25    1    1    2    0    0  0.22172933224E+02  0.24508193113E+02  0.61511973506E+02  0.13883808333E+03  0.12000000000E+03 0.  0.
         25    1    1    2    0    0 -0.22172933224E+02 -0.24508193113E+02  0.11558065129E+02  0.12500351742E+03  0.12000000000E+03 0.  0.
<mgrwt>
<rscale>  0 0.25352152E+03</rscale>
<asrwt>0</asrwt>
<pdfrwt beam="1">  1        1 0.25916280E-01 0.25352152E+03</pdfrwt>
<pdfrwt beam="2">  1       -1 0.14674736E-01 0.25352152E+03</pdfrwt>
<totfact> 0.60070779E+03</totfact>
</mgrwt>
</event>
<event>
 4    1  0.1672993E-004  0.2850329E+03  0.7818608E-02  0.1092971E+00
         -2   -1    0    0    0  501 -0.00000000000E+00  0.00000000000E+00  0.15819251455E+03  0.15819251455E+03  0.00000000000E+00 0. -1.
          2   -1    0    0  501    0  0.00000000000E+00 -0.00000000000E+00 -0.12839376058E+03  0.12839376058E+03  0.00000000000E+00 0. -1.
         25    1    1    2    0    0 -0.48937255892E+02 -0.20285349059E+02 -0.41123059905E+02  0.13746801976E+03  0.12000000000E+03 0.  0.
         25    1    1    2    0    0  0.48937255892E+02  0.20285349059E+02  0.70921813879E+02  0.14911825537E+03  0.12000000000E+03 0.  0.
<mgrwt>
<rscale>  0 0.28503285E+03</rscale>
<asrwt>0</asrwt>
<pdfrwt beam="1">  1        2 0.19752886E-01 0.28503285E+03</pdfrwt>
<pdfrwt beam="2">  1       -2 0.24337310E-01 0.28503285E+03</pdfrwt>
<totfact> 0.41822940E+03</totfact>
</mgrwt>
</event>
<event>
 4    1  0.1672993E-004  0.2589737E+03  0.7818608E-02  0.1107761E+00
         -1   -1    0    0    0  501 -0.00000000000E+00  0.00000000000E+00  0.11140302466E+04  0.11140302466E+04  0.00000000000E+00 0.  1.
          1   -1    0    0  501    0  0.00000000000E+00 -0.00000000000E+00 -0.15050613429E+02  0.15050613429E+02  0.00000000000E+00 0.  1.
         25    1    1    2    0    0  0.12990010075E+02  0.16480546364E+02  0.74085054575E+03  0.75079949381E+03  0.12000000000E+03 0.  0.
         25    1    1    2    0    0 -0.12990010075E+02 -0.16480546364E+02  0.35812908742E+03  0.37828136621E+03  0.12000000000E+03 0.  0.
<mgrwt>
<rscale>  0 0.25897366E+03</rscale>
<asrwt>0</asrwt>
<pdfrwt beam="1">  1        1 0.23154799E-02 0.25897366E+03</pdfrwt>
<pdfrwt beam="2">  1       -1 0.17138920E+00 0.25897366E+03</pdfrwt>
<totfact> 0.12908716E+03</totfact>
</mgrwt>
</event>
<event>
 4    1  0.1672993E-004  0.2958441E+03  0.7818608E-02  0.1087337E+00
          1   -1    0    0  501    0  0.00000000000E+00  0.00000000000E+00  0.47312866738E+03  0.47312866738E+03  0.00000000000E+00 0.  1.
         -1   -1    0    0    0  501 -0.00000000000E+00 -0.00000000000E+00 -0.46247331279E+02  0.46247331279E+02  0.00000000000E+00 0.  1.
         25    1    1    2    0    0  0.77449298158E+02 -0.87664006321E+01  0.14761967853E+03  0.20558894195E+03  0.12000000000E+03 0.  0.
         25    1    1    2    0    0 -0.77449298158E+02  0.87664006321E+01  0.27926165758E+03  0.31378705671E+03  0.12000000000E+03 0.  0.
<mgrwt>
<rscale>  0 0.29584414E+03</rscale>
<asrwt>0</asrwt>
<pdfrwt beam="1">  1        1 0.72789022E-01 0.29584414E+03</pdfrwt>
<pdfrwt beam="2">  1       -1 0.71149744E-02 0.29584414E+03</pdfrwt>
<totfact> 0.50007077E+03</totfact>
</mgrwt>
</event>
<event>
 4    1  0.1672993E-004  0.3092012E+03  0.7818608E-02  0.1080729E+00
         -2   -1    0    0    0  501 -0.00000000000E+00  0.00000000000E+00  0.84938788831E+02  0.84938788831E+02  0.00000000000E+00 0.  1.
          2   -1    0    0  501    0  0.00000000000E+00 -0.00000000000E+00 -0.28139495219E+03  0.28139495219E+03  0.00000000000E+00 0.  1.
         25    1    1    2    0    0 -0.91153674990E+02  0.33277247497E+02 -0.87306364447E+02  0.17730981061E+03  0.12000000000E+03 0.  0.
         25    1    1    2    0    0  0.91153674990E+02 -0.33277247497E+02 -0.10914979891E+03  0.18902393041E+03  0.12000000000E+03 0.  0.
<mgrwt>
<rscale>  0 0.30920121E+03</rscale>
<asrwt>0</asrwt>
<pdfrwt beam="1">  1        2 0.43291532E-01 0.30920121E+03</pdfrwt>
<pdfrwt beam="2">  1       -2 0.13067506E-01 0.30920121E+03</pdfrwt>
<totfact> 0.50352645E+03</totfact>
</mgrwt>
</event>
<event>
 4    1  0.1672993E-004  0.2516091E+03  0.7818608E-02  0.1112292E+00
          2   -1    0    0  501    0  0.00000000000E+00  0.00000000000E+00  0.32074733480E+03  0.32074733480E+03  0.00000000000E+00 0. -1.
         -2   -1    0    0    0  501 -0.00000000000E+00 -0.00000000000E+00 -0.49343481564E+02  0.49343481564E+02  0.00000000000E+00 0. -1.
         25    1    1    2    0    0  0.94902844195E+01 -0.12496757505E+02  0.18624075171E+03  0.22210774872E+03  0.12000000000E+03 0.  0.
         25    1    1    2    0    0 -0.94902844195E+01  0.12496757505E+02  0.85163101532E+02  0.14798306764E+03  0.12000000000E+03 0.  0.
<mgrwt>
<rscale>  0 0.25160914E+03</rscale>
<asrwt>0</asrwt>
<pdfrwt beam="1">  1        2 0.49345742E-01 0.25160914E+03</pdfrwt>
<pdfrwt beam="2">  1       -2 0.75913051E-02 0.25160914E+03</pdfrwt>
<totfact> 0.10298754E+04</totfact>
</mgrwt>
</event>
<event>
 4    1  0.1672993E-004  0.2838431E+03  0.7818608E-02  0.1093608E+00
          1   -1    0    0  501    0  0.00000000000E+00  0.00000000000E+00  0.90679237193E+02  0.90679237193E+02  0.00000000000E+00 0. -1.
         -1   -1    0    0    0  501 -0.00000000000E+00 -0.00000000000E+00 -0.22212060355E+03  0.22212060355E+03  0.00000000000E+00 0. -1.
         25    1    1    2    0    0  0.17575200428E+01 -0.65949505170E+02 -0.24644856109E+02  0.13913948053E+03  0.12000000000E+03 0.  0.
         25    1    1    2    0    0 -0.17575200428E+01  0.65949505170E+02 -0.10679651025E+03  0.17366036021E+03  0.12000000000E+03 0.  0.
<mgrwt>
<rscale>  0 0.28384310E+03</rscale>
<asrwt>0</asrwt>
<pdfrwt beam="1">  1        1 0.13950652E-01 0.28384310E+03</pdfrwt>
<pdfrwt beam="2">  1       -1 0.34172400E-01 0.28384310E+03</pdfrwt>
<totfact> 0.33343431E+03</totfact>
</mgrwt>
</event>
<event>
 4    1  0.1672993E-004  0.3076857E+03  0.7818608E-02  0.1081460E+00
          3   -1    0    0  501    0  0.00000000000E+00  0.00000000000E+00  0.36779946044E+03  0.36779946044E+03  0.00000000000E+00 0.  1.
         -3   -1    0    0    0  501 -0.00000000000E+00 -0.00000000000E+00 -0.64349269051E+02  0.64349269051E+02  0.00000000000E+00 0.  1.
         25    1    1    2    0    0 -0.82128739634E+02 -0.49114220629E+02  0.13697503683E+03  0.20571703201E+03  0.12000000000E+03 0.  0.
         25    1    1    2    0    0  0.82128739634E+02  0.49114220629E+02  0.16647515456E+03  0.22643169749E+03  0.12000000000E+03 0.  0.
<mgrwt>
<rscale>  0 0.30768573E+03</rscale>
<asrwt>0</asrwt>
<pdfrwt beam="1">  1        3 0.56584531E-01 0.30768573E+03</pdfrwt>
<pdfrwt beam="2">  1       -3 0.98998878E-02 0.30768573E+03</pdfrwt>
<totfact> 0.59856549E+02</totfact>
</mgrwt>
</event>
<event>
 4    1  0.1672993E-004  0.2756119E+03  0.7818608E-02  0.1098110E+00
          3   -1    0    0  501    0  0.00000000000E+00  0.00000000000E+00  0.27947750998E+03  0.27947750998E+03  0.00000000000E+00 0. -1.
         -3   -1    0    0    0  501 -0.00000000000E+00 -0.00000000000E+00 -0.67949917349E+02  0.67949917349E+02  0.00000000000E+00 0. -1.
         25    1    1    2    0    0 -0.49648145817E+01 -0.38424028832E+02  0.35698241534E+02  0.13105502594E+03  0.12000000000E+03 0.  0.
         25    1    1    2    0    0  0.49648145817E+01  0.38424028832E+02  0.17582935110E+03  0.21637240139E+03  0.12000000000E+03 0.  0.
<mgrwt>
<rscale>  0 0.27561186E+03</rscale>
<asrwt>0</asrwt>
<pdfrwt beam="1">  1        3 0.42996539E-01 0.27561186E+03</pdfrwt>
<pdfrwt beam="2">  1       -3 0.10453834E-01 0.27561186E+03</pdfrwt>
<totfact> 0.93997668E+02</totfact>
</mgrwt>
</event>
<event>
 4    1  0.1672993E-004  0.2529952E+03  0.7818608E-02  0.1111426E+00
          1   -1    0    0  501    0  0.00000000000E+00  0.00000000000E+00  0.76359551560E+03  0.76359551560E+03  0.00000000000E+00 0.  1.
         -1   -1    0    0    0  501 -0.00000000000E+00 -0.00000000000E+00 -0.20955656858E+02  0.20955656858E+02  0.00000000000E+00 0.  1.
         25    1    1    2    0    0 -0.20140661096E+02  0.28440550017E+02  0.31030446962E+03  0.33451961823E+03  0.12000000000E+03 0.  0.
         25    1    1    2    0    0  0.20140661096E+02 -0.28440550017E+02  0.43233538912E+03  0.45003155423E+03  0.12000000000E+03 0.  0.
<mgrwt>
<rscale>  0 0.25299522E+03</rscale>
<asrwt>0</asrwt>
<pdfrwt beam="1">  1        1 0.11747621E+00 0.25299522E+03</pdfrwt>
<pdfrwt beam="2">  1       -1 0.32239478E-02 0.25299522E+03</pdfrwt>
<totfact> 0.83422753E+03</totfact>
</mgrwt>
</event>
<event>
 4    1  0.1672993E-004  0.2722025E+03  0.7818608E-02  0.1100026E+00
          1   -1    0    0  501    0  0.00000000000E+00  0.00000000000E+00  0.44049893792E+03  0.44049893792E+03  0.00000000000E+00 0.  1.
         -1   -1    0    0    0  501 -0.00000000000E+00 -0.00000000000E+00 -0.42051295626E+02  0.42051295626E+02  0.00000000000E+00 0.  1.
         25    1    1    2    0    0 -0.62943611289E+02 -0.11476247716E+02  0.20892531602E+03  0.24928575999E+03  0.12000000000E+03 0.  0.
         25    1    1    2    0    0  0.62943611289E+02  0.11476247716E+02  0.18952232628E+03  0.23326447356E+03  0.12000000000E+03 0.  0.
<mgrwt>
<rscale>  0 0.27220251E+03</rscale>
<asrwt>0</asrwt>
<pdfrwt beam="1">  1        1 0.67769064E-01 0.27220251E+03</pdfrwt>
<pdfrwt beam="2">  1       -1 0.64694304E-02 0.27220251E+03</pdfrwt>
<totfact> 0.63286096E+03</totfact>
</mgrwt>
</event>
<event>
 4    1  0.1672993E-004  0.3025290E+03  0.7818608E-02  0.1083983E+00
         -2   -1    0    0    0  501 -0.00000000000E+00  0.00000000000E+00  0.72699004952E+02  0.72699004952E+02  0.00000000000E+00 0. -1.
          2   -1    0    0  501    0  0.00000000000E+00 -0.00000000000E+00 -0.31473532738E+03  0.31473532738E+03  0.00000000000E+00 0. -1.
         25    1    1    2    0    0  0.85637014980E+02 -0.15891559561E+02 -0.82711783227E+02  0.16978656921E+03  0.12000000000E+03 0.  0.
         25    1    1    2    0    0 -0.85637014980E+02  0.15891559561E+02 -0.15932453921E+03  0.21764776313E+03  0.12000000000E+03 0.  0.
<mgrwt>
<rscale>  0 0.30252897E+03</rscale>
<asrwt>0</asrwt>
<pdfrwt beam="1">  1        2 0.48420818E-01 0.30252897E+03</pdfrwt>
<pdfrwt beam="2">  1       -2 0.11184463E-01 0.30252897E+03</pdfrwt>
<totfact> 0.57379234E+03</totfact>
</mgrwt>
</event>
<event>
 4    1  0.1672993E-004  0.3612087E+03  0.7818608E-02  0.1058106E+00
          2   -1    0    0  501    0  0.00000000000E+00  0.00000000000E+00  0.22357262401E+04  0.22357262401E+04  0.00000000000E+00 0. -1.
         -2   -1    0    0    0  501 -0.00000000000E+00 -0.00000000000E+00 -0.14589410468E+02  0.14589410468E+02  0.00000000000E+00 0. -1.
         25    1    1    2    0    0 -0.10342371245E+00 -0.12384107519E+03  0.77615792366E+03  0.79508348308E+03  0.12000000000E+03 0.  0.
         25    1    1    2    0    0  0.10342371245E+00  0.12384107519E+03  0.14449789059E+04  0.14552321675E+04  0.12000000000E+03 0.  0.
<mgrwt>
<rscale>  0 0.36120868E+03</rscale>
<asrwt>0</asrwt>
<pdfrwt beam="1">  1        2 0.34395761E+00 0.36120868E+03</pdfrwt>
<pdfrwt beam="2">  1       -2 0.22445265E-02 0.36120868E+03</pdfrwt>
<totfact> 0.36202763E+03</totfact>
</mgrwt>
</event>
<event>
 4    1  0.1672993E-004  0.2935379E+03  0.7818608E-02  0.1088516E+00
          1   -1    0    0  501    0  0.00000000000E+00  0.00000000000E+00  0.84581259170E+03  0.84581259170E+03  0.00000000000E+00 0. -1.
         -1   -1    0    0    0  501 -0.00000000000E+00 -0.00000000000E+00 -0.25467957369E+02  0.25467957369E+02  0.00000000000E+00 0. -1.
         25    1    1    2    0    0  0.56702000016E+02  0.12910818862E+02  0.59216257272E+03  0.60699120140E+03  0.12000000000E+03 0.  0.
         25    1    1    2    0    0 -0.56702000016E+02 -0.12910818862E+02  0.22818206161E+03  0.26428934767E+03  0.12000000000E+03 0.  0.
<mgrwt>
<rscale>  0 0.29353786E+03</rscale>
<asrwt>0</asrwt>
<pdfrwt beam="1">  1        1 0.13012499E+00 0.29353786E+03</pdfrwt>
<pdfrwt beam="2">  1       -1 0.39181479E-02 0.29353786E+03</pdfrwt>
<totfact> 0.53567348E+03</totfact>
</mgrwt>
</event>
<event>
 4    1  0.1672993E-004  0.2999357E+03  0.7818608E-02  0.1085273E+00
          2   -1    0    0  501    0  0.00000000000E+00  0.00000000000E+00  0.13003610179E+03  0.13003610179E+03  0.00000000000E+00 0.  1.
         -2   -1    0    0    0  501 -0.00000000000E+00 -0.00000000000E+00 -0.17295473506E+03  0.17295473506E+03  0.00000000000E+00 0.  1.
         25    1    1    2    0    0 -0.49130616200E+02  0.65470284707E+02  0.16205636205E+02  0.14616018019E+03  0.12000000000E+03 0.  0.
         25    1    1    2    0    0  0.49130616200E+02 -0.65470284707E+02 -0.59124269471E+02  0.15683065666E+03  0.12000000000E+03 0.  0.
<mgrwt>
<rscale>  0 0.29993572E+03</rscale>
<asrwt>0</asrwt>
<pdfrwt beam="1">  1        2 0.20005554E-01 0.29993572E+03</pdfrwt>
<pdfrwt beam="2">  1       -2 0.26608421E-01 0.29993572E+03</pdfrwt>
<totfact> 0.35240614E+03</totfact>
</mgrwt>
</event>
<event>
 4    1  0.1672993E-004  0.2718890E+03  0.7818608E-02  0.1100203E+00
         -1   -1    0    0    0  501 -0.00000000000E+00  0.00000000000E+00  0.12014489546E+03  0.12014489546E+03  0.00000000000E+00 0.  1.
          1   -1    0    0  501    0  0.00000000000E+00 -0.00000000000E+00 -0.15382179969E+03  0.15382179969E+03  0.00000000000E+00 0.  1.
         25    1    1    2    0    0 -0.63281588054E+02  0.44952356726E+01 -0.24388205253E+02  0.13791138853E+03  0.12000000000E+03 0.  0.
         25    1    1    2    0    0  0.63281588054E+02 -0.44952356726E+01 -0.92886989775E+01  0.13605530662E+03  0.12000000000E+03 0.  0.
<mgrwt>
<rscale>  0 0.27188898E+03</rscale>
<asrwt>0</asrwt>
<pdfrwt beam="1">  1        1 0.23664892E-01 0.27188898E+03</pdfrwt>
<pdfrwt beam="2">  1       -1 0.18483830E-01 0.27188898E+03</pdfrwt>
<totfact> 0.46762044E+03</totfact>
</mgrwt>
</event>
<event>
 4    1  0.1672993E-004  0.4029686E+03  0.7818608E-02  0.1042757E+00
         -2   -1    0    0    0  501 -0.00000000000E+00  0.00000000000E+00  0.21585627234E+03  0.21585627234E+03  0.00000000000E+00 0.  1.
          2   -1    0    0  501    0  0.00000000000E+00 -0.00000000000E+00 -0.18806922697E+03  0.18806922697E+03  0.00000000000E+00 0.  1.
         25    1    1    2    0    0 -0.51434585917E+02  0.11122733154E+03  0.11987484637E+03  0.20925346999E+03  0.12000000000E+03 0.  0.
         25    1    1    2    0    0  0.51434585917E+02 -0.11122733154E+03 -0.92087800996E+02  0.19467202933E+03  0.12000000000E+03 0.  0.
<mgrwt>
<rscale>  0 0.40296860E+03</rscale>
<asrwt>0</asrwt>
<pdfrwt beam="1">  1        2 0.28933727E-01 0.40296860E+03</pdfrwt>
<pdfrwt beam="2">  1       -2 0.33208657E-01 0.40296860E+03</pdfrwt>
<totfact> 0.15584111E+03</totfact>
</mgrwt>
</event>
<event>
 4    1  0.1672993E-004  0.3586319E+03  0.7818608E-02  0.1059127E+00
          2   -1    0    0  501    0  0.00000000000E+00  0.00000000000E+00  0.18378962955E+04  0.18378962955E+04  0.00000000000E+00 0.  1.
         -2   -1    0    0    0  501 -0.00000000000E+00 -0.00000000000E+00 -0.17495118675E+02  0.17495118675E+02  0.00000000000E+00 0.  1.
         25    1    1    2    0    0 -0.45461586514E+01  0.10548058138E+03  0.13307351318E+04  0.13402995231E+04  0.12000000000E+03 0.  0.
         25    1    1    2    0    0  0.45461586514E+01 -0.10548058138E+03  0.48966604507E+03  0.51509189112E+03  0.12000000000E+03 0.  0.
<mgrwt>
<rscale>  0 0.35863192E+03</rscale>
<asrwt>0</asrwt>
<pdfrwt beam="1">  1        2 0.28275312E+00 0.35863192E+03</pdfrwt>
<pdfrwt beam="2">  1       -2 0.26915582E-02 0.35863192E+03</pdfrwt>
<totfact> 0.45001605E+03</totfact>
</mgrwt>
</event>
<event>
 4    1  0.1672993E-004  0.2851910E+03  0.7818608E-02  0.1092887E+00
          2   -1    0    0  501    0  0.00000000000E+00  0.00000000000E+00  0.20959600719E+03  0.20959600719E+03  0.00000000000E+00 0. -1.
         -2   -1    0    0    0  501 -0.00000000000E+00 -0.00000000000E+00 -0.97012741380E+02  0.97012741380E+02  0.00000000000E+00 0. -1.
         25    1    1    2    0    0  0.71413281493E+02  0.23505868126E+02  0.74316811020E+02  0.15992301589E+03  0.12000000000E+03 0.  0.
         25    1    1    2    0    0 -0.71413281493E+02 -0.23505868126E+02  0.38266454785E+02  0.14668573268E+03  0.12000000000E+03 0.  0.
<mgrwt>
<rscale>  0 0.28519105E+03</rscale>
<asrwt>0</asrwt>
<pdfrwt beam="1">  1        2 0.32245539E-01 0.28519105E+03</pdfrwt>
<pdfrwt beam="2">  1       -2 0.14925037E-01 0.28519105E+03</pdfrwt>
<totfact> 0.55586551E+03</totfact>
</mgrwt>
</event>
<event>
 4    1  0.1672993E-004  0.3446425E+03  0.7818608E-02  0.1064836E+00
         -2   -1    0    0    0  501 -0.00000000000E+00  0.00000000000E+00  0.46903002729E+02  0.46903002729E+02  0.00000000000E+00 0.  1.
          2   -1    0    0  501    0  0.00000000000E+00 -0.00000000000E+00 -0.63310675379E+03  0.63310675379E+03  0.00000000000E+00 0.  1.
         25    1    1    2    0    0 -0.11846235527E+03  0.55111895904E+01 -0.22387756883E+03  0.28032992821E+03  0.12000000000E+03 0.  0.
         25    1    1    2    0    0  0.11846235527E+03 -0.55111895904E+01 -0.36232618224E+03  0.39967982831E+03  0.12000000000E+03 0.  0.
<mgrwt>
<rscale>  0 0.34464247E+03</rscale>
<asrwt>0</asrwt>
<pdfrwt beam="1">  1        2 0.97401045E-01 0.34464247E+03</pdfrwt>
<pdfrwt beam="2">  1       -2 0.72158461E-02 0.34464247E+03</pdfrwt>
<totfact> 0.52825195E+03</totfact>
</mgrwt>
</event>
<event>
 4    1  0.1672993E-004  0.2589112E+03  0.7818608E-02  0.1107799E+00
         -2   -1    0    0    0  501 -0.00000000000E+00  0.00000000000E+00  0.66942692185E+02  0.66942692185E+02  0.00000000000E+00 0. -1.
          2   -1    0    0  501    0  0.00000000000E+00 -0.00000000000E+00 -0.25034485904E+03  0.25034485904E+03  0.00000000000E+00 0. -1.
         25    1    1    2    0    0 -0.15024466054E+02  0.29362508566E+02 -0.48014083436E+02  0.13339131792E+03  0.12000000000E+03 0.  0.
         25    1    1    2    0    0  0.15024466054E+02 -0.29362508566E+02 -0.13538808341E+03  0.18389623330E+03  0.12000000000E+03 0.  0.
<mgrwt>
<rscale>  0 0.25891125E+03</rscale>
<asrwt>0</asrwt>
<pdfrwt beam="1">  1        2 0.38514593E-01 0.25891125E+03</pdfrwt>
<pdfrwt beam="2">  1       -2 0.10298876E-01 0.25891125E+03</pdfrwt>
<totfact> 0.83314919E+03</totfact>
</mgrwt>
</event>
<event>
 4    1  0.1672993E-004  0.3345193E+03  0.7818608E-02  0.1069155E+00
          1   -1    0    0  501    0  0.00000000000E+00  0.00000000000E+00  0.18485681518E+04  0.18485681518E+04  0.00000000000E+00 0. -1.
         -1   -1    0    0    0  501 -0.00000000000E+00 -0.00000000000E+00 -0.15133757711E+02  0.15133757711E+02  0.00000000000E+00 0. -1.
         25    1    1    2    0    0 -0.10523817856E+02 -0.89518397677E+02  0.13280684963E+04  0.13365216889E+04  0.12000000000E+03 0.  0.
         25    1    1    2    0    0  0.10523817856E+02  0.89518397677E+02  0.50536589781E+03  0.52718022054E+03  0.12000000000E+03 0.  0.
<mgrwt>
<rscale>  0 0.33451925E+03</rscale>
<asrwt>0</asrwt>
<pdfrwt beam="1">  1        1 0.28439492E+00 0.33451925E+03</pdfrwt>
<pdfrwt beam="2">  1       -1 0.23282719E-02 0.33451925E+03</pdfrwt>
<totfact> 0.23163953E+03</totfact>
</mgrwt>
</event>
<event>
 4    1  0.1672993E-004  0.4264271E+03  0.7818608E-02  0.1034995E+00
         -2   -1    0    0    0  501 -0.00000000000E+00  0.00000000000E+00  0.17879085659E+02  0.17879085659E+02  0.00000000000E+00 0.  1.
          2   -1    0    0  501    0  0.00000000000E+00 -0.00000000000E+00 -0.25426367103E+04  0.25426367103E+04  0.00000000000E+00 0.  1.
         25    1    1    2    0    0 -0.15512055209E+03  0.31598298277E+02 -0.17274598707E+04  0.17388439962E+04  0.12000000000E+03 0.  0.
         25    1    1    2    0    0  0.15512055209E+03 -0.31598298277E+02 -0.79729775396E+03  0.82167179981E+03  0.12000000000E+03 0.  0.
<mgrwt>
<rscale>  0 0.42642711E+03</rscale>
<asrwt>0</asrwt>
<pdfrwt beam="1">  1        2 0.39117458E+00 0.42642711E+03</pdfrwt>
<pdfrwt beam="2">  1       -2 0.27506307E-02 0.42642711E+03</pdfrwt>
<totfact> 0.18051137E+03</totfact>
</mgrwt>
</event>
<event>
 4    1  0.1672993E-004  0.2487384E+03  0.7818608E-02  0.1114105E+00
          1   -1    0    0  501    0  0.00000000000E+00  0.00000000000E+00  0.19027913907E+04  0.19027913907E+04  0.00000000000E+00 0.  1.
         -1   -1    0    0    0  501 -0.00000000000E+00 -0.00000000000E+00 -0.81289478815E+01  0.81289478815E+01  0.00000000000E+00 0.  1.
         25    1    1    2    0    0  0.22503534339E+02 -0.23653910697E+02  0.95756791197E+03  0.96560976724E+03  0.12000000000E+03 0.  0.
         25    1    1    2    0    0 -0.22503534339E+02  0.23653910697E+02  0.93709453083E+03  0.94531057132E+03  0.12000000000E+03 0.  0.
<mgrwt>
<rscale>  0 0.24873835E+03</rscale>
<asrwt>0</asrwt>
<pdfrwt beam="1">  1        1 0.29273678E+00 0.24873835E+03</pdfrwt>
<pdfrwt beam="2">  1       -1 0.12506089E-02 0.24873835E+03</pdfrwt>
<totfact> 0.53003278E+03</totfact>
</mgrwt>
</event>
<event>
 4    1  0.1672993E-004  0.2756866E+03  0.7818608E-02  0.1098068E+00
          1   -1    0    0  501    0  0.00000000000E+00  0.00000000000E+00  0.78946656559E+03  0.78946656559E+03  0.00000000000E+00 0. -1.
         -1   -1    0    0    0  501 -0.00000000000E+00 -0.00000000000E+00 -0.24067857623E+02  0.24067857623E+02  0.00000000000E+00 0. -1.
         25    1    1    2    0    0 -0.39031578225E+02 -0.49357628320E+02  0.45741871891E+03  0.47706553426E+03  0.12000000000E+03 0.  0.
         25    1    1    2    0    0  0.39031578225E+02  0.49357628320E+02  0.30797998907E+03  0.33646888896E+03  0.12000000000E+03 0.  0.
<mgrwt>
<rscale>  0 0.27568655E+03</rscale>
<asrwt>0</asrwt>
<pdfrwt beam="1">  1        1 0.12145637E+00 0.27568655E+03</pdfrwt>
<pdfrwt beam="2">  1       -1 0.37027479E-02 0.27568655E+03</pdfrwt>
<totfact> 0.64777053E+03</totfact>
</mgrwt>
</event>
<event>
 4    1  0.1672993E-004  0.2495862E+03  0.7818608E-02  0.1113567E+00
         -2   -1    0    0    0  501 -0.00000000000E+00  0.00000000000E+00  0.29963672022E+02  0.29963672022E+02  0.00000000000E+00 0. -1.
          2   -1    0    0  501    0  0.00000000000E+00 -0.00000000000E+00 -0.51974004467E+03  0.51974004467E+03  0.00000000000E+00 0. -1.
         25    1    1    2    0    0 -0.14959804973E+01  0.25731307209E+02 -0.29457708011E+03  0.31912379142E+03  0.12000000000E+03 0.  0.
         25    1    1    2    0    0  0.14959804973E+01 -0.25731307209E+02 -0.19519929254E+03  0.23057992527E+03  0.12000000000E+03 0.  0.
<mgrwt>
<rscale>  0 0.24958622E+03</rscale>
<asrwt>0</asrwt>
<pdfrwt beam="1">  1        2 0.79960003E-01 0.24958622E+03</pdfrwt>
<pdfrwt beam="2">  1       -2 0.46097959E-02 0.24958622E+03</pdfrwt>
<totfact> 0.13051293E+04</totfact>
</mgrwt>
</event>
<event>
 4    1  0.1672993E-004  0.2570024E+03  0.7818608E-02  0.1108958E+00
          1   -1    0    0  501    0  0.00000000000E+00  0.00000000000E+00  0.88679421639E+03  0.88679421639E+03  0.00000000000E+00 0. -1.
         -1   -1    0    0    0  501 -0.00000000000E+00 -0.00000000000E+00 -0.18620514235E+02  0.18620514235E+02  0.00000000000E+00 0. -1.
         25    1    1    2    0    0 -0.11426444278E+02 -0.17795624530E+02  0.57785367711E+03  0.59056085210E+03  0.12000000000E+03 0.  0.
         25    1    1    2    0    0  0.11426444278E+02  0.17795624530E+02  0.29032002504E+03  0.31485387852E+03  0.12000000000E+03 0.  0.
<mgrwt>
<rscale>  0 0.25700245E+03</rscale>
<asrwt>0</asrwt>
<pdfrwt beam="1">  1        1 0.13642985E+00 0.25700245E+03</pdfrwt>
<pdfrwt beam="2">  1       -1 0.28646952E-02 0.25700245E+03</pdfrwt>
<totfact> 0.78700995E+03</totfact>
</mgrwt>
</event>
<event>
 4    1  0.1672993E-004  0.3356739E+03  0.7818608E-02  0.1068654E+00
         -2   -1    0    0    0  501 -0.00000000000E+00  0.00000000000E+00  0.17228732337E+02  0.17228732337E+02  0.00000000000E+00 0.  1.
          2   -1    0    0  501    0  0.00000000000E+00 -0.00000000000E+00 -0.16350152877E+04  0.16350152877E+04  0.00000000000E+00 0.  1.
         25    1    1    2    0    0  0.56541536862E+02 -0.22004253333E+02 -0.13032739549E+04  0.13101924035E+04  0.12000000000E+03 0.  0.
         25    1    1    2    0    0 -0.56541536862E+02  0.22004253333E+02 -0.31451260047E+03  0.34205161659E+03  0.12000000000E+03 0.  0.
<mgrwt>
<rscale>  0 0.33567389E+03</rscale>
<asrwt>0</asrwt>
<pdfrwt beam="1">  1        2 0.25154072E+00 0.33567389E+03</pdfrwt>
<pdfrwt beam="2">  1       -2 0.26505752E-02 0.33567389E+03</pdfrwt>
<totfact> 0.59013450E+03</totfact>
</mgrwt>
</event>
<event>
 4    1  0.1672993E-004  0.2576009E+03  0.7818608E-02  0.1108593E+00
          1   -1    0    0  501    0  0.00000000000E+00  0.00000000000E+00  0.10321419021E+02  0.10321419021E+02  0.00000000000E+00 0. -1.
         -1   -1    0    0    0  501 -0.00000000000E+00 -0.00000000000E+00 -0.16072941202E+04  0.16072941202E+04  0.00000000000E+00 0. -1.
         25    1    1    2    0    0 -0.42099906979E+02 -0.42533924652E+01 -0.67304277042E+03  0.68496500956E+03  0.12000000000E+03 0.  0.
         25    1    1    2    0    0  0.42099906979E+02  0.42533924652E+01 -0.92392993080E+03  0.93265052969E+03  0.12000000000E+03 0.  0.
<mgrwt>
<rscale>  0 0.25760090E+03</rscale>
<asrwt>0</asrwt>
<pdfrwt beam="1">  1        1 0.15879117E-02 0.25760090E+03</pdfrwt>
<pdfrwt beam="2">  1       -1 0.24727584E+00 0.25760090E+03</pdfrwt>
<totfact> 0.69249588E+02</totfact>
</mgrwt>
</event>
<event>
 4    1  0.1672993E-004  0.3086576E+03  0.7818608E-02  0.1080991E+00
          1   -1    0    0  501    0  0.00000000000E+00  0.00000000000E+00  0.37296063535E+03  0.37296063535E+03  0.00000000000E+00 0. -1.
         -1   -1    0    0    0  501 -0.00000000000E+00 -0.00000000000E+00 -0.63860312002E+02  0.63860312002E+02  0.00000000000E+00 0. -1.
         25    1    1    2    0    0  0.26734412616E+02 -0.81127155056E+02  0.21972811421E+03  0.26453126144E+03  0.12000000000E+03 0.  0.
         25    1    1    2    0    0 -0.26734412616E+02  0.81127155056E+02  0.89372209141E+02  0.17228968591E+03  0.12000000000E+03 0.  0.
<mgrwt>
<rscale>  0 0.30865763E+03</rscale>
<asrwt>0</asrwt>
<pdfrwt beam="1">  1        1 0.57378558E-01 0.30865763E+03</pdfrwt>
<pdfrwt beam="2">  1       -1 0.98246636E-02 0.30865763E+03</pdfrwt>
<totfact> 0.41520904E+03</totfact>
</mgrwt>
</event>
<event>
 4    1  0.1672993E-004  0.2537974E+03  0.7818608E-02  0.1110928E+00
          2   -1    0    0  501    0  0.00000000000E+00  0.00000000000E+00  0.18037338729E+04  0.18037338729E+04  0.00000000000E+00 0.  1.
         -2   -1    0    0    0  501 -0.00000000000E+00 -0.00000000000E+00 -0.89277505260E+01  0.89277505260E+01  0.00000000000E+00 0.  1.
         25    1    1    2    0    0 -0.38453466969E+02  0.14526779652E+02  0.87107417051E+03  0.88026127199E+03  0.12000000000E+03 0.  0.
         25    1    1    2    0    0  0.38453466969E+02 -0.14526779652E+02  0.92373195183E+03  0.93240035139E+03  0.12000000000E+03 0.  0.
<mgrwt>
<rscale>  0 0.25379745E+03</rscale>
<asrwt>0</asrwt>
<pdfrwt beam="1">  1        2 0.27749723E+00 0.25379745E+03</pdfrwt>
<pdfrwt beam="2">  1       -2 0.13735015E-02 0.25379745E+03</pdfrwt>
<totfact> 0.12619754E+04</totfact>
</mgrwt>
</event>
<event>
 4    1  0.1672993E-004  0.2506111E+03  0.7818608E-02  0.1112919E+00
          2   -1    0    0  501    0  0.00000000000E+00  0.00000000000E+00  0.49703671963E+02  0.49703671963E+02  0.00000000000E+00 0. -1.
         -2   -1    0    0    0  501 -0.00000000000E+00 -0.00000000000E+00 -0.31590171618E+03  0.31590171618E+03  0.00000000000E+00 0. -1.
         25    1    1    2    0    0 -0.30853542209E+02  0.18316447065E+02 -0.13856573723E+03  0.18678302073E+03  0.12000000000E+03 0.  0.
         25    1    1    2    0    0  0.30853542209E+02 -0.18316447065E+02 -0.12763230699E+03  0.17882236742E+03  0.12000000000E+03 0.  0.
<mgrwt>
<rscale>  0 0.25061106E+03</rscale>
<asrwt>0</asrwt>
<pdfrwt beam="1">  1        2 0.76467190E-02 0.25061106E+03</pdfrwt>
<pdfrwt beam="2">  1       -2 0.48600263E-01 0.25061106E+03</pdfrwt>
<totfact> 0.36312049E+03</totfact>
</mgrwt>
</event>
<event>
 4    1  0.1672993E-004  0.3293759E+03  0.7818608E-02  0.1071413E+00
         -2   -1    0    0    0  501 -0.00000000000E+00  0.00000000000E+00  0.33299463705E+02  0.33299463705E+02  0.00000000000E+00 0. -1.
          2   -1    0    0  501    0  0.00000000000E+00 -0.00000000000E+00 -0.81449145044E+03  0.81449145044E+03  0.00000000000E+00 0. -1.
         25    1    1    2    0    0 -0.88430879310E+02  0.68211179449E+02 -0.43123990822E+03  0.46134655506E+03  0.12000000000E+03 0.  0.
         25    1    1    2    0    0  0.88430879310E+02 -0.68211179449E+02 -0.34995207851E+03  0.38644435909E+03  0.12000000000E+03 0.  0.
<mgrwt>
<rscale>  0 0.32937595E+03</rscale>
<asrwt>0</asrwt>
<pdfrwt beam="1">  1        2 0.12530639E+00 0.32937595E+03</pdfrwt>
<pdfrwt beam="2">  1       -2 0.51229939E-02 0.32937595E+03</pdfrwt>
<totfact> 0.65598832E+03</totfact>
</mgrwt>
</event>
<event>
 4    1  0.1672993E-004  0.3107399E+03  0.7818608E-02  0.1079992E+00
          2   -1    0    0  501    0  0.00000000000E+00  0.00000000000E+00  0.52663085771E+02  0.52663085771E+02  0.00000000000E+00 0. -1.
         -2   -1    0    0    0  501 -0.00000000000E+00 -0.00000000000E+00 -0.45838231854E+03  0.45838231854E+03  0.00000000000E+00 0. -1.
         25    1    1    2    0    0 -0.29723671078E+02  0.91790881326E+02 -0.16872598173E+03  0.22842399048E+03  0.12000000000E+03 0.  0.
         25    1    1    2    0    0  0.29723671078E+02 -0.91790881326E+02 -0.23699325103E+03  0.28262141382E+03  0.12000000000E+03 0.  0.
<mgrwt>
<rscale>  0 0.31073994E+03</rscale>
<asrwt>0</asrwt>
<pdfrwt beam="1">  1        2 0.81020133E-02 0.31073994E+03</pdfrwt>
<pdfrwt beam="2">  1       -2 0.70520355E-01 0.31073994E+03</pdfrwt>
<totfact> 0.15744442E+03</totfact>
</mgrwt>
</event>
<event>
 4    1  0.1672993E-004  0.3404795E+03  0.7818608E-02  0.1066592E+00
          1   -1    0    0  501    0  0.00000000000E+00  0.00000000000E+00  0.11857656175E+04  0.11857656175E+04  0.00000000000E+00 0. -1.
         -1   -1    0    0    0  501 -0.00000000000E+00 -0.00000000000E+00 -0.24441239089E+02  0.24441239089E+02  0.00000000000E+00 0. -1.
         25    1    1    2    0    0 -0.79841711052E+02 -0.90580150768E+02  0.57548880045E+03  0.60013900222E+03  0.12000000000E+03 0.  0.
         25    1    1    2    0    0  0.79841711052E+02  0.90580150768E+02  0.58583557798E+03  0.61006785439E+03  0.12000000000E+03 0.  0.
<mgrwt>
<rscale>  0 0.34047955E+03</rscale>
<asrwt>0</asrwt>
<pdfrwt beam="1">  1        1 0.18242543E+00 0.34047955E+03</pdfrwt>
<pdfrwt beam="2">  1       -1 0.37601915E-02 0.34047955E+03</pdfrwt>
<totfact> 0.31668523E+03</totfact>
</mgrwt>
</event>
<event>
 4    1  0.1672993E-004  0.2474585E+03  0.7818608E-02  0.1114922E+00
          2   -1    0    0  501    0  0.00000000000E+00  0.00000000000E+00  0.16427264600E+03  0.16427264600E+03  0.00000000000E+00 0. -1.
         -2   -1    0    0    0  501 -0.00000000000E+00 -0.00000000000E+00 -0.93192175429E+02  0.93192175429E+02  0.00000000000E+00 0. -1.
         25    1    1    2    0    0 -0.23060608043E+02  0.31135782718E+01  0.15596416801E+02  0.12322635363E+03  0.12000000000E+03 0.  0.
         25    1    1    2    0    0  0.23060608043E+02 -0.31135782718E+01  0.55484053767E+02  0.13423846779E+03  0.12000000000E+03 0.  0.
<mgrwt>
<rscale>  0 0.24745848E+03</rscale>
<asrwt>0</asrwt>
<pdfrwt beam="1">  1        2 0.25272715E-01 0.24745848E+03</pdfrwt>
<pdfrwt beam="2">  1       -2 0.14337258E-01 0.24745848E+03</pdfrwt>
<totfact> 0.77256800E+03</totfact>
</mgrwt>
</event>
<event>
 4    1  0.1672993E-004  0.4053642E+03  0.7818608E-02  0.1041938E+00
          1   -1    0    0  501    0  0.00000000000E+00  0.00000000000E+00  0.23263912185E+03  0.23263912185E+03  0.00000000000E+00 0. -1.
         -1   -1    0    0    0  501 -0.00000000000E+00 -0.00000000000E+00 -0.17658266100E+03  0.17658266100E+03  0.00000000000E+00 0. -1.
         25    1    1    2    0    0  0.35302193784E+02  0.14836756999E+03 -0.31016432012E+02  0.19652277162E+03  0.12000000000E+03 0.  0.
         25    1    1    2    0    0 -0.35302193784E+02 -0.14836756999E+03  0.87072892864E+02  0.21269901124E+03  0.12000000000E+03 0.  0.
<mgrwt>
<rscale>  0 0.40536421E+03</rscale>
<asrwt>0</asrwt>
<pdfrwt beam="1">  1        1 0.35790634E-01 0.40536421E+03</pdfrwt>
<pdfrwt beam="2">  1       -1 0.27166563E-01 0.40536421E+03</pdfrwt>
<totfact> 0.14718817E+03</totfact>
</mgrwt>
</event>
<event>
 4    1  0.1672993E-004  0.2539654E+03  0.7818608E-02  0.1110824E+00
         -2   -1    0    0    0  501 -0.00000000000E+00  0.00000000000E+00  0.20459209004E+02  0.20459209004E+02  0.00000000000E+00 0. -1.
          2   -1    0    0  501    0  0.00000000000E+00 -0.00000000000E+00 -0.78813443875E+03  0.78813443875E+03  0.00000000000E+00 0. -1.
         25    1    1    2    0    0 -0.86727815421E+01 -0.40100504496E+02 -0.40430860827E+03  0.42373189438E+03  0.12000000000E+03 0.  0.
         25    1    1    2    0    0  0.86727815421E+01  0.40100504496E+02 -0.36336662148E+03  0.38486175337E+03  0.12000000000E+03 0.  0.
<mgrwt>
<rscale>  0 0.25396541E+03</rscale>
<asrwt>0</asrwt>
<pdfrwt beam="1">  1        2 0.12125145E+00 0.25396541E+03</pdfrwt>
<pdfrwt beam="2">  1       -2 0.31475707E-02 0.25396541E+03</pdfrwt>
<totfact> 0.14141341E+04</totfact>
</mgrwt>
</event>
<event>
 4    1  0.1672993E-004  0.2788655E+03  0.7818608E-02  0.1096310E+00
         -2   -1    0    0    0  501 -0.00000000000E+00  0.00000000000E+00  0.84650389705E+01  0.84650389705E+01  0.00000000000E+00 0. -1.
          2   -1    0    0  501    0  0.00000000000E+00 -0.00000000000E+00 -0.22966814981E+04  0.22966814981E+04  0.00000000000E+00 0. -1.
         25    1    1    2    0    0  0.45359253172E+02  0.34094794428E+02 -0.79130871173E+03  0.80236487593E+03  0.12000000000E+03 0.  0.
         25    1    1    2    0    0 -0.45359253172E+02 -0.34094794428E+02 -0.14969077473E+04  0.15027816611E+04  0.12000000000E+03 0.  0.
<mgrwt>
<rscale>  0 0.27886555E+03</rscale>
<asrwt>0</asrwt>
<pdfrwt beam="1">  1        2 0.35333542E+00 0.27886555E+03</pdfrwt>
<pdfrwt beam="2">  1       -2 0.13023144E-02 0.27886555E+03</pdfrwt>
<totfact> 0.75003773E+03</totfact>
</mgrwt>
</event>
<event>
 4    1  0.1672993E-004  0.2985584E+03  0.7818608E-02  0.1085963E+00
          3   -1    0    0  501    0  0.00000000000E+00  0.00000000000E+00  0.33677549303E+03  0.33677549303E+03  0.00000000000E+00 0.  1.
         -3   -1    0    0    0  501 -0.00000000000E+00 -0.00000000000E+00 -0.66169536437E+02  0.66169536437E+02  0.00000000000E+00 0.  1.
         25    1    1    2    0    0 -0.73742314717E+02  0.33395886523E+02  0.18454274611E+03  0.23454048554E+03  0.12000000000E+03 0.  0.
         25    1    1    2    0    0  0.73742314717E+02 -0.33395886523E+02  0.86063210487E+02  0.16840454393E+03  0.12000000000E+03 0.  0.
<mgrwt>
<rscale>  0 0.29855839E+03</rscale>
<asrwt>0</asrwt>
<pdfrwt beam="1">  1        3 0.51811613E-01 0.29855839E+03</pdfrwt>
<pdfrwt beam="2">  1       -3 0.10179929E-01 0.29855839E+03</pdfrwt>
<totfact> 0.68227726E+02</totfact>
</mgrwt>
</event>
<event>
 4    1  0.1672993E-004  0.2550701E+03  0.7818608E-02  0.1110142E+00
         -2   -1    0    0    0  501 -0.00000000000E+00  0.00000000000E+00  0.10242642839E+02  0.10242642839E+02  0.00000000000E+00 0.  1.
          2   -1    0    0  501    0  0.00000000000E+00 -0.00000000000E+00 -0.15879871995E+04  0.15879871995E+04  0.00000000000E+00 0.  1.
         25    1    1    2    0    0  0.66910961862E+01  0.10000039143E+02 -0.52897829122E+03  0.54255212112E+03  0.12000000000E+03 0.  0.
         25    1    1    2    0    0 -0.66910961862E+01 -0.10000039143E+02 -0.10487662655E+04  0.10556777213E+04  0.12000000000E+03 0.  0.
<mgrwt>
<rscale>  0 0.25507007E+03</rscale>
<asrwt>0</asrwt>
<pdfrwt beam="1">  1        2 0.24430576E+00 0.25507007E+03</pdfrwt>
<pdfrwt beam="2">  1       -2 0.15757910E-02 0.25507007E+03</pdfrwt>
<totfact> 0.13409458E+04</totfact>
</mgrwt>
</event>
<event>
 4    1  0.1672993E-004  0.2529336E+03  0.7818608E-02  0.1111465E+00
         -1   -1    0    0    0  501 -0.00000000000E+00  0.00000000000E+00  0.25127928256E+02  0.25127928256E+02  0.00000000000E+00 0.  1.
          1   -1    0    0  501    0  0.00000000000E+00 -0.00000000000E+00 -0.63649705555E+03  0.63649705555E+03  0.00000000000E+00 0.  1.
         25    1    1    2    0    0 -0.13992755993E+02  0.33490478204E+02 -0.26219268621E+03  0.29062418009E+03  0.12000000000E+03 0.  0.
         25    1    1    2    0    0  0.13992755993E+02 -0.33490478204E+02 -0.34917644109E+03  0.37100080372E+03  0.12000000000E+03 0.  0.
<mgrwt>
<rscale>  0 0.25293361E+03</rscale>
<asrwt>0</asrwt>
<pdfrwt beam="1">  1        1 0.97922619E-01 0.25293361E+03</pdfrwt>
<pdfrwt beam="2">  1       -1 0.38658353E-02 0.25293361E+03</pdfrwt>
<totfact> 0.83114038E+03</totfact>
</mgrwt>
</event>
<event>
 4    1  0.1672993E-004  0.2710495E+03  0.7818608E-02  0.1100680E+00
         -1   -1    0    0    0  501 -0.00000000000E+00  0.00000000000E+00  0.96387437941E+02  0.96387437941E+02  0.00000000000E+00 0. -1.
          1   -1    0    0  501    0  0.00000000000E+00 -0.00000000000E+00 -0.19055338793E+03  0.19055338793E+03  0.00000000000E+00 0. -1.
         25    1    1    2    0    0  0.51162789758E+02 -0.24885311372E+02 -0.75686399778E+02  0.15285725658E+03  0.12000000000E+03 0.  0.
         25    1    1    2    0    0 -0.51162789758E+02  0.24885311372E+02 -0.18479550212E+02  0.13408356929E+03  0.12000000000E+03 0.  0.
<mgrwt>
<rscale>  0 0.27104946E+03</rscale>
<asrwt>0</asrwt>
<pdfrwt beam="1">  1        1 0.29315905E-01 0.27104946E+03</pdfrwt>
<pdfrwt beam="2">  1       -1 0.14828837E-01 0.27104946E+03</pdfrwt>
<totfact> 0.50675405E+03</totfact>
</mgrwt>
</event>
<event>
 4    1  0.1672993E-004  0.2456653E+03  0.7818608E-02  0.1116075E+00
          1   -1    0    0  501    0  0.00000000000E+00  0.00000000000E+00  0.50106781853E+03  0.50106781853E+03  0.00000000000E+00 0.  1.
         -1   -1    0    0    0  501 -0.00000000000E+00 -0.00000000000E+00 -0.30111423727E+02  0.30111423727E+02  0.00000000000E+00 0.  1.
         25    1    1    2    0    0 -0.41897777965E+01 -0.24726776016E+02  0.25207201844E+03  0.28030210518E+03  0.12000000000E+03 0.  0.
         25    1    1    2    0    0  0.41897777965E+01  0.24726776016E+02  0.21888437636E+03  0.25087713707E+03  0.12000000000E+03 0.  0.
<mgrwt>
<rscale>  0 0.24566534E+03</rscale>
<asrwt>0</asrwt>
<pdfrwt beam="1">  1        1 0.77087351E-01 0.24566534E+03</pdfrwt>
<pdfrwt beam="2">  1       -1 0.46325271E-02 0.24566534E+03</pdfrwt>
<totfact> 0.87921962E+03</totfact>
</mgrwt>
</event>
<event>
 4    1  0.1672993E-004  0.2594501E+03  0.7818608E-02  0.1107474E+00
         -2   -1    0    0    0  501 -0.00000000000E+00  0.00000000000E+00  0.17083365294E+02  0.17083365294E+02  0.00000000000E+00 0.  1.
          2   -1    0    0  501    0  0.00000000000E+00 -0.00000000000E+00 -0.98508607543E+03  0.98508607543E+03  0.00000000000E+00 0.  1.
         25    1    1    2    0    0  0.27525125361E+02  0.24651742882E+02 -0.35804969626E+03  0.37942710228E+03  0.12000000000E+03 0.  0.
         25    1    1    2    0    0 -0.27525125361E+02 -0.24651742882E+02 -0.60995301388E+03  0.62274233844E+03  0.12000000000E+03 0.  0.
<mgrwt>
<rscale>  0 0.25945007E+03</rscale>
<asrwt>0</asrwt>
<pdfrwt beam="1">  1        2 0.15155173E+00 0.25945007E+03</pdfrwt>
<pdfrwt beam="2">  1       -2 0.26282097E-02 0.25945007E+03</pdfrwt>
<totfact> 0.13763729E+04</totfact>
</mgrwt>
</event>
<event>
 4    1  0.1672993E-004  0.3070550E+03  0.7818608E-02  0.1081766E+00
          2   -1    0    0  501    0  0.00000000000E+00  0.00000000000E+00  0.64038033399E+02  0.64038033399E+02  0.00000000000E+00 0.  1.
         -2   -1    0    0    0  501 -0.00000000000E+00 -0.00000000000E+00 -0.36807335461E+03  0.36807335461E+03  0.00000000000E+00 0.  1.
         25    1    1    2    0    0 -0.88036229547E+02  0.34203777840E+02 -0.17428723908E+03  0.23172465953E+03  0.12000000000E+03 0.  0.
         25    1    1    2    0    0  0.88036229547E+02 -0.34203777840E+02 -0.12974808214E+03  0.20038672848E+03  0.12000000000E+03 0.  0.
<mgrwt>
<rscale>  0 0.30705500E+03</rscale>
<asrwt>0</asrwt>
<pdfrwt beam="1">  1        2 0.98520054E-02 0.30705500E+03</pdfrwt>
<pdfrwt beam="2">  1       -2 0.56626669E-01 0.30705500E+03</pdfrwt>
<totfact> 0.19496178E+03</totfact>
</mgrwt>
</event>
<event>
 4    1  0.1672993E-004  0.3354183E+03  0.7818608E-02  0.1068764E+00
          1   -1    0    0  501    0  0.00000000000E+00  0.00000000000E+00  0.14267968645E+03  0.14267968645E+03  0.00000000000E+00 0. -1.
         -1   -1    0    0    0  501 -0.00000000000E+00 -0.00000000000E+00 -0.19712933498E+03  0.19712933498E+03  0.00000000000E+00 0. -1.
         25    1    1    2    0    0  0.26273532988E+02  0.10647840206E+02  0.87941219093E+02  0.15145076115E+03  0.12000000000E+03 0.  0.
         25    1    1    2    0    0 -0.26273532988E+02 -0.10647840206E+02 -0.14239086762E+03  0.18835826029E+03  0.12000000000E+03 0.  0.
<mgrwt>
<rscale>  0 0.33541826E+03</rscale>
<asrwt>0</asrwt>
<pdfrwt beam="1">  1        1 0.21950721E-01 0.33541826E+03</pdfrwt>
<pdfrwt beam="2">  1       -1 0.30327590E-01 0.33541826E+03</pdfrwt>
<totfact> 0.22751795E+03</totfact>
</mgrwt>
</event>
<event>
 4    1  0.1672993E-004  0.2698437E+03  0.7818608E-02  0.1101369E+00
         -1   -1    0    0    0  501 -0.00000000000E+00  0.00000000000E+00  0.46515410170E+02  0.46515410170E+02  0.00000000000E+00 0. -1.
          1   -1    0    0  501    0  0.00000000000E+00 -0.00000000000E+00 -0.39135224830E+03  0.39135224830E+03  0.00000000000E+00 0. -1.
         25    1    1    2    0    0 -0.23550111570E+02 -0.54497319027E+02 -0.14529772272E+03  0.19757528632E+03  0.12000000000E+03 0.  0.
         25    1    1    2    0    0  0.23550111570E+02  0.54497319027E+02 -0.19953911541E+03  0.24029237216E+03  0.12000000000E+03 0.  0.
<mgrwt>
<rscale>  0 0.26984374E+03</rscale>
<asrwt>0</asrwt>
<pdfrwt beam="1">  1        1 0.60208038E-01 0.26984374E+03</pdfrwt>
<pdfrwt beam="2">  1       -1 0.71562169E-02 0.26984374E+03</pdfrwt>
<totfact> 0.63235149E+03</totfact>
</mgrwt>
</event>
<event>
 4    1  0.1672993E-004  0.2540069E+03  0.7818608E-02  0.1110798E+00
         -2   -1    0    0    0  501 -0.00000000000E+00  0.00000000000E+00  0.98142998614E+01  0.98142998614E+01  0.00000000000E+00 0. -1.
          2   -1    0    0  501    0  0.00000000000E+00 -0.00000000000E+00 -0.16435076515E+04  0.16435076515E+04  0.00000000000E+00 0. -1.
         25    1    1    2    0    0  0.24122226338E+02  0.45670964616E+01 -0.10353712151E+04  0.10425911439E+04  0.12000000000E+03 0.  0.
         25    1    1    2    0    0 -0.24122226338E+02 -0.45670964616E+01 -0.59832213653E+03  0.61073080750E+03  0.12000000000E+03 0.  0.
<mgrwt>
<rscale>  0 0.25400690E+03</rscale>
<asrwt>0</asrwt>
<pdfrwt beam="1">  1        2 0.25284720E+00 0.25400690E+03</pdfrwt>
<pdfrwt beam="2">  1       -2 0.15098930E-02 0.25400690E+03</pdfrwt>
<totfact> 0.13340077E+04</totfact>
</mgrwt>
</event>
<event>
 4    1  0.1672993E-004  0.2576546E+03  0.7818608E-02  0.1108561E+00
          1   -1    0    0  501    0  0.00000000000E+00  0.00000000000E+00  0.35518364091E+03  0.35518364091E+03  0.00000000000E+00 0. -1.
         -1   -1    0    0    0  501 -0.00000000000E+00 -0.00000000000E+00 -0.46726450696E+02  0.46726450696E+02  0.00000000000E+00 0. -1.
         25    1    1    2    0    0 -0.14390154681E+02 -0.43515042547E+02  0.13895806783E+03  0.18923525066E+03  0.12000000000E+03 0.  0.
         25    1    1    2    0    0  0.14390154681E+02  0.43515042547E+02  0.16949912238E+03  0.21267484094E+03  0.12000000000E+03 0.  0.
<mgrwt>
<rscale>  0 0.25765458E+03</rscale>
<asrwt>0</asrwt>
<pdfrwt beam="1">  1        1 0.54643635E-01 0.25765458E+03</pdfrwt>
<pdfrwt beam="2">  1       -1 0.71886849E-02 0.25765458E+03</pdfrwt>
<totfact> 0.70935952E+03</totfact>
</mgrwt>
</event>
<event>
 4    1  0.1672993E-004  0.3250292E+03  0.7818608E-02  0.1073358E+00
         -1   -1    0    0    0  501 -0.00000000000E+00  0.00000000000E+00  0.49120502294E+02  0.49120502294E+02  0.00000000000E+00 0. -1.
          1   -1    0    0  501    0  0.00000000000E+00 -0.00000000000E+00 -0.53767776698E+03  0.53767776698E+03  0.00000000000E+00 0. -1.
         25    1    1    2    0    0 -0.47946401203E+02  0.34272953128E+02 -0.41109243557E+03  0.43228518745E+03  0.12000000000E+03 0.  0.
         25    1    1    2    0    0  0.47946401203E+02 -0.34272953128E+02 -0.77464829108E+02  0.15451308182E+03  0.12000000000E+03 0.  0.
<mgrwt>
<rscale>  0 0.32502924E+03</rscale>
<asrwt>0</asrwt>
<pdfrwt beam="1">  1        1 0.82719656E-01 0.32502924E+03</pdfrwt>
<pdfrwt beam="2">  1       -1 0.75570004E-02 0.32502924E+03</pdfrwt>
<totfact> 0.38518656E+03</totfact>
</mgrwt>
</event>
<event>
 4    1  0.1672993E-004  0.3321066E+03  0.7818608E-02  0.1070209E+00
          1   -1    0    0  501    0  0.00000000000E+00  0.00000000000E+00  0.64948510983E+03  0.64948510983E+03  0.00000000000E+00 0.  1.
         -1   -1    0    0    0  501 -0.00000000000E+00 -0.00000000000E+00 -0.42454714111E+02  0.42454714111E+02  0.00000000000E+00 0.  1.
         25    1    1    2    0    0 -0.60118204303E+02  0.47983900083E+01  0.10005247163E+03  0.16747453572E+03  0.12000000000E+03 0.  0.
         25    1    1    2    0    0  0.60118204303E+02 -0.47983900083E+01  0.50697792409E+03  0.52446528822E+03  0.12000000000E+03 0.  0.
<mgrwt>
<rscale>  0 0.33210664E+03</rscale>
<asrwt>0</asrwt>
<pdfrwt beam="1">  1        1 0.99920779E-01 0.33210664E+03</pdfrwt>
<pdfrwt beam="2">  1       -1 0.65314949E-02 0.33210664E+03</pdfrwt>
<totfact> 0.36996437E+03</totfact>
</mgrwt>
</event>
<event>
 4    1  0.1672993E-004  0.2880225E+03  0.7818608E-02  0.1091386E+00
         -2   -1    0    0    0  501 -0.00000000000E+00  0.00000000000E+00  0.11866207966E+03  0.11866207966E+03  0.00000000000E+00 0.  1.
          2   -1    0    0  501    0  0.00000000000E+00 -0.00000000000E+00 -0.17477563004E+03  0.17477563004E+03  0.00000000000E+00 0.  1.
         25    1    1    2    0    0 -0.43544338537E+02 -0.61622900699E+02 -0.53946127787E+02  0.15166962785E+03  0.12000000000E+03 0.  0.
         25    1    1    2    0    0  0.43544338537E+02  0.61622900699E+02 -0.21674225909E+01  0.14176808184E+03  0.12000000000E+03 0.  0.
<mgrwt>
<rscale>  0 0.28802250E+03</rscale>
<asrwt>0</asrwt>
<pdfrwt beam="1">  1        2 0.26888558E-01 0.28802250E+03</pdfrwt>
<pdfrwt beam="2">  1       -2 0.18255705E-01 0.28802250E+03</pdfrwt>
<totfact> 0.48497749E+03</totfact>
</mgrwt>
</event>
<event>
 4    1  0.1672993E-004  0.2687496E+03  0.7818608E-02  0.1101997E+00
          1   -1    0    0  501    0  0.00000000000E+00  0.00000000000E+00  0.45262527763E+03  0.45262527763E+03  0.00000000000E+00 0. -1.
         -1   -1    0    0    0  501 -0.00000000000E+00 -0.00000000000E+00 -0.39893000138E+02  0.39893000138E+02  0.00000000000E+00 0. -1.
         25    1    1    2    0    0  0.21064912074E+02  0.40459541622E+02  0.13361571617E+03  0.18529399514E+03  0.12000000000E+03 0.  0.
         25    1    1    2    0    0 -0.21064912074E+02 -0.40459541622E+02  0.27911656132E+03  0.30722428262E+03  0.12000000000E+03 0.  0.
<mgrwt>
<rscale>  0 0.26874955E+03</rscale>
<asrwt>0</asrwt>
<pdfrwt beam="1">  1        1 0.69634654E-01 0.26874955E+03</pdfrwt>
<pdfrwt beam="2">  1       -1 0.61373850E-02 0.26874955E+03</pdfrwt>
<totfact> 0.66122971E+03</totfact>
</mgrwt>
</event>
<event>
 4    1  0.1672993E-004  0.2480669E+03  0.7818608E-02  0.1114533E+00
         -1   -1    0    0    0  501 -0.00000000000E+00  0.00000000000E+00  0.92505086326E+02  0.92505086326E+02  0.00000000000E+00 0.  1.
          1   -1    0    0  501    0  0.00000000000E+00 -0.00000000000E+00 -0.16630762298E+03  0.16630762298E+03  0.00000000000E+00 0.  1.
         25    1    1    2    0    0  0.64941379459E+01 -0.13254488098E+02 -0.65785274277E+02  0.13764286249E+03  0.12000000000E+03 0.  0.
         25    1    1    2    0    0 -0.64941379459E+01  0.13254488098E+02 -0.80172623795E+01  0.12116984682E+03  0.12000000000E+03 0.  0.
<mgrwt>
<rscale>  0 0.24806693E+03</rscale>
<asrwt>0</asrwt>
<pdfrwt beam="1">  1        1 0.25585788E-01 0.24806693E+03</pdfrwt>
<pdfrwt beam="2">  1       -1 0.14231552E-01 0.24806693E+03</pdfrwt>
<totfact> 0.64032007E+03</totfact>
</mgrwt>
</event>
<event>
 4    1  0.1672993E-004  0.4296435E+03  0.7818608E-02  0.1033973E+00
         -1   -1    0    0    0  501 -0.00000000000E+00  0.00000000000E+00  0.23781815756E+02  0.23781815756E+02  0.00000000000E+00 0.  1.
          1   -1    0    0  501    0  0.00000000000E+00 -0.00000000000E+00 -0.19404899113E+04  0.19404899113E+04  0.00000000000E+00 0.  1.
         25    1    1    2    0    0 -0.12038359914E+03 -0.52942185054E+02 -0.40871612033E+03  0.44580708038E+03  0.12000000000E+03 0.  0.
         25    1    1    2    0    0  0.12038359914E+03  0.52942185054E+02 -0.15079919753E+04  0.15184646467E+04  0.12000000000E+03 0.  0.
<mgrwt>
<rscale>  0 0.42964345E+03</rscale>
<asrwt>0</asrwt>
<pdfrwt beam="1">  1        1 0.29853695E+00 0.42964345E+03</pdfrwt>
<pdfrwt beam="2">  1       -1 0.36587404E-02 0.42964345E+03</pdfrwt>
<totfact> 0.10232721E+03</totfact>
</mgrwt>
</event>
<event>
 4    1  0.1672993E-004  0.3573684E+03  0.7818608E-02  0.1059631E+00
          1   -1    0    0  501    0  0.00000000000E+00  0.00000000000E+00  0.24182283043E+03  0.24182283043E+03  0.00000000000E+00 0.  1.
         -1   -1    0    0    0  501 -0.00000000000E+00 -0.00000000000E+00 -0.13203074126E+03  0.13203074126E+03  0.00000000000E+00 0.  1.
         25    1    1    2    0    0  0.12585701254E+03  0.40440088804E+02  0.62487452885E+02  0.18915620571E+03  0.12000000000E+03 0.  0.
         25    1    1    2    0    0 -0.12585701254E+03 -0.40440088804E+02  0.47304636289E+02  0.18469736599E+03  0.12000000000E+03 0.  0.
<mgrwt>
<rscale>  0 0.35736842E+03</rscale>
<asrwt>0</asrwt>
<pdfrwt beam="1">  1        1 0.37203512E-01 0.35736842E+03</pdfrwt>
<pdfrwt beam="2">  1       -1 0.20312422E-01 0.35736842E+03</pdfrwt>
<totfact> 0.22727176E+03</totfact>
</mgrwt>
</event>
<event>
 4    1  0.1672993E-004  0.3026931E+03  0.7818608E-02  0.1083902E+00
         -2   -1    0    0    0  501 -0.00000000000E+00  0.00000000000E+00  0.27495254178E+02  0.27495254178E+02  0.00000000000E+00 0.  1.
          2   -1    0    0  501    0  0.00000000000E+00 -0.00000000000E+00 -0.83308091229E+03  0.83308091229E+03  0.00000000000E+00 0.  1.
         25    1    1    2    0    0  0.77544600861E+02 -0.22034521921E+01 -0.26098822830E+03  0.29754474560E+03  0.12000000000E+03 0.  0.
         25    1    1    2    0    0 -0.77544600861E+02  0.22034521921E+01 -0.54459742981E+03  0.56303142087E+03  0.12000000000E+03 0.  0.
<mgrwt>
<rscale>  0 0.30269306E+03</rscale>
<asrwt>0</asrwt>
<pdfrwt beam="1">  1        2 0.12816627E+00 0.30269306E+03</pdfrwt>
<pdfrwt beam="2">  1       -2 0.42300400E-02 0.30269306E+03</pdfrwt>
<totfact> 0.85068423E+03</totfact>
</mgrwt>
</event>
<event>
 4    1  0.1672993E-004  0.3060857E+03  0.7818608E-02  0.1082237E+00
          2   -1    0    0  501    0  0.00000000000E+00  0.00000000000E+00  0.22810772389E+03  0.22810772389E+03  0.00000000000E+00 0. -1.
         -2   -1    0    0    0  501 -0.00000000000E+00 -0.00000000000E+00 -0.10268006184E+03  0.10268006184E+03  0.00000000000E+00 0. -1.
         25    1    1    2    0    0  0.17758239276E+02 -0.86957222388E+02  0.26141942494E+02  0.15152661398E+03  0.12000000000E+03 0.  0.
         25    1    1    2    0    0 -0.17758239276E+02  0.86957222388E+02  0.99285719564E+02  0.17926117175E+03  0.12000000000E+03 0.  0.
<mgrwt>
<rscale>  0 0.30608571E+03</rscale>
<asrwt>0</asrwt>
<pdfrwt beam="1">  1        2 0.35093496E-01 0.30608571E+03</pdfrwt>
<pdfrwt beam="2">  1       -2 0.15796933E-01 0.30608571E+03</pdfrwt>
<totfact> 0.46224092E+03</totfact>
</mgrwt>
</event>
<event>
 4    1  0.1672993E-004  0.3405111E+03  0.7818608E-02  0.1066578E+00
          3   -1    0    0  501    0  0.00000000000E+00  0.00000000000E+00  0.72544626917E+03  0.72544626917E+03  0.00000000000E+00 0. -1.
         -3   -1    0    0    0  501 -0.00000000000E+00 -0.00000000000E+00 -0.39957411744E+02  0.39957411744E+02  0.00000000000E+00 0. -1.
         25    1    1    2    0    0  0.30905305132E+01  0.11477810082E+03  0.25853733734E+03  0.30728670425E+03  0.12000000000E+03 0.  0.
         25    1    1    2    0    0 -0.30905305132E+01 -0.11477810082E+03  0.42695152009E+03  0.45811697667E+03  0.12000000000E+03 0.  0.
<mgrwt>
<rscale>  0 0.34051112E+03</rscale>
<asrwt>0</asrwt>
<pdfrwt beam="1">  1        3 0.11160711E+00 0.34051112E+03</pdfrwt>
<pdfrwt beam="2">  1       -3 0.61472947E-02 0.34051112E+03</pdfrwt>
<totfact> 0.29642410E+02</totfact>
</mgrwt>
</event>
<event>
 4    1  0.1672993E-004  0.2559471E+03  0.7818608E-02  0.1109603E+00
         -3   -1    0    0    0  501 -0.00000000000E+00  0.00000000000E+00  0.90035846798E+02  0.90035846798E+02  0.00000000000E+00 0.  1.
          3   -1    0    0  501    0  0.00000000000E+00 -0.00000000000E+00 -0.18189678417E+03  0.18189678417E+03  0.00000000000E+00 0.  1.
         25    1    1    2    0    0  0.11188102688E+02  0.43001862851E+02 -0.47738875043E+02  0.13657720908E+03  0.12000000000E+03 0.  0.
         25    1    1    2    0    0 -0.11188102688E+02 -0.43001862851E+02 -0.44122062332E+02  0.13535542189E+03  0.12000000000E+03 0.  0.
<mgrwt>
<rscale>  0 0.25594711E+03</rscale>
<asrwt>0</asrwt>
<pdfrwt beam="1">  1        3 0.27984120E-01 0.25594711E+03</pdfrwt>
<pdfrwt beam="2">  1       -3 0.13851669E-01 0.25594711E+03</pdfrwt>
<totfact> 0.13123794E+03</totfact>
</mgrwt>
</event>
<event>
 4    1  0.1672993E-004  0.4670048E+03  0.7818608E-02  0.1022769E+00
         -2   -1    0    0    0  501 -0.00000000000E+00  0.00000000000E+00  0.30118323844E+02  0.30118323844E+02  0.00000000000E+00 0. -1.
          2   -1    0    0  501    0  0.00000000000E+00 -0.00000000000E+00 -0.18103055903E+04  0.18103055903E+04  0.00000000000E+00 0. -1.
         25    1    1    2    0    0 -0.16665436049E+03 -0.10842236085E+03 -0.79402221297E+03  0.82728493211E+03  0.12000000000E+03 0.  0.
         25    1    1    2    0    0  0.16665436049E+03  0.10842236085E+03 -0.98616505348E+03  0.10131389820E+04  0.12000000000E+03 0.  0.
<mgrwt>
<rscale>  0 0.46700480E+03</rscale>
<asrwt>0</asrwt>
<pdfrwt beam="1">  1        2 0.27850861E+00 0.46700480E+03</pdfrwt>
<pdfrwt beam="2">  1       -2 0.46335873E-02 0.46700480E+03</pdfrwt>
<totfact> 0.20374377E+03</totfact>
</mgrwt>
</event>
<event>
 4    1  0.1672993E-004  0.3375564E+03  0.7818608E-02  0.1067841E+00
         -2   -1    0    0    0  501 -0.00000000000E+00  0.00000000000E+00  0.28616727194E+02  0.28616727194E+02  0.00000000000E+00 0.  1.
          2   -1    0    0  501    0  0.00000000000E+00 -0.00000000000E+00 -0.99543463639E+03  0.99543463639E+03  0.00000000000E+00 0.  1.
         25    1    1    2    0    0 -0.11850167375E+03 -0.14299543539E+01 -0.46389150879E+03  0.49359905123E+03  0.12000000000E+03 0.  0.
         25    1    1    2    0    0  0.11850167375E+03  0.14299543539E+01 -0.50292640041E+03  0.53045231235E+03  0.12000000000E+03 0.  0.
<mgrwt>
<rscale>  0 0.33755640E+03</rscale>
<asrwt>0</asrwt>
<pdfrwt beam="1">  1        2 0.15314379E+00 0.33755640E+03</pdfrwt>
<pdfrwt beam="2">  1       -2 0.44025734E-02 0.33755640E+03</pdfrwt>
<totfact> 0.63040355E+03</totfact>
</mgrwt>
</event>
<event>
 4    1  0.1672993E-004  0.2848287E+03  0.7818608E-02  0.1093080E+00
         -1   -1    0    0    0  501 -0.00000000000E+00  0.00000000000E+00  0.14828678305E+02  0.14828678305E+02  0.00000000000E+00 0.  1.
          1   -1    0    0  501    0  0.00000000000E+00 -0.00000000000E+00 -0.13677443737E+04  0.13677443737E+04  0.00000000000E+00 0.  1.
         25    1    1    2    0    0 -0.33834967149E+02 -0.58581651224E+01 -0.34358460984E+03  0.36555369950E+03  0.12000000000E+03 0.  0.
         25    1    1    2    0    0  0.33834967149E+02  0.58581651224E+01 -0.10093310856E+04  0.10170193525E+04  0.12000000000E+03 0.  0.
<mgrwt>
<rscale>  0 0.28482866E+03</rscale>
<asrwt>0</asrwt>
<pdfrwt beam="1">  1        1 0.21042226E+00 0.28482866E+03</pdfrwt>
<pdfrwt beam="2">  1       -1 0.22813346E-02 0.28482866E+03</pdfrwt>
<totfact> 0.49627973E+03</totfact>
</mgrwt>
</event>
<event>
 4    1  0.1672993E-004  0.2537508E+03  0.7818608E-02  0.1110957E+00
         -2   -1    0    0    0  501 -0.00000000000E+00  0.00000000000E+00  0.11356038275E+03  0.11356038275E+03  0.00000000000E+00 0. -1.
          2   -1    0    0  501    0  0.00000000000E+00 -0.00000000000E+00 -0.14175157856E+03  0.14175157856E+03  0.00000000000E+00 0. -1.
         25    1    1    2    0    0  0.26471974283E+02  0.22667498506E+02  0.80119002368E+01  0.12521490110E+03  0.12000000000E+03 0.  0.
         25    1    1    2    0    0 -0.26471974283E+02 -0.22667498506E+02 -0.36203096048E+02  0.13009706021E+03  0.12000000000E+03 0.  0.
<mgrwt>
<rscale>  0 0.25375077E+03</rscale>
<asrwt>0</asrwt>
<pdfrwt beam="1">  1        2 0.21807935E-01 0.25375077E+03</pdfrwt>
<pdfrwt beam="2">  1       -2 0.17470828E-01 0.25375077E+03</pdfrwt>
<totfact> 0.65741530E+03</totfact>
</mgrwt>
</event>
<event>
 4    1  0.1672993E-004  0.2617282E+03  0.7818608E-02  0.1106109E+00
          2   -1    0    0  501    0  0.00000000000E+00  0.00000000000E+00  0.21788972230E+04  0.21788972230E+04  0.00000000000E+00 0. -1.
         -2   -1    0    0    0  501 -0.00000000000E+00 -0.00000000000E+00 -0.78596722818E+01  0.78596722818E+01  0.00000000000E+00 0. -1.
         25    1    1    2    0    0 -0.31597575206E+02  0.20741019473E+02  0.78464106761E+03  0.79466357764E+03  0.12000000000E+03 0.  0.
         25    1    1    2    0    0  0.31597575206E+02 -0.20741019473E+02  0.13863964831E+04  0.13920933176E+04  0.12000000000E+03 0.  0.
<mgrwt>
<rscale>  0 0.26172824E+03</rscale>
<asrwt>0</asrwt>
<pdfrwt beam="1">  1        2 0.33521448E+00 0.26172824E+03</pdfrwt>
<pdfrwt beam="2">  1       -2 0.12091821E-02 0.26172824E+03</pdfrwt>
<totfact> 0.96545656E+03</totfact>
</mgrwt>
</event>
<event>
 4    1  0.1672993E-004  0.2778683E+03  0.7818608E-02  0.1096859E+00
          2   -1    0    0  501    0  0.00000000000E+00  0.00000000000E+00  0.11564191420E+04  0.11564191420E+04  0.00000000000E+00 0. -1.
         -2   -1    0    0    0  501 -0.00000000000E+00 -0.00000000000E+00 -0.16691781347E+02  0.16691781347E+02  0.00000000000E+00 0. -1.
         25    1    1    2    0    0 -0.55020987124E+02 -0.40126297177E+02  0.63862456940E+03  0.65335960190E+03  0.12000000000E+03 0.  0.
         25    1    1    2    0    0  0.55020987124E+02  0.40126297177E+02  0.50110279128E+03  0.51975132148E+03  0.12000000000E+03 0.  0.
<mgrwt>
<rscale>  0 0.27786828E+03</rscale>
<asrwt>0</asrwt>
<pdfrwt beam="1">  1        2 0.17791057E+00 0.27786828E+03</pdfrwt>
<pdfrwt beam="2">  1       -2 0.25679673E-02 0.27786828E+03</pdfrwt>
<totfact> 0.11292332E+04</totfact>
</mgrwt>
</event>
<event>
 4    1  0.1672993E-004  0.2469302E+03  0.7818608E-02  0.1115260E+00
         -1   -1    0    0    0  501 -0.00000000000E+00  0.00000000000E+00  0.15505330080E+02  0.15505330080E+02  0.00000000000E+00 0. -1.
          1   -1    0    0  501    0  0.00000000000E+00 -0.00000000000E+00 -0.98312194269E+03  0.98312194269E+03  0.00000000000E+00 0. -1.
         25    1    1    2    0    0  0.15732827807E+01  0.25948744915E+02 -0.43141834944E+03  0.44855055993E+03  0.12000000000E+03 0.  0.
         25    1    1    2    0    0 -0.15732827807E+01 -0.25948744915E+02 -0.53619826317E+03  0.55007671283E+03  0.12000000000E+03 0.  0.
<mgrwt>
<rscale>  0 0.24693019E+03</rscale>
<asrwt>0</asrwt>
<pdfrwt beam="1">  1        1 0.15124954E+00 0.24693019E+03</pdfrwt>
<pdfrwt beam="2">  1       -1 0.23854353E-02 0.24693019E+03</pdfrwt>
<totfact> 0.86697369E+03</totfact>
</mgrwt>
</event>
<event>
 4    1  0.1672993E-004  0.2757315E+03  0.7818608E-02  0.1098043E+00
          2   -1    0    0  501    0  0.00000000000E+00  0.00000000000E+00  0.21855225315E+03  0.21855225315E+03  0.00000000000E+00 0.  1.
         -2   -1    0    0    0  501 -0.00000000000E+00 -0.00000000000E+00 -0.86967582258E+02  0.86967582258E+02  0.00000000000E+00 0.  1.
         25    1    1    2    0    0  0.12255775656E+02  0.10555690022E+02  0.13883299335E+03  0.18421787826E+03  0.12000000000E+03 0.  0.
         25    1    1    2    0    0 -0.12255775656E+02 -0.10555690022E+02 -0.72483224605E+01  0.12130195715E+03  0.12000000000E+03 0.  0.
<mgrwt>
<rscale>  0 0.27573147E+03</rscale>
<asrwt>0</asrwt>
<pdfrwt beam="1">  1        2 0.33623423E-01 0.27573147E+03</pdfrwt>
<pdfrwt beam="2">  1       -2 0.13379628E-01 0.27573147E+03</pdfrwt>
<totfact> 0.63477330E+03</totfact>
</mgrwt>
</event>
<event>
 4    1  0.1672993E-004  0.3673466E+03  0.7818608E-02  0.1055712E+00
         -1   -1    0    0    0  501 -0.00000000000E+00  0.00000000000E+00  0.10517460873E+04  0.10517460873E+04  0.00000000000E+00 0. -1.
          1   -1    0    0  501    0  0.00000000000E+00 -0.00000000000E+00 -0.32076076716E+02  0.32076076716E+02  0.00000000000E+00 0. -1.
         25    1    1    2    0    0  0.13816968634E+02  0.12211648622E+03  0.70178259614E+03  0.72249716752E+03  0.12000000000E+03 0.  0.
         25    1    1    2    0    0 -0.13816968634E+02 -0.12211648622E+03  0.31788741442E+03  0.36132499647E+03  0.12000000000E+03 0.  0.
<mgrwt>
<rscale>  0 0.36734664E+03</rscale>
<asrwt>0</asrwt>
<pdfrwt beam="1">  1        1 0.49347818E-02 0.36734664E+03</pdfrwt>
<pdfrwt beam="2">  1       -1 0.16180706E+00 0.36734664E+03</pdfrwt>
<totfact> 0.52329533E+02</totfact>
</mgrwt>
</event>
<event>
 4    1  0.1672993E-004  0.2792542E+03  0.7818608E-02  0.1096097E+00
          2   -1    0    0  501    0  0.00000000000E+00  0.00000000000E+00  0.46216765431E+03  0.46216765431E+03  0.00000000000E+00 0.  1.
         -2   -1    0    0    0  501 -0.00000000000E+00 -0.00000000000E+00 -0.42183239717E+02  0.42183239717E+02  0.00000000000E+00 0.  1.
         25    1    1    2    0    0  0.48817445394E+02 -0.11254251853E+02  0.11815022327E+03  0.17569654640E+03  0.12000000000E+03 0.  0.
         25    1    1    2    0    0 -0.48817445394E+02  0.11254251853E+02  0.30183419132E+03  0.32865434762E+03  0.12000000000E+03 0.  0.
<mgrwt>
<rscale>  0 0.27925421E+03</rscale>
<asrwt>0</asrwt>
<pdfrwt beam="1">  1        2 0.71102713E-01 0.27925421E+03</pdfrwt>
<pdfrwt beam="2">  1       -2 0.64897295E-02 0.27925421E+03</pdfrwt>
<totfact> 0.88690351E+03</totfact>
</mgrwt>
</event>
<event>
 4    1  0.1672993E-004  0.4160184E+03  0.7818608E-02  0.1038370E+00
         -2   -1    0    0    0  501 -0.00000000000E+00  0.00000000000E+00  0.57742925482E+02  0.57742925482E+02  0.00000000000E+00 0. -1.
          2   -1    0    0  501    0  0.00000000000E+00 -0.00000000000E+00 -0.74931835295E+03  0.74931835295E+03  0.00000000000E+00 0. -1.
         25    1    1    2    0    0  0.22535323793E+02 -0.64768993920E+02 -0.44218451982E+02  0.14511421325E+03  0.12000000000E+03 0.  0.
         25    1    1    2    0    0 -0.22535323793E+02  0.64768993920E+02 -0.64735697549E+03  0.66194706519E+03  0.12000000000E+03 0.  0.
<mgrwt>
<rscale>  0 0.41601843E+03</rscale>
<asrwt>0</asrwt>
<pdfrwt beam="1">  1        2 0.11527974E+00 0.41601843E+03</pdfrwt>
<pdfrwt beam="2">  1       -2 0.88835277E-02 0.41601843E+03</pdfrwt>
<totfact> 0.31051935E+03</totfact>
</mgrwt>
</event>
<event>
 4    1  0.1672993E-004  0.2852189E+03  0.7818608E-02  0.1092872E+00
         -2   -1    0    0    0  501 -0.00000000000E+00  0.00000000000E+00  0.20298712913E+02  0.20298712913E+02  0.00000000000E+00 0. -1.
          2   -1    0    0  501    0  0.00000000000E+00 -0.00000000000E+00 -0.10019087410E+04  0.10019087410E+04  0.00000000000E+00 0. -1.
         25    1    1    2    0    0 -0.76351776272E+02 -0.13235470414E+01 -0.52772348852E+03  0.54655596772E+03  0.12000000000E+03 0.  0.
         25    1    1    2    0    0  0.76351776272E+02  0.13235470414E+01 -0.45388653958E+03  0.47565148621E+03  0.12000000000E+03 0.  0.
<mgrwt>
<rscale>  0 0.28521892E+03</rscale>
<asrwt>0</asrwt>
<pdfrwt beam="1">  1        2 0.15413979E+00 0.28521892E+03</pdfrwt>
<pdfrwt beam="2">  1       -2 0.31228793E-02 0.28521892E+03</pdfrwt>
<totfact> 0.10434355E+04</totfact>
</mgrwt>
</event>
<event>
 4    1  0.1672993E-004  0.2546564E+03  0.7818608E-02  0.1110397E+00
         -1   -1    0    0    0  501 -0.00000000000E+00  0.00000000000E+00  0.83057156881E+01  0.83057156881E+01  0.00000000000E+00 0.  1.
          1   -1    0    0  501    0  0.00000000000E+00 -0.00000000000E+00 -0.19519648448E+04  0.19519648448E+04  0.00000000000E+00 0.  1.
         25    1    1    2    0    0  0.39715485303E+02 -0.73527810022E+01 -0.10754150687E+04  0.10828429956E+04  0.12000000000E+03 0.  0.
         25    1    1    2    0    0 -0.39715485303E+02  0.73527810022E+01 -0.86824406040E+03  0.87742756486E+03  0.12000000000E+03 0.  0.
<mgrwt>
<rscale>  0 0.25465636E+03</rscale>
<asrwt>0</asrwt>
<pdfrwt beam="1">  1        1 0.30030254E+00 0.25465636E+03</pdfrwt>
<pdfrwt beam="2">  1       -1 0.12778013E-02 0.25465636E+03</pdfrwt>
<totfact> 0.47752928E+03</totfact>
</mgrwt>
</event>
<event>
 4    1  0.1672993E-004  0.2948172E+03  0.7818608E-02  0.1087861E+00
         -1   -1    0    0    0  501 -0.00000000000E+00  0.00000000000E+00  0.35459482821E+02  0.35459482821E+02  0.00000000000E+00 0.  1.
          1   -1    0    0  501    0  0.00000000000E+00 -0.00000000000E+00 -0.61279205486E+03  0.61279205486E+03  0.00000000000E+00 0.  1.
         25    1    1    2    0    0 -0.74610486090E+02  0.26660872638E+02 -0.21735641423E+03  0.26061722424E+03  0.12000000000E+03 0.  0.
         25    1    1    2    0    0  0.74610486090E+02 -0.26660872638E+02 -0.35997615781E+03  0.38763431344E+03  0.12000000000E+03 0.  0.
<mgrwt>
<rscale>  0 0.29481716E+03</rscale>
<asrwt>0</asrwt>
<pdfrwt beam="1">  1        1 0.94275699E-01 0.29481716E+03</pdfrwt>
<pdfrwt beam="2">  1       -1 0.54553052E-02 0.29481716E+03</pdfrwt>
<totfact> 0.52639311E+03</totfact>
</mgrwt>
</event>
<event>
 4    1  0.1672993E-004  0.5455860E+03  0.7818608E-02  0.1002521E+00
          2   -1    0    0  501    0  0.00000000000E+00  0.00000000000E+00  0.31193510640E+03  0.31193510640E+03  0.00000000000E+00 0. -1.
         -2   -1    0    0    0  501 -0.00000000000E+00 -0.00000000000E+00 -0.23856254025E+03  0.23856254025E+03  0.00000000000E+00 0. -1.
         25    1    1    2    0    0 -0.27205874465E+02  0.93110145162E+02 -0.19029749632E+03  0.24499550168E+03  0.12000000000E+03 0.  0.
         25    1    1    2    0    0  0.27205874465E+02 -0.93110145162E+02  0.26367006247E+03  0.30550214497E+03  0.12000000000E+03 0.  0.
<mgrwt>
<rscale>  0 0.54558604E+03</rscale>
<asrwt>0</asrwt>
<pdfrwt beam="1">  1        2 0.47990016E-01 0.54558604E+03</pdfrwt>
<pdfrwt beam="2">  1       -2 0.36701929E-01 0.54558604E+03</pdfrwt>
<totfact> 0.73873385E+02</totfact>
</mgrwt>
</event>
<event>
 4    1  0.1672993E-004  0.3320210E+03  0.7818608E-02  0.1070246E+00
          1   -1    0    0  501    0  0.00000000000E+00  0.00000000000E+00  0.63760327256E+02  0.63760327256E+02  0.00000000000E+00 0. -1.
         -1   -1    0    0    0  501 -0.00000000000E+00 -0.00000000000E+00 -0.43223558780E+03  0.43223558780E+03  0.00000000000E+00 0. -1.
         25    1    1    2    0    0 -0.61745432490E+01 -0.10383823575E+03 -0.25648560459E+03  0.30167096239E+03  0.12000000000E+03 0.  0.
         25    1    1    2    0    0  0.61745432490E+01  0.10383823575E+03 -0.11198965595E+03  0.19432495266E+03  0.12000000000E+03 0.  0.
<mgrwt>
<rscale>  0 0.33202098E+03</rscale>
<asrwt>0</asrwt>
<pdfrwt beam="1">  1        1 0.98092812E-02 0.33202098E+03</pdfrwt>
<pdfrwt beam="2">  1       -1 0.66497782E-01 0.33202098E+03</pdfrwt>
<totfact> 0.15686499E+03</totfact>
</mgrwt>
</event>
<event>
 4    1  0.1672993E-004  0.2633499E+03  0.7818608E-02  0.1105147E+00
          4   -1    0    0  501    0  0.00000000000E+00  0.00000000000E+00  0.33604447282E+03  0.33604447282E+03  0.00000000000E+00 0.  1.
         -4   -1    0    0    0  501 -0.00000000000E+00 -0.00000000000E+00 -0.51595225129E+02  0.51595225129E+02  0.00000000000E+00 0.  1.
         25    1    1    2    0    0  0.43410083085E+02  0.64322177724E+01  0.18906157992E+03  0.22818871519E+03  0.12000000000E+03 0.  0.
         25    1    1    2    0    0 -0.43410083085E+02 -0.64322177724E+01  0.95387667768E+02  0.15945098275E+03  0.12000000000E+03 0.  0.
<mgrwt>
<rscale>  0 0.26334988E+03</rscale>
<asrwt>0</asrwt>
<pdfrwt beam="1">  1        4 0.51699148E-01 0.26334988E+03</pdfrwt>
<pdfrwt beam="2">  1       -4 0.79377271E-02 0.26334988E+03</pdfrwt>
<totfact> 0.75492646E+02</totfact>
</mgrwt>
</event>
<event>
 4    1  0.1672993E-004  0.2691785E+03  0.7818608E-02  0.1101751E+00
          2   -1    0    0  501    0  0.00000000000E+00  0.00000000000E+00  0.16768305986E+04  0.16768305986E+04  0.00000000000E+00 0. -1.
         -2   -1    0    0    0  501 -0.00000000000E+00 -0.00000000000E+00 -0.10802681198E+02  0.10802681198E+02  0.00000000000E+00 0. -1.
         25    1    1    2    0    0 -0.52803029517E+02 -0.24486250997E+02  0.71972196192E+03  0.73197502614E+03  0.12000000000E+03 0.  0.
         25    1    1    2    0    0  0.52803029517E+02  0.24486250997E+02  0.94630595549E+03  0.95565825367E+03  0.12000000000E+03 0.  0.
<mgrwt>
<rscale>  0 0.26917850E+03</rscale>
<asrwt>0</asrwt>
<pdfrwt beam="1">  1        2 0.25797373E+00 0.26917850E+03</pdfrwt>
<pdfrwt beam="2">  1       -2 0.16619523E-02 0.26917850E+03</pdfrwt>
<totfact> 0.11148773E+04</totfact>
</mgrwt>
</event>
<event>
 4    1  0.1672993E-004  0.3169960E+03  0.7818608E-02  0.1077040E+00
         -1   -1    0    0    0  501 -0.00000000000E+00  0.00000000000E+00  0.95802058662E+02  0.95802058662E+02  0.00000000000E+00 0. -1.
          1   -1    0    0  501    0  0.00000000000E+00 -0.00000000000E+00 -0.26222414461E+03  0.26222414461E+03  0.00000000000E+00 0. -1.
         25    1    1    2    0    0  0.74784594376E+02  0.33878391933E+00 -0.16409592462E+03  0.21661099420E+03  0.12000000000E+03 0.  0.
         25    1    1    2    0    0 -0.74784594376E+02 -0.33878391933E+00 -0.23261613246E+01  0.14141520907E+03  0.12000000000E+03 0.  0.
<mgrwt>
<rscale>  0 0.31699598E+03</rscale>
<asrwt>0</asrwt>
<pdfrwt beam="1">  1        1 0.40342176E-01 0.31699598E+03</pdfrwt>
<pdfrwt beam="2">  1       -1 0.14738778E-01 0.31699598E+03</pdfrwt>
<totfact> 0.34359223E+03</totfact>
</mgrwt>
</event>
<event>
 4    1  0.1672993E-004  0.2583117E+03  0.7818608E-02  0.1108162E+00
         -2   -1    0    0    0  501 -0.00000000000E+00  0.00000000000E+00  0.26954606357E+03  0.26954606357E+03  0.00000000000E+00 0.  1.
          2   -1    0    0  501    0  0.00000000000E+00 -0.00000000000E+00 -0.61886373342E+02  0.61886373342E+02  0.00000000000E+00 0.  1.
         25    1    1    2    0    0 -0.17129214996E+02 -0.44583946053E+02  0.10421491805E+03  0.16595748671E+03  0.12000000000E+03 0.  0.
         25    1    1    2    0    0  0.17129214996E+02  0.44583946053E+02  0.10344477218E+03  0.16547495020E+03  0.12000000000E+03 0.  0.
<mgrwt>
<rscale>  0 0.25831166E+03</rscale>
<asrwt>0</asrwt>
<pdfrwt beam="1">  1        2 0.95209807E-02 0.25831166E+03</pdfrwt>
<pdfrwt beam="2">  1       -2 0.41468624E-01 0.25831166E+03</pdfrwt>
<totfact> 0.37575225E+03</totfact>
</mgrwt>
</event>
<event>
 4    1  0.1672993E-004  0.3441745E+03  0.7818608E-02  0.1065032E+00
          1   -1    0    0  501    0  0.00000000000E+00  0.00000000000E+00  0.29566256808E+03  0.29566256808E+03  0.00000000000E+00 0. -1.
         -1   -1    0    0    0  501 -0.00000000000E+00 -0.00000000000E+00 -0.10016157315E+03  0.10016157315E+03  0.00000000000E+00 0. -1.
         25    1    1    2    0    0 -0.76062769195E+02  0.93555659283E+02  0.12764832331E+03  0.21267886751E+03  0.12000000000E+03 0.  0.
         25    1    1    2    0    0  0.76062769195E+02 -0.93555659283E+02  0.67852671611E+02  0.18314527372E+03  0.12000000000E+03 0.  0.
<mgrwt>
<rscale>  0 0.34417454E+03</rscale>
<asrwt>0</asrwt>
<pdfrwt beam="1">  1        1 0.45486549E-01 0.34417454E+03</pdfrwt>
<pdfrwt beam="2">  1       -1 0.15409473E-01 0.34417454E+03</pdfrwt>
<totfact> 0.27546237E+03</totfact>
</mgrwt>
</event>
<event>
 4    1  0.1672993E-004  0.2572056E+03  0.7818608E-02  0.1108834E+00
          2   -1    0    0  501    0  0.00000000000E+00  0.00000000000E+00  0.29411492702E+03  0.29411492702E+03  0.00000000000E+00 0.  1.
         -2   -1    0    0    0  501 -0.00000000000E+00 -0.00000000000E+00 -0.56232038141E+02  0.56232038141E+02  0.00000000000E+00 0.  1.
         25    1    1    2    0    0  0.18432630764E+02  0.33410098136E+02  0.15453146029E+03  0.19933882902E+03  0.12000000000E+03 0.  0.
         25    1    1    2    0    0 -0.18432630764E+02 -0.33410098136E+02  0.83351428588E+02  0.15100813615E+03  0.12000000000E+03 0.  0.
<mgrwt>
<rscale>  0 0.25720561E+03</rscale>
<asrwt>0</asrwt>
<pdfrwt beam="1">  1        2 0.45248449E-01 0.25720561E+03</pdfrwt>
<pdfrwt beam="2">  1       -2 0.86510830E-02 0.25720561E+03</pdfrwt>
<totfact> 0.92258574E+03</totfact>
</mgrwt>
</event>
<event>
 4    1  0.1672993E-004  0.3947256E+03  0.7818608E-02  0.1045621E+00
          1   -1    0    0  501    0  0.00000000000E+00  0.00000000000E+00  0.10793672214E+03  0.10793672214E+03  0.00000000000E+00 0.  1.
         -1   -1    0    0    0  501 -0.00000000000E+00 -0.00000000000E+00 -0.36087885671E+03  0.36087885671E+03  0.00000000000E+00 0.  1.
         25    1    1    2    0    0 -0.96141000372E+02 -0.15037309175E+01  0.20471588928E+02  0.15512717077E+03  0.12000000000E+03 0.  0.
         25    1    1    2    0    0  0.96141000372E+02  0.15037309175E+01 -0.27341372350E+03  0.31368840807E+03  0.12000000000E+03 0.  0.
<mgrwt>
<rscale>  0 0.39472563E+03</rscale>
<asrwt>0</asrwt>
<pdfrwt beam="1">  1        1 0.16605650E-01 0.39472563E+03</pdfrwt>
<pdfrwt beam="2">  1       -1 0.55519823E-01 0.39472563E+03</pdfrwt>
<totfact> 0.11035669E+03</totfact>
</mgrwt>
</event>
<event>
 4    1  0.1672993E-004  0.4557749E+03  0.7818608E-02  0.1026014E+00
         -1   -1    0    0    0  501 -0.00000000000E+00  0.00000000000E+00  0.53429708460E+02  0.53429708460E+02  0.00000000000E+00 0.  1.
          1   -1    0    0  501    0  0.00000000000E+00 -0.00000000000E+00 -0.97198155308E+03  0.97198155308E+03  0.00000000000E+00 0.  1.
         25    1    1    2    0    0 -0.15926087353E+03  0.11029110813E+03 -0.46406790067E+03  0.51699823095E+03  0.12000000000E+03 0.  0.
         25    1    1    2    0    0  0.15926087353E+03 -0.11029110813E+03 -0.45448394394E+03  0.50841303059E+03  0.12000000000E+03 0.  0.
<mgrwt>
<rscale>  0 0.45577491E+03</rscale>
<asrwt>0</asrwt>
<pdfrwt beam="1">  1        1 0.14953561E+00 0.45577491E+03</pdfrwt>
<pdfrwt beam="2">  1       -1 0.82199561E-02 0.45577491E+03</pdfrwt>
<totfact> 0.13842733E+03</totfact>
</mgrwt>
</event>
<event>
 4    1  0.1672993E-004  0.2911463E+03  0.7818608E-02  0.1089752E+00
          2   -1    0    0  501    0  0.00000000000E+00  0.00000000000E+00  0.14167538966E+04  0.14167538966E+04  0.00000000000E+00 0. -1.
         -2   -1    0    0    0  501 -0.00000000000E+00 -0.00000000000E+00 -0.14957814329E+02  0.14957814329E+02  0.00000000000E+00 0. -1.
         25    1    1    2    0    0  0.78857129000E+02  0.23548559300E+02  0.72208344552E+03  0.73659859064E+03  0.12000000000E+03 0.  0.
         25    1    1    2    0    0 -0.78857129000E+02 -0.23548559300E+02  0.67971263675E+03  0.69511312029E+03  0.12000000000E+03 0.  0.
<mgrwt>
<rscale>  0 0.29114630E+03</rscale>
<asrwt>0</asrwt>
<pdfrwt beam="1">  1        2 0.21796203E+00 0.29114630E+03</pdfrwt>
<pdfrwt beam="2">  1       -2 0.23012033E-02 0.29114630E+03</pdfrwt>
<totfact> 0.95201206E+03</totfact>
</mgrwt>
</event>
<event>
 4    1  0.1672993E-004  0.2531343E+03  0.7818608E-02  0.1111340E+00
         -1   -1    0    0    0  501 -0.00000000000E+00  0.00000000000E+00  0.27967834415E+03  0.27967834415E+03  0.00000000000E+00 0.  1.
          1   -1    0    0  501    0  0.00000000000E+00 -0.00000000000E+00 -0.57277393466E+02  0.57277393466E+02  0.00000000000E+00 0.  1.
         25    1    1    2    0    0 -0.30127145853E+02  0.26668460951E+02  0.11036404550E+03  0.16792579988E+03  0.12000000000E+03 0.  0.
         25    1    1    2    0    0  0.30127145853E+02 -0.26668460951E+02  0.11203690518E+03  0.16902993773E+03  0.12000000000E+03 0.  0.
<mgrwt>
<rscale>  0 0.25313432E+03</rscale>
<asrwt>0</asrwt>
<pdfrwt beam="1">  1        1 0.88119068E-02 0.25313432E+03</pdfrwt>
<pdfrwt beam="2">  1       -1 0.43027437E-01 0.25313432E+03</pdfrwt>
<totfact> 0.40886559E+03</totfact>
</mgrwt>
</event>
<event>
 4    1  0.1672993E-004  0.2506696E+03  0.7818608E-02  0.1112882E+00
          3   -1    0    0  501    0  0.00000000000E+00  0.00000000000E+00  0.49843771775E+02  0.49843771775E+02  0.00000000000E+00 0. -1.
         -3   -1    0    0    0  501 -0.00000000000E+00 -0.00000000000E+00 -0.31516092984E+03  0.31516092984E+03  0.00000000000E+00 0. -1.
         25    1    1    2    0    0 -0.33147918424E+02 -0.11111661524E+02 -0.11911151230E+03  0.17265516465E+03  0.12000000000E+03 0.  0.
         25    1    1    2    0    0  0.33147918424E+02  0.11111661524E+02 -0.14620564577E+03  0.19234953697E+03  0.12000000000E+03 0.  0.
<mgrwt>
<rscale>  0 0.25066958E+03</rscale>
<asrwt>0</asrwt>
<pdfrwt beam="1">  1        3 0.76682728E-02 0.25066958E+03</pdfrwt>
<pdfrwt beam="2">  1       -3 0.48486296E-01 0.25066958E+03</pdfrwt>
<totfact> 0.12231324E+03</totfact>
</mgrwt>
</event>
<event>
 4    1  0.1672993E-004  0.2638113E+03  0.7818608E-02  0.1104875E+00
          1   -1    0    0  501    0  0.00000000000E+00  0.00000000000E+00  0.44560111897E+03  0.44560111897E+03  0.00000000000E+00 0. -1.
         -1   -1    0    0    0  501 -0.00000000000E+00 -0.00000000000E+00 -0.39046354807E+02  0.39046354807E+02  0.00000000000E+00 0. -1.
         25    1    1    2    0    0 -0.41545502675E+01  0.46369845531E+02  0.25625711888E+03  0.28676668886E+03  0.12000000000E+03 0.  0.
         25    1    1    2    0    0  0.41545502675E+01 -0.46369845531E+02  0.15029764529E+03  0.19788078492E+03  0.12000000000E+03 0.  0.
<mgrwt>
<rscale>  0 0.26381129E+03</rscale>
<asrwt>0</asrwt>
<pdfrwt beam="1">  1        1 0.68554015E-01 0.26381129E+03</pdfrwt>
<pdfrwt beam="2">  1       -1 0.60071318E-02 0.26381129E+03</pdfrwt>
<totfact> 0.69658133E+03</totfact>
</mgrwt>
</event>
<event>
 4    1  0.1672993E-004  0.3680304E+03  0.7818608E-02  0.1055449E+00
         -4   -1    0    0    0  501 -0.00000000000E+00  0.00000000000E+00  0.23255449707E+03  0.23255449707E+03  0.00000000000E+00 0.  1.
          4   -1    0    0  501    0  0.00000000000E+00 -0.00000000000E+00 -0.14560715611E+03  0.14560715611E+03  0.00000000000E+00 0.  1.
         25    1    1    2    0    0  0.12926374465E+03 -0.41021625546E+00 -0.10433039857E+02  0.17668653678E+03  0.12000000000E+03 0.  0.
         25    1    1    2    0    0 -0.12926374465E+03  0.41021625546E+00  0.97380380822E+02  0.20147511640E+03  0.12000000000E+03 0.  0.
<mgrwt>
<rscale>  0 0.36803043E+03</rscale>
<asrwt>0</asrwt>
<pdfrwt beam="1">  1        4 0.22401101E-01 0.36803043E+03</pdfrwt>
<pdfrwt beam="2">  1       -4 0.35777615E-01 0.36803043E+03</pdfrwt>
<totfact> 0.26844626E+02</totfact>
</mgrwt>
</event>
<event>
 4    1  0.1672993E-004  0.2642771E+03  0.7818608E-02  0.1104600E+00
          2   -1    0    0  501    0  0.00000000000E+00  0.00000000000E+00  0.63572748953E+03  0.63572748953E+03  0.00000000000E+00 0.  1.
         -2   -1    0    0    0  501 -0.00000000000E+00 -0.00000000000E+00 -0.27465528456E+02  0.27465528456E+02  0.00000000000E+00 0.  1.
         25    1    1    2    0    0  0.39400576078E+02  0.37186824111E+02  0.33222419019E+03  0.35736280981E+03  0.12000000000E+03 0.  0.
         25    1    1    2    0    0 -0.39400576078E+02 -0.37186824111E+02  0.27603777088E+03  0.30583020818E+03  0.12000000000E+03 0.  0.
<mgrwt>
<rscale>  0 0.26427706E+03</rscale>
<asrwt>0</asrwt>
<pdfrwt beam="1">  1        2 0.97804218E-01 0.26427706E+03</pdfrwt>
<pdfrwt beam="2">  1       -2 0.42254664E-02 0.26427706E+03</pdfrwt>
<totfact> 0.11839161E+04</totfact>
</mgrwt>
</event>
<event>
 4    1  0.1672993E-004  0.3527786E+03  0.7818608E-02  0.1061480E+00
          2   -1    0    0  501    0  0.00000000000E+00  0.00000000000E+00  0.27664208463E+02  0.27664208463E+02  0.00000000000E+00 0.  1.
         -2   -1    0    0    0  501 -0.00000000000E+00 -0.00000000000E+00 -0.11246729439E+04  0.11246729439E+04  0.00000000000E+00 0.  1.
         25    1    1    2    0    0  0.89775248926E+02  0.88630246332E+02 -0.64079390443E+03  0.66402691499E+03  0.12000000000E+03 0.  0.
         25    1    1    2    0    0 -0.89775248926E+02 -0.88630246332E+02 -0.45621483098E+03  0.48831023734E+03  0.12000000000E+03 0.  0.
<mgrwt>
<rscale>  0 0.35277861E+03</rscale>
<asrwt>0</asrwt>
<pdfrwt beam="1">  1        2 0.42560315E-02 0.35277861E+03</pdfrwt>
<pdfrwt beam="2">  1       -2 0.17302663E+00 0.35277861E+03</pdfrwt>
<totfact> 0.42432538E+02</totfact>
</mgrwt>
</event>
<event>
 4    1  0.1672993E-004  0.4090823E+03  0.7818608E-02  0.1040679E+00
          1   -1    0    0  501    0  0.00000000000E+00  0.00000000000E+00  0.15997693618E+03  0.15997693618E+03  0.00000000000E+00 0.  1.
         -1   -1    0    0    0  501 -0.00000000000E+00 -0.00000000000E+00 -0.26151948296E+03  0.26151948296E+03  0.00000000000E+00 0.  1.
         25    1    1    2    0    0 -0.50954774382E+02 -0.99938117724E+02  0.74800285081E+02  0.18049681176E+03  0.12000000000E+03 0.  0.
         25    1    1    2    0    0  0.50954774382E+02  0.99938117724E+02 -0.17634283186E+03  0.24099960738E+03  0.12000000000E+03 0.  0.
<mgrwt>
<rscale>  0 0.40908232E+03</rscale>
<asrwt>0</asrwt>
<pdfrwt beam="1">  1        1 0.24611836E-01 0.40908232E+03</pdfrwt>
<pdfrwt beam="2">  1       -1 0.40233767E-01 0.40908232E+03</pdfrwt>
<totfact> 0.11984280E+03</totfact>
</mgrwt>
</event>
<event>
 4    1  0.1672993E-004  0.4069173E+03  0.7818608E-02  0.1041410E+00
         -1   -1    0    0    0  501 -0.00000000000E+00  0.00000000000E+00  0.42921867098E+02  0.42921867098E+02  0.00000000000E+00 0. -1.
          1   -1    0    0  501    0  0.00000000000E+00 -0.00000000000E+00 -0.96443650132E+03  0.96443650132E+03  0.00000000000E+00 0. -1.
         25    1    1    2    0    0  0.56420285592E+02 -0.14552315167E+03 -0.33367563812E+03  0.38742698379E+03  0.12000000000E+03 0.  0.
         25    1    1    2    0    0 -0.56420285592E+02  0.14552315167E+03 -0.58783899611E+03  0.61993138463E+03  0.12000000000E+03 0.  0.
<mgrwt>
<rscale>  0 0.40691727E+03</rscale>
<asrwt>0</asrwt>
<pdfrwt beam="1">  1        1 0.14837483E+00 0.40691727E+03</pdfrwt>
<pdfrwt beam="2">  1       -1 0.66033648E-02 0.40691727E+03</pdfrwt>
<totfact> 0.19677114E+03</totfact>
</mgrwt>
</event>
<event>
 4    1  0.1672993E-004  0.2725898E+03  0.7818608E-02  0.1099806E+00
         -2   -1    0    0    0  501 -0.00000000000E+00  0.00000000000E+00  0.41045337820E+02  0.41045337820E+02  0.00000000000E+00 0.  1.
          2   -1    0    0  501    0  0.00000000000E+00 -0.00000000000E+00 -0.45258013140E+03  0.45258013140E+03  0.00000000000E+00 0.  1.
         25    1    1    2    0    0  0.78555268913E+01 -0.28522044038E+02 -0.10172353558E+03  0.16007152773E+03  0.12000000000E+03 0.  0.
         25    1    1    2    0    0 -0.78555268913E+01  0.28522044038E+02 -0.30981125800E+03  0.33355394149E+03  0.12000000000E+03 0.  0.
<mgrwt>
<rscale>  0 0.27258983E+03</rscale>
<asrwt>0</asrwt>
<pdfrwt beam="1">  1        2 0.69627716E-01 0.27258983E+03</pdfrwt>
<pdfrwt beam="2">  1       -2 0.63146671E-02 0.27258983E+03</pdfrwt>
<totfact> 0.94583296E+03</totfact>
</mgrwt>
</event>
<event>
 4    1  0.1672993E-004  0.2509348E+03  0.7818608E-02  0.1112715E+00
          1   -1    0    0  501    0  0.00000000000E+00  0.00000000000E+00  0.44188845692E+02  0.44188845692E+02  0.00000000000E+00 0. -1.
         -1   -1    0    0    0  501 -0.00000000000E+00 -0.00000000000E+00 -0.35624524866E+03  0.35624524866E+03  0.00000000000E+00 0. -1.
         25    1    1    2    0    0  0.31980167427E+02 -0.16746127826E+02 -0.16598130379E+03  0.20797345291E+03  0.12000000000E+03 0.  0.
         25    1    1    2    0    0 -0.31980167427E+02  0.16746127826E+02 -0.14607509918E+03  0.19246064144E+03  0.12000000000E+03 0.  0.
<mgrwt>
<rscale>  0 0.25093478E+03</rscale>
<asrwt>0</asrwt>
<pdfrwt beam="1">  1        1 0.67982838E-02 0.25093478E+03</pdfrwt>
<pdfrwt beam="2">  1       -1 0.54806962E-01 0.25093478E+03</pdfrwt>
<totfact> 0.37291902E+03</totfact>
</mgrwt>
</event>
<event>
 4    1  0.1672993E-004  0.3084622E+03  0.7818608E-02  0.1081085E+00
         -2   -1    0    0    0  501 -0.00000000000E+00  0.00000000000E+00  0.32282783989E+02  0.32282783989E+02  0.00000000000E+00 0.  1.
          2   -1    0    0  501    0  0.00000000000E+00 -0.00000000000E+00 -0.73683957029E+03  0.73683957029E+03  0.00000000000E+00 0.  1.
         25    1    1    2    0    0  0.67740481605E+02  0.51764766337E+02 -0.46705292002E+03  0.48970071879E+03  0.12000000000E+03 0.  0.
         25    1    1    2    0    0 -0.67740481605E+02 -0.51764766337E+02 -0.23750386628E+03  0.27942163549E+03  0.12000000000E+03 0.  0.
<mgrwt>
<rscale>  0 0.30846220E+03</rscale>
<asrwt>0</asrwt>
<pdfrwt beam="1">  1        2 0.11335994E+00 0.30846220E+03</pdfrwt>
<pdfrwt beam="2">  1       -2 0.49665820E-02 0.30846220E+03</pdfrwt>
<totfact> 0.77950007E+03</totfact>
</mgrwt>
</event>
<event>
 4    1  0.1672993E-004  0.2609968E+03  0.7818608E-02  0.1106546E+00
         -1   -1    0    0    0  501 -0.00000000000E+00  0.00000000000E+00  0.55034067934E+02  0.55034067934E+02  0.00000000000E+00 0. -1.
          1   -1    0    0  501    0  0.00000000000E+00 -0.00000000000E+00 -0.30944172997E+03  0.30944172997E+03  0.00000000000E+00 0. -1.
         25    1    1    2    0    0 -0.96747819315E+01  0.37206511127E+02 -0.79807691031E+02  0.14915493094E+03  0.12000000000E+03 0.  0.
         25    1    1    2    0    0  0.96747819315E+01 -0.37206511127E+02 -0.17459997100E+03  0.21532086696E+03  0.12000000000E+03 0.  0.
<mgrwt>
<rscale>  0 0.26099684E+03</rscale>
<asrwt>0</asrwt>
<pdfrwt beam="1">  1        1 0.47606420E-01 0.26099684E+03</pdfrwt>
<pdfrwt beam="2">  1       -1 0.84667796E-02 0.26099684E+03</pdfrwt>
<totfact> 0.65815764E+03</totfact>
</mgrwt>
</event>
<event>
 4    1  0.1672993E-004  0.3123094E+03  0.7818608E-02  0.1079244E+00
          2   -1    0    0  501    0  0.00000000000E+00  0.00000000000E+00  0.13607425993E+04  0.13607425993E+04  0.00000000000E+00 0. -1.
         -2   -1    0    0    0  501 -0.00000000000E+00 -0.00000000000E+00 -0.17919835104E+02  0.17919835104E+02  0.00000000000E+00 0. -1.
         25    1    1    2    0    0 -0.82271232880E+02  0.23757728754E+02  0.44410994169E+03  0.46793869871E+03  0.12000000000E+03 0.  0.
         25    1    1    2    0    0  0.82271232880E+02 -0.23757728754E+02  0.89871282249E+03  0.91072373569E+03  0.12000000000E+03 0.  0.
<mgrwt>
<rscale>  0 0.31230935E+03</rscale>
<asrwt>0</asrwt>
<pdfrwt beam="1">  1        2 0.20934493E+00 0.31230935E+03</pdfrwt>
<pdfrwt beam="2">  1       -2 0.27568988E-02 0.31230935E+03</pdfrwt>
<totfact> 0.78212853E+03</totfact>
</mgrwt>
</event>
<event>
 4    1  0.1672993E-004  0.3415234E+03  0.7818608E-02  0.1066149E+00
          3   -1    0    0  501    0  0.00000000000E+00  0.00000000000E+00  0.34052118345E+03  0.34052118345E+03  0.00000000000E+00 0. -1.
         -3   -1    0    0    0  501 -0.00000000000E+00 -0.00000000000E+00 -0.85632156286E+02  0.85632156286E+02  0.00000000000E+00 0. -1.
         25    1    1    2    0    0  0.21285740694E+02 -0.11091522681E+03  0.71581290641E+02  0.17966399602E+03  0.12000000000E+03 0.  0.
         25    1    1    2    0    0 -0.21285740694E+02  0.11091522681E+03  0.18330773652E+03  0.24648934372E+03  0.12000000000E+03 0.  0.
<mgrwt>
<rscale>  0 0.34152343E+03</rscale>
<asrwt>0</asrwt>
<pdfrwt beam="1">  1        3 0.52387874E-01 0.34152343E+03</pdfrwt>
<pdfrwt beam="2">  1       -3 0.13174178E-01 0.34152343E+03</pdfrwt>
<totfact> 0.43617679E+02</totfact>
</mgrwt>
</event>
<event>
 4    1  0.1672993E-004  0.3201055E+03  0.7818608E-02  0.1075601E+00
         -2   -1    0    0    0  501 -0.00000000000E+00  0.00000000000E+00  0.77996699844E+02  0.77996699844E+02  0.00000000000E+00 0. -1.
          2   -1    0    0  501    0  0.00000000000E+00 -0.00000000000E+00 -0.32843539720E+03  0.32843539720E+03  0.00000000000E+00 0. -1.
         25    1    1    2    0    0  0.51610816382E+02  0.83545441791E+02 -0.17558204184E+03  0.23424895011E+03  0.12000000000E+03 0.  0.
         25    1    1    2    0    0 -0.51610816382E+02 -0.83545441791E+02 -0.74856655514E+02  0.17218314693E+03  0.12000000000E+03 0.  0.
<mgrwt>
<rscale>  0 0.32010546E+03</rscale>
<asrwt>0</asrwt>
<pdfrwt beam="1">  1        2 0.50528524E-01 0.32010546E+03</pdfrwt>
<pdfrwt beam="2">  1       -2 0.11999492E-01 0.32010546E+03</pdfrwt>
<totfact> 0.48992155E+03</totfact>
</mgrwt>
</event>
<event>
 4    1  0.1672993E-004  0.3015502E+03  0.7818608E-02  0.1084468E+00
          2   -1    0    0  501    0  0.00000000000E+00  0.00000000000E+00  0.18638542607E+04  0.18638542607E+04  0.00000000000E+00 0. -1.
         -2   -1    0    0    0  501 -0.00000000000E+00 -0.00000000000E+00 -0.12196837393E+02  0.12196837393E+02  0.00000000000E+00 0. -1.
         25    1    1    2    0    0 -0.85279896880E+02  0.32536716802E+02  0.91741586119E+03  0.92972208811E+03  0.12000000000E+03 0.  0.
         25    1    1    2    0    0  0.85279896880E+02 -0.32536716802E+02  0.93424156212E+03  0.94632900999E+03  0.12000000000E+03 0.  0.
<mgrwt>
<rscale>  0 0.30155018E+03</rscale>
<asrwt>0</asrwt>
<pdfrwt beam="1">  1        2 0.28674658E+00 0.30155018E+03</pdfrwt>
<pdfrwt beam="2">  1       -2 0.18764380E-02 0.30155018E+03</pdfrwt>
<totfact> 0.74467477E+03</totfact>
</mgrwt>
</event>
<event>
 4    1  0.1672993E-004  0.2867535E+03  0.7818608E-02  0.1092056E+00
          2   -1    0    0  501    0  0.00000000000E+00  0.00000000000E+00  0.18373316578E+03  0.18373316578E+03  0.00000000000E+00 0.  1.
         -2   -1    0    0    0  501 -0.00000000000E+00 -0.00000000000E+00 -0.11188447667E+03  0.11188447667E+03  0.00000000000E+00 0.  1.
         25    1    1    2    0    0  0.12963940771E+02 -0.77068271222E+02  0.43163294200E+02  0.14956821907E+03  0.12000000000E+03 0.  0.
         25    1    1    2    0    0 -0.12963940771E+02  0.77068271222E+02  0.28685394907E+02  0.14604942338E+03  0.12000000000E+03 0.  0.
<mgrwt>
<rscale>  0 0.28675348E+03</rscale>
<asrwt>0</asrwt>
<pdfrwt beam="1">  1        2 0.28266641E-01 0.28675348E+03</pdfrwt>
<pdfrwt beam="2">  1       -2 0.17212996E-01 0.28675348E+03</pdfrwt>
<totfact> 0.50661767E+03</totfact>
</mgrwt>
</event>
<event>
 4    1  0.1672993E-004  0.4399711E+03  0.7818608E-02  0.1030756E+00
          1   -1    0    0  501    0  0.00000000000E+00  0.00000000000E+00  0.75311318030E+02  0.75311318030E+02  0.00000000000E+00 0.  1.
         -1   -1    0    0    0  501 -0.00000000000E+00 -0.00000000000E+00 -0.64258133964E+03  0.64258133964E+03  0.00000000000E+00 0.  1.
         25    1    1    2    0    0  0.45304222718E+02 -0.16986839052E+03 -0.19299361005E+03  0.28732259956E+03  0.12000000000E+03 0.  0.
         25    1    1    2    0    0 -0.45304222718E+02  0.16986839052E+03 -0.37427641156E+03  0.43057005811E+03  0.12000000000E+03 0.  0.
<mgrwt>
<rscale>  0 0.43997112E+03</rscale>
<asrwt>0</asrwt>
<pdfrwt beam="1">  1        1 0.11586356E-01 0.43997112E+03</pdfrwt>
<pdfrwt beam="2">  1       -1 0.98858673E-01 0.43997112E+03</pdfrwt>
<totfact> 0.54390292E+02</totfact>
</mgrwt>
</event>
<event>
 4    1  0.1672993E-004  0.2647851E+03  0.7818608E-02  0.1104302E+00
         -1   -1    0    0    0  501 -0.00000000000E+00  0.00000000000E+00  0.89163376990E+03  0.89163376990E+03  0.00000000000E+00 0. -1.
          1   -1    0    0  501    0  0.00000000000E+00 -0.00000000000E+00 -0.19658062176E+02  0.19658062176E+02  0.00000000000E+00 0. -1.
         25    1    1    2    0    0  0.43658407552E+01  0.17816580224E+02  0.25415715398E+03  0.28165999009E+03  0.12000000000E+03 0.  0.
         25    1    1    2    0    0 -0.43658407552E+01 -0.17816580224E+02  0.61781855374E+03  0.62963184199E+03  0.12000000000E+03 0.  0.
<mgrwt>
<rscale>  0 0.26478514E+03</rscale>
<asrwt>0</asrwt>
<pdfrwt beam="1">  1        1 0.30243179E-02 0.26478514E+03</pdfrwt>
<pdfrwt beam="2">  1       -1 0.13717439E+00 0.26478514E+03</pdfrwt>
<totfact> 0.16019139E+03</totfact>
</mgrwt>
</event>
<event>
 4    1  0.1672993E-004  0.2573685E+03  0.7818608E-02  0.1108735E+00
          2   -1    0    0  501    0  0.00000000000E+00  0.00000000000E+00  0.13896639833E+04  0.13896639833E+04  0.00000000000E+00 0. -1.
         -2   -1    0    0    0  501 -0.00000000000E+00 -0.00000000000E+00 -0.11916284406E+02  0.11916284406E+02  0.00000000000E+00 0. -1.
         25    1    1    2    0    0  0.67163599234E+01  0.31508151105E+02  0.87126857277E+03  0.88008340456E+03  0.12000000000E+03 0.  0.
         25    1    1    2    0    0 -0.67163599234E+01 -0.31508151105E+02  0.50647912610E+03  0.52149686312E+03  0.12000000000E+03 0.  0.
<mgrwt>
<rscale>  0 0.25736846E+03</rscale>
<asrwt>0</asrwt>
<pdfrwt beam="1">  1        2 0.21379433E+00 0.25736846E+03</pdfrwt>
<pdfrwt beam="2">  1       -2 0.18332756E-02 0.25736846E+03</pdfrwt>
<totfact> 0.13722391E+04</totfact>
</mgrwt>
</event>
<event>
 4    1  0.1672993E-004  0.2677324E+03  0.7818608E-02  0.1102584E+00
          2   -1    0    0  501    0  0.00000000000E+00  0.00000000000E+00  0.10535659748E+03  0.10535659748E+03  0.00000000000E+00 0.  1.
         -2   -1    0    0    0  501 -0.00000000000E+00 -0.00000000000E+00 -0.17009055546E+03  0.17009055546E+03  0.00000000000E+00 0.  1.
         25    1    1    2    0    0 -0.46464893491E+02 -0.26266858751E+02 -0.59021590285E+02  0.14398778530E+03  0.12000000000E+03 0.  0.
         25    1    1    2    0    0  0.46464893491E+02  0.26266858751E+02 -0.57123676988E+01  0.13145936764E+03  0.12000000000E+03 0.  0.
<mgrwt>
<rscale>  0 0.26773242E+03</rscale>
<asrwt>0</asrwt>
<pdfrwt beam="1">  1        2 0.16208707E-01 0.26773242E+03</pdfrwt>
<pdfrwt beam="2">  1       -2 0.26167778E-01 0.26773242E+03</pdfrwt>
<totfact> 0.46192196E+03</totfact>
</mgrwt>
</event>
<event>
 4    1  0.1672993E-004  0.3689930E+03  0.7818608E-02  0.1055079E+00
          1   -1    0    0  501    0  0.00000000000E+00  0.00000000000E+00  0.26528189943E+03  0.26528189943E+03  0.00000000000E+00 0. -1.
         -1   -1    0    0    0  501 -0.00000000000E+00 -0.00000000000E+00 -0.12831242396E+03  0.12831242396E+03  0.00000000000E+00 0. -1.
         25    1    1    2    0    0 -0.41665628829E+02  0.81690049728E+02 -0.44550604760E+02  0.15746124995E+03  0.12000000000E+03 0.  0.
         25    1    1    2    0    0  0.41665628829E+02 -0.81690049728E+02  0.18152008023E+03  0.23613307345E+03  0.12000000000E+03 0.  0.
<mgrwt>
<rscale>  0 0.36899303E+03</rscale>
<asrwt>0</asrwt>
<pdfrwt beam="1">  1        1 0.40812600E-01 0.36899303E+03</pdfrwt>
<pdfrwt beam="2">  1       -1 0.19740373E-01 0.36899303E+03</pdfrwt>
<totfact> 0.21188633E+03</totfact>
</mgrwt>
</event>
<event>
 4    1  0.1672993E-004  0.3408857E+03  0.7818608E-02  0.1066419E+00
          2   -1    0    0  501    0  0.00000000000E+00  0.00000000000E+00  0.21578992818E+04  0.21578992818E+04  0.00000000000E+00 0. -1.
         -2   -1    0    0    0  501 -0.00000000000E+00 -0.00000000000E+00 -0.13462521971E+02  0.13462521971E+02  0.00000000000E+00 0. -1.
         25    1    1    2    0    0 -0.31534392513E+02 -0.11027266315E+03  0.13186129011E+04  0.13290201132E+04  0.12000000000E+03 0.  0.
         25    1    1    2    0    0  0.31534392513E+02  0.11027266315E+03  0.82582385867E+03  0.84234169058E+03  0.12000000000E+03 0.  0.
<mgrwt>
<rscale>  0 0.34088571E+03</rscale>
<asrwt>0</asrwt>
<pdfrwt beam="1">  1        2 0.33198423E+00 0.34088571E+03</pdfrwt>
<pdfrwt beam="2">  1       -2 0.20711589E-02 0.34088571E+03</pdfrwt>
<totfact> 0.44944059E+03</totfact>
</mgrwt>
</event>
<event>
 4    1  0.1672993E-004  0.2597499E+03  0.7818608E-02  0.1107294E+00
         -2   -1    0    0    0  501 -0.00000000000E+00  0.00000000000E+00  0.36748027781E+02  0.36748027781E+02  0.00000000000E+00 0.  1.
          2   -1    0    0  501    0  0.00000000000E+00 -0.00000000000E+00 -0.45900418395E+03  0.45900418395E+03  0.00000000000E+00 0.  1.
         25    1    1    2    0    0 -0.28487635299E+02 -0.15228629406E+02 -0.28315099753E+03  0.30922151271E+03  0.12000000000E+03 0.  0.
         25    1    1    2    0    0  0.28487635299E+02  0.15228629406E+02 -0.13910515864E+03  0.18653069902E+03  0.12000000000E+03 0.  0.
<mgrwt>
<rscale>  0 0.25974987E+03</rscale>
<asrwt>0</asrwt>
<pdfrwt beam="1">  1        2 0.70616028E-01 0.25974987E+03</pdfrwt>
<pdfrwt beam="2">  1       -2 0.56535428E-02 0.25974987E+03</pdfrwt>
<totfact> 0.11010969E+04</totfact>
</mgrwt>
</event>
<event>
 4    1  0.1672993E-004  0.3206327E+03  0.7818608E-02  0.1075358E+00
         -2   -1    0    0    0  501 -0.00000000000E+00  0.00000000000E+00  0.19522478827E+02  0.19522478827E+02  0.00000000000E+00 0.  1.
          2   -1    0    0  501    0  0.00000000000E+00 -0.00000000000E+00 -0.13164995837E+04  0.13164995837E+04  0.00000000000E+00 0.  1.
         25    1    1    2    0    0 -0.48378317860E+02 -0.59939574405E+02 -0.95378161847E+03  0.96438197306E+03  0.12000000000E+03 0.  0.
         25    1    1    2    0    0  0.48378317860E+02  0.59939574405E+02 -0.34319548644E+03  0.37164008951E+03  0.12000000000E+03 0.  0.
<mgrwt>
<rscale>  0 0.32063272E+03</rscale>
<asrwt>0</asrwt>
<pdfrwt beam="1">  1        2 0.20253839E+00 0.32063272E+03</pdfrwt>
<pdfrwt beam="2">  1       -2 0.30034584E-02 0.32063272E+03</pdfrwt>
<totfact> 0.72841010E+03</totfact>
</mgrwt>
</event>
<event>
 4    1  0.1672993E-004  0.2537736E+03  0.7818608E-02  0.1110943E+00
         -2   -1    0    0    0  501 -0.00000000000E+00  0.00000000000E+00  0.50949691142E+02  0.50949691142E+02  0.00000000000E+00 0. -1.
          2   -1    0    0  501    0  0.00000000000E+00 -0.00000000000E+00 -0.31600314624E+03  0.31600314624E+03  0.00000000000E+00 0. -1.
         25    1    1    2    0    0  0.13849412688E+02 -0.13376732060E+02 -0.79802390159E+02  0.14539313831E+03  0.12000000000E+03 0.  0.
         25    1    1    2    0    0 -0.13849412688E+02  0.13376732060E+02 -0.18525106494E+03  0.22155969908E+03  0.12000000000E+03 0.  0.
<mgrwt>
<rscale>  0 0.25377362E+03</rscale>
<asrwt>0</asrwt>
<pdfrwt beam="1">  1        2 0.48615868E-01 0.25377362E+03</pdfrwt>
<pdfrwt beam="2">  1       -2 0.78384141E-02 0.25377362E+03</pdfrwt>
<totfact> 0.99599539E+03</totfact>
</mgrwt>
</event>
<event>
 4    1  0.1672993E-004  0.3097415E+03  0.7818608E-02  0.1080470E+00
          1   -1    0    0  501    0  0.00000000000E+00  0.00000000000E+00  0.20191145396E+04  0.20191145396E+04  0.00000000000E+00 0. -1.
         -1   -1    0    0    0  501 -0.00000000000E+00 -0.00000000000E+00 -0.11878946316E+02  0.11878946316E+02  0.00000000000E+00 0. -1.
         25    1    1    2    0    0 -0.51594154891E+02  0.75872363955E+02  0.12275565603E+04  0.12368159448E+04  0.12000000000E+03 0.  0.
         25    1    1    2    0    0  0.51594154891E+02 -0.75872363955E+02  0.77967903300E+03  0.79417754119E+03  0.12000000000E+03 0.  0.
<mgrwt>
<rscale>  0 0.30974153E+03</rscale>
<asrwt>0</asrwt>
<pdfrwt beam="1">  1        1 0.31063273E+00 0.30974153E+03</pdfrwt>
<pdfrwt beam="2">  1       -1 0.18275318E-02 0.30974153E+03</pdfrwt>
<totfact> 0.25621570E+03</totfact>
</mgrwt>
</event>
<event>
 4    1  0.1672993E-004  0.3293215E+03  0.7818608E-02  0.1071437E+00
         -1   -1    0    0    0  501 -0.00000000000E+00  0.00000000000E+00  0.39015557329E+03  0.39015557329E+03  0.00000000000E+00 0. -1.
          1   -1    0    0  501    0  0.00000000000E+00 -0.00000000000E+00 -0.69493225409E+02  0.69493225409E+02  0.00000000000E+00 0. -1.
         25    1    1    2    0    0  0.10551394671E+03 -0.39606316748E+02  0.15563600755E+03  0.22654893538E+03  0.12000000000E+03 0.  0.
         25    1    1    2    0    0 -0.10551394671E+03  0.39606316748E+02  0.16502634033E+03  0.23309986332E+03  0.12000000000E+03 0.  0.
<mgrwt>
<rscale>  0 0.32932154E+03</rscale>
<asrwt>0</asrwt>
<pdfrwt beam="1">  1        1 0.10691266E-01 0.32932154E+03</pdfrwt>
<pdfrwt beam="2">  1       -1 0.60023933E-01 0.32932154E+03</pdfrwt>
<totfact> 0.17063779E+03</totfact>
</mgrwt>
</event>
<event>
 4    1  0.1672993E-004  0.2450078E+03  0.7818608E-02  0.1116501E+00
         -2   -1    0    0    0  501 -0.00000000000E+00  0.00000000000E+00  0.10348261072E+02  0.10348261072E+02  0.00000000000E+00 0. -1.
          2   -1    0    0  501    0  0.00000000000E+00 -0.00000000000E+00 -0.14502151524E+04  0.14502151524E+04  0.00000000000E+00 0. -1.
         25    1    1    2    0    0  0.16698733360E+02  0.17302443966E+01 -0.61240460239E+03  0.62427657210E+03  0.12000000000E+03 0.  0.
         25    1    1    2    0    0 -0.16698733360E+02 -0.17302443966E+01 -0.82746228891E+03  0.83628684135E+03  0.12000000000E+03 0.  0.
<mgrwt>
<rscale>  0 0.24500780E+03</rscale>
<asrwt>0</asrwt>
<pdfrwt beam="1">  1        2 0.22311006E+00 0.24500780E+03</pdfrwt>
<pdfrwt beam="2">  1       -2 0.15920399E-02 0.24500780E+03</pdfrwt>
<totfact> 0.15621931E+04</totfact>
</mgrwt>
</event>
<event>
 4    1  0.1672993E-004  0.3324234E+03  0.7818608E-02  0.1070070E+00
         -3   -1    0    0    0  501 -0.00000000000E+00  0.00000000000E+00  0.53786331436E+02  0.53786331436E+02  0.00000000000E+00 0. -1.
          3   -1    0    0  501    0  0.00000000000E+00 -0.00000000000E+00 -0.51363104935E+03  0.51363104935E+03  0.00000000000E+00 0. -1.
         25    1    1    2    0    0 -0.34568568505E+02  0.10786305322E+03 -0.19591642573E+03  0.25614970242E+03  0.12000000000E+03 0.  0.
         25    1    1    2    0    0  0.34568568505E+02 -0.10786305322E+03 -0.26392829219E+03  0.31126767837E+03  0.12000000000E+03 0.  0.
<mgrwt>
<rscale>  0 0.33242340E+03</rscale>
<asrwt>0</asrwt>
<pdfrwt beam="1">  1        3 0.79020165E-01 0.33242340E+03</pdfrwt>
<pdfrwt beam="2">  1       -3 0.82748199E-02 0.33242340E+03</pdfrwt>
<totfact> 0.39891978E+02</totfact>
</mgrwt>
</event>
<event>
 4    1  0.1672993E-004  0.2688071E+03  0.7818608E-02  0.1101964E+00
         -1   -1    0    0    0  501 -0.00000000000E+00  0.00000000000E+00  0.15790811640E+02  0.15790811640E+02  0.00000000000E+00 0.  1.
          1   -1    0    0  501    0  0.00000000000E+00 -0.00000000000E+00 -0.11439766706E+04  0.11439766706E+04  0.00000000000E+00 0.  1.
         25    1    1    2    0    0  0.18828990772E+02  0.52870233032E+02 -0.66195952886E+03  0.67508533556E+03  0.12000000000E+03 0.  0.
         25    1    1    2    0    0 -0.18828990772E+02 -0.52870233032E+02 -0.46622633006E+03  0.48468214665E+03  0.12000000000E+03 0.  0.
<mgrwt>
<rscale>  0 0.26880714E+03</rscale>
<asrwt>0</asrwt>
<pdfrwt beam="1">  1        1 0.17599641E+00 0.26880714E+03</pdfrwt>
<pdfrwt beam="2">  1       -1 0.24293556E-02 0.26880714E+03</pdfrwt>
<totfact> 0.64566278E+03</totfact>
</mgrwt>
</event>
<event>
 4    1  0.1672993E-004  0.2736913E+03  0.7818608E-02  0.1099185E+00
          2   -1    0    0  501    0  0.00000000000E+00  0.00000000000E+00  0.21935875942E+04  0.21935875942E+04  0.00000000000E+00 0. -1.
         -2   -1    0    0    0  501 -0.00000000000E+00 -0.00000000000E+00 -0.85370316853E+01  0.85370316853E+01  0.00000000000E+00 0. -1.
         25    1    1    2    0    0 -0.47821360795E+02 -0.29898988140E+02  0.82015900916E+03  0.83080781914E+03  0.12000000000E+03 0.  0.
         25    1    1    2    0    0  0.47821360795E+02  0.29898988140E+02  0.13648915534E+04  0.13713168068E+04  0.12000000000E+03 0.  0.
<mgrwt>
<rscale>  0 0.27369126E+03</rscale>
<asrwt>0</asrwt>
<pdfrwt beam="1">  1        2 0.33747457E+00 0.27369126E+03</pdfrwt>
<pdfrwt beam="2">  1       -2 0.13133912E-02 0.27369126E+03</pdfrwt>
<totfact> 0.84090814E+03</totfact>
</mgrwt>
</event>
<event>
 4    1  0.1672993E-004  0.3131859E+03  0.7818608E-02  0.1078829E+00
         -2   -1    0    0    0  501 -0.00000000000E+00  0.00000000000E+00  0.13627880982E+04  0.13627880982E+04  0.00000000000E+00 0.  1.
          2   -1    0    0  501    0  0.00000000000E+00 -0.00000000000E+00 -0.17993517803E+02  0.17993517803E+02  0.00000000000E+00 0.  1.
         25    1    1    2    0    0  0.82736963668E+02 -0.17700077012E+02  0.43242380197E+03  0.45667170089E+03  0.12000000000E+03 0.  0.
         25    1    1    2    0    0 -0.82736963668E+02  0.17700077012E+02  0.91237077847E+03  0.92410991516E+03  0.12000000000E+03 0.  0.
<mgrwt>
<rscale>  0 0.31318590E+03</rscale>
<asrwt>0</asrwt>
<pdfrwt beam="1">  1        2 0.27682346E-02 0.31318590E+03</pdfrwt>
<pdfrwt beam="2">  1       -2 0.20965963E+00 0.31318590E+03</pdfrwt>
<totfact> 0.43940026E+02</totfact>
</mgrwt>
</event>
<event>
 4    1  0.1672993E-004  0.3833026E+03  0.7818608E-02  0.1049720E+00
          2   -1    0    0  501    0  0.00000000000E+00  0.00000000000E+00  0.41152902405E+02  0.41152902405E+02  0.00000000000E+00 0. -1.
         -2   -1    0    0    0  501 -0.00000000000E+00 -0.00000000000E+00 -0.89253052227E+03  0.89253052227E+03  0.00000000000E+00 0. -1.
         25    1    1    2    0    0 -0.26026172664E+02 -0.12979211244E+03 -0.25680463790E+03  0.31284497145E+03  0.12000000000E+03 0.  0.
         25    1    1    2    0    0  0.26026172664E+02  0.12979211244E+03 -0.59457298197E+03  0.62083845323E+03  0.12000000000E+03 0.  0.
<mgrwt>
<rscale>  0 0.38330260E+03</rscale>
<asrwt>0</asrwt>
<pdfrwt beam="1">  1        2 0.63312160E-02 0.38330260E+03</pdfrwt>
<pdfrwt beam="2">  1       -2 0.13731238E+00 0.38330260E+03</pdfrwt>
<totfact> 0.45988446E+02</totfact>
</mgrwt>
</event>
<event>
 4    1  0.1672993E-004  0.2565170E+03  0.7818608E-02  0.1109254E+00
         -2   -1    0    0    0  501 -0.00000000000E+00  0.00000000000E+00  0.45580210966E+02  0.45580210966E+02  0.00000000000E+00 0.  1.
          2   -1    0    0  501    0  0.00000000000E+00 -0.00000000000E+00 -0.36090759966E+03  0.36090759966E+03  0.00000000000E+00 0.  1.
         25    1    1    2    0    0 -0.20370519578E+02 -0.41561057200E+01 -0.93922178258E+02  0.15379729143E+03  0.12000000000E+03 0.  0.
         25    1    1    2    0    0  0.20370519578E+02  0.41561057200E+01 -0.22140521043E+03  0.25269051919E+03  0.12000000000E+03 0.  0.
<mgrwt>
<rscale>  0 0.25651701E+03</rscale>
<asrwt>0</asrwt>
<pdfrwt beam="1">  1        2 0.55524248E-01 0.25651701E+03</pdfrwt>
<pdfrwt beam="2">  1       -2 0.70123399E-02 0.25651701E+03</pdfrwt>
<totfact> 0.10267032E+04</totfact>
</mgrwt>
</event>
<event>
 4    1  0.1672993E-004  0.2739864E+03  0.7818608E-02  0.1099020E+00
         -1   -1    0    0    0  501 -0.00000000000E+00  0.00000000000E+00  0.38932283157E+02  0.38932283157E+02  0.00000000000E+00 0.  1.
          1   -1    0    0  501    0  0.00000000000E+00 -0.00000000000E+00 -0.48204565168E+03  0.48204565168E+03  0.00000000000E+00 0.  1.
         25    1    1    2    0    0  0.30231560162E+02 -0.45053673903E+02 -0.14981901869E+03  0.19947310376E+03  0.12000000000E+03 0.  0.
         25    1    1    2    0    0 -0.30231560162E+02  0.45053673903E+02 -0.29329434984E+03  0.32150483108E+03  0.12000000000E+03 0.  0.
<mgrwt>
<rscale>  0 0.27398641E+03</rscale>
<asrwt>0</asrwt>
<pdfrwt beam="1">  1        1 0.74160868E-01 0.27398641E+03</pdfrwt>
<pdfrwt beam="2">  1       -1 0.59895822E-02 0.27398641E+03</pdfrwt>
<totfact> 0.63201316E+03</totfact>
</mgrwt>
</event>
<event>
 4    1  0.1672993E-004  0.3150933E+03  0.7818608E-02  0.1077930E+00
         -2   -1    0    0    0  501 -0.00000000000E+00  0.00000000000E+00  0.18052949394E+02  0.18052949394E+02  0.00000000000E+00 0.  1.
          2   -1    0    0  501    0  0.00000000000E+00 -0.00000000000E+00 -0.13748972317E+04  0.13748972317E+04  0.00000000000E+00 0.  1.
         25    1    1    2    0    0 -0.94179993318E+02  0.23084785032E+02 -0.81948312194E+03  0.83387970691E+03  0.12000000000E+03 0.  0.
         25    1    1    2    0    0  0.94179993318E+02 -0.23084785032E+02 -0.53736116034E+03  0.55907047417E+03  0.12000000000E+03 0.  0.
<mgrwt>
<rscale>  0 0.31509332E+03</rscale>
<asrwt>0</asrwt>
<pdfrwt beam="1">  1        2 0.21152266E+00 0.31509332E+03</pdfrwt>
<pdfrwt beam="2">  1       -2 0.27773767E-02 0.31509332E+03</pdfrwt>
<totfact> 0.75992344E+03</totfact>
</mgrwt>
</event>
<event>
 4    1  0.1672993E-004  0.2706696E+03  0.7818608E-02  0.1100897E+00
          2   -1    0    0  501    0  0.00000000000E+00  0.00000000000E+00  0.72098195750E+03  0.72098195750E+03  0.00000000000E+00 0. -1.
         -2   -1    0    0    0  501 -0.00000000000E+00 -0.00000000000E+00 -0.25403559141E+02  0.25403559141E+02  0.00000000000E+00 0. -1.
         25    1    1    2    0    0 -0.34581442389E+02 -0.31589706424E+02  0.23336832769E+03  0.26656061614E+03  0.12000000000E+03 0.  0.
         25    1    1    2    0    0  0.34581442389E+02  0.31589706424E+02  0.46221007067E+03  0.47982490050E+03  0.12000000000E+03 0.  0.
<mgrwt>
<rscale>  0 0.27066960E+03</rscale>
<asrwt>0</asrwt>
<pdfrwt beam="1">  1        2 0.11092029E+00 0.27066960E+03</pdfrwt>
<pdfrwt beam="2">  1       -2 0.39082404E-02 0.27066960E+03</pdfrwt>
<totfact> 0.11458098E+04</totfact>
</mgrwt>
</event>
<event>
 4    1  0.1672993E-004  0.2996475E+03  0.7818608E-02  0.1085417E+00
          1   -1    0    0  501    0  0.00000000000E+00  0.00000000000E+00  0.38372952615E+03  0.38372952615E+03  0.00000000000E+00 0. -1.
         -1   -1    0    0    0  501 -0.00000000000E+00 -0.00000000000E+00 -0.58497328339E+02  0.58497328339E+02  0.00000000000E+00 0. -1.
         25    1    1    2    0    0 -0.60632061407E+02  0.58342252951E+02  0.11672090546E+03  0.18736017485E+03  0.12000000000E+03 0.  0.
         25    1    1    2    0    0  0.60632061407E+02 -0.58342252951E+02  0.20851129236E+03  0.25486667964E+03  0.12000000000E+03 0.  0.
<mgrwt>
<rscale>  0 0.29964747E+03</rscale>
<asrwt>0</asrwt>
<pdfrwt beam="1">  1        1 0.59035310E-01 0.29964747E+03</pdfrwt>
<pdfrwt beam="2">  1       -1 0.89995892E-02 0.29964747E+03</pdfrwt>
<totfact> 0.45811631E+03</totfact>
</mgrwt>
</event>
<event>
 4    1  0.1672993E-004  0.2568524E+03  0.7818608E-02  0.1109049E+00
         -2   -1    0    0    0  501 -0.00000000000E+00  0.00000000000E+00  0.75269007371E+02  0.75269007371E+02  0.00000000000E+00 0. -1.
          2   -1    0    0  501    0  0.00000000000E+00 -0.00000000000E+00 -0.21912449163E+03  0.21912449163E+03  0.00000000000E+00 0. -1.
         25    1    1    2    0    0  0.34061636700E+02 -0.11823792180E+01 -0.10691261895E+03  0.16429212156E+03  0.12000000000E+03 0.  0.
         25    1    1    2    0    0 -0.34061636700E+02  0.11823792180E+01 -0.36942865310E+02  0.13010137744E+03  0.12000000000E+03 0.  0.
<mgrwt>
<rscale>  0 0.25685235E+03</rscale>
<asrwt>0</asrwt>
<pdfrwt beam="1">  1        2 0.33711459E-01 0.25685235E+03</pdfrwt>
<pdfrwt beam="2">  1       -2 0.11579848E-01 0.25685235E+03</pdfrwt>
<totfact> 0.79759111E+03</totfact>
</mgrwt>
</event>
<event>
 4    1  0.1672993E-004  0.2649244E+03  0.7818608E-02  0.1104220E+00
          1   -1    0    0  501    0  0.00000000000E+00  0.00000000000E+00  0.27955558153E+03  0.27955558153E+03  0.00000000000E+00 0. -1.
         -1   -1    0    0    0  501 -0.00000000000E+00 -0.00000000000E+00 -0.62764738140E+02  0.62764738140E+02  0.00000000000E+00 0. -1.
         25    1    1    2    0    0 -0.33817641528E+02  0.41909608611E+02  0.88121336542E+02  0.15832061813E+03  0.12000000000E+03 0.  0.
         25    1    1    2    0    0  0.33817641528E+02 -0.41909608611E+02  0.12866950684E+03  0.18399970153E+03  0.12000000000E+03 0.  0.
<mgrwt>
<rscale>  0 0.26492439E+03</rscale>
<asrwt>0</asrwt>
<pdfrwt beam="1">  1        1 0.43008551E-01 0.26492439E+03</pdfrwt>
<pdfrwt beam="2">  1       -1 0.96561137E-02 0.26492439E+03</pdfrwt>
<totfact> 0.61134767E+03</totfact>
</mgrwt>
</event>
<event>
 4    1  0.1672993E-004  0.2596920E+03  0.7818608E-02  0.1107328E+00
          1   -1    0    0  501    0  0.00000000000E+00  0.00000000000E+00  0.16564737049E+03  0.16564737049E+03  0.00000000000E+00 0.  1.
         -1   -1    0    0    0  501 -0.00000000000E+00 -0.00000000000E+00 -0.10178239298E+03  0.10178239298E+03  0.00000000000E+00 0.  1.
         25    1    1    2    0    0  0.36133512723E+02 -0.27972466637E+01  0.66801845476E+02  0.14204204268E+03  0.12000000000E+03 0.  0.
         25    1    1    2    0    0 -0.36133512723E+02  0.27972466637E+01 -0.29368679740E+01  0.12538772079E+03  0.12000000000E+03 0.  0.
<mgrwt>
<rscale>  0 0.25969202E+03</rscale>
<asrwt>0</asrwt>
<pdfrwt beam="1">  1        1 0.25484211E-01 0.25969202E+03</pdfrwt>
<pdfrwt beam="2">  1       -1 0.15658830E-01 0.25969202E+03</pdfrwt>
<totfact> 0.55413866E+03</totfact>
</mgrwt>
</event>
<event>
 4    1  0.1672993E-004  0.2644030E+03  0.7818608E-02  0.1104526E+00
          2   -1    0    0  501    0  0.00000000000E+00  0.00000000000E+00  0.47245478773E+03  0.47245478773E+03  0.00000000000E+00 0.  1.
         -2   -1    0    0    0  501 -0.00000000000E+00 -0.00000000000E+00 -0.36992406022E+02  0.36992406022E+02  0.00000000000E+00 0.  1.
         25    1    1    2    0    0 -0.60046388624E+01 -0.16032613573E+02  0.31939777096E+03  0.34162557937E+03  0.12000000000E+03 0.  0.
         25    1    1    2    0    0  0.60046388624E+01  0.16032613573E+02  0.11606461075E+03  0.16782161438E+03  0.12000000000E+03 0.  0.
<mgrwt>
<rscale>  0 0.26440302E+03</rscale>
<asrwt>0</asrwt>
<pdfrwt beam="1">  1        2 0.72685348E-01 0.26440302E+03</pdfrwt>
<pdfrwt beam="2">  1       -2 0.56911397E-02 0.26440302E+03</pdfrwt>
<totfact> 0.10565681E+04</totfact>
</mgrwt>
</event>
<event>
 4    1  0.1672993E-004  0.3053104E+03  0.7818608E-02  0.1082616E+00
         -4   -1    0    0    0  501 -0.00000000000E+00  0.00000000000E+00  0.11996683142E+03  0.11996683142E+03  0.00000000000E+00 0.  1.
          4   -1    0    0  501    0  0.00000000000E+00 -0.00000000000E+00 -0.19425050134E+03  0.19425050134E+03  0.00000000000E+00 0.  1.
         25    1    1    2    0    0 -0.60781947590E+02  0.70571724300E+02 -0.21574293965E+02  0.15342836629E+03  0.12000000000E+03 0.  0.
         25    1    1    2    0    0  0.60781947590E+02 -0.70571724300E+02 -0.52709375948E+02  0.16078896646E+03  0.12000000000E+03 0.  0.
<mgrwt>
<rscale>  0 0.30531045E+03</rscale>
<asrwt>0</asrwt>
<pdfrwt beam="1">  1        4 0.29884692E-01 0.30531045E+03</pdfrwt>
<pdfrwt beam="2">  1       -4 0.18456436E-01 0.30531045E+03</pdfrwt>
<totfact> 0.53037418E+02</totfact>
</mgrwt>
</event>
<event>
 4    1  0.1672993E-004  0.2613240E+03  0.7818608E-02  0.1106350E+00
         -2   -1    0    0    0  501 -0.00000000000E+00  0.00000000000E+00  0.32976892841E+02  0.32976892841E+02  0.00000000000E+00 0.  1.
          2   -1    0    0  501    0  0.00000000000E+00 -0.00000000000E+00 -0.51771270077E+03  0.51771270077E+03  0.00000000000E+00 0.  1.
         25    1    1    2    0    0 -0.69462922901E+01 -0.39416984289E+02 -0.17341658760E+03  0.21465149075E+03  0.12000000000E+03 0.  0.
         25    1    1    2    0    0  0.69462922901E+01  0.39416984289E+02 -0.31131922034E+03  0.33603810287E+03  0.12000000000E+03 0.  0.
<mgrwt>
<rscale>  0 0.26132398E+03</rscale>
<asrwt>0</asrwt>
<pdfrwt beam="1">  1        2 0.79648107E-01 0.26132398E+03</pdfrwt>
<pdfrwt beam="2">  1       -2 0.50733682E-02 0.26132398E+03</pdfrwt>
<totfact> 0.11360756E+04</totfact>
</mgrwt>
</event>
<event>
 4    1  0.1672993E-004  0.2918023E+03  0.7818608E-02  0.1089412E+00
          1   -1    0    0  501    0  0.00000000000E+00  0.00000000000E+00  0.65728829748E+03  0.65728829748E+03  0.00000000000E+00 0. -1.
         -1   -1    0    0    0  501 -0.00000000000E+00 -0.00000000000E+00 -0.32386324625E+02  0.32386324625E+02  0.00000000000E+00 0. -1.
         25    1    1    2    0    0 -0.75691546901E+01  0.24665204376E+02  0.49887531741E+03  0.51375309900E+03  0.12000000000E+03 0.  0.
         25    1    1    2    0    0  0.75691546901E+01 -0.24665204376E+02  0.12602665545E+03  0.17592152311E+03  0.12000000000E+03 0.  0.
<mgrwt>
<rscale>  0 0.29180235E+03</rscale>
<asrwt>0</asrwt>
<pdfrwt beam="1">  1        1 0.10112127E+00 0.29180235E+03</pdfrwt>
<pdfrwt beam="2">  1       -1 0.49825120E-02 0.29180235E+03</pdfrwt>
<totfact> 0.54611890E+03</totfact>
</mgrwt>
</event>
<event>
 4    1  0.1672993E-004  0.2536972E+03  0.7818608E-02  0.1110990E+00
          1   -1    0    0  501    0  0.00000000000E+00  0.00000000000E+00  0.14511845193E+04  0.14511845193E+04  0.00000000000E+00 0.  1.
         -1   -1    0    0    0  501 -0.00000000000E+00 -0.00000000000E+00 -0.11087884615E+02  0.11087884615E+02  0.00000000000E+00 0.  1.
         25    1    1    2    0    0  0.22620987699E+02 -0.33853248004E+02  0.68703045481E+03  0.69861906453E+03  0.12000000000E+03 0.  0.
         25    1    1    2    0    0 -0.22620987699E+02  0.33853248004E+02  0.75306617982E+03  0.76365333934E+03  0.12000000000E+03 0.  0.
<mgrwt>
<rscale>  0 0.25369719E+03</rscale>
<asrwt>0</asrwt>
<pdfrwt beam="1">  1        1 0.22325901E+00 0.25369719E+03</pdfrwt>
<pdfrwt beam="2">  1       -1 0.17058296E-02 0.25369719E+03</pdfrwt>
<totfact> 0.66624680E+03</totfact>
</mgrwt>
</event>
<event>
 4    1  0.1672993E-004  0.2707802E+03  0.7818608E-02  0.1100834E+00
          2   -1    0    0  501    0  0.00000000000E+00  0.00000000000E+00  0.86079062497E+03  0.86079062497E+03  0.00000000000E+00 0. -1.
         -2   -1    0    0    0  501 -0.00000000000E+00 -0.00000000000E+00 -0.21294926695E+02  0.21294926695E+02  0.00000000000E+00 0. -1.
         25    1    1    2    0    0  0.23700352872E+02 -0.12611987158E+02  0.60430309183E+03  0.61668711332E+03  0.12000000000E+03 0.  0.
         25    1    1    2    0    0 -0.23700352872E+02  0.12611987158E+02  0.23519260645E+03  0.26539843834E+03  0.12000000000E+03 0.  0.
<mgrwt>
<rscale>  0 0.27078016E+03</rscale>
<asrwt>0</asrwt>
<pdfrwt beam="1">  1        2 0.13242930E+00 0.27078016E+03</pdfrwt>
<pdfrwt beam="2">  1       -2 0.32761432E-02 0.27078016E+03</pdfrwt>
<totfact> 0.11923450E+04</totfact>
</mgrwt>
</event>
<event>
 4    1  0.1672993E-004  0.2584141E+03  0.7818608E-02  0.1108100E+00
          4   -1    0    0  501    0  0.00000000000E+00  0.00000000000E+00  0.15369076653E+03  0.15369076653E+03  0.00000000000E+00 0.  1.
         -4   -1    0    0    0  501 -0.00000000000E+00 -0.00000000000E+00 -0.10862369443E+03  0.10862369443E+03  0.00000000000E+00 0.  1.
         25    1    1    2    0    0  0.25765831196E+00  0.27523084167E+02 -0.17261138517E+02  0.12432028577E+03  0.12000000000E+03 0.  0.
         25    1    1    2    0    0 -0.25765831196E+00 -0.27523084167E+02  0.62328210612E+02  0.13799417520E+03  0.12000000000E+03 0.  0.
<mgrwt>
<rscale>  0 0.25841408E+03</rscale>
<asrwt>0</asrwt>
<pdfrwt beam="1">  1        4 0.23644733E-01 0.25841408E+03</pdfrwt>
<pdfrwt beam="2">  1       -4 0.16711338E-01 0.25841408E+03</pdfrwt>
<totfact> 0.96190161E+02</totfact>
</mgrwt>
</event>
<event>
 4    1  0.1672993E-004  0.2648288E+03  0.7818608E-02  0.1104276E+00
         -2   -1    0    0    0  501 -0.00000000000E+00  0.00000000000E+00  0.26430253190E+02  0.26430253190E+02  0.00000000000E+00 0.  1.
          2   -1    0    0  501    0  0.00000000000E+00 -0.00000000000E+00 -0.66339016943E+03  0.66339016943E+03  0.00000000000E+00 0.  1.
         25    1    1    2    0    0 -0.54319064266E+02  0.18826049693E+01 -0.35337478077E+03  0.37713106558E+03  0.12000000000E+03 0.  0.
         25    1    1    2    0    0  0.54319064266E+02 -0.18826049693E+01 -0.28358513547E+03  0.31268935704E+03  0.12000000000E+03 0.  0.
<mgrwt>
<rscale>  0 0.26482878E+03</rscale>
<asrwt>0</asrwt>
<pdfrwt beam="1">  1        2 0.10206002E+00 0.26482878E+03</pdfrwt>
<pdfrwt beam="2">  1       -2 0.40661930E-02 0.26482878E+03</pdfrwt>
<totfact> 0.11927688E+04</totfact>
</mgrwt>
</event>
<event>
 4    1  0.1672993E-004  0.2426934E+03  0.7818608E-02  0.1118011E+00
          2   -1    0    0  501    0  0.00000000000E+00  0.00000000000E+00  0.26840110125E+03  0.26840110125E+03  0.00000000000E+00 0. -1.
         -2   -1    0    0    0  501 -0.00000000000E+00 -0.00000000000E+00 -0.54861982920E+02  0.54861982920E+02  0.00000000000E+00 0. -1.
         25    1    1    2    0    0 -0.54430894851E+01 -0.51641601308E+01  0.84934774691E+02  0.14720805591E+03  0.12000000000E+03 0.  0.
         25    1    1    2    0    0  0.54430894851E+01  0.51641601308E+01  0.12860434364E+03  0.17605502826E+03  0.12000000000E+03 0.  0.
<mgrwt>
<rscale>  0 0.24269336E+03</rscale>
<asrwt>0</asrwt>
<pdfrwt beam="1">  1        2 0.41292476E-01 0.24269336E+03</pdfrwt>
<pdfrwt beam="2">  1       -2 0.84403052E-02 0.24269336E+03</pdfrwt>
<totfact> 0.10550574E+04</totfact>
</mgrwt>
</event>
<event>
 4    1  0.1672993E-004  0.2667231E+03  0.7818608E-02  0.1103170E+00
          1   -1    0    0  501    0  0.00000000000E+00  0.00000000000E+00  0.77023886847E+03  0.77023886847E+03  0.00000000000E+00 0. -1.
         -1   -1    0    0    0  501 -0.00000000000E+00 -0.00000000000E+00 -0.23090624954E+02  0.23090624954E+02  0.00000000000E+00 0. -1.
         25    1    1    2    0    0  0.29857175211E+02 -0.47898472429E+02  0.41559392538E+03  0.43623849599E+03  0.12000000000E+03 0.  0.
         25    1    1    2    0    0 -0.29857175211E+02  0.47898472429E+02  0.33155431814E+03  0.35709099743E+03  0.12000000000E+03 0.  0.
<mgrwt>
<rscale>  0 0.26672305E+03</rscale>
<asrwt>0</asrwt>
<pdfrwt beam="1">  1        1 0.11849827E+00 0.26672305E+03</pdfrwt>
<pdfrwt beam="2">  1       -1 0.35524044E-02 0.26672305E+03</pdfrwt>
<totfact> 0.71454189E+03</totfact>
</mgrwt>
</event>
<event>
 4    1  0.1672993E-004  0.3783536E+03  0.7818608E-02  0.1051544E+00
         -1   -1    0    0    0  501 -0.00000000000E+00  0.00000000000E+00  0.12312455511E+02  0.12312455511E+02  0.00000000000E+00 0.  1.
          1   -1    0    0  501    0  0.00000000000E+00 -0.00000000000E+00 -0.29066385477E+04  0.29066385477E+04  0.00000000000E+00 0.  1.
         25    1    1    2    0    0  0.12258844688E+03 -0.58009261702E+02 -0.10249643046E+04  0.10408385213E+04  0.12000000000E+03 0.  0.
         25    1    1    2    0    0 -0.12258844688E+03  0.58009261702E+02 -0.18693617876E+04  0.18781124819E+04  0.12000000000E+03 0.  0.
<mgrwt>
<rscale>  0 0.37835358E+03</rscale>
<asrwt>0</asrwt>
<pdfrwt beam="1">  1        1 0.44717501E+00 0.37835358E+03</pdfrwt>
<pdfrwt beam="2">  1       -1 0.18942245E-02 0.37835358E+03</pdfrwt>
<totfact> 0.61466329E+02</totfact>
</mgrwt>
</event>
<event>
 4    1  0.1672993E-004  0.2601342E+03  0.7818608E-02  0.1107063E+00
          1   -1    0    0  501    0  0.00000000000E+00  0.00000000000E+00  0.25333543938E+03  0.25333543938E+03  0.00000000000E+00 0.  1.
         -1   -1    0    0    0  501 -0.00000000000E+00 -0.00000000000E+00 -0.66778838912E+02  0.66778838912E+02  0.00000000000E+00 0.  1.
         25    1    1    2    0    0 -0.19793432087E+02  0.19353260294E+02  0.14477333229E+03  0.19006747849E+03  0.12000000000E+03 0.  0.
         25    1    1    2    0    0  0.19793432087E+02 -0.19353260294E+02  0.41783268173E+02  0.13004679980E+03  0.12000000000E+03 0.  0.
<mgrwt>
<rscale>  0 0.26013417E+03</rscale>
<asrwt>0</asrwt>
<pdfrwt beam="1">  1        1 0.38974682E-01 0.26013417E+03</pdfrwt>
<pdfrwt beam="2">  1       -1 0.10273668E-01 0.26013417E+03</pdfrwt>
<totfact> 0.62812315E+03</totfact>
</mgrwt>
</event>
<event>
 4    1  0.1672993E-004  0.2593235E+03  0.7818608E-02  0.1107550E+00
         -2   -1    0    0    0  501 -0.00000000000E+00  0.00000000000E+00  0.24536026855E+02  0.24536026855E+02  0.00000000000E+00 0. -1.
          2   -1    0    0  501    0  0.00000000000E+00 -0.00000000000E+00 -0.68520333980E+03  0.68520333980E+03  0.00000000000E+00 0. -1.
         25    1    1    2    0    0  0.15663964566E+02 -0.39750646426E+02 -0.26404139735E+03  0.29316093395E+03  0.12000000000E+03 0.  0.
         25    1    1    2    0    0 -0.15663964566E+02  0.39750646426E+02 -0.39662591559E+03  0.41657843270E+03  0.12000000000E+03 0.  0.
<mgrwt>
<rscale>  0 0.25932349E+03</rscale>
<asrwt>0</asrwt>
<pdfrwt beam="1">  1        2 0.10541588E+00 0.25932349E+03</pdfrwt>
<pdfrwt beam="2">  1       -2 0.37747739E-02 0.25932349E+03</pdfrwt>
<totfact> 0.12818803E+04</totfact>
</mgrwt>
</event>
<event>
 4    1  0.1672993E-004  0.2881932E+03  0.7818608E-02  0.1091296E+00
         -4   -1    0    0    0  501 -0.00000000000E+00  0.00000000000E+00  0.19211910268E+03  0.19211910268E+03  0.00000000000E+00 0. -1.
          4   -1    0    0  501    0  0.00000000000E+00 -0.00000000000E+00 -0.10807791318E+03  0.10807791318E+03  0.00000000000E+00 0. -1.
         25    1    1    2    0    0 -0.57355882741E+02  0.18382539982E+02  0.96508218045E+02  0.16535250591E+03  0.12000000000E+03 0.  0.
         25    1    1    2    0    0  0.57355882741E+02 -0.18382539982E+02 -0.12467028543E+02  0.13484450994E+03  0.12000000000E+03 0.  0.
<mgrwt>
<rscale>  0 0.28819321E+03</rscale>
<asrwt>0</asrwt>
<pdfrwt beam="1">  1        4 0.16627371E-01 0.28819321E+03</pdfrwt>
<pdfrwt beam="2">  1       -4 0.29556785E-01 0.28819321E+03</pdfrwt>
<totfact> 0.64828485E+02</totfact>
</mgrwt>
</event>
<event>
 4    1  0.1672993E-004  0.2859867E+03  0.7818608E-02  0.1092463E+00
          2   -1    0    0  501    0  0.00000000000E+00  0.00000000000E+00  0.28410275186E+03  0.28410275186E+03  0.00000000000E+00 0.  1.
         -2   -1    0    0    0  501 -0.00000000000E+00 -0.00000000000E+00 -0.71970803099E+02  0.71970803099E+02  0.00000000000E+00 0.  1.
         25    1    1    2    0    0  0.20513431564E+02  0.32430699381E+02  0.21855111353E+02  0.12786788897E+03  0.12000000000E+03 0.  0.
         25    1    1    2    0    0 -0.20513431564E+02 -0.32430699381E+02  0.19027683741E+03  0.22820566599E+03  0.12000000000E+03 0.  0.
<mgrwt>
<rscale>  0 0.28598674E+03</rscale>
<asrwt>0</asrwt>
<pdfrwt beam="1">  1        2 0.43708115E-01 0.28598674E+03</pdfrwt>
<pdfrwt beam="2">  1       -2 0.11072431E-01 0.28598674E+03</pdfrwt>
<totfact> 0.65005268E+03</totfact>
</mgrwt>
</event>
<event>
 4    1  0.1672993E-004  0.2610860E+03  0.7818608E-02  0.1106492E+00
         -1   -1    0    0    0  501 -0.00000000000E+00  0.00000000000E+00  0.32869431093E+02  0.32869431093E+02  0.00000000000E+00 0.  1.
          1   -1    0    0  501    0  0.00000000000E+00 -0.00000000000E+00 -0.51845965226E+03  0.51845965226E+03  0.00000000000E+00 0.  1.
         25    1    1    2    0    0 -0.30577097844E+02 -0.20409620837E+02 -0.16695205237E+03  0.20886478718E+03  0.12000000000E+03 0.  0.
         25    1    1    2    0    0  0.30577097844E+02  0.20409620837E+02 -0.31863816880E+03  0.34246429617E+03  0.12000000000E+03 0.  0.
<mgrwt>
<rscale>  0 0.26108599E+03</rscale>
<asrwt>0</asrwt>
<pdfrwt beam="1">  1        1 0.79763019E-01 0.26108599E+03</pdfrwt>
<pdfrwt beam="2">  1       -1 0.50568358E-02 0.26108599E+03</pdfrwt>
<totfact> 0.73876317E+03</totfact>
</mgrwt>
</event>
<event>
 4    1  0.1672993E-004  0.3898105E+03  0.7818608E-02  0.1047366E+00
          2   -1    0    0  501    0  0.00000000000E+00  0.00000000000E+00  0.54308344097E+03  0.54308344097E+03  0.00000000000E+00 0.  1.
         -2   -1    0    0    0  501 -0.00000000000E+00 -0.00000000000E+00 -0.69948829700E+02  0.69948829700E+02  0.00000000000E+00 0.  1.
         25    1    1    2    0    0 -0.79139769405E+02 -0.12170344789E+03  0.15772760188E+03  0.24566812721E+03  0.12000000000E+03 0.  0.
         25    1    1    2    0    0  0.79139769405E+02  0.12170344789E+03  0.31540700939E+03  0.36736414346E+03  0.12000000000E+03 0.  0.
<mgrwt>
<rscale>  0 0.38981047E+03</rscale>
<asrwt>0</asrwt>
<pdfrwt beam="1">  1        2 0.83551296E-01 0.38981047E+03</pdfrwt>
<pdfrwt beam="2">  1       -2 0.10761359E-01 0.38981047E+03</pdfrwt>
<totfact> 0.33598827E+03</totfact>
</mgrwt>
</event>
<event>
 4    1  0.1672993E-004  0.2456752E+03  0.7818608E-02  0.1116069E+00
         -1   -1    0    0    0  501 -0.00000000000E+00  0.00000000000E+00  0.41392403076E+02  0.41392403076E+02  0.00000000000E+00 0.  1.
          1   -1    0    0  501    0  0.00000000000E+00 -0.00000000000E+00 -0.36453731527E+03  0.36453731527E+03  0.00000000000E+00 0.  1.
         25    1    1    2    0    0  0.11257676845E+02 -0.23325826438E+02 -0.16863032590E+03  0.20858335571E+03  0.12000000000E+03 0.  0.
         25    1    1    2    0    0 -0.11257676845E+02  0.23325826438E+02 -0.15451458629E+03  0.19734636263E+03  0.12000000000E+03 0.  0.
<mgrwt>
<rscale>  0 0.24567520E+03</rscale>
<asrwt>0</asrwt>
<pdfrwt beam="1">  1        1 0.56082661E-01 0.24567520E+03</pdfrwt>
<pdfrwt beam="2">  1       -1 0.63680623E-02 0.24567520E+03</pdfrwt>
<totfact> 0.82299353E+03</totfact>
</mgrwt>
</event>
<event>
 4    1  0.1672993E-004  0.3987550E+03  0.7818608E-02  0.1044212E+00
         -2   -1    0    0    0  501 -0.00000000000E+00  0.00000000000E+00  0.77679345156E+02  0.77679345156E+02  0.00000000000E+00 0.  1.
          2   -1    0    0  501    0  0.00000000000E+00 -0.00000000000E+00 -0.51173685290E+03  0.51173685290E+03  0.00000000000E+00 0.  1.
         25    1    1    2    0    0  0.57661134849E+02  0.14274939647E+03 -0.27705634178E+03  0.33891357776E+03  0.12000000000E+03 0.  0.
         25    1    1    2    0    0 -0.57661134849E+02 -0.14274939647E+03 -0.15700116596E+03  0.25050262030E+03  0.12000000000E+03 0.  0.
<mgrwt>
<rscale>  0 0.39875498E+03</rscale>
<asrwt>0</asrwt>
<pdfrwt beam="1">  1        2 0.78728752E-01 0.39875498E+03</pdfrwt>
<pdfrwt beam="2">  1       -2 0.11950668E-01 0.39875498E+03</pdfrwt>
<totfact> 0.30354578E+03</totfact>
</mgrwt>
</event>
<event>
 4    1  0.1672993E-004  0.2485449E+03  0.7818608E-02  0.1114228E+00
          1   -1    0    0  501    0  0.00000000000E+00  0.00000000000E+00  0.17433086241E+02  0.17433086241E+02  0.00000000000E+00 0. -1.
         -1   -1    0    0    0  501 -0.00000000000E+00 -0.00000000000E+00 -0.88588103883E+03  0.88588103883E+03  0.00000000000E+00 0. -1.
         25    1    1    2    0    0  0.51759810490E+01  0.24757733023E+02 -0.50726607930E+03  0.52187988209E+03  0.12000000000E+03 0.  0.
         25    1    1    2    0    0 -0.51759810490E+01 -0.24757733023E+02 -0.36118187330E+03  0.38143424299E+03  0.12000000000E+03 0.  0.
<mgrwt>
<rscale>  0 0.24854489E+03</rscale>
<asrwt>0</asrwt>
<pdfrwt beam="1">  1        1 0.26820124E-02 0.24854489E+03</pdfrwt>
<pdfrwt beam="2">  1       -1 0.13628944E+00 0.24854489E+03</pdfrwt>
<totfact> 0.19246700E+03</totfact>
</mgrwt>
</event>
<event>
 4    1  0.1672993E-004  0.2519890E+03  0.7818608E-02  0.1112054E+00
          1   -1    0    0  501    0  0.00000000000E+00  0.00000000000E+00  0.25444586322E+03  0.25444586322E+03  0.00000000000E+00 0.  1.
         -1   -1    0    0    0  501 -0.00000000000E+00 -0.00000000000E+00 -0.62388975024E+02  0.62388975024E+02  0.00000000000E+00 0.  1.
         25    1    1    2    0    0 -0.25447604660E+02  0.25474222773E+01  0.60011824188E+02  0.13658509796E+03  0.12000000000E+03 0.  0.
         25    1    1    2    0    0  0.25447604660E+02 -0.25474222773E+01  0.13204506401E+03  0.18024974029E+03  0.12000000000E+03 0.  0.
<mgrwt>
<rscale>  0 0.25198902E+03</rscale>
<asrwt>0</asrwt>
<pdfrwt beam="1">  1        1 0.39145517E-01 0.25198902E+03</pdfrwt>
<pdfrwt beam="2">  1       -1 0.95983040E-02 0.25198902E+03</pdfrwt>
<totfact> 0.69292673E+03</totfact>
</mgrwt>
</event>
<event>
 4    1  0.1672993E-004  0.3142460E+03  0.7818608E-02  0.1078328E+00
         -2   -1    0    0    0  501 -0.00000000000E+00  0.00000000000E+00  0.41155249740E+02  0.41155249740E+02  0.00000000000E+00 0. -1.
          2   -1    0    0  501    0  0.00000000000E+00 -0.00000000000E+00 -0.59986595473E+03  0.59986595473E+03  0.00000000000E+00 0. -1.
         25    1    1    2    0    0  0.26578648213E+02 -0.21848050629E+02 -0.84722688245E+02  0.15086979738E+03  0.12000000000E+03 0.  0.
         25    1    1    2    0    0 -0.26578648213E+02  0.21848050629E+02 -0.47398801675E+03  0.49015140709E+03  0.12000000000E+03 0.  0.
<mgrwt>
<rscale>  0 0.31424597E+03</rscale>
<asrwt>0</asrwt>
<pdfrwt beam="1">  1        2 0.92287073E-01 0.31424597E+03</pdfrwt>
<pdfrwt beam="2">  1       -2 0.63315767E-02 0.31424597E+03</pdfrwt>
<totfact> 0.68805008E+03</totfact>
</mgrwt>
</event>
<event>
 4    1  0.1672993E-004  0.2501498E+03  0.7818608E-02  0.1113210E+00
         -4   -1    0    0    0  501 -0.00000000000E+00  0.00000000000E+00  0.10512903574E+02  0.10512903574E+02  0.00000000000E+00 0. -1.
          4   -1    0    0  501    0  0.00000000000E+00 -0.00000000000E+00 -0.14880509450E+04  0.14880509450E+04  0.00000000000E+00 0. -1.
         25    1    1    2    0    0  0.27394354665E+02  0.16318456615E+02 -0.82902617437E+03  0.83827271247E+03  0.12000000000E+03 0.  0.
         25    1    1    2    0    0 -0.27394354665E+02 -0.16318456615E+02 -0.64851186704E+03  0.66029113608E+03  0.12000000000E+03 0.  0.
<mgrwt>
<rscale>  0 0.25014984E+03</rscale>
<asrwt>0</asrwt>
<pdfrwt beam="1">  1        4 0.22893090E+00 0.25014984E+03</pdfrwt>
<pdfrwt beam="2">  1       -4 0.16173699E-02 0.25014984E+03</pdfrwt>
<totfact> 0.24970803E+02</totfact>
</mgrwt>
</event>
<event>
 4    1  0.1672993E-004  0.3634975E+03  0.7818608E-02  0.1057208E+00
          1   -1    0    0  501    0  0.00000000000E+00  0.00000000000E+00  0.11724433542E+03  0.11724433542E+03  0.00000000000E+00 0. -1.
         -1   -1    0    0    0  501 -0.00000000000E+00 -0.00000000000E+00 -0.28174165821E+03  0.28174165821E+03  0.00000000000E+00 0. -1.
         25    1    1    2    0    0 -0.93970670380E+02  0.91542867191E+02 -0.12364010502E+03  0.21655821156E+03  0.12000000000E+03 0.  0.
         25    1    1    2    0    0  0.93970670380E+02 -0.91542867191E+02 -0.40857217768E+02  0.18242778206E+03  0.12000000000E+03 0.  0.
<mgrwt>
<rscale>  0 0.36349753E+03</rscale>
<asrwt>0</asrwt>
<pdfrwt beam="1">  1        1 0.18037590E-01 0.36349753E+03</pdfrwt>
<pdfrwt beam="2">  1       -1 0.43344870E-01 0.36349753E+03</pdfrwt>
<totfact> 0.15675157E+03</totfact>
</mgrwt>
</event>
<event>
 4    1  0.1672993E-004  0.3284055E+03  0.7818608E-02  0.1071845E+00
          1   -1    0    0  501    0  0.00000000000E+00  0.00000000000E+00  0.32424055630E+03  0.32424055630E+03  0.00000000000E+00 0. -1.
         -1   -1    0    0    0  501 -0.00000000000E+00 -0.00000000000E+00 -0.83155991459E+02  0.83155991459E+02  0.00000000000E+00 0. -1.
         25    1    1    2    0    0  0.30447085138E+02  0.97147512120E+02  0.17870021746E+03  0.23811432511E+03  0.12000000000E+03 0.  0.
         25    1    1    2    0    0 -0.30447085138E+02 -0.97147512120E+02  0.62384347377E+02  0.16928222264E+03  0.12000000000E+03 0.  0.
<mgrwt>
<rscale>  0 0.32840551E+03</rscale>
<asrwt>0</asrwt>
<pdfrwt beam="1">  1        1 0.49883162E-01 0.32840551E+03</pdfrwt>
<pdfrwt beam="2">  1       -1 0.12793230E-01 0.32840551E+03</pdfrwt>
<totfact> 0.32900528E+03</totfact>
</mgrwt>
</event>
<event>
 4    1  0.1672993E-004  0.3488818E+03  0.7818608E-02  0.1063075E+00
          2   -1    0    0  501    0  0.00000000000E+00  0.00000000000E+00  0.57856335258E+03  0.57856335258E+03  0.00000000000E+00 0.  1.
         -2   -1    0    0    0  501 -0.00000000000E+00 -0.00000000000E+00 -0.52595156995E+02  0.52595156995E+02  0.00000000000E+00 0.  1.
         25    1    1    2    0    0  0.42209064292E+02  0.40670952460E+02  0.46600474540E+03  0.48476401910E+03  0.12000000000E+03 0.  0.
         25    1    1    2    0    0 -0.42209064292E+02 -0.40670952460E+02  0.59963450187E+02  0.14639449047E+03  0.12000000000E+03 0.  0.
<mgrwt>
<rscale>  0 0.34888182E+03</rscale>
<asrwt>0</asrwt>
<pdfrwt beam="1">  1        2 0.89009742E-01 0.34888182E+03</pdfrwt>
<pdfrwt beam="2">  1       -2 0.80915630E-02 0.34888182E+03</pdfrwt>
<totfact> 0.49087836E+03</totfact>
</mgrwt>
</event>
<event>
 4    1  0.1672993E-004  0.2523821E+03  0.7818608E-02  0.1111809E+00
          3   -1    0    0  501    0  0.00000000000E+00  0.00000000000E+00  0.20947972947E+03  0.20947972947E+03  0.00000000000E+00 0. -1.
         -3   -1    0    0    0  501 -0.00000000000E+00 -0.00000000000E+00 -0.76017762597E+02  0.76017762597E+02  0.00000000000E+00 0. -1.
         25    1    1    2    0    0  0.17199769082E+02 -0.32944555710E+02  0.53203448467E+02  0.13642500774E+03  0.12000000000E+03 0.  0.
         25    1    1    2    0    0 -0.17199769082E+02  0.32944555710E+02  0.80258518406E+02  0.14907248433E+03  0.12000000000E+03 0.  0.
<mgrwt>
<rscale>  0 0.25238209E+03</rscale>
<asrwt>0</asrwt>
<pdfrwt beam="1">  1        3 0.32227650E-01 0.25238209E+03</pdfrwt>
<pdfrwt beam="2">  1       -3 0.11695041E-01 0.25238209E+03</pdfrwt>
<totfact> 0.13424321E+03</totfact>
</mgrwt>
</event>
<event>
 4    1  0.1672993E-004  0.2502960E+03  0.7818608E-02  0.1113118E+00
         -2   -1    0    0    0  501 -0.00000000000E+00  0.00000000000E+00  0.13375340076E+02  0.13375340076E+02  0.00000000000E+00 0. -1.
          2   -1    0    0  501    0  0.00000000000E+00 -0.00000000000E+00 -0.11709625353E+04  0.11709625353E+04  0.00000000000E+00 0. -1.
         25    1    1    2    0    0 -0.20738247851E+02  0.57569116703E+01 -0.71252769154E+03  0.72288237505E+03  0.12000000000E+03 0.  0.
         25    1    1    2    0    0  0.20738247851E+02 -0.57569116703E+01 -0.44505950369E+03  0.46145550033E+03  0.12000000000E+03 0.  0.
<mgrwt>
<rscale>  0 0.25029600E+03</rscale>
<asrwt>0</asrwt>
<pdfrwt beam="1">  1        2 0.18014810E+00 0.25029600E+03</pdfrwt>
<pdfrwt beam="2">  1       -2 0.20577444E-02 0.25029600E+03</pdfrwt>
<totfact> 0.15307036E+04</totfact>
</mgrwt>
</event>
<event>
 4    1  0.1672993E-004  0.3167661E+03  0.7818608E-02  0.1077147E+00
         -2   -1    0    0    0  501 -0.00000000000E+00  0.00000000000E+00  0.22819586312E+02  0.22819586312E+02  0.00000000000E+00 0. -1.
          2   -1    0    0  501    0  0.00000000000E+00 -0.00000000000E+00 -0.10992835251E+04  0.10992835251E+04  0.00000000000E+00 0. -1.
         25    1    1    2    0    0  0.45806311166E+02  0.85907574279E+02 -0.66129384266E+03  0.67910814735E+03  0.12000000000E+03 0.  0.
         25    1    1    2    0    0 -0.45806311166E+02 -0.85907574279E+02 -0.41517009611E+03  0.44299496404E+03  0.12000000000E+03 0.  0.
<mgrwt>
<rscale>  0 0.31676613E+03</rscale>
<asrwt>0</asrwt>
<pdfrwt beam="1">  1        2 0.16912054E+00 0.31676613E+03</pdfrwt>
<pdfrwt beam="2">  1       -2 0.35107056E-02 0.31676613E+03</pdfrwt>
<totfact> 0.76708555E+03</totfact>
</mgrwt>
</event>
<event>
 4    1  0.1672993E-004  0.2667892E+03  0.7818608E-02  0.1103131E+00
          2   -1    0    0  501    0  0.00000000000E+00  0.00000000000E+00  0.59319543574E+02  0.59319543574E+02  0.00000000000E+00 0. -1.
         -2   -1    0    0    0  501 -0.00000000000E+00 -0.00000000000E+00 -0.29997063850E+03  0.29997063850E+03  0.00000000000E+00 0. -1.
         25    1    1    2    0    0  0.52930075613E+02  0.18111112521E+02 -0.98422572699E+02  0.16497456809E+03  0.12000000000E+03 0.  0.
         25    1    1    2    0    0 -0.52930075613E+02 -0.18111112521E+02 -0.14222852222E+03  0.19431561398E+03  0.12000000000E+03 0.  0.
<mgrwt>
<rscale>  0 0.26678922E+03</rscale>
<asrwt>0</asrwt>
<pdfrwt beam="1">  1        2 0.91260837E-02 0.26678922E+03</pdfrwt>
<pdfrwt beam="2">  1       -2 0.46149329E-01 0.26678922E+03</pdfrwt>
<totfact> 0.32225703E+03</totfact>
</mgrwt>
</event>
<event>
 4    1  0.1672993E-004  0.2839909E+03  0.7818608E-02  0.1093529E+00
          1   -1    0    0  501    0  0.00000000000E+00  0.00000000000E+00  0.11187876301E+04  0.11187876301E+04  0.00000000000E+00 0. -1.
         -1   -1    0    0    0  501 -0.00000000000E+00 -0.00000000000E+00 -0.18021929170E+02  0.18021929170E+02  0.00000000000E+00 0. -1.
         25    1    1    2    0    0  0.40464865534E+02 -0.33780602316E+02  0.76905604158E+03  0.78014468500E+03  0.12000000000E+03 0.  0.
         25    1    1    2    0    0 -0.40464865534E+02  0.33780602316E+02  0.33170965935E+03  0.35666487427E+03  0.12000000000E+03 0.  0.
<mgrwt>
<rscale>  0 0.28399093E+03</rscale>
<asrwt>0</asrwt>
<pdfrwt beam="1">  1        1 0.17212112E+00 0.28399093E+03</pdfrwt>
<pdfrwt beam="2">  1       -1 0.27726054E-02 0.28399093E+03</pdfrwt>
<totfact> 0.55461617E+03</totfact>
</mgrwt>
</event>
<event>
 4    1  0.1672993E-004  0.2804024E+03  0.7818608E-02  0.1095469E+00
         -1   -1    0    0    0  501 -0.00000000000E+00  0.00000000000E+00  0.20389771132E+02  0.20389771132E+02  0.00000000000E+00 0. -1.
          1   -1    0    0  501    0  0.00000000000E+00 -0.00000000000E+00 -0.96403154721E+03  0.96403154721E+03  0.00000000000E+00 0. -1.
         25    1    1    2    0    0  0.55401353318E+02 -0.42825216108E+02 -0.40585311945E+03  0.42897559797E+03  0.12000000000E+03 0.  0.
         25    1    1    2    0    0 -0.55401353318E+02  0.42825216108E+02 -0.53778865663E+03  0.55544572037E+03  0.12000000000E+03 0.  0.
<mgrwt>
<rscale>  0 0.28040244E+03</rscale>
<asrwt>0</asrwt>
<pdfrwt beam="1">  1        1 0.14831255E+00 0.28040244E+03</pdfrwt>
<pdfrwt beam="2">  1       -1 0.31368879E-02 0.28040244E+03</pdfrwt>
<totfact> 0.60106760E+03</totfact>
</mgrwt>
</event>
<event>
 4    1  0.1672993E-004  0.5529716E+03  0.7818608E-02  0.1000808E+00
         -1   -1    0    0    0  501 -0.00000000000E+00  0.00000000000E+00  0.12116503965E+03  0.12116503965E+03  0.00000000000E+00 0. -1.
          1   -1    0    0  501    0  0.00000000000E+00 -0.00000000000E+00 -0.63091128258E+03  0.63091128258E+03  0.00000000000E+00 0. -1.
         25    1    1    2    0    0  0.14306883034E+03  0.89372916346E+01 -0.53192513543E+03  0.56381993145E+03  0.12000000000E+03 0.  0.
         25    1    1    2    0    0 -0.14306883034E+03 -0.89372916346E+01  0.22178892498E+02  0.18825639078E+03  0.12000000000E+03 0.  0.
<mgrwt>
<rscale>  0 0.55297157E+03</rscale>
<asrwt>0</asrwt>
<pdfrwt beam="1">  1        1 0.97063276E-01 0.55297157E+03</pdfrwt>
<pdfrwt beam="2">  1       -1 0.18640775E-01 0.55297157E+03</pdfrwt>
<totfact> 0.73811160E+02</totfact>
</mgrwt>
</event>
<event>
 4    1  0.1672993E-004  0.3110170E+03  0.7818608E-02  0.1079859E+00
          1   -1    0    0  501    0  0.00000000000E+00  0.00000000000E+00  0.16350808386E+04  0.16350808386E+04  0.00000000000E+00 0.  1.
         -1   -1    0    0    0  501 -0.00000000000E+00 -0.00000000000E+00 -0.14790027948E+02  0.14790027948E+02  0.00000000000E+00 0.  1.
         25    1    1    2    0    0  0.65017728413E+02  0.73615880491E+02  0.87207458747E+03  0.88575430508E+03  0.12000000000E+03 0.  0.
         25    1    1    2    0    0 -0.65017728413E+02 -0.73615880491E+02  0.74821622322E+03  0.76411656150E+03  0.12000000000E+03 0.  0.
<mgrwt>
<rscale>  0 0.31101699E+03</rscale>
<asrwt>0</asrwt>
<pdfrwt beam="1">  1        1 0.25155076E+00 0.31101699E+03</pdfrwt>
<pdfrwt beam="2">  1       -1 0.22753902E-02 0.31101699E+03</pdfrwt>
<totfact> 0.33084029E+03</totfact>
</mgrwt>
</event>
<event>
 4    1  0.1672993E-004  0.3729473E+03  0.7818608E-02  0.1053572E+00
         -2   -1    0    0    0  501 -0.00000000000E+00  0.00000000000E+00  0.11183273001E+02  0.11183273001E+02  0.00000000000E+00 0.  1.
          2   -1    0    0  501    0  0.00000000000E+00 -0.00000000000E+00 -0.31093246011E+04  0.31093246011E+04  0.00000000000E+00 0.  1.
         25    1    1    2    0    0 -0.34745319180E+02  0.12269905447E+03 -0.10126498661E+04  0.10276779878E+04  0.12000000000E+03 0.  0.
         25    1    1    2    0    0  0.34745319180E+02 -0.12269905447E+03 -0.20854914620E+04  0.20928298863E+04  0.12000000000E+03 0.  0.
<mgrwt>
<rscale>  0 0.37294732E+03</rscale>
<asrwt>0</asrwt>
<pdfrwt beam="1">  1        2 0.47835841E+00 0.37294732E+03</pdfrwt>
<pdfrwt beam="2">  1       -2 0.17205007E-02 0.37294732E+03</pdfrwt>
<totfact> 0.17064771E+03</totfact>
</mgrwt>
</event>
<event>
 4    1  0.1672993E-004  0.3217521E+03  0.7818608E-02  0.1074846E+00
         -1   -1    0    0    0  501 -0.00000000000E+00  0.00000000000E+00  0.30032220792E+02  0.30032220792E+02  0.00000000000E+00 0.  1.
          1   -1    0    0  501    0  0.00000000000E+00 -0.00000000000E+00 -0.86177774353E+03  0.86177774353E+03  0.00000000000E+00 0.  1.
         25    1    1    2    0    0 -0.74505004059E+02  0.75707995187E+02 -0.45491416397E+03  0.48231690074E+03  0.12000000000E+03 0.  0.
         25    1    1    2    0    0  0.74505004059E+02 -0.75707995187E+02 -0.37683135877E+03  0.40949306358E+03  0.12000000000E+03 0.  0.
<mgrwt>
<rscale>  0 0.32175208E+03</rscale>
<asrwt>0</asrwt>
<pdfrwt beam="1">  1        1 0.13258120E+00 0.32175208E+03</pdfrwt>
<pdfrwt beam="2">  1       -1 0.46203414E-02 0.32175208E+03</pdfrwt>
<totfact> 0.40697512E+03</totfact>
</mgrwt>
</event>
<event>
 4    1  0.1672993E-004  0.2833866E+03  0.7818608E-02  0.1093854E+00
          2   -1    0    0  501    0  0.00000000000E+00  0.00000000000E+00  0.32320384891E+03  0.32320384891E+03  0.00000000000E+00 0. -1.
         -2   -1    0    0    0  501 -0.00000000000E+00 -0.00000000000E+00 -0.62118652316E+02  0.62118652316E+02  0.00000000000E+00 0. -1.
         25    1    1    2    0    0  0.26343478854E+02  0.58589353973E+02  0.18407940305E+03  0.22893649317E+03  0.12000000000E+03 0.  0.
         25    1    1    2    0    0 -0.26343478854E+02 -0.58589353973E+02  0.77005793545E+02  0.15638600806E+03  0.12000000000E+03 0.  0.
<mgrwt>
<rscale>  0 0.28338657E+03</rscale>
<asrwt>0</asrwt>
<pdfrwt beam="1">  1        2 0.49723668E-01 0.28338657E+03</pdfrwt>
<pdfrwt beam="2">  1       -2 0.95567159E-02 0.28338657E+03</pdfrwt>
<totfact> 0.71524895E+03</totfact>
</mgrwt>
</event>
<event>
 4    1  0.1672993E-004  0.4418924E+03  0.7818608E-02  0.1030168E+00
         -1   -1    0    0    0  501 -0.00000000000E+00  0.00000000000E+00  0.25659980182E+02  0.25659980182E+02  0.00000000000E+00 0. -1.
          1   -1    0    0  501    0  0.00000000000E+00 -0.00000000000E+00 -0.19024654652E+04  0.19024654652E+04  0.00000000000E+00 0. -1.
         25    1    1    2    0    0  0.10369235971E+03  0.13493768257E+03 -0.12607273257E+04  0.12778081520E+04  0.12000000000E+03 0.  0.
         25    1    1    2    0    0 -0.10369235971E+03 -0.13493768257E+03 -0.61607815935E+03  0.65031729338E+03  0.12000000000E+03 0.  0.
<mgrwt>
<rscale>  0 0.44189241E+03</rscale>
<asrwt>0</asrwt>
<pdfrwt beam="1">  1        1 0.29268706E+00 0.44189241E+03</pdfrwt>
<pdfrwt beam="2">  1       -1 0.39476884E-02 0.44189241E+03</pdfrwt>
<totfact> 0.96602372E+02</totfact>
</mgrwt>
</event>
<event>
 4    1  0.1672993E-004  0.2551189E+03  0.7818608E-02  0.1110112E+00
          2   -1    0    0  501    0  0.00000000000E+00  0.00000000000E+00  0.52286664160E+03  0.52286664160E+03  0.00000000000E+00 0.  1.
         -2   -1    0    0    0  501 -0.00000000000E+00 -0.00000000000E+00 -0.31119616674E+02  0.31119616674E+02  0.00000000000E+00 0.  1.
         25    1    1    2    0    0 -0.94710044451E+01  0.32098844324E+02  0.30539645765E+03  0.32982879207E+03  0.12000000000E+03 0.  0.
         25    1    1    2    0    0  0.94710044451E+01 -0.32098844324E+02  0.18635056728E+03  0.22415746621E+03  0.12000000000E+03 0.  0.
<mgrwt>
<rscale>  0 0.25511887E+03</rscale>
<asrwt>0</asrwt>
<pdfrwt beam="1">  1        2 0.80441015E-01 0.25511887E+03</pdfrwt>
<pdfrwt beam="2">  1       -2 0.47876337E-02 0.25511887E+03</pdfrwt>
<totfact> 0.12254489E+04</totfact>
</mgrwt>
</event>
<event>
 4    1  0.1672993E-004  0.2648819E+03  0.7818608E-02  0.1104245E+00
          2   -1    0    0  501    0  0.00000000000E+00  0.00000000000E+00  0.62993556349E+03  0.62993556349E+03  0.00000000000E+00 0.  1.
         -2   -1    0    0    0  501 -0.00000000000E+00 -0.00000000000E+00 -0.27845078851E+02  0.27845078851E+02  0.00000000000E+00 0.  1.
         25    1    1    2    0    0  0.20724402449E+02 -0.88188163198E+01  0.17361230351E+03  0.21224632932E+03  0.12000000000E+03 0.  0.
         25    1    1    2    0    0 -0.20724402449E+02  0.88188163198E+01  0.42847818113E+03  0.44553431302E+03  0.12000000000E+03 0.  0.
<mgrwt>
<rscale>  0 0.26488190E+03</rscale>
<asrwt>0</asrwt>
<pdfrwt beam="1">  1        2 0.96913153E-01 0.26488190E+03</pdfrwt>
<pdfrwt beam="2">  1       -2 0.42838588E-02 0.26488190E+03</pdfrwt>
<totfact> 0.11723394E+04</totfact>
</mgrwt>
</event>
<event>
 4    1  0.1672993E-004  0.2546168E+03  0.7818608E-02  0.1110421E+00
         -2   -1    0    0    0  501 -0.00000000000E+00  0.00000000000E+00  0.28841298877E+02  0.28841298877E+02  0.00000000000E+00 0. -1.
          2   -1    0    0  501    0  0.00000000000E+00 -0.00000000000E+00 -0.56195222093E+03  0.56195222093E+03  0.00000000000E+00 0. -1.
         25    1    1    2    0    0  0.12236903508E+02 -0.21028278934E+01 -0.17221015692E+03  0.21026293501E+03  0.12000000000E+03 0.  0.
         25    1    1    2    0    0 -0.12236903508E+02  0.21028278934E+01 -0.36090076513E+03  0.38053058479E+03  0.12000000000E+03 0.  0.
<mgrwt>
<rscale>  0 0.25461683E+03</rscale>
<asrwt>0</asrwt>
<pdfrwt beam="1">  1        2 0.86454186E-01 0.25461683E+03</pdfrwt>
<pdfrwt beam="2">  1       -2 0.44371230E-02 0.25461683E+03</pdfrwt>
<totfact> 0.12667666E+04</totfact>
</mgrwt>
</event>
<event>
 4    1  0.1672993E-004  0.2818638E+03  0.7818608E-02  0.1094675E+00
          2   -1    0    0  501    0  0.00000000000E+00  0.00000000000E+00  0.32437839084E+04  0.32437839084E+04  0.00000000000E+00 0. -1.
         -2   -1    0    0    0  501 -0.00000000000E+00 -0.00000000000E+00 -0.61230333212E+01  0.61230333212E+01  0.00000000000E+00 0. -1.
         25    1    1    2    0    0 -0.54790121513E+02  0.49407465451E+02  0.16687462880E+04  0.16746812320E+04  0.12000000000E+03 0.  0.
         25    1    1    2    0    0  0.54790121513E+02 -0.49407465451E+02  0.15689145871E+04  0.15752257098E+04  0.12000000000E+03 0.  0.
<mgrwt>
<rscale>  0 0.28186378E+03</rscale>
<asrwt>0</asrwt>
<pdfrwt beam="1">  1        2 0.49904231E+00 0.28186378E+03</pdfrwt>
<pdfrwt beam="2">  1       -2 0.94200772E-03 0.28186378E+03</pdfrwt>
<totfact> 0.34423901E+03</totfact>
</mgrwt>
</event>
<event>
 4    1  0.1672993E-004  0.2824102E+03  0.7818608E-02  0.1094380E+00
         -1   -1    0    0    0  501 -0.00000000000E+00  0.00000000000E+00  0.41848693566E+02  0.41848693566E+02  0.00000000000E+00 0.  1.
          1   -1    0    0  501    0  0.00000000000E+00 -0.00000000000E+00 -0.47645183988E+03  0.47645183988E+03  0.00000000000E+00 0.  1.
         25    1    1    2    0    0 -0.53583112830E+02 -0.25822480254E+02 -0.13520635422E+03  0.19031213489E+03  0.12000000000E+03 0.  0.
         25    1    1    2    0    0  0.53583112830E+02  0.25822480254E+02 -0.29939679209E+03  0.32798839855E+03  0.12000000000E+03 0.  0.
<mgrwt>
<rscale>  0 0.28241025E+03</rscale>
<asrwt>0</asrwt>
<pdfrwt beam="1">  1        1 0.73300281E-01 0.28241025E+03</pdfrwt>
<pdfrwt beam="2">  1       -1 0.64382607E-02 0.28241025E+03</pdfrwt>
<totfact> 0.57596956E+03</totfact>
</mgrwt>
</event>
<event>
 4    1  0.1672993E-004  0.2813367E+03  0.7818608E-02  0.1094961E+00
         -2   -1    0    0    0  501 -0.00000000000E+00  0.00000000000E+00  0.81486436494E+02  0.81486436494E+02  0.00000000000E+00 0.  1.
          2   -1    0    0  501    0  0.00000000000E+00 -0.00000000000E+00 -0.24283277871E+03  0.24283277871E+03  0.00000000000E+00 0.  1.
         25    1    1    2    0    0  0.41490995663E+02 -0.28261562997E+02 -0.18944431017E+02  0.13145002903E+03  0.12000000000E+03 0.  0.
         25    1    1    2    0    0 -0.41490995663E+02  0.28261562997E+02 -0.14240191120E+03  0.19286918618E+03  0.12000000000E+03 0.  0.
<mgrwt>
<rscale>  0 0.28133665E+03</rscale>
<asrwt>0</asrwt>
<pdfrwt beam="1">  1        2 0.37358889E-01 0.28133665E+03</pdfrwt>
<pdfrwt beam="2">  1       -2 0.12536375E-01 0.28133665E+03</pdfrwt>
<totfact> 0.62990799E+03</totfact>
</mgrwt>
</event>
<event>
 4    1  0.1672993E-004  0.3347116E+03  0.7818608E-02  0.1069071E+00
          1   -1    0    0  501    0  0.00000000000E+00  0.00000000000E+00  0.71166495336E+03  0.71166495336E+03  0.00000000000E+00 0.  1.
         -1   -1    0    0    0  501 -0.00000000000E+00 -0.00000000000E+00 -0.39355548340E+02  0.39355548340E+02  0.00000000000E+00 0.  1.
         25    1    1    2    0    0  0.80396935373E+02 -0.61199166136E+02  0.46696863669E+03  0.49261416220E+03  0.12000000000E+03 0.  0.
         25    1    1    2    0    0 -0.80396935373E+02  0.61199166136E+02  0.20534076833E+03  0.25840633950E+03  0.12000000000E+03 0.  0.
<mgrwt>
<rscale>  0 0.33471160E+03</rscale>
<asrwt>0</asrwt>
<pdfrwt beam="1">  1        1 0.10948691E+00 0.33471160E+03</pdfrwt>
<pdfrwt beam="2">  1       -1 0.60547003E-02 0.33471160E+03</pdfrwt>
<totfact> 0.36343767E+03</totfact>
</mgrwt>
</event>
<event>
 4    1  0.1672993E-004  0.2684245E+03  0.7818608E-02  0.1102185E+00
         -2   -1    0    0    0  501 -0.00000000000E+00  0.00000000000E+00  0.12587015491E+03  0.12587015491E+03  0.00000000000E+00 0.  1.
          2   -1    0    0  501    0  0.00000000000E+00 -0.00000000000E+00 -0.14310721832E+03  0.14310721832E+03  0.00000000000E+00 0.  1.
         25    1    1    2    0    0 -0.87942104429E+01  0.58521766066E+02  0.19289498607E+01  0.13381276504E+03  0.12000000000E+03 0.  0.
         25    1    1    2    0    0  0.87942104429E+01 -0.58521766066E+02 -0.19166013273E+02  0.13516460818E+03  0.12000000000E+03 0.  0.
<mgrwt>
<rscale>  0 0.26842450E+03</rscale>
<asrwt>0</asrwt>
<pdfrwt beam="1">  1        2 0.22016495E-01 0.26842450E+03</pdfrwt>
<pdfrwt beam="2">  1       -2 0.19364639E-01 0.26842450E+03</pdfrwt>
<totfact> 0.54772501E+03</totfact>
</mgrwt>
</event>
<event>
 4    1  0.1672993E-004  0.2480707E+03  0.7818608E-02  0.1114530E+00
          2   -1    0    0  501    0  0.00000000000E+00  0.00000000000E+00  0.83960150229E+03  0.83960150229E+03  0.00000000000E+00 0.  1.
         -2   -1    0    0    0  501 -0.00000000000E+00 -0.00000000000E+00 -0.18323891347E+02  0.18323891347E+02  0.00000000000E+00 0.  1.
         25    1    1    2    0    0  0.30879725755E+02 -0.49550967647E+01  0.41956135749E+03  0.43750410643E+03  0.12000000000E+03 0.  0.
         25    1    1    2    0    0 -0.30879725755E+02  0.49550967647E+01  0.40171625345E+03  0.42042128720E+03  0.12000000000E+03 0.  0.
<mgrwt>
<rscale>  0 0.24807069E+03</rscale>
<asrwt>0</asrwt>
<pdfrwt beam="1">  1        2 0.12916943E+00 0.24807069E+03</pdfrwt>
<pdfrwt beam="2">  1       -2 0.28190609E-02 0.24807069E+03</pdfrwt>
<totfact> 0.15347826E+04</totfact>
</mgrwt>
</event>
<event>
 4    1  0.1672993E-004  0.2570735E+03  0.7818608E-02  0.1108914E+00
          1   -1    0    0  501    0  0.00000000000E+00  0.00000000000E+00  0.68053144388E+02  0.68053144388E+02  0.00000000000E+00 0. -1.
         -1   -1    0    0    0  501 -0.00000000000E+00 -0.00000000000E+00 -0.24277631812E+03  0.24277631812E+03  0.00000000000E+00 0. -1.
         25    1    1    2    0    0  0.21953206638E+02 -0.24279405294E+02 -0.12654598088E+03  0.17744102705E+03  0.12000000000E+03 0.  0.
         25    1    1    2    0    0 -0.21953206638E+02  0.24279405294E+02 -0.48177192849E+02  0.13338843546E+03  0.12000000000E+03 0.  0.
<mgrwt>
<rscale>  0 0.25707347E+03</rscale>
<asrwt>0</asrwt>
<pdfrwt beam="1">  1        1 0.10469715E-01 0.25707347E+03</pdfrwt>
<pdfrwt beam="2">  1       -1 0.37350203E-01 0.25707347E+03</pdfrwt>
<totfact> 0.41698249E+03</totfact>
</mgrwt>
</event>
<event>
 4    1  0.1672993E-004  0.2540565E+03  0.7818608E-02  0.1110768E+00
          2   -1    0    0  501    0  0.00000000000E+00  0.00000000000E+00  0.14524046165E+04  0.14524046165E+04  0.00000000000E+00 0.  1.
         -2   -1    0    0    0  501 -0.00000000000E+00 -0.00000000000E+00 -0.11109976668E+02  0.11109976668E+02  0.00000000000E+00 0.  1.
         25    1    1    2    0    0  0.52472447322E+01 -0.12891669873E+02  0.49440564799E+03  0.50895056095E+03  0.12000000000E+03 0.  0.
         25    1    1    2    0    0 -0.52472447322E+01  0.12891669873E+02  0.94688899183E+03  0.95456403221E+03  0.12000000000E+03 0.  0.
<mgrwt>
<rscale>  0 0.25405654E+03</rscale>
<asrwt>0</asrwt>
<pdfrwt beam="1">  1        2 0.22344671E+00 0.25405654E+03</pdfrwt>
<pdfrwt beam="2">  1       -2 0.17092283E-02 0.25405654E+03</pdfrwt>
<totfact> 0.14059324E+04</totfact>
</mgrwt>
</event>
<event>
 4    1  0.1672993E-004  0.2788286E+03  0.7818608E-02  0.1096330E+00
          1   -1    0    0  501    0  0.00000000000E+00  0.00000000000E+00  0.40786561457E+03  0.40786561457E+03  0.00000000000E+00 0. -1.
         -1   -1    0    0    0  501 -0.00000000000E+00 -0.00000000000E+00 -0.47653800342E+02  0.47653800342E+02  0.00000000000E+00 0. -1.
         25    1    1    2    0    0  0.37347016051E+02  0.30646282224E+02  0.26503188685E+03  0.29491675990E+03  0.12000000000E+03 0.  0.
         25    1    1    2    0    0 -0.37347016051E+02 -0.30646282224E+02  0.95179927380E+02  0.16060265502E+03  0.12000000000E+03 0.  0.
<mgrwt>
<rscale>  0 0.27882860E+03</rscale>
<asrwt>0</asrwt>
<pdfrwt beam="1">  1        1 0.62748554E-01 0.27882860E+03</pdfrwt>
<pdfrwt beam="2">  1       -1 0.73313541E-02 0.27882860E+03</pdfrwt>
<totfact> 0.57866592E+03</totfact>
</mgrwt>
</event>
<event>
 4    1  0.1672993E-004  0.2561677E+03  0.7818608E-02  0.1109468E+00
         -1   -1    0    0    0  501 -0.00000000000E+00  0.00000000000E+00  0.34367109395E+03  0.34367109395E+03  0.00000000000E+00 0.  1.
          1   -1    0    0  501    0  0.00000000000E+00 -0.00000000000E+00 -0.47735961737E+02  0.47735961737E+02  0.00000000000E+00 0.  1.
         25    1    1    2    0    0 -0.39698627447E+02  0.11556391340E+02  0.17425241024E+03  0.21557697854E+03  0.12000000000E+03 0.  0.
         25    1    1    2    0    0  0.39698627447E+02 -0.11556391340E+02  0.12168272197E+03  0.17583007714E+03  0.12000000000E+03 0.  0.
<mgrwt>
<rscale>  0 0.25616768E+03</rscale>
<asrwt>0</asrwt>
<pdfrwt beam="1">  1        1 0.73439943E-02 0.25616768E+03</pdfrwt>
<pdfrwt beam="2">  1       -1 0.52872474E-01 0.25616768E+03</pdfrwt>
<totfact> 0.35923643E+03</totfact>
</mgrwt>
</event>
<event>
 4    1  0.1672993E-004  0.3068465E+03  0.7818608E-02  0.1081867E+00
         -2   -1    0    0    0  501 -0.00000000000E+00  0.00000000000E+00  0.57695355032E+02  0.57695355032E+02  0.00000000000E+00 0. -1.
          2   -1    0    0  501    0  0.00000000000E+00 -0.00000000000E+00 -0.40798251587E+03  0.40798251587E+03  0.00000000000E+00 0. -1.
         25    1    1    2    0    0  0.25831167839E+02 -0.91692778980E+02 -0.18727330028E+03  0.24196302186E+03  0.12000000000E+03 0.  0.
         25    1    1    2    0    0 -0.25831167839E+02  0.91692778980E+02 -0.16301386056E+03  0.22371484905E+03  0.12000000000E+03 0.  0.
<mgrwt>
<rscale>  0 0.30684652E+03</rscale>
<asrwt>0</asrwt>
<pdfrwt beam="1">  1        2 0.62766540E-01 0.30684652E+03</pdfrwt>
<pdfrwt beam="2">  1       -2 0.88762086E-02 0.30684652E+03</pdfrwt>
<totfact> 0.62607092E+03</totfact>
</mgrwt>
</event>
<event>
 4    1  0.1672993E-004  0.2549850E+03  0.7818608E-02  0.1110194E+00
          2   -1    0    0  501    0  0.00000000000E+00  0.00000000000E+00  0.17260824340E+04  0.17260824340E+04  0.00000000000E+00 0.  1.
         -2   -1    0    0    0  501 -0.00000000000E+00 -0.00000000000E+00 -0.94168962872E+01  0.94168962872E+01  0.00000000000E+00 0.  1.
         25    1    1    2    0    0 -0.11731482149E+02 -0.22591581702E+02  0.62193508146E+03  0.63391738641E+03  0.12000000000E+03 0.  0.
         25    1    1    2    0    0  0.11731482149E+02  0.22591581702E+02  0.10947304562E+04  0.11015819439E+04  0.12000000000E+03 0.  0.
<mgrwt>
<rscale>  0 0.25498501E+03</rscale>
<asrwt>0</asrwt>
<pdfrwt beam="1">  1        2 0.26555089E+00 0.25498501E+03</pdfrwt>
<pdfrwt beam="2">  1       -2 0.14487546E-02 0.25498501E+03</pdfrwt>
<totfact> 0.12823307E+04</totfact>
</mgrwt>
</event>
<event>
 4    1  0.1672993E-004  0.2555382E+03  0.7818608E-02  0.1109854E+00
          1   -1    0    0  501    0  0.00000000000E+00  0.00000000000E+00  0.17622164854E+04  0.17622164854E+04  0.00000000000E+00 0.  1.
         -1   -1    0    0    0  501 -0.00000000000E+00 -0.00000000000E+00 -0.92638686053E+01  0.92638686053E+01  0.00000000000E+00 0.  1.
         25    1    1    2    0    0  0.31326541562E+01  0.42340530199E+02  0.79977807817E+03  0.80984412595E+03  0.12000000000E+03 0.  0.
         25    1    1    2    0    0 -0.31326541562E+01 -0.42340530199E+02  0.95317453862E+03  0.96163622805E+03  0.12000000000E+03 0.  0.
<mgrwt>
<rscale>  0 0.25553819E+03</rscale>
<asrwt>0</asrwt>
<pdfrwt beam="1">  1        1 0.27110996E+00 0.25553819E+03</pdfrwt>
<pdfrwt beam="2">  1       -1 0.14252120E-02 0.25553819E+03</pdfrwt>
<totfact> 0.54101884E+03</totfact>
</mgrwt>
</event>
<event>
 4    1  0.1672993E-004  0.7650832E+03  0.7818608E-02  0.9611980E-01
          1   -1    0    0  501    0  0.00000000000E+00  0.00000000000E+00  0.19762883438E+03  0.19762883438E+03  0.00000000000E+00 0. -1.
         -1   -1    0    0    0  501 -0.00000000000E+00 -0.00000000000E+00 -0.74046932787E+03  0.74046932787E+03  0.00000000000E+00 0. -1.
         25    1    1    2    0    0 -0.12776245095E+03 -0.95542024072E+02  0.12869676170E+03  0.23751711245E+03  0.12000000000E+03 0.  0.
         25    1    1    2    0    0  0.12776245095E+03  0.95542024072E+02 -0.67153725518E+03  0.70058104980E+03  0.12000000000E+03 0.  0.
<mgrwt>
<rscale>  0 0.76508324E+03</rscale>
<asrwt>0</asrwt>
<pdfrwt beam="1">  1        1 0.30404436E-01 0.76508324E+03</pdfrwt>
<pdfrwt beam="2">  1       -1 0.11391836E+00 0.76508324E+03</pdfrwt>
<totfact> 0.10761883E+02</totfact>
</mgrwt>
</event>
<event>
 4    1  0.1672993E-004  0.2808677E+03  0.7818608E-02  0.1095216E+00
          2   -1    0    0  501    0  0.00000000000E+00  0.00000000000E+00  0.87031910538E+03  0.87031910538E+03  0.00000000000E+00 0.  1.
         -2   -1    0    0    0  501 -0.00000000000E+00 -0.00000000000E+00 -0.22660276136E+02  0.22660276136E+02  0.00000000000E+00 0.  1.
         25    1    1    2    0    0  0.76601262381E+01  0.70416307772E+02  0.36834642698E+03  0.39382257960E+03  0.12000000000E+03 0.  0.
         25    1    1    2    0    0 -0.76601262381E+01 -0.70416307772E+02  0.47931240226E+03  0.49915680191E+03  0.12000000000E+03 0.  0.
<mgrwt>
<rscale>  0 0.28086774E+03</rscale>
<asrwt>0</asrwt>
<pdfrwt beam="1">  1        2 0.13389522E+00 0.28086774E+03</pdfrwt>
<pdfrwt beam="2">  1       -2 0.34861970E-02 0.28086774E+03</pdfrwt>
<totfact> 0.10722882E+04</totfact>
</mgrwt>
</event>
<event>
 4    1  0.1672993E-004  0.2546114E+03  0.7818608E-02  0.1110425E+00
          2   -1    0    0  501    0  0.00000000000E+00  0.00000000000E+00  0.85660798009E+01  0.85660798009E+01  0.00000000000E+00 0.  1.
         -2   -1    0    0    0  501 -0.00000000000E+00 -0.00000000000E+00 -0.18919669564E+04  0.18919669564E+04  0.00000000000E+00 0.  1.
         25    1    1    2    0    0 -0.28197039759E+02 -0.28874143950E+02 -0.84212609915E+03  0.85158978159E+03  0.12000000000E+03 0.  0.
         25    1    1    2    0    0  0.28197039759E+02  0.28874143950E+02 -0.10412747774E+04  0.10489432546E+04  0.12000000000E+03 0.  0.
<mgrwt>
<rscale>  0 0.25461139E+03</rscale>
<asrwt>0</asrwt>
<pdfrwt beam="1">  1        2 0.13178597E-02 0.25461139E+03</pdfrwt>
<pdfrwt beam="2">  1       -2 0.29107156E+00 0.25461139E+03</pdfrwt>
<totfact> 0.40413911E+02</totfact>
</mgrwt>
</event>
<event>
 4    1  0.1672993E-004  0.2549010E+03  0.7818608E-02  0.1110246E+00
          2   -1    0    0  501    0  0.00000000000E+00  0.00000000000E+00  0.75167832785E+03  0.75167832785E+03  0.00000000000E+00 0.  1.
         -2   -1    0    0    0  501 -0.00000000000E+00 -0.00000000000E+00 -0.21609822693E+02  0.21609822693E+02  0.00000000000E+00 0.  1.
         25    1    1    2    0    0  0.16798053903E+02  0.24900965862E+01  0.24539566663E+03  0.27369217818E+03  0.12000000000E+03 0.  0.
         25    1    1    2    0    0 -0.16798053903E+02 -0.24900965862E+01  0.48467283852E+03  0.49959597236E+03  0.12000000000E+03 0.  0.
<mgrwt>
<rscale>  0 0.25490104E+03</rscale>
<asrwt>0</asrwt>
<pdfrwt beam="1">  1        2 0.11564280E+00 0.25490104E+03</pdfrwt>
<pdfrwt beam="2">  1       -2 0.33245887E-02 0.25490104E+03</pdfrwt>
<totfact> 0.13832081E+04</totfact>
</mgrwt>
</event>
<event>
 4    1  0.1672993E-004  0.2743089E+03  0.7818608E-02  0.1098839E+00
          3   -1    0    0  501    0  0.00000000000E+00  0.00000000000E+00  0.13507554926E+02  0.13507554926E+02  0.00000000000E+00 0.  1.
         -3   -1    0    0    0  501 -0.00000000000E+00 -0.00000000000E+00 -0.13926534814E+04  0.13926534814E+04  0.00000000000E+00 0.  1.
         25    1    1    2    0    0  0.13294413443E+02  0.28900757402E+02 -0.98845029931E+03  0.99621583476E+03  0.12000000000E+03 0.  0.
         25    1    1    2    0    0 -0.13294413443E+02 -0.28900757402E+02 -0.39069562715E+03  0.40994520156E+03  0.12000000000E+03 0.  0.
<mgrwt>
<rscale>  0 0.27430890E+03</rscale>
<asrwt>0</asrwt>
<pdfrwt beam="1">  1        3 0.20780868E-02 0.27430890E+03</pdfrwt>
<pdfrwt beam="2">  1       -3 0.21425424E+00 0.27430890E+03</pdfrwt>
<totfact> 0.29792728E+02</totfact>
</mgrwt>
</event>
<event>
 4    1  0.1672993E-004  0.3204692E+03  0.7818608E-02  0.1075434E+00
          2   -1    0    0  501    0  0.00000000000E+00  0.00000000000E+00  0.21553960750E+04  0.21553960750E+04  0.00000000000E+00 0. -1.
         -2   -1    0    0    0  501 -0.00000000000E+00 -0.00000000000E+00 -0.11912020536E+02  0.11912020536E+02  0.00000000000E+00 0. -1.
         25    1    1    2    0    0 -0.68995463701E+02  0.36832207754E+02  0.15574562532E+04  0.15640290810E+04  0.12000000000E+03 0.  0.
         25    1    1    2    0    0  0.68995463701E+02 -0.36832207754E+02  0.58602780119E+03  0.60327901448E+03  0.12000000000E+03 0.  0.
<mgrwt>
<rscale>  0 0.32046917E+03</rscale>
<asrwt>0</asrwt>
<pdfrwt beam="1">  1        2 0.33159909E+00 0.32046917E+03</pdfrwt>
<pdfrwt beam="2">  1       -2 0.18326203E-02 0.32046917E+03</pdfrwt>
<totfact> 0.54052168E+03</totfact>
</mgrwt>
</event>
<event>
 4    1  0.1672993E-004  0.3942984E+03  0.7818608E-02  0.1045772E+00
         -2   -1    0    0    0  501 -0.00000000000E+00  0.00000000000E+00  0.47888342111E+02  0.47888342111E+02  0.00000000000E+00 0.  1.
          2   -1    0    0  501    0  0.00000000000E+00 -0.00000000000E+00 -0.81163388053E+03  0.81163388053E+03  0.00000000000E+00 0.  1.
         25    1    1    2    0    0  0.65222738336E+02  0.64885373739E+02 -0.65763965054E+03  0.67479924961E+03  0.12000000000E+03 0.  0.
         25    1    1    2    0    0 -0.65222738336E+02 -0.64885373739E+02 -0.10610588788E+03  0.18472297303E+03  0.12000000000E+03 0.  0.
<mgrwt>
<rscale>  0 0.39429837E+03</rscale>
<asrwt>0</asrwt>
<pdfrwt beam="1">  1        2 0.12486675E+00 0.39429837E+03</pdfrwt>
<pdfrwt beam="2">  1       -2 0.73674374E-02 0.39429837E+03</pdfrwt>
<totfact> 0.37654227E+03</totfact>
</mgrwt>
</event>
<event>
 4    1  0.1672993E-004  0.2453861E+03  0.7818608E-02  0.1116256E+00
         -1   -1    0    0    0  501 -0.00000000000E+00  0.00000000000E+00  0.16522028512E+02  0.16522028512E+02  0.00000000000E+00 0. -1.
          1   -1    0    0  501    0  0.00000000000E+00 -0.00000000000E+00 -0.91112241852E+03  0.91112241852E+03  0.00000000000E+00 0. -1.
         25    1    1    2    0    0  0.21136254300E+02 -0.13735358862E+02 -0.43117745430E+03  0.44827379851E+03  0.12000000000E+03 0.  0.
         25    1    1    2    0    0 -0.21136254300E+02  0.13735358862E+02 -0.46342293571E+03  0.47937064853E+03  0.12000000000E+03 0.  0.
<mgrwt>
<rscale>  0 0.24538615E+03</rscale>
<asrwt>0</asrwt>
<pdfrwt beam="1">  1        1 0.14017271E+00 0.24538615E+03</pdfrwt>
<pdfrwt beam="2">  1       -1 0.25418501E-02 0.24538615E+03</pdfrwt>
<totfact> 0.89649158E+03</totfact>
</mgrwt>
</event>
<event>
 4    1  0.1672993E-004  0.2644787E+03  0.7818608E-02  0.1104482E+00
         -3   -1    0    0    0  501 -0.00000000000E+00  0.00000000000E+00  0.28731705003E+02  0.28731705003E+02  0.00000000000E+00 0. -1.
          3   -1    0    0  501    0  0.00000000000E+00 -0.00000000000E+00 -0.60863924141E+03  0.60863924141E+03  0.00000000000E+00 0. -1.
         25    1    1    2    0    0  0.42826776846E+02 -0.34573128257E+02 -0.27163063279E+03  0.30201429549E+03  0.12000000000E+03 0.  0.
         25    1    1    2    0    0 -0.42826776846E+02  0.34573128257E+02 -0.30827690362E+03  0.33535665093E+03  0.12000000000E+03 0.  0.
<mgrwt>
<rscale>  0 0.26447868E+03</rscale>
<asrwt>0</asrwt>
<pdfrwt beam="1">  1        3 0.93636809E-01 0.26447868E+03</pdfrwt>
<pdfrwt beam="2">  1       -3 0.44202622E-02 0.26447868E+03</pdfrwt>
<totfact> 0.73825322E+02</totfact>
</mgrwt>
</event>
<event>
 4    1  0.1672993E-004  0.3071638E+03  0.7818608E-02  0.1081713E+00
         -2   -1    0    0    0  501 -0.00000000000E+00  0.00000000000E+00  0.12027559946E+03  0.12027559946E+03  0.00000000000E+00 0.  1.
          2   -1    0    0  501    0  0.00000000000E+00 -0.00000000000E+00 -0.19611124010E+03  0.19611124010E+03  0.00000000000E+00 0.  1.
         25    1    1    2    0    0 -0.48504990850E+02  0.59267821508E+02  0.21449500036E+02  0.14396350182E+03  0.12000000000E+03 0.  0.
         25    1    1    2    0    0  0.48504990850E+02 -0.59267821508E+02 -0.97285140672E+02  0.17242333775E+03  0.12000000000E+03 0.  0.
<mgrwt>
<rscale>  0 0.30716378E+03</rscale>
<asrwt>0</asrwt>
<pdfrwt beam="1">  1        2 0.30170960E-01 0.30716378E+03</pdfrwt>
<pdfrwt beam="2">  1       -2 0.18503938E-01 0.30716378E+03</pdfrwt>
<totfact> 0.41811053E+03</totfact>
</mgrwt>
</event>
<event>
 4    1  0.1672993E-004  0.3015806E+03  0.7818608E-02  0.1084453E+00
          2   -1    0    0  501    0  0.00000000000E+00  0.00000000000E+00  0.50314196617E+03  0.50314196617E+03  0.00000000000E+00 0.  1.
         -2   -1    0    0    0  501 -0.00000000000E+00 -0.00000000000E+00 -0.45191453701E+02  0.45191453701E+02  0.00000000000E+00 0.  1.
         25    1    1    2    0    0  0.18962969353E+02  0.54892372067E+02  0.10086062244E+03  0.16716947053E+03  0.12000000000E+03 0.  0.
         25    1    1    2    0    0 -0.18962969353E+02 -0.54892372067E+02  0.35708989003E+03  0.38116394934E+03  0.12000000000E+03 0.  0.
<mgrwt>
<rscale>  0 0.30158062E+03</rscale>
<asrwt>0</asrwt>
<pdfrwt beam="1">  1        2 0.77406452E-01 0.30158062E+03</pdfrwt>
<pdfrwt beam="2">  1       -2 0.69525317E-02 0.30158062E+03</pdfrwt>
<totfact> 0.72707993E+03</totfact>
</mgrwt>
</event>
<event>
 4    1  0.1672993E-004  0.2779152E+03  0.7818608E-02  0.1096833E+00
          2   -1    0    0  501    0  0.00000000000E+00  0.00000000000E+00  0.10548792325E+04  0.10548792325E+04  0.00000000000E+00 0.  1.
         -2   -1    0    0    0  501 -0.00000000000E+00 -0.00000000000E+00 -0.18304671262E+02  0.18304671262E+02  0.00000000000E+00 0.  1.
         25    1    1    2    0    0  0.29389779986E+02  0.54351693620E+02  0.64585600174E+03  0.65980894261E+03  0.12000000000E+03 0.  0.
         25    1    1    2    0    0 -0.29389779986E+02 -0.54351693620E+02  0.39071855945E+03  0.41337496110E+03  0.12000000000E+03 0.  0.
<mgrwt>
<rscale>  0 0.27791522E+03</rscale>
<asrwt>0</asrwt>
<pdfrwt beam="1">  1        2 0.16228907E+00 0.27791522E+03</pdfrwt>
<pdfrwt beam="2">  1       -2 0.28161041E-02 0.27791522E+03</pdfrwt>
<totfact> 0.11296119E+04</totfact>
</mgrwt>
</event>
<event>
 4    1  0.1672993E-004  0.2840457E+03  0.7818608E-02  0.1093500E+00
          2   -1    0    0  501    0  0.00000000000E+00  0.00000000000E+00  0.77180799037E+03  0.77180799037E+03  0.00000000000E+00 0.  1.
         -2   -1    0    0    0  501 -0.00000000000E+00 -0.00000000000E+00 -0.26134079922E+02  0.26134079922E+02  0.00000000000E+00 0.  1.
         25    1    1    2    0    0  0.67972233753E+02  0.28306280937E+02  0.32035508787E+03  0.34992692441E+03  0.12000000000E+03 0.  0.
         25    1    1    2    0    0 -0.67972233753E+02 -0.28306280937E+02  0.42531882258E+03  0.44801514588E+03  0.12000000000E+03 0.  0.
<mgrwt>
<rscale>  0 0.28404571E+03</rscale>
<asrwt>0</asrwt>
<pdfrwt beam="1">  1        2 0.11873967E+00 0.28404571E+03</pdfrwt>
<pdfrwt beam="2">  1       -2 0.40206283E-02 0.28404571E+03</pdfrwt>
<totfact> 0.10107162E+04</totfact>
</mgrwt>
</event>
<event>
 4    1  0.1672993E-004  0.2501989E+03  0.7818608E-02  0.1113179E+00
         -2   -1    0    0    0  501 -0.00000000000E+00  0.00000000000E+00  0.25848774126E+02  0.25848774126E+02  0.00000000000E+00 0. -1.
          2   -1    0    0  501    0  0.00000000000E+00 -0.00000000000E+00 -0.60543986774E+03  0.60543986774E+03  0.00000000000E+00 0. -1.
         25    1    1    2    0    0  0.34001945110E+01 -0.69769807827E+01 -0.20276933943E+03  0.23574487183E+03  0.12000000000E+03 0.  0.
         25    1    1    2    0    0 -0.34001945110E+01  0.69769807827E+01 -0.37682175418E+03  0.39554377003E+03  0.12000000000E+03 0.  0.
<mgrwt>
<rscale>  0 0.25019895E+03</rscale>
<asrwt>0</asrwt>
<pdfrwt beam="1">  1        2 0.93144589E-01 0.25019895E+03</pdfrwt>
<pdfrwt beam="2">  1       -2 0.39767347E-02 0.25019895E+03</pdfrwt>
<totfact> 0.13699239E+04</totfact>
</mgrwt>
</event>
<event>
 4    1  0.1672993E-004  0.3179557E+03  0.7818608E-02  0.1076594E+00
         -1   -1    0    0    0  501 -0.00000000000E+00  0.00000000000E+00  0.59181581678E+03  0.59181581678E+03  0.00000000000E+00 0. -1.
          1   -1    0    0  501    0  0.00000000000E+00 -0.00000000000E+00 -0.42705788496E+02  0.42705788496E+02  0.00000000000E+00 0. -1.
         25    1    1    2    0    0  0.72089041236E+02  0.42251199648E+02  0.15005644587E+03  0.20952071660E+03  0.12000000000E+03 0.  0.
         25    1    1    2    0    0 -0.72089041236E+02 -0.42251199648E+02  0.39905358241E+03  0.42500088868E+03  0.12000000000E+03 0.  0.
<mgrwt>
<rscale>  0 0.31795573E+03</rscale>
<asrwt>0</asrwt>
<pdfrwt beam="1">  1        1 0.65701217E-02 0.31795573E+03</pdfrwt>
<pdfrwt beam="2">  1       -1 0.91048582E-01 0.31795573E+03</pdfrwt>
<totfact> 0.14153430E+03</totfact>
</mgrwt>
</event>
<event>
 4    1  0.1672993E-004  0.2696922E+03  0.7818608E-02  0.1101456E+00
         -2   -1    0    0    0  501 -0.00000000000E+00  0.00000000000E+00  0.16089732441E+02  0.16089732441E+02  0.00000000000E+00 0. -1.
          2   -1    0    0  501    0  0.00000000000E+00 -0.00000000000E+00 -0.11301288516E+04  0.11301288516E+04  0.00000000000E+00 0. -1.
         25    1    1    2    0    0 -0.44270271170E+02 -0.35939378773E+02 -0.65504632329E+03  0.66838400752E+03  0.12000000000E+03 0.  0.
         25    1    1    2    0    0  0.44270271170E+02  0.35939378773E+02 -0.45899279583E+03  0.47783457648E+03  0.12000000000E+03 0.  0.
<mgrwt>
<rscale>  0 0.26969220E+03</rscale>
<asrwt>0</asrwt>
<pdfrwt beam="1">  1        2 0.17386599E+00 0.26969220E+03</pdfrwt>
<pdfrwt beam="2">  1       -2 0.24753432E-02 0.26969220E+03</pdfrwt>
<totfact> 0.12337391E+04</totfact>
</mgrwt>
</event>
<event>
 4    1  0.1672993E-004  0.2467724E+03  0.7818608E-02  0.1115362E+00
         -1   -1    0    0    0  501 -0.00000000000E+00  0.00000000000E+00  0.29469387028E+02  0.29469387028E+02  0.00000000000E+00 0.  1.
          1   -1    0    0  501    0  0.00000000000E+00 -0.00000000000E+00 -0.51660921027E+03  0.51660921027E+03  0.00000000000E+00 0.  1.
         25    1    1    2    0    0  0.41501682261E+01 -0.20696972600E+02 -0.28662560569E+03  0.31144795136E+03  0.12000000000E+03 0.  0.
         25    1    1    2    0    0 -0.41501682261E+01  0.20696972600E+02 -0.20051421755E+03  0.23463064593E+03  0.12000000000E+03 0.  0.
<mgrwt>
<rscale>  0 0.24677242E+03</rscale>
<asrwt>0</asrwt>
<pdfrwt beam="1">  1        1 0.79478345E-01 0.24677242E+03</pdfrwt>
<pdfrwt beam="2">  1       -1 0.45337516E-02 0.24677242E+03</pdfrwt>
<totfact> 0.87195024E+03</totfact>
</mgrwt>
</event>
<event>
 4    1  0.1672993E-004  0.3218571E+03  0.7818608E-02  0.1074798E+00
          1   -1    0    0  501    0  0.00000000000E+00  0.00000000000E+00  0.65064128123E+03  0.65064128123E+03  0.00000000000E+00 0.  1.
         -1   -1    0    0    0  501 -0.00000000000E+00 -0.00000000000E+00 -0.39803812756E+02  0.39803812756E+02  0.00000000000E+00 0.  1.
         25    1    1    2    0    0 -0.72091931344E+02  0.69176924800E+02  0.38892456228E+03  0.41910023698E+03  0.12000000000E+03 0.  0.
         25    1    1    2    0    0  0.72091931344E+02 -0.69176924800E+02  0.22191290619E+03  0.27134485701E+03  0.12000000000E+03 0.  0.
<mgrwt>
<rscale>  0 0.32185713E+03</rscale>
<asrwt>0</asrwt>
<pdfrwt beam="1">  1        1 0.10009865E+00 0.32185713E+03</pdfrwt>
<pdfrwt beam="2">  1       -1 0.61236640E-02 0.32185713E+03</pdfrwt>
<totfact> 0.40679030E+03</totfact>
</mgrwt>
</event>
<event>
 4    1  0.1672993E-004  0.2615598E+03  0.7818608E-02  0.1106210E+00
         -1   -1    0    0    0  501 -0.00000000000E+00  0.00000000000E+00  0.76274017688E+02  0.76274017688E+02  0.00000000000E+00 0. -1.
          1   -1    0    0  501    0  0.00000000000E+00 -0.00000000000E+00 -0.22423610124E+03  0.22423610124E+03  0.00000000000E+00 0. -1.
         25    1    1    2    0    0  0.39864480347E+02 -0.22946607010E+02 -0.46129267941E+02  0.13654168934E+03  0.12000000000E+03 0.  0.
         25    1    1    2    0    0 -0.39864480347E+02  0.22946607010E+02 -0.10183281561E+03  0.16396842959E+03  0.12000000000E+03 0.  0.
<mgrwt>
<rscale>  0 0.26155985E+03</rscale>
<asrwt>0</asrwt>
<pdfrwt beam="1">  1        1 0.34497862E-01 0.26155985E+03</pdfrwt>
<pdfrwt beam="2">  1       -1 0.11734464E-01 0.26155985E+03</pdfrwt>
<totfact> 0.59565443E+03</totfact>
</mgrwt>
</event>
<event>
 4    1  0.1672993E-004  0.2747268E+03  0.7818608E-02  0.1098604E+00
         -1   -1    0    0    0  501 -0.00000000000E+00  0.00000000000E+00  0.14125601402E+02  0.14125601402E+02  0.00000000000E+00 0.  1.
          1   -1    0    0  501    0  0.00000000000E+00 -0.00000000000E+00 -0.13357807997E+04  0.13357807997E+04  0.00000000000E+00 0.  1.
         25    1    1    2    0    0  0.60178993113E+01 -0.40843413949E+02 -0.91917004690E+03  0.92788898834E+03  0.12000000000E+03 0.  0.
         25    1    1    2    0    0 -0.60178993113E+01  0.40843413949E+02 -0.40248515142E+03  0.42201741278E+03  0.12000000000E+03 0.  0.
<mgrwt>
<rscale>  0 0.27472683E+03</rscale>
<asrwt>0</asrwt>
<pdfrwt beam="1">  1        1 0.20550475E+00 0.27472683E+03</pdfrwt>
<pdfrwt beam="2">  1       -1 0.21731693E-02 0.27472683E+03</pdfrwt>
<totfact> 0.55994258E+03</totfact>
</mgrwt>
</event>
<event>
 4    1  0.1672993E-004  0.2522042E+03  0.7818608E-02  0.1111920E+00
         -2   -1    0    0    0  501 -0.00000000000E+00  0.00000000000E+00  0.48210687331E+02  0.48210687331E+02  0.00000000000E+00 0. -1.
          2   -1    0    0  501    0  0.00000000000E+00 -0.00000000000E+00 -0.32983836248E+03  0.32983836248E+03  0.00000000000E+00 0. -1.
         25    1    1    2    0    0 -0.19652530883E+02  0.22342843863E+02 -0.10360078048E+03  0.16130265453E+03  0.12000000000E+03 0.  0.
         25    1    1    2    0    0  0.19652530883E+02 -0.22342843863E+02 -0.17802689467E+03  0.21674639528E+03  0.12000000000E+03 0.  0.
<mgrwt>
<rscale>  0 0.25220416E+03</rscale>
<asrwt>0</asrwt>
<pdfrwt beam="1">  1        2 0.50744362E-01 0.25220416E+03</pdfrwt>
<pdfrwt beam="2">  1       -2 0.74170290E-02 0.25220416E+03</pdfrwt>
<totfact> 0.10362298E+04</totfact>
</mgrwt>
</event>
<event>
 4    1  0.1672993E-004  0.3943991E+03  0.7818608E-02  0.1045736E+00
         -3   -1    0    0    0  501 -0.00000000000E+00  0.00000000000E+00  0.28632041613E+03  0.28632041613E+03  0.00000000000E+00 0.  1.
          3   -1    0    0  501    0  0.00000000000E+00 -0.00000000000E+00 -0.13581871698E+03  0.13581871698E+03  0.00000000000E+00 0.  1.
         25    1    1    2    0    0 -0.11749936186E+03  0.59539839950E+02  0.16567088787E+03  0.24330625900E+03  0.12000000000E+03 0.  0.
         25    1    1    2    0    0  0.11749936186E+03 -0.59539839950E+02 -0.15169188721E+02  0.17883287412E+03  0.12000000000E+03 0.  0.
<mgrwt>
<rscale>  0 0.39439915E+03</rscale>
<asrwt>0</asrwt>
<pdfrwt beam="1">  1        3 0.20895187E-01 0.39439915E+03</pdfrwt>
<pdfrwt beam="2">  1       -3 0.44049295E-01 0.39439915E+03</pdfrwt>
<totfact> 0.27801059E+02</totfact>
</mgrwt>
</event>
<event>
 4    1  0.1672993E-004  0.2878953E+03  0.7818608E-02  0.1091453E+00
          2   -1    0    0  501    0  0.00000000000E+00  0.00000000000E+00  0.42309786895E+02  0.42309786895E+02  0.00000000000E+00 0. -1.
         -2   -1    0    0    0  501 -0.00000000000E+00 -0.00000000000E+00 -0.48974305378E+03  0.48974305378E+03  0.00000000000E+00 0. -1.
         25    1    1    2    0    0  0.38768868069E+02  0.63331507467E+02 -0.27621697894E+03  0.31017692439E+03  0.12000000000E+03 0.  0.
         25    1    1    2    0    0 -0.38768868069E+02 -0.63331507467E+02 -0.17121628795E+03  0.22187591629E+03  0.12000000000E+03 0.  0.
<mgrwt>
<rscale>  0 0.28789529E+03</rscale>
<asrwt>0</asrwt>
<pdfrwt beam="1">  1        2 0.65091977E-02 0.28789529E+03</pdfrwt>
<pdfrwt beam="2">  1       -2 0.75345089E-01 0.28789529E+03</pdfrwt>
<totfact> 0.18049654E+03</totfact>
</mgrwt>
</event>
<event>
 4    1  0.1672993E-004  0.9488755E+03  0.7818608E-02  0.9366466E-01
          2   -1    0    0  501    0  0.00000000000E+00  0.00000000000E+00  0.14041199342E+04  0.14041199342E+04  0.00000000000E+00 0. -1.
         -2   -1    0    0    0  501 -0.00000000000E+00 -0.00000000000E+00 -0.16030766924E+03  0.16030766924E+03  0.00000000000E+00 0. -1.
         25    1    1    2    0    0  0.43186019234E+03  0.74524639610E+02  0.39684535860E+03  0.60327720518E+03  0.12000000000E+03 0.  0.
         25    1    1    2    0    0 -0.43186019234E+03 -0.74524639610E+02  0.84696690639E+03  0.96115039830E+03  0.12000000000E+03 0.  0.
<mgrwt>
<rscale>  0 0.94887553E+03</rscale>
<asrwt>0</asrwt>
<pdfrwt beam="1">  1        2 0.21601844E+00 0.94887553E+03</pdfrwt>
<pdfrwt beam="2">  1       -2 0.24662719E-01 0.94887553E+03</pdfrwt>
<totfact> 0.21155057E+02</totfact>
</mgrwt>
</event>
<event>
 4    1  0.1672993E-004  0.2440369E+03  0.7818608E-02  0.1117132E+00
          1   -1    0    0  501    0  0.00000000000E+00  0.00000000000E+00  0.10427422154E+04  0.10427422154E+04  0.00000000000E+00 0.  1.
         -1   -1    0    0    0  501 -0.00000000000E+00 -0.00000000000E+00 -0.14278220931E+02  0.14278220931E+02  0.00000000000E+00 0.  1.
         25    1    1    2    0    0 -0.17867959848E+02 -0.12864973484E+02  0.52259977230E+03  0.53665192959E+03  0.12000000000E+03 0.  0.
         25    1    1    2    0    0  0.17867959848E+02  0.12864973484E+02  0.50586422221E+03  0.52036850678E+03  0.12000000000E+03 0.  0.
<mgrwt>
<rscale>  0 0.24403691E+03</rscale>
<asrwt>0</asrwt>
<pdfrwt beam="1">  1        1 0.16042182E+00 0.24403691E+03</pdfrwt>
<pdfrwt beam="2">  1       -1 0.21966502E-02 0.24403691E+03</pdfrwt>
<totfact> 0.88305186E+03</totfact>
</mgrwt>
</event>
<event>
 4    1  0.1672993E-004  0.2521028E+03  0.7818608E-02  0.1111983E+00
         -1   -1    0    0    0  501 -0.00000000000E+00  0.00000000000E+00  0.33603535807E+02  0.33603535807E+02  0.00000000000E+00 0.  1.
          1   -1    0    0  501    0  0.00000000000E+00 -0.00000000000E+00 -0.47283565365E+03  0.47283565365E+03  0.00000000000E+00 0.  1.
         25    1    1    2    0    0  0.19508517573E+02 -0.32989731365E+02 -0.21062202036E+03  0.24541911110E+03  0.12000000000E+03 0.  0.
         25    1    1    2    0    0 -0.19508517573E+02  0.32989731365E+02 -0.22861009748E+03  0.26102007836E+03  0.12000000000E+03 0.  0.
<mgrwt>
<rscale>  0 0.25210276E+03</rscale>
<asrwt>0</asrwt>
<pdfrwt beam="1">  1        1 0.72743945E-01 0.25210276E+03</pdfrwt>
<pdfrwt beam="2">  1       -1 0.51697749E-02 0.25210276E+03</pdfrwt>
<totfact> 0.80638163E+03</totfact>
</mgrwt>
</event>
<event>
 4    1  0.1672993E-004  0.2719607E+03  0.7818608E-02  0.1100163E+00
         -2   -1    0    0    0  501 -0.00000000000E+00  0.00000000000E+00  0.62944975345E+02  0.62944975345E+02  0.00000000000E+00 0.  1.
          2   -1    0    0  501    0  0.00000000000E+00 -0.00000000000E+00 -0.29375903362E+03  0.29375903362E+03  0.00000000000E+00 0.  1.
         25    1    1    2    0    0 -0.34133674362E+02 -0.14179747498E+02 -0.18386812237E+03  0.22265143024E+03  0.12000000000E+03 0.  0.
         25    1    1    2    0    0  0.34133674362E+02  0.14179747498E+02 -0.46945935906E+02  0.13405257872E+03  0.12000000000E+03 0.  0.
<mgrwt>
<rscale>  0 0.27196070E+03</rscale>
<asrwt>0</asrwt>
<pdfrwt beam="1">  1        2 0.45193698E-01 0.27196070E+03</pdfrwt>
<pdfrwt beam="2">  1       -2 0.96838423E-02 0.27196070E+03</pdfrwt>
<totfact> 0.77506102E+03</totfact>
</mgrwt>
</event>
<event>
 4    1  0.1672993E-004  0.3149633E+03  0.7818608E-02  0.1077991E+00
         -2   -1    0    0    0  501 -0.00000000000E+00  0.00000000000E+00  0.27705060130E+03  0.27705060130E+03  0.00000000000E+00 0.  1.
          2   -1    0    0  501    0  0.00000000000E+00 -0.00000000000E+00 -0.89516055227E+02  0.89516055227E+02  0.00000000000E+00 0.  1.
         25    1    1    2    0    0 -0.88703102506E+02  0.45853628953E+02  0.11789220763E+03  0.19562558192E+03  0.12000000000E+03 0.  0.
         25    1    1    2    0    0  0.88703102506E+02 -0.45853628953E+02  0.69642338437E+02  0.17094107460E+03  0.12000000000E+03 0.  0.
<mgrwt>
<rscale>  0 0.31496334E+03</rscale>
<asrwt>0</asrwt>
<pdfrwt beam="1">  1        2 0.13771701E-01 0.31496334E+03</pdfrwt>
<pdfrwt beam="2">  1       -2 0.42623169E-01 0.31496334E+03</pdfrwt>
<totfact> 0.22795992E+03</totfact>
</mgrwt>
</event>
<event>
 4    1  0.1672993E-004  0.3054385E+03  0.7818608E-02  0.1082553E+00
         -1   -1    0    0    0  501 -0.00000000000E+00  0.00000000000E+00  0.21684255039E+02  0.21684255039E+02  0.00000000000E+00 0.  1.
          1   -1    0    0  501    0  0.00000000000E+00 -0.00000000000E+00 -0.10755809632E+04  0.10755809632E+04  0.00000000000E+00 0.  1.
         25    1    1    2    0    0 -0.36761979873E+02 -0.73876279120E+02 -0.69212277070E+03  0.70727864205E+03  0.12000000000E+03 0.  0.
         25    1    1    2    0    0  0.36761979873E+02  0.73876279120E+02 -0.36177393748E+03  0.38998657620E+03  0.12000000000E+03 0.  0.
<mgrwt>
<rscale>  0 0.30543852E+03</rscale>
<asrwt>0</asrwt>
<pdfrwt beam="1">  1        1 0.16547403E+00 0.30543852E+03</pdfrwt>
<pdfrwt beam="2">  1       -1 0.33360386E-02 0.30543852E+03</pdfrwt>
<totfact> 0.45377355E+03</totfact>
</mgrwt>
</event>
<event>
 4    1  0.1672993E-004  0.3285085E+03  0.7818608E-02  0.1071799E+00
         -2   -1    0    0    0  501 -0.00000000000E+00  0.00000000000E+00  0.49926408804E+02  0.49926408804E+02  0.00000000000E+00 0.  1.
          2   -1    0    0  501    0  0.00000000000E+00 -0.00000000000E+00 -0.54038467014E+03  0.54038467014E+03  0.00000000000E+00 0.  1.
         25    1    1    2    0    0  0.46453549590E+02 -0.40236167031E+02 -0.41382206386E+03  0.43523049289E+03  0.12000000000E+03 0.  0.
         25    1    1    2    0    0 -0.46453549590E+02  0.40236167031E+02 -0.76636197479E+02  0.15508058605E+03  0.12000000000E+03 0.  0.
<mgrwt>
<rscale>  0 0.32850854E+03</rscale>
<asrwt>0</asrwt>
<pdfrwt beam="1">  1        2 0.83136102E-01 0.32850854E+03</pdfrwt>
<pdfrwt beam="2">  1       -2 0.76809860E-02 0.32850854E+03</pdfrwt>
<totfact> 0.57548522E+03</totfact>
</mgrwt>
</event>
<event>
 4    1  0.1672993E-004  0.2625527E+03  0.7818608E-02  0.1105619E+00
          1   -1    0    0  501    0  0.00000000000E+00  0.00000000000E+00  0.27201709313E+03  0.27201709313E+03  0.00000000000E+00 0.  1.
         -1   -1    0    0    0  501 -0.00000000000E+00 -0.00000000000E+00 -0.63354418788E+02  0.63354418788E+02  0.00000000000E+00 0.  1.
         25    1    1    2    0    0  0.26029645689E+01 -0.32595681968E+02  0.15798351256E+03  0.20106726275E+03  0.12000000000E+03 0.  0.
         25    1    1    2    0    0 -0.26029645689E+01  0.32595681968E+02  0.50679161786E+02  0.13430424918E+03  0.12000000000E+03 0.  0.
<mgrwt>
<rscale>  0 0.26255274E+03</rscale>
<asrwt>0</asrwt>
<pdfrwt beam="1">  1        1 0.41848783E-01 0.26255274E+03</pdfrwt>
<pdfrwt beam="2">  1       -1 0.97468338E-02 0.26255274E+03</pdfrwt>
<totfact> 0.62340518E+03</totfact>
</mgrwt>
</event>
<event>
 4    1  0.1672993E-004  0.2533571E+03  0.7818608E-02  0.1111201E+00
          1   -1    0    0  501    0  0.00000000000E+00  0.00000000000E+00  0.41079695128E+03  0.41079695128E+03  0.00000000000E+00 0. -1.
         -1   -1    0    0    0  501 -0.00000000000E+00 -0.00000000000E+00 -0.39064211446E+02  0.39064211446E+02  0.00000000000E+00 0. -1.
         25    1    1    2    0    0  0.35514873568E+02 -0.16828400856E+02  0.16784969378E+03  0.21004290281E+03  0.12000000000E+03 0.  0.
         25    1    1    2    0    0 -0.35514873568E+02  0.16828400856E+02  0.20388304606E+03  0.23981825992E+03  0.12000000000E+03 0.  0.
<mgrwt>
<rscale>  0 0.25335713E+03</rscale>
<asrwt>0</asrwt>
<pdfrwt beam="1">  1        1 0.63199528E-01 0.25335713E+03</pdfrwt>
<pdfrwt beam="2">  1       -1 0.60098790E-02 0.25335713E+03</pdfrwt>
<totfact> 0.77206809E+03</totfact>
</mgrwt>
</event>
<event>
 4    1  0.1672993E-004  0.3419444E+03  0.7818608E-02  0.1065971E+00
          2   -1    0    0  501    0  0.00000000000E+00  0.00000000000E+00  0.23704940468E+03  0.23704940468E+03  0.00000000000E+00 0. -1.
         -2   -1    0    0    0  501 -0.00000000000E+00 -0.00000000000E+00 -0.12331395862E+03  0.12331395862E+03  0.00000000000E+00 0. -1.
         25    1    1    2    0    0 -0.59143284113E+02  0.10599404414E+03  0.67344809713E+02  0.18348838885E+03  0.12000000000E+03 0.  0.
         25    1    1    2    0    0  0.59143284113E+02 -0.10599404414E+03  0.46390636346E+02  0.17687497446E+03  0.12000000000E+03 0.  0.
<mgrwt>
<rscale>  0 0.34194444E+03</rscale>
<asrwt>0</asrwt>
<pdfrwt beam="1">  1        2 0.36469139E-01 0.34194444E+03</pdfrwt>
<pdfrwt beam="2">  1       -2 0.18971378E-01 0.34194444E+03</pdfrwt>
<totfact> 0.32642038E+03</totfact>
</mgrwt>
</event>
<event>
 4    1  0.1672993E-004  0.4159857E+03  0.7818608E-02  0.1038381E+00
          3   -1    0    0  501    0  0.00000000000E+00  0.00000000000E+00  0.74400442528E+02  0.74400442528E+02  0.00000000000E+00 0.  1.
         -3   -1    0    0    0  501 -0.00000000000E+00 -0.00000000000E+00 -0.58146197028E+03  0.58146197028E+03  0.00000000000E+00 0.  1.
         25    1    1    2    0    0  0.12580118523E+03  0.50507349922E+02 -0.41496656418E+03  0.45274074258E+03  0.12000000000E+03 0.  0.
         25    1    1    2    0    0 -0.12580118523E+03 -0.50507349922E+02 -0.92094963572E+02  0.20312167023E+03  0.12000000000E+03 0.  0.
<mgrwt>
<rscale>  0 0.41598571E+03</rscale>
<asrwt>0</asrwt>
<pdfrwt beam="1">  1        3 0.11446222E-01 0.41598571E+03</pdfrwt>
<pdfrwt beam="2">  1       -3 0.89455688E-01 0.41598571E+03</pdfrwt>
<totfact> 0.17813370E+02</totfact>
</mgrwt>
</event>
<event>
 4    1  0.1672993E-004  0.2885376E+03  0.7818608E-02  0.1091115E+00
         -2   -1    0    0    0  501 -0.00000000000E+00  0.00000000000E+00  0.30466235484E+02  0.30466235484E+02  0.00000000000E+00 0. -1.
          2   -1    0    0  501    0  0.00000000000E+00 -0.00000000000E+00 -0.68316561054E+03  0.68316561054E+03  0.00000000000E+00 0. -1.
         25    1    1    2    0    0  0.55526664024E+02 -0.26548710911E+02 -0.45307777226E+03  0.47272350501E+03  0.12000000000E+03 0.  0.
         25    1    1    2    0    0 -0.55526664024E+02  0.26548710911E+02 -0.19962160279E+03  0.24090834101E+03  0.12000000000E+03 0.  0.
<mgrwt>
<rscale>  0 0.28853758E+03</rscale>
<asrwt>0</asrwt>
<pdfrwt beam="1">  1        2 0.10510239E+00 0.28853758E+03</pdfrwt>
<pdfrwt beam="2">  1       -2 0.46871138E-02 0.28853758E+03</pdfrwt>
<totfact> 0.93193378E+03</totfact>
</mgrwt>
</event>
<event>
 4    1  0.1672993E-004  0.2867383E+03  0.7818608E-02  0.1092064E+00
          1   -1    0    0  501    0  0.00000000000E+00  0.00000000000E+00  0.45499766166E+03  0.45499766166E+03  0.00000000000E+00 0. -1.
         -1   -1    0    0    0  501 -0.00000000000E+00 -0.00000000000E+00 -0.45175432744E+02  0.45175432744E+02  0.00000000000E+00 0. -1.
         25    1    1    2    0    0  0.58252826451E+02  0.35425463508E+02  0.27261274373E+03  0.30555860861E+03  0.12000000000E+03 0.  0.
         25    1    1    2    0    0 -0.58252826451E+02 -0.35425463508E+02  0.13720948519E+03  0.19461448579E+03  0.12000000000E+03 0.  0.
<mgrwt>
<rscale>  0 0.28673832E+03</rscale>
<asrwt>0</asrwt>
<pdfrwt beam="1">  1        1 0.69999637E-01 0.28673832E+03</pdfrwt>
<pdfrwt beam="2">  1       -1 0.69500669E-02 0.28673832E+03</pdfrwt>
<totfact> 0.54507807E+03</totfact>
</mgrwt>
</event>
<event>
 4    1  0.1672993E-004  0.2669316E+03  0.7818608E-02  0.1103049E+00
          2   -1    0    0  501    0  0.00000000000E+00  0.00000000000E+00  0.39329383790E+03  0.39329383790E+03  0.00000000000E+00 0. -1.
         -2   -1    0    0    0  501 -0.00000000000E+00 -0.00000000000E+00 -0.45292139389E+02  0.45292139389E+02  0.00000000000E+00 0. -1.
         25    1    1    2    0    0  0.58185208506E+02  0.16405106960E+01  0.18220130161E+03  0.22579974330E+03  0.12000000000E+03 0.  0.
         25    1    1    2    0    0 -0.58185208506E+02 -0.16405106960E+01  0.16580039690E+03  0.21278623399E+03  0.12000000000E+03 0.  0.
<mgrwt>
<rscale>  0 0.26693160E+03</rscale>
<asrwt>0</asrwt>
<pdfrwt beam="1">  1        2 0.60506742E-01 0.26693160E+03</pdfrwt>
<pdfrwt beam="2">  1       -2 0.69680217E-02 0.26693160E+03</pdfrwt>
<totfact> 0.94642931E+03</totfact>
</mgrwt>
</event>
<event>
 4    1  0.1672993E-004  0.2492876E+03  0.7818608E-02  0.1113756E+00
         -2   -1    0    0    0  501 -0.00000000000E+00  0.00000000000E+00  0.98507173570E+02  0.98507173570E+02  0.00000000000E+00 0.  1.
          4   -1    0    0  501    0  0.00000000000E+00 -0.00000000000E+00 -0.15771523348E+03  0.15771523348E+03  0.00000000000E+00 0.  1.
         25    1    1    2    0    0  0.17627436120E+02 -0.12453029959E+02 -0.29941046833E+01  0.12196216267E+03  0.12000000000E+03 0.  0.
         25    1    1    2    0    0 -0.17627436120E+02  0.12453029959E+02 -0.56213955225E+02  0.13426024438E+03  0.12000000000E+03 0.  0.
<mgrwt>
<rscale>  0 0.24928764E+03</rscale>
<asrwt>0</asrwt>
<pdfrwt beam="1">  1        4 0.24263882E-01 0.24928764E+03</pdfrwt>
<pdfrwt beam="2">  1       -2 0.15154950E-01 0.24928764E+03</pdfrwt>
<totfact> 0.18269319E+03</totfact>
</mgrwt>
</event>
<event>
 4    1  0.1672993E-004  0.3957068E+03  0.7818608E-02  0.1045276E+00
         -2   -1    0    0    0  501 -0.00000000000E+00  0.00000000000E+00  0.14550985931E+02  0.14550985931E+02  0.00000000000E+00 0.  1.
          2   -1    0    0  501    0  0.00000000000E+00 -0.00000000000E+00 -0.26902622155E+04  0.26902622155E+04  0.00000000000E+00 0.  1.
         25    1    1    2    0    0 -0.19186403973E+02 -0.43401373562E+02 -0.23630323806E+04  0.23665531537E+04  0.12000000000E+03 0.  0.
         25    1    1    2    0    0  0.19186403973E+02  0.43401373562E+02 -0.31267884893E+03  0.33826004774E+03  0.12000000000E+03 0.  0.
<mgrwt>
<rscale>  0 0.39570680E+03</rscale>
<asrwt>0</asrwt>
<pdfrwt beam="1">  1        2 0.41388665E+00 0.39570680E+03</pdfrwt>
<pdfrwt beam="2">  1       -2 0.22386124E-02 0.39570680E+03</pdfrwt>
<totfact> 0.20334356E+03</totfact>
</mgrwt>
</event>
<event>
 4    1  0.1672993E-004  0.2914074E+03  0.7818608E-02  0.1089617E+00
         -2   -1    0    0    0  501 -0.00000000000E+00  0.00000000000E+00  0.23528566895E+02  0.23528566895E+02  0.00000000000E+00 0.  1.
          2   -1    0    0  501    0  0.00000000000E+00 -0.00000000000E+00 -0.90228879746E+03  0.90228879746E+03  0.00000000000E+00 0.  1.
         25    1    1    2    0    0 -0.25986142995E+02  0.77386893266E+02 -0.48025827198E+03  0.50170909767E+03  0.12000000000E+03 0.  0.
         25    1    1    2    0    0  0.25986142995E+02 -0.77386893266E+02 -0.39850195859E+03  0.42410826669E+03  0.12000000000E+03 0.  0.
<mgrwt>
<rscale>  0 0.29140736E+03</rscale>
<asrwt>0</asrwt>
<pdfrwt beam="1">  1        2 0.13881365E+00 0.29140736E+03</pdfrwt>
<pdfrwt beam="2">  1       -2 0.36197797E-02 0.29140736E+03</pdfrwt>
<totfact> 0.96703682E+03</totfact>
</mgrwt>
</event>
<event>
 4    1  0.1672993E-004  0.2432830E+03  0.7818608E-02  0.1117625E+00
          2   -1    0    0  501    0  0.00000000000E+00  0.00000000000E+00  0.10835590049E+04  0.10835590049E+04  0.00000000000E+00 0.  1.
         -2   -1    0    0    0  501 -0.00000000000E+00 -0.00000000000E+00 -0.13655601125E+02  0.13655601125E+02  0.00000000000E+00 0.  1.
         25    1    1    2    0    0 -0.18830963033E+02  0.17625838241E+01  0.56309435344E+03  0.57604944471E+03  0.12000000000E+03 0.  0.
         25    1    1    2    0    0  0.18830963033E+02 -0.17625838241E+01  0.50680905035E+03  0.52116516134E+03  0.12000000000E+03 0.  0.
<mgrwt>
<rscale>  0 0.24328296E+03</rscale>
<asrwt>0</asrwt>
<pdfrwt beam="1">  1        2 0.16670132E+00 0.24328296E+03</pdfrwt>
<pdfrwt beam="2">  1       -2 0.21008626E-02 0.24328296E+03</pdfrwt>
<totfact> 0.16665934E+04</totfact>
</mgrwt>
</event>
<event>
 4    1  0.1672993E-004  0.2597018E+03  0.7818608E-02  0.1107323E+00
         -4   -1    0    0    0  501 -0.00000000000E+00  0.00000000000E+00  0.58977758584E+03  0.58977758584E+03  0.00000000000E+00 0. -1.
          4   -1    0    0  501    0  0.00000000000E+00 -0.00000000000E+00 -0.28589173560E+02  0.28589173560E+02  0.00000000000E+00 0. -1.
         25    1    1    2    0    0 -0.28118123777E+02  0.26125289119E+02  0.35544051222E+03  0.37710889322E+03  0.12000000000E+03 0.  0.
         25    1    1    2    0    0  0.28118123777E+02 -0.26125289119E+02  0.20574790006E+03  0.24125786619E+03  0.12000000000E+03 0.  0.
<mgrwt>
<rscale>  0 0.25970178E+03</rscale>
<asrwt>0</asrwt>
<pdfrwt beam="1">  1        4 0.43983348E-02 0.25970178E+03</pdfrwt>
<pdfrwt beam="2">  1       -4 0.90735005E-01 0.25970178E+03</pdfrwt>
<totfact> 0.58363012E+02</totfact>
</mgrwt>
</event>
<event>
 4    1  0.1672993E-004  0.2874020E+03  0.7818608E-02  0.1091713E+00
          3   -1    0    0  501    0  0.00000000000E+00  0.00000000000E+00  0.24014497695E+02  0.24014497695E+02  0.00000000000E+00 0.  1.
         -3   -1    0    0    0  501 -0.00000000000E+00 -0.00000000000E+00 -0.85989599122E+03  0.85989599122E+03  0.00000000000E+00 0.  1.
         25    1    1    2    0    0 -0.73378279872E+02  0.84392501737E+01 -0.50462336401E+03  0.52392779312E+03  0.12000000000E+03 0.  0.
         25    1    1    2    0    0  0.73378279872E+02 -0.84392501737E+01 -0.33125812952E+03  0.35998269580E+03  0.12000000000E+03 0.  0.
<mgrwt>
<rscale>  0 0.28740195E+03</rscale>
<asrwt>0</asrwt>
<pdfrwt beam="1">  1        3 0.36945378E-02 0.28740195E+03</pdfrwt>
<pdfrwt beam="2">  1       -3 0.13229170E+00 0.28740195E+03</pdfrwt>
<totfact> 0.43732794E+02</totfact>
</mgrwt>
</event>
<event>
 4    1  0.1672993E-004  0.5327380E+03  0.7818608E-02  0.1005570E+00
          2   -1    0    0  501    0  0.00000000000E+00  0.00000000000E+00  0.89213628562E+03  0.89213628562E+03  0.00000000000E+00 0. -1.
         -2   -1    0    0    0  501 -0.00000000000E+00 -0.00000000000E+00 -0.79530960502E+02  0.79530960502E+02  0.00000000000E+00 0. -1.
         25    1    1    2    0    0 -0.72837561662E+02 -0.21021733445E+03  0.55950928025E+03  0.61396031857E+03  0.12000000000E+03 0.  0.
         25    1    1    2    0    0  0.72837561662E+02  0.21021733445E+03  0.25309604487E+03  0.35770692755E+03  0.12000000000E+03 0.  0.
<mgrwt>
<rscale>  0 0.53273804E+03</rscale>
<asrwt>0</asrwt>
<pdfrwt beam="1">  1        2 0.13725173E+00 0.53273804E+03</pdfrwt>
<pdfrwt beam="2">  1       -2 0.12235533E-01 0.53273804E+03</pdfrwt>
<totfact> 0.14706076E+03</totfact>
</mgrwt>
</event>
<event>
 4    1  0.1672993E-004  0.2536371E+03  0.7818608E-02  0.1111028E+00
         -2   -1    0    0    0  501 -0.00000000000E+00  0.00000000000E+00  0.13565950695E+03  0.13565950695E+03  0.00000000000E+00 0. -1.
          2   -1    0    0  501    0  0.00000000000E+00 -0.00000000000E+00 -0.11855375191E+03  0.11855375191E+03  0.00000000000E+00 0. -1.
         25    1    1    2    0    0 -0.58623689719E+01 -0.82832337746E+01 -0.31286180121E+02  0.12442589923E+03  0.12000000000E+03 0.  0.
         25    1    1    2    0    0  0.58623689719E+01  0.82832337746E+01  0.48391935161E+02  0.12978735963E+03  0.12000000000E+03 0.  0.
<mgrwt>
<rscale>  0 0.25363709E+03</rscale>
<asrwt>0</asrwt>
<pdfrwt beam="1">  1        2 0.18239039E-01 0.25363709E+03</pdfrwt>
<pdfrwt beam="2">  1       -2 0.20870693E-01 0.25363709E+03</pdfrwt>
<totfact> 0.59631642E+03</totfact>
</mgrwt>
</event>
<event>
 4    1  0.1672993E-004  0.4275395E+03  0.7818608E-02  0.1034640E+00
          2   -1    0    0  501    0  0.00000000000E+00  0.00000000000E+00  0.74980376872E+03  0.74980376872E+03  0.00000000000E+00 0.  1.
         -2   -1    0    0    0  501 -0.00000000000E+00 -0.00000000000E+00 -0.60945949578E+02  0.60945949578E+02  0.00000000000E+00 0.  1.
         25    1    1    2    0    0  0.27085311582E+02  0.49419484057E+02  0.66243146876E+03  0.67556742840E+03  0.12000000000E+03 0.  0.
         25    1    1    2    0    0 -0.27085311582E+02 -0.49419484057E+02  0.26426350382E+02  0.13518228990E+03  0.12000000000E+03 0.  0.
<mgrwt>
<rscale>  0 0.42753948E+03</rscale>
<asrwt>0</asrwt>
<pdfrwt beam="1">  1        2 0.11535442E+00 0.42753948E+03</pdfrwt>
<pdfrwt beam="2">  1       -2 0.93763005E-02 0.42753948E+03</pdfrwt>
<totfact> 0.28470407E+03</totfact>
</mgrwt>
</event>
<event>
 4    1  0.1672993E-004  0.2699691E+03  0.7818608E-02  0.1101297E+00
         -1   -1    0    0    0  501 -0.00000000000E+00  0.00000000000E+00  0.78187384728E+02  0.78187384728E+02  0.00000000000E+00 0.  1.
          1   -1    0    0  501    0  0.00000000000E+00 -0.00000000000E+00 -0.23304047356E+03  0.23304047356E+03  0.00000000000E+00 0.  1.
         25    1    1    2    0    0  0.36378234037E+02  0.18276227143E+02 -0.13104764809E+03  0.18229339664E+03  0.12000000000E+03 0.  0.
         25    1    1    2    0    0 -0.36378234037E+02 -0.18276227143E+02 -0.23805440741E+02  0.12893446164E+03  0.12000000000E+03 0.  0.
<mgrwt>
<rscale>  0 0.26996907E+03</rscale>
<asrwt>0</asrwt>
<pdfrwt beam="1">  1        1 0.35852380E-01 0.26996907E+03</pdfrwt>
<pdfrwt beam="2">  1       -1 0.12028829E-01 0.26996907E+03</pdfrwt>
<totfact> 0.54662608E+03</totfact>
</mgrwt>
</event>
<event>
 4    1  0.1672993E-004  0.2892903E+03  0.7818608E-02  0.1090720E+00
         -1   -1    0    0    0  501 -0.00000000000E+00  0.00000000000E+00  0.67232374880E+01  0.67232374880E+01  0.00000000000E+00 0.  1.
          1   -1    0    0  501    0  0.00000000000E+00 -0.00000000000E+00 -0.31119253155E+04  0.31119253155E+04  0.00000000000E+00 0.  1.
         25    1    1    2    0    0  0.55485975085E+02  0.54049729061E+02 -0.17989375200E+04  0.18045986444E+04  0.12000000000E+03 0.  0.
         25    1    1    2    0    0 -0.55485975085E+02 -0.54049729061E+02 -0.13062645580E+04  0.13140499086E+04  0.12000000000E+03 0.  0.
<mgrwt>
<rscale>  0 0.28929026E+03</rscale>
<asrwt>0</asrwt>
<pdfrwt beam="1">  1        1 0.47875759E+00 0.28929026E+03</pdfrwt>
<pdfrwt beam="2">  1       -1 0.10343446E-02 0.28929026E+03</pdfrwt>
<totfact> 0.10790145E+03</totfact>
</mgrwt>
</event>
<event>
 4    1  0.1672993E-004  0.3124864E+03  0.7818608E-02  0.1079160E+00
          2   -1    0    0  501    0  0.00000000000E+00  0.00000000000E+00  0.24680016785E+03  0.24680016785E+03  0.00000000000E+00 0. -1.
         -2   -1    0    0    0  501 -0.00000000000E+00 -0.00000000000E+00 -0.98913782485E+02  0.98913782485E+02  0.00000000000E+00 0. -1.
         25    1    1    2    0    0 -0.70506855002E+01 -0.92879849419E+02  0.33511920812E+02  0.15556165154E+03  0.12000000000E+03 0.  0.
         25    1    1    2    0    0  0.70506855002E+01  0.92879849419E+02  0.11437446455E+03  0.19015229879E+03  0.12000000000E+03 0.  0.
<mgrwt>
<rscale>  0 0.31248640E+03</rscale>
<asrwt>0</asrwt>
<pdfrwt beam="1">  1        2 0.37969256E-01 0.31248640E+03</pdfrwt>
<pdfrwt beam="2">  1       -2 0.15217505E-01 0.31248640E+03</pdfrwt>
<totfact> 0.45174976E+03</totfact>
</mgrwt>
</event>
<event>
 4    1  0.1672993E-004  0.3770818E+03  0.7818608E-02  0.1052018E+00
          1   -1    0    0  501    0  0.00000000000E+00  0.00000000000E+00  0.12703132075E+03  0.12703132075E+03  0.00000000000E+00 0. -1.
         -1   -1    0    0    0  501 -0.00000000000E+00 -0.00000000000E+00 -0.27983386793E+03  0.27983386793E+03  0.00000000000E+00 0. -1.
         25    1    1    2    0    0 -0.12337287797E+02 -0.12647096427E+03 -0.15270117605E+03  0.23208783389E+03  0.12000000000E+03 0.  0.
         25    1    1    2    0    0  0.12337287797E+02  0.12647096427E+03 -0.10137113244E+00  0.17477735480E+03  0.12000000000E+03 0.  0.
<mgrwt>
<rscale>  0 0.37708177E+03</rscale>
<asrwt>0</asrwt>
<pdfrwt beam="1">  1        1 0.19543280E-01 0.37708177E+03</pdfrwt>
<pdfrwt beam="2">  1       -1 0.43051364E-01 0.37708177E+03</pdfrwt>
<totfact> 0.14295885E+03</totfact>
</mgrwt>
</event>
<event>
 4    1  0.1672993E-004  0.2696883E+03  0.7818608E-02  0.1101458E+00
          2   -1    0    0  501    0  0.00000000000E+00  0.00000000000E+00  0.68669015716E+03  0.68669015716E+03  0.00000000000E+00 0.  1.
         -2   -1    0    0    0  501 -0.00000000000E+00 -0.00000000000E+00 -0.26479113647E+02  0.26479113647E+02  0.00000000000E+00 0.  1.
         25    1    1    2    0    0 -0.34832947817E+02  0.49300997638E+02  0.29892556389E+03  0.32772002589E+03  0.12000000000E+03 0.  0.
         25    1    1    2    0    0  0.34832947817E+02 -0.49300997638E+02  0.36128547962E+03  0.38544924492E+03  0.12000000000E+03 0.  0.
<mgrwt>
<rscale>  0 0.26968831E+03</rscale>
<asrwt>0</asrwt>
<pdfrwt beam="1">  1        2 0.10564463E+00 0.26968831E+03</pdfrwt>
<pdfrwt beam="2">  1       -2 0.40737103E-02 0.26968831E+03</pdfrwt>
<totfact> 0.11420585E+04</totfact>
</mgrwt>
</event>
<event>
 4    1  0.1672993E-004  0.2581530E+03  0.7818608E-02  0.1108258E+00
         -1   -1    0    0    0  501 -0.00000000000E+00  0.00000000000E+00  0.26665922217E+02  0.26665922217E+02  0.00000000000E+00 0.  1.
          1   -1    0    0  501    0  0.00000000000E+00 -0.00000000000E+00 -0.62479544535E+03  0.62479544535E+03  0.00000000000E+00 0.  1.
         25    1    1    2    0    0  0.41921423286E+02  0.13277151387E+02 -0.34470248851E+03  0.36763228104E+03  0.12000000000E+03 0.  0.
         25    1    1    2    0    0 -0.41921423286E+02 -0.13277151387E+02 -0.25342703462E+03  0.28382908653E+03  0.12000000000E+03 0.  0.
<mgrwt>
<rscale>  0 0.25815303E+03</rscale>
<asrwt>0</asrwt>
<pdfrwt beam="1">  1        1 0.96122381E-01 0.25815303E+03</pdfrwt>
<pdfrwt beam="2">  1       -1 0.41024494E-02 0.25815303E+03</pdfrwt>
<totfact> 0.78164964E+03</totfact>
</mgrwt>
</event>
<event>
 4    1  0.1672993E-004  0.2940706E+03  0.7818608E-02  0.1088243E+00
         -2   -1    0    0    0  501 -0.00000000000E+00  0.00000000000E+00  0.32264236393E+03  0.32264236393E+03  0.00000000000E+00 0. -1.
          2   -1    0    0  501    0  0.00000000000E+00 -0.00000000000E+00 -0.67007273632E+02  0.67007273632E+02  0.00000000000E+00 0. -1.
         25    1    1    2    0    0  0.34004076589E+02  0.21447817254E+02  0.22700043601E+03  0.25989514047E+03  0.12000000000E+03 0.  0.
         25    1    1    2    0    0 -0.34004076589E+02 -0.21447817254E+02  0.28634654285E+02  0.12975449709E+03  0.12000000000E+03 0.  0.
<mgrwt>
<rscale>  0 0.29407064E+03</rscale>
<asrwt>0</asrwt>
<pdfrwt beam="1">  1        2 0.10308811E-01 0.29407064E+03</pdfrwt>
<pdfrwt beam="2">  1       -2 0.49637286E-01 0.29407064E+03</pdfrwt>
<totfact> 0.24031058E+03</totfact>
</mgrwt>
</event>
<event>
 4    1  0.1672993E-004  0.3866524E+03  0.7818608E-02  0.1048502E+00
          3   -1    0    0  501    0  0.00000000000E+00  0.00000000000E+00  0.56698520965E+03  0.56698520965E+03  0.00000000000E+00 0.  1.
         -3   -1    0    0    0  501 -0.00000000000E+00 -0.00000000000E+00 -0.65918847486E+02  0.65918847486E+02  0.00000000000E+00 0.  1.
         25    1    1    2    0    0 -0.16893541429E+02  0.13788621560E+03  0.15127536797E+03  0.23787021072E+03  0.12000000000E+03 0.  0.
         25    1    1    2    0    0  0.16893541429E+02 -0.13788621560E+03  0.34979099419E+03  0.39503384642E+03  0.12000000000E+03 0.  0.
<mgrwt>
<rscale>  0 0.38665236E+03</rscale>
<asrwt>0</asrwt>
<pdfrwt beam="1">  1        3 0.87228491E-01 0.38665236E+03</pdfrwt>
<pdfrwt beam="2">  1       -3 0.10141362E-01 0.38665236E+03</pdfrwt>
<totfact> 0.23071537E+02</totfact>
</mgrwt>
</event>
<event>
 4    1  0.1672993E-004  0.2837170E+03  0.7818608E-02  0.1093676E+00
          1   -1    0    0  501    0  0.00000000000E+00  0.00000000000E+00  0.91866648527E+03  0.91866648527E+03  0.00000000000E+00 0. -1.
         -1   -1    0    0    0  501 -0.00000000000E+00 -0.00000000000E+00 -0.21905488552E+02  0.21905488552E+02  0.00000000000E+00 0. -1.
         25    1    1    2    0    0  0.51215203218E+02 -0.28360415079E+02  0.60725072013E+03  0.62175617994E+03  0.12000000000E+03 0.  0.
         25    1    1    2    0    0 -0.51215203218E+02  0.28360415079E+02  0.28951027658E+03  0.31881579389E+03  0.12000000000E+03 0.  0.
<mgrwt>
<rscale>  0 0.28371703E+03</rscale>
<asrwt>0</asrwt>
<pdfrwt beam="1">  1        1 0.14133328E+00 0.28371703E+03</pdfrwt>
<pdfrwt beam="2">  1       -1 0.33700759E-02 0.28371703E+03</pdfrwt>
<totfact> 0.58596397E+03</totfact>
</mgrwt>
</event>
<event>
 4    1  0.1672993E-004  0.2688810E+03  0.7818608E-02  0.1101922E+00
         -1   -1    0    0    0  501 -0.00000000000E+00  0.00000000000E+00  0.54632805509E+02  0.54632805509E+02  0.00000000000E+00 0. -1.
          1   -1    0    0  501    0  0.00000000000E+00 -0.00000000000E+00 -0.33083140755E+03  0.33083140755E+03  0.00000000000E+00 0. -1.
         25    1    1    2    0    0  0.58303890094E+02 -0.15286523374E+02 -0.12889454174E+03  0.18613657429E+03  0.12000000000E+03 0.  0.
         25    1    1    2    0    0 -0.58303890094E+02  0.15286523374E+02 -0.14730406029E+03  0.19932763877E+03  0.12000000000E+03 0.  0.
<mgrwt>
<rscale>  0 0.26888100E+03</rscale>
<asrwt>0</asrwt>
<pdfrwt beam="1">  1        1 0.50897140E-01 0.26888100E+03</pdfrwt>
<pdfrwt beam="2">  1       -1 0.84050470E-02 0.26888100E+03</pdfrwt>
<totfact> 0.61246221E+03</totfact>
</mgrwt>
</event>
<event>
 4    1  0.1672993E-004  0.3121699E+03  0.7818608E-02  0.1079310E+00
          2   -1    0    0  501    0  0.00000000000E+00  0.00000000000E+00  0.73666643356E+03  0.73666643356E+03  0.00000000000E+00 0.  1.
         -2   -1    0    0    0  501 -0.00000000000E+00 -0.00000000000E+00 -0.33071285033E+02  0.33071285033E+02  0.00000000000E+00 0.  1.
         25    1    1    2    0    0 -0.31581782954E+02  0.90054348376E+02  0.42391061454E+03  0.45078531896E+03  0.12000000000E+03 0.  0.
         25    1    1    2    0    0  0.31581782954E+02 -0.90054348376E+02  0.27968453399E+03  0.31895239963E+03  0.12000000000E+03 0.  0.
<mgrwt>
<rscale>  0 0.31216986E+03</rscale>
<asrwt>0</asrwt>
<pdfrwt beam="1">  1        2 0.11333329E+00 0.31216986E+03</pdfrwt>
<pdfrwt beam="2">  1       -2 0.50878905E-02 0.31216986E+03</pdfrwt>
<totfact> 0.75179286E+03</totfact>
</mgrwt>
</event>
<event>
 4    1  0.1672993E-004  0.3290979E+03  0.7818608E-02  0.1071537E+00
          2   -1    0    0  501    0  0.00000000000E+00  0.00000000000E+00  0.64813610876E+03  0.64813610876E+03  0.00000000000E+00 0. -1.
         -2   -1    0    0    0  501 -0.00000000000E+00 -0.00000000000E+00 -0.41775718898E+02  0.41775718898E+02  0.00000000000E+00 0. -1.
         25    1    1    2    0    0 -0.57851668921E+02 -0.85219320685E+02  0.39849495388E+03  0.42872762505E+03  0.12000000000E+03 0.  0.
         25    1    1    2    0    0  0.57851668921E+02  0.85219320685E+02  0.20786543598E+03  0.26118420260E+03  0.12000000000E+03 0.  0.
<mgrwt>
<rscale>  0 0.32909787E+03</rscale>
<asrwt>0</asrwt>
<pdfrwt beam="1">  1        2 0.99713240E-01 0.32909787E+03</pdfrwt>
<pdfrwt beam="2">  1       -2 0.64270341E-02 0.32909787E+03</pdfrwt>
<totfact> 0.61433112E+03</totfact>
</mgrwt>
</event>
<event>
 4    1  0.1672993E-004  0.2533371E+03  0.7818608E-02  0.1111214E+00
          1   -1    0    0  501    0  0.00000000000E+00  0.00000000000E+00  0.38809859174E+03  0.38809859174E+03  0.00000000000E+00 0. -1.
         -1   -1    0    0    0  501 -0.00000000000E+00 -0.00000000000E+00 -0.41342401454E+02  0.41342401454E+02  0.00000000000E+00 0. -1.
         25    1    1    2    0    0  0.78250966979E+01 -0.23835559852E+02  0.11935769668E+03  0.17110121510E+03  0.12000000000E+03 0.  0.
         25    1    1    2    0    0 -0.78250966979E+01  0.23835559852E+02  0.22739849360E+03  0.25833977809E+03  0.12000000000E+03 0.  0.
<mgrwt>
<rscale>  0 0.25333715E+03</rscale>
<asrwt>0</asrwt>
<pdfrwt beam="1">  1        1 0.59707473E-01 0.25333715E+03</pdfrwt>
<pdfrwt beam="2">  1       -1 0.63603697E-02 0.25333715E+03</pdfrwt>
<totfact> 0.76230998E+03</totfact>
</mgrwt>
</event>
<event>
 4    1  0.1672993E-004  0.3108195E+03  0.7818608E-02  0.1079954E+00
         -1   -1    0    0    0  501 -0.00000000000E+00  0.00000000000E+00  0.10465751728E+03  0.10465751728E+03  0.00000000000E+00 0. -1.
          1   -1    0    0  501    0  0.00000000000E+00 -0.00000000000E+00 -0.23077358429E+03  0.23077358429E+03  0.00000000000E+00 0. -1.
         25    1    1    2    0    0 -0.53091114695E+02  0.64107137246E+02 -0.57108686659E+01  0.14615404725E+03  0.12000000000E+03 0.  0.
         25    1    1    2    0    0  0.53091114695E+02 -0.64107137246E+02 -0.12040519834E+03  0.18927705432E+03  0.12000000000E+03 0.  0.
<mgrwt>
<rscale>  0 0.31081950E+03</rscale>
<asrwt>0</asrwt>
<pdfrwt beam="1">  1        1 0.35503628E-01 0.31081950E+03</pdfrwt>
<pdfrwt beam="2">  1       -1 0.16101157E-01 0.31081950E+03</pdfrwt>
<totfact> 0.35039425E+03</totfact>
</mgrwt>
</event>
<event>
 4    1  0.1672993E-004  0.2870251E+03  0.7818608E-02  0.1091913E+00
         -2   -1    0    0    0  501 -0.00000000000E+00  0.00000000000E+00  0.15617985271E+02  0.15617985271E+02  0.00000000000E+00 0. -1.
          2   -1    0    0  501    0  0.00000000000E+00 -0.00000000000E+00 -0.13187269541E+04  0.13187269541E+04  0.00000000000E+00 0. -1.
         25    1    1    2    0    0 -0.49313915716E+02 -0.91673129405E+01 -0.36954124443E+03  0.39176093889E+03  0.12000000000E+03 0.  0.
         25    1    1    2    0    0  0.49313915716E+02  0.91673129405E+01 -0.93356772438E+03  0.94258400045E+03  0.12000000000E+03 0.  0.
<mgrwt>
<rscale>  0 0.28702514E+03</rscale>
<asrwt>0</asrwt>
<pdfrwt beam="1">  1        2 0.20288111E+00 0.28702514E+03</pdfrwt>
<pdfrwt beam="2">  1       -2 0.24027665E-02 0.28702514E+03</pdfrwt>
<totfact> 0.10102622E+04</totfact>
</mgrwt>
</event>
<event>
 4    1  0.1672993E-004  0.2934364E+03  0.7818608E-02  0.1088569E+00
         -1   -1    0    0    0  501 -0.00000000000E+00  0.00000000000E+00  0.26431609502E+02  0.26431609502E+02  0.00000000000E+00 0. -1.
          1   -1    0    0  501    0  0.00000000000E+00 -0.00000000000E+00 -0.81441213312E+03  0.81441213312E+03  0.00000000000E+00 0. -1.
         25    1    1    2    0    0  0.18579646996E+02 -0.18086959164E+01 -0.15808147704E+03  0.19934449590E+03  0.12000000000E+03 0.  0.
         25    1    1    2    0    0 -0.18579646996E+02  0.18086959164E+01 -0.62989904658E+03  0.64149924672E+03  0.12000000000E+03 0.  0.
<mgrwt>
<rscale>  0 0.29343635E+03</rscale>
<asrwt>0</asrwt>
<pdfrwt beam="1">  1        1 0.12529416E+00 0.29343635E+03</pdfrwt>
<pdfrwt beam="2">  1       -1 0.40664019E-02 0.29343635E+03</pdfrwt>
<totfact> 0.53783971E+03</totfact>
</mgrwt>
</event>
<event>
 4    1  0.1672993E-004  0.2610205E+03  0.7818608E-02  0.1106532E+00
         -2   -1    0    0    0  501 -0.00000000000E+00  0.00000000000E+00  0.43651833021E+02  0.43651833021E+02  0.00000000000E+00 0. -1.
          2   -1    0    0  501    0  0.00000000000E+00 -0.00000000000E+00 -0.39019943955E+03  0.39019943955E+03  0.00000000000E+00 0. -1.
         25    1    1    2    0    0  0.11019845236E+02  0.37021242070E+02 -0.11713123424E+03  0.17208060724E+03  0.12000000000E+03 0.  0.
         25    1    1    2    0    0 -0.11019845236E+02 -0.37021242070E+02 -0.22941637229E+03  0.26177066533E+03  0.12000000000E+03 0.  0.
<mgrwt>
<rscale>  0 0.26102046E+03</rscale>
<asrwt>0</asrwt>
<pdfrwt beam="1">  1        2 0.60030682E-01 0.26102046E+03</pdfrwt>
<pdfrwt beam="2">  1       -2 0.67156667E-02 0.26102046E+03</pdfrwt>
<totfact> 0.10096044E+04</totfact>
</mgrwt>
</event>
<event>
 4    1  0.1672993E-004  0.2532733E+03  0.7818608E-02  0.1111254E+00
          1   -1    0    0  501    0  0.00000000000E+00  0.00000000000E+00  0.47694988245E+02  0.47694988245E+02  0.00000000000E+00 0. -1.
         -1   -1    0    0    0  501 -0.00000000000E+00 -0.00000000000E+00 -0.33623732556E+03  0.33623732556E+03  0.00000000000E+00 0. -1.
         25    1    1    2    0    0 -0.14968028827E+02  0.37534019527E+02 -0.14729943665E+03  0.19424203599E+03  0.12000000000E+03 0.  0.
         25    1    1    2    0    0  0.14968028827E+02 -0.37534019527E+02 -0.14124290067E+03  0.18969027782E+03  0.12000000000E+03 0.  0.
<mgrwt>
<rscale>  0 0.25327325E+03</rscale>
<asrwt>0</asrwt>
<pdfrwt beam="1">  1        1 0.73376904E-02 0.25327325E+03</pdfrwt>
<pdfrwt beam="2">  1       -1 0.51728820E-01 0.25327325E+03</pdfrwt>
<totfact> 0.37447388E+03</totfact>
</mgrwt>
</event>
<event>
 4    1  0.1672993E-004  0.3264342E+03  0.7818608E-02  0.1072726E+00
          4   -1    0    0  501    0  0.00000000000E+00  0.00000000000E+00  0.12036576819E+04  0.12036576819E+04  0.00000000000E+00 0.  1.
         -4   -1    0    0    0  501 -0.00000000000E+00 -0.00000000000E+00 -0.22132393657E+02  0.22132393657E+02  0.00000000000E+00 0.  1.
         25    1    1    2    0    0  0.29131205873E+02 -0.10649177958E+03  0.61750019951E+03  0.63866706716E+03  0.12000000000E+03 0.  0.
         25    1    1    2    0    0 -0.29131205873E+02  0.10649177958E+03  0.56402508875E+03  0.58712300842E+03  0.12000000000E+03 0.  0.
<mgrwt>
<rscale>  0 0.32643422E+03</rscale>
<asrwt>0</asrwt>
<pdfrwt beam="1">  1        4 0.18517805E+00 0.32643422E+03</pdfrwt>
<pdfrwt beam="2">  1       -4 0.34049846E-02 0.32643422E+03</pdfrwt>
<totfact> 0.15028652E+02</totfact>
</mgrwt>
</event>
<event>
 4    1  0.1672993E-004  0.6492965E+03  0.7818608E-02  0.9808100E-01
         -4   -1    0    0    0  501 -0.00000000000E+00  0.00000000000E+00  0.16684627606E+03  0.16684627606E+03  0.00000000000E+00 0.  1.
          4   -1    0    0  501    0  0.00000000000E+00 -0.00000000000E+00 -0.63169810957E+03  0.63169810957E+03  0.00000000000E+00 0.  1.
         25    1    1    2    0    0  0.59634330451E+02 -0.29216397862E+03 -0.28852205010E+03  0.43192709705E+03  0.12000000000E+03 0.  0.
         25    1    1    2    0    0 -0.59634330451E+02  0.29216397862E+03 -0.17632978340E+03  0.36661728858E+03  0.12000000000E+03 0.  0.
<mgrwt>
<rscale>  0 0.64929647E+03</rscale>
<asrwt>0</asrwt>
<pdfrwt beam="1">  1        4 0.97184326E-01 0.64929647E+03</pdfrwt>
<pdfrwt beam="2">  1       -4 0.25668657E-01 0.64929647E+03</pdfrwt>
<totfact> 0.25377401E+01</totfact>
</mgrwt>
</event>
<event>
 4    1  0.1672993E-004  0.3039211E+03  0.7818608E-02  0.1083297E+00
          1   -1    0    0  501    0  0.00000000000E+00  0.00000000000E+00  0.56506691583E+03  0.56506691583E+03  0.00000000000E+00 0.  1.
         -1   -1    0    0    0  501 -0.00000000000E+00 -0.00000000000E+00 -0.40865984656E+02  0.40865984656E+02  0.00000000000E+00 0.  1.
         25    1    1    2    0    0 -0.24539261245E+02  0.63720817978E+02  0.13554261722E+03  0.19347950555E+03  0.12000000000E+03 0.  0.
         25    1    1    2    0    0  0.24539261245E+02 -0.63720817978E+02  0.38865831395E+03  0.41245339493E+03  0.12000000000E+03 0.  0.
<mgrwt>
<rscale>  0 0.30392115E+03</rscale>
<asrwt>0</asrwt>
<pdfrwt beam="1">  1        1 0.86933366E-01 0.30392115E+03</pdfrwt>
<pdfrwt beam="2">  1       -1 0.62870750E-02 0.30392115E+03</pdfrwt>
<totfact> 0.47567925E+03</totfact>
</mgrwt>
</event>
<event>
 4    1  0.1672993E-004  0.4353138E+03  0.7818608E-02  0.1032194E+00
          3   -1    0    0  501    0  0.00000000000E+00  0.00000000000E+00  0.22193819266E+03  0.22193819266E+03  0.00000000000E+00 0.  1.
         -3   -1    0    0    0  501 -0.00000000000E+00 -0.00000000000E+00 -0.21345821354E+03  0.21345821354E+03  0.00000000000E+00 0.  1.
         25    1    1    2    0    0  0.23151173874E+02  0.17689275007E+03  0.38121307350E+02  0.21835809111E+03  0.12000000000E+03 0.  0.
         25    1    1    2    0    0 -0.23151173874E+02 -0.17689275007E+03 -0.29641328227E+02  0.21703831509E+03  0.12000000000E+03 0.  0.
<mgrwt>
<rscale>  0 0.43531382E+03</rscale>
<asrwt>0</asrwt>
<pdfrwt beam="1">  1        3 0.34144337E-01 0.43531382E+03</pdfrwt>
<pdfrwt beam="2">  1       -3 0.32839725E-01 0.43531382E+03</pdfrwt>
<totfact> 0.19919722E+02</totfact>
</mgrwt>
</event>
<event>
 4    1  0.1672993E-004  0.2875079E+03  0.7818608E-02  0.1091657E+00
         -4   -1    0    0    0  501 -0.00000000000E+00  0.00000000000E+00  0.60024099744E+03  0.60024099744E+03  0.00000000000E+00 0.  1.
          4   -1    0    0  501    0  0.00000000000E+00 -0.00000000000E+00 -0.34428177933E+02  0.34428177933E+02  0.00000000000E+00 0.  1.
         25    1    1    2    0    0  0.67193503697E+01  0.71006444641E+02  0.35867615587E+03  0.38488394308E+03  0.12000000000E+03 0.  0.
         25    1    1    2    0    0 -0.67193503697E+01 -0.71006444641E+02  0.20713666363E+03  0.24978523229E+03  0.12000000000E+03 0.  0.
<mgrwt>
<rscale>  0 0.28750794E+03</rscale>
<asrwt>0</asrwt>
<pdfrwt beam="1">  1        4 0.52966432E-02 0.28750794E+03</pdfrwt>
<pdfrwt beam="2">  1       -4 0.92344761E-01 0.28750794E+03</pdfrwt>
<totfact> 0.42045812E+02</totfact>
</mgrwt>
</event>
<event>
 4    1  0.1672993E-004  0.2639746E+03  0.7818608E-02  0.1104778E+00
          2   -1    0    0  501    0  0.00000000000E+00  0.00000000000E+00  0.50935932321E+03  0.50935932321E+03  0.00000000000E+00 0. -1.
         -2   -1    0    0    0  501 -0.00000000000E+00 -0.00000000000E+00 -0.34201089499E+02  0.34201089499E+02  0.00000000000E+00 0. -1.
         25    1    1    2    0    0 -0.36236512505E+02 -0.35613847724E+00  0.32266498768E+03  0.34615878719E+03  0.12000000000E+03 0.  0.
         25    1    1    2    0    0  0.36236512505E+02  0.35613847724E+00  0.15249324603E+03  0.19740162552E+03  0.12000000000E+03 0.  0.
<mgrwt>
<rscale>  0 0.26397457E+03</rscale>
<asrwt>0</asrwt>
<pdfrwt beam="1">  1        2 0.78362967E-01 0.26397457E+03</pdfrwt>
<pdfrwt beam="2">  1       -2 0.52617065E-02 0.26397457E+03</pdfrwt>
<totfact> 0.10950910E+04</totfact>
</mgrwt>
</event>
<event>
 4    1  0.1672993E-004  0.2640207E+03  0.7818608E-02  0.1104751E+00
          2   -1    0    0  501    0  0.00000000000E+00  0.00000000000E+00  0.18384278699E+04  0.18384278699E+04  0.00000000000E+00 0. -1.
         -2   -1    0    0    0  501 -0.00000000000E+00 -0.00000000000E+00 -0.94791501559E+01  0.94791501559E+01  0.00000000000E+00 0. -1.
         25    1    1    2    0    0  0.90625100640E+01  0.10247596781E+02  0.12874410569E+04  0.12930938161E+04  0.12000000000E+03 0.  0.
         25    1    1    2    0    0 -0.90625100640E+01 -0.10247596781E+02  0.54150766283E+03  0.55481320391E+03  0.12000000000E+03 0.  0.
<mgrwt>
<rscale>  0 0.26402071E+03</rscale>
<asrwt>0</asrwt>
<pdfrwt beam="1">  1        2 0.28283477E+00 0.26402071E+03</pdfrwt>
<pdfrwt beam="2">  1       -2 0.14583323E-02 0.26402071E+03</pdfrwt>
<totfact> 0.11097913E+04</totfact>
</mgrwt>
</event>
<event>
 4    1  0.1672993E-004  0.2683634E+03  0.7818608E-02  0.1102220E+00
          1   -1    0    0  501    0  0.00000000000E+00  0.00000000000E+00  0.98291277735E+03  0.98291277735E+03  0.00000000000E+00 0.  1.
         -1   -1    0    0    0  501 -0.00000000000E+00 -0.00000000000E+00 -0.18317730830E+02  0.18317730830E+02  0.00000000000E+00 0.  1.
         25    1    1    2    0    0 -0.22677224460E+02 -0.20686889918E+02  0.28978551512E+03  0.31514734443E+03  0.12000000000E+03 0.  0.
         25    1    1    2    0    0  0.22677224460E+02  0.20686889918E+02  0.67480953139E+03  0.68608316375E+03  0.12000000000E+03 0.  0.
<mgrwt>
<rscale>  0 0.26836342E+03</rscale>
<asrwt>0</asrwt>
<pdfrwt beam="1">  1        1 0.15121731E+00 0.26836342E+03</pdfrwt>
<pdfrwt beam="2">  1       -1 0.28181132E-02 0.26836342E+03</pdfrwt>
<totfact> 0.68055563E+03</totfact>
</mgrwt>
</event>
<event>
 4    1  0.1672993E-004  0.2665622E+03  0.7818608E-02  0.1103263E+00
         -4   -1    0    0    0  501 -0.00000000000E+00  0.00000000000E+00  0.47155964210E+03  0.47155964210E+03  0.00000000000E+00 0.  1.
          4   -1    0    0  501    0  0.00000000000E+00 -0.00000000000E+00 -0.37670437251E+02  0.37670437251E+02  0.00000000000E+00 0.  1.
         25    1    1    2    0    0 -0.53391029901E+02  0.17283721460E+02  0.18896392556E+03  0.23077411957E+03  0.12000000000E+03 0.  0.
         25    1    1    2    0    0  0.53391029901E+02 -0.17283721460E+02  0.24492527929E+03  0.27845595978E+03  0.12000000000E+03 0.  0.
<mgrwt>
<rscale>  0 0.26656225E+03</rscale>
<asrwt>0</asrwt>
<pdfrwt beam="1">  1        4 0.57954522E-02 0.26656225E+03</pdfrwt>
<pdfrwt beam="2">  1       -4 0.72547633E-01 0.26656225E+03</pdfrwt>
<totfact> 0.61810752E+02</totfact>
</mgrwt>
</event>
<event>
 4    1  0.1672993E-004  0.2923443E+03  0.7818608E-02  0.1089131E+00
         -2   -1    0    0    0  501 -0.00000000000E+00  0.00000000000E+00  0.20086621693E+03  0.20086621693E+03  0.00000000000E+00 0. -1.
          2   -1    0    0  501    0  0.00000000000E+00 -0.00000000000E+00 -0.10637079220E+03  0.10637079220E+03  0.00000000000E+00 0. -1.
         25    1    1    2    0    0 -0.76372960559E+02  0.33598716601E+02  0.49500693235E+02  0.15431144317E+03  0.12000000000E+03 0.  0.
         25    1    1    2    0    0  0.76372960559E+02 -0.33598716601E+02  0.44994731502E+02  0.15292556596E+03  0.12000000000E+03 0.  0.
<mgrwt>
<rscale>  0 0.29234431E+03</rscale>
<asrwt>0</asrwt>
<pdfrwt beam="1">  1        2 0.16364737E-01 0.29234431E+03</pdfrwt>
<pdfrwt beam="2">  1       -2 0.30902495E-01 0.29234431E+03</pdfrwt>
<totfact> 0.33942930E+03</totfact>
</mgrwt>
</event>
<event>
 4    1  0.1672993E-004  0.2823330E+03  0.7818608E-02  0.1094421E+00
          1   -1    0    0  501    0  0.00000000000E+00  0.00000000000E+00  0.32807938342E+02  0.32807938342E+02  0.00000000000E+00 0.  1.
         -1   -1    0    0    0  501 -0.00000000000E+00 -0.00000000000E+00 -0.60741356334E+03  0.60741356334E+03  0.00000000000E+00 0.  1.
         25    1    1    2    0    0 -0.10743603608E+02 -0.28615844135E+02 -0.13361138860E+03  0.18217105894E+03  0.12000000000E+03 0.  0.
         25    1    1    2    0    0  0.10743603608E+02  0.28615844135E+02 -0.44099423640E+03  0.45805044274E+03  0.12000000000E+03 0.  0.
<mgrwt>
<rscale>  0 0.28233304E+03</rscale>
<asrwt>0</asrwt>
<pdfrwt beam="1">  1        1 0.50473751E-02 0.28233304E+03</pdfrwt>
<pdfrwt beam="2">  1       -1 0.93448241E-01 0.28233304E+03</pdfrwt>
<totfact> 0.19227352E+03</totfact>
</mgrwt>
</event>
<event>
 4    1  0.1672993E-004  0.3143931E+03  0.7818608E-02  0.1078259E+00
          2   -1    0    0  501    0  0.00000000000E+00  0.00000000000E+00  0.36061020431E+03  0.36061020431E+03  0.00000000000E+00 0. -1.
         -2   -1    0    0    0  501 -0.00000000000E+00 -0.00000000000E+00 -0.68524848057E+02  0.68524848057E+02  0.00000000000E+00 0. -1.
         25    1    1    2    0    0  0.42113710940E+02 -0.31785273609E+02  0.27621666584E+02  0.13396575955E+03  0.12000000000E+03 0.  0.
         25    1    1    2    0    0 -0.42113710940E+02  0.31785273609E+02  0.26446368967E+03  0.29516929282E+03  0.12000000000E+03 0.  0.
<mgrwt>
<rscale>  0 0.31439313E+03</rscale>
<asrwt>0</asrwt>
<pdfrwt beam="1">  1        2 0.55478492E-01 0.31439313E+03</pdfrwt>
<pdfrwt beam="2">  1       -2 0.10542285E-01 0.31439313E+03</pdfrwt>
<totfact> 0.54512843E+03</totfact>
</mgrwt>
</event>
<event>
 4    1  0.1672993E-004  0.3073211E+03  0.7818608E-02  0.1081637E+00
         -2   -1    0    0    0  501 -0.00000000000E+00  0.00000000000E+00  0.14264400832E+02  0.14264400832E+02  0.00000000000E+00 0.  1.
          2   -1    0    0  501    0  0.00000000000E+00 -0.00000000000E+00 -0.16552792952E+04  0.16552792952E+04  0.00000000000E+00 0.  1.
         25    1    1    2    0    0 -0.89964495076E+02  0.32651914649E+02 -0.78140446503E+03  0.79633704916E+03  0.12000000000E+03 0.  0.
         25    1    1    2    0    0  0.89964495076E+02 -0.32651914649E+02 -0.85961042930E+03  0.87320664682E+03  0.12000000000E+03 0.  0.
<mgrwt>
<rscale>  0 0.30732112E+03</rscale>
<asrwt>0</asrwt>
<pdfrwt beam="1">  1        2 0.25465849E+00 0.30732112E+03</pdfrwt>
<pdfrwt beam="2">  1       -2 0.21945221E-02 0.30732112E+03</pdfrwt>
<totfact> 0.76160535E+03</totfact>
</mgrwt>
</event>
<event>
 4    1  0.1672993E-004  0.2715540E+03  0.7818608E-02  0.1100393E+00
          3   -1    0    0  501    0  0.00000000000E+00  0.00000000000E+00  0.80165197135E+02  0.80165197135E+02  0.00000000000E+00 0. -1.
         -3   -1    0    0    0  501 -0.00000000000E+00 -0.00000000000E+00 -0.22996757793E+03  0.22996757793E+03  0.00000000000E+00 0. -1.
         25    1    1    2    0    0  0.35881663327E+02  0.11291375096E+02 -0.16438899136E+02  0.12682754559E+03  0.12000000000E+03 0.  0.
         25    1    1    2    0    0 -0.35881663327E+02 -0.11291375096E+02 -0.13336348166E+03  0.18330522948E+03  0.12000000000E+03 0.  0.
<mgrwt>
<rscale>  0 0.27155402E+03</rscale>
<asrwt>0</asrwt>
<pdfrwt beam="1">  1        3 0.12333107E-01 0.27155402E+03</pdfrwt>
<pdfrwt beam="2">  1       -3 0.35379628E-01 0.27155402E+03</pdfrwt>
<totfact> 0.10361665E+03</totfact>
</mgrwt>
</event>
<event>
 4    1  0.1672993E-004  0.4193397E+03  0.7818608E-02  0.1037281E+00
         -2   -1    0    0    0  501 -0.00000000000E+00  0.00000000000E+00  0.48449828803E+02  0.48449828803E+02  0.00000000000E+00 0.  1.
          2   -1    0    0  501    0  0.00000000000E+00 -0.00000000000E+00 -0.90736003154E+03  0.90736003154E+03  0.00000000000E+00 0.  1.
         25    1    1    2    0    0  0.62184237931E+02  0.15734076607E+03 -0.49927983707E+03  0.54065085945E+03  0.12000000000E+03 0.  0.
         25    1    1    2    0    0 -0.62184237931E+02 -0.15734076607E+03 -0.35963036566E+03  0.41515900089E+03  0.12000000000E+03 0.  0.
<mgrwt>
<rscale>  0 0.41933966E+03</rscale>
<asrwt>0</asrwt>
<pdfrwt beam="1">  1        2 0.13959384E+00 0.41933966E+03</pdfrwt>
<pdfrwt beam="2">  1       -2 0.74538204E-02 0.41933966E+03</pdfrwt>
<totfact> 0.31880104E+03</totfact>
</mgrwt>
</event>
<event>
 4    1  0.1672993E-004  0.2745315E+03  0.7818608E-02  0.1098714E+00
         -1   -1    0    0    0  501 -0.00000000000E+00  0.00000000000E+00  0.73221093033E+01  0.73221093033E+01  0.00000000000E+00 0. -1.
          1   -1    0    0  501    0  0.00000000000E+00 -0.00000000000E+00 -0.25732874542E+04  0.25732874542E+04  0.00000000000E+00 0. -1.
         25    1    1    2    0    0  0.37006198456E+02 -0.47488541615E+02 -0.15517108965E+04  0.15575080502E+04  0.12000000000E+03 0.  0.
         25    1    1    2    0    0 -0.37006198456E+02  0.47488541615E+02 -0.10142544485E+04  0.10231015133E+04  0.12000000000E+03 0.  0.
<mgrwt>
<rscale>  0 0.27453154E+03</rscale>
<asrwt>0</asrwt>
<pdfrwt beam="1">  1        1 0.39589065E+00 0.27453154E+03</pdfrwt>
<pdfrwt beam="2">  1       -1 0.11264776E-02 0.27453154E+03</pdfrwt>
<totfact> 0.22426088E+03</totfact>
</mgrwt>
</event>
<event>
 4    1  0.1672993E-004  0.2495091E+03  0.7818608E-02  0.1113615E+00
          1   -1    0    0  501    0  0.00000000000E+00  0.00000000000E+00  0.98858133356E+03  0.98858133356E+03  0.00000000000E+00 0.  1.
         -1   -1    0    0    0  501 -0.00000000000E+00 -0.00000000000E+00 -0.15743465868E+02  0.15743465868E+02  0.00000000000E+00 0.  1.
         25    1    1    2    0    0  0.33343297804E+02  0.56550255373E+01  0.50439391598E+03  0.51957384201E+03  0.12000000000E+03 0.  0.
         25    1    1    2    0    0 -0.33343297804E+02 -0.56550255373E+01  0.46844395171E+03  0.48475095742E+03  0.12000000000E+03 0.  0.
<mgrwt>
<rscale>  0 0.24950909E+03</rscale>
<asrwt>0</asrwt>
<pdfrwt beam="1">  1        1 0.15208939E+00 0.24950909E+03</pdfrwt>
<pdfrwt beam="2">  1       -1 0.24220724E-02 0.24950909E+03</pdfrwt>
<totfact> 0.84013744E+03</totfact>
</mgrwt>
</event>
<event>
 4    1  0.1672993E-004  0.3402312E+03  0.7818608E-02  0.1066697E+00
         -2   -1    0    0    0  501 -0.00000000000E+00  0.00000000000E+00  0.50139693916E+03  0.50139693916E+03  0.00000000000E+00 0. -1.
          2   -1    0    0  501    0  0.00000000000E+00 -0.00000000000E+00 -0.57717378079E+02  0.57717378079E+02  0.00000000000E+00 0. -1.
         25    1    1    2    0    0 -0.84686550342E+02  0.79089776971E+02  0.27664725717E+03  0.32304908223E+03  0.12000000000E+03 0.  0.
         25    1    1    2    0    0  0.84686550342E+02 -0.79089776971E+02  0.16703230391E+03  0.23606523501E+03  0.12000000000E+03 0.  0.
<mgrwt>
<rscale>  0 0.34023120E+03</rscale>
<asrwt>0</asrwt>
<pdfrwt beam="1">  1        2 0.88795970E-02 0.34023120E+03</pdfrwt>
<pdfrwt beam="2">  1       -2 0.77137988E-01 0.34023120E+03</pdfrwt>
<totfact> 0.11549382E+03</totfact>
</mgrwt>
</event>
<event>
 4    1  0.1672993E-004  0.2428711E+03  0.7818608E-02  0.1117895E+00
          1   -1    0    0  501    0  0.00000000000E+00  0.00000000000E+00  0.17706599231E+03  0.17706599231E+03  0.00000000000E+00 0. -1.
         -1   -1    0    0    0  501 -0.00000000000E+00 -0.00000000000E+00 -0.83283002895E+02  0.83283002895E+02  0.00000000000E+00 0. -1.
         25    1    1    2    0    0  0.97111008809E+01 -0.10335221935E+02  0.59820341332E+02  0.13483173043E+03  0.12000000000E+03 0.  0.
         25    1    1    2    0    0 -0.97111008809E+01  0.10335221935E+02  0.33962648083E+02  0.12551726478E+03  0.12000000000E+03 0.  0.
<mgrwt>
<rscale>  0 0.24287106E+03</rscale>
<asrwt>0</asrwt>
<pdfrwt beam="1">  1        1 0.27240922E-01 0.24287106E+03</pdfrwt>
<pdfrwt beam="2">  1       -1 0.12812770E-01 0.24287106E+03</pdfrwt>
<totfact> 0.69696318E+03</totfact>
</mgrwt>
</event>
<event>
 4    1  0.1672993E-004  0.4127074E+03  0.7818608E-02  0.1039466E+00
          2   -1    0    0  501    0  0.00000000000E+00  0.00000000000E+00  0.13203477987E+03  0.13203477987E+03  0.00000000000E+00 0.  1.
         -2   -1    0    0    0  501 -0.00000000000E+00 -0.00000000000E+00 -0.32250482410E+03  0.32250482410E+03  0.00000000000E+00 0.  1.
         25    1    1    2    0    0  0.79017966825E+01  0.13334248685E+03  0.16753327075E+02  0.18034226115E+03  0.12000000000E+03 0.  0.
         25    1    1    2    0    0 -0.79017966825E+01 -0.13334248685E+03 -0.20722337131E+03  0.27419734281E+03  0.12000000000E+03 0.  0.
<mgrwt>
<rscale>  0 0.41270742E+03</rscale>
<asrwt>0</asrwt>
<pdfrwt beam="1">  1        2 0.20313043E-01 0.41270742E+03</pdfrwt>
<pdfrwt beam="2">  1       -2 0.49616127E-01 0.41270742E+03</pdfrwt>
<totfact> 0.10717101E+03</totfact>
</mgrwt>
</event>
<event>
 4    1  0.1672993E-004  0.3145294E+03  0.7818608E-02  0.1078195E+00
         -1   -1    0    0    0  501 -0.00000000000E+00  0.00000000000E+00  0.31413455597E+02  0.31413455597E+02  0.00000000000E+00 0. -1.
          1   -1    0    0  501    0  0.00000000000E+00 -0.00000000000E+00 -0.78731195084E+03  0.78731195084E+03  0.00000000000E+00 0. -1.
         25    1    1    2    0    0  0.74633804335E+02  0.23696535586E+02 -0.20924526292E+03  0.25360463443E+03  0.12000000000E+03 0.  0.
         25    1    1    2    0    0 -0.74633804335E+02 -0.23696535586E+02 -0.54665323232E+03  0.56512077201E+03  0.12000000000E+03 0.  0.
<mgrwt>
<rscale>  0 0.31452942E+03</rscale>
<asrwt>0</asrwt>
<pdfrwt beam="1">  1        1 0.12112490E+00 0.31452942E+03</pdfrwt>
<pdfrwt beam="2">  1       -1 0.48328398E-02 0.31452942E+03</pdfrwt>
<totfact> 0.43822017E+03</totfact>
</mgrwt>
</event>
<event>
 4    1  0.1672993E-004  0.3133429E+03  0.7818608E-02  0.1078755E+00
          2   -1    0    0  501    0  0.00000000000E+00  0.00000000000E+00  0.56476325826E+03  0.56476325826E+03  0.00000000000E+00 0. -1.
         -2   -1    0    0    0  501 -0.00000000000E+00 -0.00000000000E+00 -0.43462361946E+02  0.43462361946E+02  0.00000000000E+00 0. -1.
         25    1    1    2    0    0 -0.75562389764E+02 -0.66554883818E+02  0.25561938713E+03  0.29980076448E+03  0.12000000000E+03 0.  0.
         25    1    1    2    0    0  0.75562389764E+02  0.66554883818E+02  0.26568150918E+03  0.30842485572E+03  0.12000000000E+03 0.  0.
<mgrwt>
<rscale>  0 0.31334291E+03</rscale>
<asrwt>0</asrwt>
<pdfrwt beam="1">  1        2 0.86886650E-01 0.31334291E+03</pdfrwt>
<pdfrwt beam="2">  1       -2 0.66865176E-02 0.31334291E+03</pdfrwt>
<totfact> 0.67809792E+03</totfact>
</mgrwt>
</event>
<event>
 4    1  0.1672993E-004  0.7474713E+03  0.7818608E-02  0.9639326E-01
         -2   -1    0    0    0  501 -0.00000000000E+00  0.00000000000E+00  0.52099205755E+02  0.52099205755E+02  0.00000000000E+00 0. -1.
          2   -1    0    0  501    0  0.00000000000E+00 -0.00000000000E+00 -0.26810067955E+04  0.26810067955E+04  0.00000000000E+00 0. -1.
         25    1    1    2    0    0 -0.26463609999E+03 -0.17941785926E+03 -0.18696510059E+04  0.19005835729E+04  0.12000000000E+03 0.  0.
         25    1    1    2    0    0  0.26463609999E+03  0.17941785926E+03 -0.75925658386E+03  0.83252242839E+03  0.12000000000E+03 0.  0.
<mgrwt>
<rscale>  0 0.74747127E+03</rscale>
<asrwt>0</asrwt>
<pdfrwt beam="1">  1        2 0.41246260E+00 0.74747127E+03</pdfrwt>
<pdfrwt beam="2">  1       -2 0.80152621E-02 0.74747127E+03</pdfrwt>
<totfact> 0.27916291E+02</totfact>
</mgrwt>
</event>
<event>
 4    1  0.1672993E-004  0.2740772E+03  0.7818608E-02  0.1098969E+00
         -1   -1    0    0    0  501 -0.00000000000E+00  0.00000000000E+00  0.93825303460E+01  0.93825303460E+01  0.00000000000E+00 0.  1.
          1   -1    0    0  501    0  0.00000000000E+00 -0.00000000000E+00 -0.20015475663E+04  0.20015475663E+04  0.00000000000E+00 0.  1.
         25    1    1    2    0    0  0.25905703635E+02 -0.11729579560E+02 -0.55764026030E+03  0.57111412907E+03  0.12000000000E+03 0.  0.
         25    1    1    2    0    0 -0.25905703635E+02  0.11729579560E+02 -0.14345247756E+04  0.14398159675E+04  0.12000000000E+03 0.  0.
<mgrwt>
<rscale>  0 0.27407722E+03</rscale>
<asrwt>0</asrwt>
<pdfrwt beam="1">  1        1 0.30793093E+00 0.27407722E+03</pdfrwt>
<pdfrwt beam="2">  1       -1 0.14434637E-02 0.27407722E+03</pdfrwt>
<totfact> 0.37153238E+03</totfact>
</mgrwt>
</event>
<event>
 4    1  0.1672993E-004  0.3183713E+03  0.7818608E-02  0.1076401E+00
          2   -1    0    0  501    0  0.00000000000E+00  0.00000000000E+00  0.63381829964E+03  0.63381829964E+03  0.00000000000E+00 0. -1.
         -2   -1    0    0    0  501 -0.00000000000E+00 -0.00000000000E+00 -0.39980020598E+02  0.39980020598E+02  0.00000000000E+00 0. -1.
         25    1    1    2    0    0  0.36244007536E+01 -0.26814245724E+02  0.51074727390E+03  0.52535218459E+03  0.12000000000E+03 0.  0.
         25    1    1    2    0    0 -0.36244007536E+01  0.26814245724E+02  0.83091005148E+02  0.14844613566E+03  0.12000000000E+03 0.  0.
<mgrwt>
<rscale>  0 0.31837128E+03</rscale>
<asrwt>0</asrwt>
<pdfrwt beam="1">  1        2 0.97510500E-01 0.31837128E+03</pdfrwt>
<pdfrwt beam="2">  1       -2 0.61507729E-02 0.31837128E+03</pdfrwt>
<totfact> 0.67463460E+03</totfact>
</mgrwt>
</event>
<event>
 4    1  0.1672993E-004  0.2455499E+03  0.7818608E-02  0.1116150E+00
         -2   -1    0    0    0  501 -0.00000000000E+00  0.00000000000E+00  0.22404111222E+02  0.22404111222E+02  0.00000000000E+00 0. -1.
          2   -1    0    0  501    0  0.00000000000E+00 -0.00000000000E+00 -0.67280920090E+03  0.67280920090E+03  0.00000000000E+00 0. -1.
         25    1    1    2    0    0 -0.16486902594E+02  0.16217129133E+02 -0.35856795356E+03  0.37882158143E+03  0.12000000000E+03 0.  0.
         25    1    1    2    0    0  0.16486902594E+02 -0.16217129133E+02 -0.29183713611E+03  0.31639173069E+03  0.12000000000E+03 0.  0.
<mgrwt>
<rscale>  0 0.24554993E+03</rscale>
<asrwt>0</asrwt>
<pdfrwt beam="1">  1        2 0.10350910E+00 0.24554993E+03</pdfrwt>
<pdfrwt beam="2">  1       -2 0.34467868E-02 0.24554993E+03</pdfrwt>
<totfact> 0.14973962E+04</totfact>
</mgrwt>
</event>
<event>
 4    1  0.1672993E-004  0.2611647E+03  0.7818608E-02  0.1106445E+00
          2   -1    0    0  501    0  0.00000000000E+00  0.00000000000E+00  0.14594893043E+04  0.14594893043E+04  0.00000000000E+00 0. -1.
         -2   -1    0    0    0  501 -0.00000000000E+00 -0.00000000000E+00 -0.11683370649E+02  0.11683370649E+02  0.00000000000E+00 0. -1.
         25    1    1    2    0    0 -0.51376430711E+02  0.22273465536E+01  0.73907667095E+03  0.75051903657E+03  0.12000000000E+03 0.  0.
         25    1    1    2    0    0  0.51376430711E+02 -0.22273465536E+01  0.70872926268E+03  0.72065363836E+03  0.12000000000E+03 0.  0.
<mgrwt>
<rscale>  0 0.26116473E+03</rscale>
<asrwt>0</asrwt>
<pdfrwt beam="1">  1        2 0.22453667E+00 0.26116473E+03</pdfrwt>
<pdfrwt beam="2">  1       -2 0.17974428E-02 0.26116473E+03</pdfrwt>
<totfact> 0.12956463E+04</totfact>
</mgrwt>
</event>
<event>
 4    1  0.1672993E-004  0.3034974E+03  0.7818608E-02  0.1083505E+00
          2   -1    0    0  501    0  0.00000000000E+00  0.00000000000E+00  0.12466212087E+04  0.12466212087E+04  0.00000000000E+00 0.  1.
         -2   -1    0    0    0  501 -0.00000000000E+00 -0.00000000000E+00 -0.18472060496E+02  0.18472060496E+02  0.00000000000E+00 0.  1.
         25    1    1    2    0    0  0.10873913846E+02 -0.53036776865E+02  0.29946461817E+03  0.32712413429E+03  0.12000000000E+03 0.  0.
         25    1    1    2    0    0 -0.10873913846E+02  0.53036776865E+02  0.92868453001E+03  0.93796913488E+03  0.12000000000E+03 0.  0.
<mgrwt>
<rscale>  0 0.30349736E+03</rscale>
<asrwt>0</asrwt>
<pdfrwt beam="1">  1        2 0.19178781E+00 0.30349736E+03</pdfrwt>
<pdfrwt beam="2">  1       -2 0.28418564E-02 0.30349736E+03</pdfrwt>
<totfact> 0.86478774E+03</totfact>
</mgrwt>
</event>
<event>
 4    1  0.1672993E-004  0.5969890E+03  0.7818608E-02  0.9911673E-01
          2   -1    0    0  501    0  0.00000000000E+00  0.00000000000E+00  0.82717492451E+03  0.82717492451E+03  0.00000000000E+00 0.  1.
         -2   -1    0    0    0  501 -0.00000000000E+00 -0.00000000000E+00 -0.10771477341E+03  0.10771477341E+03  0.00000000000E+00 0.  1.
         25    1    1    2    0    0 -0.43556998718E+02 -0.26981480992E+03  0.35767879612E+03  0.46586625224E+03  0.12000000000E+03 0.  0.
         25    1    1    2    0    0  0.43556998718E+02  0.26981480992E+03  0.36178135497E+03  0.46902344568E+03  0.12000000000E+03 0.  0.
<mgrwt>
<rscale>  0 0.59698898E+03</rscale>
<asrwt>0</asrwt>
<pdfrwt beam="1">  1        2 0.12725768E+00 0.59698898E+03</pdfrwt>
<pdfrwt beam="2">  1       -2 0.16571504E-01 0.59698898E+03</pdfrwt>
<totfact> 0.97930733E+02</totfact>
</mgrwt>
</event>
<event>
 4    1  0.1672993E-004  0.2684937E+03  0.7818608E-02  0.1102145E+00
          2   -1    0    0  501    0  0.00000000000E+00  0.00000000000E+00  0.18650388266E+03  0.18650388266E+03  0.00000000000E+00 0.  1.
         -2   -1    0    0    0  501 -0.00000000000E+00 -0.00000000000E+00 -0.96631870085E+02  0.96631870085E+02  0.00000000000E+00 0.  1.
         25    1    1    2    0    0 -0.13734107734E+02 -0.27043905623E+02 -0.98817141459E+01  0.12416781717E+03  0.12000000000E+03 0.  0.
         25    1    1    2    0    0  0.13734107734E+02  0.27043905623E+02  0.99753726725E+02  0.15896793558E+03  0.12000000000E+03 0.  0.
<mgrwt>
<rscale>  0 0.26849372E+03</rscale>
<asrwt>0</asrwt>
<pdfrwt beam="1">  1        2 0.28692905E-01 0.26849372E+03</pdfrwt>
<pdfrwt beam="2">  1       -2 0.14866442E-01 0.26849372E+03</pdfrwt>
<totfact> 0.63453616E+03</totfact>
</mgrwt>
</event>
<event>
 4    1  0.1672993E-004  0.2562582E+03  0.7818608E-02  0.1109412E+00
          2   -1    0    0  501    0  0.00000000000E+00  0.00000000000E+00  0.32267477085E+04  0.32267477085E+04  0.00000000000E+00 0. -1.
         -2   -1    0    0    0  501 -0.00000000000E+00 -0.00000000000E+00 -0.50878061804E+01  0.50878061804E+01  0.00000000000E+00 0. -1.
         25    1    1    2    0    0  0.29366067681E+02 -0.30502859780E+02  0.17997001339E+04  0.18041932719E+04  0.12000000000E+03 0.  0.
         25    1    1    2    0    0 -0.29366067681E+02  0.30502859780E+02  0.14219597684E+04  0.14276422428E+04  0.12000000000E+03 0.  0.
<mgrwt>
<rscale>  0 0.25625821E+03</rscale>
<asrwt>0</asrwt>
<pdfrwt beam="1">  1        2 0.49642109E+00 0.25625821E+03</pdfrwt>
<pdfrwt beam="2">  1       -2 0.78274199E-03 0.25625821E+03</pdfrwt>
<totfact> 0.46247784E+03</totfact>
</mgrwt>
</event>
<event>
 4    1  0.1672993E-004  0.2798512E+03  0.7818608E-02  0.1095770E+00
          1   -1    0    0  501    0  0.00000000000E+00  0.00000000000E+00  0.14712278653E+04  0.14712278653E+04  0.00000000000E+00 0. -1.
         -1   -1    0    0    0  501 -0.00000000000E+00 -0.00000000000E+00 -0.13308054409E+02  0.13308054409E+02  0.00000000000E+00 0. -1.
         25    1    1    2    0    0 -0.33608549676E+02  0.28625305620E+02  0.10304553146E+04  0.10383578854E+04  0.12000000000E+03 0.  0.
         25    1    1    2    0    0  0.33608549676E+02 -0.28625305620E+02  0.42746449632E+03  0.44617803436E+03  0.12000000000E+03 0.  0.
<mgrwt>
<rscale>  0 0.27985125E+03</rscale>
<asrwt>0</asrwt>
<pdfrwt beam="1">  1        1 0.22634262E+00 0.27985125E+03</pdfrwt>
<pdfrwt beam="2">  1       -1 0.20473941E-02 0.27985125E+03</pdfrwt>
<totfact> 0.49560992E+03</totfact>
</mgrwt>
</event>
<event>
 4    1  0.1672993E-004  0.3356723E+03  0.7818608E-02  0.1068654E+00
          2   -1    0    0  501    0  0.00000000000E+00  0.00000000000E+00  0.15876300529E+04  0.15876300529E+04  0.00000000000E+00 0. -1.
         -2   -1    0    0    0  501 -0.00000000000E+00 -0.00000000000E+00 -0.17742782036E+02  0.17742782036E+02  0.00000000000E+00 0. -1.
         25    1    1    2    0    0 -0.80571349694E+02 -0.67868120280E+02  0.53776579971E+03  0.56097226267E+03  0.12000000000E+03 0.  0.
         25    1    1    2    0    0  0.80571349694E+02  0.67868120280E+02  0.10321214712E+04  0.10444005723E+04  0.12000000000E+03 0.  0.
<mgrwt>
<rscale>  0 0.33567230E+03</rscale>
<asrwt>0</asrwt>
<pdfrwt beam="1">  1        2 0.24425067E+00 0.33567230E+03</pdfrwt>
<pdfrwt beam="2">  1       -2 0.27296600E-02 0.33567230E+03</pdfrwt>
<totfact> 0.59868875E+03</totfact>
</mgrwt>
</event>
<event>
 4    1  0.1672993E-004  0.2724537E+03  0.7818608E-02  0.1099883E+00
          1   -1    0    0  501    0  0.00000000000E+00  0.00000000000E+00  0.44935439776E+02  0.44935439776E+02  0.00000000000E+00 0.  1.
         -1   -1    0    0    0  501 -0.00000000000E+00 -0.00000000000E+00 -0.41298715386E+03  0.41298715386E+03  0.00000000000E+00 0.  1.
         25    1    1    2    0    0  0.18443881192E+02  0.61658603071E+02 -0.19070649833E+03  0.23433081016E+03  0.12000000000E+03 0.  0.
         25    1    1    2    0    0 -0.18443881192E+02 -0.61658603071E+02 -0.17734521575E+03  0.22359178347E+03  0.12000000000E+03 0.  0.
<mgrwt>
<rscale>  0 0.27245373E+03</rscale>
<asrwt>0</asrwt>
<pdfrwt beam="1">  1        1 0.69131444E-02 0.27245373E+03</pdfrwt>
<pdfrwt beam="2">  1       -1 0.63536487E-01 0.27245373E+03</pdfrwt>
<totfact> 0.27528846E+03</totfact>
</mgrwt>
</event>
<event>
 4    1  0.1672993E-004  0.2626449E+03  0.7818608E-02  0.1105564E+00
          2   -1    0    0  501    0  0.00000000000E+00  0.00000000000E+00  0.17047765438E+03  0.17047765438E+03  0.00000000000E+00 0.  1.
         -2   -1    0    0    0  501 -0.00000000000E+00 -0.00000000000E+00 -0.10116039852E+03  0.10116039852E+03  0.00000000000E+00 0.  1.
         25    1    1    2    0    0 -0.15861494198E+01 -0.29677322636E+02 -0.11156344431E+02  0.12412785090E+03  0.12000000000E+03 0.  0.
         25    1    1    2    0    0  0.15861494198E+01  0.29677322636E+02  0.80473600296E+02  0.14751020200E+03  0.12000000000E+03 0.  0.
<mgrwt>
<rscale>  0 0.26264491E+03</rscale>
<asrwt>0</asrwt>
<pdfrwt beam="1">  1        2 0.26227332E-01 0.26264491E+03</pdfrwt>
<pdfrwt beam="2">  1       -2 0.15563138E-01 0.26264491E+03</pdfrwt>
<totfact> 0.64914987E+03</totfact>
</mgrwt>
</event>
<event>
 4    1  0.1672993E-004  0.2549808E+03  0.7818608E-02  0.1110197E+00
         -1   -1    0    0    0  501 -0.00000000000E+00  0.00000000000E+00  0.54192657381E+02  0.54192657381E+02  0.00000000000E+00 0.  1.
          1   -1    0    0  501    0  0.00000000000E+00 -0.00000000000E+00 -0.29992616936E+03  0.29992616936E+03  0.00000000000E+00 0.  1.
         25    1    1    2    0    0 -0.33018241220E+02 -0.25707599669E+02 -0.10879168733E+03  0.16729230755E+03  0.12000000000E+03 0.  0.
         25    1    1    2    0    0  0.33018241220E+02  0.25707599669E+02 -0.13694182465E+03  0.18682651919E+03  0.12000000000E+03 0.  0.
<mgrwt>
<rscale>  0 0.25498075E+03</rscale>
<asrwt>0</asrwt>
<pdfrwt beam="1">  1        1 0.46142488E-01 0.25498075E+03</pdfrwt>
<pdfrwt beam="2">  1       -1 0.83373318E-02 0.25498075E+03</pdfrwt>
<totfact> 0.70019646E+03</totfact>
</mgrwt>
</event>
<event>
 4    1  0.1672993E-004  0.2918215E+03  0.7818608E-02  0.1089402E+00
          2   -1    0    0  501    0  0.00000000000E+00  0.00000000000E+00  0.35140812222E+03  0.35140812222E+03  0.00000000000E+00 0. -1.
         -2   -1    0    0    0  501 -0.00000000000E+00 -0.00000000000E+00 -0.60584665272E+02  0.60584665272E+02  0.00000000000E+00 0. -1.
         25    1    1    2    0    0  0.34099743443E+02 -0.45605404825E+01  0.25205946897E+03  0.28127845088E+03  0.12000000000E+03 0.  0.
         25    1    1    2    0    0 -0.34099743443E+02  0.45605404825E+01  0.38763987981E+02  0.13071433661E+03  0.12000000000E+03 0.  0.
<mgrwt>
<rscale>  0 0.29182148E+03</rscale>
<asrwt>0</asrwt>
<pdfrwt beam="1">  1        2 0.54062787E-01 0.29182148E+03</pdfrwt>
<pdfrwt beam="2">  1       -2 0.93207179E-02 0.29182148E+03</pdfrwt>
<totfact> 0.68053632E+03</totfact>
</mgrwt>
</event>
<event>
 4    1  0.1672993E-004  0.2523463E+03  0.7818608E-02  0.1111831E+00
         -1   -1    0    0    0  501 -0.00000000000E+00  0.00000000000E+00  0.21740153505E+03  0.21740153505E+03  0.00000000000E+00 0. -1.
          1   -1    0    0  501    0  0.00000000000E+00 -0.00000000000E+00 -0.73227024520E+02  0.73227024520E+02  0.00000000000E+00 0. -1.
         25    1    1    2    0    0 -0.84387218677E+01 -0.11554977203E+02  0.11385047152E+03  0.16603210350E+03  0.12000000000E+03 0.  0.
         25    1    1    2    0    0  0.84387218677E+01  0.11554977203E+02  0.30324039008E+02  0.12459645608E+03  0.12000000000E+03 0.  0.
<mgrwt>
<rscale>  0 0.25234633E+03</rscale>
<asrwt>0</asrwt>
<pdfrwt beam="1">  1        1 0.11265696E-01 0.25234633E+03</pdfrwt>
<pdfrwt beam="2">  1       -1 0.33446390E-01 0.25234633E+03</pdfrwt>
<totfact> 0.45777716E+03</totfact>
</mgrwt>
</event>
<event>
 4    1  0.1672993E-004  0.3780674E+03  0.7818608E-02  0.1051650E+00
          2   -1    0    0  501    0  0.00000000000E+00  0.00000000000E+00  0.46530448227E+03  0.46530448227E+03  0.00000000000E+00 0.  1.
         -2   -1    0    0    0  501 -0.00000000000E+00 -0.00000000000E+00 -0.76796463503E+02  0.76796463503E+02  0.00000000000E+00 0.  1.
         25    1    1    2    0    0 -0.12735688718E+03  0.20955222930E+02  0.96216031550E+02  0.20078949875E+03  0.12000000000E+03 0.  0.
         25    1    1    2    0    0  0.12735688718E+03 -0.20955222930E+02  0.29229198722E+03  0.34131144703E+03  0.12000000000E+03 0.  0.
<mgrwt>
<rscale>  0 0.37806739E+03</rscale>
<asrwt>0</asrwt>
<pdfrwt beam="1">  1        2 0.71585304E-01 0.37806739E+03</pdfrwt>
<pdfrwt beam="2">  1       -2 0.11814841E-01 0.37806739E+03</pdfrwt>
<totfact> 0.34404920E+03</totfact>
</mgrwt>
</event>
<event>
 4    1  0.1672993E-004  0.3029340E+03  0.7818608E-02  0.1083783E+00
          2   -1    0    0  501    0  0.00000000000E+00  0.00000000000E+00  0.22606909866E+03  0.22606909866E+03  0.00000000000E+00 0.  1.
         -2   -1    0    0    0  501 -0.00000000000E+00 -0.00000000000E+00 -0.10148336464E+03  0.10148336464E+03  0.00000000000E+00 0.  1.
         25    1    1    2    0    0 -0.79252232643E+02  0.17032747590E+02  0.14286305350E+02  0.14551676670E+03  0.12000000000E+03 0.  0.
         25    1    1    2    0    0  0.79252232643E+02 -0.17032747590E+02  0.11029942867E+03  0.18203569659E+03  0.12000000000E+03 0.  0.
<mgrwt>
<rscale>  0 0.30293400E+03</rscale>
<asrwt>0</asrwt>
<pdfrwt beam="1">  1        2 0.34779861E-01 0.30293400E+03</pdfrwt>
<pdfrwt beam="2">  1       -2 0.15612825E-01 0.30293400E+03</pdfrwt>
<totfact> 0.47584347E+03</totfact>
</mgrwt>
</event>
<event>
 4    1  0.1672993E-004  0.3902146E+03  0.7818608E-02  0.1047222E+00
         -1   -1    0    0    0  501 -0.00000000000E+00  0.00000000000E+00  0.49335603034E+02  0.49335603034E+02  0.00000000000E+00 0. -1.
          1   -1    0    0  501    0  0.00000000000E+00 -0.00000000000E+00 -0.77158983690E+03  0.77158983690E+03  0.00000000000E+00 0. -1.
         25    1    1    2    0    0  0.12193675898E+03 -0.92456517743E+02 -0.32785884769E+03  0.38119313330E+03  0.12000000000E+03 0.  0.
         25    1    1    2    0    0 -0.12193675898E+03  0.92456517743E+02 -0.39439538618E+03  0.43973230664E+03  0.12000000000E+03 0.  0.
<mgrwt>
<rscale>  0 0.39021456E+03</rscale>
<asrwt>0</asrwt>
<pdfrwt beam="1">  1        1 0.11870613E+00 0.39021456E+03</pdfrwt>
<pdfrwt beam="2">  1       -1 0.75900926E-02 0.39021456E+03</pdfrwt>
<totfact> 0.22806830E+03</totfact>
</mgrwt>
</event>
<event>
 4    1  0.1672993E-004  0.3299668E+03  0.7818608E-02  0.1071152E+00
         -2   -1    0    0    0  501 -0.00000000000E+00  0.00000000000E+00  0.23759508145E+02  0.23759508145E+02  0.00000000000E+00 0. -1.
          2   -1    0    0  501    0  0.00000000000E+00 -0.00000000000E+00 -0.11456262753E+04  0.11456262753E+04  0.00000000000E+00 0. -1.
         25    1    1    2    0    0 -0.89218279785E+02  0.43936595116E+02 -0.75273905849E+03  0.76870437491E+03  0.12000000000E+03 0.  0.
         25    1    1    2    0    0  0.89218279785E+02 -0.43936595116E+02 -0.36912770870E+03  0.40068140856E+03  0.12000000000E+03 0.  0.
<mgrwt>
<rscale>  0 0.32996677E+03</rscale>
<asrwt>0</asrwt>
<pdfrwt beam="1">  1        2 0.17625019E+00 0.32996677E+03</pdfrwt>
<pdfrwt beam="2">  1       -2 0.36553090E-02 0.32996677E+03</pdfrwt>
<totfact> 0.67856018E+03</totfact>
</mgrwt>
</event>
<event>
 4    1  0.1672993E-004  0.2876699E+03  0.7818608E-02  0.1091572E+00
          1   -1    0    0  501    0  0.00000000000E+00  0.00000000000E+00  0.98364676842E+03  0.98364676842E+03  0.00000000000E+00 0. -1.
         -1   -1    0    0    0  501 -0.00000000000E+00 -0.00000000000E+00 -0.21032445103E+02  0.21032445103E+02  0.00000000000E+00 0. -1.
         25    1    1    2    0    0 -0.10481372386E+02 -0.30819289340E+02  0.73384958246E+03  0.74430833492E+03  0.12000000000E+03 0.  0.
         25    1    1    2    0    0  0.10481372386E+02  0.30819289340E+02  0.22876474086E+03  0.26037087860E+03  0.12000000000E+03 0.  0.
<mgrwt>
<rscale>  0 0.28766993E+03</rscale>
<asrwt>0</asrwt>
<pdfrwt beam="1">  1        1 0.15133024E+00 0.28766993E+03</pdfrwt>
<pdfrwt beam="2">  1       -1 0.32357615E-02 0.28766993E+03</pdfrwt>
<totfact> 0.55503428E+03</totfact>
</mgrwt>
</event>
<event>
 4    1  0.1672993E-004  0.2565600E+03  0.7818608E-02  0.1109228E+00
          1   -1    0    0  501    0  0.00000000000E+00  0.00000000000E+00  0.48660677279E+03  0.48660677279E+03  0.00000000000E+00 0.  1.
         -1   -1    0    0    0  501 -0.00000000000E+00 -0.00000000000E+00 -0.33817363724E+02  0.33817363724E+02  0.00000000000E+00 0.  1.
         25    1    1    2    0    0 -0.41183438237E+02  0.14828372624E+02  0.25037890183E+03  0.28107926053E+03  0.12000000000E+03 0.  0.
         25    1    1    2    0    0  0.41183438237E+02 -0.14828372624E+02  0.20241050724E+03  0.23934487598E+03  0.12000000000E+03 0.  0.
<mgrwt>
<rscale>  0 0.25656000E+03</rscale>
<asrwt>0</asrwt>
<pdfrwt beam="1">  1        1 0.74862575E-01 0.25656000E+03</pdfrwt>
<pdfrwt beam="2">  1       -1 0.52026717E-02 0.25656000E+03</pdfrwt>
<totfact> 0.76966632E+03</totfact>
</mgrwt>
</event>
<event>
 4    1  0.1672993E-004  0.2824467E+03  0.7818608E-02  0.1094360E+00
         -1   -1    0    0    0  501 -0.00000000000E+00  0.00000000000E+00  0.27215447487E+02  0.27215447487E+02  0.00000000000E+00 0. -1.
          1   -1    0    0  501    0  0.00000000000E+00 -0.00000000000E+00 -0.73282013859E+03  0.73282013859E+03  0.00000000000E+00 0. -1.
         25    1    1    2    0    0 -0.23837905361E+01 -0.66931310396E+02 -0.44035154993E+03  0.46129705212E+03  0.12000000000E+03 0.  0.
         25    1    1    2    0    0  0.23837905361E+01  0.66931310396E+02 -0.26525314118E+03  0.29873853396E+03  0.12000000000E+03 0.  0.
<mgrwt>
<rscale>  0 0.28244665E+03</rscale>
<asrwt>0</asrwt>
<pdfrwt beam="1">  1        1 0.11274155E+00 0.28244665E+03</pdfrwt>
<pdfrwt beam="2">  1       -1 0.41869924E-02 0.28244665E+03</pdfrwt>
<totfact> 0.60403696E+03</totfact>
</mgrwt>
</event>
<event>
 4    1  0.1672993E-004  0.2816077E+03  0.7818608E-02  0.1094814E+00
          2   -1    0    0  501    0  0.00000000000E+00  0.00000000000E+00  0.21349287026E+03  0.21349287026E+03  0.00000000000E+00 0. -1.
         -2   -1    0    0    0  501 -0.00000000000E+00 -0.00000000000E+00 -0.92863606817E+02  0.92863606817E+02  0.00000000000E+00 0. -1.
         25    1    1    2    0    0 -0.29966127864E+02 -0.59285018907E+02  0.94940046085E+02  0.16681215374E+03  0.12000000000E+03 0.  0.
         25    1    1    2    0    0  0.29966127864E+02  0.59285018907E+02  0.25689217357E+02  0.13954432333E+03  0.12000000000E+03 0.  0.
<mgrwt>
<rscale>  0 0.28160766E+03</rscale>
<asrwt>0</asrwt>
<pdfrwt beam="1">  1        2 0.32845057E-01 0.28160766E+03</pdfrwt>
<pdfrwt beam="2">  1       -2 0.14286709E-01 0.28160766E+03</pdfrwt>
<totfact> 0.58526659E+03</totfact>
</mgrwt>
</event>
<event>
 4    1  0.1672993E-004  0.2866726E+03  0.7818608E-02  0.1092099E+00
          1   -1    0    0  501    0  0.00000000000E+00  0.00000000000E+00  0.61383574616E+02  0.61383574616E+02  0.00000000000E+00 0.  1.
         -1   -1    0    0    0  501 -0.00000000000E+00 -0.00000000000E+00 -0.33470335379E+03  0.33470335379E+03  0.00000000000E+00 0.  1.
         25    1    1    2    0    0 -0.55005229091E+02 -0.55818120743E+02 -0.13944060542E+03  0.19996229712E+03  0.12000000000E+03 0.  0.
         25    1    1    2    0    0  0.55005229091E+02  0.55818120743E+02 -0.13387917375E+03  0.19612463128E+03  0.12000000000E+03 0.  0.
<mgrwt>
<rscale>  0 0.28667255E+03</rscale>
<asrwt>0</asrwt>
<pdfrwt beam="1">  1        1 0.94436268E-02 0.28667255E+03</pdfrwt>
<pdfrwt beam="2">  1       -1 0.51492824E-01 0.28667255E+03</pdfrwt>
<totfact> 0.26913654E+03</totfact>
</mgrwt>
</event>
<event>
 4    1  0.1672993E-004  0.2481032E+03  0.7818608E-02  0.1114509E+00
          2   -1    0    0  501    0  0.00000000000E+00  0.00000000000E+00  0.36354044110E+03  0.36354044110E+03  0.00000000000E+00 0.  1.
         -2   -1    0    0    0  501 -0.00000000000E+00 -0.00000000000E+00 -0.42330366501E+02  0.42330366501E+02  0.00000000000E+00 0.  1.
         25    1    1    2    0    0  0.29058175004E+02  0.19347679275E+01  0.14120196685E+03  0.18757962657E+03  0.12000000000E+03 0.  0.
         25    1    1    2    0    0 -0.29058175004E+02 -0.19347679275E+01  0.18000810775E+03  0.21829118103E+03  0.12000000000E+03 0.  0.
<mgrwt>
<rscale>  0 0.24810321E+03</rscale>
<asrwt>0</asrwt>
<pdfrwt beam="1">  1        2 0.55929296E-01 0.24810321E+03</pdfrwt>
<pdfrwt beam="2">  1       -2 0.65123643E-02 0.24810321E+03</pdfrwt>
<totfact> 0.11400753E+04</totfact>
</mgrwt>
</event>
<event>
 4    1  0.1672993E-004  0.3980913E+03  0.7818608E-02  0.1044443E+00
         -2   -1    0    0    0  501 -0.00000000000E+00  0.00000000000E+00  0.54900628110E+03  0.54900628110E+03  0.00000000000E+00 0.  1.
          2   -1    0    0  501    0  0.00000000000E+00 -0.00000000000E+00 -0.72165240337E+02  0.72165240337E+02  0.00000000000E+00 0.  1.
         25    1    1    2    0    0 -0.84373098531E+02  0.10560004652E+03  0.36849419343E+03  0.41043654829E+03  0.12000000000E+03 0.  0.
         25    1    1    2    0    0  0.84373098531E+02 -0.10560004652E+03  0.10834684733E+03  0.21073497315E+03  0.12000000000E+03 0.  0.
<mgrwt>
<rscale>  0 0.39809130E+03</rscale>
<asrwt>0</asrwt>
<pdfrwt beam="1">  1        2 0.11102345E-01 0.39809130E+03</pdfrwt>
<pdfrwt beam="2">  1       -2 0.84462502E-01 0.39809130E+03</pdfrwt>
<totfact> 0.71431014E+02</totfact>
</mgrwt>
</event>
<event>
 4    1  0.1672993E-004  0.3303867E+03  0.7818608E-02  0.1070966E+00
         -1   -1    0    0    0  501 -0.00000000000E+00  0.00000000000E+00  0.12379751332E+02  0.12379751332E+02  0.00000000000E+00 0.  1.
          1   -1    0    0  501    0  0.00000000000E+00 -0.00000000000E+00 -0.22043132566E+04  0.22043132566E+04  0.00000000000E+00 0.  1.
         25    1    1    2    0    0  0.56810300958E+02 -0.98247356584E+02 -0.10759545416E+04  0.10885578207E+04  0.12000000000E+03 0.  0.
         25    1    1    2    0    0 -0.56810300958E+02  0.98247356584E+02 -0.11159789636E+04  0.11281351872E+04  0.12000000000E+03 0.  0.
<mgrwt>
<rscale>  0 0.33038674E+03</rscale>
<asrwt>0</asrwt>
<pdfrwt beam="1">  1        1 0.33912493E+00 0.33038674E+03</pdfrwt>
<pdfrwt beam="2">  1       -1 0.19045782E-02 0.33038674E+03</pdfrwt>
<totfact> 0.18226086E+03</totfact>
</mgrwt>
</event>
<event>
 4    1  0.1672993E-004  0.2513917E+03  0.7818608E-02  0.1112428E+00
         -2   -1    0    0    0  501 -0.00000000000E+00  0.00000000000E+00  0.14399405579E+02  0.14399405579E+02  0.00000000000E+00 0.  1.
          2   -1    0    0  501    0  0.00000000000E+00 -0.00000000000E+00 -0.10972291668E+04  0.10972291668E+04  0.00000000000E+00 0.  1.
         25    1    1    2    0    0  0.22260635437E+02  0.67742527143E+01 -0.67094113607E+03  0.68198492246E+03  0.12000000000E+03 0.  0.
         25    1    1    2    0    0 -0.22260635437E+02 -0.67742527143E+01 -0.41188862519E+03  0.42964364996E+03  0.12000000000E+03 0.  0.
<mgrwt>
<rscale>  0 0.25139171E+03</rscale>
<asrwt>0</asrwt>
<pdfrwt beam="1">  1        2 0.16880451E+00 0.25139171E+03</pdfrwt>
<pdfrwt beam="2">  1       -2 0.22152928E-02 0.25139171E+03</pdfrwt>
<totfact> 0.15152721E+04</totfact>
</mgrwt>
</event>
<event>
 4    1  0.1672993E-004  0.3272616E+03  0.7818608E-02  0.1072355E+00
          1   -1    0    0  501    0  0.00000000000E+00  0.00000000000E+00  0.63844053103E+03  0.63844053103E+03  0.00000000000E+00 0. -1.
         -1   -1    0    0    0  501 -0.00000000000E+00 -0.00000000000E+00 -0.41938178467E+02  0.41938178467E+02  0.00000000000E+00 0. -1.
         25    1    1    2    0    0 -0.68315720080E+02 -0.85119955558E+02  0.34296616468E+03  0.37939192738E+03  0.12000000000E+03 0.  0.
         25    1    1    2    0    0  0.68315720080E+02  0.85119955558E+02  0.25353618788E+03  0.30098678212E+03  0.12000000000E+03 0.  0.
<mgrwt>
<rscale>  0 0.32726156E+03</rscale>
<asrwt>0</asrwt>
<pdfrwt beam="1">  1        1 0.98221613E-01 0.32726156E+03</pdfrwt>
<pdfrwt beam="2">  1       -1 0.64520279E-02 0.32726156E+03</pdfrwt>
<totfact> 0.38617580E+03</totfact>
</mgrwt>
</event>
<event>
 4    1  0.1672993E-004  0.2971620E+03  0.7818608E-02  0.1086668E+00
          1   -1    0    0  501    0  0.00000000000E+00  0.00000000000E+00  0.11668519495E+04  0.11668519495E+04  0.00000000000E+00 0.  1.
         -1   -1    0    0    0  501 -0.00000000000E+00 -0.00000000000E+00 -0.18919548240E+02  0.18919548240E+02  0.00000000000E+00 0.  1.
         25    1    1    2    0    0  0.21301089193E+02  0.65805900038E+02  0.78856081817E+03  0.80063244802E+03  0.12000000000E+03 0.  0.
         25    1    1    2    0    0 -0.21301089193E+02 -0.65805900038E+02  0.35937158308E+03  0.38513904970E+03  0.12000000000E+03 0.  0.
<mgrwt>
<rscale>  0 0.29716199E+03</rscale>
<asrwt>0</asrwt>
<pdfrwt beam="1">  1        1 0.17951563E+00 0.29716199E+03</pdfrwt>
<pdfrwt beam="2">  1       -1 0.29107006E-02 0.29716199E+03</pdfrwt>
<totfact> 0.47736679E+03</totfact>
</mgrwt>
</event>
<event>
 4    1  0.1672993E-004  0.2727512E+03  0.7818608E-02  0.1099715E+00
          2   -1    0    0  501    0  0.00000000000E+00  0.00000000000E+00  0.24852701312E+03  0.24852701312E+03  0.00000000000E+00 0. -1.
         -2   -1    0    0    0  501 -0.00000000000E+00 -0.00000000000E+00 -0.74834160298E+02  0.74834160298E+02  0.00000000000E+00 0. -1.
         25    1    1    2    0    0  0.22623289561E+02  0.53828652668E+02  0.53545809939E+02  0.14379322251E+03  0.12000000000E+03 0.  0.
         25    1    1    2    0    0 -0.22623289561E+02 -0.53828652668E+02  0.12014704288E+03  0.17956795090E+03  0.12000000000E+03 0.  0.
<mgrwt>
<rscale>  0 0.27275124E+03</rscale>
<asrwt>0</asrwt>
<pdfrwt beam="1">  1        2 0.38234925E-01 0.27275124E+03</pdfrwt>
<pdfrwt beam="2">  1       -2 0.11512948E-01 0.27275124E+03</pdfrwt>
<totfact> 0.70409066E+03</totfact>
</mgrwt>
</event>
<event>
 4    1  0.1672993E-004  0.2510510E+03  0.7818608E-02  0.1112642E+00
         -2   -1    0    0    0  501 -0.00000000000E+00  0.00000000000E+00  0.24997965688E+02  0.24997965688E+02  0.00000000000E+00 0. -1.
          2   -1    0    0  501    0  0.00000000000E+00 -0.00000000000E+00 -0.63031727928E+03  0.63031727928E+03  0.00000000000E+00 0. -1.
         25    1    1    2    0    0  0.14162015173E+02 -0.98562862392E+01 -0.38760198276E+03  0.40611944806E+03  0.12000000000E+03 0.  0.
         25    1    1    2    0    0 -0.14162015173E+02  0.98562862392E+01 -0.21771733083E+03  0.24919579690E+03  0.12000000000E+03 0.  0.
<mgrwt>
<rscale>  0 0.25105099E+03</rscale>
<asrwt>0</asrwt>
<pdfrwt beam="1">  1        2 0.96971885E-01 0.25105099E+03</pdfrwt>
<pdfrwt beam="2">  1       -2 0.38458410E-02 0.25105099E+03</pdfrwt>
<totfact> 0.13745492E+04</totfact>
</mgrwt>
</event>
<event>
 4    1  0.1672993E-004  0.2486810E+03  0.7818608E-02  0.1114141E+00
          2   -1    0    0  501    0  0.00000000000E+00  0.00000000000E+00  0.58826908375E+03  0.58826908375E+03  0.00000000000E+00 0.  1.
         -2   -1    0    0    0  501 -0.00000000000E+00 -0.00000000000E+00 -0.26281440554E+02  0.26281440554E+02  0.00000000000E+00 0.  1.
         25    1    1    2    0    0  0.11298155375E+02  0.18059167322E+02  0.34186750744E+03  0.36294238452E+03  0.12000000000E+03 0.  0.
         25    1    1    2    0    0 -0.11298155375E+02 -0.18059167322E+02  0.22012013575E+03  0.25160813978E+03  0.12000000000E+03 0.  0.
<mgrwt>
<rscale>  0 0.24868099E+03</rscale>
<asrwt>0</asrwt>
<pdfrwt beam="1">  1        2 0.90502926E-01 0.24868099E+03</pdfrwt>
<pdfrwt beam="2">  1       -2 0.40432990E-02 0.24868099E+03</pdfrwt>
<totfact> 0.13810235E+04</totfact>
</mgrwt>
</event>
<event>
 4    1  0.1672993E-004  0.2534696E+03  0.7818608E-02  0.1111132E+00
          1   -1    0    0  501    0  0.00000000000E+00  0.00000000000E+00  0.74091074735E+03  0.74091074735E+03  0.00000000000E+00 0. -1.
         -1   -1    0    0    0  501 -0.00000000000E+00 -0.00000000000E+00 -0.21678333528E+02  0.21678333528E+02  0.00000000000E+00 0. -1.
         25    1    1    2    0    0 -0.25878900788E+02 -0.29415811003E+02  0.39348173793E+03  0.41323466157E+03  0.12000000000E+03 0.  0.
         25    1    1    2    0    0  0.25878900788E+02  0.29415811003E+02  0.32575067590E+03  0.34935441931E+03  0.12000000000E+03 0.  0.
<mgrwt>
<rscale>  0 0.25346961E+03</rscale>
<asrwt>0</asrwt>
<pdfrwt beam="1">  1        1 0.11398625E+00 0.25346961E+03</pdfrwt>
<pdfrwt beam="2">  1       -1 0.33351288E-02 0.25346961E+03</pdfrwt>
<totfact> 0.83016375E+03</totfact>
</mgrwt>
</event>
<event>
 4    1  0.1672993E-004  0.2583463E+03  0.7818608E-02  0.1108141E+00
         -1   -1    0    0    0  501 -0.00000000000E+00  0.00000000000E+00  0.35872636326E+02  0.35872636326E+02  0.00000000000E+00 0. -1.
          1   -1    0    0  501    0  0.00000000000E+00 -0.00000000000E+00 -0.46513735607E+03  0.46513735607E+03  0.00000000000E+00 0. -1.
         25    1    1    2    0    0  0.20322997408E+02  0.20138966777E+00 -0.29855344699E+03  0.32240847615E+03  0.12000000000E+03 0.  0.
         25    1    1    2    0    0 -0.20322997408E+02 -0.20138966777E+00 -0.13071127275E+03  0.17860151625E+03  0.12000000000E+03 0.  0.
<mgrwt>
<rscale>  0 0.25834630E+03</rscale>
<asrwt>0</asrwt>
<pdfrwt beam="1">  1        1 0.71559589E-01 0.25834630E+03</pdfrwt>
<pdfrwt beam="2">  1       -1 0.55188675E-02 0.25834630E+03</pdfrwt>
<totfact> 0.74769785E+03</totfact>
</mgrwt>
</event>
<event>
 4    1  0.1672993E-004  0.3302337E+03  0.7818608E-02  0.1071034E+00
          2   -1    0    0  501    0  0.00000000000E+00  0.00000000000E+00  0.91030071234E+02  0.91030071234E+02  0.00000000000E+00 0. -1.
         -2   -1    0    0    0  501 -0.00000000000E+00 -0.00000000000E+00 -0.29950069413E+03  0.29950069413E+03  0.00000000000E+00 0. -1.
         25    1    1    2    0    0  0.19693011140E+02  0.58650601076E+02 -0.21664886833E+03  0.25527326504E+03  0.12000000000E+03 0.  0.
         25    1    1    2    0    0 -0.19693011140E+02 -0.58650601076E+02  0.81782454409E+01  0.13525750032E+03  0.12000000000E+03 0.  0.
<mgrwt>
<rscale>  0 0.33023367E+03</rscale>
<asrwt>0</asrwt>
<pdfrwt beam="1">  1        2 0.14004626E-01 0.33023367E+03</pdfrwt>
<pdfrwt beam="2">  1       -2 0.46077030E-01 0.33023367E+03</pdfrwt>
<totfact> 0.19203269E+03</totfact>
</mgrwt>
</event>
<event>
 4    1  0.1672993E-004  0.2939439E+03  0.7818608E-02  0.1088308E+00
          1   -1    0    0  501    0  0.00000000000E+00  0.00000000000E+00  0.72543280453E+02  0.72543280453E+02  0.00000000000E+00 0. -1.
         -1   -1    0    0    0  501 -0.00000000000E+00 -0.00000000000E+00 -0.29776366162E+03  0.29776366162E+03  0.00000000000E+00 0. -1.
         25    1    1    2    0    0  0.77345033765E+02  0.26571820460E+02 -0.84092285320E+02  0.16780890424E+03  0.12000000000E+03 0.  0.
         25    1    1    2    0    0 -0.77345033765E+02 -0.26571820460E+02 -0.14112809585E+03  0.20249803784E+03  0.12000000000E+03 0.  0.
<mgrwt>
<rscale>  0 0.29394389E+03</rscale>
<asrwt>0</asrwt>
<pdfrwt beam="1">  1        1 0.11160504E-01 0.29394389E+03</pdfrwt>
<pdfrwt beam="2">  1       -1 0.45809795E-01 0.29394389E+03</pdfrwt>
<totfact> 0.26680181E+03</totfact>
</mgrwt>
</event>
<event>
 4    1  0.1672993E-004  0.2701615E+03  0.7818608E-02  0.1101187E+00
         -1   -1    0    0    0  501 -0.00000000000E+00  0.00000000000E+00  0.36584596154E+02  0.36584596154E+02  0.00000000000E+00 0. -1.
          1   -1    0    0  501    0  0.00000000000E+00 -0.00000000000E+00 -0.49875647396E+03  0.49875647396E+03  0.00000000000E+00 0. -1.
         25    1    1    2    0    0 -0.15860984254E+02 -0.59685965518E+02 -0.21973402666E+03  0.25787017620E+03  0.12000000000E+03 0.  0.
         25    1    1    2    0    0  0.15860984254E+02  0.59685965518E+02 -0.24243785115E+03  0.27747089392E+03  0.12000000000E+03 0.  0.
<mgrwt>
<rscale>  0 0.27016146E+03</rscale>
<asrwt>0</asrwt>
<pdfrwt beam="1">  1        1 0.76731759E-01 0.27016146E+03</pdfrwt>
<pdfrwt beam="2">  1       -1 0.56283998E-02 0.27016146E+03</pdfrwt>
<totfact> 0.66317681E+03</totfact>
</mgrwt>
</event>
<event>
 4    1  0.1672993E-004  0.2840326E+03  0.7818608E-02  0.1093507E+00
          2   -1    0    0  501    0  0.00000000000E+00  0.00000000000E+00  0.45595127977E+03  0.45595127977E+03  0.00000000000E+00 0.  1.
         -2   -1    0    0    0  501 -0.00000000000E+00 -0.00000000000E+00 -0.44234164936E+02  0.44234164936E+02  0.00000000000E+00 0.  1.
         25    1    1    2    0    0  0.50130228931E+02 -0.89241905496E+01  0.30510141787E+03  0.33178239286E+03  0.12000000000E+03 0.  0.
         25    1    1    2    0    0 -0.50130228931E+02  0.89241905496E+01  0.10661569697E+03  0.16840305184E+03  0.12000000000E+03 0.  0.
<mgrwt>
<rscale>  0 0.28403256E+03</rscale>
<asrwt>0</asrwt>
<pdfrwt beam="1">  1        2 0.70146347E-01 0.28403256E+03</pdfrwt>
<pdfrwt beam="2">  1       -2 0.68052565E-02 0.28403256E+03</pdfrwt>
<totfact> 0.83712601E+03</totfact>
</mgrwt>
</event>
<event>
 4    1  0.1672993E-004  0.2489522E+03  0.7818608E-02  0.1113969E+00
         -1   -1    0    0    0  501 -0.00000000000E+00  0.00000000000E+00  0.11138601884E+02  0.11138601884E+02  0.00000000000E+00 0.  1.
          1   -1    0    0  501    0  0.00000000000E+00 -0.00000000000E+00 -0.13910455401E+04  0.13910455401E+04  0.00000000000E+00 0.  1.
         25    1    1    2    0    0 -0.10248887334E+02  0.24772091441E+02 -0.58079549775E+03  0.59366834716E+03  0.12000000000E+03 0.  0.
         25    1    1    2    0    0  0.10248887334E+02 -0.24772091441E+02 -0.79911144046E+03  0.80851579482E+03  0.12000000000E+03 0.  0.
<mgrwt>
<rscale>  0 0.24895222E+03</rscale>
<asrwt>0</asrwt>
<pdfrwt beam="1">  1        1 0.21400686E+00 0.24895222E+03</pdfrwt>
<pdfrwt beam="2">  1       -1 0.17136323E-02 0.24895222E+03</pdfrwt>
<totfact> 0.72570169E+03</totfact>
</mgrwt>
</event>
<event>
 4    1  0.1672993E-004  0.7400349E+03  0.7818608E-02  0.9651115E-01
         -1   -1    0    0    0  501 -0.00000000000E+00  0.00000000000E+00  0.10483583318E+03  0.10483583318E+03  0.00000000000E+00 0.  1.
          1   -1    0    0  501    0  0.00000000000E+00 -0.00000000000E+00 -0.13059742662E+04  0.13059742662E+04  0.00000000000E+00 0.  1.
         25    1    1    2    0    0 -0.71027767156E+02  0.22172398451E+03 -0.10988190669E+04  0.11296060423E+04  0.12000000000E+03 0.  0.
         25    1    1    2    0    0  0.71027767156E+02 -0.22172398451E+03 -0.10231936605E+03  0.28120405701E+03  0.12000000000E+03 0.  0.
<mgrwt>
<rscale>  0 0.74003486E+03</rscale>
<asrwt>0</asrwt>
<pdfrwt beam="1">  1        1 0.20091910E+00 0.74003486E+03</pdfrwt>
<pdfrwt beam="2">  1       -1 0.16128591E-01 0.74003486E+03</pdfrwt>
<totfact> 0.26572434E+02</totfact>
</mgrwt>
</event>
<event>
 4    1  0.1672993E-004  0.2678247E+03  0.7818608E-02  0.1102531E+00
          1   -1    0    0  501    0  0.00000000000E+00  0.00000000000E+00  0.33942062065E+03  0.33942062065E+03  0.00000000000E+00 0.  1.
         -1   -1    0    0    0  501 -0.00000000000E+00 -0.00000000000E+00 -0.52832711267E+02  0.52832711267E+02  0.00000000000E+00 0.  1.
         25    1    1    2    0    0 -0.38791716431E+02 -0.33938713200E+02  0.99949062564E+02  0.16445804518E+03  0.12000000000E+03 0.  0.
         25    1    1    2    0    0  0.38791716431E+02  0.33938713200E+02  0.18663884682E+03  0.22779528674E+03  0.12000000000E+03 0.  0.
<mgrwt>
<rscale>  0 0.26782466E+03</rscale>
<asrwt>0</asrwt>
<pdfrwt beam="1">  1        1 0.52218556E-01 0.26782466E+03</pdfrwt>
<pdfrwt beam="2">  1       -1 0.81281096E-02 0.26782466E+03</pdfrwt>
<totfact> 0.62402760E+03</totfact>
</mgrwt>
</event>
<event>
 4    1  0.1672993E-004  0.2944372E+03  0.7818608E-02  0.1088055E+00
         -2   -1    0    0    0  501 -0.00000000000E+00  0.00000000000E+00  0.88273060911E+02  0.88273060911E+02  0.00000000000E+00 0. -1.
          2   -1    0    0  501    0  0.00000000000E+00 -0.00000000000E+00 -0.24552580353E+03  0.24552580353E+03  0.00000000000E+00 0. -1.
         25    1    1    2    0    0  0.82760137519E+02 -0.19732037955E+02 -0.85306507965E+02  0.17004644655E+03  0.12000000000E+03 0.  0.
         25    1    1    2    0    0 -0.82760137519E+02  0.19732037955E+02 -0.71946234656E+02  0.16375241789E+03  0.12000000000E+03 0.  0.
<mgrwt>
<rscale>  0 0.29443719E+03</rscale>
<asrwt>0</asrwt>
<pdfrwt beam="1">  1        2 0.37773200E-01 0.29443719E+03</pdfrwt>
<pdfrwt beam="2">  1       -2 0.13580471E-01 0.29443719E+03</pdfrwt>
<totfact> 0.54712001E+03</totfact>
</mgrwt>
</event>
<event>
 4    1  0.1672993E-004  0.2985078E+03  0.7818608E-02  0.1085989E+00
         -2   -1    0    0    0  501 -0.00000000000E+00  0.00000000000E+00  0.96002193058E+01  0.96002193058E+01  0.00000000000E+00 0. -1.
          2   -1    0    0  501    0  0.00000000000E+00 -0.00000000000E+00 -0.23204397153E+04  0.23204397153E+04  0.00000000000E+00 0. -1.
         25    1    1    2    0    0  0.76897860624E+02 -0.44125157486E+02 -0.11237904363E+04  0.11336512935E+04  0.12000000000E+03 0.  0.
         25    1    1    2    0    0 -0.76897860624E+02  0.44125157486E+02 -0.11870490597E+04  0.11963886411E+04  0.12000000000E+03 0.  0.
<mgrwt>
<rscale>  0 0.29850782E+03</rscale>
<asrwt>0</asrwt>
<pdfrwt beam="1">  1        2 0.35699167E+00 0.29850782E+03</pdfrwt>
<pdfrwt beam="2">  1       -2 0.14769529E-02 0.29850782E+03</pdfrwt>
<totfact> 0.60577868E+03</totfact>
</mgrwt>
</event>
<event>
 4    1  0.1672993E-004  0.2706414E+03  0.7818608E-02  0.1100913E+00
          2   -1    0    0  501    0  0.00000000000E+00  0.00000000000E+00  0.13986992847E+04  0.13986992847E+04  0.00000000000E+00 0. -1.
         -2   -1    0    0    0  501 -0.00000000000E+00 -0.00000000000E+00 -0.13091944001E+02  0.13091944001E+02  0.00000000000E+00 0. -1.
         25    1    1    2    0    0  0.23186494300E+02  0.58351959482E+01  0.99427873762E+03  0.10017793525E+04  0.12000000000E+03 0.  0.
         25    1    1    2    0    0 -0.23186494300E+02 -0.58351959482E+01  0.39132860304E+03  0.41001187615E+03  0.12000000000E+03 0.  0.
<mgrwt>
<rscale>  0 0.27064141E+03</rscale>
<asrwt>0</asrwt>
<pdfrwt beam="1">  1        2 0.21518439E+00 0.27064141E+03</pdfrwt>
<pdfrwt beam="2">  1       -2 0.20141463E-02 0.27064141E+03</pdfrwt>
<totfact> 0.11833530E+04</totfact>
</mgrwt>
</event>
<event>
 4    1  0.1672993E-004  0.2523133E+03  0.7818608E-02  0.1111852E+00
          2   -1    0    0  501    0  0.00000000000E+00  0.00000000000E+00  0.29572169203E+03  0.29572169203E+03  0.00000000000E+00 0. -1.
         -2   -1    0    0    0  501 -0.00000000000E+00 -0.00000000000E+00 -0.53819165525E+02  0.53819165525E+02  0.00000000000E+00 0. -1.
         25    1    1    2    0    0  0.11509582226E+02 -0.30689155611E+01  0.69607350113E+02  0.13923746592E+03  0.12000000000E+03 0.  0.
         25    1    1    2    0    0 -0.11509582226E+02  0.30689155611E+01  0.17229517640E+03  0.21030339164E+03  0.12000000000E+03 0.  0.
<mgrwt>
<rscale>  0 0.25231326E+03</rscale>
<asrwt>0</asrwt>
<pdfrwt beam="1">  1        2 0.45495644E-01 0.25231326E+03</pdfrwt>
<pdfrwt beam="2">  1       -2 0.82798718E-02 0.25231326E+03</pdfrwt>
<totfact> 0.98158717E+03</totfact>
</mgrwt>
</event>
<event>
 4    1  0.1672993E-004  0.2522634E+03  0.7818608E-02  0.1111883E+00
          2   -1    0    0  501    0  0.00000000000E+00  0.00000000000E+00  0.79075637813E+02  0.79075637813E+02  0.00000000000E+00 0. -1.
         -2   -1    0    0    0  501 -0.00000000000E+00 -0.00000000000E+00 -0.20118978497E+03  0.20118978497E+03  0.00000000000E+00 0. -1.
         25    1    1    2    0    0 -0.24272130750E+02  0.29098764761E+02 -0.70571315568E+02  0.14427815158E+03  0.12000000000E+03 0.  0.
         25    1    1    2    0    0  0.24272130750E+02 -0.29098764761E+02 -0.51542831590E+02  0.13598727121E+03  0.12000000000E+03 0.  0.
<mgrwt>
<rscale>  0 0.25226344E+03</rscale>
<asrwt>0</asrwt>
<pdfrwt beam="1">  1        2 0.12165483E-01 0.25226344E+03</pdfrwt>
<pdfrwt beam="2">  1       -2 0.30952274E-01 0.25226344E+03</pdfrwt>
<totfact> 0.47989659E+03</totfact>
</mgrwt>
</event>
<event>
 4    1  0.1672993E-004  0.2786130E+03  0.7818608E-02  0.1096449E+00
          2   -1    0    0  501    0  0.00000000000E+00  0.00000000000E+00  0.63083694587E+03  0.63083694587E+03  0.00000000000E+00 0. -1.
         -2   -1    0    0    0  501 -0.00000000000E+00 -0.00000000000E+00 -0.30762788142E+02  0.30762788142E+02  0.00000000000E+00 0. -1.
         25    1    1    2    0    0  0.60706690059E+02 -0.36337597705E+02  0.29822847788E+03  0.32915945717E+03  0.12000000000E+03 0.  0.
         25    1    1    2    0    0 -0.60706690059E+02  0.36337597705E+02  0.30184567985E+03  0.33244027685E+03  0.12000000000E+03 0.  0.
<mgrwt>
<rscale>  0 0.27861302E+03</rscale>
<asrwt>0</asrwt>
<pdfrwt beam="1">  1        2 0.97051828E-01 0.27861302E+03</pdfrwt>
<pdfrwt beam="2">  1       -2 0.47327371E-02 0.27861302E+03</pdfrwt>
<totfact> 0.10086454E+04</totfact>
</mgrwt>
</event>
<event>
 4    1  0.1672993E-004  0.3219968E+03  0.7818608E-02  0.1074734E+00
          2   -1    0    0  501    0  0.00000000000E+00  0.00000000000E+00  0.24243975826E+04  0.24243975826E+04  0.00000000000E+00 0. -1.
         -2   -1    0    0    0  501 -0.00000000000E+00 -0.00000000000E+00 -0.10691516636E+02  0.10691516636E+02  0.00000000000E+00 0. -1.
         25    1    1    2    0    0  0.37925612937E+02  0.89768743865E+02  0.15470552681E+04  0.15547593968E+04  0.12000000000E+03 0.  0.
         25    1    1    2    0    0 -0.37925612937E+02 -0.89768743865E+02  0.86665079792E+03  0.88032970245E+03  0.12000000000E+03 0.  0.
<mgrwt>
<rscale>  0 0.32199681E+03</rscale>
<asrwt>0</asrwt>
<pdfrwt beam="1">  1        2 0.37298381E+00 0.32199681E+03</pdfrwt>
<pdfrwt beam="2">  1       -2 0.16448506E-02 0.32199681E+03</pdfrwt>
<totfact> 0.45385245E+03</totfact>
</mgrwt>
</event>
<event>
 4    1  0.1672993E-004  0.2785070E+03  0.7818608E-02  0.1096507E+00
         -2   -1    0    0    0  501 -0.00000000000E+00  0.00000000000E+00  0.97408076937E+01  0.97408076937E+01  0.00000000000E+00 0.  1.
          2   -1    0    0  501    0  0.00000000000E+00 -0.00000000000E+00 -0.19907529010E+04  0.19907529010E+04  0.00000000000E+00 0.  1.
         25    1    1    2    0    0  0.50416380835E+02 -0.46099452429E+02 -0.11199123272E+04  0.11283929243E+04  0.12000000000E+03 0.  0.
         25    1    1    2    0    0 -0.50416380835E+02  0.46099452429E+02 -0.86109976608E+03  0.87210078438E+03  0.12000000000E+03 0.  0.
<mgrwt>
<rscale>  0 0.27850703E+03</rscale>
<asrwt>0</asrwt>
<pdfrwt beam="1">  1        2 0.30626973E+00 0.27850703E+03</pdfrwt>
<pdfrwt beam="2">  1       -2 0.14985856E-02 0.27850703E+03</pdfrwt>
<totfact> 0.88775978E+03</totfact>
</mgrwt>
</event>
<event>
 4    1  0.1672993E-004  0.2684221E+03  0.7818608E-02  0.1102186E+00
          2   -1    0    0  501    0  0.00000000000E+00  0.00000000000E+00  0.65163169177E+03  0.65163169177E+03  0.00000000000E+00 0.  1.
         -2   -1    0    0    0  501 -0.00000000000E+00 -0.00000000000E+00 -0.27642312516E+02  0.27642312516E+02  0.00000000000E+00 0.  1.
         25    1    1    2    0    0  0.52050161490E+01 -0.57852290867E+02  0.27290280472E+03  0.30372672022E+03  0.12000000000E+03 0.  0.
         25    1    1    2    0    0 -0.52050161490E+01  0.57852290867E+02  0.35108657453E+03  0.37554728407E+03  0.12000000000E+03 0.  0.
<mgrwt>
<rscale>  0 0.26842211E+03</rscale>
<asrwt>0</asrwt>
<pdfrwt beam="1">  1        2 0.10025102E+00 0.26842211E+03</pdfrwt>
<pdfrwt beam="2">  1       -2 0.42526639E-02 0.26842211E+03</pdfrwt>
<totfact> 0.11394779E+04</totfact>
</mgrwt>
</event>
<event>
 4    1  0.1672993E-004  0.3349029E+03  0.7818608E-02  0.1068988E+00
         -1   -1    0    0    0  501 -0.00000000000E+00  0.00000000000E+00  0.13928201625E+02  0.13928201625E+02  0.00000000000E+00 0.  1.
          1   -1    0    0  501    0  0.00000000000E+00 -0.00000000000E+00 -0.20131808055E+04  0.20131808055E+04  0.00000000000E+00 0.  1.
         25    1    1    2    0    0  0.10431668975E+03 -0.51995575276E+02 -0.10443011443E+04  0.10576154270E+04  0.12000000000E+03 0.  0.
         25    1    1    2    0    0 -0.10431668975E+03  0.51995575276E+02 -0.95495145959E+03  0.96949358007E+03  0.12000000000E+03 0.  0.
<mgrwt>
<rscale>  0 0.33490290E+03</rscale>
<asrwt>0</asrwt>
<pdfrwt beam="1">  1        1 0.30972024E+00 0.33490290E+03</pdfrwt>
<pdfrwt beam="2">  1       -1 0.21427994E-02 0.33490290E+03</pdfrwt>
<totfact> 0.20437649E+03</totfact>
</mgrwt>
</event>
<event>
 4    1  0.1672993E-004  0.2986839E+03  0.7818608E-02  0.1085900E+00
         -2   -1    0    0    0  501 -0.00000000000E+00  0.00000000000E+00  0.34196524841E+03  0.34196524841E+03  0.00000000000E+00 0. -1.
          2   -1    0    0  501    0  0.00000000000E+00 -0.00000000000E+00 -0.65220124697E+02  0.65220124697E+02  0.00000000000E+00 0. -1.
         25    1    1    2    0    0 -0.71508364940E+02  0.24331546554E+02  0.20227969483E+03  0.24702741822E+03  0.12000000000E+03 0.  0.
         25    1    1    2    0    0  0.71508364940E+02 -0.24331546554E+02  0.74465428889E+02  0.16015795489E+03  0.12000000000E+03 0.  0.
<mgrwt>
<rscale>  0 0.29868389E+03</rscale>
<asrwt>0</asrwt>
<pdfrwt beam="1">  1        2 0.10033866E-01 0.29868389E+03</pdfrwt>
<pdfrwt beam="2">  1       -2 0.52610037E-01 0.29868389E+03</pdfrwt>
<totfact> 0.22121824E+03</totfact>
</mgrwt>
</event>
<event>
 4    1  0.1672993E-004  0.5031999E+03  0.7818608E-02  0.1012947E+00
         -2   -1    0    0    0  501 -0.00000000000E+00  0.00000000000E+00  0.64602943296E+02  0.64602943296E+02  0.00000000000E+00 0.  1.
          2   -1    0    0  501    0  0.00000000000E+00 -0.00000000000E+00 -0.97987091990E+03  0.97987091990E+03  0.00000000000E+00 0.  1.
         25    1    1    2    0    0  0.14313975587E+03  0.13558420875E+03 -0.24975154567E+03  0.34007043673E+03  0.12000000000E+03 0.  0.
         25    1    1    2    0    0 -0.14313975587E+03 -0.13558420875E+03 -0.66551643094E+03  0.70440342647E+03  0.12000000000E+03 0.  0.
<mgrwt>
<rscale>  0 0.50319994E+03</rscale>
<asrwt>0</asrwt>
<pdfrwt beam="1">  1        2 0.15074937E+00 0.50319994E+03</pdfrwt>
<pdfrwt beam="2">  1       -2 0.99389145E-02 0.50319994E+03</pdfrwt>
<totfact> 0.18101350E+03</totfact>
</mgrwt>
</event>
<event>
 4    1  0.1672993E-004  0.2933209E+03  0.7818608E-02  0.1088628E+00
         -1   -1    0    0    0  501 -0.00000000000E+00  0.00000000000E+00  0.28760452674E+04  0.28760452674E+04  0.00000000000E+00 0. -1.
          1   -1    0    0  501    0  0.00000000000E+00 -0.00000000000E+00 -0.74787719940E+01  0.74787719940E+01  0.00000000000E+00 0. -1.
         25    1    1    2    0    0 -0.47183130983E+01 -0.54243449650E+01  0.22601483604E+04  0.22633431682E+04  0.12000000000E+03 0.  0.
         25    1    1    2    0    0  0.47183130983E+01  0.54243449650E+01  0.60841813500E+03  0.62018087119E+03  0.12000000000E+03 0.  0.
<mgrwt>
<rscale>  0 0.29332089E+03</rscale>
<asrwt>0</asrwt>
<pdfrwt beam="1">  1        1 0.11505826E-02 0.29332089E+03</pdfrwt>
<pdfrwt beam="2">  1       -1 0.44246762E+00 0.29332089E+03</pdfrwt>
<totfact> 0.59920356E+01</totfact>
</mgrwt>
</event>
<event>
 4    1  0.1672993E-004  0.3014828E+03  0.7818608E-02  0.1084502E+00
          1   -1    0    0  501    0  0.00000000000E+00  0.00000000000E+00  0.98530759870E+02  0.98530759870E+02  0.00000000000E+00 0. -1.
         -1   -1    0    0    0  501 -0.00000000000E+00 -0.00000000000E+00 -0.23061808412E+03  0.23061808412E+03  0.00000000000E+00 0. -1.
         25    1    1    2    0    0 -0.29413584485E+02 -0.32477141322E+02 -0.15340579668E+03  0.19963281824E+03  0.12000000000E+03 0.  0.
         25    1    1    2    0    0  0.29413584485E+02  0.32477141322E+02  0.21318472433E+02  0.12951602576E+03  0.12000000000E+03 0.  0.
<mgrwt>
<rscale>  0 0.30148284E+03</rscale>
<asrwt>0</asrwt>
<pdfrwt beam="1">  1        1 0.15158579E-01 0.30148284E+03</pdfrwt>
<pdfrwt beam="2">  1       -1 0.35479705E-01 0.30148284E+03</pdfrwt>
<totfact> 0.28037138E+03</totfact>
</mgrwt>
</event>
<event>
 4    1  0.1672993E-004  0.3646711E+03  0.7818608E-02  0.1056749E+00
         -2   -1    0    0    0  501 -0.00000000000E+00  0.00000000000E+00  0.43477512975E+02  0.43477512975E+02  0.00000000000E+00 0. -1.
          2   -1    0    0  501    0  0.00000000000E+00 -0.00000000000E+00 -0.76467680253E+03  0.76467680253E+03  0.00000000000E+00 0. -1.
         25    1    1    2    0    0 -0.45197725386E+02  0.65382332925E+02 -0.11254714647E+03  0.18271437825E+03  0.12000000000E+03 0.  0.
         25    1    1    2    0    0  0.45197725386E+02 -0.65382332925E+02 -0.60865214308E+03  0.62543993726E+03  0.12000000000E+03 0.  0.
<mgrwt>
<rscale>  0 0.36467106E+03</rscale>
<asrwt>0</asrwt>
<pdfrwt beam="1">  1        2 0.11764259E+00 0.36467106E+03</pdfrwt>
<pdfrwt beam="2">  1       -2 0.66888480E-02 0.36467106E+03</pdfrwt>
<totfact> 0.47221811E+03</totfact>
</mgrwt>
</event>
<event>
 4    1  0.1672993E-004  0.3814196E+03  0.7818608E-02  0.1050410E+00
          2   -1    0    0  501    0  0.00000000000E+00  0.00000000000E+00  0.44577339907E+03  0.44577339907E+03  0.00000000000E+00 0. -1.
         -2   -1    0    0    0  501 -0.00000000000E+00 -0.00000000000E+00 -0.81589067445E+02  0.81589067445E+02  0.00000000000E+00 0. -1.
         25    1    1    2    0    0  0.14654383467E+03  0.11448881950E+02  0.15571095290E+03  0.24546297731E+03  0.12000000000E+03 0.  0.
         25    1    1    2    0    0 -0.14654383467E+03 -0.11448881950E+02  0.20847337873E+03  0.28189948921E+03  0.12000000000E+03 0.  0.
<mgrwt>
<rscale>  0 0.38141964E+03</rscale>
<asrwt>0</asrwt>
<pdfrwt beam="1">  1        2 0.68580521E-01 0.38141964E+03</pdfrwt>
<pdfrwt beam="2">  1       -2 0.12552165E-01 0.38141964E+03</pdfrwt>
<totfact> 0.32705072E+03</totfact>
</mgrwt>
</event>
<event>
 4    1  0.1672993E-004  0.3364036E+03  0.7818608E-02  0.1068338E+00
          2   -1    0    0  501    0  0.00000000000E+00  0.00000000000E+00  0.92904985232E+03  0.92904985232E+03  0.00000000000E+00 0. -1.
         -2   -1    0    0    0  501 -0.00000000000E+00 -0.00000000000E+00 -0.30452443668E+02  0.30452443668E+02  0.00000000000E+00 0. -1.
         25    1    1    2    0    0 -0.67602252019E+02 -0.66579164361E+02  0.64873075515E+03  0.66652414981E+03  0.12000000000E+03 0.  0.
         25    1    1    2    0    0  0.67602252019E+02  0.66579164361E+02  0.24986665350E+03  0.29297814618E+03  0.12000000000E+03 0.  0.
<mgrwt>
<rscale>  0 0.33640356E+03</rscale>
<asrwt>0</asrwt>
<pdfrwt beam="1">  1        2 0.14293072E+00 0.33640356E+03</pdfrwt>
<pdfrwt beam="2">  1       -2 0.46849921E-02 0.33640356E+03</pdfrwt>
<totfact> 0.63141810E+03</totfact>
</mgrwt>
</event>
<event>
 4    1  0.1672993E-004  0.2786269E+03  0.7818608E-02  0.1096441E+00
          2   -1    0    0  501    0  0.00000000000E+00  0.00000000000E+00  0.12356312844E+04  0.12356312844E+04  0.00000000000E+00 0.  1.
         -2   -1    0    0    0  501 -0.00000000000E+00 -0.00000000000E+00 -0.15707144850E+02  0.15707144850E+02  0.00000000000E+00 0.  1.
         25    1    1    2    0    0  0.56204486545E+02  0.35465240022E+01  0.41748770830E+03  0.43802683562E+03  0.12000000000E+03 0.  0.
         25    1    1    2    0    0 -0.56204486545E+02 -0.35465240022E+01  0.80243643127E+03  0.81331159366E+03  0.12000000000E+03 0.  0.
<mgrwt>
<rscale>  0 0.27862692E+03</rscale>
<asrwt>0</asrwt>
<pdfrwt beam="1">  1        2 0.19009704E+00 0.27862692E+03</pdfrwt>
<pdfrwt beam="2">  1       -2 0.24164848E-02 0.27862692E+03</pdfrwt>
<totfact> 0.11137898E+04</totfact>
</mgrwt>
</event>
<event>
 4    1  0.1672993E-004  0.2594234E+03  0.7818608E-02  0.1107490E+00
         -2   -1    0    0    0  501 -0.00000000000E+00  0.00000000000E+00  0.25088376902E+03  0.25088376902E+03  0.00000000000E+00 0. -1.
          2   -1    0    0  501    0  0.00000000000E+00 -0.00000000000E+00 -0.67063400503E+02  0.67063400503E+02  0.00000000000E+00 0. -1.
         25    1    1    2    0    0 -0.47823943280E-01  0.32595372163E+02  0.46668438836E+02  0.13281718171E+03  0.12000000000E+03 0.  0.
         25    1    1    2    0    0  0.47823943280E-01 -0.32595372163E+02  0.13715192968E+03  0.18512998782E+03  0.12000000000E+03 0.  0.
<mgrwt>
<rscale>  0 0.25942335E+03</rscale>
<asrwt>0</asrwt>
<pdfrwt beam="1">  1        2 0.10317446E-01 0.25942335E+03</pdfrwt>
<pdfrwt beam="2">  1       -2 0.38597502E-01 0.25942335E+03</pdfrwt>
<totfact> 0.39003022E+03</totfact>
</mgrwt>
</event>
<event>
 4    1  0.1672993E-004  0.3297086E+03  0.7818608E-02  0.1071266E+00
          2   -1    0    0  501    0  0.00000000000E+00  0.00000000000E+00  0.24023632811E+03  0.24023632811E+03  0.00000000000E+00 0.  1.
         -2   -1    0    0    0  501 -0.00000000000E+00 -0.00000000000E+00 -0.11312584648E+03  0.11312584648E+03  0.00000000000E+00 0.  1.
         25    1    1    2    0    0  0.14438023070E+02 -0.10343230562E+03  0.10990403371E+03  0.19335354918E+03  0.12000000000E+03 0.  0.
         25    1    1    2    0    0 -0.14438023070E+02  0.10343230562E+03  0.17206447920E+02  0.16000862541E+03  0.12000000000E+03 0.  0.
<mgrwt>
<rscale>  0 0.32970859E+03</rscale>
<asrwt>0</asrwt>
<pdfrwt beam="1">  1        2 0.36959435E-01 0.32970859E+03</pdfrwt>
<pdfrwt beam="2">  1       -2 0.17403976E-01 0.32970859E+03</pdfrwt>
<totfact> 0.37209870E+03</totfact>
</mgrwt>
</event>
<event>
 4    1  0.1672993E-004  0.2706279E+03  0.7818608E-02  0.1100921E+00
         -2   -1    0    0    0  501 -0.00000000000E+00  0.00000000000E+00  0.11763939374E+02  0.11763939374E+02  0.00000000000E+00 0.  1.
          2   -1    0    0  501    0  0.00000000000E+00 -0.00000000000E+00 -0.15564396113E+04  0.15564396113E+04  0.00000000000E+00 0.  1.
         25    1    1    2    0    0  0.18514795822E+01  0.38274711880E+02 -0.10586609890E+04  0.10661292000E+04  0.12000000000E+03 0.  0.
         25    1    1    2    0    0 -0.18514795822E+01 -0.38274711880E+02 -0.48601468294E+03  0.50207435065E+03  0.12000000000E+03 0.  0.
<mgrwt>
<rscale>  0 0.27062787E+03</rscale>
<asrwt>0</asrwt>
<pdfrwt beam="1">  1        2 0.23945214E+00 0.27062787E+03</pdfrwt>
<pdfrwt beam="2">  1       -2 0.18098376E-02 0.27062787E+03</pdfrwt>
<totfact> 0.11394326E+04</totfact>
</mgrwt>
</event>
<event>
 4    1  0.1672993E-004  0.3216529E+03  0.7818608E-02  0.1074891E+00
          1   -1    0    0  501    0  0.00000000000E+00  0.00000000000E+00  0.16808277443E+03  0.16808277443E+03  0.00000000000E+00 0.  1.
         -1   -1    0    0    0  501 -0.00000000000E+00 -0.00000000000E+00 -0.15388339672E+03  0.15388339672E+03  0.00000000000E+00 0.  1.
         25    1    1    2    0    0  0.78825704662E+02  0.45101373411E+02 -0.49678765822E+02  0.15847903764E+03  0.12000000000E+03 0.  0.
         25    1    1    2    0    0 -0.78825704662E+02 -0.45101373411E+02  0.63878143530E+02  0.16348713350E+03  0.12000000000E+03 0.  0.
<mgrwt>
<rscale>  0 0.32165291E+03</rscale>
<asrwt>0</asrwt>
<pdfrwt beam="1">  1        1 0.25858889E-01 0.32165291E+03</pdfrwt>
<pdfrwt beam="2">  1       -1 0.23674369E-01 0.32165291E+03</pdfrwt>
<totfact> 0.27968427E+03</totfact>
</mgrwt>
</event>
<event>
 4    1  0.1672993E-004  0.3626307E+03  0.7818608E-02  0.1057547E+00
         -1   -1    0    0    0  501 -0.00000000000E+00  0.00000000000E+00  0.11156439468E+02  0.11156439468E+02  0.00000000000E+00 0. -1.
          1   -1    0    0  501    0  0.00000000000E+00 -0.00000000000E+00 -0.29467518600E+04  0.29467518600E+04  0.00000000000E+00 0. -1.
         25    1    1    2    0    0 -0.94789864615E+01 -0.14578687512E+02 -0.25673904753E+04  0.25702521748E+04  0.12000000000E+03 0.  0.
         25    1    1    2    0    0  0.94789864615E+01  0.14578687512E+02 -0.36820494524E+03  0.38765612470E+03  0.12000000000E+03 0.  0.
<mgrwt>
<rscale>  0 0.36263071E+03</rscale>
<asrwt>0</asrwt>
<pdfrwt beam="1">  1        1 0.45334673E+00 0.36263071E+03</pdfrwt>
<pdfrwt beam="2">  1       -1 0.17163742E-02 0.36263071E+03</pdfrwt>
<totfact> 0.66756158E+02</totfact>
</mgrwt>
</event>
<event>
 4    1  0.1672993E-004  0.2438579E+03  0.7818608E-02  0.1117249E+00
         -1   -1    0    0    0  501 -0.00000000000E+00  0.00000000000E+00  0.10374028486E+02  0.10374028486E+02  0.00000000000E+00 0. -1.
          1   -1    0    0  501    0  0.00000000000E+00 -0.00000000000E+00 -0.14330659452E+04  0.14330659452E+04  0.00000000000E+00 0. -1.
         25    1    1    2    0    0 -0.18873870582E+02  0.22074714017E+01 -0.65052765797E+03  0.66177589084E+03  0.12000000000E+03 0.  0.
         25    1    1    2    0    0  0.18873870582E+02 -0.22074714017E+01 -0.77216425877E+03  0.78166408287E+03  0.12000000000E+03 0.  0.
<mgrwt>
<rscale>  0 0.24385788E+03</rscale>
<asrwt>0</asrwt>
<pdfrwt beam="1">  1        1 0.22047164E+00 0.24385788E+03</pdfrwt>
<pdfrwt beam="2">  1       -1 0.15960047E-02 0.24385788E+03</pdfrwt>
<totfact> 0.75402564E+03</totfact>
</mgrwt>
</event>
<event>
 4    1  0.1672993E-004  0.3410213E+03  0.7818608E-02  0.1066362E+00
         -1   -1    0    0    0  501 -0.00000000000E+00  0.00000000000E+00  0.10749233058E+02  0.10749233058E+02  0.00000000000E+00 0. -1.
          1   -1    0    0  501    0  0.00000000000E+00 -0.00000000000E+00 -0.27047403062E+04  0.27047403062E+04  0.00000000000E+00 0. -1.
         25    1    1    2    0    0  0.90928880425E+02 -0.30109915146E+02 -0.75649950003E+03  0.77192367617E+03  0.12000000000E+03 0.  0.
         25    1    1    2    0    0 -0.90928880425E+02  0.30109915146E+02 -0.19374915731E+04  0.19435658631E+04  0.12000000000E+03 0.  0.
<mgrwt>
<rscale>  0 0.34102131E+03</rscale>
<asrwt>0</asrwt>
<pdfrwt beam="1">  1        1 0.41611420E+00 0.34102131E+03</pdfrwt>
<pdfrwt beam="2">  1       -1 0.16537270E-02 0.34102131E+03</pdfrwt>
<totfact> 0.10383782E+03</totfact>
</mgrwt>
</event>
<event>
 4    1  0.1672993E-004  0.3561773E+03  0.7818608E-02  0.1060108E+00
          2   -1    0    0  501    0  0.00000000000E+00  0.00000000000E+00  0.47849250643E+03  0.47849250643E+03  0.00000000000E+00 0.  1.
         -2   -1    0    0    0  501 -0.00000000000E+00 -0.00000000000E+00 -0.66282280070E+02  0.66282280070E+02  0.00000000000E+00 0.  1.
         25    1    1    2    0    0  0.84969874147E+02  0.80434440280E+02  0.11400411197E+03  0.20269809136E+03  0.12000000000E+03 0.  0.
         25    1    1    2    0    0 -0.84969874147E+02 -0.80434440280E+02  0.29820611440E+03  0.34207669514E+03  0.12000000000E+03 0.  0.
<mgrwt>
<rscale>  0 0.35617734E+03</rscale>
<asrwt>0</asrwt>
<pdfrwt beam="1">  1        2 0.73614230E-01 0.35617734E+03</pdfrwt>
<pdfrwt beam="2">  1       -2 0.10197274E-01 0.35617734E+03</pdfrwt>
<totfact> 0.42243157E+03</totfact>
</mgrwt>
</event>
<event>
 4    1  0.1672993E-004  0.3298409E+03  0.7818608E-02  0.1071207E+00
          2   -1    0    0  501    0  0.00000000000E+00  0.00000000000E+00  0.70238612967E+03  0.70238612967E+03  0.00000000000E+00 0. -1.
         -2   -1    0    0    0  501 -0.00000000000E+00 -0.00000000000E+00 -0.38723370250E+02  0.38723370250E+02  0.00000000000E+00 0. -1.
         25    1    1    2    0    0 -0.29014599608E+02 -0.62124321894E+02  0.53401817259E+03  0.55161280535E+03  0.12000000000E+03 0.  0.
         25    1    1    2    0    0  0.29014599608E+02  0.62124321894E+02  0.12964458682E+03  0.18949669457E+03  0.12000000000E+03 0.  0.
<mgrwt>
<rscale>  0 0.32984092E+03</rscale>
<asrwt>0</asrwt>
<pdfrwt beam="1">  1        2 0.10805940E+00 0.32984092E+03</pdfrwt>
<pdfrwt beam="2">  1       -2 0.59574421E-02 0.32984092E+03</pdfrwt>
<totfact> 0.62678513E+03</totfact>
</mgrwt>
</event>
<event>
 4    1  0.1672993E-004  0.3413199E+03  0.7818608E-02  0.1066235E+00
          1   -1    0    0  501    0  0.00000000000E+00  0.00000000000E+00  0.28268181890E+04  0.28268181890E+04  0.00000000000E+00 0.  1.
         -1   -1    0    0    0  501 -0.00000000000E+00 -0.00000000000E+00 -0.10303040933E+02  0.10303040933E+02  0.00000000000E+00 0.  1.
         25    1    1    2    0    0  0.48759843758E+02  0.97044710436E+02  0.18581640944E+04  0.18651994531E+04  0.12000000000E+03 0.  0.
         25    1    1    2    0    0 -0.48759843758E+02 -0.97044710436E+02  0.95835105367E+03  0.97192177682E+03  0.12000000000E+03 0.  0.
<mgrwt>
<rscale>  0 0.34131993E+03</rscale>
<asrwt>0</asrwt>
<pdfrwt beam="1">  1        1 0.43489449E+00 0.34131993E+03</pdfrwt>
<pdfrwt beam="2">  1       -1 0.15850855E-02 0.34131993E+03</pdfrwt>
<totfact> 0.91131988E+02</totfact>
</mgrwt>
</event>
<event>
 4    1  0.1672993E-004  0.3840324E+03  0.7818608E-02  0.1049453E+00
          2   -1    0    0  501    0  0.00000000000E+00  0.00000000000E+00  0.70254245415E+03  0.70254245415E+03  0.00000000000E+00 0. -1.
         -2   -1    0    0    0  501 -0.00000000000E+00 -0.00000000000E+00 -0.52481125655E+02  0.52481125655E+02  0.00000000000E+00 0. -1.
         25    1    1    2    0    0 -0.99477384111E+02  0.23083374170E+02  0.10928839536E+03  0.19176168927E+03  0.12000000000E+03 0.  0.
         25    1    1    2    0    0  0.99477384111E+02 -0.23083374170E+02  0.54077293313E+03  0.56326189053E+03  0.12000000000E+03 0.  0.
<mgrwt>
<rscale>  0 0.38403239E+03</rscale>
<asrwt>0</asrwt>
<pdfrwt beam="1">  1        2 0.10808345E+00 0.38403239E+03</pdfrwt>
<pdfrwt beam="2">  1       -2 0.80740198E-02 0.38403239E+03</pdfrwt>
<totfact> 0.39117936E+03</totfact>
</mgrwt>
</event>
<event>
 4    1  0.1672993E-004  0.5351552E+03  0.7818608E-02  0.1004990E+00
          2   -1    0    0  501    0  0.00000000000E+00  0.00000000000E+00  0.10148472865E+04  0.10148472865E+04  0.00000000000E+00 0. -1.
         -2   -1    0    0    0  501 -0.00000000000E+00 -0.00000000000E+00 -0.70550296181E+02  0.70550296181E+02  0.00000000000E+00 0. -1.
         25    1    1    2    0    0  0.14266057582E+03  0.18243216314E+03  0.35106283487E+03  0.43735414491E+03  0.12000000000E+03 0.  0.
         25    1    1    2    0    0 -0.14266057582E+03 -0.18243216314E+03  0.59323415541E+03  0.64804343773E+03  0.12000000000E+03 0.  0.
<mgrwt>
<rscale>  0 0.53515522E+03</rscale>
<asrwt>0</asrwt>
<pdfrwt beam="1">  1        2 0.15613034E+00 0.53515522E+03</pdfrwt>
<pdfrwt beam="2">  1       -2 0.10853893E-01 0.53515522E+03</pdfrwt>
<totfact> 0.14908517E+03</totfact>
</mgrwt>
</event>
<event>
 4    1  0.1672993E-004  0.4024126E+03  0.7818608E-02  0.1042947E+00
          4   -1    0    0  501    0  0.00000000000E+00  0.00000000000E+00  0.16728430017E+03  0.16728430017E+03  0.00000000000E+00 0.  1.
         -4   -1    0    0    0  501 -0.00000000000E+00 -0.00000000000E+00 -0.24200705708E+03  0.24200705708E+03  0.00000000000E+00 0.  1.
         25    1    1    2    0    0 -0.10102791501E+03  0.38707705033E+02 -0.15932383008E+03  0.22691189672E+03  0.12000000000E+03 0.  0.
         25    1    1    2    0    0  0.10102791501E+03 -0.38707705033E+02  0.84601073170E+02  0.18237946053E+03  0.12000000000E+03 0.  0.
<mgrwt>
<rscale>  0 0.40241263E+03</rscale>
<asrwt>0</asrwt>
<pdfrwt beam="1">  1        4 0.25736046E-01 0.40241263E+03</pdfrwt>
<pdfrwt beam="2">  1       -4 0.37231855E-01 0.40241263E+03</pdfrwt>
<totfact> 0.19327110E+02</totfact>
</mgrwt>
</event>
<event>
 4    1  0.1672993E-004  0.2656033E+03  0.7818608E-02  0.1103823E+00
          1   -1    0    0  501    0  0.00000000000E+00  0.00000000000E+00  0.17085432071E+04  0.17085432071E+04  0.00000000000E+00 0.  1.
         -1   -1    0    0    0  501 -0.00000000000E+00 -0.00000000000E+00 -0.10322404020E+02  0.10322404020E+02  0.00000000000E+00 0.  1.
         25    1    1    2    0    0 -0.48775053397E+02  0.75893730073E+01  0.10321156765E+04  0.10402400560E+04  0.12000000000E+03 0.  0.
         25    1    1    2    0    0  0.48775053397E+02 -0.75893730073E+01  0.66610512665E+03  0.67862555520E+03  0.12000000000E+03 0.  0.
<mgrwt>
<rscale>  0 0.26560326E+03</rscale>
<asrwt>0</asrwt>
<pdfrwt beam="1">  1        1 0.26285258E+00 0.26560326E+03</pdfrwt>
<pdfrwt beam="2">  1       -1 0.15880635E-02 0.26560326E+03</pdfrwt>
<totfact> 0.50113013E+03</totfact>
</mgrwt>
</event>
<event>
 4    1  0.1672993E-004  0.3320345E+03  0.7818608E-02  0.1070240E+00
          2   -1    0    0  501    0  0.00000000000E+00  0.00000000000E+00  0.22755374646E+03  0.22755374646E+03  0.00000000000E+00 0. -1.
         -2   -1    0    0    0  501 -0.00000000000E+00 -0.00000000000E+00 -0.12112182194E+03  0.12112182194E+03  0.00000000000E+00 0. -1.
         25    1    1    2    0    0 -0.11139250038E+03  0.20036332066E+02  0.33514534334E+02  0.16832399637E+03  0.12000000000E+03 0.  0.
         25    1    1    2    0    0  0.11139250038E+03 -0.20036332066E+02  0.72917390178E+02  0.18035157203E+03  0.12000000000E+03 0.  0.
<mgrwt>
<rscale>  0 0.33203448E+03</rscale>
<asrwt>0</asrwt>
<pdfrwt beam="1">  1        2 0.35008269E-01 0.33203448E+03</pdfrwt>
<pdfrwt beam="2">  1       -2 0.18634126E-01 0.33203448E+03</pdfrwt>
<totfact> 0.35169277E+03</totfact>
</mgrwt>
</event>
<event>
 4    1  0.1672993E-004  0.2510009E+03  0.7818608E-02  0.1112674E+00
          2   -1    0    0  501    0  0.00000000000E+00  0.00000000000E+00  0.57568839682E+03  0.57568839682E+03  0.00000000000E+00 0.  1.
         -2   -1    0    0    0  501 -0.00000000000E+00 -0.00000000000E+00 -0.27359180780E+02  0.27359180780E+02  0.00000000000E+00 0.  1.
         25    1    1    2    0    0  0.88410170756E+01  0.33641451848E+02  0.24569114114E+03  0.27563390158E+03  0.12000000000E+03 0.  0.
         25    1    1    2    0    0 -0.88410170756E+01 -0.33641451848E+02  0.30263807490E+03  0.32741367602E+03  0.12000000000E+03 0.  0.
<mgrwt>
<rscale>  0 0.25100090E+03</rscale>
<asrwt>0</asrwt>
<pdfrwt beam="1">  1        2 0.88567436E-01 0.25100090E+03</pdfrwt>
<pdfrwt beam="2">  1       -2 0.42091052E-02 0.25100090E+03</pdfrwt>
<totfact> 0.13333461E+04</totfact>
</mgrwt>
</event>
<event>
 4    1  0.1672993E-004  0.2872491E+03  0.7818608E-02  0.1091794E+00
         -2   -1    0    0    0  501 -0.00000000000E+00  0.00000000000E+00  0.62896542334E+02  0.62896542334E+02  0.00000000000E+00 0. -1.
          2   -1    0    0  501    0  0.00000000000E+00 -0.00000000000E+00 -0.32796744754E+03  0.32796744754E+03  0.00000000000E+00 0. -1.
         25    1    1    2    0    0  0.44078028957E+02  0.38137404769E+02 -0.60139778272E+02  0.14633566623E+03  0.12000000000E+03 0.  0.
         25    1    1    2    0    0 -0.44078028957E+02 -0.38137404769E+02 -0.20493112693E+03  0.24452832364E+03  0.12000000000E+03 0.  0.
<mgrwt>
<rscale>  0 0.28724915E+03</rscale>
<asrwt>0</asrwt>
<pdfrwt beam="1">  1        2 0.50456530E-01 0.28724915E+03</pdfrwt>
<pdfrwt beam="2">  1       -2 0.96763912E-02 0.28724915E+03</pdfrwt>
<totfact> 0.69060930E+03</totfact>
</mgrwt>
</event>
<event>
 4    1  0.1672993E-004  0.3196460E+03  0.7818608E-02  0.1075812E+00
          2   -1    0    0  501    0  0.00000000000E+00  0.00000000000E+00  0.67782633132E+03  0.67782633132E+03  0.00000000000E+00 0. -1.
         -2   -1    0    0    0  501 -0.00000000000E+00 -0.00000000000E+00 -0.37684268228E+02  0.37684268228E+02  0.00000000000E+00 0. -1.
         25    1    1    2    0    0 -0.60183246929E+02 -0.65317312119E+02  0.44778055943E+03  0.47201250394E+03  0.12000000000E+03 0.  0.
         25    1    1    2    0    0  0.60183246929E+02  0.65317312119E+02  0.19236150367E+03  0.24349809561E+03  0.12000000000E+03 0.  0.
<mgrwt>
<rscale>  0 0.31964599E+03</rscale>
<asrwt>0</asrwt>
<pdfrwt beam="1">  1        2 0.10428097E+00 0.31964599E+03</pdfrwt>
<pdfrwt beam="2">  1       -2 0.57975802E-02 0.31964599E+03</pdfrwt>
<totfact> 0.68197601E+03</totfact>
</mgrwt>
</event>
<event>
 4    1  0.1672993E-004  0.2707018E+03  0.7818608E-02  0.1100879E+00
          1   -1    0    0  501    0  0.00000000000E+00  0.00000000000E+00  0.19767228570E+04  0.19767228570E+04  0.00000000000E+00 0.  1.
         -1   -1    0    0    0  501 -0.00000000000E+00 -0.00000000000E+00 -0.92677981334E+01  0.92677981334E+01  0.00000000000E+00 0.  1.
         25    1    1    2    0    0 -0.44531977796E+02 -0.96927354416E+01  0.66878758081E+03  0.68099476827E+03  0.12000000000E+03 0.  0.
         25    1    1    2    0    0  0.44531977796E+02  0.96927354416E+01  0.12986674781E+04  0.13049958869E+04  0.12000000000E+03 0.  0.
<mgrwt>
<rscale>  0 0.27070182E+03</rscale>
<asrwt>0</asrwt>
<pdfrwt beam="1">  1        1 0.30411087E+00 0.27070182E+03</pdfrwt>
<pdfrwt beam="2">  1       -1 0.14258167E-02 0.27070182E+03</pdfrwt>
<totfact> 0.39255218E+03</totfact>
</mgrwt>
</event>
<event>
 4    1  0.1672993E-004  0.2532036E+03  0.7818608E-02  0.1111297E+00
          1   -1    0    0  501    0  0.00000000000E+00  0.00000000000E+00  0.20476027662E+04  0.20476027662E+04  0.00000000000E+00 0. -1.
         -1   -1    0    0    0  501 -0.00000000000E+00 -0.00000000000E+00 -0.78276955086E+01  0.78276955086E+01  0.00000000000E+00 0. -1.
         25    1    1    2    0    0 -0.28607148281E+02  0.25973188398E+02  0.92555597866E+03  0.93410215987E+03  0.12000000000E+03 0.  0.
         25    1    1    2    0    0  0.28607148281E+02 -0.25973188398E+02  0.11142190921E+04  0.11213283019E+04  0.12000000000E+03 0.  0.
<mgrwt>
<rscale>  0 0.25320356E+03</rscale>
<asrwt>0</asrwt>
<pdfrwt beam="1">  1        1 0.31501538E+00 0.25320356E+03</pdfrwt>
<pdfrwt beam="2">  1       -1 0.12042625E-02 0.25320356E+03</pdfrwt>
<totfact> 0.45115182E+03</totfact>
</mgrwt>
</event>
<event>
 4    1  0.1672993E-004  0.3926232E+03  0.7818608E-02  0.1046364E+00
          1   -1    0    0  501    0  0.00000000000E+00  0.00000000000E+00  0.24463526382E+03  0.24463526382E+03  0.00000000000E+00 0. -1.
         -1   -1    0    0    0  501 -0.00000000000E+00 -0.00000000000E+00 -0.15753344947E+03  0.15753344947E+03  0.00000000000E+00 0. -1.
         25    1    1    2    0    0 -0.14530265254E+03  0.13841601644E+02  0.98078447195E+02  0.21289394678E+03  0.12000000000E+03 0.  0.
         25    1    1    2    0    0  0.14530265254E+03 -0.13841601644E+02 -0.10976632849E+02  0.18927476651E+03  0.12000000000E+03 0.  0.
<mgrwt>
<rscale>  0 0.39262316E+03</rscale>
<asrwt>0</asrwt>
<pdfrwt beam="1">  1        1 0.37636195E-01 0.39262316E+03</pdfrwt>
<pdfrwt beam="2">  1       -1 0.24235915E-01 0.39262316E+03</pdfrwt>
<totfact> 0.16732310E+03</totfact>
</mgrwt>
</event>
<event>
 4    1  0.1672993E-004  0.3062354E+03  0.7818608E-02  0.1082164E+00
         -1   -1    0    0    0  501 -0.00000000000E+00  0.00000000000E+00  0.56013099468E+02  0.56013099468E+02  0.00000000000E+00 0.  1.
          1   -1    0    0  501    0  0.00000000000E+00 -0.00000000000E+00 -0.41856337311E+03  0.41856337311E+03  0.00000000000E+00 0.  1.
         25    1    1    2    0    0  0.35979144126E+02  0.43127439009E+02 -0.62334850996E+02  0.14642441209E+03  0.12000000000E+03 0.  0.
         25    1    1    2    0    0 -0.35979144126E+02 -0.43127439009E+02 -0.30021542264E+03  0.32815206048E+03  0.12000000000E+03 0.  0.
<mgrwt>
<rscale>  0 0.30623541E+03</rscale>
<asrwt>0</asrwt>
<pdfrwt beam="1">  1        1 0.64394364E-01 0.30623541E+03</pdfrwt>
<pdfrwt beam="2">  1       -1 0.86174001E-02 0.30623541E+03</pdfrwt>
<totfact> 0.43813588E+03</totfact>
</mgrwt>
</event>
<event>
 4    1  0.1672993E-004  0.2419987E+03  0.7818608E-02  0.1118468E+00
          1   -1    0    0  501    0  0.00000000000E+00  0.00000000000E+00  0.70864783807E+03  0.70864783807E+03  0.00000000000E+00 0.  1.
         -1   -1    0    0    0  501 -0.00000000000E+00 -0.00000000000E+00 -0.20660248414E+02  0.20660248414E+02  0.00000000000E+00 0.  1.
         25    1    1    2    0    0  0.64204937127E+01 -0.56622253907E+01  0.30498351126E+03  0.32785397004E+03  0.12000000000E+03 0.  0.
         25    1    1    2    0    0 -0.64204937127E+01  0.56622253907E+01  0.38300407840E+03  0.40145411644E+03  0.12000000000E+03 0.  0.
<mgrwt>
<rscale>  0 0.24199868E+03</rscale>
<asrwt>0</asrwt>
<pdfrwt beam="1">  1        1 0.10902273E+00 0.24199868E+03</pdfrwt>
<pdfrwt beam="2">  1       -1 0.31785003E-02 0.24199868E+03</pdfrwt>
<totfact> 0.95005893E+03</totfact>
</mgrwt>
</event>
<event>
 4    1  0.1672993E-004  0.4722762E+03  0.7818608E-02  0.1021280E+00
         -1   -1    0    0    0  501 -0.00000000000E+00  0.00000000000E+00  0.27038875468E+02  0.27038875468E+02  0.00000000000E+00 0. -1.
          1   -1    0    0  501    0  0.00000000000E+00 -0.00000000000E+00 -0.20622607024E+04  0.20622607024E+04  0.00000000000E+00 0. -1.
         25    1    1    2    0    0 -0.13676690021E+01 -0.12265452102E+03 -0.17352532157E+04  0.17437172147E+04  0.12000000000E+03 0.  0.
         25    1    1    2    0    0  0.13676690021E+01  0.12265452102E+03 -0.29996861121E+03  0.34558236320E+03  0.12000000000E+03 0.  0.
<mgrwt>
<rscale>  0 0.47227623E+03</rscale>
<asrwt>0</asrwt>
<pdfrwt beam="1">  1        1 0.31727089E+00 0.47227623E+03</pdfrwt>
<pdfrwt beam="2">  1       -1 0.41598269E-02 0.47227623E+03</pdfrwt>
<totfact> 0.69869840E+02</totfact>
</mgrwt>
</event>
<event>
 4    1  0.1672993E-004  0.2895490E+03  0.7818608E-02  0.1090585E+00
         -2   -1    0    0    0  501 -0.00000000000E+00  0.00000000000E+00  0.95818792382E+01  0.95818792382E+01  0.00000000000E+00 0.  1.
          2   -1    0    0  501    0  0.00000000000E+00 -0.00000000000E+00 -0.21874266246E+04  0.21874266246E+04  0.00000000000E+00 0.  1.
         25    1    1    2    0    0 -0.79573284049E+02  0.14724347915E+02 -0.11140235320E+04  0.11233864624E+04  0.12000000000E+03 0.  0.
         25    1    1    2    0    0  0.79573284049E+02 -0.14724347915E+02 -0.10638212133E+04  0.10736220414E+04  0.12000000000E+03 0.  0.
<mgrwt>
<rscale>  0 0.28954901E+03</rscale>
<asrwt>0</asrwt>
<pdfrwt beam="1">  1        2 0.33652695E+00 0.28954901E+03</pdfrwt>
<pdfrwt beam="2">  1       -2 0.14741362E-02 0.28954901E+03</pdfrwt>
<totfact> 0.71581156E+03</totfact>
</mgrwt>
</event>
<event>
 4    1  0.1672993E-004  0.2540944E+03  0.7818608E-02  0.1110744E+00
          2   -1    0    0  501    0  0.00000000000E+00  0.00000000000E+00  0.58076357763E+03  0.58076357763E+03  0.00000000000E+00 0.  1.
         -2   -1    0    0    0  501 -0.00000000000E+00 -0.00000000000E+00 -0.27792700534E+02  0.27792700534E+02  0.00000000000E+00 0.  1.
         25    1    1    2    0    0  0.40869451718E+02  0.20996193342E+01  0.29598193930E+03  0.32199383360E+03  0.12000000000E+03 0.  0.
         25    1    1    2    0    0 -0.40869451718E+02 -0.20996193342E+01  0.25698893780E+03  0.28656244457E+03  0.12000000000E+03 0.  0.
<mgrwt>
<rscale>  0 0.25409438E+03</rscale>
<asrwt>0</asrwt>
<pdfrwt beam="1">  1        2 0.89348234E-01 0.25409438E+03</pdfrwt>
<pdfrwt beam="2">  1       -2 0.42758005E-02 0.25409438E+03</pdfrwt>
<totfact> 0.12898147E+04</totfact>
</mgrwt>
</event>
<event>
 4    1  0.1672993E-004  0.2492560E+03  0.7818608E-02  0.1113776E+00
         -1   -1    0    0    0  501 -0.00000000000E+00  0.00000000000E+00  0.44121939606E+03  0.44121939606E+03  0.00000000000E+00 0. -1.
          1   -1    0    0  501    0  0.00000000000E+00 -0.00000000000E+00 -0.35202767777E+02  0.35202767777E+02  0.00000000000E+00 0. -1.
         25    1    1    2    0    0 -0.26599692599E+02 -0.59753641352E+01  0.16531514840E+03  0.20608820178E+03  0.12000000000E+03 0.  0.
         25    1    1    2    0    0  0.26599692599E+02  0.59753641352E+01  0.24070147988E+03  0.27033396206E+03  0.12000000000E+03 0.  0.
<mgrwt>
<rscale>  0 0.24925604E+03</rscale>
<asrwt>0</asrwt>
<pdfrwt beam="1">  1        1 0.54158108E-02 0.24925604E+03</pdfrwt>
<pdfrwt beam="2">  1       -1 0.67879903E-01 0.24925604E+03</pdfrwt>
<totfact> 0.33722052E+03</totfact>
</mgrwt>
</event>
<event>
 4    1  0.1672993E-004  0.2624078E+03  0.7818608E-02  0.1105705E+00
         -1   -1    0    0    0  501 -0.00000000000E+00  0.00000000000E+00  0.12856194450E+03  0.12856194450E+03  0.00000000000E+00 0. -1.
          1   -1    0    0  501    0  0.00000000000E+00 -0.00000000000E+00 -0.13390014775E+03  0.13390014775E+03  0.00000000000E+00 0. -1.
         25    1    1    2    0    0 -0.21865385087E+02  0.34897074217E+02  0.30782735689E+02  0.13055067089E+03  0.12000000000E+03 0.  0.
         25    1    1    2    0    0  0.21865385087E+02 -0.34897074217E+02 -0.36120938944E+02  0.13191142136E+03  0.12000000000E+03 0.  0.
<mgrwt>
<rscale>  0 0.26240780E+03</rscale>
<asrwt>0</asrwt>
<pdfrwt beam="1">  1        1 0.20600023E-01 0.26240780E+03</pdfrwt>
<pdfrwt beam="2">  1       -1 0.19778761E-01 0.26240780E+03</pdfrwt>
<totfact> 0.49994982E+03</totfact>
</mgrwt>
</event>
<event>
 4    1  0.1672993E-004  0.3920587E+03  0.7818608E-02  0.1046565E+00
         -1   -1    0    0    0  501 -0.00000000000E+00  0.00000000000E+00  0.20912201445E+02  0.20912201445E+02  0.00000000000E+00 0. -1.
          1   -1    0    0  501    0  0.00000000000E+00 -0.00000000000E+00 -0.18375637595E+04  0.18375637595E+04  0.00000000000E+00 0. -1.
         25    1    1    2    0    0  0.23992415130E+01  0.69359274663E+01 -0.17436499300E+03  0.21179474553E+03  0.12000000000E+03 0.  0.
         25    1    1    2    0    0 -0.23992415130E+01 -0.69359274663E+01 -0.16422865651E+04  0.16466812155E+04  0.12000000000E+03 0.  0.
<mgrwt>
<rscale>  0 0.39205869E+03</rscale>
<asrwt>0</asrwt>
<pdfrwt beam="1">  1        1 0.28270207E+00 0.39205869E+03</pdfrwt>
<pdfrwt beam="2">  1       -1 0.32172623E-02 0.39205869E+03</pdfrwt>
<totfact> 0.14532876E+03</totfact>
</mgrwt>
</event>
<event>
 4    1  0.1672993E-004  0.2545961E+03  0.7818608E-02  0.1110434E+00
          2   -1    0    0  501    0  0.00000000000E+00  0.00000000000E+00  0.11229181575E+03  0.11229181575E+03  0.00000000000E+00 0.  1.
         -2   -1    0    0    0  501 -0.00000000000E+00 -0.00000000000E+00 -0.14430971368E+03  0.14430971368E+03  0.00000000000E+00 0.  1.
         25    1    1    2    0    0 -0.32866537689E+02 -0.18408869769E+02 -0.35802990532E+02  0.13077060035E+03  0.12000000000E+03 0.  0.
         25    1    1    2    0    0  0.32866537689E+02  0.18408869769E+02  0.37850925973E+01  0.12583092907E+03  0.12000000000E+03 0.  0.
<mgrwt>
<rscale>  0 0.25459615E+03</rscale>
<asrwt>0</asrwt>
<pdfrwt beam="1">  1        2 0.17275664E-01 0.25459615E+03</pdfrwt>
<pdfrwt beam="2">  1       -2 0.22201494E-01 0.25459615E+03</pdfrwt>
<totfact> 0.57091481E+03</totfact>
</mgrwt>
</event>
<event>
 4    1  0.1672993E-004  0.2983751E+03  0.7818608E-02  0.1086056E+00
         -1   -1    0    0    0  501 -0.00000000000E+00  0.00000000000E+00  0.11272783883E+02  0.11272783883E+02  0.00000000000E+00 0.  1.
          1   -1    0    0  501    0  0.00000000000E+00 -0.00000000000E+00 -0.19743952749E+04  0.19743952749E+04  0.00000000000E+00 0.  1.
         25    1    1    2    0    0 -0.17341591722E+02 -0.57681320516E+02 -0.54878219680E+03  0.56496881778E+03  0.12000000000E+03 0.  0.
         25    1    1    2    0    0  0.17341591722E+02  0.57681320516E+02 -0.14143402942E+04  0.14206992410E+04  0.12000000000E+03 0.  0.
<mgrwt>
<rscale>  0 0.29837514E+03</rscale>
<asrwt>0</asrwt>
<pdfrwt beam="1">  1        1 0.30375333E+00 0.29837514E+03</pdfrwt>
<pdfrwt beam="2">  1       -1 0.17342733E-02 0.29837514E+03</pdfrwt>
<totfact> 0.29593081E+03</totfact>
</mgrwt>
</event>
<event>
 4    1  0.1672993E-004  0.3171832E+03  0.7818608E-02  0.1076953E+00
          2   -1    0    0  501    0  0.00000000000E+00  0.00000000000E+00  0.21061221775E+04  0.21061221775E+04  0.00000000000E+00 0. -1.
         -2   -1    0    0    0  501 -0.00000000000E+00 -0.00000000000E+00 -0.11941991368E+02  0.11941991368E+02  0.00000000000E+00 0. -1.
         25    1    1    2    0    0  0.10195617459E+03  0.72049023826E+01  0.93059846522E+03  0.94385405420E+03  0.12000000000E+03 0.  0.
         25    1    1    2    0    0 -0.10195617459E+03 -0.72049023826E+01  0.11635817210E+04  0.11742101147E+04  0.12000000000E+03 0.  0.
<mgrwt>
<rscale>  0 0.31718318E+03</rscale>
<asrwt>0</asrwt>
<pdfrwt beam="1">  1        2 0.32401850E+00 0.31718318E+03</pdfrwt>
<pdfrwt beam="2">  1       -2 0.18372311E-02 0.31718318E+03</pdfrwt>
<totfact> 0.57208379E+03</totfact>
</mgrwt>
</event>
<event>
 4    1  0.1672993E-004  0.2665505E+03  0.7818608E-02  0.1103270E+00
         -3   -1    0    0    0  501 -0.00000000000E+00  0.00000000000E+00  0.46990206226E+03  0.46990206226E+03  0.00000000000E+00 0.  1.
          3   -1    0    0  501    0  0.00000000000E+00 -0.00000000000E+00 -0.37799981466E+02  0.37799981466E+02  0.00000000000E+00 0.  1.
         25    1    1    2    0    0  0.56356789314E+02 -0.13638623833E+02  0.21688015394E+03  0.25455667529E+03  0.12000000000E+03 0.  0.
         25    1    1    2    0    0 -0.56356789314E+02  0.13638623833E+02  0.21522192685E+03  0.25314536843E+03  0.12000000000E+03 0.  0.
<mgrwt>
<rscale>  0 0.26655048E+03</rscale>
<asrwt>0</asrwt>
<pdfrwt beam="1">  1        3 0.58153821E-02 0.26655048E+03</pdfrwt>
<pdfrwt beam="2">  1       -3 0.72292621E-01 0.26655048E+03</pdfrwt>
<totfact> 0.84192296E+02</totfact>
</mgrwt>
</event>
<event>
 4    1  0.1672993E-004  0.2701537E+03  0.7818608E-02  0.1101192E+00
         -1   -1    0    0    0  501 -0.00000000000E+00  0.00000000000E+00  0.20065382205E+02  0.20065382205E+02  0.00000000000E+00 0.  1.
          1   -1    0    0  501    0  0.00000000000E+00 -0.00000000000E+00 -0.90931487161E+03  0.90931487161E+03  0.00000000000E+00 0.  1.
         25    1    1    2    0    0 -0.19014126565E+02  0.52400557853E+02 -0.35114297075E+03  0.37524490853E+03  0.12000000000E+03 0.  0.
         25    1    1    2    0    0  0.19014126565E+02 -0.52400557853E+02 -0.53810651865E+03  0.55413534528E+03  0.12000000000E+03 0.  0.
<mgrwt>
<rscale>  0 0.27015366E+03</rscale>
<asrwt>0</asrwt>
<pdfrwt beam="1">  1        1 0.13989458E+00 0.27015366E+03</pdfrwt>
<pdfrwt beam="2">  1       -1 0.30869823E-02 0.27015366E+03</pdfrwt>
<totfact> 0.67770058E+03</totfact>
</mgrwt>
</event>
<event>
 4    1  0.1672993E-004  0.2494348E+03  0.7818608E-02  0.1113663E+00
          2   -1    0    0  501    0  0.00000000000E+00  0.00000000000E+00  0.23135259001E+03  0.23135259001E+03  0.00000000000E+00 0.  1.
         -2   -1    0    0    0  501 -0.00000000000E+00 -0.00000000000E+00 -0.67232547199E+02  0.67232547199E+02  0.00000000000E+00 0.  1.
         25    1    1    2    0    0  0.13481598246E+01 -0.19612290231E+02  0.11523279517E+03  0.16752628613E+03  0.12000000000E+03 0.  0.
         25    1    1    2    0    0 -0.13481598246E+01  0.19612290231E+02  0.48887247639E+02  0.13105885107E+03  0.12000000000E+03 0.  0.
<mgrwt>
<rscale>  0 0.24943475E+03</rscale>
<asrwt>0</asrwt>
<pdfrwt beam="1">  1        2 0.35592706E-01 0.24943475E+03</pdfrwt>
<pdfrwt beam="2">  1       -2 0.10343469E-01 0.24943475E+03</pdfrwt>
<totfact> 0.89961983E+03</totfact>
</mgrwt>
</event>
<event>
 4    1  0.1672993E-004  0.2565224E+03  0.7818608E-02  0.1109251E+00
         -2   -1    0    0    0  501 -0.00000000000E+00  0.00000000000E+00  0.76109784432E+01  0.76109784432E+01  0.00000000000E+00 0. -1.
          2   -1    0    0  501    0  0.00000000000E+00 -0.00000000000E+00 -0.21614738768E+04  0.21614738768E+04  0.00000000000E+00 0. -1.
         25    1    1    2    0    0  0.24395062295E+02 -0.24295628767E+02 -0.13256988574E+04  0.13315640643E+04  0.12000000000E+03 0.  0.
         25    1    1    2    0    0 -0.24395062295E+02  0.24295628767E+02 -0.82816404087E+03  0.83752079093E+03  0.12000000000E+03 0.  0.
<mgrwt>
<rscale>  0 0.25652237E+03</rscale>
<asrwt>0</asrwt>
<pdfrwt beam="1">  1        2 0.33253411E+00 0.25652237E+03</pdfrwt>
<pdfrwt beam="2">  1       -2 0.11709209E-02 0.25652237E+03</pdfrwt>
<totfact> 0.10331961E+04</totfact>
</mgrwt>
</event>
<event>
 4    1  0.1672993E-004  0.2535140E+03  0.7818608E-02  0.1111104E+00
          1   -1    0    0  501    0  0.00000000000E+00  0.00000000000E+00  0.13137577503E+02  0.13137577503E+02  0.00000000000E+00 0. -1.
         -1   -1    0    0    0  501 -0.00000000000E+00 -0.00000000000E+00 -0.12230056771E+04  0.12230056771E+04  0.00000000000E+00 0. -1.
         25    1    1    2    0    0 -0.24976054649E+02  0.29400963885E+02 -0.67019135407E+03  0.68194183847E+03  0.12000000000E+03 0.  0.
         25    1    1    2    0    0  0.24976054649E+02 -0.29400963885E+02 -0.53967674554E+03  0.55420141615E+03  0.12000000000E+03 0.  0.
<mgrwt>
<rscale>  0 0.25351396E+03</rscale>
<asrwt>0</asrwt>
<pdfrwt beam="1">  1        1 0.20211657E-02 0.25351396E+03</pdfrwt>
<pdfrwt beam="2">  1       -1 0.18815473E+00 0.25351396E+03</pdfrwt>
<totfact> 0.11946814E+03</totfact>
</mgrwt>
</event>
<event>
 4    1  0.1672993E-004  0.5119065E+03  0.7818608E-02  0.1010717E+00
          1   -1    0    0  501    0  0.00000000000E+00  0.00000000000E+00  0.29283964938E+03  0.29283964938E+03  0.00000000000E+00 0.  1.
         -1   -1    0    0    0  501 -0.00000000000E+00 -0.00000000000E+00 -0.22371307856E+03  0.22371307856E+03  0.00000000000E+00 0.  1.
         25    1    1    2    0    0  0.13797050505E+03  0.17573223823E+03 -0.31019066970E+00  0.25360949516E+03  0.12000000000E+03 0.  0.
         25    1    1    2    0    0 -0.13797050505E+03 -0.17573223823E+03  0.69436761488E+02  0.26294323278E+03  0.12000000000E+03 0.  0.
<mgrwt>
<rscale>  0 0.51190647E+03</rscale>
<asrwt>0</asrwt>
<pdfrwt beam="1">  1        1 0.45052254E-01 0.51190647E+03</pdfrwt>
<pdfrwt beam="2">  1       -1 0.34417397E-01 0.51190647E+03</pdfrwt>
<totfact> 0.72854870E+02</totfact>
</mgrwt>
</event>
<event>
 4    1  0.1672993E-004  0.2593881E+03  0.7818608E-02  0.1107511E+00
         -2   -1    0    0    0  501 -0.00000000000E+00  0.00000000000E+00  0.13985088284E+02  0.13985088284E+02  0.00000000000E+00 0.  1.
          2   -1    0    0  501    0  0.00000000000E+00 -0.00000000000E+00 -0.12027489851E+04  0.12027489851E+04  0.00000000000E+00 0.  1.
         25    1    1    2    0    0  0.39056609558E+02 -0.29577654621E+02 -0.57325031802E+03  0.58772117838E+03  0.12000000000E+03 0.  0.
         25    1    1    2    0    0 -0.39056609558E+02  0.29577654621E+02 -0.61551357877E+03  0.62901289498E+03  0.12000000000E+03 0.  0.
<mgrwt>
<rscale>  0 0.25938813E+03</rscale>
<asrwt>0</asrwt>
<pdfrwt beam="1">  1        2 0.18503834E+00 0.25938813E+03</pdfrwt>
<pdfrwt beam="2">  1       -2 0.21515516E-02 0.25938813E+03</pdfrwt>
<totfact> 0.13768135E+04</totfact>
</mgrwt>
</event>
<event>
 4    1  0.1672993E-004  0.3441322E+03  0.7818608E-02  0.1065050E+00
         -2   -1    0    0    0  501 -0.00000000000E+00  0.00000000000E+00  0.23561976911E+02  0.23561976911E+02  0.00000000000E+00 0.  1.
          2   -1    0    0  501    0  0.00000000000E+00 -0.00000000000E+00 -0.12565475445E+04  0.12565475445E+04  0.00000000000E+00 0.  1.
         25    1    1    2    0    0 -0.31670085055E+02  0.27320336510E+02 -0.10480134171E+04  0.10556900670E+04  0.12000000000E+03 0.  0.
         25    1    1    2    0    0  0.31670085055E+02 -0.27320336510E+02 -0.18497215047E+03  0.22441945442E+03  0.12000000000E+03 0.  0.
<mgrwt>
<rscale>  0 0.34413221E+03</rscale>
<asrwt>0</asrwt>
<pdfrwt beam="1">  1        2 0.19331499E+00 0.34413221E+03</pdfrwt>
<pdfrwt beam="2">  1       -2 0.36249198E-02 0.34413221E+03</pdfrwt>
<totfact> 0.59388032E+03</totfact>
</mgrwt>
</event>
<event>
 4    1  0.1672993E-004  0.2976040E+03  0.7818608E-02  0.1086444E+00
          1   -1    0    0  501    0  0.00000000000E+00  0.00000000000E+00  0.41250457079E+03  0.41250457079E+03  0.00000000000E+00 0.  1.
         -1   -1    0    0    0  501 -0.00000000000E+00 -0.00000000000E+00 -0.53677079075E+02  0.53677079075E+02  0.00000000000E+00 0.  1.
         25    1    1    2    0    0  0.38194202890E+02  0.69252332633E+02  0.23982586636E+03  0.27959100287E+03  0.12000000000E+03 0.  0.
         25    1    1    2    0    0 -0.38194202890E+02 -0.69252332633E+02  0.11900162536E+03  0.18659064700E+03  0.12000000000E+03 0.  0.
<mgrwt>
<rscale>  0 0.29760404E+03</rscale>
<asrwt>0</asrwt>
<pdfrwt beam="1">  1        1 0.63462239E-01 0.29760404E+03</pdfrwt>
<pdfrwt beam="2">  1       -1 0.82580124E-02 0.29760404E+03</pdfrwt>
<totfact> 0.47632654E+03</totfact>
</mgrwt>
</event>
<event>
 4    1  0.1672993E-004  0.2994265E+03  0.7818608E-02  0.1085528E+00
          1   -1    0    0  501    0  0.00000000000E+00  0.00000000000E+00  0.47012444207E+02  0.47012444207E+02  0.00000000000E+00 0.  1.
         -1   -1    0    0    0  501 -0.00000000000E+00 -0.00000000000E+00 -0.47676872296E+03  0.47676872296E+03  0.00000000000E+00 0.  1.
         25    1    1    2    0    0 -0.48047435229E+02  0.16607068962E+02 -0.85979600242E+02  0.15613085034E+03  0.12000000000E+03 0.  0.
         25    1    1    2    0    0  0.48047435229E+02 -0.16607068962E+02 -0.34377667851E+03  0.36765031682E+03  0.12000000000E+03 0.  0.
<mgrwt>
<rscale>  0 0.29942654E+03</rscale>
<asrwt>0</asrwt>
<pdfrwt beam="1">  1        1 0.72326843E-02 0.29942654E+03</pdfrwt>
<pdfrwt beam="2">  1       -1 0.73349029E-01 0.29942654E+03</pdfrwt>
<totfact> 0.19487235E+03</totfact>
</mgrwt>
</event>
